<event>
 8    1  0.1226832E-020  0.8670065E+02  0.7818608E-02  0.1311044E+00
          2   -1    0    0  501    0  0.00000000000E+00  0.00000000000E+00  0.45426828245E+02  0.45426828317E+02  0.25500000000E-02 0. -1.
         -1   -1    0    0    0  501 -0.00000000000E+00 -0.00000000000E+00 -0.41368739397E+02  0.41368739704E+02  0.50400000000E-02 0.  1.
         24    2    1    2    0    0 -0.35527136788E-14  0.00000000000E+00  0.40580888483E+01  0.86795568020E+02  0.86700649034E+02 0.  0.
         66    2    3    3    0    0  0.17428384463E+02  0.24789885020E+02  0.33031080252E+02  0.44870248949E+02  0.19999984585E+01 0.  0.
        -13    1    3    3    0    0 -0.17428384463E+02 -0.24789885020E+02 -0.28972991404E+02  0.41925319071E+02  0.10566000000E+00 0.  1.
         13    1    4    4    0    0  0.54636147865E+01  0.88180297239E+01  0.11331035993E+02  0.15362691023E+02  0.10566000000E+00 0. -1.
        -13    1    4    4    0    0  0.44005059120E+00  0.43020145962E+00  0.94519049402E+00  0.11328137200E+01  0.10566000000E+00 0.  1.
         14    1    4    4    0    0  0.11524719085E+02  0.15541653837E+02  0.20754853764E+02  0.28374744206E+02  0.00000000000E+00 0. -1.
<mgrwt>
<rscale>  0 0.86700649E+02</rscale>
<asrwt>0</asrwt>
<pdfrwt beam="1">  1        2 0.69887428E-02 0.86700649E+02</pdfrwt>
<pdfrwt beam="2">  1       -1 0.63644215E-02 0.86700649E+02</pdfrwt>
<totfact> 0.11718262E+05</totfact>
</mgrwt>
</event>
<event>
 8    1  0.1226832E-020  0.8122677E+02  0.7818608E-02  0.1325606E+00
         -1   -1    0    0    0  501 -0.00000000000E+00  0.00000000000E+00  0.14914377064E+02  0.14914377916E+02  0.50400000000E-02 0.  1.
          2   -1    0    0  501    0  0.00000000000E+00 -0.00000000000E+00 -0.11059442182E+03  0.11059442184E+03  0.25500000000E-02 0. -1.
         24    2    1    2    0    0 -0.35527136788E-14  0.35527136788E-14 -0.95680044751E+02  0.12550879976E+03  0.81226768087E+02 0.  0.
         66    2    3    3    0    0 -0.17553489358E+02 -0.25226205533E+02 -0.88836395341E+02  0.94023356528E+02  0.20000003311E+01 0.  0.
        -13    1    3    3    0    0  0.17553489358E+02  0.25226205533E+02 -0.68436494094E+01  0.31485443232E+02  0.10566000000E+00 0.  1.
         13    1    4    4    0    0 -0.20686674248E+01 -0.35291323147E+01 -0.10684185540E+02  0.11441028997E+02  0.10566000000E+00 0. -1.
        -13    1    4    4    0    0 -0.12947542755E+02 -0.18690764542E+02 -0.65674121614E+02  0.69498812626E+02  0.10566000000E+00 0.  1.
        -14    1    4    4    0    0 -0.25372791784E+01 -0.30063086761E+01 -0.12478088187E+02  0.13083514905E+02  0.00000000000E+00 0.  1.
<mgrwt>
<rscale>  0 0.81226768E+02</rscale>
<asrwt>0</asrwt>
<pdfrwt beam="1">  1        2 0.17014526E-01 0.81226768E+02</pdfrwt>
<pdfrwt beam="2">  1       -1 0.22945197E-02 0.81226768E+02</pdfrwt>
<totfact> 0.17514726E+05</totfact>
</mgrwt>
</event>
<event>
 8    1  0.1226832E-020  0.7704840E+02  0.7818608E-02  0.1337643E+00
         -1   -1    0    0    0  501 -0.00000000000E+00  0.00000000000E+00  0.22429673512E+02  0.22429674078E+02  0.50400000000E-02 0.  1.
          2   -1    0    0  501    0  0.00000000000E+00 -0.00000000000E+00 -0.66167443034E+02  0.66167443083E+02  0.25500000000E-02 0. -1.
         24    2    1    2    0    0  0.35527136788E-14 -0.35527136788E-14 -0.43737769522E+02  0.88597117161E+02  0.77048404827E+02 0.  0.
         66    2    3    3    0    0  0.18483488423E+02 -0.16800477194E+02 -0.55569910217E+02  0.60958265960E+02  0.19999722553E+01 0.  0.
        -13    1    3    3    0    0 -0.18483488423E+02  0.16800477194E+02  0.11832140695E+02  0.27638851201E+02  0.10566000000E+00 0.  1.
         13    1    4    4    0    0  0.59996985542E+01 -0.63021094137E+01 -0.20528024389E+02  0.22296275813E+02  0.10566000000E+00 0. -1.
        -13    1    4    4    0    0  0.80998946175E+01 -0.70048168578E+01 -0.22088456965E+02  0.24547644432E+02  0.10566000000E+00 0.  1.
        -14    1    4    4    0    0  0.43838952516E+01 -0.34935509223E+01 -0.12953428864E+02  0.14114345715E+02  0.00000000000E+00 0.  1.
<mgrwt>
<rscale>  0 0.77048405E+02</rscale>
<asrwt>0</asrwt>
<pdfrwt beam="1">  1        2 0.10179607E-01 0.77048405E+02</pdfrwt>
<pdfrwt beam="2">  1       -1 0.34507191E-02 0.77048405E+02</pdfrwt>
<totfact> 0.17633273E+05</totfact>
</mgrwt>
</event>
<event>
 8    1  0.1226832E-020  0.7881348E+02  0.7818608E-02  0.1332453E+00
         -1   -1    0    0    0  501 -0.00000000000E+00  0.00000000000E+00  0.35639912154E+01  0.35639947791E+01  0.50400000000E-02 0.  1.
          2   -1    0    0  501    0  0.00000000000E+00 -0.00000000000E+00 -0.43571664169E+03  0.43571664170E+03  0.25500000000E-02 0. -1.
         24    2    1    2    0    0  0.00000000000E+00  0.88817841970E-15 -0.43215265047E+03  0.43928063647E+03  0.78813477724E+02 0.  0.
         66    2    3    3    0    0 -0.34491214690E+02 -0.78900283971E+01 -0.31259125344E+03  0.31459368743E+03  0.20000003346E+01 0.  0.
        -13    1    3    3    0    0  0.34491214690E+02  0.78900283971E+01 -0.11956139703E+03  0.12468694905E+03  0.10566000000E+00 0.  1.
         13    1    4    4    0    0 -0.32029928092E+01 -0.93129997699E+00 -0.31447130196E+02  0.31623719645E+02  0.10566000000E+00 0. -1.
        -13    1    4    4    0    0 -0.63273824716E+01 -0.80151547604E+00 -0.53825301852E+02  0.54201960107E+02  0.10566000000E+00 0.  1.
        -14    1    4    4    0    0 -0.24960839410E+02 -0.61572129441E+01 -0.22731882140E+03  0.22876800768E+03  0.00000000000E+00 0.  1.
<mgrwt>
<rscale>  0 0.78813478E+02</rscale>
<asrwt>0</asrwt>
<pdfrwt beam="1">  1        2 0.67033287E-01 0.78813478E+02</pdfrwt>
<pdfrwt beam="2">  1       -1 0.54830696E-03 0.78813478E+02</pdfrwt>
<totfact> 0.30256006E+05</totfact>
</mgrwt>
</event>
<event>
 8    1  0.1226832E-020  0.7049092E+02  0.7818608E-02  0.1358432E+00
         -1   -1    0    0    0  501 -0.00000000000E+00  0.00000000000E+00  0.19146771799E+01  0.19146838132E+01  0.50400000000E-02 0.  1.
          2   -1    0    0  501    0  0.00000000000E+00 -0.00000000000E+00 -0.64879883495E+03  0.64879883495E+03  0.25500000000E-02 0. -1.
         24    2    1    2    0    0 -0.88817841970E-15  0.00000000000E+00 -0.64688415777E+03  0.65071351877E+03  0.70490920932E+02 0.  0.
         66    2    3    3    0    0 -0.59142966234E+01 -0.22831588875E+02 -0.56512408907E+03  0.56561956862E+03  0.19999988878E+01 0.  0.
        -13    1    3    3    0    0  0.59142966234E+01  0.22831588875E+02 -0.81760068696E+02  0.85093950151E+02  0.10566000000E+00 0.  1.
         13    1    4    4    0    0 -0.42490089779E+01 -0.15371236959E+02 -0.39001259588E+03  0.39033852630E+03  0.10566000000E+00 0. -1.
        -13    1    4    4    0    0 -0.10249227794E+01 -0.60358086738E+01 -0.14463833401E+03  0.14476788416E+03  0.10566000000E+00 0.  1.
        -14    1    4    4    0    0 -0.64036486607E+00 -0.14245432429E+01 -0.30473159179E+02  0.30513158161E+02  0.00000000000E+00 0.  1.
<mgrwt>
<rscale>  0 0.70490921E+02</rscale>
<asrwt>0</asrwt>
<pdfrwt beam="1">  1        2 0.99815030E-01 0.70490921E+02</pdfrwt>
<pdfrwt beam="2">  1       -1 0.29456675E-03 0.70490921E+02</pdfrwt>
<totfact> 0.45541748E+05</totfact>
</mgrwt>
</event>
<event>
 8    1  0.1226832E-020  0.8446891E+02  0.7818608E-02  0.1316827E+00
          2   -1    0    0  501    0  0.00000000000E+00  0.00000000000E+00  0.64129779821E+02  0.64129779872E+02  0.25500000000E-02 0. -1.
         -1   -1    0    0    0  501 -0.00000000000E+00 -0.00000000000E+00 -0.27814675596E+02  0.27814676053E+02  0.50400000000E-02 0.  1.
         24    2    1    2    0    0  0.00000000000E+00 -0.44408920985E-15  0.36315104224E+02  0.91944455925E+02  0.84468906590E+02 0.  0.
         66    2    3    3    0    0 -0.26337874398E+02 -0.32254776371E+01  0.53900654415E+02  0.60111295960E+02  0.20000054790E+01 0.  0.
        -13    1    3    3    0    0  0.26337874398E+02  0.32254776371E+01 -0.17585550190E+02  0.31833159964E+02  0.10566000000E+00 0.  1.
         13    1    4    4    0    0 -0.11195236892E+02 -0.83338425614E+00  0.21540138495E+02  0.24290257075E+02  0.10566000000E+00 0. -1.
        -13    1    4    4    0    0 -0.94147434737E+01 -0.15687542738E+01  0.19073241205E+02  0.21328339803E+02  0.10566000000E+00 0.  1.
         14    1    4    4    0    0 -0.57278940318E+01 -0.82333910716E+00  0.13287274715E+02  0.14492699082E+02  0.00000000000E+00 0. -1.
<mgrwt>
<rscale>  0 0.84468907E+02</rscale>
<asrwt>0</asrwt>
<pdfrwt beam="1">  1        2 0.98661199E-02 0.84468907E+02</pdfrwt>
<pdfrwt beam="2">  1       -1 0.42791809E-02 0.84468907E+02</pdfrwt>
<totfact> 0.13633926E+05</totfact>
</mgrwt>
</event>
<event>
 8    1  0.1226832E-020  0.9022950E+02  0.7818608E-02  0.1302297E+00
          2   -1    0    0  501    0  0.00000000000E+00  0.00000000000E+00  0.55534804919E+03  0.55534804920E+03  0.25500000000E-02 0. -1.
         -1   -1    0    0    0  501 -0.00000000000E+00 -0.00000000000E+00 -0.36649807490E+01  0.36649842144E+01  0.50400000000E-02 0.  1.
         24    2    1    2    0    0  0.00000000000E+00  0.00000000000E+00  0.55168306844E+03  0.55901303341E+03  0.90229504698E+02 0.  0.
         66    2    3    3    0    0  0.23885168261E+02  0.23736012970E+02  0.46178217299E+03  0.46301260768E+03  0.19999998168E+01 0.  0.
        -13    1    3    3    0    0 -0.23885168261E+02 -0.23736012970E+02  0.89900895450E+02  0.96000425735E+02  0.10566000000E+00 0.  1.
         13    1    4    4    0    0  0.76893579073E+01  0.75072254177E+01  0.14710227056E+03  0.14749431795E+03  0.10566000000E+00 0. -1.
        -13    1    4    4    0    0  0.90886699407E+01  0.84062228764E+01  0.17854901227E+03  0.17897773451E+03  0.10566000000E+00 0.  1.
        -14    1    4    4    0    0  0.71071404131E+01  0.78225646760E+01  0.13613089016E+03  0.13654055522E+03  0.00000000000E+00 0.  1.
<mgrwt>
<rscale>  0 0.90229505E+02</rscale>
<asrwt>0</asrwt>
<pdfrwt beam="1">  1        2 0.85438098E-01 0.90229505E+02</pdfrwt>
<pdfrwt beam="2">  1       -1 0.56384388E-03 0.90229505E+02</pdfrwt>
<totfact> 0.22951201E+05</totfact>
</mgrwt>
</event>
<event>
 8    1  0.1226832E-020  0.8022543E+02  0.7818608E-02  0.1328413E+00
         -1   -1    0    0    0  501 -0.00000000000E+00  0.00000000000E+00  0.28084406187E+01  0.28084451411E+01  0.50400000000E-02 0.  1.
          2   -1    0    0  501    0  0.00000000000E+00 -0.00000000000E+00 -0.57292591159E+03  0.57292591160E+03  0.25500000000E-02 0. -1.
         24    2    1    2    0    0  0.00000000000E+00  0.00000000000E+00 -0.57011747097E+03  0.57573435674E+03  0.80225425025E+02 0.  0.
         66    2    3    3    0    0  0.91564891305E+01  0.23913968596E+02 -0.50658061700E+03  0.50723134831E+03  0.19999997596E+01 0.  0.
        -13    1    3    3    0    0 -0.91564891305E+01 -0.23913968596E+02 -0.63536853975E+02  0.68503008433E+02  0.10566000000E+00 0.  1.
         13    1    4    4    0    0  0.23998925894E+01  0.52382194375E+01 -0.12176304195E+03  0.12189933542E+03  0.10566000000E+00 0.  1.
        -13    1    4    4    0    0  0.59306542296E+01  0.14882762790E+02 -0.31162218499E+03  0.31203375880E+03  0.10566000000E+00 0. -1.
         14    1    4    4    0    0  0.82594231152E+00  0.37929863692E+01 -0.73195390062E+02  0.73298254090E+02  0.00000000000E+00 0. -1.
<mgrwt>
<rscale>  0 0.80225425E+02</rscale>
<asrwt>0</asrwt>
<pdfrwt beam="1">  1        2 0.88142355E-01 0.80225425E+02</pdfrwt>
<pdfrwt beam="2">  1       -1 0.43206859E-03 0.80225425E+02</pdfrwt>
<totfact> 0.31512093E+05</totfact>
</mgrwt>
</event>
<event>
 8    1  0.1226832E-020  0.7952848E+02  0.7818608E-02  0.1330395E+00
          2   -1    0    0  501    0  0.00000000000E+00  0.00000000000E+00  0.10724315956E+03  0.10724315959E+03  0.25500000000E-02 0. -1.
         -1   -1    0    0    0  501 -0.00000000000E+00 -0.00000000000E+00 -0.14744015993E+02  0.14744016855E+02  0.50400000000E-02 0.  1.
         24    2    1    2    0    0  0.88817841970E-15  0.00000000000E+00  0.92499143562E+02  0.12198717644E+03  0.79528483301E+02 0.  0.
         66    2    3    3    0    0 -0.74068075630E+01 -0.28810800070E+02  0.86694870304E+02  0.91678369947E+02  0.19999950185E+01 0.  0.
        -13    1    3    3    0    0  0.74068075630E+01  0.28810800070E+02  0.58042732575E+01  0.30308806493E+02  0.10566000000E+00 0.  1.
         13    1    4    4    0    0 -0.66185320344E+01 -0.25329349088E+02  0.75434358591E+02  0.79848196671E+02  0.10566000000E+00 0. -1.
        -13    1    4    4    0    0 -0.22778100577E+00 -0.37487904485E+00  0.10505029024E+01  0.11433017399E+01  0.10566000000E+00 0. -1.
        -14    1    4    4    0    0 -0.56049452283E+00 -0.31065719378E+01  0.10210008810E+02  0.10686871536E+02  0.00000000000E+00 0.  1.
<mgrwt>
<rscale>  0 0.79528483E+02</rscale>
<asrwt>0</asrwt>
<pdfrwt beam="1">  1        2 0.16498947E-01 0.79528483E+02</pdfrwt>
<pdfrwt beam="2">  1       -1 0.22683103E-02 0.79528483E+02</pdfrwt>
<totfact> 0.18368844E+05</totfact>
</mgrwt>
</event>
<event>
 8    1  0.1226832E-020  0.8203464E+02  0.7818608E-02  0.1323375E+00
          2   -1    0    0  501    0  0.00000000000E+00  0.00000000000E+00  0.21843851709E+03  0.21843851710E+03  0.25500000000E-02 0. -1.
         -1   -1    0    0    0  501 -0.00000000000E+00 -0.00000000000E+00 -0.77020312113E+01  0.77020328604E+01  0.50400000000E-02 0.  1.
         24    2    1    2    0    0 -0.17763568394E-14  0.00000000000E+00  0.21073648588E+03  0.22614054996E+03  0.82034638160E+02 0.  0.
         66    2    3    3    0    0 -0.12178137426E+02 -0.30584583509E+02  0.17276807072E+03  0.17588783369E+03  0.19999997198E+01 0.  0.
        -13    1    3    3    0    0  0.12178137426E+02  0.30584583509E+02  0.37968415154E+02  0.50252716274E+02  0.10566000000E+00 0.  1.
         13    1    4    4    0    0 -0.11586074504E+01 -0.30737539970E+01  0.15213100545E+02  0.15564058824E+02  0.10566000000E+00 0.  1.
        -13    1    4    4    0    0 -0.42413288473E+01 -0.93986106824E+01  0.52281515291E+02  0.53288748890E+02  0.10566000000E+00 0. -1.
        -14    1    4    4    0    0 -0.67782011285E+01 -0.18112218830E+02  0.10527345489E+03  0.10703502598E+03  0.00000000000E+00 0.  1.
<mgrwt>
<rscale>  0 0.82034638E+02</rscale>
<asrwt>0</asrwt>
<pdfrwt beam="1">  1        2 0.33605925E-01 0.82034638E+02</pdfrwt>
<pdfrwt beam="2">  1       -1 0.11849280E-02 0.82034638E+02</pdfrwt>
<totfact> 0.21291532E+05</totfact>
</mgrwt>
</event>
<event>
 8    1  0.1226832E-020  0.7962118E+02  0.7818608E-02  0.1330130E+00
          2   -1    0    0  501    0  0.00000000000E+00  0.00000000000E+00  0.17793159855E+02  0.17793160038E+02  0.25500000000E-02 0. -1.
         -1   -1    0    0    0  501 -0.00000000000E+00 -0.00000000000E+00 -0.89072612673E+02  0.89072612816E+02  0.50400000000E-02 0.  1.
         24    2    1    2    0    0  0.00000000000E+00  0.17763568394E-14 -0.71279452818E+02  0.10686577285E+03  0.79621184453E+02 0.  0.
         66    2    3    3    0    0 -0.11869193348E+02  0.14689996164E+02  0.11337156740E+02  0.22117975969E+02  0.20000000005E+01 0.  0.
        -13    1    3    3    0    0  0.11869193348E+02 -0.14689996164E+02 -0.82616609558E+02  0.84747796885E+02  0.10566000000E+00 0.  1.
         13    1    4    4    0    0 -0.51588932143E+01  0.68727027219E+01  0.48754006936E+01  0.98807346821E+01  0.10566000000E+00 0. -1.
        -13    1    4    4    0    0 -0.48335615446E+01  0.47784343137E+01  0.46166424235E+01  0.82171347195E+01  0.10566000000E+00 0.  1.
        -14    1    4    4    0    0 -0.18767385889E+01  0.30388591284E+01  0.18451136224E+01  0.40201065674E+01  0.00000000000E+00 0.  1.
<mgrwt>
<rscale>  0 0.79621184E+02</rscale>
<asrwt>0</asrwt>
<pdfrwt beam="1">  1        2 0.27374093E-02 0.79621184E+02</pdfrwt>
<pdfrwt beam="2">  1       -1 0.13703479E-01 0.79621184E+02</pdfrwt>
<totfact> 0.12289400E+05</totfact>
</mgrwt>
</event>
<event>
 8    1  0.1226832E-020  0.7903691E+02  0.7818608E-02  0.1331807E+00
          2   -1    0    0  501    0  0.00000000000E+00  0.00000000000E+00  0.21116937204E+02  0.21116937357E+02  0.25500000000E-02 0. -1.
         -1   -1    0    0    0  501 -0.00000000000E+00 -0.00000000000E+00 -0.73955251647E+02  0.73955251819E+02  0.50400000000E-02 0.  1.
         24    2    1    2    0    0  0.00000000000E+00  0.00000000000E+00 -0.52838314444E+02  0.95072189177E+02  0.79036913411E+02 0.  0.
         66    2    3    3    0    0 -0.26344549840E+02 -0.99909039340E+01  0.68525618564E+01  0.29065633856E+02  0.19999999399E+01 0.  0.
        -13    1    3    3    0    0  0.26344549840E+02  0.99909039340E+01 -0.59690876300E+02  0.66006555320E+02  0.10566000000E+00 0.  1.
         13    1    4    4    0    0 -0.62403432962E+01 -0.25521622312E+01  0.17290639689E+01  0.69610518425E+01  0.10566000000E+00 0. -1.
        -13    1    4    4    0    0 -0.12967723658E+02 -0.56127273059E+01  0.36058601014E+01  0.14583482293E+02  0.10566000000E+00 0.  1.
        -14    1    4    4    0    0 -0.71364828862E+01 -0.18260143969E+01  0.15176377861E+01  0.75210997210E+01  0.00000000000E+00 0.  1.
<mgrwt>
<rscale>  0 0.79036913E+02</rscale>
<asrwt>0</asrwt>
<pdfrwt beam="1">  1        2 0.32487596E-02 0.79036913E+02</pdfrwt>
<pdfrwt beam="2">  1       -1 0.11377731E-01 0.79036913E+02</pdfrwt>
<totfact> 0.12994502E+05</totfact>
</mgrwt>
</event>
<event>
 8    1  0.1226832E-020  0.7973135E+02  0.7818608E-02  0.1329816E+00
         -1   -1    0    0    0  501 -0.00000000000E+00  0.00000000000E+00  0.37830676460E+01  0.37830710033E+01  0.50400000000E-02 0.  1.
          2   -1    0    0  501    0  0.00000000000E+00 -0.00000000000E+00 -0.42010119584E+03  0.42010119585E+03  0.25500000000E-02 0. -1.
         24    2    1    2    0    0  0.00000000000E+00 -0.35527136788E-14 -0.41631812819E+03  0.42388426685E+03  0.79731347793E+02 0.  0.
         66    2    3    3    0    0 -0.22227480473E+02  0.26191912323E+02 -0.31556915568E+03  0.31743970952E+03  0.20000006136E+01 0.  0.
        -13    1    3    3    0    0  0.22227480473E+02 -0.26191912323E+02 -0.10074897251E+03  0.10644455733E+03  0.10566000000E+00 0.  1.
         13    1    4    4    0    0 -0.38502690426E+01  0.53579725651E+01 -0.64236252940E+02  0.64574296725E+02  0.10566000000E+00 0. -1.
        -13    1    4    4    0    0 -0.45512709373E+01  0.56937619322E+01 -0.64037243658E+02  0.64450855164E+02  0.10566000000E+00 0.  1.
        -14    1    4    4    0    0 -0.13825940493E+02  0.15140177825E+02 -0.18729565908E+03  0.18841455763E+03  0.00000000000E+00 0.  1.
<mgrwt>
<rscale>  0 0.79731348E+02</rscale>
<asrwt>0</asrwt>
<pdfrwt beam="1">  1        2 0.64630916E-01 0.79731348E+02</pdfrwt>
<pdfrwt beam="2">  1       -1 0.58201100E-03 0.79731348E+02</pdfrwt>
<totfact> 0.28991928E+05</totfact>
</mgrwt>
</event>
<event>
 8    1  0.1226832E-020  0.8004075E+02  0.7818608E-02  0.1328936E+00
         -1   -1    0    0    0  501 -0.00000000000E+00  0.00000000000E+00  0.40087106218E+01  0.40087137901E+01  0.50400000000E-02 0.  1.
          2   -1    0    0  501    0  0.00000000000E+00 -0.00000000000E+00 -0.39953736498E+03  0.39953736499E+03  0.25500000000E-02 0. -1.
         24    2    1    2    0    0  0.17763568394E-14  0.35527136788E-14 -0.39552865436E+03  0.40354607878E+03  0.80040747615E+02 0.  0.
         66    2    3    3    0    0 -0.11854703707E+02 -0.24063228349E+02 -0.34745462419E+03  0.34849431678E+03  0.19999993329E+01 0.  0.
        -13    1    3    3    0    0  0.11854703707E+02  0.24063228349E+02 -0.48074030162E+02  0.55051761993E+02  0.10566000000E+00 0.  1.
         13    1    4    4    0    0 -0.62758282994E+01 -0.11390382647E+02 -0.16811291307E+03  0.16861521148E+03  0.10566000000E+00 0. -1.
        -13    1    4    4    0    0 -0.20045055866E+01 -0.57635695961E+01 -0.75184445801E+02  0.75431749493E+02  0.10566000000E+00 0.  1.
        -14    1    4    4    0    0 -0.35743698208E+01 -0.69092761060E+01 -0.10415726533E+03  0.10444735581E+03  0.00000000000E+00 0.  1.
<mgrwt>
<rscale>  0 0.80040748E+02</rscale>
<asrwt>0</asrwt>
<pdfrwt beam="1">  1        2 0.61467255E-01 0.80040748E+02</pdfrwt>
<pdfrwt beam="2">  1       -1 0.61672527E-03 0.80040748E+02</pdfrwt>
<totfact> 0.28204638E+05</totfact>
</mgrwt>
</event>
<event>
 8    1  0.1226832E-020  0.8341524E+02  0.7818608E-02  0.1319630E+00
         -1   -1    0    0    0  501 -0.00000000000E+00  0.00000000000E+00  0.90262385846E+01  0.90262399917E+01  0.50400000000E-02 0.  1.
          2   -1    0    0  501    0  0.00000000000E+00 -0.00000000000E+00 -0.19271877287E+03  0.19271877289E+03  0.25500000000E-02 0. -1.
         24    2    1    2    0    0 -0.35527136788E-14  0.00000000000E+00 -0.18369253429E+03  0.20174501288E+03  0.83415244826E+02 0.  0.
         66    2    3    3    0    0 -0.16036960771E+02  0.16427148717E+02 -0.17604563366E+03  0.17754745972E+03  0.19999995063E+01 0.  0.
        -13    1    3    3    0    0  0.16036960771E+02 -0.16427148717E+02 -0.76469006344E+01  0.24197553163E+02  0.10566000000E+00 0.  1.
         13    1    4    4    0    0 -0.42753506025E+01  0.52266694785E+01 -0.55086785134E+02  0.55499205013E+02  0.10566000000E+00 0.  1.
        -13    1    4    4    0    0 -0.28050722966E+01  0.26709040639E+01 -0.25926378443E+02  0.26214317124E+02  0.10566000000E+00 0. -1.
         14    1    4    4    0    0 -0.89565378722E+01  0.85295751742E+01 -0.95032470079E+02  0.95833937583E+02  0.00000000000E+00 0. -1.
<mgrwt>
<rscale>  0 0.83415245E+02</rscale>
<asrwt>0</asrwt>
<pdfrwt beam="1">  1        2 0.29649039E-01 0.83415245E+02</pdfrwt>
<pdfrwt beam="2">  1       -1 0.13886523E-02 0.83415245E+02</pdfrwt>
<totfact> 0.19496731E+05</totfact>
</mgrwt>
</event>
<event>
 8    1  0.1226832E-020  0.7479837E+02  0.7818608E-02  0.1344497E+00
          2   -1    0    0  501    0  0.00000000000E+00  0.00000000000E+00  0.15493181396E+04  0.15493181397E+04  0.25500000000E-02 0. -1.
         -1   -1    0    0    0  501 -0.00000000000E+00 -0.00000000000E+00 -0.90277665385E+00  0.90279072234E+00  0.50400000000E-02 0.  1.
         24    2    1    2    0    0  0.00000000000E+00  0.00000000000E+00  0.15484153630E+04  0.15502209304E+04  0.74798373034E+02 0.  0.
         66    2    3    3    0    0 -0.17919257367E+02  0.77111388484E+01  0.14354176396E+04  0.14355515879E+04  0.19999994836E+01 0.  0.
        -13    1    3    3    0    0  0.17919257367E+02 -0.77111388484E+01  0.11299772338E+03  0.11466934246E+03  0.10566000000E+00 0.  1.
         13    1    4    4    0    0 -0.51756003628E+00  0.50640707370E-01  0.40179741169E+02  0.40183245231E+02  0.10566000000E+00 0. -1.
        -13    1    4    4    0    0 -0.24405625661E+01  0.15910110200E+01  0.23652350242E+03  0.23654146787E+03  0.10566000000E+00 0.  1.
        -14    1    4    4    0    0 -0.14961134764E+02  0.60694871210E+01  0.11587143960E+04  0.11588268748E+04  0.00000000000E+00 0.  1.
<mgrwt>
<rscale>  0 0.74798373E+02</rscale>
<asrwt>0</asrwt>
<pdfrwt beam="1">  1        2 0.23835284E+00 0.74798373E+02</pdfrwt>
<pdfrwt beam="2">  1       -1 0.13889201E-03 0.74798373E+02</pdfrwt>
<totfact> 0.39069791E+05</totfact>
</mgrwt>
</event>
<event>
 8    1  0.1226832E-020  0.7775491E+02  0.7818608E-02  0.1335546E+00
         -1   -1    0    0    0  501 -0.00000000000E+00  0.00000000000E+00  0.66788646445E+01  0.66788665461E+01  0.50400000000E-02 0.  1.
          2   -1    0    0  501    0  0.00000000000E+00 -0.00000000000E+00 -0.22630435680E+03  0.22630435681E+03  0.25500000000E-02 0. -1.
         24    2    1    2    0    0  0.00000000000E+00  0.00000000000E+00 -0.21962549215E+03  0.23298322336E+03  0.77754907001E+02 0.  0.
         66    2    3    3    0    0  0.13087338350E+02 -0.29229824510E+02 -0.17579127436E+03  0.17869592393E+03  0.20000052183E+01 0.  0.
        -13    1    3    3    0    0 -0.13087338350E+02  0.29229824510E+02 -0.43834217792E+02  0.54287299431E+02  0.10566000000E+00 0.  1.
         13    1    4    4    0    0  0.64892748388E+01 -0.12912288671E+02 -0.78953475308E+02  0.80265187435E+02  0.10566000000E+00 0. -1.
        -13    1    4    4    0    0  0.26248222184E+01 -0.55903551339E+01 -0.31726297868E+02  0.32321987913E+02  0.10566000000E+00 0.  1.
        -14    1    4    4    0    0  0.39732412930E+01 -0.10727180705E+02 -0.65111501183E+02  0.66108748578E+02  0.00000000000E+00 0.  1.
<mgrwt>
<rscale>  0 0.77754907E+02</rscale>
<asrwt>0</asrwt>
<pdfrwt beam="1">  1        2 0.34816049E-01 0.77754907E+02</pdfrwt>
<pdfrwt beam="2">  1       -1 0.10275180E-02 0.77754907E+02</pdfrwt>
<totfact> 0.24826487E+05</totfact>
</mgrwt>
</event>
<event>
 8    1  0.1226832E-020  0.8080526E+02  0.7818608E-02  0.1326782E+00
          2   -1    0    0  501    0  0.00000000000E+00  0.00000000000E+00  0.19816047797E+03  0.19816047798E+03  0.25500000000E-02 0. -1.
         -1   -1    0    0    0  501 -0.00000000000E+00 -0.00000000000E+00 -0.82376288364E+01  0.82376303782E+01  0.50400000000E-02 0.  1.
         24    2    1    2    0    0  0.00000000000E+00 -0.35527136788E-14  0.18992284913E+03  0.20639810836E+03  0.80805262906E+02 0.  0.
         66    2    3    3    0    0  0.24593797269E+02 -0.30620507079E+02  0.71072281623E+02  0.81226470684E+02  0.20000017247E+01 0.  0.
        -13    1    3    3    0    0 -0.24593797269E+02  0.30620507079E+02  0.11885056751E+03  0.12517163768E+03  0.10566000000E+00 0.  1.
         13    1    4    4    0    0  0.11498071559E+02 -0.15490934860E+02  0.34212902266E+02  0.39277328803E+02  0.10566000000E+00 0. -1.
        -13    1    4    4    0    0  0.75711932228E+01 -0.93448504357E+01  0.21889500553E+02  0.24976200571E+02  0.10566000000E+00 0.  1.
        -14    1    4    4    0    0  0.55245324867E+01 -0.57847217830E+01  0.14969878804E+02  0.16972941310E+02  0.00000000000E+00 0.  1.
<mgrwt>
<rscale>  0 0.80805263E+02</rscale>
<asrwt>0</asrwt>
<pdfrwt beam="1">  1        2 0.30486226E-01 0.80805263E+02</pdfrwt>
<pdfrwt beam="2">  1       -1 0.12673277E-02 0.80805263E+02</pdfrwt>
<totfact> 0.21414091E+05</totfact>
</mgrwt>
</event>
<event>
 8    1  0.1226832E-020  0.8071552E+02  0.7818608E-02  0.1327033E+00
         -1   -1    0    0    0  501 -0.00000000000E+00  0.00000000000E+00  0.12279029450E+02  0.12279030485E+02  0.50400000000E-02 0.  1.
          2   -1    0    0  501    0  0.00000000000E+00 -0.00000000000E+00 -0.13264474270E+03  0.13264474273E+03  0.25500000000E-02 0. -1.
         24    2    1    2    0    0  0.00000000000E+00  0.00000000000E+00 -0.12036571325E+03  0.14492377321E+03  0.80715519668E+02 0.  0.
         66    2    3    3    0    0  0.11726116226E+02  0.52980311388E+01 -0.12885276758E+03  0.12950909868E+03  0.19999980631E+01 0.  0.
        -13    1    3    3    0    0 -0.11726116226E+02 -0.52980311388E+01  0.84870543282E+01  0.15414674531E+02  0.10566000000E+00 0.  1.
         13    1    4    4    0    0  0.42657446782E+01  0.14967208476E+01 -0.46523321977E+02  0.46742565214E+02  0.10566000000E+00 0. -1.
        -13    1    4    4    0    0  0.89526246223E+00  0.63379445691E+00 -0.15960301583E+02  0.15998299315E+02  0.10566000000E+00 0.  1.
        -14    1    4    4    0    0  0.65651090858E+01  0.31675158343E+01 -0.66369144022E+02  0.66768234154E+02  0.00000000000E+00 0.  1.
<mgrwt>
<rscale>  0 0.80715520E+02</rscale>
<asrwt>0</asrwt>
<pdfrwt beam="1">  1        2 0.20406883E-01 0.80715520E+02</pdfrwt>
<pdfrwt beam="2">  1       -1 0.18890816E-02 0.80715520E+02</pdfrwt>
<totfact> 0.18814844E+05</totfact>
</mgrwt>
</event>
<event>
 8    1  0.1226832E-020  0.7999458E+02  0.7818608E-02  0.1329067E+00
         -1   -1    0    0    0  501 -0.00000000000E+00  0.00000000000E+00  0.14972729885E+02  0.14972730733E+02  0.50400000000E-02 0.  1.
          2   -1    0    0  501    0  0.00000000000E+00 -0.00000000000E+00 -0.10684644944E+03  0.10684644947E+03  0.25500000000E-02 0. -1.
         24    2    1    2    0    0  0.35527136788E-14  0.00000000000E+00 -0.91873719556E+02  0.12181918020E+03  0.79994576819E+02 0.  0.
         66    2    3    3    0    0  0.17059837980E+02 -0.36078487991E+02 -0.42532249251E+02  0.58358269214E+02  0.19999979424E+01 0.  0.
        -13    1    3    3    0    0 -0.17059837980E+02  0.36078487991E+02 -0.49341470305E+02  0.63460910989E+02  0.10566000000E+00 0.  1.
         13    1    4    4    0    0  0.71578032638E+01 -0.15805591718E+02 -0.19306688422E+02  0.25957855439E+02  0.10566000000E+00 0. -1.
        -13    1    4    4    0    0  0.74143359042E+01 -0.16238717736E+02 -0.18368148311E+02  0.25613831557E+02  0.10566000000E+00 0.  1.
        -14    1    4    4    0    0  0.24876988119E+01 -0.40341785374E+01 -0.48574125175E+01  0.67865822190E+01  0.00000000000E+00 0.  1.
<mgrwt>
<rscale>  0 0.79994577E+02</rscale>
<asrwt>0</asrwt>
<pdfrwt beam="1">  1        2 0.16437915E-01 0.79994577E+02</pdfrwt>
<pdfrwt beam="2">  1       -1 0.23034970E-02 0.79994577E+02</pdfrwt>
<totfact> 0.18064904E+05</totfact>
</mgrwt>
</event>
<event>
 8    1  0.1226832E-020  0.8013715E+02  0.7818608E-02  0.1328663E+00
          2   -1    0    0  501    0  0.00000000000E+00  0.00000000000E+00  0.56624456662E+03  0.56624456663E+03  0.25500000000E-02 0. -1.
         -1   -1    0    0    0  501 -0.00000000000E+00 -0.00000000000E+00 -0.28353283485E+01  0.28353328279E+01  0.50400000000E-02 0.  1.
         24    2    1    2    0    0  0.71054273576E-14  0.00000000000E+00  0.56340923827E+03  0.56907989946E+03  0.80137146147E+02 0.  0.
         66    2    3    3    0    0  0.36269750647E+02  0.10864758003E+02  0.37445532378E+03  0.37636993411E+03  0.20000033920E+01 0.  0.
        -13    1    3    3    0    0 -0.36269750647E+02 -0.10864758003E+02  0.18895391449E+03  0.19270996535E+03  0.10566000000E+00 0.  1.
         13    1    4    4    0    0  0.34332390549E+02  0.10080424517E+02  0.35185309926E+03  0.35366784223E+03  0.10566000000E+00 0. -1.
        -13    1    4    4    0    0  0.73315439905E+00  0.11678699059E+00  0.81630050801E+01  0.81973758330E+01  0.10566000000E+00 0. -1.
         14    1    4    4    0    0  0.12042056987E+01  0.66754649506E+00  0.14439219442E+02  0.14504716053E+02  0.00000000000E+00 0. -1.
<mgrwt>
<rscale>  0 0.80137146E+02</rscale>
<asrwt>0</asrwt>
<pdfrwt beam="1">  1        2 0.87114483E-01 0.80137146E+02</pdfrwt>
<pdfrwt beam="2">  1       -1 0.43620504E-03 0.80137146E+02</pdfrwt>
<totfact> 0.31494505E+05</totfact>
</mgrwt>
</event>
<event>
 8    1  0.1226832E-020  0.8478067E+02  0.7818608E-02  0.1316007E+00
         -1   -1    0    0    0  501 -0.00000000000E+00  0.00000000000E+00  0.95934347167E+02  0.95934347299E+02  0.50400000000E-02 0.  1.
          2   -1    0    0  501    0  0.00000000000E+00 -0.00000000000E+00 -0.18730939543E+02  0.18730939716E+02  0.25500000000E-02 0. -1.
         24    2    1    2    0    0  0.00000000000E+00  0.00000000000E+00  0.77203407624E+02  0.11466528702E+03  0.84780669362E+02 0.  0.
         66    2    3    3    0    0  0.35778192732E+02 -0.21558304982E+02  0.29050386067E+02  0.50919195072E+02  0.19999768118E+01 0.  0.
        -13    1    3    3    0    0 -0.35778192732E+02  0.21558304982E+02  0.48153021558E+02  0.63746091944E+02  0.10566000000E+00 0.  1.
         13    1    4    4    0    0  0.17089892384E+02 -0.10766316861E+02  0.14718960287E+02  0.24992738074E+02  0.10566000000E+00 0. -1.
        -13    1    4    4    0    0  0.84791242073E+01 -0.44135659225E+01  0.66904452269E+01  0.11668261775E+02  0.10566000000E+00 0.  1.
         14    1    4    4    0    0  0.10209176141E+02 -0.63784221985E+01  0.76409805522E+01  0.14258195223E+02  0.00000000000E+00 0. -1.
<mgrwt>
<rscale>  0 0.84780669E+02</rscale>
<asrwt>0</asrwt>
<pdfrwt beam="1">  1        2 0.28816830E-02 0.84780669E+02</pdfrwt>
<pdfrwt beam="2">  1       -1 0.14759130E-01 0.84780669E+02</pdfrwt>
<totfact> 0.10350690E+05</totfact>
</mgrwt>
</event>
<event>
 8    1  0.1226832E-020  0.7617768E+02  0.7818608E-02  0.1340262E+00
          2   -1    0    0  501    0  0.00000000000E+00  0.00000000000E+00  0.39711070614E+03  0.39711070615E+03  0.25500000000E-02 0. -1.
         -1   -1    0    0    0  501 -0.00000000000E+00 -0.00000000000E+00 -0.36532861259E+01  0.36532896024E+01  0.50400000000E-02 0.  1.
         24    2    1    2    0    0  0.17763568394E-14  0.00000000000E+00  0.39345742002E+03  0.40076399575E+03  0.76177679972E+02 0.  0.
         66    2    3    3    0    0 -0.14679964971E+02 -0.32791787423E+01  0.38080786925E+03  0.38111007290E+03  0.19999997733E+01 0.  0.
        -13    1    3    3    0    0  0.14679964971E+02  0.32791787423E+01  0.12649550761E+02  0.19653922847E+02  0.10566000000E+00 0.  1.
         13    1    4    4    0    0 -0.99111381342E+01 -0.24036214176E+01  0.25614835077E+03  0.25635131523E+03  0.10566000000E+00 0. -1.
        -13    1    4    4    0    0 -0.23652199109E+01 -0.88622744279E+00  0.72103207151E+02  0.72147510766E+02  0.10566000000E+00 0.  1.
         14    1    4    4    0    0 -0.24036069258E+01  0.10670118026E-01  0.52556311334E+02  0.52611246907E+02  0.00000000000E+00 0. -1.
<mgrwt>
<rscale>  0 0.76177680E+02</rscale>
<asrwt>0</asrwt>
<pdfrwt beam="1">  1        2 0.61093954E-01 0.76177680E+02</pdfrwt>
<pdfrwt beam="2">  1       -1 0.56204430E-03 0.76177680E+02</pdfrwt>
<totfact> 0.32017262E+05</totfact>
</mgrwt>
</event>
<event>
 8    1  0.1226832E-020  0.7847111E+02  0.7818608E-02  0.1333447E+00
         -1   -1    0    0    0  501 -0.00000000000E+00  0.00000000000E+00  0.79536658537E+01  0.79536674505E+01  0.50400000000E-02 0.  1.
          2   -1    0    0  501    0  0.00000000000E+00 -0.00000000000E+00 -0.19354957388E+03  0.19354957390E+03  0.25500000000E-02 0. -1.
         24    2    1    2    0    0  0.88817841970E-15 -0.35527136788E-14 -0.18559590803E+03  0.20150324135E+03  0.78471110591E+02 0.  0.
         66    2    3    3    0    0  0.26473519301E+01 -0.18374280190E+02 -0.18154431304E+03  0.18250194585E+03  0.19999992711E+01 0.  0.
        -13    1    3    3    0    0 -0.26473519301E+01  0.18374280190E+02 -0.40515949906E+01  0.19001295502E+02  0.10566000000E+00 0.  1.
         13    1    4    4    0    0  0.29498823896E+00 -0.53822088884E+01 -0.49521935722E+02  0.49814540772E+02  0.10566000000E+00 0. -1.
        -13    1    4    4    0    0  0.12159654615E+01 -0.44089576551E+01 -0.41156141129E+02  0.41409619610E+02  0.10566000000E+00 0.  1.
        -14    1    4    4    0    0  0.11363982297E+01 -0.85831136465E+01 -0.90866236186E+02  0.91277785465E+02  0.00000000000E+00 0.  1.
<mgrwt>
<rscale>  0 0.78471111E+02</rscale>
<asrwt>0</asrwt>
<pdfrwt beam="1">  1        2 0.29776854E-01 0.78471111E+02</pdfrwt>
<pdfrwt beam="2">  1       -1 0.12236412E-02 0.78471111E+02</pdfrwt>
<totfact> 0.22948363E+05</totfact>
</mgrwt>
</event>
<event>
 8    1  0.1226832E-020  0.7981422E+02  0.7818608E-02  0.1329579E+00
         -1   -1    0    0    0  501 -0.00000000000E+00  0.00000000000E+00  0.19479673976E+03  0.19479673983E+03  0.50400000000E-02 0.  1.
          2   -1    0    0  501    0  0.00000000000E+00 -0.00000000000E+00 -0.81755847265E+01  0.81755851242E+01  0.25500000000E-02 0. -1.
         24    2    1    2    0    0 -0.35527136788E-14  0.00000000000E+00  0.18662115503E+03  0.20297232495E+03  0.79814216712E+02 0.  0.
         66    2    3    3    0    0  0.26316238669E+02  0.16155073068E+02  0.29182985059E+02  0.42534426271E+02  0.19999994304E+01 0.  0.
        -13    1    3    3    0    0 -0.26316238669E+02 -0.16155073068E+02  0.15743816997E+03  0.16043789868E+03  0.10566000000E+00 0.  1.
         13    1    4    4    0    0  0.21115433645E+02  0.12792080393E+02  0.23802813081E+02  0.34294080151E+02  0.10566000000E+00 0. -1.
        -13    1    4    4    0    0  0.35001252425E+01  0.26358039310E+01  0.35774066742E+01  0.56575031263E+01  0.10566000000E+00 0. -1.
         14    1    4    4    0    0  0.17006797815E+01  0.72718874336E+00  0.18027653039E+01  0.25828429935E+01  0.00000000000E+00 0. -1.
<mgrwt>
<rscale>  0 0.79814217E+02</rscale>
<asrwt>0</asrwt>
<pdfrwt beam="1">  1        2 0.12577824E-02 0.79814217E+02</pdfrwt>
<pdfrwt beam="2">  1       -1 0.29968728E-01 0.79814217E+02</pdfrwt>
<totfact> 0.10099032E+05</totfact>
</mgrwt>
</event>
<event>
 8    1  0.1226832E-020  0.8152785E+02  0.7818608E-02  0.1324771E+00
         -1   -1    0    0    0  501 -0.00000000000E+00  0.00000000000E+00  0.45883833940E+02  0.45883834217E+02  0.50400000000E-02 0.  1.
          2   -1    0    0  501    0  0.00000000000E+00 -0.00000000000E+00 -0.36215320491E+02  0.36215320581E+02  0.25500000000E-02 0. -1.
         24    2    1    2    0    0 -0.35527136788E-14 -0.35527136788E-14  0.96685134487E+01  0.82099154797E+02  0.81527854542E+02 0.  0.
         66    2    3    3    0    0  0.24234768030E+02  0.27980030929E+02 -0.12296376230E+02  0.39056459077E+02  0.20000037368E+01 0.  0.
        -13    1    3    3    0    0 -0.24234768030E+02 -0.27980030929E+02  0.21964889679E+02  0.43042695721E+02  0.10566000000E+00 0.  1.
         13    1    4    4    0    0  0.26318414019E+01  0.37775535751E+01 -0.15217653515E+01  0.48500962875E+01  0.10566000000E+00 0. -1.
        -13    1    4    4    0    0  0.68051106458E+01  0.72143416416E+01 -0.38161723111E+01  0.10626880604E+02  0.10566000000E+00 0.  1.
        -14    1    4    4    0    0  0.14797815983E+02  0.16988135712E+02 -0.69584385676E+01  0.23579482185E+02  0.00000000000E+00 0.  1.
<mgrwt>
<rscale>  0 0.81527855E+02</rscale>
<asrwt>0</asrwt>
<pdfrwt beam="1">  1        2 0.55715878E-02 0.81527855E+02</pdfrwt>
<pdfrwt beam="2">  1       -1 0.70590514E-02 0.81527855E+02</pdfrwt>
<totfact> 0.13253605E+05</totfact>
</mgrwt>
</event>
<event>
 8    1  0.1226832E-020  0.7818031E+02  0.7818608E-02  0.1334296E+00
          2   -1    0    0  501    0  0.00000000000E+00  0.00000000000E+00  0.17865077886E+02  0.17865078068E+02  0.25500000000E-02 0. -1.
         -1   -1    0    0    0  501 -0.00000000000E+00 -0.00000000000E+00 -0.85532241049E+02  0.85532241197E+02  0.50400000000E-02 0.  1.
         24    2    1    2    0    0  0.17763568394E-14 -0.88817841970E-15 -0.67667163163E+02  0.10339731927E+03  0.78180308652E+02 0.  0.
         66    2    3    3    0    0  0.13410796800E+02 -0.78612042434E+01  0.13542324388E+02  0.20713342371E+02  0.19999998419E+01 0.  0.
        -13    1    3    3    0    0 -0.13410796800E+02  0.78612042434E+01 -0.81209487550E+02  0.82683976895E+02  0.10566000000E+00 0.  1.
         13    1    4    4    0    0  0.54186835343E+01 -0.24163759536E+01  0.42453574914E+01  0.72962475465E+01  0.10566000000E+00 0. -1.
        -13    1    4    4    0    0  0.65636431211E+01 -0.43713845038E+01  0.75395645808E+01  0.10910848345E+02  0.10566000000E+00 0.  1.
         14    1    4    4    0    0  0.14284701450E+01 -0.10734437860E+01  0.17574023155E+01  0.25062464794E+01  0.00000000000E+00 0. -1.
<mgrwt>
<rscale>  0 0.78180309E+02</rscale>
<asrwt>0</asrwt>
<pdfrwt beam="1">  1        2 0.27484736E-02 0.78180309E+02</pdfrwt>
<pdfrwt beam="2">  1       -1 0.13158806E-01 0.78180309E+02</pdfrwt>
<totfact> 0.12965651E+05</totfact>
</mgrwt>
</event>
<event>
 8    1  0.1226832E-020  0.7946198E+02  0.7818608E-02  0.1330585E+00
          2   -1    0    0  501    0  0.00000000000E+00  0.00000000000E+00  0.73986064377E+02  0.73986064421E+02  0.25500000000E-02 0. -1.
         -1   -1    0    0    0  501 -0.00000000000E+00 -0.00000000000E+00 -0.21335795198E+02  0.21335795793E+02  0.50400000000E-02 0.  1.
         24    2    1    2    0    0  0.00000000000E+00  0.00000000000E+00  0.52650269179E+02  0.95321860214E+02  0.79461979525E+02 0.  0.
         66    2    3    3    0    0 -0.30694454530E+02 -0.17300027733E+02  0.48301358312E+02  0.59820244924E+02  0.19999973975E+01 0.  0.
        -13    1    3    3    0    0  0.30694454530E+02  0.17300027733E+02  0.43489108671E+01  0.35501615290E+02  0.10566000000E+00 0.  1.
         13    1    4    4    0    0 -0.21057120319E+02 -0.11765738721E+02  0.34571013020E+02  0.42154490022E+02  0.10566000000E+00 0. -1.
        -13    1    4    4    0    0 -0.59037396969E+01 -0.34475708490E+01  0.83332986817E+01  0.10779374663E+02  0.10566000000E+00 0.  1.
         14    1    4    4    0    0 -0.37335945137E+01 -0.20867181630E+01  0.53970466104E+01  0.68863802392E+01  0.00000000000E+00 0. -1.
<mgrwt>
<rscale>  0 0.79461980E+02</rscale>
<asrwt>0</asrwt>
<pdfrwt beam="1">  1        2 0.11382472E-01 0.79461980E+02</pdfrwt>
<pdfrwt beam="2">  1       -1 0.32824300E-02 0.79461980E+02</pdfrwt>
<totfact> 0.16669761E+05</totfact>
</mgrwt>
</event>
<event>
 8    1  0.1226832E-020  0.7934555E+02  0.7818608E-02  0.1330919E+00
         -1   -1    0    0    0  501 -0.00000000000E+00  0.00000000000E+00  0.47624354929E+01  0.47624381598E+01  0.50400000000E-02 0.  1.
          2   -1    0    0  501    0  0.00000000000E+00 -0.00000000000E+00 -0.33048820745E+03  0.33048820746E+03  0.25500000000E-02 0. -1.
         24    2    1    2    0    0  0.00000000000E+00  0.00000000000E+00 -0.32572577196E+03  0.33525064562E+03  0.79345553570E+02 0.  0.
         66    2    3    3    0    0  0.39615522859E+02  0.10172928281E+01 -0.15779175493E+03  0.16270421774E+03  0.20000023675E+01 0.  0.
        -13    1    3    3    0    0 -0.39615522859E+02 -0.10172928281E+01 -0.16793401702E+03  0.17254642788E+03  0.10566000000E+00 0.  1.
         13    1    4    4    0    0  0.14877445127E+02 -0.98247897836E-01 -0.60295975760E+02  0.62104459445E+02  0.10566000000E+00 0. -1.
        -13    1    4    4    0    0  0.13215145394E+01  0.11886788174E+00 -0.42542366093E+01  0.44576028776E+01  0.10566000000E+00 0.  1.
        -14    1    4    4    0    0  0.23416563193E+02  0.99667284422E+00 -0.93241542566E+02  0.96142155419E+02  0.00000000000E+00 0.  1.
<mgrwt>
<rscale>  0 0.79345554E+02</rscale>
<asrwt>0</asrwt>
<pdfrwt beam="1">  1        2 0.50844322E-01 0.79345554E+02</pdfrwt>
<pdfrwt beam="2">  1       -1 0.73268285E-03 0.79345554E+02</pdfrwt>
<totfact> 0.26974912E+05</totfact>
</mgrwt>
</event>
<event>
 8    1  0.1226832E-020  0.7811005E+02  0.7818608E-02  0.1334502E+00
          2   -1    0    0  501    0  0.00000000000E+00  0.00000000000E+00  0.15957187911E+03  0.15957187914E+03  0.25500000000E-02 0. -1.
         -1   -1    0    0    0  501 -0.00000000000E+00 -0.00000000000E+00 -0.95586687065E+01  0.95586700353E+01  0.50400000000E-02 0.  1.
         24    2    1    2    0    0  0.35527136788E-14  0.00000000000E+00  0.15001321041E+03  0.16913054917E+03  0.78110046509E+02 0.  0.
         66    2    3    3    0    0 -0.22391511756E+02  0.29336386773E+02  0.10255447210E+03  0.10901111476E+03  0.20000016103E+01 0.  0.
        -13    1    3    3    0    0  0.22391511756E+02 -0.29336386773E+02  0.47458738306E+02  0.60119434405E+02  0.10566000000E+00 0.  1.
         13    1    4    4    0    0 -0.72796676103E+01  0.96335147109E+01  0.35148265684E+02  0.37164632526E+02  0.10566000000E+00 0. -1.
        -13    1    4    4    0    0 -0.13014044750E+02  0.16317997084E+02  0.57386996023E+02  0.61064890618E+02  0.10566000000E+00 0.  1.
        -14    1    4    4    0    0 -0.20977993957E+01  0.33848749786E+01  0.10019210396E+02  0.10781591621E+02  0.00000000000E+00 0.  1.
<mgrwt>
<rscale>  0 0.78110047E+02</rscale>
<asrwt>0</asrwt>
<pdfrwt beam="1">  1        2 0.24549518E-01 0.78110047E+02</pdfrwt>
<pdfrwt beam="2">  1       -1 0.14705646E-02 0.78110047E+02</pdfrwt>
<totfact> 0.21771906E+05</totfact>
</mgrwt>
</event>
<event>
 8    1  0.1226832E-020  0.8145798E+02  0.7818608E-02  0.1324964E+00
         -1   -1    0    0    0  501 -0.00000000000E+00  0.00000000000E+00  0.86796908908E+02  0.86796909054E+02  0.50400000000E-02 0.  1.
          2   -1    0    0  501    0  0.00000000000E+00 -0.00000000000E+00 -0.19111860410E+02  0.19111860580E+02  0.25500000000E-02 0. -1.
         24    2    1    2    0    0  0.35527136788E-14  0.35527136788E-14  0.67685048498E+02  0.10590876963E+03  0.81457975025E+02 0.  0.
         66    2    3    3    0    0  0.23591223488E+02  0.26824619225E+02  0.84933494004E+01  0.36772856908E+02  0.19999997353E+01 0.  0.
        -13    1    3    3    0    0 -0.23591223488E+02 -0.26824619225E+02  0.59191699098E+02  0.69135912725E+02  0.10566000000E+00 0.  1.
         13    1    4    4    0    0  0.11142676543E+02  0.12334765851E+02  0.38932033833E+01  0.17072606297E+02  0.10566000000E+00 0. -1.
        -13    1    4    4    0    0  0.91039775793E+01  0.10975414338E+02  0.28466455884E+01  0.14541550220E+02  0.10566000000E+00 0.  1.
        -14    1    4    4    0    0  0.33445693655E+01  0.35144390359E+01  0.17535004287E+01  0.51587003917E+01  0.00000000000E+00 0.  1.
<mgrwt>
<rscale>  0 0.81457975E+02</rscale>
<asrwt>0</asrwt>
<pdfrwt beam="1">  1        2 0.29402862E-02 0.81457975E+02</pdfrwt>
<pdfrwt beam="2">  1       -1 0.13353371E-01 0.81457975E+02</pdfrwt>
<totfact> 0.11676611E+05</totfact>
</mgrwt>
</event>
<event>
 8    1  0.1226832E-020  0.7837501E+02  0.7818608E-02  0.1333727E+00
          2   -1    0    0  501    0  0.00000000000E+00  0.00000000000E+00  0.64419013704E+03  0.64419013704E+03  0.25500000000E-02 0. -1.
         -1   -1    0    0    0  501 -0.00000000000E+00 -0.00000000000E+00 -0.23838597365E+01  0.23838650643E+01  0.50400000000E-02 0.  1.
         24    2    1    2    0    0  0.17763568394E-14  0.00000000000E+00  0.64180627730E+03  0.64657400211E+03  0.78375012711E+02 0.  0.
         66    2    3    3    0    0 -0.96657404984E+01  0.60214457508E+01  0.63022628092E+03  0.63033233259E+03  0.20000015010E+01 0.  0.
        -13    1    3    3    0    0  0.96657404984E+01 -0.60214457508E+01  0.11579996386E+02  0.16241669516E+02  0.10566000000E+00 0.  1.
         13    1    4    4    0    0 -0.57118988661E+01  0.46157591651E+01  0.38435133489E+03  0.38442150150E+03  0.10566000000E+00 0. -1.
        -13    1    4    4    0    0 -0.13840898527E+01  0.45271191618E+00  0.86210689955E+02  0.86223053062E+02  0.10566000000E+00 0.  1.
         14    1    4    4    0    0 -0.25697517796E+01  0.95297466946E+00  0.15966425607E+03  0.15968777803E+03  0.00000000000E+00 0. -1.
<mgrwt>
<rscale>  0 0.78375013E+02</rscale>
<asrwt>0</asrwt>
<pdfrwt beam="1">  1        2 0.99106128E-01 0.78375013E+02</pdfrwt>
<pdfrwt beam="2">  1       -1 0.36674824E-03 0.78375013E+02</pdfrwt>
<totfact> 0.34577290E+05</totfact>
</mgrwt>
</event>
<event>
 8    1  0.1226832E-020  0.7937608E+02  0.7818608E-02  0.1330831E+00
         -1   -1    0    0    0  501 -0.00000000000E+00  0.00000000000E+00  0.49309143429E+01  0.49309169187E+01  0.50400000000E-02 0.  1.
          2   -1    0    0  501    0  0.00000000000E+00 -0.00000000000E+00 -0.31944181391E+03  0.31944181392E+03  0.25500000000E-02 0. -1.
         24    2    1    2    0    0  0.35527136788E-14  0.00000000000E+00 -0.31451089957E+03  0.32437273084E+03  0.79376083081E+02 0.  0.
         66    2    3    3    0    0  0.23661570096E+02 -0.10635733784E+02 -0.27996091041E+03  0.28116738803E+03  0.20000001580E+01 0.  0.
        -13    1    3    3    0    0 -0.23661570096E+02  0.10635733784E+02 -0.34549989155E+02  0.43205342809E+02  0.10566000000E+00 0.  1.
         13    1    4    4    0    0  0.44074589049E+01 -0.16938001858E+01 -0.52349717348E+02  0.52562331793E+02  0.10566000000E+00 0. -1.
        -13    1    4    4    0    0  0.63134565622E+01 -0.29885847369E+01 -0.83406493537E+02  0.83698540612E+02  0.10566000000E+00 0.  1.
         14    1    4    4    0    0  0.12940654629E+02 -0.59533488613E+01 -0.14420469953E+03  0.14490651562E+03  0.00000000000E+00 0. -1.
<mgrwt>
<rscale>  0 0.79376083E+02</rscale>
<asrwt>0</asrwt>
<pdfrwt beam="1">  1        2 0.49144878E-01 0.79376083E+02</pdfrwt>
<pdfrwt beam="2">  1       -1 0.75860266E-03 0.79376083E+02</pdfrwt>
<totfact> 0.26620018E+05</totfact>
</mgrwt>
</event>
<event>
 8    1  0.1226832E-020  0.7977585E+02  0.7818608E-02  0.1329689E+00
          2   -1    0    0  501    0  0.00000000000E+00  0.00000000000E+00  0.17512484315E+03  0.17512484317E+03  0.25500000000E-02 0. -1.
         -1   -1    0    0    0  501 -0.00000000000E+00 -0.00000000000E+00 -0.90852115514E+01  0.90852129494E+01  0.50400000000E-02 0.  1.
         24    2    1    2    0    0  0.00000000000E+00  0.00000000000E+00  0.16603963160E+03  0.18421005612E+03  0.79775845427E+02 0.  0.
         66    2    3    3    0    0  0.19872606235E+02 -0.10702900892E+02  0.15894132700E+03  0.16054849112E+03  0.20000015296E+01 0.  0.
        -13    1    3    3    0    0 -0.19872606235E+02  0.10702900892E+02  0.70983046013E+01  0.23661565001E+02  0.10566000000E+00 0.  1.
         13    1    4    4    0    0  0.14846553907E+02 -0.88125369046E+01  0.12166141640E+03  0.12288039866E+03  0.10566000000E+00 0. -1.
        -13    1    4    4    0    0  0.38287285080E+01 -0.13160611738E+01  0.26770650098E+02  0.27075266383E+02  0.10566000000E+00 0.  1.
         14    1    4    4    0    0  0.11973238195E+01 -0.57430281358E+00  0.10509260495E+02  0.10592826073E+02  0.00000000000E+00 0. -1.
<mgrwt>
<rscale>  0 0.79775845E+02</rscale>
<asrwt>0</asrwt>
<pdfrwt beam="1">  1        2 0.26942283E-01 0.79775845E+02</pdfrwt>
<pdfrwt beam="2">  1       -1 0.13977250E-02 0.79775845E+02</pdfrwt>
<totfact> 0.21234891E+05</totfact>
</mgrwt>
</event>
<event>
 8    1  0.1226832E-020  0.8120002E+02  0.7818608E-02  0.1325680E+00
          2   -1    0    0  501    0  0.00000000000E+00  0.00000000000E+00  0.74238009549E+03  0.74238009549E+03  0.25500000000E-02 0. -1.
         -1   -1    0    0    0  501 -0.00000000000E+00 -0.00000000000E+00 -0.22203701691E+01  0.22203758892E+01  0.50400000000E-02 0.  1.
         24    2    1    2    0    0  0.00000000000E+00  0.00000000000E+00  0.74015972532E+03  0.74460047138E+03  0.81200018458E+02 0.  0.
         66    2    3    3    0    0  0.58670375423E+01 -0.29428133847E+02  0.62074905335E+03  0.62147713105E+03  0.19999967802E+01 0.  0.
        -13    1    3    3    0    0 -0.58670375423E+01  0.29428133847E+02  0.11941067197E+03  0.12312334033E+03  0.10566000000E+00 0.  1.
         13    1    4    4    0    0  0.76752557442E+00 -0.56124059029E+01  0.11047155950E+03  0.11061674746E+03  0.10566000000E+00 0. -1.
        -13    1    4    4    0    0  0.17372103671E+01 -0.56959043412E+01  0.11789363104E+03  0.11804397753E+03  0.10566000000E+00 0.  1.
         14    1    4    4    0    0  0.33623016008E+01 -0.18119823603E+02  0.39238386281E+03  0.39281640606E+03  0.00000000000E+00 0. -1.
<mgrwt>
<rscale>  0 0.81200018E+02</rscale>
<asrwt>0</asrwt>
<pdfrwt beam="1">  1        2 0.11421229E+00 0.81200018E+02</pdfrwt>
<pdfrwt beam="2">  1       -1 0.34159595E-03 0.81200018E+02</pdfrwt>
<totfact> 0.32595360E+05</totfact>
</mgrwt>
</event>
<event>
 8    1  0.1226832E-020  0.8030631E+02  0.7818608E-02  0.1328184E+00
          2   -1    0    0  501    0  0.00000000000E+00  0.00000000000E+00  0.35364051461E+03  0.35364051462E+03  0.25500000000E-02 0. -1.
         -1   -1    0    0    0  501 -0.00000000000E+00 -0.00000000000E+00 -0.45590797824E+01  0.45590825682E+01  0.50400000000E-02 0.  1.
         24    2    1    2    0    0  0.00000000000E+00  0.22204460493E-15  0.34908143482E+03  0.35819959718E+03  0.80306309116E+02 0.  0.
         66    2    3    3    0    0 -0.32308723363E+02  0.16804526635E+01  0.28053950279E+03  0.28240589601E+03  0.19999874237E+01 0.  0.
        -13    1    3    3    0    0  0.32308723363E+02 -0.16804526635E+01  0.68541932035E+02  0.75793701173E+02  0.10566000000E+00 0.  1.
         13    1    4    4    0    0 -0.10301578866E+02  0.11100184827E+01  0.90097408247E+02  0.90691282961E+02  0.10566000000E+00 0. -1.
        -13    1    4    4    0    0 -0.18355424413E+02  0.95293774337E+00  0.15851950555E+03  0.15958156065E+03  0.10566000000E+00 0.  1.
        -14    1    4    4    0    0 -0.36517200831E+01 -0.38250356252E+00  0.31922588997E+02  0.32133052404E+02  0.00000000000E+00 0.  1.
<mgrwt>
<rscale>  0 0.80306309E+02</rscale>
<asrwt>0</asrwt>
<pdfrwt beam="1">  1        2 0.54406247E-01 0.80306309E+02</pdfrwt>
<pdfrwt beam="2">  1       -1 0.70139693E-03 0.80306309E+02</pdfrwt>
<totfact> 0.26780133E+05</totfact>
</mgrwt>
</event>
<event>
 8    1  0.1226832E-020  0.7942634E+02  0.7818608E-02  0.1330687E+00
         -1   -1    0    0    0  501 -0.00000000000E+00  0.00000000000E+00  0.13246703788E+02  0.13246704747E+02  0.50400000000E-02 0.  1.
          2   -1    0    0  501    0  0.00000000000E+00 -0.00000000000E+00 -0.11905874612E+03  0.11905874615E+03  0.25500000000E-02 0. -1.
         24    2    1    2    0    0  0.00000000000E+00 -0.88817841970E-15 -0.10581204233E+03  0.13230545089E+03  0.79426343450E+02 0.  0.
         66    2    3    3    0    0 -0.19122608096E+02  0.79718713744E+01 -0.10932760405E+03  0.11129128396E+03  0.20000014064E+01 0.  0.
        -13    1    3    3    0    0  0.19122608096E+02 -0.79718713744E+01  0.35155617164E+01  0.21014166931E+02  0.10566000000E+00 0.  1.
         13    1    4    4    0    0 -0.24784004894E+01  0.11947766045E+01 -0.11638204765E+02  0.11959470486E+02  0.10566000000E+00 0. -1.
        -13    1    4    4    0    0 -0.12444210491E+02  0.48102395646E+01 -0.73837253368E+02  0.75032978939E+02  0.10566000000E+00 0.  1.
        -14    1    4    4    0    0 -0.41999971149E+01  0.19668552054E+01 -0.23852145914E+02  0.24298834537E+02  0.00000000000E+00 0.  1.
<mgrwt>
<rscale>  0 0.79426343E+02</rscale>
<asrwt>0</asrwt>
<pdfrwt beam="1">  1        2 0.18316729E-01 0.79426343E+02</pdfrwt>
<pdfrwt beam="2">  1       -1 0.20379546E-02 0.79426343E+02</pdfrwt>
<totfact> 0.19003819E+05</totfact>
</mgrwt>
</event>
<event>
 8    1  0.1226832E-020  0.7767423E+02  0.7818608E-02  0.1335784E+00
         -1   -1    0    0    0  501 -0.00000000000E+00  0.00000000000E+00  0.49031483146E+02  0.49031483405E+02  0.50400000000E-02 0.  1.
          2   -1    0    0  501    0  0.00000000000E+00 -0.00000000000E+00 -0.30762309760E+02  0.30762309865E+02  0.25500000000E-02 0. -1.
         24    2    1    2    0    0  0.00000000000E+00 -0.88817841970E-15  0.18269173386E+02  0.79793793270E+02  0.77674234777E+02 0.  0.
         66    2    3    3    0    0 -0.26444246637E+02 -0.51579672746E+01 -0.19557573019E+02  0.33352683095E+02  0.20000001550E+01 0.  0.
        -13    1    3    3    0    0  0.26444246637E+02  0.51579672746E+01  0.37826746406E+02  0.46441110175E+02  0.10566000000E+00 0.  1.
         13    1    4    4    0    0 -0.12632426778E+02 -0.21824469949E+01 -0.93435953144E+01  0.15863644557E+02  0.10566000000E+00 0. -1.
        -13    1    4    4    0    0 -0.29220965502E+01 -0.52117720077E+00 -0.14979916083E+01  0.33264721278E+01  0.10566000000E+00 0.  1.
        -14    1    4    4    0    0 -0.10889723309E+02 -0.24543430789E+01 -0.87159860966E+01  0.14162566411E+02  0.00000000000E+00 0.  1.
<mgrwt>
<rscale>  0 0.77674235E+02</rscale>
<asrwt>0</asrwt>
<pdfrwt beam="1">  1        2 0.47326631E-02 0.77674235E+02</pdfrwt>
<pdfrwt beam="2">  1       -1 0.75433051E-02 0.77674235E+02</pdfrwt>
<totfact> 0.14683230E+05</totfact>
</mgrwt>
</event>
<event>
 8    1  0.1226832E-020  0.7769176E+02  0.7818608E-02  0.1335733E+00
         -1   -1    0    0    0  501 -0.00000000000E+00  0.00000000000E+00  0.29883358164E+02  0.29883358589E+02  0.50400000000E-02 0.  1.
          2   -1    0    0  501    0  0.00000000000E+00 -0.00000000000E+00 -0.50496407195E+02  0.50496407259E+02  0.25500000000E-02 0. -1.
         24    2    1    2    0    0  0.35527136788E-14  0.00000000000E+00 -0.20613049031E+02  0.80379765848E+02  0.77691756110E+02 0.  0.
         66    2    3    3    0    0 -0.27881556324E+02 -0.21226372336E+02 -0.27596308700E+02  0.44648586953E+02  0.19999993691E+01 0.  0.
        -13    1    3    3    0    0  0.27881556324E+02  0.21226372336E+02  0.69832596690E+01  0.35731178895E+02  0.10566000000E+00 0.  1.
         13    1    4    4    0    0 -0.21215667893E+02 -0.15644385972E+02 -0.20416334851E+02  0.33342004580E+02  0.10566000000E+00 0. -1.
        -13    1    4    4    0    0 -0.36009175151E+01 -0.34134886045E+01 -0.37377498075E+01  0.62129259663E+01  0.10566000000E+00 0.  1.
         14    1    4    4    0    0 -0.30649709151E+01 -0.21684977591E+01 -0.34422240410E+01  0.50936564067E+01  0.00000000000E+00 0. -1.
<mgrwt>
<rscale>  0 0.77691756E+02</rscale>
<asrwt>0</asrwt>
<pdfrwt beam="1">  1        2 0.77686780E-02 0.77691756E+02</pdfrwt>
<pdfrwt beam="2">  1       -1 0.45974398E-02 0.77691756E+02</pdfrwt>
<totfact> 0.16222492E+05</totfact>
</mgrwt>
</event>
<event>
 8    1  0.1226832E-020  0.8894481E+02  0.7818608E-02  0.1305427E+00
         -1   -1    0    0    0  501 -0.00000000000E+00  0.00000000000E+00  0.98912353040E+01  0.98912365881E+01  0.50400000000E-02 0.  1.
          2   -1    0    0  501    0  0.00000000000E+00 -0.00000000000E+00 -0.19995428450E+03  0.19995428452E+03  0.25500000000E-02 0. -1.
         24    2    1    2    0    0 -0.71054273576E-14  0.88817841970E-15 -0.19006304920E+03  0.20984552111E+03  0.88944814678E+02 0.  0.
         66    2    3    3    0    0  0.39772635502E+02 -0.75039613112E+01 -0.13842971291E+03  0.14423923672E+03  0.20000061418E+01 0.  0.
        -13    1    3    3    0    0 -0.39772635502E+02  0.75039613112E+01 -0.51633336292E+02  0.65606284386E+02  0.10566000000E+00 0.  1.
         13    1    4    4    0    0  0.28045915506E+02 -0.52914609450E+01 -0.97461142600E+02  0.10155421417E+03  0.10566000000E+00 0. -1.
        -13    1    4    4    0    0  0.89296920869E+01 -0.21132181550E+01 -0.32001493790E+02  0.33291318096E+02  0.10566000000E+00 0.  1.
         14    1    4    4    0    0  0.27970279089E+01 -0.99282211216E-01 -0.89670765175E+01  0.93937044530E+01  0.00000000000E+00 0. -1.
<mgrwt>
<rscale>  0 0.88944815E+02</rscale>
<asrwt>0</asrwt>
<pdfrwt beam="1">  1        2 0.30762195E-01 0.88944815E+02</pdfrwt>
<pdfrwt beam="2">  1       -1 0.15217288E-02 0.88944815E+02</pdfrwt>
<totfact> 0.16649687E+05</totfact>
</mgrwt>
</event>
<event>
 8    1  0.1226832E-020  0.8175658E+02  0.7818608E-02  0.1324139E+00
          2   -1    0    0  501    0  0.00000000000E+00  0.00000000000E+00  0.66752333376E+02  0.66752333424E+02  0.25500000000E-02 0. -1.
         -1   -1    0    0    0  501 -0.00000000000E+00 -0.00000000000E+00 -0.25033353019E+02  0.25033353526E+02  0.50400000000E-02 0.  1.
         24    2    1    2    0    0  0.00000000000E+00  0.88817841970E-15  0.41718980357E+02  0.91785686950E+02  0.81756583875E+02 0.  0.
         66    2    3    3    0    0 -0.33244279181E+02 -0.41215246281E+01  0.47125642278E+02  0.57853221366E+02  0.19999996832E+01 0.  0.
        -13    1    3    3    0    0  0.33244279181E+02  0.41215246281E+01 -0.54066619214E+01  0.33932465585E+02  0.10566000000E+00 0.  1.
         13    1    4    4    0    0 -0.20885558681E+02 -0.22426129174E+01  0.28455590812E+02  0.35369021567E+02  0.10566000000E+00 0. -1.
        -13    1    4    4    0    0 -0.69774798959E+01 -0.74325097418E+00  0.10936449758E+02  0.12994412071E+02  0.10566000000E+00 0.  1.
        -14    1    4    4    0    0 -0.53812406034E+01 -0.11356607365E+01  0.77336017080E+01  0.94897877278E+01  0.00000000000E+00 0.  1.
<mgrwt>
<rscale>  0 0.81756584E+02</rscale>
<asrwt>0</asrwt>
<pdfrwt beam="1">  1        2 0.10269590E-01 0.81756584E+02</pdfrwt>
<pdfrwt beam="2">  1       -1 0.38512852E-02 0.81756584E+02</pdfrwt>
<totfact> 0.15047889E+05</totfact>
</mgrwt>
</event>
<event>
 8    1  0.1226832E-020  0.7992541E+02  0.7818608E-02  0.1329263E+00
          2   -1    0    0  501    0  0.00000000000E+00  0.00000000000E+00  0.16045661909E+03  0.16045661911E+03  0.25500000000E-02 0. -1.
         -1   -1    0    0    0  501 -0.00000000000E+00 -0.00000000000E+00 -0.99529552209E+01  0.99529564970E+01  0.50400000000E-02 0.  1.
         24    2    1    2    0    0  0.44408920985E-15  0.00000000000E+00  0.15050366387E+03  0.17040957560E+03  0.79925406602E+02 0.  0.
         66    2    3    3    0    0  0.33453928768E+01 -0.36299749098E+02  0.11008219950E+03  0.11597824837E+03  0.20000030304E+01 0.  0.
        -13    1    3    3    0    0 -0.33453928768E+01  0.36299749098E+02  0.40421464371E+02  0.54431327230E+02  0.10566000000E+00 0.  1.
         13    1    4    4    0    0  0.34050387185E+00 -0.33720928504E+01  0.11010101795E+02  0.11520436565E+02  0.10566000000E+00 0. -1.
        -13    1    4    4    0    0  0.30448534663E+01 -0.27108273281E+02  0.82599096833E+02  0.86987077055E+02  0.10566000000E+00 0.  1.
        -14    1    4    4    0    0 -0.39964461391E-01 -0.58193829676E+01  0.16473000868E+02  0.17470734755E+02  0.00000000000E+00 0.  1.
<mgrwt>
<rscale>  0 0.79925407E+02</rscale>
<asrwt>0</asrwt>
<pdfrwt beam="1">  1        2 0.24685632E-01 0.79925407E+02</pdfrwt>
<pdfrwt beam="2">  1       -1 0.15312241E-02 0.79925407E+02</pdfrwt>
<totfact> 0.20524687E+05</totfact>
</mgrwt>
</event>
<event>
 8    1  0.1226832E-020  0.7822456E+02  0.7818608E-02  0.1334167E+00
         -1   -1    0    0    0  501 -0.00000000000E+00  0.00000000000E+00  0.45515601698E+01  0.45515629602E+01  0.50400000000E-02 0.  1.
          2   -1    0    0  501    0  0.00000000000E+00 -0.00000000000E+00 -0.33609792622E+03  0.33609792623E+03  0.25500000000E-02 0. -1.
         24    2    1    2    0    0 -0.35527136788E-14  0.69388939039E-16 -0.33154636605E+03  0.34064948919E+03  0.78224559086E+02 0.  0.
         66    2    3    3    0    0  0.30363991264E+02 -0.11399385956E+00 -0.27306334697E+03  0.27475366500E+03  0.20000039424E+01 0.  0.
        -13    1    3    3    0    0 -0.30363991264E+02  0.11399385956E+00 -0.58483019082E+02  0.65895824185E+02  0.10566000000E+00 0.  1.
         13    1    4    4    0    0  0.84981140551E+00  0.11837007277E+00 -0.84305309326E+01  0.84747393317E+01  0.10566000000E+00 0. -1.
        -13    1    4    4    0    0  0.12565081356E+02 -0.92215707275E+00 -0.11289936445E+03  0.11360021699E+03  0.10566000000E+00 0.  1.
         14    1    4    4    0    0  0.16949098502E+02  0.68979314042E+00 -0.15173345159E+03  0.15267870868E+03  0.00000000000E+00 0. -1.
<mgrwt>
<rscale>  0 0.78224559E+02</rscale>
<asrwt>0</asrwt>
<pdfrwt beam="1">  1        2 0.51707354E-01 0.78224559E+02</pdfrwt>
<pdfrwt beam="2">  1       -1 0.70024051E-03 0.78224559E+02</pdfrwt>
<totfact> 0.28166760E+05</totfact>
</mgrwt>
</event>
<event>
 8    1  0.1226832E-020  0.8054924E+02  0.7818608E-02  0.1327500E+00
         -1   -1    0    0    0  501 -0.00000000000E+00  0.00000000000E+00  0.22511169931E+03  0.22511169937E+03  0.50400000000E-02 0.  1.
          2   -1    0    0  501    0  0.00000000000E+00 -0.00000000000E+00 -0.72055123456E+01  0.72055127968E+01  0.25500000000E-02 0. -1.
         24    2    1    2    0    0  0.17763568394E-14  0.00000000000E+00  0.21790618697E+03  0.23231721217E+03  0.80549244255E+02 0.  0.
         66    2    3    3    0    0 -0.95731551582E+01  0.39036978943E+02  0.10289559380E+03  0.11048544813E+03  0.19999998040E+01 0.  0.
        -13    1    3    3    0    0  0.95731551582E+01 -0.39036978943E+02  0.11501059316E+03  0.12183176404E+03  0.10566000000E+00 0.  1.
         13    1    4    4    0    0 -0.57272368320E+01  0.21809548068E+02  0.58383294499E+02  0.62586563009E+02  0.10566000000E+00 0. -1.
        -13    1    4    4    0    0 -0.15879616721E+01  0.86988207478E+01  0.21009965413E+02  0.22795195006E+02  0.10566000000E+00 0.  1.
         14    1    4    4    0    0 -0.22579566542E+01  0.85286101272E+01  0.23502333893E+02  0.25103690115E+02  0.00000000000E+00 0. -1.
<mgrwt>
<rscale>  0 0.80549244E+02</rscale>
<asrwt>0</asrwt>
<pdfrwt beam="1">  1        2 0.11085405E-02 0.80549244E+02</pdfrwt>
<pdfrwt beam="2">  1       -1 0.34632566E-01 0.80549244E+02</pdfrwt>
<totfact> 0.94303857E+04</totfact>
</mgrwt>
</event>
<event>
 8    1  0.1226832E-020  0.7993284E+02  0.7818608E-02  0.1329242E+00
          2   -1    0    0  501    0  0.00000000000E+00  0.00000000000E+00  0.18723735229E+04  0.18723735229E+04  0.25500000000E-02 0. -1.
         -1   -1    0    0    0  501 -0.00000000000E+00 -0.00000000000E+00 -0.85308882557E+00  0.85310371346E+00  0.50400000000E-02 0.  1.
         24    2    1    2    0    0  0.35527136788E-14  0.00000000000E+00  0.18715204341E+04  0.18732266267E+04  0.79932843701E+02 0.  0.
         66    2    3    3    0    0  0.18776124014E+02  0.42266457494E+01  0.17565369773E+04  0.17566435495E+04  0.20000280529E+01 0.  0.
        -13    1    3    3    0    0 -0.18776124014E+02 -0.42266457494E+01  0.11498345684E+03  0.11658307715E+03  0.10566000000E+00 0.  1.
         13    1    4    4    0    0  0.12038292455E+02  0.35172762831E+01  0.11204111595E+04  0.11204813560E+04  0.10566000000E+00 0. -1.
        -13    1    4    4    0    0  0.91363964254E+00 -0.90012006463E-01  0.85581607667E+02  0.85586596932E+02  0.10566000000E+00 0.  1.
         14    1    4    4    0    0  0.58241919162E+01  0.79938147271E+00  0.55054421011E+03  0.55057559654E+03  0.00000000000E+00 0. -1.
<mgrwt>
<rscale>  0 0.79932844E+02</rscale>
<asrwt>0</asrwt>
<pdfrwt beam="1">  1        2 0.28805614E+00 0.79932844E+02</pdfrwt>
<pdfrwt beam="2">  1       -1 0.13124619E-03 0.79932844E+02</pdfrwt>
<totfact> 0.29424223E+05</totfact>
</mgrwt>
</event>
<event>
 8    1  0.1226832E-020  0.8015579E+02  0.7818608E-02  0.1328610E+00
          2   -1    0    0  501    0  0.00000000000E+00  0.00000000000E+00  0.82427956385E+02  0.82427956424E+02  0.25500000000E-02 0. -1.
         -1   -1    0    0    0  501 -0.00000000000E+00 -0.00000000000E+00 -0.19486563441E+02  0.19486564093E+02  0.50400000000E-02 0.  1.
         24    2    1    2    0    0  0.00000000000E+00 -0.17763568394E-14  0.62941392943E+02  0.10191452052E+03  0.80155789227E+02 0.  0.
         66    2    3    3    0    0 -0.33099042737E+02 -0.13627164318E+02  0.54340608793E+02  0.65101059807E+02  0.19999966232E+01 0.  0.
        -13    1    3    3    0    0  0.33099042737E+02  0.13627164318E+02  0.86007841504E+01  0.36813460711E+02  0.10566000000E+00 0.  1.
         13    1    4    4    0    0 -0.23402936438E+02 -0.92394768922E+01  0.36856492766E+02  0.44625974390E+02  0.10566000000E+00 0. -1.
        -13    1    4    4    0    0 -0.81303486055E+01 -0.35244818167E+01  0.14301719079E+02  0.16824829068E+02  0.10566000000E+00 0.  1.
         14    1    4    4    0    0 -0.15657576932E+01 -0.86320560948E+00  0.31823969475E+01  0.36502563484E+01  0.00000000000E+00 0. -1.
<mgrwt>
<rscale>  0 0.80155789E+02</rscale>
<asrwt>0</asrwt>
<pdfrwt beam="1">  1        2 0.12681224E-01 0.80155789E+02</pdfrwt>
<pdfrwt beam="2">  1       -1 0.29979329E-02 0.80155789E+02</pdfrwt>
<totfact> 0.16737166E+05</totfact>
</mgrwt>
</event>
<event>
 8    1  0.1226832E-020  0.7946485E+02  0.7818608E-02  0.1330577E+00
         -1   -1    0    0    0  501 -0.00000000000E+00  0.00000000000E+00  0.34154595067E+02  0.34154595439E+02  0.50400000000E-02 0.  1.
          2   -1    0    0  501    0  0.00000000000E+00 -0.00000000000E+00 -0.46221173858E+02  0.46221173928E+02  0.25500000000E-02 0. -1.
         24    2    1    2    0    0  0.17763568394E-14  0.17763568394E-14 -0.12066578791E+02  0.80375769367E+02  0.79464847434E+02 0.  0.
         66    2    3    3    0    0  0.95214183330E+01  0.12159576722E+02 -0.43037135595E+02  0.45767977385E+02  0.20000001438E+01 0.  0.
        -13    1    3    3    0    0 -0.95214183330E+01 -0.12159576722E+02  0.30970556804E+02  0.34607791982E+02  0.10566000000E+00 0.  1.
         13    1    4    4    0    0  0.54578578337E+01  0.62617018502E+01 -0.24505770236E+02  0.25875491514E+02  0.10566000000E+00 0. -1.
        -13    1    4    4    0    0  0.16400437553E+01  0.17872975194E+01 -0.71600083113E+01  0.75604933037E+01  0.10566000000E+00 0.  1.
        -14    1    4    4    0    0  0.24235167440E+01  0.41105773520E+01 -0.11371357047E+02  0.12331992567E+02  0.00000000000E+00 0.  1.
<mgrwt>
<rscale>  0 0.79464847E+02</rscale>
<asrwt>0</asrwt>
<pdfrwt beam="1">  1        2 0.71109498E-02 0.79464847E+02</pdfrwt>
<pdfrwt beam="2">  1       -1 0.52545532E-02 0.79464847E+02</pdfrwt>
<totfact> 0.14965755E+05</totfact>
</mgrwt>
</event>
<event>
 8    1  0.1226832E-020  0.7951116E+02  0.7818608E-02  0.1330444E+00
         -1   -1    0    0    0  501 -0.00000000000E+00  0.00000000000E+00  0.49926270528E+01  0.49926295967E+01  0.50400000000E-02 0.  1.
          2   -1    0    0  501    0  0.00000000000E+00 -0.00000000000E+00 -0.31656797351E+03  0.31656797352E+03  0.25500000000E-02 0. -1.
         24    2    1    2    0    0  0.35527136788E-14  0.35527136788E-14 -0.31157534646E+03  0.32156060312E+03  0.79511162468E+02 0.  0.
         66    2    3    3    0    0 -0.28651911709E+02 -0.24604068485E+02 -0.20578073160E+03  0.20922715339E+03  0.19999969054E+01 0.  0.
        -13    1    3    3    0    0  0.28651911709E+02  0.24604068485E+02 -0.10579461486E+03  0.11233344973E+03  0.10566000000E+00 0.  1.
         13    1    4    4    0    0 -0.15088833575E+01 -0.98947244471E+00 -0.83506725708E+01  0.85440436051E+01  0.10566000000E+00 0. -1.
        -13    1    4    4    0    0 -0.56228409585E+00 -0.47655729313E+00 -0.43954164394E+01  0.44580399246E+01  0.10566000000E+00 0.  1.
         14    1    4    4    0    0 -0.26580744256E+02 -0.23138038747E+02 -0.19303464259E+03  0.19622506986E+03  0.00000000000E+00 0. -1.
<mgrwt>
<rscale>  0 0.79511162E+02</rscale>
<asrwt>0</asrwt>
<pdfrwt beam="1">  1        2 0.48702749E-01 0.79511162E+02</pdfrwt>
<pdfrwt beam="2">  1       -1 0.76809692E-03 0.79511162E+02</pdfrwt>
<totfact> 0.26415551E+05</totfact>
</mgrwt>
</event>
<event>
 8    1  0.1226832E-020  0.7762360E+02  0.7818608E-02  0.1335934E+00
          2   -1    0    0  501    0  0.00000000000E+00  0.00000000000E+00  0.60044714457E+02  0.60044714512E+02  0.25500000000E-02 0. -1.
         -1   -1    0    0    0  501 -0.00000000000E+00 -0.00000000000E+00 -0.25087234059E+02  0.25087234565E+02  0.50400000000E-02 0.  1.
         24    2    1    2    0    0  0.44408920985E-15 -0.71054273576E-14  0.34957480398E+02  0.85131949077E+02  0.77623600263E+02 0.  0.
         66    2    3    3    0    0  0.18990543528E+01 -0.37033367568E+02  0.29959973661E+02  0.47714533901E+02  0.20000006905E+01 0.  0.
        -13    1    3    3    0    0 -0.18990543528E+01  0.37033367568E+02  0.49975067371E+01  0.37417415176E+02  0.10566000000E+00 0.  1.
         13    1    4    4    0    0  0.21301042673E+01 -0.32468674550E+02  0.26083498901E+02  0.41702664785E+02  0.10566000000E+00 0. -1.
        -13    1    4    4    0    0  0.48416024997E-01 -0.23027803060E+01  0.17479075671E+01  0.28933520608E+01  0.10566000000E+00 0.  1.
        -14    1    4    4    0    0 -0.27946593942E+00 -0.22619127117E+01  0.21285671934E+01  0.31185170552E+01  0.00000000000E+00 0.  1.
<mgrwt>
<rscale>  0 0.77623600E+02</rscale>
<asrwt>0</asrwt>
<pdfrwt beam="1">  1        2 0.92376484E-02 0.77623600E+02</pdfrwt>
<pdfrwt beam="2">  1       -1 0.38595745E-02 0.77623600E+02</pdfrwt>
<totfact> 0.16897186E+05</totfact>
</mgrwt>
</event>
<event>
 8    1  0.1226832E-020  0.8262815E+02  0.7818608E-02  0.1321754E+00
         -1   -1    0    0    0  501 -0.00000000000E+00  0.00000000000E+00  0.94395729736E+01  0.94395743191E+01  0.50400000000E-02 0.  1.
          2   -1    0    0  501    0  0.00000000000E+00 -0.00000000000E+00 -0.18081885459E+03  0.18081885460E+03  0.25500000000E-02 0. -1.
         24    2    1    2    0    0 -0.71054273576E-14 -0.17763568394E-14 -0.17137928161E+03  0.19025842892E+03  0.82628152650E+02 0.  0.
         66    2    3    3    0    0 -0.37742475548E+02 -0.95521821994E+01 -0.11740417646E+03  0.12370723220E+03  0.20000006230E+01 0.  0.
        -13    1    3    3    0    0  0.37742475548E+02  0.95521821994E+01 -0.53975105148E+02  0.66551196721E+02  0.10566000000E+00 0.  1.
         13    1    4    4    0    0 -0.36041359170E+01 -0.12353230818E+01 -0.12317561106E+02  0.12893769599E+02  0.10566000000E+00 0. -1.
        -13    1    4    4    0    0 -0.22765732301E+02 -0.54187935093E+01 -0.67999790364E+02  0.71914007981E+02  0.10566000000E+00 0.  1.
        -14    1    4    4    0    0 -0.11372607330E+02 -0.28980656084E+01 -0.37086824994E+02  0.38899454622E+02  0.00000000000E+00 0.  1.
<mgrwt>
<rscale>  0 0.82628153E+02</rscale>
<asrwt>0</asrwt>
<pdfrwt beam="1">  1        2 0.27818283E-01 0.82628153E+02</pdfrwt>
<pdfrwt beam="2">  1       -1 0.14522422E-02 0.82628153E+02</pdfrwt>
<totfact> 0.19559250E+05</totfact>
</mgrwt>
</event>
<event>
 8    1  0.1226832E-020  0.8070216E+02  0.7818608E-02  0.1327071E+00
         -1   -1    0    0    0  501 -0.00000000000E+00  0.00000000000E+00  0.13642242115E+03  0.13642242124E+03  0.50400000000E-02 0.  1.
          2   -1    0    0  501    0  0.00000000000E+00 -0.00000000000E+00 -0.11935057584E+02  0.11935057856E+02  0.25500000000E-02 0. -1.
         24    2    1    2    0    0  0.17763568394E-14 -0.14210854715E-13  0.12448736356E+03  0.14835747909E+03  0.80702155590E+02 0.  0.
         66    2    3    3    0    0 -0.86761252888E+01  0.39338322113E+02  0.58879261322E+02  0.71369083994E+02  0.19999999147E+01 0.  0.
        -13    1    3    3    0    0  0.86761252888E+01 -0.39338322113E+02  0.65608102239E+02  0.76988395101E+02  0.10566000000E+00 0.  1.
         13    1    4    4    0    0 -0.34762236790E+00  0.32666993889E+01  0.45406556409E+01  0.56054334260E+01  0.10566000000E+00 0. -1.
        -13    1    4    4    0    0 -0.12211046214E+00  0.13840135472E+01  0.18585851874E+01  0.23229092531E+01  0.10566000000E+00 0.  1.
        -14    1    4    4    0    0 -0.82063924588E+01  0.34687609177E+02  0.52480020494E+02  0.63440741315E+02  0.00000000000E+00 0.  1.
<mgrwt>
<rscale>  0 0.80702156E+02</rscale>
<asrwt>0</asrwt>
<pdfrwt beam="1">  1        2 0.18361627E-02 0.80702156E+02</pdfrwt>
<pdfrwt beam="2">  1       -1 0.20988065E-01 0.80702156E+02</pdfrwt>
<totfact> 0.10804391E+05</totfact>
</mgrwt>
</event>
<event>
 8    1  0.1226832E-020  0.7713511E+02  0.7818608E-02  0.1337384E+00
         -1   -1    0    0    0  501 -0.00000000000E+00  0.00000000000E+00  0.51208542879E+02  0.51208543127E+02  0.50400000000E-02 0.  1.
          2   -1    0    0  501    0  0.00000000000E+00 -0.00000000000E+00 -0.29047030757E+02  0.29047030869E+02  0.25500000000E-02 0. -1.
         24    2    1    2    0    0  0.00000000000E+00  0.11102230246E-15  0.22161512122E+02  0.80255573995E+02  0.77135105742E+02 0.  0.
         66    2    3    3    0    0 -0.32308909351E+02 -0.78523345779E+00  0.32936963061E+02  0.46187939472E+02  0.20000004901E+01 0.  0.
        -13    1    3    3    0    0  0.32308909351E+02  0.78523345779E+00 -0.10775450939E+02  0.34067634523E+02  0.10566000000E+00 0.  1.
         13    1    4    4    0    0 -0.14961893421E+02 -0.62403176241E+00  0.14948199892E+02  0.21159100038E+02  0.10566000000E+00 0. -1.
        -13    1    4    4    0    0 -0.56658585008E+01 -0.34826754174E+00  0.50796150693E+01  0.76181950697E+01  0.10566000000E+00 0.  1.
        -14    1    4    4    0    0 -0.11681157430E+02  0.18706584636E+00  0.12909148099E+02  0.17410644364E+02  0.00000000000E+00 0.  1.
<mgrwt>
<rscale>  0 0.77135106E+02</rscale>
<asrwt>0</asrwt>
<pdfrwt beam="1">  1        2 0.44687740E-02 0.77135106E+02</pdfrwt>
<pdfrwt beam="2">  1       -1 0.78782373E-02 0.77135106E+02</pdfrwt>
<totfact> 0.14806555E+05</totfact>
</mgrwt>
</event>
<event>
 8    1  0.1226832E-020  0.8234787E+02  0.7818608E-02  0.1322518E+00
          2   -1    0    0  501    0  0.00000000000E+00  0.00000000000E+00  0.24333799001E+02  0.24333799135E+02  0.25500000000E-02 0. -1.
         -1   -1    0    0    0  501 -0.00000000000E+00 -0.00000000000E+00 -0.69668232198E+02  0.69668232380E+02  0.50400000000E-02 0.  1.
         24    2    1    2    0    0  0.35527136788E-14  0.35527136788E-14 -0.45334433197E+02  0.94002031515E+02  0.82347866370E+02 0.  0.
         66    2    3    3    0    0  0.30968552480E+02  0.26132350970E+02 -0.14501572237E+02  0.43084181119E+02  0.20000138517E+01 0.  0.
        -13    1    3    3    0    0 -0.30968552480E+02 -0.26132350970E+02 -0.30832860960E+02  0.50917850396E+02  0.10566000000E+00 0.  1.
         13    1    4    4    0    0  0.16728653445E+02  0.13827721858E+02 -0.75392463623E+01  0.22976186316E+02  0.10566000000E+00 0. -1.
        -13    1    4    4    0    0  0.70016671470E+01  0.60659422855E+01 -0.41132127810E+01  0.10136502457E+02  0.10566000000E+00 0.  1.
         14    1    4    4    0    0  0.72382318879E+01  0.62386868261E+01 -0.28491130937E+01  0.99714923456E+01  0.00000000000E+00 0. -1.
<mgrwt>
<rscale>  0 0.82347866E+02</rscale>
<asrwt>0</asrwt>
<pdfrwt beam="1">  1        2 0.37436614E-02 0.82347866E+02</pdfrwt>
<pdfrwt beam="2">  1       -1 0.10718190E-01 0.82347866E+02</pdfrwt>
<totfact> 0.11891707E+05</totfact>
</mgrwt>
</event>
<event>
 8    1  0.1226832E-020  0.7806145E+02  0.7818608E-02  0.1334645E+00
          2   -1    0    0  501    0  0.00000000000E+00  0.00000000000E+00  0.92288264589E+01  0.92288268112E+01  0.25500000000E-02 0. -1.
         -1   -1    0    0    0  501 -0.00000000000E+00 -0.00000000000E+00 -0.16506945791E+03  0.16506945799E+03  0.50400000000E-02 0.  1.
         24    2    1    2    0    0  0.00000000000E+00  0.00000000000E+00 -0.15584063145E+03  0.17429828480E+03  0.78061448055E+02 0.  0.
         66    2    3    3    0    0  0.17582128614E+02  0.34816690699E+02 -0.78515003015E+02  0.87692296697E+02  0.20000009301E+01 0.  0.
        -13    1    3    3    0    0 -0.17582128614E+02 -0.34816690699E+02 -0.77325628436E+02  0.86605988100E+02  0.10566000000E+00 0.  1.
         13    1    4    4    0    0  0.51725185283E+01  0.10544533792E+02 -0.21851107720E+02  0.24807745029E+02  0.10566000000E+00 0. -1.
        -13    1    4    4    0    0  0.40300470785E+01  0.83777090512E+01 -0.18752170872E+02  0.20930417216E+02  0.10566000000E+00 0.  1.
         14    1    4    4    0    0  0.83795630074E+01  0.15894447856E+02 -0.37911724423E+02  0.41954134452E+02  0.00000000000E+00 0. -1.
<mgrwt>
<rscale>  0 0.78061448E+02</rscale>
<asrwt>0</asrwt>
<pdfrwt beam="1">  1        2 0.14198196E-02 0.78061448E+02</pdfrwt>
<pdfrwt beam="2">  1       -1 0.25395299E-01 0.78061448E+02</pdfrwt>
<totfact> 0.11194952E+05</totfact>
</mgrwt>
</event>
<event>
 8    1  0.1226832E-020  0.8078765E+02  0.7818608E-02  0.1326831E+00
          2   -1    0    0  501    0  0.00000000000E+00  0.00000000000E+00  0.68242178533E+03  0.68242178533E+03  0.25500000000E-02 0. -1.
         -1   -1    0    0    0  501 -0.00000000000E+00 -0.00000000000E+00 -0.23909838191E+01  0.23909891310E+01  0.50400000000E-02 0.  1.
         24    2    1    2    0    0  0.00000000000E+00  0.00000000000E+00  0.68003080151E+03  0.68481277446E+03  0.80787654180E+02 0.  0.
         66    2    3    3    0    0 -0.23200442440E+02  0.16003700757E+02  0.58520973255E+03  0.58589146610E+03  0.20000002607E+01 0.  0.
        -13    1    3    3    0    0  0.23200442440E+02 -0.16003700757E+02  0.94821068953E+02  0.98921308366E+02  0.10566000000E+00 0.  1.
         13    1    4    4    0    0 -0.51698807961E+01  0.32004955520E+01  0.13139963867E+03  0.13154028678E+03  0.10566000000E+00 0. -1.
        -13    1    4    4    0    0 -0.12717835283E+02  0.86314274200E+01  0.30207289645E+03  0.30246370164E+03  0.10566000000E+00 0.  1.
        -14    1    4    4    0    0 -0.53127263606E+01  0.41717777855E+01  0.15173719743E+03  0.15188747768E+03  0.00000000000E+00 0.  1.
<mgrwt>
<rscale>  0 0.80787654E+02</rscale>
<asrwt>0</asrwt>
<pdfrwt beam="1">  1        2 0.10498809E+00 0.80787654E+02</pdfrwt>
<pdfrwt beam="2">  1       -1 0.36784366E-03 0.80787654E+02</pdfrwt>
<totfact> 0.32416921E+05</totfact>
</mgrwt>
</event>
<event>
 8    1  0.1226832E-020  0.7933906E+02  0.7818608E-02  0.1330938E+00
          2   -1    0    0  501    0  0.00000000000E+00  0.00000000000E+00  0.34028027094E+02  0.34028027190E+02  0.25500000000E-02 0. -1.
         -1   -1    0    0    0  501 -0.00000000000E+00 -0.00000000000E+00 -0.46246339437E+02  0.46246339712E+02  0.50400000000E-02 0.  1.
         24    2    1    2    0    0  0.00000000000E+00  0.00000000000E+00 -0.12218312343E+02  0.80274366902E+02  0.79339062415E+02 0.  0.
         66    2    3    3    0    0 -0.26925807753E+02 -0.13950283806E+02  0.19723412602E+02  0.36230133478E+02  0.20000064363E+01 0.  0.
        -13    1    3    3    0    0  0.26925807753E+02  0.13950283806E+02 -0.31941724945E+02  0.44044233424E+02  0.10566000000E+00 0.  1.
         13    1    4    4    0    0 -0.21035799169E+02 -0.11531022938E+02  0.15529632217E+02  0.28577088331E+02  0.10566000000E+00 0. -1.
        -13    1    4    4    0    0 -0.29738695616E+01 -0.14552855179E+01  0.24605241059E+01  0.41263905559E+01  0.10566000000E+00 0.  1.
        -14    1    4    4    0    0 -0.29161390218E+01 -0.96397535044E+00  0.17332562795E+01  0.35266545905E+01  0.00000000000E+00 0.  1.
<mgrwt>
<rscale>  0 0.79339062E+02</rscale>
<asrwt>0</asrwt>
<pdfrwt beam="1">  1        2 0.52350811E-02 0.79339062E+02</pdfrwt>
<pdfrwt beam="2">  1       -1 0.71148215E-02 0.79339062E+02</pdfrwt>
<totfact> 0.14118230E+05</totfact>
</mgrwt>
</event>
<event>
 8    1  0.1226832E-020  0.7934152E+02  0.7818608E-02  0.1330931E+00
         -1   -1    0    0    0  501 -0.00000000000E+00  0.00000000000E+00  0.17364398429E+03  0.17364398436E+03  0.50400000000E-02 0.  1.
          2   -1    0    0  501    0  0.00000000000E+00 -0.00000000000E+00 -0.90631951477E+01  0.90631955064E+01  0.25500000000E-02 0. -1.
         24    2    1    2    0    0  0.00000000000E+00 -0.35527136788E-14  0.16458078914E+03  0.18270717987E+03  0.79341523939E+02 0.  0.
         66    2    3    3    0    0 -0.17840257194E+02 -0.27962201812E+02  0.32333991151E+02  0.46364280348E+02  0.20000003738E+01 0.  0.
        -13    1    3    3    0    0  0.17840257194E+02  0.27962201812E+02  0.13224679799E+03  0.13634289952E+03  0.10566000000E+00 0.  1.
         13    1    4    4    0    0 -0.54339950132E+01 -0.90557079954E+01  0.10207151823E+02  0.14687792941E+02  0.10566000000E+00 0. -1.
        -13    1    4    4    0    0 -0.88065124594E+01 -0.14572742658E+02  0.16939969144E+02  0.24018601311E+02  0.10566000000E+00 0.  1.
         14    1    4    4    0    0 -0.35997497212E+01 -0.43337511588E+01  0.51868701836E+01  0.76578860963E+01  0.00000000000E+00 0. -1.
<mgrwt>
<rscale>  0 0.79341524E+02</rscale>
<asrwt>0</asrwt>
<pdfrwt beam="1">  1        2 0.13943377E-02 0.79341524E+02</pdfrwt>
<pdfrwt beam="2">  1       -1 0.26714459E-01 0.79341524E+02</pdfrwt>
<totfact> 0.10596146E+05</totfact>
</mgrwt>
</event>
<event>
 8    1  0.1226832E-020  0.7910584E+02  0.7818608E-02  0.1331608E+00
         -1   -1    0    0    0  501 -0.00000000000E+00  0.00000000000E+00  0.40527046348E+02  0.40527046661E+02  0.50400000000E-02 0.  1.
          2   -1    0    0  501    0  0.00000000000E+00 -0.00000000000E+00 -0.38602209543E+02  0.38602209627E+02  0.25500000000E-02 0. -1.
         24    2    1    2    0    0  0.35527136788E-14  0.00000000000E+00  0.19248368051E+01  0.79129256288E+02  0.79105841782E+02 0.  0.
         66    2    3    3    0    0  0.23087314787E+02 -0.32083073645E+02  0.12475202010E+01  0.39596767871E+02  0.20000001469E+01 0.  0.
        -13    1    3    3    0    0 -0.23087314787E+02  0.32083073645E+02  0.67731660410E+00  0.39532488417E+02  0.10566000000E+00 0.  1.
         13    1    4    4    0    0  0.96832713120E+01 -0.12622415739E+02  0.38766040599E+00  0.15913911116E+02  0.10566000000E+00 0. -1.
        -13    1    4    4    0    0  0.66337965275E+01 -0.10297427375E+02  0.98383644467E+00  0.12289156403E+02  0.10566000000E+00 0.  1.
        -14    1    4    4    0    0  0.67702469476E+01 -0.91632305313E+01 -0.12397664964E+00  0.11393700352E+02  0.00000000000E+00 0.  1.
<mgrwt>
<rscale>  0 0.79105842E+02</rscale>
<asrwt>0</asrwt>
<pdfrwt beam="1">  1        2 0.59388015E-02 0.79105842E+02</pdfrwt>
<pdfrwt beam="2">  1       -1 0.62349303E-02 0.79105842E+02</pdfrwt>
<totfact> 0.14598732E+05</totfact>
</mgrwt>
</event>
<event>
 8    1  0.1226832E-020  0.7784515E+02  0.7818608E-02  0.1335280E+00
         -1   -1    0    0    0  501 -0.00000000000E+00  0.00000000000E+00  0.44933810618E+01  0.44933838883E+01  0.50400000000E-02 0.  1.
          2   -1    0    0  501    0  0.00000000000E+00 -0.00000000000E+00 -0.33715508262E+03  0.33715508262E+03  0.25500000000E-02 0. -1.
         24    2    1    2    0    0 -0.17763568394E-14 -0.35527136788E-14 -0.33266170155E+03  0.34164846651E+03  0.77845147507E+02 0.  0.
         66    2    3    3    0    0 -0.89589336646E+01 -0.25413379833E+02 -0.28955123846E+03  0.29080925370E+03  0.19999947483E+01 0.  0.
        -13    1    3    3    0    0  0.89589336646E+01  0.25413379833E+02 -0.43110463096E+02  0.50839212812E+02  0.10566000000E+00 0.  1.
         13    1    4    4    0    0 -0.56685844936E+01 -0.16896114287E+02 -0.19461687955E+03  0.19543119633E+03  0.10566000000E+00 0. -1.
        -13    1    4    4    0    0 -0.22348424289E+01 -0.45857315661E+01 -0.55584519595E+02  0.55818217790E+02  0.10566000000E+00 0.  1.
        -14    1    4    4    0    0 -0.10555067420E+01 -0.39315339806E+01 -0.39349839310E+02  0.39559839581E+02  0.00000000000E+00 0.  1.
<mgrwt>
<rscale>  0 0.77845148E+02</rscale>
<asrwt>0</asrwt>
<pdfrwt beam="1">  1        2 0.51869993E-01 0.77845148E+02</pdfrwt>
<pdfrwt beam="2">  1       -1 0.69128988E-03 0.77845148E+02</pdfrwt>
<totfact> 0.28558758E+05</totfact>
</mgrwt>
</event>
<event>
 8    1  0.1226832E-020  0.7927451E+02  0.7818608E-02  0.1331123E+00
         -1   -1    0    0    0  501 -0.00000000000E+00  0.00000000000E+00  0.73971557823E+01  0.73971574993E+01  0.50400000000E-02 0.  1.
          2   -1    0    0  501    0  0.00000000000E+00 -0.00000000000E+00 -0.21239406190E+03  0.21239406192E+03  0.25500000000E-02 0. -1.
         24    2    1    2    0    0  0.88817841970E-15  0.00000000000E+00 -0.20499690612E+03  0.21979121942E+03  0.79274514278E+02 0.  0.
         66    2    3    3    0    0 -0.79086220685E+01 -0.24964529054E+02 -0.18496575150E+03  0.18682104603E+03  0.19999993749E+01 0.  0.
        -13    1    3    3    0    0  0.79086220685E+01  0.24964529054E+02 -0.20031154625E+02  0.32970173393E+02  0.10566000000E+00 0.  1.
         13    1    4    4    0    0 -0.13132132699E+01 -0.49114721431E+01 -0.31560117704E+02  0.31967159418E+02  0.10566000000E+00 0. -1.
        -13    1    4    4    0    0 -0.42433455570E+00 -0.81145981066E+00 -0.65189711053E+01  0.65838191916E+01  0.10566000000E+00 0.  1.
         14    1    4    4    0    0 -0.61710742429E+01 -0.19241597100E+02 -0.14688666269E+03  0.14827006742E+03  0.00000000000E+00 0. -1.
<mgrwt>
<rscale>  0 0.79274514E+02</rscale>
<asrwt>0</asrwt>
<pdfrwt beam="1">  1        2 0.32676005E-01 0.79274514E+02</pdfrwt>
<pdfrwt beam="2">  1       -1 0.11380243E-02 0.79274514E+02</pdfrwt>
<totfact> 0.23073770E+05</totfact>
</mgrwt>
</event>
<event>
 8    1  0.1226832E-020  0.7985759E+02  0.7818608E-02  0.1329456E+00
         -1   -1    0    0    0  501 -0.00000000000E+00  0.00000000000E+00  0.93997631316E+01  0.93997644828E+01  0.50400000000E-02 0.  1.
          2   -1    0    0  501    0  0.00000000000E+00 -0.00000000000E+00 -0.16961155476E+03  0.16961155477E+03  0.25500000000E-02 0. -1.
         24    2    1    2    0    0  0.00000000000E+00  0.00000000000E+00 -0.16021179162E+03  0.17901131926E+03  0.79857587285E+02 0.  0.
         66    2    3    3    0    0 -0.31171387610E+02  0.20018886351E+02 -0.11339664313E+03  0.11931139874E+03  0.19999955078E+01 0.  0.
        -13    1    3    3    0    0  0.31171387610E+02 -0.20018886351E+02 -0.46815148498E+02  0.59699920513E+02  0.10566000000E+00 0.  1.
         13    1    4    4    0    0 -0.11636579987E+02  0.84998677072E+01 -0.44130114998E+02  0.46423441909E+02  0.10566000000E+00 0. -1.
        -13    1    4    4    0    0 -0.57556714912E+01  0.33577523798E+01 -0.21363115108E+02  0.22378474177E+02  0.10566000000E+00 0.  1.
         14    1    4    4    0    0 -0.13779136131E+02  0.81612662643E+01 -0.47903413019E+02  0.50509482659E+02  0.00000000000E+00 0. -1.
<mgrwt>
<rscale>  0 0.79857587E+02</rscale>
<asrwt>0</asrwt>
<pdfrwt beam="1">  1        2 0.26094083E-01 0.79857587E+02</pdfrwt>
<pdfrwt beam="2">  1       -1 0.14461176E-02 0.79857587E+02</pdfrwt>
<totfact> 0.20951989E+05</totfact>
</mgrwt>
</event>
<event>
 8    1  0.1226832E-020  0.8156521E+02  0.7818608E-02  0.1324667E+00
         -1   -1    0    0    0  501 -0.00000000000E+00  0.00000000000E+00  0.18373290067E+02  0.18373290758E+02  0.50400000000E-02 0.  1.
          2   -1    0    0  501    0  0.00000000000E+00 -0.00000000000E+00 -0.90523850267E+02  0.90523850303E+02  0.25500000000E-02 0. -1.
         24    2    1    2    0    0  0.00000000000E+00 -0.11102230246E-15 -0.72150560200E+02  0.10889714106E+03  0.81565213138E+02 0.  0.
         66    2    3    3    0    0  0.21584673771E+02  0.95611528619E+00 -0.82237917298E+02  0.85052262461E+02  0.20000025029E+01 0.  0.
        -13    1    3    3    0    0 -0.21584673771E+02 -0.95611528619E+00  0.10087357098E+02  0.23844878601E+02  0.10566000000E+00 0.  1.
         13    1    4    4    0    0  0.17053382426E+02  0.10597124936E+01 -0.65879475354E+02  0.68059218918E+02  0.10566000000E+00 0. -1.
        -13    1    4    4    0    0  0.27330615987E+01  0.14668722859E+00 -0.10977948793E+02  0.11314489232E+02  0.10566000000E+00 0.  1.
        -14    1    4    4    0    0  0.17982297461E+01 -0.25028443604E+00 -0.53804931503E+01  0.56785543106E+01  0.00000000000E+00 0.  1.
<mgrwt>
<rscale>  0 0.81565213E+02</rscale>
<asrwt>0</asrwt>
<pdfrwt beam="1">  1        2 0.13926746E-01 0.81565213E+02</pdfrwt>
<pdfrwt beam="2">  1       -1 0.28266601E-02 0.81565213E+02</pdfrwt>
<totfact> 0.16371964E+05</totfact>
</mgrwt>
</event>
<event>
 8    1  0.1337120E-020  0.7416543E+02  0.7818608E-02  0.1346475E+00
          2   -1    0    0  501    0  0.00000000000E+00  0.00000000000E+00  0.93175828460E+03  0.93175828460E+03  0.25500000000E-02 0. -1.
         -1   -1    0    0    0  501 -0.00000000000E+00 -0.00000000000E+00 -0.14758372646E+01  0.14758458704E+01  0.50400000000E-02 0.  1.
         24    2    1    2    0    0  0.35527136788E-14  0.00000000000E+00  0.93028244733E+03  0.93323413047E+03  0.74165426318E+02 0.  0.
         66    2    3    3    0    0  0.26151542546E+02 -0.95292309897E+01  0.77329351069E+03  0.77379684872E+03  0.19999972210E+01 0.  0.
        -13    1    3    3    0    0 -0.26151542546E+02  0.95292309897E+01  0.15698893664E+03  0.15943728175E+03  0.10566000000E+00 0.  1.
         13    1    4    4    0    0  0.16490389984E+02 -0.54124003480E+01  0.48521300776E+03  0.48552332705E+03  0.10566000000E+00 0. -1.
        -13    1    4    4    0    0  0.61586244982E+01 -0.21374496189E+01  0.17408669908E+03  0.17420874636E+03  0.10566000000E+00 0.  1.
        -14    1    4    4    0    0  0.35025280633E+01 -0.19793810228E+01  0.11399380384E+03  0.11406477531E+03  0.00000000000E+00 0.  1.
<mgrwt>
<rscale>  0 0.74165426E+02</rscale>
<asrwt>0</asrwt>
<pdfrwt beam="1">  1        2 0.14334768E+00 0.74165426E+02</pdfrwt>
<pdfrwt beam="2">  1       -1 0.22705216E-03 0.74165426E+02</pdfrwt>
<totfact> 0.42654679E+05</totfact>
</mgrwt>
</event>
<event>
 8    1  0.1226832E-020  0.7187781E+02  0.7818608E-02  0.1353821E+00
          2   -1    0    0  501    0  0.00000000000E+00  0.00000000000E+00  0.35699603550E+02  0.35699603641E+02  0.25500000000E-02 0. -1.
         -1   -1    0    0    0  501 -0.00000000000E+00 -0.00000000000E+00 -0.36179808404E+02  0.36179808755E+02  0.50400000000E-02 0.  1.
         24    2    1    2    0    0  0.00000000000E+00  0.00000000000E+00 -0.48020485372E+00  0.71879412395E+02  0.71877808325E+02 0.  0.
         66    2    3    3    0    0 -0.11932728265E+02  0.29162087820E+02  0.16987479028E+02  0.35852359865E+02  0.19999735719E+01 0.  0.
        -13    1    3    3    0    0  0.11932728265E+02 -0.29162087820E+02 -0.17467683881E+02  0.36027052531E+02  0.10566000000E+00 0.  1.
         13    1    4    4    0    0 -0.68630319058E+01  0.14749804069E+02  0.93743668704E+01  0.18776257488E+02  0.10566000000E+00 0. -1.
        -13    1    4    4    0    0 -0.12495441848E+01  0.35209195242E+01  0.16646159243E+01  0.40914966915E+01  0.10566000000E+00 0.  1.
         14    1    4    4    0    0 -0.38201521742E+01  0.10891364227E+02  0.59484962330E+01  0.12984605685E+02  0.00000000000E+00 0. -1.
<mgrwt>
<rscale>  0 0.71877808E+02</rscale>
<asrwt>0</asrwt>
<pdfrwt beam="1">  1        2 0.54922467E-02 0.71877808E+02</pdfrwt>
<pdfrwt beam="2">  1       -1 0.55661244E-02 0.71877808E+02</pdfrwt>
<totfact> 0.18703248E+05</totfact>
</mgrwt>
</event>
<event>
 8    1  0.1226832E-020  0.8372147E+02  0.7818608E-02  0.1318810E+00
          2   -1    0    0  501    0  0.00000000000E+00  0.00000000000E+00  0.21090549037E+02  0.21090549191E+02  0.25500000000E-02 0. -1.
         -1   -1    0    0    0  501 -0.00000000000E+00 -0.00000000000E+00 -0.83085605935E+02  0.83085606088E+02  0.50400000000E-02 0.  1.
         24    2    1    2    0    0  0.00000000000E+00  0.44408920985E-15 -0.61995056898E+02  0.10417615528E+03  0.83721468268E+02 0.  0.
         66    2    3    3    0    0  0.23771878356E+02  0.23589456202E+01  0.11722215078E+02  0.26684773973E+02  0.20000026620E+01 0.  0.
        -13    1    3    3    0    0 -0.23771878356E+02 -0.23589456202E+01 -0.73717271976E+02  0.77491381306E+02  0.10566000000E+00 0.  1.
         13    1    4    4    0    0  0.20698449267E+01  0.25799857127E+00  0.71200271997E+00  0.22065659275E+01  0.10566000000E+00 0. -1.
        -13    1    4    4    0    0  0.76331081002E+01 -0.22879827324E-01  0.38687860428E+01  0.85582435252E+01  0.10566000000E+00 0.  1.
         14    1    4    4    0    0  0.14068925329E+02  0.21238268763E+01  0.71414263151E+01  0.15919964521E+02  0.00000000000E+00 0. -1.
<mgrwt>
<rscale>  0 0.83721468E+02</rscale>
<asrwt>0</asrwt>
<pdfrwt beam="1">  1        2 0.32446999E-02 0.83721468E+02</pdfrwt>
<pdfrwt beam="2">  1       -1 0.12782401E-01 0.83721468E+02</pdfrwt>
<totfact> 0.11011399E+05</totfact>
</mgrwt>
</event>
<event>
 8    1  0.1226832E-020  0.8051152E+02  0.7818608E-02  0.1327606E+00
         -1   -1    0    0    0  501 -0.00000000000E+00  0.00000000000E+00  0.23886142140E+02  0.23886142672E+02  0.50400000000E-02 0.  1.
          2   -1    0    0  501    0  0.00000000000E+00 -0.00000000000E+00 -0.67843773732E+02  0.67843773780E+02  0.25500000000E-02 0. -1.
         24    2    1    2    0    0  0.00000000000E+00 -0.69388939039E-17 -0.43957631592E+02  0.91729916451E+02  0.80511515928E+02 0.  0.
         66    2    3    3    0    0  0.36926201597E+02 -0.44463302747E-01 -0.40185225579E+02  0.54611342226E+02  0.20000009043E+01 0.  0.
        -13    1    3    3    0    0 -0.36926201597E+02  0.44463302747E-01 -0.37724060133E+01  0.37118574225E+02  0.10566000000E+00 0.  1.
         13    1    4    4    0    0  0.13577769363E+02  0.61948353848E+00 -0.15036025458E+02  0.20269010986E+02  0.10566000000E+00 0.  1.
        -13    1    4    4    0    0  0.12479848879E+02 -0.81095512614E+00 -0.13954998374E+02  0.18739194751E+02  0.10566000000E+00 0. -1.
         14    1    4    4    0    0  0.10868583354E+02  0.14700828491E+00 -0.11194201746E+02  0.15603136489E+02  0.00000000000E+00 0. -1.
<mgrwt>
<rscale>  0 0.80511516E+02</rscale>
<asrwt>0</asrwt>
<pdfrwt beam="1">  1        2 0.10437504E-01 0.80511516E+02</pdfrwt>
<pdfrwt beam="2">  1       -1 0.36747912E-02 0.80511516E+02</pdfrwt>
<totfact> 0.15749840E+05</totfact>
</mgrwt>
</event>
<event>
 8    1  0.1226832E-020  0.7960584E+02  0.7818608E-02  0.1330174E+00
          2   -1    0    0  501    0  0.00000000000E+00  0.00000000000E+00  0.52356224043E+03  0.52356224043E+03  0.25500000000E-02 0. -1.
         -1   -1    0    0    0  501 -0.00000000000E+00 -0.00000000000E+00 -0.30259464790E+01  0.30259506763E+01  0.50400000000E-02 0.  1.
         24    2    1    2    0    0  0.00000000000E+00  0.00000000000E+00  0.52053629395E+03  0.52658819111E+03  0.79605839602E+02 0.  0.
         66    2    3    3    0    0 -0.14926120655E+02  0.33843308739E+02  0.35722486889E+03  0.35914031461E+03  0.20000008754E+01 0.  0.
        -13    1    3    3    0    0  0.14926120655E+02 -0.33843308739E+02  0.16331142506E+03  0.16744787650E+03  0.10566000000E+00 0.  1.
         13    1    4    4    0    0 -0.83466952607E+00  0.21779868941E+01  0.21370733250E+02  0.21497899986E+02  0.10566000000E+00 0. -1.
        -13    1    4    4    0    0 -0.61641208449E+01  0.14683509720E+02  0.14641979427E+03  0.14728329560E+03  0.10566000000E+00 0.  1.
        -14    1    4    4    0    0 -0.79273302843E+01  0.16981812125E+02  0.18943434137E+03  0.19035911903E+03  0.00000000000E+00 0.  1.
<mgrwt>
<rscale>  0 0.79605840E+02</rscale>
<asrwt>0</asrwt>
<pdfrwt beam="1">  1        2 0.80547967E-01 0.79605840E+02</pdfrwt>
<pdfrwt beam="2">  1       -1 0.46553096E-03 0.79605840E+02</pdfrwt>
<totfact> 0.31295264E+05</totfact>
</mgrwt>
</event>
<event>
 8    1  0.1226832E-020  0.7936503E+02  0.7818608E-02  0.1330863E+00
          2   -1    0    0  501    0  0.00000000000E+00  0.00000000000E+00  0.29762584230E+03  0.29762584231E+03  0.25500000000E-02 0. -1.
         -1   -1    0    0    0  501 -0.00000000000E+00 -0.00000000000E+00 -0.52908766240E+01  0.52908790246E+01  0.50400000000E-02 0.  1.
         24    2    1    2    0    0  0.00000000000E+00  0.00000000000E+00  0.29233496568E+03  0.30291672134E+03  0.79365029502E+02 0.  0.
         66    2    3    3    0    0  0.98165958308E+01  0.11466061878E+02  0.28622933259E+03  0.28663402966E+03  0.19999990780E+01 0.  0.
        -13    1    3    3    0    0 -0.98165958308E+01 -0.11466061878E+02  0.61056330842E+01  0.16282691672E+02  0.10566000000E+00 0.  1.
         13    1    4    4    0    0  0.56615412095E+01  0.54901309026E+01  0.14981844582E+03  0.15002590595E+03  0.10566000000E+00 0.  1.
        -13    1    4    4    0    0  0.11561623595E+01  0.22920667551E+01  0.52641224318E+02  0.52703889260E+02  0.10566000000E+00 0. -1.
        -14    1    4    4    0    0  0.29988922618E+01  0.36838642206E+01  0.83769662458E+02  0.83904234451E+02  0.00000000000E+00 0.  1.
<mgrwt>
<rscale>  0 0.79365030E+02</rscale>
<asrwt>0</asrwt>
<pdfrwt beam="1">  1        2 0.45788602E-01 0.79365030E+02</pdfrwt>
<pdfrwt beam="2">  1       -1 0.81398102E-03 0.79365030E+02</pdfrwt>
<totfact> 0.25957796E+05</totfact>
</mgrwt>
</event>
<event>
 8    1  0.1226832E-020  0.7829772E+02  0.7818608E-02  0.1333953E+00
          2   -1    0    0  501    0  0.00000000000E+00  0.00000000000E+00  0.31901036707E+02  0.31901036809E+02  0.25500000000E-02 0. -1.
         -1   -1    0    0    0  501 -0.00000000000E+00 -0.00000000000E+00 -0.48043370567E+02  0.48043370832E+02  0.50400000000E-02 0.  1.
         24    2    1    2    0    0 -0.17763568394E-14 -0.88817841970E-15 -0.16142333860E+02  0.79944407641E+02  0.78297722640E+02 0.  0.
         66    2    3    3    0    0 -0.13477466944E+02  0.67151238837E+01  0.28792466482E+02  0.32553665403E+02  0.20000002663E+01 0.  0.
        -13    1    3    3    0    0  0.13477466944E+02 -0.67151238837E+01 -0.44934800342E+02  0.47390742237E+02  0.10566000000E+00 0.  1.
         13    1    4    4    0    0 -0.15163558255E+01  0.13304882489E+01  0.39449935752E+01  0.44321182649E+01  0.10566000000E+00 0. -1.
        -13    1    4    4    0    0 -0.44879680051E+01  0.19406983120E+01  0.10468692866E+02  0.11554776550E+02  0.10566000000E+00 0.  1.
         14    1    4    4    0    0 -0.74731431130E+01  0.34439373228E+01  0.14378780041E+02  0.16566770588E+02  0.00000000000E+00 0. -1.
<mgrwt>
<rscale>  0 0.78297723E+02</rscale>
<asrwt>0</asrwt>
<pdfrwt beam="1">  1        2 0.49078518E-02 0.78297723E+02</pdfrwt>
<pdfrwt beam="2">  1       -1 0.73912878E-02 0.78297723E+02</pdfrwt>
<totfact> 0.14461822E+05</totfact>
</mgrwt>
</event>
<event>
 8    1  0.1226832E-020  0.8038111E+02  0.7818608E-02  0.1327973E+00
         -1   -1    0    0    0  501 -0.00000000000E+00  0.00000000000E+00  0.24346660484E+01  0.24346712650E+01  0.50400000000E-02 0.  1.
          2   -1    0    0  501    0  0.00000000000E+00 -0.00000000000E+00 -0.66344994792E+03  0.66344994792E+03  0.25500000000E-02 0. -1.
         24    2    1    2    0    0  0.88817841970E-15 -0.35527136788E-14 -0.66101528187E+03  0.66588461919E+03  0.80381112246E+02 0.  0.
         66    2    3    3    0    0 -0.66714786258E+01  0.20666363661E+02 -0.61061948539E+03  0.61100880775E+03  0.19999992358E+01 0.  0.
        -13    1    3    3    0    0  0.66714786258E+01 -0.20666363661E+02 -0.50395796476E+02  0.54875811434E+02  0.10566000000E+00 0.  1.
         13    1    4    4    0    0 -0.12081211582E+01  0.44934846265E+01 -0.11885841885E+03  0.11894950969E+03  0.10566000000E+00 0. -1.
        -13    1    4    4    0    0 -0.14205789321E+01  0.56908606504E+01 -0.15558538900E+03  0.15569594848E+03  0.10566000000E+00 0. -1.
         14    1    4    4    0    0 -0.40427785356E+01  0.10482018384E+02 -0.33617567755E+03  0.33636334958E+03  0.00000000000E+00 0. -1.
<mgrwt>
<rscale>  0 0.80381112E+02</rscale>
<asrwt>0</asrwt>
<pdfrwt beam="1">  1        2 0.10206908E+00 0.80381112E+02</pdfrwt>
<pdfrwt beam="2">  1       -1 0.37456494E-03 0.80381112E+02</pdfrwt>
<totfact> 0.32620968E+05</totfact>
</mgrwt>
</event>
<event>
 8    1  0.1226832E-020  0.8027115E+02  0.7818608E-02  0.1328284E+00
         -1   -1    0    0    0  501 -0.00000000000E+00  0.00000000000E+00  0.16386635718E+02  0.16386636493E+02  0.50400000000E-02 0.  1.
          2   -1    0    0  501    0  0.00000000000E+00 -0.00000000000E+00 -0.98303544670E+02  0.98303544703E+02  0.25500000000E-02 0. -1.
         24    2    1    2    0    0  0.00000000000E+00  0.44408920985E-15 -0.81916908952E+02  0.11469018120E+03  0.80271151047E+02 0.  0.
         66    2    3    3    0    0  0.16116954798E+02  0.25699696336E+01 -0.93334649347E+02  0.94771924855E+02  0.19999990329E+01 0.  0.
        -13    1    3    3    0    0 -0.16116954798E+02 -0.25699696336E+01  0.11417740395E+02  0.19918256340E+02  0.10566000000E+00 0.  1.
         13    1    4    4    0    0  0.10538299822E+02  0.94249007638E+00 -0.56701143995E+02  0.57679935377E+02  0.10566000000E+00 0. -1.
        -13    1    4    4    0    0  0.32840583438E+01  0.90674033358E+00 -0.21310664934E+02  0.21581538898E+02  0.10566000000E+00 0.  1.
         14    1    4    4    0    0  0.22945966319E+01  0.72073922361E+00 -0.15322840418E+02  0.15510450581E+02  0.00000000000E+00 0. -1.
<mgrwt>
<rscale>  0 0.80271151E+02</rscale>
<asrwt>0</asrwt>
<pdfrwt beam="1">  1        2 0.15123622E-01 0.80271151E+02</pdfrwt>
<pdfrwt beam="2">  1       -1 0.25210210E-02 0.80271151E+02</pdfrwt>
<totfact> 0.17482146E+05</totfact>
</mgrwt>
</event>
<event>
 8    1  0.1402402E-020  0.8275129E+02  0.7818608E-02  0.1321420E+00
         -1   -1    0    0    0  501 -0.00000000000E+00  0.00000000000E+00  0.12432188670E+02  0.12432189692E+02  0.50400000000E-02 0.  1.
          2   -1    0    0  501    0  0.00000000000E+00 -0.00000000000E+00 -0.13770254829E+03  0.13770254832E+03  0.25500000000E-02 0. -1.
         24    2    1    2    0    0  0.00000000000E+00  0.00000000000E+00 -0.12527035962E+03  0.15013473801E+03  0.82751293385E+02 0.  0.
         66    2    3    3    0    0 -0.60701010180E+01  0.31114665160E+02 -0.11084335789E+03  0.11530489366E+03  0.19999998859E+01 0.  0.
        -13    1    3    3    0    0  0.60701010180E+01 -0.31114665160E+02 -0.14427001738E+02  0.34829844352E+02  0.10566000000E+00 0.  1.
         13    1    4    4    0    0 -0.19473268278E+01  0.10587086414E+02 -0.37276215235E+02  0.38799560136E+02  0.10566000000E+00 0. -1.
        -13    1    4    4    0    0 -0.39212929074E+01  0.18121460561E+02 -0.63409892246E+02  0.66065039692E+02  0.10566000000E+00 0.  1.
        -14    1    4    4    0    0 -0.20148128275E+00  0.24061181854E+01 -0.10157250406E+02  0.10440293829E+02  0.00000000000E+00 0.  1.
<mgrwt>
<rscale>  0 0.82751293E+02</rscale>
<asrwt>0</asrwt>
<pdfrwt beam="1">  1        2 0.21185006E-01 0.82751293E+02</pdfrwt>
<pdfrwt beam="2">  1       -1 0.19126446E-02 0.82751293E+02</pdfrwt>
<totfact> 0.17813759E+05</totfact>
</mgrwt>
</event>
<event>
 8    1  0.1226832E-020  0.7992481E+02  0.7818608E-02  0.1329265E+00
         -1   -1    0    0    0  501 -0.00000000000E+00  0.00000000000E+00  0.12696598166E+01  0.12696698199E+01  0.50400000000E-02 0.  1.
          2   -1    0    0  501    0  0.00000000000E+00 -0.00000000000E+00 -0.12578073137E+04  0.12578073137E+04  0.25500000000E-02 0. -1.
         24    2    1    2    0    0 -0.17763568394E-14  0.00000000000E+00 -0.12565376539E+04  0.12590769835E+04  0.79924807222E+02 0.  0.
         66    2    3    3    0    0 -0.11973816086E+02  0.12406040614E+02 -0.11961520976E+04  0.11962780290E+04  0.20000004165E+01 0.  0.
        -13    1    3    3    0    0  0.11973816086E+02 -0.12406040614E+02 -0.60385556315E+02  0.62798954536E+02  0.10566000000E+00 0.  1.
         13    1    4    4    0    0 -0.46365412459E+01  0.49851909635E+01 -0.51490072877E+03  0.51494574597E+03  0.10566000000E+00 0. -1.
        -13    1    4    4    0    0 -0.26539024725E+01  0.34378609412E+01 -0.29505383852E+03  0.29508581951E+03  0.10566000000E+00 0.  1.
         14    1    4    4    0    0 -0.46833723678E+01  0.39829887096E+01 -0.38619753030E+03  0.38624646353E+03  0.00000000000E+00 0. -1.
<mgrwt>
<rscale>  0 0.79924807E+02</rscale>
<asrwt>0</asrwt>
<pdfrwt beam="1">  1        2 0.19350782E+00 0.79924807E+02</pdfrwt>
<pdfrwt beam="2">  1       -1 0.19533406E-03 0.79924807E+02</pdfrwt>
<totfact> 0.34903342E+05</totfact>
</mgrwt>
</event>
<event>
 8    1  0.1226832E-020  0.7968018E+02  0.7818608E-02  0.1329961E+00
         -1   -1    0    0    0  501 -0.00000000000E+00  0.00000000000E+00  0.41265132182E+02  0.41265132489E+02  0.50400000000E-02 0.  1.
          2   -1    0    0  501    0  0.00000000000E+00 -0.00000000000E+00 -0.38464262941E+02  0.38464263026E+02  0.25500000000E-02 0. -1.
         24    2    1    2    0    0  0.00000000000E+00  0.35527136788E-14  0.28008692405E+01  0.79729395515E+02  0.79680183488E+02 0.  0.
         66    2    3    3    0    0 -0.17083756003E+02 -0.21484160516E+02 -0.27457512214E+02  0.38875941750E+02  0.19999994286E+01 0.  0.
        -13    1    3    3    0    0  0.17083756003E+02  0.21484160516E+02  0.30258381454E+02  0.40853453765E+02  0.10566000000E+00 0.  1.
         13    1    4    4    0    0 -0.88147294588E+01 -0.11218661792E+02 -0.15319503411E+02  0.20934568938E+02  0.10566000000E+00 0. -1.
        -13    1    4    4    0    0 -0.36012377617E+00 -0.33478014779E+00 -0.63333958144E+00  0.80873354236E+00  0.10566000000E+00 0. -1.
         14    1    4    4    0    0 -0.79089027683E+01 -0.99307185768E+01 -0.11504669221E+02  0.17132639270E+02  0.00000000000E+00 0. -1.
<mgrwt>
<rscale>  0 0.79680183E+02</rscale>
<asrwt>0</asrwt>
<pdfrwt beam="1">  1        2 0.59175789E-02 0.79680183E+02</pdfrwt>
<pdfrwt beam="2">  1       -1 0.63484819E-02 0.79680183E+02</pdfrwt>
<totfact> 0.14299120E+05</totfact>
</mgrwt>
</event>
<event>
 8    1  0.1226832E-020  0.7501108E+02  0.7818608E-02  0.1343837E+00
         -1   -1    0    0    0  501 -0.00000000000E+00  0.00000000000E+00  0.17145532967E+02  0.17145533708E+02  0.50400000000E-02 0.  1.
          2   -1    0    0  501    0  0.00000000000E+00 -0.00000000000E+00 -0.82042671920E+02  0.82042671960E+02  0.25500000000E-02 0. -1.
         24    2    1    2    0    0  0.35527136788E-14  0.00000000000E+00 -0.64897138953E+02  0.99188205667E+02  0.75011075844E+02 0.  0.
         66    2    3    3    0    0  0.25647005267E+02  0.18458972947E+01 -0.68526990824E+02  0.73219701578E+02  0.20000029619E+01 0.  0.
        -13    1    3    3    0    0 -0.25647005267E+02 -0.18458972947E+01  0.36298518709E+01  0.25968504089E+02  0.10566000000E+00 0.  1.
         13    1    4    4    0    0  0.21320824233E+01  0.43080461463E+00 -0.50212679454E+01  0.54731767641E+01  0.10566000000E+00 0. -1.
        -13    1    4    4    0    0  0.11305600256E+02  0.13208538792E+00 -0.29499628595E+02  0.31592298032E+02  0.10566000000E+00 0.  1.
         14    1    4    4    0    0  0.12209322587E+02  0.12830072921E+01 -0.34006094283E+02  0.36154226782E+02  0.00000000000E+00 0. -1.
<mgrwt>
<rscale>  0 0.75011076E+02</rscale>
<asrwt>0</asrwt>
<pdfrwt beam="1">  1        2 0.12621949E-01 0.75011076E+02</pdfrwt>
<pdfrwt beam="2">  1       -1 0.26377744E-02 0.75011076E+02</pdfrwt>
<totfact> 0.19972848E+05</totfact>
</mgrwt>
</event>
<event>
 8    1  0.1226832E-020  0.7953122E+02  0.7818608E-02  0.1330387E+00
         -1   -1    0    0    0  501 -0.00000000000E+00  0.00000000000E+00  0.38088363939E+01  0.38088397285E+01  0.50400000000E-02 0.  1.
          2   -1    0    0  501    0  0.00000000000E+00 -0.00000000000E+00 -0.41516693251E+03  0.41516693252E+03  0.25500000000E-02 0. -1.
         24    2    1    2    0    0 -0.35527136788E-14 -0.35527136788E-14 -0.41135809612E+03  0.41897577225E+03  0.79531217074E+02 0.  0.
         66    2    3    3    0    0 -0.26719330836E+02 -0.23971549660E+02 -0.29563521694E+03  0.29781326253E+03  0.20000016121E+01 0.  0.
        -13    1    3    3    0    0  0.26719330836E+02  0.23971549660E+02 -0.11572287917E+03  0.12116250972E+03  0.10566000000E+00 0.  1.
         13    1    4    4    0    0 -0.16168793644E+02 -0.13432736380E+02 -0.17620872196E+03  0.17745814480E+03  0.10566000000E+00 0. -1.
        -13    1    4    4    0    0 -0.50689472752E+01 -0.53836383144E+01 -0.58221066899E+02  0.58688853992E+02  0.10566000000E+00 0.  1.
         14    1    4    4    0    0 -0.54815899167E+01 -0.51551749655E+01 -0.61205428080E+02  0.61666263738E+02  0.00000000000E+00 0. -1.
<mgrwt>
<rscale>  0 0.79531217E+02</rscale>
<asrwt>0</asrwt>
<pdfrwt beam="1">  1        2 0.63871800E-01 0.79531217E+02</pdfrwt>
<pdfrwt beam="2">  1       -1 0.58597542E-03 0.79531217E+02</pdfrwt>
<totfact> 0.29064025E+05</totfact>
</mgrwt>
</event>
<event>
 8    1  0.1226832E-020  0.8051175E+02  0.7818608E-02  0.1327605E+00
         -1   -1    0    0    0  501 -0.00000000000E+00  0.00000000000E+00  0.11110619883E+02  0.11110621026E+02  0.50400000000E-02 0.  1.
          2   -1    0    0  501    0  0.00000000000E+00 -0.00000000000E+00 -0.14585462213E+03  0.14585462215E+03  0.25500000000E-02 0. -1.
         24    2    1    2    0    0  0.00000000000E+00 -0.71054273576E-14 -0.13474400224E+03  0.15696524318E+03  0.80511747121E+02 0.  0.
         66    2    3    3    0    0 -0.61900643664E+01 -0.26417083069E+02 -0.12532498238E+03  0.12824402674E+03  0.20000022033E+01 0.  0.
        -13    1    3    3    0    0  0.61900643664E+01  0.26417083069E+02 -0.94190198603E+01  0.28721216442E+02  0.10566000000E+00 0.  1.
         13    1    4    4    0    0 -0.31658671097E+01 -0.13840358002E+02 -0.68769113520E+02  0.70219515539E+02  0.10566000000E+00 0. -1.
        -13    1    4    4    0    0 -0.15423927540E+01 -0.44539723338E+01 -0.20850896305E+02  0.21377274983E+02  0.10566000000E+00 0.  1.
        -14    1    4    4    0    0 -0.14818045027E+01 -0.81227527325E+01 -0.35704972560E+02  0.36647236213E+02  0.00000000000E+00 0.  1.
<mgrwt>
<rscale>  0 0.80511747E+02</rscale>
<asrwt>0</asrwt>
<pdfrwt beam="1">  1        2 0.22439171E-01 0.80511747E+02</pdfrwt>
<pdfrwt beam="2">  1       -1 0.17093263E-02 0.80511747E+02</pdfrwt>
<totfact> 0.19517348E+05</totfact>
</mgrwt>
</event>
<event>
 8    1  0.1226832E-020  0.7974678E+02  0.7818608E-02  0.1329772E+00
          2   -1    0    0  501    0  0.00000000000E+00  0.00000000000E+00  0.25503955062E+03  0.25503955064E+03  0.25500000000E-02 0. -1.
         -1   -1    0    0    0  501 -0.00000000000E+00 -0.00000000000E+00 -0.62338834409E+01  0.62338854783E+01  0.50400000000E-02 0.  1.
         24    2    1    2    0    0 -0.71054273576E-14  0.00000000000E+00  0.24880566718E+03  0.26127343611E+03  0.79746776718E+02 0.  0.
         66    2    3    3    0    0 -0.35422138277E+02  0.17925443857E+02  0.13575087642E+03  0.14145087440E+03  0.20000004875E+01 0.  0.
        -13    1    3    3    0    0  0.35422138277E+02 -0.17925443857E+02  0.11305479076E+03  0.11982256171E+03  0.10566000000E+00 0.  1.
         13    1    4    4    0    0 -0.16080263962E+02  0.76829691534E+01  0.59154320789E+02  0.61780642083E+02  0.10566000000E+00 0. -1.
        -13    1    4    4    0    0 -0.38018239057E+01  0.21063628062E+01  0.13682654749E+02  0.14356769633E+02  0.10566000000E+00 0.  1.
         14    1    4    4    0    0 -0.15540050409E+02  0.81361118971E+01  0.62913900885E+02  0.65313462687E+02  0.00000000000E+00 0. -1.
<mgrwt>
<rscale>  0 0.79746777E+02</rscale>
<asrwt>0</asrwt>
<pdfrwt beam="1">  1        2 0.39236854E-01 0.79746777E+02</pdfrwt>
<pdfrwt beam="2">  1       -1 0.95905915E-03 0.79746777E+02</pdfrwt>
<totfact> 0.24240859E+05</totfact>
</mgrwt>
</event>
<event>
 8    1  0.1226832E-020  0.7967138E+02  0.7818608E-02  0.1329987E+00
         -1   -1    0    0    0  501 -0.00000000000E+00  0.00000000000E+00  0.52609524523E+01  0.52609548664E+01  0.50400000000E-02 0.  1.
          2   -1    0    0  501    0  0.00000000000E+00 -0.00000000000E+00 -0.30163395290E+03  0.30163395292E+03  0.25500000000E-02 0. -1.
         24    2    1    2    0    0  0.00000000000E+00  0.00000000000E+00 -0.29637300045E+03  0.30689490778E+03  0.79671381470E+02 0.  0.
         66    2    3    3    0    0  0.31910706075E+02 -0.18221399976E+02 -0.20727509387E+03  0.21051669084E+03  0.20000011384E+01 0.  0.
        -13    1    3    3    0    0 -0.31910706075E+02  0.18221399976E+02 -0.89097906580E+02  0.96378216939E+02  0.10566000000E+00 0.  1.
         13    1    4    4    0    0  0.45440687941E+00 -0.19609030587E+00 -0.32671569805E+01  0.33061179336E+01  0.10566000000E+00 0.  1.
        -13    1    4    4    0    0  0.10215318738E+02 -0.54387355841E+01 -0.61454256390E+02  0.62534545446E+02  0.10566000000E+00 0.  1.
         14    1    4    4    0    0  0.21240980457E+02 -0.12586574086E+02 -0.14255368050E+03  0.14467602746E+03  0.00000000000E+00 0. -1.
<mgrwt>
<rscale>  0 0.79671381E+02</rscale>
<asrwt>0</asrwt>
<pdfrwt beam="1">  1        2 0.46405210E-01 0.79671381E+02</pdfrwt>
<pdfrwt beam="2">  1       -1 0.80937773E-03 0.79671381E+02</pdfrwt>
<totfact> 0.25821755E+05</totfact>
</mgrwt>
</event>
<event>
 8    1  0.1226832E-020  0.8186042E+02  0.7818608E-02  0.1323853E+00
          2   -1    0    0  501    0  0.00000000000E+00  0.00000000000E+00  0.22097723110E+03  0.22097723112E+03  0.25500000000E-02 0. -1.
         -1   -1    0    0    0  501 -0.00000000000E+00 -0.00000000000E+00 -0.75812413289E+01  0.75812430042E+01  0.50400000000E-02 0.  1.
         24    2    1    2    0    0  0.00000000000E+00  0.00000000000E+00  0.21339598977E+03  0.22855847412E+03  0.81860415594E+02 0.  0.
         66    2    3    3    0    0 -0.21105225205E+01 -0.36432936897E+02  0.15835508882E+03  0.16251814449E+03  0.19999840459E+01 0.  0.
        -13    1    3    3    0    0  0.21105225205E+01  0.36432936897E+02  0.55040900950E+02  0.66040329631E+02  0.10566000000E+00 0.  1.
         13    1    4    4    0    0 -0.12299770970E+01 -0.13928536873E+02  0.59582430653E+02  0.61201259707E+02  0.10566000000E+00 0. -1.
        -13    1    4    4    0    0 -0.63122423687E+00 -0.62011029415E+01  0.25300712962E+02  0.26057424319E+02  0.10566000000E+00 0.  1.
         14    1    4    4    0    0 -0.24932118657E+00 -0.16303297083E+02  0.73471945207E+02  0.75259460464E+02  0.00000000000E+00 0. -1.
<mgrwt>
<rscale>  0 0.81860416E+02</rscale>
<asrwt>0</asrwt>
<pdfrwt beam="1">  1        2 0.33996499E-01 0.81860416E+02</pdfrwt>
<pdfrwt beam="2">  1       -1 0.11663449E-02 0.81860416E+02</pdfrwt>
<totfact> 0.21499145E+05</totfact>
</mgrwt>
</event>
<event>
 8    1  0.1226832E-020  0.7878592E+02  0.7818608E-02  0.1332533E+00
          2   -1    0    0  501    0  0.00000000000E+00  0.00000000000E+00  0.29724923593E+03  0.29724923594E+03  0.25500000000E-02 0. -1.
         -1   -1    0    0    0  501 -0.00000000000E+00 -0.00000000000E+00 -0.52205519549E+01  0.52205543878E+01  0.50400000000E-02 0.  1.
         24    2    1    2    0    0  0.17763568394E-14 -0.71054273576E-14  0.29202868397E+03  0.30246979033E+03  0.78785923853E+02 0.  0.
         66    2    3    3    0    0 -0.78430306850E+01  0.37881208304E+02  0.11807948071E+03  0.12427092514E+03  0.19999995756E+01 0.  0.
        -13    1    3    3    0    0  0.78430306850E+01 -0.37881208304E+02  0.17394920327E+03  0.17819886519E+03  0.10566000000E+00 0.  1.
         13    1    4    4    0    0 -0.35004459956E+01  0.18169032962E+02  0.59250192760E+02  0.62072243290E+02  0.10566000000E+00 0. -1.
        -13    1    4    4    0    0 -0.39343988695E+01  0.18315316135E+02  0.54213251653E+02  0.57358679539E+02  0.10566000000E+00 0.  1.
         14    1    4    4    0    0 -0.40818581986E+00  0.13968592061E+01  0.46160362948E+01  0.48400023120E+01  0.00000000000E+00 0. -1.
<mgrwt>
<rscale>  0 0.78785924E+02</rscale>
<asrwt>0</asrwt>
<pdfrwt beam="1">  1        2 0.45730652E-01 0.78785924E+02</pdfrwt>
<pdfrwt beam="2">  1       -1 0.80316202E-03 0.78785924E+02</pdfrwt>
<totfact> 0.26448371E+05</totfact>
</mgrwt>
</event>
<event>
 8    1  0.1226832E-020  0.8741629E+02  0.7818608E-02  0.1309232E+00
         -1   -1    0    0    0  501 -0.00000000000E+00  0.00000000000E+00  0.42745371148E+01  0.42745400861E+01  0.50400000000E-02 0.  1.
          2   -1    0    0  501    0  0.00000000000E+00 -0.00000000000E+00 -0.44692589673E+03  0.44692589674E+03  0.25500000000E-02 0. -1.
         24    2    1    2    0    0  0.35527136788E-14  0.00000000000E+00 -0.44265135962E+03  0.45120043682E+03  0.87416291504E+02 0.  0.
         66    2    3    3    0    0 -0.27498171011E+02  0.33728547514E+02 -0.24118534753E+03  0.24508801721E+03  0.19999985085E+01 0.  0.
        -13    1    3    3    0    0  0.27498171011E+02 -0.33728547514E+02 -0.20146601209E+03  0.20611241961E+03  0.10566000000E+00 0.  1.
         13    1    4    4    0    0 -0.84581534003E+01  0.10902338827E+02 -0.78707779038E+02  0.79908241101E+02  0.10566000000E+00 0. -1.
        -13    1    4    4    0    0 -0.30426265607E+01  0.42672283499E+01 -0.26916859426E+02  0.27422532698E+02  0.10566000000E+00 0.  1.
         14    1    4    4    0    0 -0.15997391050E+02  0.18558980337E+02 -0.13556070906E+03  0.13775724341E+03  0.00000000000E+00 0. -1.
<mgrwt>
<rscale>  0 0.87416292E+02</rscale>
<asrwt>0</asrwt>
<pdfrwt beam="1">  1        2 0.68757793E-01 0.87416292E+02</pdfrwt>
<pdfrwt beam="2">  1       -1 0.65762168E-03 0.87416292E+02</pdfrwt>
<totfact> 0.23266391E+05</totfact>
</mgrwt>
</event>
<event>
 8    1  0.1226832E-020  0.7334573E+02  0.7818608E-02  0.1349072E+00
          2   -1    0    0  501    0  0.00000000000E+00  0.00000000000E+00  0.90986879568E+02  0.90986879604E+02  0.25500000000E-02 0. -1.
         -1   -1    0    0    0  501 -0.00000000000E+00 -0.00000000000E+00 -0.14781242742E+02  0.14781243602E+02  0.50400000000E-02 0.  1.
         24    2    1    2    0    0  0.00000000000E+00  0.35527136788E-14  0.76205636826E+02  0.10576812321E+03  0.73345734725E+02 0.  0.
         66    2    3    3    0    0  0.11482932921E+02 -0.22530401862E+02  0.76377117341E+02  0.80479443404E+02  0.20000001715E+01 0.  0.
        -13    1    3    3    0    0 -0.11482932921E+02  0.22530401862E+02 -0.17148051557E+00  0.25288679802E+02  0.10566000000E+00 0.  1.
         13    1    4    4    0    0  0.38803965434E+01 -0.82599454640E+01  0.25345037285E+02  0.26938193247E+02  0.10566000000E+00 0. -1.
        -13    1    4    4    0    0  0.51582154029E+00 -0.97657726146E+00  0.28231871535E+01  0.30333685481E+01  0.10566000000E+00 0.  1.
         14    1    4    4    0    0  0.70867148375E+01 -0.13293879136E+02  0.48208892903E+02  0.50507881608E+02  0.00000000000E+00 0. -1.
<mgrwt>
<rscale>  0 0.73345735E+02</rscale>
<asrwt>0</asrwt>
<pdfrwt beam="1">  1        2 0.13997982E-01 0.73345735E+02</pdfrwt>
<pdfrwt beam="2">  1       -1 0.22740374E-02 0.73345735E+02</pdfrwt>
<totfact> 0.21778116E+05</totfact>
</mgrwt>
</event>
<event>
 8    1  0.1226832E-020  0.8000007E+02  0.7818608E-02  0.1329051E+00
          2   -1    0    0  501    0  0.00000000000E+00  0.00000000000E+00  0.27892291736E+02  0.27892291853E+02  0.25500000000E-02 0. -1.
         -1   -1    0    0    0  501 -0.00000000000E+00 -0.00000000000E+00 -0.57363616870E+02  0.57363617092E+02  0.50400000000E-02 0.  1.
         24    2    1    2    0    0 -0.17763568394E-14  0.35527136788E-14 -0.29471325135E+02  0.85255908944E+02  0.80000068780E+02 0.  0.
         66    2    3    3    0    0 -0.87491568402E+01  0.22584784746E+02  0.19146652505E+02  0.30938884346E+02  0.20000037400E+01 0.  0.
        -13    1    3    3    0    0  0.87491568402E+01 -0.22584784746E+02 -0.48617977639E+02  0.54317024599E+02  0.10566000000E+00 0.  1.
         13    1    4    4    0    0 -0.35623647622E+01  0.93934866812E+01  0.89755309565E+01  0.13472169637E+02  0.10566000000E+00 0. -1.
        -13    1    4    4    0    0 -0.16754150458E+01  0.45231777704E+01  0.29975633630E+01  0.56800266609E+01  0.10566000000E+00 0.  1.
         14    1    4    4    0    0 -0.35113770322E+01  0.86681202948E+01  0.71735581855E+01  0.11786688048E+02  0.00000000000E+00 0. -1.
<mgrwt>
<rscale>  0 0.80000069E+02</rscale>
<asrwt>0</asrwt>
<pdfrwt beam="1">  1        2 0.42911218E-02 0.80000069E+02</pdfrwt>
<pdfrwt beam="2">  1       -1 0.88251719E-02 0.80000069E+02</pdfrwt>
<totfact> 0.13263441E+05</totfact>
</mgrwt>
</event>
<event>
 8    1  0.1226832E-020  0.8075630E+02  0.7818608E-02  0.1326919E+00
         -1   -1    0    0    0  501 -0.00000000000E+00  0.00000000000E+00  0.40179070500E+02  0.40179070816E+02  0.50400000000E-02 0.  1.
          2   -1    0    0  501    0  0.00000000000E+00 -0.00000000000E+00 -0.40578217344E+02  0.40578217424E+02  0.25500000000E-02 0. -1.
         24    2    1    2    0    0  0.17763568394E-14 -0.71054273576E-14 -0.39914684365E+00  0.80757288240E+02  0.80756301833E+02 0.  0.
         66    2    3    3    0    0 -0.98010828763E+01  0.38459630539E+02  0.70932455564E+01  0.40367295487E+02  0.20000014220E+01 0.  0.
        -13    1    3    3    0    0  0.98010828763E+01 -0.38459630539E+02 -0.74923924001E+01  0.40389992753E+02  0.10566000000E+00 0.  1.
         13    1    4    4    0    0 -0.71065403050E+01  0.28898149547E+02  0.50273832438E+01  0.30180982566E+02  0.10566000000E+00 0. -1.
        -13    1    4    4    0    0 -0.26062980863E+01  0.84926047737E+01  0.16504748686E+01  0.90361693701E+01  0.10566000000E+00 0.  1.
        -14    1    4    4    0    0 -0.88244485011E-01  0.10688762180E+01  0.41538744405E+00  0.11501435507E+01  0.00000000000E+00 0.  1.
<mgrwt>
<rscale>  0 0.80756302E+02</rscale>
<asrwt>0</asrwt>
<pdfrwt beam="1">  1        2 0.62428027E-02 0.80756302E+02</pdfrwt>
<pdfrwt beam="2">  1       -1 0.61813955E-02 0.80756302E+02</pdfrwt>
<totfact> 0.13930276E+05</totfact>
</mgrwt>
</event>
<event>
 8    1  0.1226832E-020  0.8055824E+02  0.7818608E-02  0.1327475E+00
         -1   -1    0    0    0  501 -0.00000000000E+00  0.00000000000E+00  0.75125002924E+01  0.75125019830E+01  0.50400000000E-02 0.  1.
          2   -1    0    0  501    0  0.00000000000E+00 -0.00000000000E+00 -0.21596102308E+03  0.21596102310E+03  0.25500000000E-02 0. -1.
         24    2    1    2    0    0  0.00000000000E+00  0.00000000000E+00 -0.20844852279E+03  0.22347352508E+03  0.80558238304E+02 0.  0.
         66    2    3    3    0    0  0.13846450504E+02  0.31891800690E+02 -0.16056769261E+03  0.16430092833E+03  0.19999997921E+01 0.  0.
        -13    1    3    3    0    0 -0.13846450504E+02 -0.31891800690E+02 -0.47880830186E+02  0.59172596751E+02  0.10566000000E+00 0.  1.
         13    1    4    4    0    0  0.47643192587E+01  0.11239600072E+02 -0.57403428529E+02  0.58687239828E+02  0.10566000000E+00 0. -1.
        -13    1    4    4    0    0  0.13970441168E+01  0.42602054832E+01 -0.18565729280E+02  0.19099700279E+02  0.10566000000E+00 0.  1.
        -14    1    4    4    0    0  0.76850871287E+01  0.16391995135E+02 -0.84598534798E+02  0.86513988225E+02  0.00000000000E+00 0.  1.
<mgrwt>
<rscale>  0 0.80558238E+02</rscale>
<asrwt>0</asrwt>
<pdfrwt beam="1">  1        2 0.33224768E-01 0.80558238E+02</pdfrwt>
<pdfrwt beam="2">  1       -1 0.11557696E-02 0.80558238E+02</pdfrwt>
<totfact> 0.22247205E+05</totfact>
</mgrwt>
</event>
<event>
 8    1  0.1226832E-020  0.7961941E+02  0.7818608E-02  0.1330135E+00
          2   -1    0    0  501    0  0.00000000000E+00  0.00000000000E+00  0.63122663549E+02  0.63122663600E+02  0.25500000000E-02 0. -1.
         -1   -1    0    0    0  501 -0.00000000000E+00 -0.00000000000E+00 -0.25106872280E+02  0.25106872785E+02  0.50400000000E-02 0.  1.
         24    2    1    2    0    0  0.00000000000E+00  0.35527136788E-14  0.38015791269E+02  0.88229536386E+02  0.79619411610E+02 0.  0.
         66    2    3    3    0    0 -0.15224896061E+02  0.24876568349E+02  0.49004575535E+02  0.57062155094E+02  0.20000019250E+01 0.  0.
        -13    1    3    3    0    0  0.15224896061E+02 -0.24876568349E+02 -0.10988784266E+02  0.31167381292E+02  0.10566000000E+00 0.  1.
         13    1    4    4    0    0 -0.20425613428E+01  0.36827248959E+01  0.61027919552E+01  0.74155076146E+01  0.10566000000E+00 0. -1.
        -13    1    4    4    0    0 -0.45334489884E+01  0.65972386045E+01  0.13026955438E+02  0.15290142215E+02  0.10566000000E+00 0.  1.
         14    1    4    4    0    0 -0.86488857303E+01  0.14596604848E+02  0.29874828142E+02  0.34356505265E+02  0.00000000000E+00 0. -1.
<mgrwt>
<rscale>  0 0.79619412E+02</rscale>
<asrwt>0</asrwt>
<pdfrwt beam="1">  1        2 0.97111789E-02 0.79619412E+02</pdfrwt>
<pdfrwt beam="2">  1       -1 0.38625958E-02 0.79619412E+02</pdfrwt>
<totfact> 0.15956586E+05</totfact>
</mgrwt>
</event>
<event>
 8    1  0.1226832E-020  0.8014332E+02  0.7818608E-02  0.1328645E+00
         -1   -1    0    0    0  501 -0.00000000000E+00  0.00000000000E+00  0.20776692018E+02  0.20776692630E+02  0.50400000000E-02 0.  1.
          2   -1    0    0  501    0  0.00000000000E+00 -0.00000000000E+00 -0.77285537665E+02  0.77285537707E+02  0.25500000000E-02 0. -1.
         24    2    1    2    0    0  0.00000000000E+00  0.88817841970E-15 -0.56508845646E+02  0.98062230337E+02  0.80143317765E+02 0.  0.
         66    2    3    3    0    0 -0.21042114868E+02  0.63140031793E+01 -0.69241008874E+02  0.72670176880E+02  0.20000159054E+01 0.  0.
        -13    1    3    3    0    0  0.21042114868E+02 -0.63140031793E+01  0.12732163228E+02  0.25392053457E+02  0.10566000000E+00 0.  1.
         13    1    4    4    0    0 -0.14818389387E+02  0.48715752957E+01 -0.48696498531E+02  0.51133912847E+02  0.10566000000E+00 0. -1.
        -13    1    4    4    0    0 -0.39072515807E+01  0.13447220754E+01 -0.12637112581E+02  0.13295964455E+02  0.10566000000E+00 0.  1.
         14    1    4    4    0    0 -0.23164738995E+01  0.97705808120E-01 -0.79073977631E+01  0.82402995780E+01  0.00000000000E+00 0. -1.
<mgrwt>
<rscale>  0 0.80143318E+02</rscale>
<asrwt>0</asrwt>
<pdfrwt beam="1">  1        2 0.11890083E-01 0.80143318E+02</pdfrwt>
<pdfrwt beam="2">  1       -1 0.31964143E-02 0.80143318E+02</pdfrwt>
<totfact> 0.16469471E+05</totfact>
</mgrwt>
</event>
<event>
 8    1  0.1226832E-020  0.8139262E+02  0.7818608E-02  0.1325145E+00
         -1   -1    0    0    0  501 -0.00000000000E+00  0.00000000000E+00  0.89390385376E+00  0.89391806189E+00  0.50400000000E-02 0.  1.
          2   -1    0    0  501    0  0.00000000000E+00 -0.00000000000E+00 -0.18527456364E+04  0.18527456364E+04  0.25500000000E-02 0. -1.
         24    2    1    2    0    0 -0.22204460493E-15 -0.35527136788E-14 -0.18518517325E+04  0.18536395544E+04  0.81392619675E+02 0.  0.
         66    2    3    3    0    0  0.12804572703E+01  0.18728562497E+02 -0.17481772806E+04  0.17482792119E+04  0.19999771846E+01 0.  0.
        -13    1    3    3    0    0 -0.12804572703E+01 -0.18728562497E+02 -0.10367445193E+03  0.10536034250E+03  0.10566000000E+00 0.  1.
         13    1    4    4    0    0  0.43856767945E+00  0.47667378060E+01 -0.44438590692E+03  0.44441170053E+03  0.10566000000E+00 0. -1.
        -13    1    4    4    0    0  0.45089185740E+00  0.12941931041E+02 -0.12276716736E+04  0.12277399750E+04  0.10566000000E+00 0.  1.
        -14    1    4    4    0    0  0.39099773341E+00  0.10198936498E+01 -0.76119700024E+02  0.76127536372E+02  0.00000000000E+00 0.  1.
<mgrwt>
<rscale>  0 0.81392620E+02</rscale>
<asrwt>0</asrwt>
<pdfrwt beam="1">  1        2 0.28503472E+00 0.81392620E+02</pdfrwt>
<pdfrwt beam="2">  1       -1 0.13752625E-03 0.81392620E+02</pdfrwt>
<totfact> 0.28294492E+05</totfact>
</mgrwt>
</event>
<event>
 8    1  0.1226832E-020  0.7841497E+02  0.7818608E-02  0.1333611E+00
          2   -1    0    0  501    0  0.00000000000E+00  0.00000000000E+00  0.19383434415E+02  0.19383434583E+02  0.25500000000E-02 0. -1.
         -1   -1    0    0    0  501 -0.00000000000E+00 -0.00000000000E+00 -0.79306212424E+02  0.79306212584E+02  0.50400000000E-02 0.  1.
         24    2    1    2    0    0  0.00000000000E+00  0.00000000000E+00 -0.59922778009E+02  0.98689647167E+02  0.78414967536E+02 0.  0.
         66    2    3    3    0    0  0.33396743452E+02 -0.10560323160E+02 -0.78803857482E+01  0.35957799954E+02  0.19999998834E+01 0.  0.
        -13    1    3    3    0    0 -0.33396743452E+02  0.10560323160E+02 -0.52042392261E+02  0.62731847213E+02  0.10566000000E+00 0.  1.
         13    1    4    4    0    0  0.59797523479E+01 -0.21338924274E+01 -0.13965423012E+01  0.65017251148E+01  0.10566000000E+00 0. -1.
        -13    1    4    4    0    0  0.14747473115E+02 -0.45054182232E+01 -0.26145188943E+01  0.15640768195E+02  0.10566000000E+00 0.  1.
        -14    1    4    4    0    0  0.12669517990E+02 -0.39210125098E+01 -0.38693245528E+01  0.13815306645E+02  0.00000000000E+00 0.  1.
<mgrwt>
<rscale>  0 0.78414968E+02</rscale>
<asrwt>0</asrwt>
<pdfrwt beam="1">  1        2 0.29820669E-02 0.78414968E+02</pdfrwt>
<pdfrwt beam="2">  1       -1 0.12200956E-01 0.78414968E+02</pdfrwt>
<totfact> 0.13067065E+05</totfact>
</mgrwt>
</event>
<event>
 8    1  0.1226832E-020  0.8072104E+02  0.7818608E-02  0.1327018E+00
         -1   -1    0    0    0  501 -0.00000000000E+00  0.00000000000E+00  0.67259874732E+02  0.67259874921E+02  0.50400000000E-02 0.  1.
          2   -1    0    0  501    0  0.00000000000E+00 -0.00000000000E+00 -0.24219068162E+02  0.24219068296E+02  0.25500000000E-02 0. -1.
         24    2    1    2    0    0  0.71054273576E-14 -0.35527136788E-14  0.43040806570E+02  0.91478943217E+02  0.80721038285E+02 0.  0.
         66    2    3    3    0    0  0.32398647173E+02 -0.18102238540E+02  0.36291913517E+01  0.37343465414E+02  0.20000001248E+01 0.  0.
        -13    1    3    3    0    0 -0.32398647173E+02  0.18102238540E+02  0.39411615219E+02  0.54135477803E+02  0.10566000000E+00 0.  1.
         13    1    4    4    0    0  0.42205523255E+01 -0.29004414236E+01  0.51934366467E+00  0.51484467815E+01  0.10566000000E+00 0.  1.
        -13    1    4    4    0    0  0.62607317196E+01 -0.30652582117E+01  0.11423665730E+01  0.70646114537E+01  0.10566000000E+00 0. -1.
         14    1    4    4    0    0  0.21917363127E+02 -0.12136538905E+02  0.19674811140E+01  0.25130407179E+02  0.00000000000E+00 0. -1.
<mgrwt>
<rscale>  0 0.80721038E+02</rscale>
<asrwt>0</asrwt>
<pdfrwt beam="1">  1        2 0.37260105E-02 0.80721038E+02</pdfrwt>
<pdfrwt beam="2">  1       -1 0.10347673E-01 0.80721038E+02</pdfrwt>
<totfact> 0.12574791E+05</totfact>
</mgrwt>
</event>
<event>
 8    1  0.1226832E-020  0.7829184E+02  0.7818608E-02  0.1333970E+00
         -1   -1    0    0    0  501 -0.00000000000E+00  0.00000000000E+00  0.36046678097E+01  0.36046713332E+01  0.50400000000E-02 0.  1.
          2   -1    0    0  501    0  0.00000000000E+00 -0.00000000000E+00 -0.42511613403E+03  0.42511613404E+03  0.25500000000E-02 0. -1.
         24    2    1    2    0    0  0.00000000000E+00  0.17763568394E-14 -0.42151146622E+03  0.42872080537E+03  0.78291843781E+02 0.  0.
         66    2    3    3    0    0 -0.34437511961E+02 -0.11506505789E+02 -0.29063425367E+03  0.29290034361E+03  0.19999928981E+01 0.  0.
        -13    1    3    3    0    0  0.34437511961E+02  0.11506505789E+02 -0.13087721254E+03  0.13582046176E+03  0.10566000000E+00 0.  1.
         13    1    4    4    0    0 -0.80068483353E+01 -0.23027750645E+01 -0.68933632008E+02  0.69435359717E+02  0.10566000000E+00 0. -1.
        -13    1    4    4    0    0 -0.22430364633E+02 -0.79655663879E+01 -0.18434873545E+03  0.18587909762E+03  0.10566000000E+00 0.  1.
        -14    1    4    4    0    0 -0.40002989920E+01 -0.12381643365E+01 -0.37351886218E+02  0.37585886274E+02  0.00000000000E+00 0.  1.
<mgrwt>
<rscale>  0 0.78291844E+02</rscale>
<asrwt>0</asrwt>
<pdfrwt beam="1">  1        2 0.65402442E-01 0.78291844E+02</pdfrwt>
<pdfrwt beam="2">  1       -1 0.55456489E-03 0.78291844E+02</pdfrwt>
<totfact> 0.30526573E+05</totfact>
</mgrwt>
</event>
<event>
 8    1  0.1226832E-020  0.7859907E+02  0.7818608E-02  0.1333075E+00
          2   -1    0    0  501    0  0.00000000000E+00  0.00000000000E+00  0.69596233826E+03  0.69596233826E+03  0.25500000000E-02 0. -1.
         -1   -1    0    0    0  501 -0.00000000000E+00 -0.00000000000E+00 -0.22191593412E+01  0.22191650645E+01  0.50400000000E-02 0.  1.
         24    2    1    2    0    0  0.71054273576E-14  0.17763568394E-14  0.69374317891E+03  0.69818150332E+03  0.78599066754E+02 0.  0.
         66    2    3    3    0    0  0.33034310835E+02  0.82882178595E+01  0.52081960034E+03  0.52193583546E+03  0.19999996537E+01 0.  0.
        -13    1    3    3    0    0 -0.33034310835E+02 -0.82882178595E+01  0.17292357858E+03  0.17624566786E+03  0.10566000000E+00 0.  1.
         13    1    4    4    0    0  0.59429497503E+01  0.16687372130E+01  0.91771469551E+02  0.91978894987E+02  0.10566000000E+00 0. -1.
        -13    1    4    4    0    0  0.17753847256E+02  0.51380764491E+01  0.28706232655E+03  0.28765672147E+03  0.10566000000E+00 0.  1.
         14    1    4    4    0    0  0.93375138290E+01  0.14814041974E+01  0.14198580424E+03  0.14230021900E+03  0.00000000000E+00 0. -1.
<mgrwt>
<rscale>  0 0.78599067E+02</rscale>
<asrwt>0</asrwt>
<pdfrwt beam="1">  1        2 0.10707119E+00 0.78599067E+02</pdfrwt>
<pdfrwt beam="2">  1       -1 0.34140937E-03 0.78599067E+02</pdfrwt>
<totfact> 0.34975891E+05</totfact>
</mgrwt>
</event>
<event>
 8    1  0.1226832E-020  0.7802697E+02  0.7818608E-02  0.1334746E+00
         -1   -1    0    0    0  501 -0.00000000000E+00  0.00000000000E+00  0.97703825424E+01  0.97703838423E+01  0.50400000000E-02 0.  1.
          2   -1    0    0  501    0  0.00000000000E+00 -0.00000000000E+00 -0.15578221830E+03  0.15578221832E+03  0.25500000000E-02 0. -1.
         24    2    1    2    0    0  0.00000000000E+00  0.00000000000E+00 -0.14601183576E+03  0.16555260217E+03  0.78026969067E+02 0.  0.
         66    2    3    3    0    0 -0.31922170131E+02  0.12569784243E+02 -0.11235013965E+03  0.11748863052E+03  0.19999997554E+01 0.  0.
        -13    1    3    3    0    0  0.31922170131E+02 -0.12569784243E+02 -0.33661696108E+02  0.48063971649E+02  0.10566000000E+00 0.  1.
         13    1    4    4    0    0 -0.12969358961E+02  0.46144000104E+01 -0.46902345921E+02  0.48880856951E+02  0.10566000000E+00 0. -1.
        -13    1    4    4    0    0 -0.57493873230E+01  0.19283850607E+01 -0.18775872271E+02  0.19731159802E+02  0.10566000000E+00 0.  1.
         14    1    4    4    0    0 -0.13203423847E+02  0.60269991722E+01 -0.46671921460E+02  0.48876613764E+02  0.00000000000E+00 0. -1.
<mgrwt>
<rscale>  0 0.78026969E+02</rscale>
<asrwt>0</asrwt>
<pdfrwt beam="1">  1        2 0.23966493E-01 0.78026969E+02</pdfrwt>
<pdfrwt beam="2">  1       -1 0.15031360E-02 0.78026969E+02</pdfrwt>
<totfact> 0.21663067E+05</totfact>
</mgrwt>
</event>
<event>
 8    1  0.1226832E-020  0.7883651E+02  0.7818608E-02  0.1332386E+00
          2   -1    0    0  501    0  0.00000000000E+00  0.00000000000E+00  0.87007318840E+03  0.87007318840E+03  0.25500000000E-02 0. -1.
         -1   -1    0    0    0  501 -0.00000000000E+00 -0.00000000000E+00 -0.17858219501E+01  0.17858290621E+01  0.50400000000E-02 0.  1.
         24    2    1    2    0    0 -0.17763568394E-14  0.55511151231E-16  0.86828736645E+03  0.87185901747E+03  0.78836511845E+02 0.  0.
         66    2    3    3    0    0  0.13351916508E+02 -0.38828195920E+00  0.84426063458E+03  0.84436866560E+03  0.19999768290E+01 0.  0.
        -13    1    3    3    0    0 -0.13351916508E+02  0.38828195920E+00  0.24026731865E+02  0.27490351862E+02  0.10566000000E+00 0.  1.
         13    1    4    4    0    0  0.68906846056E+01 -0.10426201737E+01  0.44360220665E+03  0.44365695926E+03  0.10566000000E+00 0. -1.
        -13    1    4    4    0    0  0.45617354828E+01  0.25529524967E+00  0.29607302946E+03  0.29610829867E+03  0.10566000000E+00 0.  1.
        -14    1    4    4    0    0  0.18994964198E+01  0.39904296480E+00  0.10458539848E+03  0.10460340768E+03  0.00000000000E+00 0.  1.
<mgrwt>
<rscale>  0 0.78836512E+02</rscale>
<asrwt>0</asrwt>
<pdfrwt beam="1">  1        2 0.13385757E+00 0.78836512E+02</pdfrwt>
<pdfrwt beam="2">  1       -1 0.27474207E-03 0.78836512E+02</pdfrwt>
<totfact> 0.36154004E+05</totfact>
</mgrwt>
</event>
<event>
 8    1  0.1226832E-020  0.8010017E+02  0.7818608E-02  0.1328767E+00
         -1   -1    0    0    0  501 -0.00000000000E+00  0.00000000000E+00  0.73041909935E+02  0.73041910109E+02  0.50400000000E-02 0.  1.
          2   -1    0    0  501    0  0.00000000000E+00 -0.00000000000E+00 -0.21960120925E+02  0.21960121073E+02  0.25500000000E-02 0. -1.
         24    2    1    2    0    0  0.00000000000E+00  0.35527136788E-14  0.51081789010E+02  0.95002031182E+02  0.80100167043E+02 0.  0.
         66    2    3    3    0    0  0.35269982427E+02  0.18056392325E+02  0.18847592435E+02  0.43923077032E+02  0.19999977792E+01 0.  0.
        -13    1    3    3    0    0 -0.35269982427E+02 -0.18056392325E+02  0.32234196575E+02  0.51078954151E+02  0.10566000000E+00 0.  1.
         13    1    4    4    0    0  0.16777676287E+02  0.84293972746E+01  0.89542865662E+01  0.20802297276E+02  0.10566000000E+00 0. -1.
        -13    1    4    4    0    0  0.62829072828E+01  0.40161301925E+01  0.37092318411E+01  0.83290930199E+01  0.10566000000E+00 0.  1.
        -14    1    4    4    0    0  0.12209398858E+02  0.56108648577E+01  0.61840740273E+01  0.14791686736E+02  0.00000000000E+00 0.  1.
<mgrwt>
<rscale>  0 0.80100167E+02</rscale>
<asrwt>0</asrwt>
<pdfrwt beam="1">  1        2 0.33784801E-02 0.80100167E+02</pdfrwt>
<pdfrwt beam="2">  1       -1 0.11237217E-01 0.80100167E+02</pdfrwt>
<totfact> 0.12605911E+05</totfact>
</mgrwt>
</event>
<event>
 8    1  0.1226832E-020  0.8020171E+02  0.7818608E-02  0.1328480E+00
         -1   -1    0    0    0  501 -0.00000000000E+00  0.00000000000E+00  0.11024501282E+02  0.11024502434E+02  0.50400000000E-02 0.  1.
          2   -1    0    0  501    0  0.00000000000E+00 -0.00000000000E+00 -0.14586404788E+03  0.14586404791E+03  0.25500000000E-02 0. -1.
         24    2    1    2    0    0  0.00000000000E+00  0.00000000000E+00 -0.13483954660E+03  0.15688855034E+03  0.80201707587E+02 0.  0.
         66    2    3    3    0    0 -0.10182343305E+02  0.21660499734E+02 -0.13034023467E+03  0.13253465259E+03  0.19999994537E+01 0.  0.
        -13    1    3    3    0    0  0.10182343305E+02 -0.21660499734E+02 -0.44993119294E+01  0.24353897753E+02  0.10566000000E+00 0.  1.
         13    1    4    4    0    0 -0.80423612239E+01  0.17186708935E+02 -0.10582524578E+03  0.10751305199E+03  0.10566000000E+00 0. -1.
        -13    1    4    4    0    0 -0.72000853053E-02  0.25037276475E+00 -0.16461976878E+01  0.16684931003E+01  0.10566000000E+00 0. -1.
         14    1    4    4    0    0 -0.21327819957E+01  0.42234180341E+01 -0.22868791201E+02  0.23353107501E+02  0.00000000000E+00 0. -1.
<mgrwt>
<rscale>  0 0.80201708E+02</rscale>
<asrwt>0</asrwt>
<pdfrwt beam="1">  1        2 0.22440621E-01 0.80201708E+02</pdfrwt>
<pdfrwt beam="2">  1       -1 0.16960773E-02 0.80201708E+02</pdfrwt>
<totfact> 0.19718814E+05</totfact>
</mgrwt>
</event>
<event>
 8    1  0.1226832E-020  0.8343915E+02  0.7818608E-02  0.1319566E+00
          2   -1    0    0  501    0  0.00000000000E+00  0.00000000000E+00  0.13160703602E+04  0.13160703602E+04  0.25500000000E-02 0. -1.
         -1   -1    0    0    0  501 -0.00000000000E+00 -0.00000000000E+00 -0.13225104384E+01  0.13225200419E+01  0.50400000000E-02 0.  1.
         24    2    1    2    0    0  0.00000000000E+00  0.00000000000E+00  0.13147478497E+04  0.13173928802E+04  0.83439154272E+02 0.  0.
         66    2    3    3    0    0 -0.21099564158E+02 -0.77320745181E+01  0.12122770578E+04  0.12124869655E+04  0.19999992424E+01 0.  0.
        -13    1    3    3    0    0  0.21099564158E+02  0.77320745181E+01  0.10247079194E+03  0.10490591475E+03  0.10566000000E+00 0.  1.
         13    1    4    4    0    0 -0.74874630269E+01 -0.29030218706E+01  0.39165480528E+03  0.39173714057E+03  0.10566000000E+00 0. -1.
        -13    1    4    4    0    0 -0.66087850023E+01 -0.28032157430E+01  0.40372588132E+03  0.40378971318E+03  0.10566000000E+00 0.  1.
        -14    1    4    4    0    0 -0.70033161291E+01 -0.20258369045E+01  0.41689637119E+03  0.41696011171E+03  0.00000000000E+00 0.  1.
<mgrwt>
<rscale>  0 0.83439154E+02</rscale>
<asrwt>0</asrwt>
<pdfrwt beam="1">  1        2 0.20247241E+00 0.83439154E+02</pdfrwt>
<pdfrwt beam="2">  1       -1 0.20346384E-03 0.83439154E+02</pdfrwt>
<totfact> 0.30948412E+05</totfact>
</mgrwt>
</event>
<event>
 8    1  0.1226832E-020  0.7974995E+02  0.7818608E-02  0.1329763E+00
          2   -1    0    0  501    0  0.00000000000E+00  0.00000000000E+00  0.37073819647E+03  0.37073819648E+03  0.25500000000E-02 0. -1.
         -1   -1    0    0    0  501 -0.00000000000E+00 -0.00000000000E+00 -0.42887756859E+01  0.42887786473E+01  0.50400000000E-02 0.  1.
         24    2    1    2    0    0  0.35527136788E-14  0.00000000000E+00  0.36644942078E+03  0.37502697512E+03  0.79749947205E+02 0.  0.
         66    2    3    3    0    0  0.23085891595E+02  0.76389535665E+01  0.33180103406E+03  0.33269691643E+03  0.19999996548E+01 0.  0.
        -13    1    3    3    0    0 -0.23085891595E+02 -0.76389535665E+01  0.34648386725E+02  0.42330058694E+02  0.10566000000E+00 0.  1.
         13    1    4    4    0    0  0.18704874860E+01  0.25253625054E+00  0.22899216008E+02  0.22977113740E+02  0.10566000000E+00 0. -1.
        -13    1    4    4    0    0  0.18447981341E+01  0.41031468427E+00  0.23166853874E+02  0.23244051298E+02  0.10566000000E+00 0.  1.
         14    1    4    4    0    0  0.19370605975E+02  0.69761026317E+01  0.28573496417E+03  0.28647575139E+03  0.00000000000E+00 0. -1.
<mgrwt>
<rscale>  0 0.79749947E+02</rscale>
<asrwt>0</asrwt>
<pdfrwt beam="1">  1        2 0.57036639E-01 0.79749947E+02</pdfrwt>
<pdfrwt beam="2">  1       -1 0.65981195E-03 0.79749947E+02</pdfrwt>
<totfact> 0.27732622E+05</totfact>
</mgrwt>
</event>
<event>
 8    1  0.1226832E-020  0.7447758E+02  0.7818608E-02  0.1345496E+00
          2   -1    0    0  501    0  0.00000000000E+00  0.00000000000E+00  0.41513876433E+03  0.41513876434E+03  0.25500000000E-02 0. -1.
         -1   -1    0    0    0  501 -0.00000000000E+00 -0.00000000000E+00 -0.33403935075E+01  0.33403973097E+01  0.50400000000E-02 0.  1.
         24    2    1    2    0    0 -0.35527136788E-14 -0.71054273576E-14  0.41179837083E+03  0.41847916165E+03  0.74477584018E+02 0.  0.
         66    2    3    3    0    0 -0.28002961600E+02 -0.23725615931E+02  0.24052529115E+03  0.24331766561E+03  0.20000013485E+01 0.  0.
        -13    1    3    3    0    0  0.28002961600E+02  0.23725615931E+02  0.17127307968E+03  0.17516149604E+03  0.10566000000E+00 0.  1.
         13    1    4    4    0    0 -0.49233647984E+01 -0.50096737326E+01  0.48066159226E+02  0.48576776124E+02  0.10566000000E+00 0. -1.
        -13    1    4    4    0    0 -0.73400955156E+01 -0.56243468875E+01  0.61263049968E+02  0.61957103995E+02  0.10566000000E+00 0.  1.
         14    1    4    4    0    0 -0.15739501286E+02 -0.13091595310E+02  0.13119608196E+03  0.13278378549E+03  0.00000000000E+00 0. -1.
<mgrwt>
<rscale>  0 0.74477584E+02</rscale>
<asrwt>0</asrwt>
<pdfrwt beam="1">  1        2 0.63867521E-01 0.74477584E+02</pdfrwt>
<pdfrwt beam="2">  1       -1 0.51390683E-03 0.74477584E+02</pdfrwt>
<totfact> 0.34474288E+05</totfact>
</mgrwt>
</event>
<event>
 8    1  0.1226832E-020  0.7954858E+02  0.7818608E-02  0.1330337E+00
          2   -1    0    0  501    0  0.00000000000E+00  0.00000000000E+00  0.64748908294E+03  0.64748908295E+03  0.25500000000E-02 0. -1.
         -1   -1    0    0    0  501 -0.00000000000E+00 -0.00000000000E+00 -0.24432725185E+01  0.24432777167E+01  0.50400000000E-02 0.  1.
         24    2    1    2    0    0  0.35527136788E-14  0.00000000000E+00  0.64504581043E+03  0.64993236067E+03  0.79548575682E+02 0.  0.
         66    2    3    3    0    0 -0.28645156159E+02  0.18044801999E+02  0.49290095981E+03  0.49406630732E+03  0.20000009183E+01 0.  0.
        -13    1    3    3    0    0  0.28645156159E+02 -0.18044801999E+02  0.15214485062E+03  0.15586605334E+03  0.10566000000E+00 0.  1.
         13    1    4    4    0    0 -0.20602404169E+01  0.14625955962E+01  0.32908690659E+02  0.33005709527E+02  0.10566000000E+00 0. -1.
        -13    1    4    4    0    0 -0.88860367688E+01  0.63171227753E+01  0.16391347987E+03  0.16427570648E+03  0.10566000000E+00 0.  1.
         14    1    4    4    0    0 -0.17698878973E+02  0.10265083627E+02  0.29607878927E+03  0.29678489132E+03  0.00000000000E+00 0. -1.
<mgrwt>
<rscale>  0 0.79548576E+02</rscale>
<asrwt>0</asrwt>
<pdfrwt beam="1">  1        2 0.99613634E-01 0.79548576E+02</pdfrwt>
<pdfrwt beam="2">  1       -1 0.37588875E-03 0.79548576E+02</pdfrwt>
<totfact> 0.33311442E+05</totfact>
</mgrwt>
</event>
<event>
 8    1  0.1226832E-020  0.8252676E+02  0.7818608E-02  0.1322030E+00
          2   -1    0    0  501    0  0.00000000000E+00  0.00000000000E+00  0.99683599908E+03  0.99683599909E+03  0.25500000000E-02 0. -1.
         -1   -1    0    0    0  501 -0.00000000000E+00 -0.00000000000E+00 -0.17080672131E+01  0.17080746489E+01  0.50400000000E-02 0.  1.
         24    2    1    2    0    0  0.17763568394E-14 -0.35527136788E-14  0.99512793187E+03  0.99854407374E+03  0.82526761744E+02 0.  0.
         66    2    3    3    0    0 -0.13771302102E+02  0.17862679140E+02  0.91558875906E+03  0.91586871318E+03  0.19999992131E+01 0.  0.
        -13    1    3    3    0    0  0.13771302102E+02 -0.17862679140E+02  0.79539172808E+02  0.82675360553E+02  0.10566000000E+00 0.  1.
         13    1    4    4    0    0 -0.87698471830E+00  0.16805616001E+01  0.73638980962E+02  0.73663451390E+02  0.10566000000E+00 0.  1.
        -13    1    4    4    0    0 -0.72994208405E+01  0.87845711448E+01  0.43656197537E+03  0.43671136891E+03  0.10566000000E+00 0.  1.
         14    1    4    4    0    0 -0.55948965430E+01  0.73975463951E+01  0.40538780273E+03  0.40549389288E+03  0.00000000000E+00 0. -1.
<mgrwt>
<rscale>  0 0.82526762E+02</rscale>
<asrwt>0</asrwt>
<pdfrwt beam="1">  1        2 0.15335993E+00 0.82526762E+02</pdfrwt>
<pdfrwt beam="2">  1       -1 0.26277921E-03 0.82526762E+02</pdfrwt>
<totfact> 0.32490127E+05</totfact>
</mgrwt>
</event>
<event>
 8    1  0.1226832E-020  0.7988059E+02  0.7818608E-02  0.1329391E+00
         -1   -1    0    0    0  501 -0.00000000000E+00  0.00000000000E+00  0.17479102661E+02  0.17479103388E+02  0.50400000000E-02 0.  1.
          2   -1    0    0  501    0  0.00000000000E+00 -0.00000000000E+00 -0.91264817851E+02  0.91264817887E+02  0.25500000000E-02 0. -1.
         24    2    1    2    0    0  0.35527136788E-14  0.00000000000E+00 -0.73785715190E+02  0.10874392127E+03  0.79880589933E+02 0.  0.
         66    2    3    3    0    0 -0.24866525718E+02  0.12118990177E+01 -0.79388778695E+02  0.83224942354E+02  0.20000116461E+01 0.  0.
        -13    1    3    3    0    0  0.24866525718E+02 -0.12118990177E+01  0.56030635045E+01  0.25518978921E+02  0.10566000000E+00 0.  1.
         13    1    4    4    0    0 -0.79519164161E+01  0.71724339087E+00 -0.28038859150E+02  0.29153665280E+02  0.10566000000E+00 0. -1.
        -13    1    4    4    0    0 -0.63142564827E+00 -0.70564667817E-01 -0.20500144900E+01  0.21488138976E+01  0.10566000000E+00 0.  1.
        -14    1    4    4    0    0 -0.16283183653E+02  0.56522029470E+00 -0.49299905055E+02  0.51922463176E+02  0.00000000000E+00 0.  1.
<mgrwt>
<rscale>  0 0.79880590E+02</rscale>
<asrwt>0</asrwt>
<pdfrwt beam="1">  1        2 0.14040741E-01 0.79880590E+02</pdfrwt>
<pdfrwt beam="2">  1       -1 0.26890928E-02 0.79880590E+02</pdfrwt>
<totfact> 0.17355110E+05</totfact>
</mgrwt>
</event>
<event>
 8    1  0.1226832E-020  0.8093699E+02  0.7818608E-02  0.1326413E+00
          2   -1    0    0  501    0  0.00000000000E+00  0.00000000000E+00  0.75389073145E+02  0.75389073188E+02  0.25500000000E-02 0. -1.
         -1   -1    0    0    0  501 -0.00000000000E+00 -0.00000000000E+00 -0.21723293053E+02  0.21723293638E+02  0.50400000000E-02 0.  1.
         24    2    1    2    0    0  0.00000000000E+00  0.00000000000E+00  0.53665780092E+02  0.97112366826E+02  0.80936986834E+02 0.  0.
         66    2    3    3    0    0  0.38132187026E+02 -0.11605018254E+02  0.18627504764E+02  0.44042299575E+02  0.20000205154E+01 0.  0.
        -13    1    3    3    0    0 -0.38132187026E+02  0.11605018254E+02  0.35038275328E+02  0.53070067251E+02  0.10566000000E+00 0.  1.
         13    1    4    4    0    0  0.72990886056E+01 -0.22962165897E+01  0.38621927781E+01  0.85718727353E+01  0.10566000000E+00 0. -1.
        -13    1    4    4    0    0  0.13902686005E+02 -0.35894366723E+01  0.59310189299E+01  0.15535664883E+02  0.10566000000E+00 0.  1.
        -14    1    4    4    0    0  0.16930412415E+02 -0.57193649920E+01  0.88342930560E+01  0.19934761956E+02  0.00000000000E+00 0.  1.
<mgrwt>
<rscale>  0 0.80936987E+02</rscale>
<asrwt>0</asrwt>
<pdfrwt beam="1">  1        2 0.11598319E-01 0.80936987E+02</pdfrwt>
<pdfrwt beam="2">  1       -1 0.33420451E-02 0.80936987E+02</pdfrwt>
<totfact> 0.15936305E+05</totfact>
</mgrwt>
</event>
<event>
 8    1  0.1226832E-020  0.7935440E+02  0.7818608E-02  0.1330894E+00
          2   -1    0    0  501    0  0.00000000000E+00  0.00000000000E+00  0.16711614577E+04  0.16711614577E+04  0.25500000000E-02 0. -1.
         -1   -1    0    0    0  501 -0.00000000000E+00 -0.00000000000E+00 -0.94202072887E+00  0.94203421128E+00  0.50400000000E-02 0.  1.
         24    2    1    2    0    0 -0.17763568394E-14  0.88817841970E-15  0.16702194369E+04  0.16721034919E+04  0.79354395166E+02 0.  0.
         66    2    3    3    0    0 -0.13735767355E+02  0.50725867804E+01  0.16121033492E+04  0.16121710861E+04  0.20000003948E+01 0.  0.
        -13    1    3    3    0    0  0.13735767355E+02 -0.50725867804E+01  0.58116087781E+02  0.59932405796E+02  0.10566000000E+00 0.  1.
         13    1    4    4    0    0 -0.68066491061E+01  0.35218347064E+01  0.84206530919E+03  0.84210018994E+03  0.10566000000E+00 0. -1.
        -13    1    4    4    0    0 -0.67079022467E+01  0.14227682007E+01  0.74230578131E+03  0.74233745989E+03  0.10566000000E+00 0.  1.
        -14    1    4    4    0    0 -0.22121600179E+00  0.12798387335E+00  0.27732258657E+02  0.27733436256E+02  0.00000000000E+00 0.  1.
<mgrwt>
<rscale>  0 0.79354395E+02</rscale>
<asrwt>0</asrwt>
<pdfrwt beam="1">  1        2 0.25709896E+00 0.79354395E+02</pdfrwt>
<pdfrwt beam="2">  1       -1 0.14492889E-03 0.79354395E+02</pdfrwt>
<totfact> 0.32312940E+05</totfact>
</mgrwt>
</event>
<event>
 8    1  0.1226832E-020  0.8561539E+02  0.7818608E-02  0.1313831E+00
          2   -1    0    0  501    0  0.00000000000E+00  0.00000000000E+00  0.19939986025E+02  0.19939986188E+02  0.25500000000E-02 0. -1.
         -1   -1    0    0    0  501 -0.00000000000E+00 -0.00000000000E+00 -0.91900697290E+02  0.91900697428E+02  0.50400000000E-02 0.  1.
         24    2    1    2    0    0 -0.35527136788E-14  0.00000000000E+00 -0.71960711265E+02  0.11184068362E+03  0.85615387320E+02 0.  0.
         66    2    3    3    0    0 -0.23141639842E+02 -0.92547152634E+01  0.94273214477E+01  0.26721894374E+02  0.20000000150E+01 0.  0.
        -13    1    3    3    0    0  0.23141639842E+02  0.92547152634E+01 -0.81388032713E+02  0.85118789242E+02  0.10566000000E+00 0.  1.
         13    1    4    4    0    0 -0.65164379130E+01 -0.27549474813E+01  0.31691997469E+01  0.77529794125E+01  0.10566000000E+00 0. -1.
        -13    1    4    4    0    0 -0.55062096699E+00  0.92758351322E-02  0.13005643544E+00  0.57562852814E+00  0.10566000000E+00 0.  1.
        -14    1    4    4    0    0 -0.16074580962E+02 -0.65090436172E+01  0.61280652653E+01  0.18393286433E+02  0.00000000000E+00 0.  1.
<mgrwt>
<rscale>  0 0.85615387E+02</rscale>
<asrwt>0</asrwt>
<pdfrwt beam="1">  1        2 0.30676902E-02 0.85615387E+02</pdfrwt>
<pdfrwt beam="2">  1       -1 0.14138569E-01 0.85615387E+02</pdfrwt>
<totfact> 0.10196671E+05</totfact>
</mgrwt>
</event>
<event>
 8    1  0.1226832E-020  0.8375800E+02  0.7818608E-02  0.1318713E+00
         -1   -1    0    0    0  501 -0.00000000000E+00  0.00000000000E+00  0.86023266091E+01  0.86023280855E+01  0.50400000000E-02 0.  1.
          2   -1    0    0  501    0  0.00000000000E+00 -0.00000000000E+00 -0.20388093153E+03  0.20388093155E+03  0.25500000000E-02 0. -1.
         24    2    1    2    0    0  0.00000000000E+00  0.00000000000E+00 -0.19527860493E+03  0.21248325964E+03  0.83757997134E+02 0.  0.
         66    2    3    3    0    0 -0.15589492408E+02  0.16914582950E+02 -0.18640228764E+03  0.18782691030E+03  0.20000012971E+01 0.  0.
        -13    1    3    3    0    0  0.15589492408E+02 -0.16914582950E+02 -0.88763172811E+01  0.24656349333E+02  0.10566000000E+00 0.  1.
         13    1    4    4    0    0 -0.12177489465E+01  0.76200865315E+00 -0.10576867061E+02  0.10674495329E+02  0.10566000000E+00 0.  1.
        -13    1    4    4    0    0 -0.29186147234E+00  0.45178295410E+00 -0.51003615991E+01  0.51297313218E+01  0.10566000000E+00 0. -1.
         14    1    4    4    0    0 -0.14079881989E+02  0.15700791343E+02 -0.17072505898E+03  0.17202268365E+03  0.00000000000E+00 0. -1.
<mgrwt>
<rscale>  0 0.83757997E+02</rscale>
<asrwt>0</asrwt>
<pdfrwt beam="1">  1        2 0.31366293E-01 0.83757997E+02</pdfrwt>
<pdfrwt beam="2">  1       -1 0.13234351E-02 0.83757997E+02</pdfrwt>
<totfact> 0.19668365E+05</totfact>
</mgrwt>
</event>
<event>
 8    1  0.1226832E-020  0.8267778E+02  0.7818608E-02  0.1321620E+00
         -1   -1    0    0    0  501 -0.00000000000E+00  0.00000000000E+00  0.26561679043E+01  0.26561726859E+01  0.50400000000E-02 0.  1.
          2   -1    0    0  501    0  0.00000000000E+00 -0.00000000000E+00 -0.64337130547E+03  0.64337130547E+03  0.25500000000E-02 0. -1.
         24    2    1    2    0    0  0.00000000000E+00  0.00000000000E+00 -0.64071513756E+03  0.64602747816E+03  0.82677778351E+02 0.  0.
         66    2    3    3    0    0  0.26057138378E+02 -0.20084910457E+02 -0.51581454277E+03  0.51686654044E+03  0.20000012360E+01 0.  0.
        -13    1    3    3    0    0 -0.26057138378E+02  0.20084910457E+02 -0.12490059480E+03  0.12916093772E+03  0.10566000000E+00 0.  1.
         13    1    4    4    0    0  0.79663616264E+00 -0.72306064650E+00 -0.12983166241E+02  0.13028093320E+02  0.10566000000E+00 0. -1.
        -13    1    4    4    0    0  0.68580896694E+01 -0.48616983231E+01 -0.12922405962E+03  0.12949725191E+03  0.10566000000E+00 0. -1.
         14    1    4    4    0    0  0.18402412546E+02 -0.14500151488E+02 -0.37360731691E+03  0.37434119520E+03  0.00000000000E+00 0. -1.
<mgrwt>
<rscale>  0 0.82677778E+02</rscale>
<asrwt>0</asrwt>
<pdfrwt beam="1">  1        2 0.98980077E-01 0.82677778E+02</pdfrwt>
<pdfrwt beam="2">  1       -1 0.40864210E-03 0.82677778E+02</pdfrwt>
<totfact> 0.30077556E+05</totfact>
</mgrwt>
</event>
<event>
 8    1  0.1226832E-020  0.8049268E+02  0.7818608E-02  0.1327659E+00
          2   -1    0    0  501    0  0.00000000000E+00  0.00000000000E+00  0.69587266405E+02  0.69587266451E+02  0.25500000000E-02 0. -1.
         -1   -1    0    0    0  501 -0.00000000000E+00 -0.00000000000E+00 -0.23276785066E+02  0.23276785611E+02  0.50400000000E-02 0.  1.
         24    2    1    2    0    0  0.00000000000E+00  0.35527136788E-14  0.46310481339E+02  0.92864052063E+02  0.80492679690E+02 0.  0.
         66    2    3    3    0    0 -0.12812673356E+02 -0.28667273750E+02  0.52168037128E+02  0.60921927734E+02  0.19999995967E+01 0.  0.
        -13    1    3    3    0    0  0.12812673356E+02  0.28667273750E+02 -0.58575557885E+01  0.31942124328E+02  0.10566000000E+00 0.  1.
         13    1    4    4    0    0 -0.25655375655E+01 -0.59549767746E+01  0.99728420024E+01  0.11895901522E+02  0.10566000000E+00 0. -1.
        -13    1    4    4    0    0 -0.32881766606E+01 -0.57804342694E+01  0.10811211780E+02  0.12693265548E+02  0.10566000000E+00 0.  1.
         14    1    4    4    0    0 -0.69589591299E+01 -0.16931862706E+02  0.31383983345E+02  0.36332760664E+02  0.00000000000E+00 0. -1.
<mgrwt>
<rscale>  0 0.80492680E+02</rscale>
<asrwt>0</asrwt>
<pdfrwt beam="1">  1        2 0.10705734E-01 0.80492680E+02</pdfrwt>
<pdfrwt beam="2">  1       -1 0.35810438E-02 0.80492680E+02</pdfrwt>
<totfact> 0.15857335E+05</totfact>
</mgrwt>
</event>
<event>
 8    1  0.1226832E-020  0.7917426E+02  0.7818608E-02  0.1331411E+00
          2   -1    0    0  501    0  0.00000000000E+00  0.00000000000E+00  0.14351790814E+04  0.14351790814E+04  0.25500000000E-02 0. -1.
         -1   -1    0    0    0  501 -0.00000000000E+00 -0.00000000000E+00 -0.10919420599E+01  0.10919536912E+01  0.50400000000E-02 0.  1.
         24    2    1    2    0    0 -0.17763568394E-14  0.00000000000E+00  0.14340871393E+04  0.14362710351E+04  0.79174257354E+02 0.  0.
         66    2    3    3    0    0  0.84457072227E+01 -0.63168192935E+01  0.14092037262E+04  0.14092446112E+04  0.20000002929E+01 0.  0.
        -13    1    3    3    0    0 -0.84457072227E+01  0.63168192935E+01  0.24883413132E+02  0.27026423914E+02  0.10566000000E+00 0.  1.
         13    1    4    4    0    0  0.40606482908E+01 -0.30671781995E+01  0.69754951037E+03  0.69756808057E+03  0.10566000000E+00 0. -1.
        -13    1    4    4    0    0  0.10378238398E+01 -0.15613434782E+01  0.25687196337E+03  0.25687882669E+03  0.10566000000E+00 0.  1.
        -14    1    4    4    0    0  0.33472350921E+01 -0.16882976158E+01  0.45478225247E+03  0.45479770393E+03  0.00000000000E+00 0.  1.
<mgrwt>
<rscale>  0 0.79174257E+02</rscale>
<asrwt>0</asrwt>
<pdfrwt beam="1">  1        2 0.22079686E+00 0.79174257E+02</pdfrwt>
<pdfrwt beam="2">  1       -1 0.16799192E-03 0.79174257E+02</pdfrwt>
<totfact> 0.34684797E+05</totfact>
</mgrwt>
</event>
<event>
 8    1  0.1490809E-020  0.7557302E+02  0.7818608E-02  0.1342106E+00
         -1   -1    0    0    0  501 -0.00000000000E+00  0.00000000000E+00  0.80713570129E+02  0.80713570286E+02  0.50400000000E-02 0.  1.
          2   -1    0    0  501    0  0.00000000000E+00 -0.00000000000E+00 -0.17689968431E+02  0.17689968615E+02  0.25500000000E-02 0. -1.
         24    2    1    2    0    0 -0.35527136788E-14 -0.17763568394E-14  0.63023601698E+02  0.98403538901E+02  0.75573024931E+02 0.  0.
         66    2    3    3    0    0  0.25910162025E+02  0.14621465188E+02  0.12563899362E+01  0.29844634641E+02  0.19999902021E+01 0.  0.
        -13    1    3    3    0    0 -0.25910162025E+02 -0.14621465188E+02  0.61767211762E+02  0.68558904259E+02  0.10566000000E+00 0.  1.
         13    1    4    4    0    0  0.16677191469E+02  0.93178421502E+01  0.38620311694E+00  0.19107883570E+02  0.10566000000E+00 0. -1.
        -13    1    4    4    0    0  0.35597048086E+01  0.24370373019E+01 -0.40492801200E-01  0.43154898723E+01  0.10566000000E+00 0.  1.
        -14    1    4    4    0    0  0.56732657466E+01  0.28665857360E+01  0.91067962051E+00  0.64212611990E+01  0.00000000000E+00 0.  1.
<mgrwt>
<rscale>  0 0.75573025E+02</rscale>
<asrwt>0</asrwt>
<pdfrwt beam="1">  1        2 0.27215336E-02 0.75573025E+02</pdfrwt>
<pdfrwt beam="2">  1       -1 0.12417473E-01 0.75573025E+02</pdfrwt>
<totfact> 0.14264353E+05</totfact>
</mgrwt>
</event>
<event>
 8    1  0.1226832E-020  0.7805641E+02  0.7818608E-02  0.1334659E+00
         -1   -1    0    0    0  501 -0.00000000000E+00  0.00000000000E+00  0.54548450280E+01  0.54548473564E+01  0.50400000000E-02 0.  1.
          2   -1    0    0  501    0  0.00000000000E+00 -0.00000000000E+00 -0.27923805546E+03  0.27923805547E+03  0.25500000000E-02 0. -1.
         24    2    1    2    0    0  0.00000000000E+00  0.00000000000E+00 -0.27378321043E+03  0.28469290283E+03  0.78056406567E+02 0.  0.
         66    2    3    3    0    0 -0.24961021220E+01 -0.33789609517E+02 -0.20744321440E+03  0.21020146389E+03  0.19999962109E+01 0.  0.
        -13    1    3    3    0    0  0.24961021220E+01  0.33789609517E+02 -0.66339996033E+02  0.74491438936E+02  0.10566000000E+00 0.  1.
         13    1    4    4    0    0 -0.26513464751E+01 -0.25437561605E+02 -0.15598375708E+03  0.15806657716E+03  0.10566000000E+00 0. -1.
        -13    1    4    4    0    0  0.83258263247E-01 -0.33766392726E+01 -0.19598730052E+02  0.19887936253E+02  0.10566000000E+00 0. -1.
         14    1    4    4    0    0  0.71986089836E-01 -0.49754086392E+01 -0.31860727266E+02  0.32246950476E+02  0.00000000000E+00 0. -1.
<mgrwt>
<rscale>  0 0.78056407E+02</rscale>
<asrwt>0</asrwt>
<pdfrwt beam="1">  1        2 0.42959690E-01 0.78056407E+02</pdfrwt>
<pdfrwt beam="2">  1       -1 0.83920733E-03 0.78056407E+02</pdfrwt>
<totfact> 0.26494829E+05</totfact>
</mgrwt>
</event>
<event>
 8    1  0.1226832E-020  0.8114686E+02  0.7818608E-02  0.1325828E+00
          2   -1    0    0  501    0  0.00000000000E+00  0.00000000000E+00  0.27260762131E+03  0.27260762132E+03  0.25500000000E-02 0. -1.
         -1   -1    0    0    0  501 -0.00000000000E+00 -0.00000000000E+00 -0.60387267122E+01  0.60387288155E+01  0.50400000000E-02 0.  1.
         24    2    1    2    0    0 -0.35527136788E-14  0.00000000000E+00  0.26656889460E+03  0.27864635014E+03  0.81146859939E+02 0.  0.
         66    2    3    3    0    0  0.13187427122E+02 -0.37165856701E+02  0.16575810436E+03  0.17039647378E+03  0.19999945458E+01 0.  0.
        -13    1    3    3    0    0 -0.13187427122E+02  0.37165856701E+02  0.10081079025E+03  0.10824987636E+03  0.10566000000E+00 0.  1.
         13    1    4    4    0    0  0.29290601918E+01 -0.65400480574E+01  0.28999644166E+02  0.29872096478E+02  0.10566000000E+00 0. -1.
        -13    1    4    4    0    0  0.16542446733E+01 -0.50606950759E+01  0.24181110731E+02  0.24760542004E+02  0.10566000000E+00 0.  1.
         14    1    4    4    0    0  0.86041222567E+01 -0.25565113568E+02  0.11257734946E+03  0.11576383530E+03  0.00000000000E+00 0. -1.
<mgrwt>
<rscale>  0 0.81146860E+02</rscale>
<asrwt>0</asrwt>
<pdfrwt beam="1">  1        2 0.41939630E-01 0.81146860E+02</pdfrwt>
<pdfrwt beam="2">  1       -1 0.92903513E-03 0.81146860E+02</pdfrwt>
<totfact> 0.23721507E+05</totfact>
</mgrwt>
</event>
<event>
 8    1  0.1226832E-020  0.7927338E+02  0.7818608E-02  0.1331126E+00
         -1   -1    0    0    0  501 -0.00000000000E+00  0.00000000000E+00  0.10480856777E+03  0.10480856790E+03  0.50400000000E-02 0.  1.
          2   -1    0    0  501    0  0.00000000000E+00 -0.00000000000E+00 -0.14989872006E+02  0.14989872223E+02  0.25500000000E-02 0. -1.
         24    2    1    2    0    0  0.00000000000E+00  0.00000000000E+00  0.89818695768E+02  0.11979844012E+03  0.79273376017E+02 0.  0.
         66    2    3    3    0    0 -0.31227342720E+02  0.24081264940E+02  0.39281855243E+02  0.55696664255E+02  0.20000008300E+01 0.  0.
        -13    1    3    3    0    0  0.31227342720E+02 -0.24081264940E+02  0.50536840525E+02  0.64101775863E+02  0.10566000000E+00 0.  1.
         13    1    4    4    0    0 -0.14347409646E+02  0.11702955196E+02  0.18544776461E+02  0.26205480761E+02  0.10566000000E+00 0. -1.
        -13    1    4    4    0    0 -0.21272767206E+01  0.11412112074E+01  0.26541716422E+01  0.35893537591E+01  0.10566000000E+00 0.  1.
        -14    1    4    4    0    0 -0.14752656353E+02  0.11237098537E+02  0.18082907139E+02  0.25901829735E+02  0.00000000000E+00 0.  1.
<mgrwt>
<rscale>  0 0.79273376E+02</rscale>
<asrwt>0</asrwt>
<pdfrwt beam="1">  1        2 0.23061342E-02 0.79273376E+02</pdfrwt>
<pdfrwt beam="2">  1       -1 0.16124395E-01 0.79273376E+02</pdfrwt>
<totfact> 0.12003849E+05</totfact>
</mgrwt>
</event>
<event>
 8    1  0.1226832E-020  0.7848200E+02  0.7818608E-02  0.1333415E+00
          2   -1    0    0  501    0  0.00000000000E+00  0.00000000000E+00  0.36366564518E+03  0.36366564518E+03  0.25500000000E-02 0. -1.
         -1   -1    0    0    0  501 -0.00000000000E+00 -0.00000000000E+00 -0.42342618182E+01  0.42342648177E+01  0.50400000000E-02 0.  1.
         24    2    1    2    0    0  0.35527136788E-14  0.00000000000E+00  0.35943138336E+03  0.36789991000E+03  0.78482000723E+02 0.  0.
         66    2    3    3    0    0 -0.29756831587E+02 -0.44783776508E+01  0.29770938955E+03  0.29923302879E+03  0.19999992701E+01 0.  0.
        -13    1    3    3    0    0  0.29756831587E+02  0.44783776508E+01  0.61721993806E+02  0.68666881216E+02  0.10566000000E+00 0.  1.
         13    1    4    4    0    0 -0.10258588952E+02 -0.12443787803E+01  0.10966457354E+03  0.11015042887E+03  0.10566000000E+00 0.  1.
        -13    1    4    4    0    0 -0.16084080312E+02 -0.26979075758E+01  0.15197670583E+03  0.15284929383E+03  0.10566000000E+00 0. -1.
        -14    1    4    4    0    0 -0.34141623236E+01 -0.53609129469E+00  0.36068110183E+02  0.36233306093E+02  0.00000000000E+00 0.  1.
<mgrwt>
<rscale>  0 0.78482001E+02</rscale>
<asrwt>0</asrwt>
<pdfrwt beam="1">  1        2 0.55948568E-01 0.78482001E+02</pdfrwt>
<pdfrwt beam="2">  1       -1 0.65142505E-03 0.78482001E+02</pdfrwt>
<totfact> 0.28721788E+05</totfact>
</mgrwt>
</event>
<event>
 8    1  0.1226832E-020  0.7853155E+02  0.7818608E-02  0.1333271E+00
         -1   -1    0    0    0  501 -0.00000000000E+00  0.00000000000E+00  0.25763006174E+01  0.25763055472E+01  0.50400000000E-02 0.  1.
          2   -1    0    0  501    0  0.00000000000E+00 -0.00000000000E+00 -0.59845478837E+03  0.59845478838E+03  0.25500000000E-02 0. -1.
         24    2    1    2    0    0  0.00000000000E+00  0.13877787808E-16 -0.59587848775E+03  0.60103109392E+03  0.78531545863E+02 0.  0.
         66    2    3    3    0    0  0.36460250409E+02 -0.93200899404E-01 -0.40915528828E+03  0.41078146073E+03  0.20000005415E+01 0.  0.
        -13    1    3    3    0    0 -0.36460250409E+02  0.93200899404E-01 -0.18672319947E+03  0.19024963320E+03  0.10566000000E+00 0.  1.
         13    1    4    4    0    0  0.11125051137E+02 -0.88880856158E-02 -0.12848488221E+03  0.12896566582E+03  0.10566000000E+00 0. -1.
        -13    1    4    4    0    0  0.23769920490E+02  0.18129835501E+00 -0.25989717523E+03  0.26098198184E+03  0.10566000000E+00 0.  1.
        -14    1    4    4    0    0  0.15652787819E+01 -0.26561116879E+00 -0.20773230852E+02  0.20833813069E+02  0.00000000000E+00 0.  1.
<mgrwt>
<rscale>  0 0.78531546E+02</rscale>
<asrwt>0</asrwt>
<pdfrwt beam="1">  1        2 0.92069857E-01 0.78531546E+02</pdfrwt>
<pdfrwt beam="2">  1       -1 0.39635480E-03 0.78531546E+02</pdfrwt>
<totfact> 0.33726336E+05</totfact>
</mgrwt>
</event>
<event>
 8    1  0.1254151E-020  0.7856744E+02  0.7818608E-02  0.1333167E+00
         -1   -1    0    0    0  501 -0.00000000000E+00  0.00000000000E+00  0.37007966253E+01  0.37008000572E+01  0.50400000000E-02 0.  1.
          2   -1    0    0  501    0  0.00000000000E+00 -0.00000000000E+00 -0.41699403165E+03  0.41699403166E+03  0.25500000000E-02 0. -1.
         24    2    1    2    0    0  0.35527136788E-14 -0.71054273576E-14 -0.41329323502E+03  0.42069483171E+03  0.78567444368E+02 0.  0.
         66    2    3    3    0    0 -0.21551555171E+02  0.22929639628E+02 -0.33246639039E+03  0.33395828877E+03  0.19999994762E+01 0.  0.
        -13    1    3    3    0    0  0.21551555171E+02 -0.22929639628E+02 -0.80826844635E+02  0.86736542941E+02  0.10566000000E+00 0.  1.
         13    1    4    4    0    0 -0.15417275949E+02  0.16321227106E+02 -0.23809094288E+03  0.23914719964E+03  0.10566000000E+00 0. -1.
        -13    1    4    4    0    0 -0.54094639696E+01  0.59515408317E+01 -0.80350934851E+02  0.80752504817E+02  0.10566000000E+00 0.  1.
        -14    1    4    4    0    0 -0.72481525260E+00  0.65687169049E+00 -0.14024512660E+02  0.14058584314E+02  0.00000000000E+00 0.  1.
<mgrwt>
<rscale>  0 0.78567444E+02</rscale>
<asrwt>0</asrwt>
<pdfrwt beam="1">  1        2 0.64152891E-01 0.78567444E+02</pdfrwt>
<pdfrwt beam="2">  1       -1 0.56935392E-03 0.78567444E+02</pdfrwt>
<totfact> 0.30048531E+05</totfact>
</mgrwt>
</event>
<event>
 8    1  0.1226832E-020  0.8079241E+02  0.7818608E-02  0.1326818E+00
         -1   -1    0    0    0  501 -0.00000000000E+00  0.00000000000E+00  0.76351583776E+01  0.76351600410E+01  0.50400000000E-02 0.  1.
          2   -1    0    0  501    0  0.00000000000E+00 -0.00000000000E+00 -0.21372877140E+03  0.21372877142E+03  0.25500000000E-02 0. -1.
         24    2    1    2    0    0  0.00000000000E+00  0.00000000000E+00 -0.20609361303E+03  0.22136393146E+03  0.80792405715E+02 0.  0.
         66    2    3    3    0    0 -0.12376823339E+02  0.10518295200E+02 -0.20437634980E+03  0.20503051642E+03  0.20000037932E+01 0.  0.
        -13    1    3    3    0    0  0.12376823339E+02 -0.10518295200E+02 -0.17172632250E+01  0.16333415041E+02  0.10566000000E+00 0.  1.
         13    1    4    4    0    0 -0.46822260093E+01  0.27851485964E+01 -0.66781202338E+02  0.67003137560E+02  0.10566000000E+00 0. -1.
        -13    1    4    4    0    0 -0.14337096342E+01  0.15168583694E+01 -0.27451602235E+02  0.27531037247E+02  0.10566000000E+00 0.  1.
         14    1    4    4    0    0 -0.62608876952E+01  0.62162882345E+01 -0.11014354523E+03  0.11049634161E+03  0.00000000000E+00 0. -1.
<mgrwt>
<rscale>  0 0.80792406E+02</rscale>
<asrwt>0</asrwt>
<pdfrwt beam="1">  1        2 0.32881345E-01 0.80792406E+02</pdfrwt>
<pdfrwt beam="2">  1       -1 0.11746400E-02 0.80792406E+02</pdfrwt>
<totfact> 0.21996933E+05</totfact>
</mgrwt>
</event>
<event>
 8    1  0.1226832E-020  0.7370313E+02  0.7818608E-02  0.1347935E+00
         -1   -1    0    0    0  501 -0.00000000000E+00  0.00000000000E+00  0.13930927172E+02  0.13930928084E+02  0.50400000000E-02 0.  1.
          2   -1    0    0  501    0  0.00000000000E+00 -0.00000000000E+00 -0.97483666495E+02  0.97483666528E+02  0.25500000000E-02 0. -1.
         24    2    1    2    0    0  0.00000000000E+00  0.00000000000E+00 -0.83552739323E+02  0.11141459461E+03  0.73703131848E+02 0.  0.
         66    2    3    3    0    0  0.84098162827E+01 -0.20572019006E+02 -0.86191919544E+02  0.89033589001E+02  0.19999999272E+01 0.  0.
        -13    1    3    3    0    0 -0.84098162827E+01  0.20572019006E+02  0.26391802213E+01  0.22381005611E+02  0.10566000000E+00 0.  1.
         13    1    4    4    0    0  0.14909276625E+01 -0.30909350115E+01 -0.12209507624E+02  0.12683058976E+02  0.10566000000E+00 0. -1.
        -13    1    4    4    0    0  0.28995782201E+01 -0.53836262990E+01 -0.23193405366E+02  0.23986166899E+02  0.10566000000E+00 0.  1.
        -14    1    4    4    0    0  0.40193104001E+01 -0.12097457696E+02 -0.50789006555E+02  0.52364363126E+02  0.00000000000E+00 0.  1.
<mgrwt>
<rscale>  0 0.73703132E+02</rscale>
<asrwt>0</asrwt>
<pdfrwt beam="1">  1        2 0.14997487E-01 0.73703132E+02</pdfrwt>
<pdfrwt beam="2">  1       -1 0.21432197E-02 0.73703132E+02</pdfrwt>
<totfact> 0.21900260E+05</totfact>
</mgrwt>
</event>
<event>
 8    1  0.1226832E-020  0.7957793E+02  0.7818608E-02  0.1330253E+00
          2   -1    0    0  501    0  0.00000000000E+00  0.00000000000E+00  0.19441879296E+02  0.19441879463E+02  0.25500000000E-02 0. -1.
         -1   -1    0    0    0  501 -0.00000000000E+00 -0.00000000000E+00 -0.81430494324E+02  0.81430494480E+02  0.50400000000E-02 0.  1.
         24    2    1    2    0    0  0.00000000000E+00  0.00000000000E+00 -0.61988615028E+02  0.10087237394E+03  0.79577933072E+02 0.  0.
         66    2    3    3    0    0  0.32836938904E+02  0.19183642648E+02 -0.45735385508E+02  0.59514722466E+02  0.20000002128E+01 0.  0.
        -13    1    3    3    0    0 -0.32836938904E+02 -0.19183642648E+02 -0.16253229521E+02  0.41357651478E+02  0.10566000000E+00 0.  1.
         13    1    4    4    0    0  0.23318515216E+02  0.13675476692E+02 -0.32457115894E+02  0.42240352162E+02  0.10566000000E+00 0. -1.
        -13    1    4    4    0    0  0.60669173145E+01  0.35769719984E+01 -0.76923281223E+01  0.10430018713E+02  0.10566000000E+00 0.  1.
        -14    1    4    4    0    0  0.34515063742E+01  0.19311939578E+01 -0.55859414916E+01  0.68443515910E+01  0.00000000000E+00 0.  1.
<mgrwt>
<rscale>  0 0.79577933E+02</rscale>
<asrwt>0</asrwt>
<pdfrwt beam="1">  1        2 0.29910584E-02 0.79577933E+02</pdfrwt>
<pdfrwt beam="2">  1       -1 0.12527768E-01 0.79577933E+02</pdfrwt>
<totfact> 0.12533907E+05</totfact>
</mgrwt>
</event>
<event>
 8    1  0.1226832E-020  0.7985110E+02  0.7818608E-02  0.1329475E+00
         -1   -1    0    0    0  501 -0.00000000000E+00  0.00000000000E+00  0.11418272870E+01  0.11418384102E+01  0.50400000000E-02 0.  1.
          2   -1    0    0  501    0  0.00000000000E+00 -0.00000000000E+00 -0.13960447097E+04  0.13960447097E+04  0.25500000000E-02 0. -1.
         24    2    1    2    0    0  0.00000000000E+00  0.35527136788E-14 -0.13949028824E+04  0.13971865481E+04  0.79851104327E+02 0.  0.
         66    2    3    3    0    0 -0.21146030587E+01 -0.18134399110E+02 -0.13186674160E+04  0.13187953146E+04  0.20000000243E+01 0.  0.
        -13    1    3    3    0    0  0.21146030587E+01  0.18134399110E+02 -0.76235466387E+02  0.78391233416E+02  0.10566000000E+00 0.  1.
         13    1    4    4    0    0 -0.36591783898E+00 -0.13054029440E+01 -0.10388286742E+03  0.10389176714E+03  0.10566000000E+00 0. -1.
        -13    1    4    4    0    0 -0.18015011190E+01 -0.99239363424E+01 -0.74326970936E+03  0.74333814777E+03  0.10566000000E+00 0.  1.
        -14    1    4    4    0    0  0.52815899200E-01 -0.69050598234E+01 -0.47151483920E+03  0.47156539973E+03  0.00000000000E+00 0.  1.
<mgrwt>
<rscale>  0 0.79851104E+02</rscale>
<asrwt>0</asrwt>
<pdfrwt beam="1">  1        2 0.21477474E+00 0.79851104E+02</pdfrwt>
<pdfrwt beam="2">  1       -1 0.17566771E-03 0.79851104E+02</pdfrwt>
<totfact> 0.34206011E+05</totfact>
</mgrwt>
</event>
<event>
 8    1  0.1226832E-020  0.8156981E+02  0.7818608E-02  0.1324655E+00
          2   -1    0    0  501    0  0.00000000000E+00  0.00000000000E+00  0.40273739013E+03  0.40273739013E+03  0.25500000000E-02 0. -1.
         -1   -1    0    0    0  501 -0.00000000000E+00 -0.00000000000E+00 -0.41302548039E+01  0.41302578790E+01  0.50400000000E-02 0.  1.
         24    2    1    2    0    0  0.00000000000E+00  0.00000000000E+00  0.39860713532E+03  0.40686764801E+03  0.81569814699E+02 0.  0.
         66    2    3    3    0    0 -0.34595093150E+02  0.97329758733E+01  0.29534939509E+03  0.29753456349E+03  0.20000005044E+01 0.  0.
        -13    1    3    3    0    0  0.34595093150E+02 -0.97329758733E+01  0.10325774024E+03  0.10933308453E+03  0.10566000000E+00 0.  1.
         13    1    4    4    0    0 -0.84727250856E+01  0.27297035252E+01  0.74777488028E+02  0.75305525903E+02  0.10566000000E+00 0. -1.
        -13    1    4    4    0    0 -0.13625923804E+02  0.29038468722E+01  0.11146774308E+03  0.11233506593E+03  0.10566000000E+00 0.  1.
        -14    1    4    4    0    0 -0.12496444260E+02  0.40994254759E+01  0.10910416398E+03  0.10989397166E+03  0.00000000000E+00 0.  1.
<mgrwt>
<rscale>  0 0.81569815E+02</rscale>
<asrwt>0</asrwt>
<pdfrwt beam="1">  1        2 0.61959603E-01 0.81569815E+02</pdfrwt>
<pdfrwt beam="2">  1       -1 0.63542401E-03 0.81569815E+02</pdfrwt>
<totfact> 0.26918034E+05</totfact>
</mgrwt>
</event>
<event>
 8    1  0.1226832E-020  0.8122324E+02  0.7818608E-02  0.1325615E+00
          2   -1    0    0  501    0  0.00000000000E+00  0.00000000000E+00  0.96133653200E+03  0.96133653200E+03  0.25500000000E-02 0. -1.
         -1   -1    0    0    0  501 -0.00000000000E+00 -0.00000000000E+00 -0.17156323122E+01  0.17156397152E+01  0.50400000000E-02 0.  1.
         24    2    1    2    0    0  0.00000000000E+00 -0.35527136788E-14  0.95962089968E+03  0.96305217171E+03  0.81223237650E+02 0.  0.
         66    2    3    3    0    0 -0.57668324815E+01 -0.17039868348E+02  0.91148240009E+03  0.91166209702E+03  0.19999987055E+01 0.  0.
        -13    1    3    3    0    0  0.57668324815E+01  0.17039868348E+02  0.48138499593E+02  0.51390074696E+02  0.10566000000E+00 0.  1.
         13    1    4    4    0    0 -0.19888235223E+01 -0.49921532661E+01  0.26977521148E+03  0.26982874737E+03  0.10566000000E+00 0. -1.
        -13    1    4    4    0    0 -0.27754984381E+01 -0.10261917676E+02  0.55664920254E+03  0.55675071279E+03  0.10566000000E+00 0.  1.
         14    1    4    4    0    0 -0.10025105211E+01 -0.17857974058E+01  0.85057986071E+02  0.85082636855E+02  0.00000000000E+00 0. -1.
<mgrwt>
<rscale>  0 0.81223238E+02</rscale>
<asrwt>0</asrwt>
<pdfrwt beam="1">  1        2 0.14789844E+00 0.81223238E+02</pdfrwt>
<pdfrwt beam="2">  1       -1 0.26394309E-03 0.81223238E+02</pdfrwt>
<totfact> 0.33795050E+05</totfact>
</mgrwt>
</event>
<event>
 8    1  0.1226832E-020  0.7995383E+02  0.7818608E-02  0.1329183E+00
          2   -1    0    0  501    0  0.00000000000E+00  0.00000000000E+00  0.10158602154E+04  0.10158602154E+04  0.25500000000E-02 0. -1.
         -1   -1    0    0    0  501 -0.00000000000E+00 -0.00000000000E+00 -0.15731983379E+01  0.15732064111E+01  0.50400000000E-02 0.  1.
         24    2    1    2    0    0  0.00000000000E+00  0.00000000000E+00  0.10142870171E+04  0.10174334218E+04  0.79953829452E+02 0.  0.
         66    2    3    3    0    0 -0.17335117313E+02 -0.10205460710E+01  0.96532204763E+03  0.96548029677E+03  0.20000002140E+01 0.  0.
        -13    1    3    3    0    0  0.17335117313E+02  0.10205460710E+01  0.48964969437E+02  0.51953125051E+02  0.10566000000E+00 0.  1.
         13    1    4    4    0    0 -0.10387853550E+02 -0.95078079976E+00  0.58261560885E+03  0.58270899283E+03  0.10566000000E+00 0. -1.
        -13    1    4    4    0    0 -0.46225509822E+01  0.40860623839E+00  0.26973263807E+03  0.26977257485E+03  0.10566000000E+00 0.  1.
         14    1    4    4    0    0 -0.23247127811E+01 -0.47837150963E+00  0.11297380071E+03  0.11299872909E+03  0.00000000000E+00 0. -1.
<mgrwt>
<rscale>  0 0.79953829E+02</rscale>
<asrwt>0</asrwt>
<pdfrwt beam="1">  1        2 0.15628636E+00 0.79953829E+02</pdfrwt>
<pdfrwt beam="2">  1       -1 0.24203087E-03 0.79953829E+02</pdfrwt>
<totfact> 0.35304156E+05</totfact>
</mgrwt>
</event>
<event>
 8    1  0.1226832E-020  0.8122796E+02  0.7818608E-02  0.1325602E+00
          2   -1    0    0  501    0  0.00000000000E+00  0.00000000000E+00  0.22850329688E+02  0.22850329830E+02  0.25500000000E-02 0. -1.
         -1   -1    0    0    0  501 -0.00000000000E+00 -0.00000000000E+00 -0.72186943120E+02  0.72186943296E+02  0.50400000000E-02 0.  1.
         24    2    1    2    0    0  0.35527136788E-14 -0.17763568394E-14 -0.49336613432E+02  0.95037273126E+02  0.81227962293E+02 0.  0.
         66    2    3    3    0    0  0.15090373470E+02 -0.15035948278E+02  0.15740328604E+02  0.26562323978E+02  0.19999996134E+01 0.  0.
        -13    1    3    3    0    0 -0.15090373470E+02  0.15035948278E+02 -0.65076942035E+02  0.68474949148E+02  0.10566000000E+00 0.  1.
         13    1    4    4    0    0  0.59084212159E+01 -0.55071051401E+01  0.58841658329E+01  0.99936089513E+01  0.10566000000E+00 0. -1.
        -13    1    4    4    0    0  0.67845618255E+01 -0.61767960057E+01  0.63602947571E+01  0.11164569024E+02  0.10566000000E+00 0.  1.
        -14    1    4    4    0    0  0.23973904291E+01 -0.33520471325E+01  0.34958680136E+01  0.54041460025E+01  0.00000000000E+00 0.  1.
<mgrwt>
<rscale>  0 0.81227962E+02</rscale>
<asrwt>0</asrwt>
<pdfrwt beam="1">  1        2 0.35154354E-02 0.81227962E+02</pdfrwt>
<pdfrwt beam="2">  1       -1 0.11105683E-01 0.81227962E+02</pdfrwt>
<totfact> 0.12209469E+05</totfact>
</mgrwt>
</event>
<event>
 8    1  0.1226832E-020  0.8052854E+02  0.7818608E-02  0.1327558E+00
         -1   -1    0    0    0  501 -0.00000000000E+00  0.00000000000E+00  0.96228653861E+01  0.96228667060E+01  0.50400000000E-02 0.  1.
          2   -1    0    0  501    0  0.00000000000E+00 -0.00000000000E+00 -0.16847491157E+03  0.16847491159E+03  0.25500000000E-02 0. -1.
         24    2    1    2    0    0 -0.88817841970E-15  0.00000000000E+00 -0.15885204618E+03  0.17809777830E+03  0.80528541877E+02 0.  0.
         66    2    3    3    0    0 -0.62815755627E+01 -0.38842538454E+02 -0.98110971047E+02  0.10572588902E+03  0.19999957948E+01 0.  0.
        -13    1    3    3    0    0  0.62815755627E+01  0.38842538454E+02 -0.60741075137E+02  0.72371889280E+02  0.10566000000E+00 0.  1.
         13    1    4    4    0    0 -0.84995753556E+00 -0.64877253983E+01 -0.16441586948E+02  0.17696043458E+02  0.10566000000E+00 0. -1.
        -13    1    4    4    0    0 -0.14886184257E+00 -0.34731501243E+00 -0.13711773739E+01  0.14262114122E+01  0.10566000000E+00 0.  1.
        -14    1    4    4    0    0 -0.52827561845E+01 -0.32007498044E+02 -0.80298206725E+02  0.86603634146E+02  0.00000000000E+00 0.  1.
<mgrwt>
<rscale>  0 0.80528542E+02</rscale>
<asrwt>0</asrwt>
<pdfrwt beam="1">  1        2 0.25919215E-01 0.80528542E+02</pdfrwt>
<pdfrwt beam="2">  1       -1 0.14804411E-02 0.80528542E+02</pdfrwt>
<totfact> 0.20447069E+05</totfact>
</mgrwt>
</event>
<event>
 8    1  0.1226832E-020  0.7958567E+02  0.7818608E-02  0.1330231E+00
         -1   -1    0    0    0  501 -0.00000000000E+00  0.00000000000E+00  0.10607733272E+02  0.10607734469E+02  0.50400000000E-02 0.  1.
          2   -1    0    0  501    0  0.00000000000E+00 -0.00000000000E+00 -0.14927500847E+03  0.14927500849E+03  0.25500000000E-02 0. -1.
         24    2    1    2    0    0  0.35527136788E-14 -0.88817841970E-15 -0.13866727520E+03  0.15988274296E+03  0.79585666334E+02 0.  0.
         66    2    3    3    0    0 -0.29842529399E+02  0.50453139957E+01 -0.12119986050E+03  0.12493773624E+03  0.19999995594E+01 0.  0.
        -13    1    3    3    0    0  0.29842529399E+02 -0.50453139957E+01 -0.17467414701E+02  0.34945006720E+02  0.10566000000E+00 0.  1.
         13    1    4    4    0    0 -0.21298942016E+02  0.34991174048E+01 -0.85152276241E+02  0.87845375898E+02  0.10566000000E+00 0. -1.
        -13    1    4    4    0    0 -0.67906240653E+01  0.14395102412E+01 -0.27184749465E+02  0.28057201080E+02  0.10566000000E+00 0.  1.
        -14    1    4    4    0    0 -0.17529633174E+01  0.10668634973E+00 -0.88628347934E+01  0.90351592651E+01  0.00000000000E+00 0.  1.
<mgrwt>
<rscale>  0 0.79585666E+02</rscale>
<asrwt>0</asrwt>
<pdfrwt beam="1">  1        2 0.22965384E-01 0.79585666E+02</pdfrwt>
<pdfrwt beam="2">  1       -1 0.16319592E-02 0.79585666E+02</pdfrwt>
<totfact> 0.20276199E+05</totfact>
</mgrwt>
</event>
<event>
 8    1  0.1226832E-020  0.8057375E+02  0.7818608E-02  0.1327431E+00
         -1   -1    0    0    0  501 -0.00000000000E+00  0.00000000000E+00  0.31066444452E+01  0.31066485335E+01  0.50400000000E-02 0.  1.
          2   -1    0    0  501    0  0.00000000000E+00 -0.00000000000E+00 -0.52243871894E+03  0.52243871894E+03  0.25500000000E-02 0. -1.
         24    2    1    2    0    0  0.00000000000E+00  0.00000000000E+00 -0.51933207449E+03  0.52554536748E+03  0.80573753049E+02 0.  0.
         66    2    3    3    0    0  0.37227227704E+02  0.29911819263E+00 -0.35982940236E+03  0.36175565615E+03  0.20000004878E+01 0.  0.
        -13    1    3    3    0    0 -0.37227227704E+02 -0.29911819263E+00 -0.15950267213E+03  0.16378971133E+03  0.10566000000E+00 0.  1.
         13    1    4    4    0    0  0.70689849074E+01 -0.13135007252E+00 -0.63802068763E+02  0.64192701633E+02  0.10566000000E+00 0. -1.
        -13    1    4    4    0    0  0.40264225754E+01  0.28680327800E+00 -0.43584224228E+02  0.43770881879E+02  0.10566000000E+00 0.  1.
         14    1    4    4    0    0  0.26131820221E+02  0.14366498715E+00 -0.25244310937E+03  0.25379207264E+03  0.00000000000E+00 0. -1.
<mgrwt>
<rscale>  0 0.80573753E+02</rscale>
<asrwt>0</asrwt>
<pdfrwt beam="1">  1        2 0.80375118E-01 0.80573753E+02</pdfrwt>
<pdfrwt beam="2">  1       -1 0.47794603E-03 0.80573753E+02</pdfrwt>
<totfact> 0.30305000E+05</totfact>
</mgrwt>
</event>
<event>
 8    1  0.1226832E-020  0.7882941E+02  0.7818608E-02  0.1332407E+00
         -1   -1    0    0    0  501 -0.00000000000E+00  0.00000000000E+00  0.87143368417E+01  0.87143382991E+01  0.50400000000E-02 0.  1.
          2   -1    0    0  501    0  0.00000000000E+00 -0.00000000000E+00 -0.17827158976E+03  0.17827158978E+03  0.25500000000E-02 0. -1.
         24    2    1    2    0    0  0.00000000000E+00  0.17763568394E-14 -0.16955725292E+03  0.18698592808E+03  0.78829406199E+02 0.  0.
         66    2    3    3    0    0  0.26831937187E+02  0.11557112493E+02 -0.14750115196E+03  0.15037988410E+03  0.20000022420E+01 0.  0.
        -13    1    3    3    0    0 -0.26831937187E+02 -0.11557112493E+02 -0.22056100957E+02  0.36606043979E+02  0.10566000000E+00 0.  1.
         13    1    4    4    0    0  0.13917520856E+01  0.35881565610E+00 -0.84927918500E+01  0.86141975822E+01  0.10566000000E+00 0. -1.
        -13    1    4    4    0    0  0.75984218275E+01  0.36793975231E+01 -0.39792138882E+02  0.40677997262E+02  0.10566000000E+00 0.  1.
         14    1    4    4    0    0  0.17841763274E+02  0.75188993141E+01 -0.99216221228E+02  0.10108768925E+03  0.00000000000E+00 0. -1.
<mgrwt>
<rscale>  0 0.78829406E+02</rscale>
<asrwt>0</asrwt>
<pdfrwt beam="1">  1        2 0.27426396E-01 0.78829406E+02</pdfrwt>
<pdfrwt beam="2">  1       -1 0.13406675E-02 0.78829406E+02</pdfrwt>
<totfact> 0.22047077E+05</totfact>
</mgrwt>
</event>
<event>
 8    1  0.1226832E-020  0.8769257E+02  0.7818608E-02  0.1308538E+00
          2   -1    0    0  501    0  0.00000000000E+00  0.00000000000E+00  0.22446494181E+02  0.22446494325E+02  0.25500000000E-02 0. -1.
         -1   -1    0    0    0  501 -0.00000000000E+00 -0.00000000000E+00 -0.85647962091E+02  0.85647962239E+02  0.50400000000E-02 0.  1.
         24    2    1    2    0    0 -0.27755575616E-16  0.00000000000E+00 -0.63201467910E+02  0.10809445656E+03  0.87692565215E+02 0.  0.
         66    2    3    3    0    0  0.84552744304E-01 -0.30640807512E+02  0.70029838257E+01  0.31494571175E+02  0.19999992099E+01 0.  0.
        -13    1    3    3    0    0 -0.84552744304E-01  0.30640807512E+02 -0.70204451736E+02  0.76599885390E+02  0.10566000000E+00 0.  1.
         13    1    4    4    0    0 -0.24998209503E+00 -0.41882681579E+01  0.74541428221E+00  0.42627324216E+01  0.10566000000E+00 0. -1.
        -13    1    4    4    0    0  0.12753849267E-01 -0.67409049923E+01  0.89233094127E+00  0.68005427225E+01  0.10566000000E+00 0.  1.
         14    1    4    4    0    0  0.32178099007E+00 -0.19711634362E+02  0.53652386023E+01  0.20431296031E+02  0.00000000000E+00 0. -1.
<mgrwt>
<rscale>  0 0.87692565E+02</rscale>
<asrwt>0</asrwt>
<pdfrwt beam="1">  1        2 0.34533069E-02 0.87692565E+02</pdfrwt>
<pdfrwt beam="2">  1       -1 0.13176609E-01 0.87692565E+02</pdfrwt>
<totfact> 0.97572060E+04</totfact>
</mgrwt>
</event>
<event>
 8    1  0.1226832E-020  0.8095775E+02  0.7818608E-02  0.1326355E+00
          2   -1    0    0  501    0  0.00000000000E+00  0.00000000000E+00  0.41444703138E+03  0.41444703138E+03  0.25500000000E-02 0. -1.
         -1   -1    0    0    0  501 -0.00000000000E+00 -0.00000000000E+00 -0.39535542928E+01  0.39535575053E+01  0.50400000000E-02 0.  1.
         24    2    1    2    0    0  0.00000000000E+00 -0.71054273576E-14  0.41049347708E+03  0.41840058889E+03  0.80957754755E+02 0.  0.
         66    2    3    3    0    0  0.10824117030E+02  0.30959679717E+02  0.32776714351E+03  0.32941002361E+03  0.20000035790E+01 0.  0.
        -13    1    3    3    0    0 -0.10824117030E+02 -0.30959679717E+02  0.82726333571E+02  0.88990565274E+02  0.10566000000E+00 0.  1.
         13    1    4    4    0    0  0.66788594002E+01  0.19895128694E+02  0.20607650762E+03  0.20714237004E+03  0.10566000000E+00 0. -1.
        -13    1    4    4    0    0  0.99910907422E+00  0.29594236081E+01  0.27699913075E+02  0.27875666009E+02  0.10566000000E+00 0.  1.
        -14    1    4    4    0    0  0.31461485560E+01  0.81051274146E+01  0.93990722816E+02  0.94391987566E+02  0.00000000000E+00 0.  1.
<mgrwt>
<rscale>  0 0.80957755E+02</rscale>
<asrwt>0</asrwt>
<pdfrwt beam="1">  1        2 0.63761058E-01 0.80957755E+02</pdfrwt>
<pdfrwt beam="2">  1       -1 0.60823960E-03 0.80957755E+02</pdfrwt>
<totfact> 0.27728658E+05</totfact>
</mgrwt>
</event>
<event>
 8    1  0.1226832E-020  0.7760835E+02  0.7818608E-02  0.1335979E+00
          2   -1    0    0  501    0  0.00000000000E+00  0.00000000000E+00  0.53240263353E+03  0.53240263354E+03  0.25500000000E-02 0. -1.
         -1   -1    0    0    0  501 -0.00000000000E+00 -0.00000000000E+00 -0.28282409592E+01  0.28282454499E+01  0.50400000000E-02 0.  1.
         24    2    1    2    0    0  0.88817841970E-15 -0.88817841970E-15  0.52957439257E+03  0.53523087899E+03  0.77608353632E+02 0.  0.
         66    2    3    3    0    0 -0.76022350436E+01  0.76661824705E+01  0.52182548335E+03  0.52194099225E+03  0.19999964547E+01 0.  0.
        -13    1    3    3    0    0  0.76022350436E+01 -0.76661824705E+01  0.77489092219E+01  0.13289886737E+02  0.10566000000E+00 0.  1.
         13    1    4    4    0    0 -0.37075484274E+01  0.28433875023E+01  0.20707806434E+03  0.20713079602E+03  0.10566000000E+00 0. -1.
        -13    1    4    4    0    0 -0.18926405628E+01  0.21012733529E+01  0.11916955216E+03  0.11920314914E+03  0.10566000000E+00 0.  1.
         14    1    4    4    0    0 -0.20020460533E+01  0.27215216153E+01  0.19557786685E+03  0.19560704709E+03  0.00000000000E+00 0. -1.
<mgrwt>
<rscale>  0 0.77608354E+02</rscale>
<asrwt>0</asrwt>
<pdfrwt beam="1">  1        2 0.81908093E-01 0.77608354E+02</pdfrwt>
<pdfrwt beam="2">  1       -1 0.43511436E-03 0.77608354E+02</pdfrwt>
<totfact> 0.33605825E+05</totfact>
</mgrwt>
</event>
<event>
 8    1  0.1226832E-020  0.7954619E+02  0.7818608E-02  0.1330344E+00
         -1   -1    0    0    0  501 -0.00000000000E+00  0.00000000000E+00  0.42292962164E+02  0.42292962464E+02  0.50400000000E-02 0.  1.
          2   -1    0    0  501    0  0.00000000000E+00 -0.00000000000E+00 -0.37403360546E+02  0.37403360633E+02  0.25500000000E-02 0. -1.
         24    2    1    2    0    0  0.00000000000E+00  0.00000000000E+00  0.48896016179E+01  0.79696323097E+02  0.79546186026E+02 0.  0.
         66    2    3    3    0    0 -0.20825248381E+02  0.20010664724E+02 -0.24914107068E+02  0.38194637730E+02  0.19999868701E+01 0.  0.
        -13    1    3    3    0    0  0.20825248381E+02 -0.20010664724E+02  0.29803708686E+02  0.41501685367E+02  0.10566000000E+00 0.  1.
         13    1    4    4    0    0 -0.10122375120E+02  0.95910601003E+01 -0.11809994063E+02  0.18273971536E+02  0.10566000000E+00 0. -1.
        -13    1    4    4    0    0 -0.85987042761E+01  0.85834616888E+01 -0.99198620177E+01  0.15685291080E+02  0.10566000000E+00 0.  1.
        -14    1    4    4    0    0 -0.21041689854E+01  0.18361429348E+01 -0.31842509882E+01  0.42353751135E+01  0.00000000000E+00 0.  1.
<mgrwt>
<rscale>  0 0.79546186E+02</rscale>
<asrwt>0</asrwt>
<pdfrwt beam="1">  1        2 0.57543632E-02 0.79546186E+02</pdfrwt>
<pdfrwt beam="2">  1       -1 0.65066096E-02 0.79546186E+02</pdfrwt>
<totfact> 0.14284646E+05</totfact>
</mgrwt>
</event>
<event>
 8    1  0.1226832E-020  0.7841119E+02  0.7818608E-02  0.1333622E+00
          2   -1    0    0  501    0  0.00000000000E+00  0.00000000000E+00  0.24559304731E+03  0.24559304732E+03  0.25500000000E-02 0. -1.
         -1   -1    0    0    0  501 -0.00000000000E+00 -0.00000000000E+00 -0.62586403832E+01  0.62586424125E+01  0.50400000000E-02 0.  1.
         24    2    1    2    0    0  0.00000000000E+00 -0.11102230246E-15  0.23933440693E+03  0.25185168974E+03  0.78411193613E+02 0.  0.
         66    2    3    3    0    0 -0.13402143431E+02 -0.50982275163E+00  0.23798579859E+03  0.23837180560E+03  0.20000022104E+01 0.  0.
        -13    1    3    3    0    0  0.13402143431E+02  0.50982275163E+00  0.13486083401E+01  0.13479884135E+02  0.10566000000E+00 0.  1.
         13    1    4    4    0    0 -0.68441931757E+01  0.46149362199E+00  0.12283102799E+03  0.12302247176E+03  0.10566000000E+00 0. -1.
        -13    1    4    4    0    0 -0.57137479711E+01 -0.89138601713E+00  0.94183173103E+02  0.94360599535E+02  0.10566000000E+00 0.  1.
        -14    1    4    4    0    0 -0.84420228454E+00 -0.79930356487E-01  0.20971597499E+02  0.20988734312E+02  0.00000000000E+00 0.  1.
<mgrwt>
<rscale>  0 0.78411194E+02</rscale>
<asrwt>0</asrwt>
<pdfrwt beam="1">  1        2 0.37783546E-01 0.78411194E+02</pdfrwt>
<pdfrwt beam="2">  1       -1 0.96286789E-03 0.78411194E+02</pdfrwt>
<totfact> 0.25000280E+05</totfact>
</mgrwt>
</event>
<event>
 8    1  0.1249602E-020  0.7886188E+02  0.7818608E-02  0.1332313E+00
          2   -1    0    0  501    0  0.00000000000E+00  0.00000000000E+00  0.20873825319E+03  0.20873825321E+03  0.25500000000E-02 0. -1.
         -1   -1    0    0    0  501 -0.00000000000E+00 -0.00000000000E+00 -0.74485581688E+01  0.74485598740E+01  0.50400000000E-02 0.  1.
         24    2    1    2    0    0 -0.71054273576E-14  0.00000000000E+00  0.20128969502E+03  0.21618681308E+03  0.78861884506E+02 0.  0.
         66    2    3    3    0    0  0.35208126189E+02 -0.91705736237E+01  0.14220080841E+03  0.14679503219E+03  0.19999980404E+01 0.  0.
        -13    1    3    3    0    0 -0.35208126189E+02  0.91705736237E+01  0.59088886608E+02  0.69391780889E+02  0.10566000000E+00 0.  1.
         13    1    4    4    0    0  0.17187495267E+02 -0.44446127270E+01  0.70220146422E+02  0.72429584448E+02  0.10566000000E+00 0. -1.
        -13    1    4    4    0    0  0.17812773802E+02 -0.47558152507E+01  0.70543488211E+02  0.72913013805E+02  0.10566000000E+00 0.  1.
        -14    1    4    4    0    0  0.20785712013E+00  0.29854354004E-01  0.14371737800E+01  0.14524339361E+01  0.00000000000E+00 0.  1.
<mgrwt>
<rscale>  0 0.78861885E+02</rscale>
<asrwt>0</asrwt>
<pdfrwt beam="1">  1        2 0.32113577E-01 0.78861885E+02</pdfrwt>
<pdfrwt beam="2">  1       -1 0.11459322E-02 0.78861885E+02</pdfrwt>
<totfact> 0.23251329E+05</totfact>
</mgrwt>
</event>
<event>
 8    1  0.1226832E-020  0.8081417E+02  0.7818608E-02  0.1326757E+00
          2   -1    0    0  501    0  0.00000000000E+00  0.00000000000E+00  0.55855196273E+03  0.55855196274E+03  0.25500000000E-02 0. -1.
         -1   -1    0    0    0  501 -0.00000000000E+00 -0.00000000000E+00 -0.29231505409E+01  0.29231548858E+01  0.50400000000E-02 0.  1.
         24    2    1    2    0    0  0.71054273576E-14  0.00000000000E+00  0.55562881219E+03  0.56147511763E+03  0.80814174336E+02 0.  0.
         66    2    3    3    0    0  0.35218362960E+02 -0.16201541436E+02  0.35655941304E+03  0.35866619307E+03  0.19999981032E+01 0.  0.
        -13    1    3    3    0    0 -0.35218362960E+02  0.16201541436E+02  0.19906939916E+03  0.20280892456E+03  0.10566000000E+00 0.  1.
         13    1    4    4    0    0  0.24945760864E+02 -0.11135430020E+02  0.25041645085E+03  0.25190216118E+03  0.10566000000E+00 0. -1.
        -13    1    4    4    0    0  0.55491384194E+01 -0.26566297239E+01  0.52360739235E+02  0.52721046993E+02  0.10566000000E+00 0.  1.
        -14    1    4    4    0    0  0.47234636768E+01 -0.24094816923E+01  0.53782222953E+02  0.54042984900E+02  0.00000000000E+00 0.  1.
<mgrwt>
<rscale>  0 0.80814174E+02</rscale>
<asrwt>0</asrwt>
<pdfrwt beam="1">  1        2 0.85931004E-01 0.80814174E+02</pdfrwt>
<pdfrwt beam="2">  1       -1 0.44971615E-03 0.80814174E+02</pdfrwt>
<totfact> 0.30687647E+05</totfact>
</mgrwt>
</event>
<event>
 8    1  0.1226832E-020  0.7961391E+02  0.7818608E-02  0.1330151E+00
          2   -1    0    0  501    0  0.00000000000E+00  0.00000000000E+00  0.46347322633E+03  0.46347322633E+03  0.25500000000E-02 0. -1.
         -1   -1    0    0    0  501 -0.00000000000E+00 -0.00000000000E+00 -0.34189518573E+01  0.34189555721E+01  0.50400000000E-02 0.  1.
         24    2    1    2    0    0 -0.17763568394E-14  0.00000000000E+00  0.46005427447E+03  0.46689218191E+03  0.79613906243E+02 0.  0.
         66    2    3    3    0    0 -0.11756663506E+02 -0.73701653061E+01  0.44881858003E+03  0.44903747756E+03  0.20000018937E+01 0.  0.
        -13    1    3    3    0    0  0.11756663506E+02  0.73701653061E+01  0.11235694442E+02  0.17854704340E+02  0.10566000000E+00 0.  1.
         13    1    4    4    0    0 -0.29197823649E+01 -0.23854112842E+01  0.12373264662E+03  0.12379012206E+03  0.10566000000E+00 0. -1.
        -13    1    4    4    0    0 -0.76116364904E+01 -0.43414163282E+01  0.29410443462E+03  0.29423496484E+03  0.10566000000E+00 0.  1.
        -14    1    4    4    0    0 -0.12252446509E+01 -0.64333769367E+00  0.30981498783E+02  0.31012390664E+02  0.00000000000E+00 0.  1.
<mgrwt>
<rscale>  0 0.79613906E+02</rscale>
<asrwt>0</asrwt>
<pdfrwt beam="1">  1        2 0.71303596E-01 0.79613906E+02</pdfrwt>
<pdfrwt beam="2">  1       -1 0.52599272E-03 0.79613906E+02</pdfrwt>
<totfact> 0.30086522E+05</totfact>
</mgrwt>
</event>
<event>
 8    1  0.1226832E-020  0.8053765E+02  0.7818608E-02  0.1327533E+00
         -1   -1    0    0    0  501 -0.00000000000E+00  0.00000000000E+00  0.80043493099E+01  0.80043508966E+01  0.50400000000E-02 0.  1.
          2   -1    0    0  501    0  0.00000000000E+00 -0.00000000000E+00 -0.20258711404E+03  0.20258711406E+03  0.25500000000E-02 0. -1.
         24    2    1    2    0    0  0.00000000000E+00  0.35527136788E-14 -0.19458276473E+03  0.21059146495E+03  0.80537648221E+02 0.  0.
         66    2    3    3    0    0 -0.11336643825E+02 -0.26701479730E+02 -0.17028945016E+03  0.17275411819E+03  0.20000010404E+01 0.  0.
        -13    1    3    3    0    0  0.11336643825E+02  0.26701479730E+02 -0.24293314574E+02  0.37837346762E+02  0.10566000000E+00 0.  1.
         13    1    4    4    0    0 -0.83840956430E+01 -0.19447538715E+02 -0.12817730601E+03  0.12991509828E+03  0.10566000000E+00 0. -1.
        -13    1    4    4    0    0 -0.43199179214E+00 -0.16987190366E+01 -0.97974397631E+01  0.99535548032E+01  0.10566000000E+00 0.  1.
        -14    1    4    4    0    0 -0.25205563894E+01 -0.55552219791E+01 -0.32314704387E+02  0.32885465108E+02  0.00000000000E+00 0.  1.
<mgrwt>
<rscale>  0 0.80537648E+02</rscale>
<asrwt>0</asrwt>
<pdfrwt beam="1">  1        2 0.31167244E-01 0.80537648E+02</pdfrwt>
<pdfrwt beam="2">  1       -1 0.12314386E-02 0.80537648E+02</pdfrwt>
<totfact> 0.21769134E+05</totfact>
</mgrwt>
</event>
<event>
 8    1  0.1226832E-020  0.8073986E+02  0.7818608E-02  0.1326965E+00
         -1   -1    0    0    0  501 -0.00000000000E+00  0.00000000000E+00  0.50939133212E+02  0.50939133461E+02  0.50400000000E-02 0.  1.
          2   -1    0    0  501    0  0.00000000000E+00 -0.00000000000E+00 -0.31993697648E+02  0.31993697750E+02  0.25500000000E-02 0. -1.
         24    2    1    2    0    0  0.00000000000E+00  0.00000000000E+00  0.18945435564E+02  0.82932831211E+02  0.80739859821E+02 0.  0.
         66    2    3    3    0    0  0.13423241881E+02 -0.17835225425E+02 -0.25041545672E+02  0.33605917960E+02  0.20000059397E+01 0.  0.
        -13    1    3    3    0    0 -0.13423241881E+02  0.17835225425E+02  0.43986981235E+02  0.49326913251E+02  0.10566000000E+00 0.  1.
         13    1    4    4    0    0  0.27124898302E+01 -0.31306726715E+01 -0.41094765503E+01  0.58358953047E+01  0.10566000000E+00 0. -1.
        -13    1    4    4    0    0  0.49051351185E+00 -0.31081444796E+00 -0.80456704941E+00  0.99784833465E+00  0.10566000000E+00 0.  1.
         14    1    4    4    0    0  0.10220238539E+02 -0.14393738306E+02 -0.20127502072E+02  0.26772174321E+02  0.00000000000E+00 0. -1.
<mgrwt>
<rscale>  0 0.80739860E+02</rscale>
<asrwt>0</asrwt>
<pdfrwt beam="1">  1        2 0.49221073E-02 0.80739860E+02</pdfrwt>
<pdfrwt beam="2">  1       -1 0.78367898E-02 0.80739860E+02</pdfrwt>
<totfact> 0.13281367E+05</totfact>
</mgrwt>
</event>
<event>
 8    1  0.1226832E-020  0.7764709E+02  0.7818608E-02  0.1335864E+00
         -1   -1    0    0    0  501 -0.00000000000E+00  0.00000000000E+00  0.53052731232E+02  0.53052731472E+02  0.50400000000E-02 0.  1.
          2   -1    0    0  501    0  0.00000000000E+00 -0.00000000000E+00 -0.28410747971E+02  0.28410748086E+02  0.25500000000E-02 0. -1.
         24    2    1    2    0    0  0.35527136788E-14  0.00000000000E+00  0.24641983261E+02  0.81463479557E+02  0.77647093716E+02 0.  0.
         66    2    3    3    0    0  0.16819506669E+02  0.19827495677E+02 -0.17882699623E+02  0.31619872065E+02  0.19999935451E+01 0.  0.
        -13    1    3    3    0    0 -0.16819506669E+02 -0.19827495677E+02  0.42524682884E+02  0.49843607492E+02  0.10566000000E+00 0.  1.
         13    1    4    4    0    0  0.98234156735E+01  0.11268214884E+02 -0.10972389006E+02  0.18543911311E+02  0.10566000000E+00 0. -1.
        -13    1    4    4    0    0  0.44151758001E+01  0.60945219332E+01 -0.48796132322E+01  0.89698809508E+01  0.10566000000E+00 0.  1.
        -14    1    4    4    0    0  0.25809151954E+01  0.24647588594E+01 -0.20306973854E+01  0.41060798034E+01  0.00000000000E+00 0.  1.
<mgrwt>
<rscale>  0 0.77647094E+02</rscale>
<asrwt>0</asrwt>
<pdfrwt beam="1">  1        2 0.43708843E-02 0.77647094E+02</pdfrwt>
<pdfrwt beam="2">  1       -1 0.81619587E-02 0.77647094E+02</pdfrwt>
<totfact> 0.14473740E+05</totfact>
</mgrwt>
</event>
<event>
 8    1  0.1226832E-020  0.8040169E+02  0.7818608E-02  0.1327915E+00
          2   -1    0    0  501    0  0.00000000000E+00  0.00000000000E+00  0.19313302880E+02  0.19313303049E+02  0.25500000000E-02 0. -1.
         -1   -1    0    0    0  501 -0.00000000000E+00 -0.00000000000E+00 -0.83678492377E+02  0.83678492529E+02  0.50400000000E-02 0.  1.
         24    2    1    2    0    0  0.17763568394E-14  0.71054273576E-14 -0.64365189497E+02  0.10299179558E+03  0.80401693622E+02 0.  0.
         66    2    3    3    0    0 -0.86081486395E+01 -0.36543541720E+02 -0.13880953431E+02  0.40077568890E+02  0.19999988898E+01 0.  0.
        -13    1    3    3    0    0  0.86081486395E+01  0.36543541720E+02 -0.50484236066E+02  0.62914226687E+02  0.10566000000E+00 0.  1.
         13    1    4    4    0    0 -0.19527044483E+01 -0.90398422501E+01 -0.37441654482E+01  0.99780630139E+01  0.10566000000E+00 0. -1.
        -13    1    4    4    0    0 -0.39317502275E+01 -0.19065281556E+02 -0.72819996044E+01  0.20784183961E+02  0.10566000000E+00 0.  1.
         14    1    4    4    0    0 -0.27236939637E+01 -0.84384179141E+01 -0.28547883780E+01  0.93153219152E+01  0.00000000000E+00 0. -1.
<mgrwt>
<rscale>  0 0.80401694E+02</rscale>
<asrwt>0</asrwt>
<pdfrwt beam="1">  1        2 0.29712774E-02 0.80401694E+02</pdfrwt>
<pdfrwt beam="2">  1       -1 0.12873614E-01 0.80401694E+02</pdfrwt>
<totfact> 0.12151387E+05</totfact>
</mgrwt>
</event>
<event>
 8    1  0.1226832E-020  0.8001383E+02  0.7818608E-02  0.1329012E+00
          2   -1    0    0  501    0  0.00000000000E+00  0.00000000000E+00  0.94452893317E+03  0.94452893317E+03  0.25500000000E-02 0. -1.
         -1   -1    0    0    0  501 -0.00000000000E+00 -0.00000000000E+00 -0.16945480273E+01  0.16945555224E+01  0.50400000000E-02 0.  1.
         24    2    1    2    0    0  0.00000000000E+00  0.00000000000E+00  0.94283438514E+03  0.94622348869E+03  0.80013828507E+02 0.  0.
         66    2    3    3    0    0 -0.11867518424E+02 -0.19477660546E+02  0.86004427612E+03  0.86034898392E+03  0.19999993541E+01 0.  0.
        -13    1    3    3    0    0  0.11867518424E+02  0.19477660546E+02  0.82790109024E+02  0.85874504774E+02  0.10566000000E+00 0.  1.
         13    1    4    4    0    0 -0.82883516682E+01 -0.14601033697E+02  0.62598936327E+03  0.62621448486E+03  0.10566000000E+00 0. -1.
        -13    1    4    4    0    0 -0.77031891449E-01 -0.48281440386E-01  0.55554624500E+01  0.55572108182E+01  0.10566000000E+00 0.  1.
         14    1    4    4    0    0 -0.35021348643E+01 -0.48283454093E+01  0.22849945039E+03  0.22857728824E+03  0.00000000000E+00 0. -1.
<mgrwt>
<rscale>  0 0.80013829E+02</rscale>
<asrwt>0</asrwt>
<pdfrwt beam="1">  1        2 0.14531261E+00 0.80013829E+02</pdfrwt>
<pdfrwt beam="2">  1       -1 0.26069944E-03 0.80013829E+02</pdfrwt>
<totfact> 0.35092169E+05</totfact>
</mgrwt>
</event>
<event>
 8    1  0.1226832E-020  0.8127297E+02  0.7818608E-02  0.1325477E+00
          2   -1    0    0  501    0  0.00000000000E+00  0.00000000000E+00  0.10690309756E+03  0.10690309759E+03  0.25500000000E-02 0. -1.
         -1   -1    0    0    0  501 -0.00000000000E+00 -0.00000000000E+00 -0.15446922566E+02  0.15446923388E+02  0.50400000000E-02 0.  1.
         24    2    1    2    0    0 -0.88817841970E-15  0.35527136788E-14  0.91456174995E+02  0.12235002098E+03  0.81272970224E+02 0.  0.
         66    2    3    3    0    0 -0.53597533605E+01  0.17567668826E+02  0.10028371880E+03  0.10197143816E+03  0.20000001217E+01 0.  0.
        -13    1    3    3    0    0  0.53597533605E+01 -0.17567668826E+02 -0.88275438033E+01  0.20378582819E+02  0.10566000000E+00 0.  1.
         13    1    4    4    0    0 -0.25251985102E+01  0.59853149120E+01  0.33805691798E+02  0.34424360329E+02  0.10566000000E+00 0. -1.
        -13    1    4    4    0    0 -0.20824470029E+01  0.64189001192E+01  0.38230751093E+02  0.38821905639E+02  0.10566000000E+00 0.  1.
        -14    1    4    4    0    0 -0.75210784743E+00  0.51634537953E+01  0.28247275907E+02  0.28725172192E+02  0.00000000000E+00 0.  1.
<mgrwt>
<rscale>  0 0.81272970E+02</rscale>
<asrwt>0</asrwt>
<pdfrwt beam="1">  1        2 0.16446630E-01 0.81272970E+02</pdfrwt>
<pdfrwt beam="2">  1       -1 0.23764497E-02 0.81272970E+02</pdfrwt>
<totfact> 0.17316912E+05</totfact>
</mgrwt>
</event>
<event>
 8    1  0.1226832E-020  0.7908198E+02  0.7818608E-02  0.1331677E+00
          2   -1    0    0  501    0  0.00000000000E+00  0.00000000000E+00  0.63719366728E+03  0.63719366728E+03  0.25500000000E-02 0. -1.
         -1   -1    0    0    0  501 -0.00000000000E+00 -0.00000000000E+00 -0.24537099115E+01  0.24537150876E+01  0.50400000000E-02 0.  1.
         24    2    1    2    0    0  0.35527136788E-14 -0.88817841970E-15  0.63473995736E+03  0.63964738237E+03  0.79081984649E+02 0.  0.
         66    2    3    3    0    0 -0.19745517129E+02  0.47763299127E+01  0.59171889740E+03  0.59207090143E+03  0.20000010631E+01 0.  0.
        -13    1    3    3    0    0  0.19745517129E+02 -0.47763299127E+01  0.43021059964E+02  0.47576480940E+02  0.10566000000E+00 0.  1.
         13    1    4    4    0    0 -0.12989255294E+02  0.30574272992E+01  0.39367070438E+03  0.39389681804E+03  0.10566000000E+00 0. -1.
        -13    1    4    4    0    0 -0.17079322107E+01 -0.17176187364E-01  0.53382544190E+02  0.53409966445E+02  0.10566000000E+00 0.  1.
        -14    1    4    4    0    0 -0.50483296241E+01  0.17360788009E+01  0.14466564883E+03  0.14476411694E+03  0.00000000000E+00 0.  1.
<mgrwt>
<rscale>  0 0.79081985E+02</rscale>
<asrwt>0</asrwt>
<pdfrwt beam="1">  1        2 0.98029677E-01 0.79081985E+02</pdfrwt>
<pdfrwt beam="2">  1       -1 0.37749469E-03 0.79081985E+02</pdfrwt>
<totfact> 0.33685021E+05</totfact>
</mgrwt>
</event>
<event>
 8    1  0.1226832E-020  0.7873893E+02  0.7818608E-02  0.1332669E+00
          2   -1    0    0  501    0  0.00000000000E+00  0.00000000000E+00  0.37985957250E+03  0.37985957251E+03  0.25500000000E-02 0. -1.
         -1   -1    0    0    0  501 -0.00000000000E+00 -0.00000000000E+00 -0.40803350834E+01  0.40803381960E+01  0.50400000000E-02 0.  1.
         24    2    1    2    0    0  0.00000000000E+00  0.00000000000E+00  0.37577923742E+03  0.38393991070E+03  0.78738934197E+02 0.  0.
         66    2    3    3    0    0  0.38228751878E+02 -0.83238750548E+01  0.20824821264E+03  0.21190102036E+03  0.19999983783E+01 0.  0.
        -13    1    3    3    0    0 -0.38228751878E+02  0.83238750548E+01  0.16753102477E+03  0.17203889035E+03  0.10566000000E+00 0.  1.
         13    1    4    4    0    0  0.22883974378E+02 -0.49726649257E+01  0.12111049999E+03  0.12335383274E+03  0.10566000000E+00 0. -1.
        -13    1    4    4    0    0  0.96511113832E+01 -0.17057751486E+01  0.55670441120E+02  0.56526655644E+02  0.10566000000E+00 0.  1.
        -14    1    4    4    0    0  0.56936661173E+01 -0.16454349805E+01  0.31467271536E+02  0.32020531976E+02  0.00000000000E+00 0.  1.
<mgrwt>
<rscale>  0 0.78738934E+02</rscale>
<asrwt>0</asrwt>
<pdfrwt beam="1">  1        2 0.58439956E-01 0.78738934E+02</pdfrwt>
<pdfrwt beam="2">  1       -1 0.62774387E-03 0.78738934E+02</pdfrwt>
<totfact> 0.28920235E+05</totfact>
</mgrwt>
</event>
<event>
 8    1  0.1512735E-020  0.8026584E+02  0.7818608E-02  0.1328299E+00
          2   -1    0    0  501    0  0.00000000000E+00  0.00000000000E+00  0.32424602363E+03  0.32424602364E+03  0.25500000000E-02 0. -1.
         -1   -1    0    0    0  501 -0.00000000000E+00 -0.00000000000E+00 -0.49673730959E+01  0.49673756528E+01  0.50400000000E-02 0.  1.
         24    2    1    2    0    0  0.00000000000E+00  0.11102230246E-15  0.31927865053E+03  0.32921339929E+03  0.80265843215E+02 0.  0.
         66    2    3    3    0    0  0.32256714704E+02 -0.67704763144E+00  0.25746262119E+03  0.25948401750E+03  0.19999979162E+01 0.  0.
        -13    1    3    3    0    0 -0.32256714704E+02  0.67704763144E+00  0.61816029336E+02  0.69729381784E+02  0.10566000000E+00 0.  1.
         13    1    4    4    0    0  0.13185070568E+02 -0.61187419653E+00  0.10845804860E+03  0.10925831751E+03  0.10566000000E+00 0. -1.
        -13    1    4    4    0    0  0.12199572362E+02 -0.53194493726E+00  0.92295522991E+02  0.93099877870E+02  0.10566000000E+00 0.  1.
        -14    1    4    4    0    0  0.68720717739E+01  0.46677150235E+00  0.56709049603E+02  0.57125822121E+02  0.00000000000E+00 0.  1.
<mgrwt>
<rscale>  0 0.80265843E+02</rscale>
<asrwt>0</asrwt>
<pdfrwt beam="1">  1        2 0.49884023E-01 0.80265843E+02</pdfrwt>
<pdfrwt beam="2">  1       -1 0.76421115E-03 0.80265843E+02</pdfrwt>
<totfact> 0.25993680E+05</totfact>
</mgrwt>
</event>
<event>
 8    1  0.1226832E-020  0.7970041E+02  0.7818608E-02  0.1329904E+00
         -1   -1    0    0    0  501 -0.00000000000E+00  0.00000000000E+00  0.20178011697E+01  0.20178074641E+01  0.50400000000E-02 0.  1.
          2   -1    0    0  501    0  0.00000000000E+00 -0.00000000000E+00 -0.78701337579E+03  0.78701337579E+03  0.25500000000E-02 0. -1.
         24    2    1    2    0    0  0.00000000000E+00  0.00000000000E+00 -0.78499557462E+03  0.78903118325E+03  0.79700413929E+02 0.  0.
         66    2    3    3    0    0 -0.87423611254E+01 -0.23008954266E+02 -0.70269267831E+03  0.70312647582E+03  0.19999994594E+01 0.  0.
        -13    1    3    3    0    0  0.87423611254E+01  0.23008954266E+02 -0.82302896304E+02  0.85904707429E+02  0.10566000000E+00 0.  1.
         13    1    4    4    0    0 -0.39732667818E+00 -0.25499622075E+01 -0.78533593227E+02  0.78576056180E+02  0.10566000000E+00 0. -1.
        -13    1    4    4    0    0 -0.22591490911E+01 -0.62353616183E+01 -0.18351517308E+03  0.18363500049E+03  0.10566000000E+00 0. -1.
         14    1    4    4    0    0 -0.60858853562E+01 -0.14223630440E+02 -0.44064391200E+03  0.44091541915E+03  0.00000000000E+00 0. -1.
<mgrwt>
<rscale>  0 0.79700414E+02</rscale>
<asrwt>0</asrwt>
<pdfrwt beam="1">  1        2 0.12107874E+00 0.79700414E+02</pdfrwt>
<pdfrwt beam="2">  1       -1 0.31043206E-03 0.79700414E+02</pdfrwt>
<totfact> 0.34602185E+05</totfact>
</mgrwt>
</event>
<event>
 8    1  0.1226832E-020  0.7939703E+02  0.7818608E-02  0.1330771E+00
          2   -1    0    0  501    0  0.00000000000E+00  0.00000000000E+00  0.87112202444E+03  0.87112202445E+03  0.25500000000E-02 0. -1.
         -1   -1    0    0    0  501 -0.00000000000E+00 -0.00000000000E+00 -0.18091255542E+01  0.18091325745E+01  0.50400000000E-02 0.  1.
         24    2    1    2    0    0  0.00000000000E+00  0.00000000000E+00  0.86931289889E+03  0.87293115702E+03  0.79397032211E+02 0.  0.
         66    2    3    3    0    0  0.21477813311E+02 -0.52250016335E+01  0.79714500195E+03  0.79745391794E+03  0.19999994751E+01 0.  0.
        -13    1    3    3    0    0 -0.21477813311E+02  0.52250016335E+01  0.72167896943E+02  0.75477239085E+02  0.10566000000E+00 0.  1.
         13    1    4    4    0    0  0.13203014189E+02 -0.24263036346E+01  0.47886308615E+03  0.47905122166E+03  0.10566000000E+00 0. -1.
        -13    1    4    4    0    0  0.15711976102E+01 -0.36566527178E+00  0.67880461115E+02  0.67899709412E+02  0.10566000000E+00 0.  1.
        -14    1    4    4    0    0  0.67036015123E+01 -0.24330327271E+01  0.25040145468E+03  0.25050298687E+03  0.00000000000E+00 0.  1.
<mgrwt>
<rscale>  0 0.79397032E+02</rscale>
<asrwt>0</asrwt>
<pdfrwt beam="1">  1        2 0.13401895E+00 0.79397032E+02</pdfrwt>
<pdfrwt beam="2">  1       -1 0.27832718E-03 0.79397032E+02</pdfrwt>
<totfact> 0.35501169E+05</totfact>
</mgrwt>
</event>
<event>
 8    1  0.1226832E-020  0.7954748E+02  0.7818608E-02  0.1330341E+00
          2   -1    0    0  501    0  0.00000000000E+00  0.00000000000E+00  0.60326530204E+01  0.60326535593E+01  0.25500000000E-02 0. -1.
         -1   -1    0    0    0  501 -0.00000000000E+00 -0.00000000000E+00 -0.26223128113E+03  0.26223128117E+03  0.50400000000E-02 0.  1.
         24    2    1    2    0    0 -0.71054273576E-14  0.22204460493E-15 -0.25619862811E+03  0.26826393473E+03  0.79547480385E+02 0.  0.
         66    2    3    3    0    0 -0.37037472424E+02  0.52632916935E+00 -0.17680475942E+03  0.18065429523E+03  0.20000108901E+01 0.  0.
        -13    1    3    3    0    0  0.37037472424E+02 -0.52632916935E+00 -0.79393868683E+02  0.87609639506E+02  0.10566000000E+00 0.  1.
         13    1    4    4    0    0 -0.12192683983E+02  0.20391731257E+00 -0.60179280525E+02  0.61402443710E+02  0.10566000000E+00 0. -1.
        -13    1    4    4    0    0 -0.43216866507E+01 -0.22678149330E+00 -0.18164332270E+02  0.18673043036E+02  0.10566000000E+00 0.  1.
        -14    1    4    4    0    0 -0.20523101790E+02  0.54919335008E+00 -0.98461146628E+02  0.10057880848E+03  0.00000000000E+00 0.  1.
<mgrwt>
<rscale>  0 0.79547480E+02</rscale>
<asrwt>0</asrwt>
<pdfrwt beam="1">  1        2 0.92810071E-03 0.79547480E+02</pdfrwt>
<pdfrwt beam="2">  1       -1 0.40343265E-01 0.79547480E+02</pdfrwt>
<totfact> 0.92362710E+04</totfact>
</mgrwt>
</event>
<event>
 8    1  0.1226832E-020  0.8057328E+02  0.7818608E-02  0.1327432E+00
          2   -1    0    0  501    0  0.00000000000E+00  0.00000000000E+00  0.23690535341E+02  0.23690535478E+02  0.25500000000E-02 0. -1.
         -1   -1    0    0    0  501 -0.00000000000E+00 -0.00000000000E+00 -0.68508938005E+02  0.68508938190E+02  0.50400000000E-02 0.  1.
         24    2    1    2    0    0  0.00000000000E+00  0.00000000000E+00 -0.44818402664E+02  0.92199473668E+02  0.80573281721E+02 0.  0.
         66    2    3    3    0    0 -0.11523390482E+02 -0.17901885474E+02  0.16680105986E+02  0.27119954909E+02  0.19999967100E+01 0.  0.
        -13    1    3    3    0    0  0.11523390482E+02  0.17901885474E+02 -0.61498508650E+02  0.65079518759E+02  0.10566000000E+00 0.  1.
         13    1    4    4    0    0 -0.79673047437E+01 -0.11320319818E+02  0.10012633543E+02  0.17084834801E+02  0.10566000000E+00 0. -1.
        -13    1    4    4    0    0 -0.35054553108E+01 -0.65305037597E+01  0.65242165282E+01  0.98748297015E+01  0.10566000000E+00 0.  1.
         14    1    4    4    0    0 -0.50630427544E-01 -0.51061896228E-01  0.14325591468E+00  0.16029040686E+00  0.00000000000E+00 0. -1.
<mgrwt>
<rscale>  0 0.80573282E+02</rscale>
<asrwt>0</asrwt>
<pdfrwt beam="1">  1        2 0.36446978E-02 0.80573282E+02</pdfrwt>
<pdfrwt beam="2">  1       -1 0.10539837E-01 0.80573282E+02</pdfrwt>
<totfact> 0.12585025E+05</totfact>
</mgrwt>
</event>
<event>
 8    1  0.1226832E-020  0.8251149E+02  0.7818608E-02  0.1322072E+00
         -1   -1    0    0    0  501 -0.00000000000E+00  0.00000000000E+00  0.91443368461E+01  0.91443382351E+01  0.50400000000E-02 0.  1.
          2   -1    0    0  501    0  0.00000000000E+00 -0.00000000000E+00 -0.18613008916E+03  0.18613008918E+03  0.25500000000E-02 0. -1.
         24    2    1    2    0    0  0.17763568394E-14 -0.35527136788E-14 -0.17698575232E+03  0.19527442742E+03  0.82511486954E+02 0.  0.
         66    2    3    3    0    0 -0.88677488870E+01  0.29555212728E+02 -0.15326614123E+03  0.15635426961E+03  0.20000018822E+01 0.  0.
        -13    1    3    3    0    0  0.88677488870E+01 -0.29555212728E+02 -0.23719611091E+02  0.38920157811E+02  0.10566000000E+00 0.  1.
         13    1    4    4    0    0 -0.17081952910E+01  0.49062610185E+01 -0.24827622832E+02  0.25365554357E+02  0.10566000000E+00 0. -1.
        -13    1    4    4    0    0 -0.58116199361E+01  0.21844304638E+02 -0.11201499936E+03  0.11427300564E+03  0.10566000000E+00 0.  1.
        -14    1    4    4    0    0 -0.13479336599E+01  0.28046470712E+01 -0.16423519033E+02  0.16715709611E+02  0.00000000000E+00 0.  1.
<mgrwt>
<rscale>  0 0.82511487E+02</rscale>
<asrwt>0</asrwt>
<pdfrwt beam="1">  1        2 0.28635396E-01 0.82511487E+02</pdfrwt>
<pdfrwt beam="2">  1       -1 0.14068213E-02 0.82511487E+02</pdfrwt>
<totfact> 0.19828451E+05</totfact>
</mgrwt>
</event>
<event>
 8    1  0.1226832E-020  0.7976368E+02  0.7818608E-02  0.1329723E+00
         -1   -1    0    0    0  501 -0.00000000000E+00  0.00000000000E+00  0.27238094429E+01  0.27238141058E+01  0.50400000000E-02 0.  1.
          2   -1    0    0  501    0  0.00000000000E+00 -0.00000000000E+00 -0.58394676629E+03  0.58394676630E+03  0.25500000000E-02 0. -1.
         24    2    1    2    0    0  0.00000000000E+00  0.00000000000E+00 -0.58122295685E+03  0.58667058040E+03  0.79763678089E+02 0.  0.
         66    2    3    3    0    0 -0.23356560971E+02  0.24671346363E+02 -0.44408232172E+03  0.44538445497E+03  0.19999986580E+01 0.  0.
        -13    1    3    3    0    0  0.23356560971E+02 -0.24671346363E+02 -0.13714063513E+03  0.14128612543E+03  0.10566000000E+00 0.  1.
         13    1    4    4    0    0 -0.28612489210E+01  0.29171715183E+01 -0.55061551076E+02  0.55213061915E+02  0.10566000000E+00 0. -1.
        -13    1    4    4    0    0 -0.12155872515E+02  0.12872758933E+02 -0.24183507394E+03  0.24248234432E+03  0.10566000000E+00 0.  1.
        -14    1    4    4    0    0 -0.83394395353E+01  0.88814159119E+01 -0.14718569670E+03  0.14768904873E+03  0.00000000000E+00 0.  1.
<mgrwt>
<rscale>  0 0.79763678E+02</rscale>
<asrwt>0</asrwt>
<pdfrwt beam="1">  1        2 0.89837864E-01 0.79763678E+02</pdfrwt>
<pdfrwt beam="2">  1       -1 0.41904843E-03 0.79763678E+02</pdfrwt>
<totfact> 0.32165168E+05</totfact>
</mgrwt>
</event>
<event>
 8    1  0.1226832E-020  0.7999909E+02  0.7818608E-02  0.1329054E+00
         -1   -1    0    0    0  501 -0.00000000000E+00  0.00000000000E+00  0.15126215727E+02  0.15126216567E+02  0.50400000000E-02 0.  1.
          2   -1    0    0  501    0  0.00000000000E+00 -0.00000000000E+00 -0.10577419963E+03  0.10577419967E+03  0.25500000000E-02 0. -1.
         24    2    1    2    0    0  0.17763568394E-14 -0.35527136788E-14 -0.90647983908E+02  0.12090041623E+03  0.79999085361E+02 0.  0.
         66    2    3    3    0    0  0.15283595332E+02 -0.31577281149E+02 -0.74313738485E+02  0.82202461395E+02  0.19999901775E+01 0.  0.
        -13    1    3    3    0    0 -0.15283595332E+02  0.31577281149E+02 -0.16334245423E+02  0.38697954837E+02  0.10566000000E+00 0.  1.
         13    1    4    4    0    0  0.52864086192E+01 -0.11792022312E+02 -0.28877990108E+02  0.31637752496E+02  0.10566000000E+00 0. -1.
        -13    1    4    4    0    0  0.64694475783E+01 -0.11908899320E+02 -0.28343377350E+02  0.31417094687E+02  0.10566000000E+00 0.  1.
         14    1    4    4    0    0  0.35277391346E+01 -0.78763595170E+01 -0.17092371028E+02  0.19147614212E+02  0.00000000000E+00 0. -1.
<mgrwt>
<rscale>  0 0.79999085E+02</rscale>
<asrwt>0</asrwt>
<pdfrwt beam="1">  1        2 0.16272953E-01 0.79999085E+02</pdfrwt>
<pdfrwt beam="2">  1       -1 0.23271102E-02 0.79999085E+02</pdfrwt>
<totfact> 0.18010095E+05</totfact>
</mgrwt>
</event>
<event>
 8    1  0.1226832E-020  0.7955115E+02  0.7818608E-02  0.1330330E+00
         -1   -1    0    0    0  501 -0.00000000000E+00  0.00000000000E+00  0.37583083895E+01  0.37583117689E+01  0.50400000000E-02 0.  1.
          2   -1    0    0  501    0  0.00000000000E+00 -0.00000000000E+00 -0.42095946535E+03  0.42095946536E+03  0.25500000000E-02 0. -1.
         24    2    1    2    0    0  0.00000000000E+00  0.00000000000E+00 -0.41720115696E+03  0.42471777713E+03  0.79551146052E+02 0.  0.
         66    2    3    3    0    0 -0.22778106898E+02 -0.32205110417E+02 -0.23493088859E+03  0.23822790291E+03  0.20000046419E+01 0.  0.
        -13    1    3    3    0    0  0.22778106898E+02  0.32205110417E+02 -0.18227026837E+03  0.18648987422E+03  0.10566000000E+00 0.  1.
         13    1    4    4    0    0 -0.11957646424E+02 -0.18095630116E+02 -0.12723182207E+03  0.12906736555E+03  0.10566000000E+00 0. -1.
        -13    1    4    4    0    0 -0.82409861289E+01 -0.11115657671E+02 -0.85472530643E+02  0.86585428083E+02  0.10566000000E+00 0.  1.
        -14    1    4    4    0    0 -0.25794743449E+01 -0.29938226302E+01 -0.22226535876E+02  0.22575109277E+02  0.00000000000E+00 0.  1.
<mgrwt>
<rscale>  0 0.79551146E+02</rscale>
<asrwt>0</asrwt>
<pdfrwt beam="1">  1        2 0.64762958E-01 0.79551146E+02</pdfrwt>
<pdfrwt beam="2">  1       -1 0.57820188E-03 0.79551146E+02</pdfrwt>
<totfact> 0.29184113E+05</totfact>
</mgrwt>
</event>
<event>
 8    1  0.1226832E-020  0.7419421E+02  0.7818608E-02  0.1346385E+00
         -1   -1    0    0    0  501 -0.00000000000E+00  0.00000000000E+00  0.14081669580E+01  0.14081759774E+01  0.50400000000E-02 0.  1.
          2   -1    0    0  501    0  0.00000000000E+00 -0.00000000000E+00 -0.97729228590E+03  0.97729228591E+03  0.25500000000E-02 0. -1.
         24    2    1    2    0    0  0.00000000000E+00  0.00000000000E+00 -0.97588411895E+03  0.97870046188E+03  0.74194207876E+02 0.  0.
         66    2    3    3    0    0  0.23426269342E+02  0.30311515396E+01 -0.86515676709E+03  0.86548149003E+03  0.19999916287E+01 0.  0.
        -13    1    3    3    0    0 -0.23426269342E+02 -0.30311515396E+01 -0.11072735186E+03  0.11321897185E+03  0.10566000000E+00 0.  1.
         13    1    4    4    0    0  0.52363387196E+01  0.31778226159E+00 -0.19512520062E+03  0.19519573590E+03  0.10566000000E+00 0. -1.
        -13    1    4    4    0    0  0.58969007497E+01  0.23806364113E+00 -0.20186552520E+03  0.20195180499E+03  0.10566000000E+00 0.  1.
        -14    1    4    4    0    0  0.12293029873E+02  0.24753056369E+01 -0.46816604127E+03  0.46833394914E+03  0.00000000000E+00 0.  1.
<mgrwt>
<rscale>  0 0.74194208E+02</rscale>
<asrwt>0</asrwt>
<pdfrwt beam="1">  1        2 0.15035212E+00 0.74194208E+02</pdfrwt>
<pdfrwt beam="2">  1       -1 0.21664255E-03 0.74194208E+02</pdfrwt>
<totfact> 0.42761350E+05</totfact>
</mgrwt>
</event>
<event>
 8    1  0.1226832E-020  0.7971783E+02  0.7818608E-02  0.1329854E+00
         -1   -1    0    0    0  501 -0.00000000000E+00  0.00000000000E+00  0.25304595364E+01  0.25304645555E+01  0.50400000000E-02 0.  1.
          2   -1    0    0  501    0  0.00000000000E+00 -0.00000000000E+00 -0.62784315942E+03  0.62784315942E+03  0.25500000000E-02 0. -1.
         24    2    1    2    0    0  0.71054273576E-14 -0.44408920985E-15 -0.62531269988E+03  0.63037362398E+03  0.79717834735E+02 0.  0.
         66    2    3    3    0    0 -0.35881862743E+02  0.38229232204E+01 -0.44625516769E+03  0.44771620197E+03  0.20000003958E+01 0.  0.
        -13    1    3    3    0    0  0.35881862743E+02 -0.38229232204E+01 -0.17905753220E+03  0.18265742201E+03  0.10566000000E+00 0.  1.
         13    1    4    4    0    0 -0.91338483236E+01  0.14491143221E+01 -0.12081551338E+03  0.12116899997E+03  0.10566000000E+00 0. -1.
        -13    1    4    4    0    0 -0.64533984807E+01  0.16407278264E+00 -0.79480207561E+02  0.79742007937E+02  0.10566000000E+00 0.  1.
         14    1    4    4    0    0 -0.20294615939E+02  0.22097361156E+01 -0.24595944675E+03  0.24680519406E+03  0.00000000000E+00 0. -1.
<mgrwt>
<rscale>  0 0.79717835E+02</rscale>
<asrwt>0</asrwt>
<pdfrwt beam="1">  1        2 0.96591131E-01 0.79717835E+02</pdfrwt>
<pdfrwt beam="2">  1       -1 0.38930236E-03 0.79717835E+02</pdfrwt>
<totfact> 0.32863187E+05</totfact>
</mgrwt>
</event>
<event>
 8    1  0.1226832E-020  0.7884189E+02  0.7818608E-02  0.1332370E+00
          2   -1    0    0  501    0  0.00000000000E+00  0.00000000000E+00  0.12761157282E+03  0.12761157285E+03  0.25500000000E-02 0. -1.
         -1   -1    0    0    0  501 -0.00000000000E+00 -0.00000000000E+00 -0.12177664897E+02  0.12177665940E+02  0.50400000000E-02 0.  1.
         24    2    1    2    0    0  0.00000000000E+00  0.00000000000E+00  0.11543390793E+03  0.13978923879E+03  0.78841893573E+02 0.  0.
         66    2    3    3    0    0 -0.96361110625E+00 -0.11527156671E+02  0.12452466698E+03  0.12507676274E+03  0.20000007995E+01 0.  0.
        -13    1    3    3    0    0  0.96361110625E+00  0.11527156671E+02 -0.90907590551E+01  0.14712476050E+02  0.10566000000E+00 0.  1.
         13    1    4    4    0    0 -0.35757051666E+00 -0.47560083652E+01  0.51654664552E+02  0.51874492829E+02  0.10566000000E+00 0. -1.
        -13    1    4    4    0    0 -0.44699137194E+00 -0.26809097020E+01  0.36899474544E+02  0.36999587346E+02  0.10566000000E+00 0.  1.
        -14    1    4    4    0    0 -0.15904921765E+00 -0.40902386042E+01  0.35970527886E+02  0.36202682565E+02  0.00000000000E+00 0.  1.
<mgrwt>
<rscale>  0 0.78841894E+02</rscale>
<asrwt>0</asrwt>
<pdfrwt beam="1">  1        2 0.19632549E-01 0.78841894E+02</pdfrwt>
<pdfrwt beam="2">  1       -1 0.18734870E-02 0.78841894E+02</pdfrwt>
<totfact> 0.19790925E+05</totfact>
</mgrwt>
</event>
<event>
 8    1  0.1226832E-020  0.8211096E+02  0.7818608E-02  0.1323165E+00
          2   -1    0    0  501    0  0.00000000000E+00  0.00000000000E+00  0.51094857476E+03  0.51094857477E+03  0.25500000000E-02 0. -1.
         -1   -1    0    0    0  501 -0.00000000000E+00 -0.00000000000E+00 -0.32988672547E+01  0.32988711047E+01  0.50400000000E-02 0.  1.
         24    2    1    2    0    0  0.00000000000E+00 -0.88817841970E-15  0.50764970751E+03  0.51424744587E+03  0.82110961843E+02 0.  0.
         66    2    3    3    0    0 -0.20021681237E+02 -0.77261485273E+01  0.47299403784E+03  0.47348486873E+03  0.20000002837E+01 0.  0.
        -13    1    3    3    0    0  0.20021681237E+02  0.77261485273E+01  0.34655669673E+02  0.40762577141E+02  0.10566000000E+00 0.  1.
         13    1    4    4    0    0 -0.10231834197E+02 -0.36075888726E+01  0.22249869646E+03  0.22276307194E+03  0.10566000000E+00 0. -1.
        -13    1    4    4    0    0 -0.63477958176E+01 -0.28724546073E+01  0.15590476076E+03  0.15606040850E+03  0.10566000000E+00 0.  1.
         14    1    4    4    0    0 -0.34420512226E+01 -0.12461050474E+01  0.94590580609E+02  0.94661388297E+02  0.00000000000E+00 0. -1.
<mgrwt>
<rscale>  0 0.82110962E+02</rscale>
<asrwt>0</asrwt>
<pdfrwt beam="1">  1        2 0.78607464E-01 0.82110962E+02</pdfrwt>
<pdfrwt beam="2">  1       -1 0.50751840E-03 0.82110962E+02</pdfrwt>
<totfact> 0.28646652E+05</totfact>
</mgrwt>
</event>
<event>
 8    1  0.1226832E-020  0.7111975E+02  0.7818608E-02  0.1356326E+00
          2   -1    0    0  501    0  0.00000000000E+00  0.00000000000E+00  0.83498856517E+02  0.83498856556E+02  0.25500000000E-02 0. -1.
         -1   -1    0    0    0  501 -0.00000000000E+00 -0.00000000000E+00 -0.15143976265E+02  0.15143977104E+02  0.50400000000E-02 0.  1.
         24    2    1    2    0    0  0.00000000000E+00  0.00000000000E+00  0.68354880252E+02  0.98642833660E+02  0.71119750971E+02 0.  0.
         66    2    3    3    0    0 -0.49608271079E+01 -0.34392735553E+02  0.44493427134E+02  0.56490132995E+02  0.20000008019E+01 0.  0.
        -13    1    3    3    0    0  0.49608271079E+01  0.34392735553E+02  0.23861453118E+02  0.42152700665E+02  0.10566000000E+00 0.  1.
         13    1    4    4    0    0 -0.87039524918E-01 -0.86767956214E+00  0.81559389627E+00  0.11986664009E+01  0.10566000000E+00 0. -1.
        -13    1    4    4    0    0 -0.22465966871E+01 -0.11310449382E+02  0.14621108421E+02  0.18621531553E+02  0.10566000000E+00 0.  1.
         14    1    4    4    0    0 -0.26271908959E+01 -0.22214606609E+02  0.29056724817E+02  0.36669935040E+02  0.00000000000E+00 0. -1.
<mgrwt>
<rscale>  0 0.71119751E+02</rscale>
<asrwt>0</asrwt>
<pdfrwt beam="1">  1        2 0.12845977E-01 0.71119751E+02</pdfrwt>
<pdfrwt beam="2">  1       -1 0.23298427E-02 0.71119751E+02</pdfrwt>
<totfact> 0.23112718E+05</totfact>
</mgrwt>
</event>
<event>
 8    1  0.1226832E-020  0.8032894E+02  0.7818608E-02  0.1328121E+00
          2   -1    0    0  501    0  0.00000000000E+00  0.00000000000E+00  0.13083077207E+02  0.13083077456E+02  0.25500000000E-02 0. -1.
         -1   -1    0    0    0  501 -0.00000000000E+00 -0.00000000000E+00 -0.12330314377E+03  0.12330314388E+03  0.50400000000E-02 0.  1.
         24    2    1    2    0    0  0.00000000000E+00  0.00000000000E+00 -0.11022006657E+03  0.13638622133E+03  0.80328938095E+02 0.  0.
         66    2    3    3    0    0  0.21128995311E+02 -0.12276517414E+02 -0.10780848861E+01  0.24541996396E+02  0.19999993484E+01 0.  0.
        -13    1    3    3    0    0 -0.21128995311E+02  0.12276517414E+02 -0.10914198168E+03  0.11184422494E+03  0.10566000000E+00 0.  1.
         13    1    4    4    0    0  0.12845956480E+02 -0.72229061087E+01 -0.65562354316E+00  0.14752287172E+02  0.10566000000E+00 0. -1.
        -13    1    4    4    0    0  0.46874263226E+01 -0.34828540832E+01 -0.52858553719E+00  0.58645379017E+01  0.10566000000E+00 0.  1.
         14    1    4    4    0    0  0.35956125082E+01 -0.15707572217E+01  0.10612419423E+00  0.39251713215E+01  0.00000000000E+00 0. -1.
<mgrwt>
<rscale>  0 0.80328938E+02</rscale>
<asrwt>0</asrwt>
<pdfrwt beam="1">  1        2 0.20127812E-02 0.80328938E+02</pdfrwt>
<pdfrwt beam="2">  1       -1 0.18969714E-01 0.80328938E+02</pdfrwt>
<totfact> 0.11197408E+05</totfact>
</mgrwt>
</event>
<event>
 8    1  0.1226832E-020  0.8011827E+02  0.7818608E-02  0.1328716E+00
         -1   -1    0    0    0  501 -0.00000000000E+00  0.00000000000E+00  0.91084197829E+01  0.91084211773E+01  0.50400000000E-02 0.  1.
          2   -1    0    0  501    0  0.00000000000E+00 -0.00000000000E+00 -0.17618138148E+03  0.17618138150E+03  0.25500000000E-02 0. -1.
         24    2    1    2    0    0  0.00000000000E+00  0.00000000000E+00 -0.16707296170E+03  0.18528980268E+03  0.80118265367E+02 0.  0.
         66    2    3    3    0    0 -0.49013683038E+01 -0.26358876261E+02 -0.15234672281E+03  0.15470080065E+03  0.20000006609E+01 0.  0.
        -13    1    3    3    0    0  0.49013683038E+01  0.26358876261E+02 -0.14726238887E+02  0.30589002023E+02  0.10566000000E+00 0.  1.
         13    1    4    4    0    0 -0.21975087951E+01 -0.77715587706E+01 -0.43076038204E+02  0.43826731591E+02  0.10566000000E+00 0. -1.
        -13    1    4    4    0    0 -0.23925185117E+01 -0.16579756784E+02 -0.96696687002E+02  0.98137010964E+02  0.10566000000E+00 0.  1.
         14    1    4    4    0    0 -0.31134099698E+00 -0.20075607066E+01 -0.12573997605E+02  0.12737058098E+02  0.00000000000E+00 0. -1.
<mgrwt>
<rscale>  0 0.80118265E+02</rscale>
<asrwt>0</asrwt>
<pdfrwt beam="1">  1        2 0.27104825E-01 0.80118265E+02</pdfrwt>
<pdfrwt beam="2">  1       -1 0.14012956E-02 0.80118265E+02</pdfrwt>
<totfact> 0.21038192E+05</totfact>
</mgrwt>
</event>
<event>
 8    1  0.1226832E-020  0.8141065E+02  0.7818608E-02  0.1325095E+00
         -1   -1    0    0    0  501 -0.00000000000E+00  0.00000000000E+00  0.82742910869E+01  0.82742926219E+01  0.50400000000E-02 0.  1.
          2   -1    0    0  501    0  0.00000000000E+00 -0.00000000000E+00 -0.20024955964E+03  0.20024955966E+03  0.25500000000E-02 0. -1.
         24    2    1    2    0    0  0.35527136788E-14  0.71054273576E-14 -0.19197526856E+03  0.20852385228E+03  0.81410645698E+02 0.  0.
         66    2    3    3    0    0  0.22159313597E+02  0.33122525463E+02 -0.11697700613E+03  0.12359513274E+03  0.20000003895E+01 0.  0.
        -13    1    3    3    0    0 -0.22159313597E+02 -0.33122525463E+02 -0.74998262431E+02  0.84928719546E+02  0.10566000000E+00 0.  1.
         13    1    4    4    0    0  0.19552232328E+02  0.28947504504E+02 -0.10181504534E+03  0.10764089570E+03  0.10566000000E+00 0. -1.
        -13    1    4    4    0    0  0.25917884695E+01  0.40776517420E+01 -0.14480107257E+02  0.15265296637E+02  0.10566000000E+00 0. -1.
         14    1    4    4    0    0  0.15292799408E-01  0.97369216775E-01 -0.68185353310E+00  0.68894039995E+00  0.00000000000E+00 0. -1.
<mgrwt>
<rscale>  0 0.81410646E+02</rscale>
<asrwt>0</asrwt>
<pdfrwt beam="1">  1        2 0.30807621E-01 0.81410646E+02</pdfrwt>
<pdfrwt beam="2">  1       -1 0.12729681E-02 0.81410646E+02</pdfrwt>
<totfact> 0.21072537E+05</totfact>
</mgrwt>
</event>
<event>
 8    1  0.1226832E-020  0.7945079E+02  0.7818608E-02  0.1330617E+00
          2   -1    0    0  501    0  0.00000000000E+00  0.00000000000E+00  0.44055997025E+01  0.44056004405E+01  0.25500000000E-02 0. -1.
         -1   -1    0    0    0  501 -0.00000000000E+00 -0.00000000000E+00 -0.35820474097E+03  0.35820474100E+03  0.50400000000E-02 0.  1.
         24    2    1    2    0    0  0.00000000000E+00  0.00000000000E+00 -0.35379914127E+03  0.36261034145E+03  0.79450785785E+02 0.  0.
         66    2    3    3    0    0 -0.14974313628E+02  0.35378255963E+02 -0.13131453421E+03  0.13683332179E+03  0.19999983468E+01 0.  0.
        -13    1    3    3    0    0  0.14974313628E+02 -0.35378255963E+02 -0.22248460706E+03  0.22577701966E+03  0.10566000000E+00 0.  1.
         13    1    4    4    0    0 -0.29933186959E+01  0.56698526104E+01 -0.21274664121E+02  0.22220028869E+02  0.10566000000E+00 0. -1.
        -13    1    4    4    0    0 -0.72344238466E+01  0.18067662387E+02 -0.64871913415E+02  0.67728528898E+02  0.10566000000E+00 0.  1.
         14    1    4    4    0    0 -0.47465710859E+01  0.11640740965E+02 -0.45167956671E+02  0.46884764019E+02  0.00000000000E+00 0. -1.
<mgrwt>
<rscale>  0 0.79450786E+02</rscale>
<asrwt>0</asrwt>
<pdfrwt beam="1">  1        2 0.67778491E-03 0.79450786E+02</pdfrwt>
<pdfrwt beam="2">  1       -1 0.55108399E-01 0.79450786E+02</pdfrwt>
<totfact> 0.81442703E+04</totfact>
</mgrwt>
</event>
<event>
 8    1  0.1226832E-020  0.7954873E+02  0.7818608E-02  0.1330337E+00
          2   -1    0    0  501    0  0.00000000000E+00  0.00000000000E+00  0.78733989158E+02  0.78733989199E+02  0.25500000000E-02 0. -1.
         -1   -1    0    0    0  501 -0.00000000000E+00 -0.00000000000E+00 -0.20092973643E+02  0.20092974275E+02  0.50400000000E-02 0.  1.
         24    2    1    2    0    0  0.35527136788E-14  0.00000000000E+00  0.58641015514E+02  0.98826963474E+02  0.79548727262E+02 0.  0.
         66    2    3    3    0    0  0.23180515585E+02 -0.29680637423E+02  0.13540263394E+02  0.40070129434E+02  0.19999998556E+01 0.  0.
        -13    1    3    3    0    0 -0.23180515585E+02  0.29680637423E+02  0.45100752120E+02  0.58756834040E+02  0.10566000000E+00 0.  1.
         13    1    4    4    0    0  0.18630313459E+02 -0.23767389809E+02  0.10299136792E+02  0.31907064745E+02  0.10566000000E+00 0. -1.
        -13    1    4    4    0    0  0.98558620307E+00 -0.16429755045E+01  0.10239443726E+01  0.21749424788E+01  0.10566000000E+00 0.  1.
         14    1    4    4    0    0  0.35646159232E+01 -0.42702721089E+01  0.22171822296E+01  0.59881222101E+01  0.00000000000E+00 0. -1.
<mgrwt>
<rscale>  0 0.79548727E+02</rscale>
<asrwt>0</asrwt>
<pdfrwt beam="1">  1        2 0.12112922E-01 0.79548727E+02</pdfrwt>
<pdfrwt beam="2">  1       -1 0.30912267E-02 0.79548727E+02</pdfrwt>
<totfact> 0.16883135E+05</totfact>
</mgrwt>
</event>
<event>
 8    1  0.1226832E-020  0.8160885E+02  0.7818608E-02  0.1324547E+00
         -1   -1    0    0    0  501 -0.00000000000E+00  0.00000000000E+00  0.49122004718E+01  0.49122030574E+01  0.50400000000E-02 0.  1.
          2   -1    0    0  501    0  0.00000000000E+00 -0.00000000000E+00 -0.33895209783E+03  0.33895209783E+03  0.25500000000E-02 0. -1.
         24    2    1    2    0    0  0.00000000000E+00 -0.17763568394E-14 -0.33403989735E+03  0.34386430089E+03  0.81608850036E+02 0.  0.
         66    2    3    3    0    0 -0.15751523785E+02 -0.10193429226E+02 -0.31968248278E+03  0.32023882696E+03  0.20000001341E+01 0.  0.
        -13    1    3    3    0    0  0.15751523785E+02  0.10193429226E+02 -0.14357414577E+02  0.23625473928E+02  0.10566000000E+00 0.  1.
         13    1    4    4    0    0 -0.14016257353E+01 -0.12276660624E+01 -0.25062688195E+02  0.25132075566E+02  0.10566000000E+00 0. -1.
        -13    1    4    4    0    0 -0.57862982587E+01 -0.39802066109E+01 -0.12797362686E+03  0.12816623435E+03  0.10566000000E+00 0.  1.
         14    1    4    4    0    0 -0.85635997911E+01 -0.49855565528E+01 -0.16664616773E+03  0.16694051705E+03  0.00000000000E+00 0. -1.
<mgrwt>
<rscale>  0 0.81608850E+02</rscale>
<asrwt>0</asrwt>
<pdfrwt beam="1">  1        2 0.52146458E-01 0.81608850E+02</pdfrwt>
<pdfrwt beam="2">  1       -1 0.75572362E-03 0.81608850E+02</pdfrwt>
<totfact> 0.25287751E+05</totfact>
</mgrwt>
</event>
<event>
 8    1  0.1226832E-020  0.7991990E+02  0.7818608E-02  0.1329279E+00
         -1   -1    0    0    0  501 -0.00000000000E+00  0.00000000000E+00  0.32062507478E+02  0.32062507874E+02  0.50400000000E-02 0.  1.
          2   -1    0    0  501    0  0.00000000000E+00 -0.00000000000E+00 -0.49802641236E+02  0.49802641301E+02  0.25500000000E-02 0. -1.
         24    2    1    2    0    0 -0.17763568394E-14  0.14210854715E-13 -0.17740133758E+02  0.81865149176E+02  0.79919899298E+02 0.  0.
         66    2    3    3    0    0 -0.81795667063E+01  0.38568577895E+02 -0.23686598674E+01  0.39548085408E+02  0.19999993813E+01 0.  0.
        -13    1    3    3    0    0  0.81795667063E+01 -0.38568577895E+02 -0.15371473890E+02  0.42317063768E+02  0.10566000000E+00 0.  1.
         13    1    4    4    0    0 -0.31780823120E+01  0.13200697620E+02 -0.70964319588E+00  0.13596815154E+02  0.10566000000E+00 0. -1.
        -13    1    4    4    0    0 -0.12723737954E+01  0.86068919925E+01 -0.11109237530E+01  0.87717068160E+01  0.10566000000E+00 0.  1.
        -14    1    4    4    0    0 -0.37291105989E+01  0.16760988283E+02 -0.54809291854E+00  0.17179563438E+02  0.00000000000E+00 0.  1.
<mgrwt>
<rscale>  0 0.79919899E+02</rscale>
<asrwt>0</asrwt>
<pdfrwt beam="1">  1        2 0.76619448E-02 0.79919899E+02</pdfrwt>
<pdfrwt beam="2">  1       -1 0.49326935E-02 0.79919899E+02</pdfrwt>
<totfact> 0.14971175E+05</totfact>
</mgrwt>
</event>
<event>
 8    1  0.1226832E-020  0.7960708E+02  0.7818608E-02  0.1330170E+00
         -1   -1    0    0    0  501 -0.00000000000E+00  0.00000000000E+00  0.56356049418E+01  0.56356071955E+01  0.50400000000E-02 0.  1.
          2   -1    0    0  501    0  0.00000000000E+00 -0.00000000000E+00 -0.28112716788E+03  0.28112716790E+03  0.25500000000E-02 0. -1.
         24    2    1    2    0    0 -0.88817841970E-15  0.00000000000E+00 -0.27549156294E+03  0.28676277509E+03  0.79607084645E+02 0.  0.
         66    2    3    3    0    0 -0.59043609950E+01 -0.89691356963E+01 -0.27580341919E+03  0.27601962415E+03  0.20000011119E+01 0.  0.
        -13    1    3    3    0    0  0.59043609950E+01  0.89691356963E+01  0.31185624403E+00  0.10743150946E+02  0.10566000000E+00 0.  1.
         13    1    4    4    0    0 -0.13426261362E+01 -0.27061120814E+01 -0.86359501440E+02  0.86412385343E+02  0.10566000000E+00 0. -1.
        -13    1    4    4    0    0 -0.34806654782E+01 -0.43990800491E+01 -0.12205837435E+03  0.12218725323E+03  0.10566000000E+00 0.  1.
         14    1    4    4    0    0 -0.10810693806E+01 -0.18639435658E+01 -0.67385543394E+02  0.67419985577E+02  0.00000000000E+00 0. -1.
<mgrwt>
<rscale>  0 0.79607085E+02</rscale>
<asrwt>0</asrwt>
<pdfrwt beam="1">  1        2 0.43250323E-01 0.79607085E+02</pdfrwt>
<pdfrwt beam="2">  1       -1 0.86701654E-03 0.79607085E+02</pdfrwt>
<totfact> 0.25225137E+05</totfact>
</mgrwt>
</event>
<event>
 8    1  0.1226832E-020  0.7953365E+02  0.7818608E-02  0.1330380E+00
          2   -1    0    0  501    0  0.00000000000E+00  0.00000000000E+00  0.71907134342E+03  0.71907134343E+03  0.25500000000E-02 0. -1.
         -1   -1    0    0    0  501 -0.00000000000E+00 -0.00000000000E+00 -0.21992228956E+01  0.21992286707E+01  0.50400000000E-02 0.  1.
         24    2    1    2    0    0  0.00000000000E+00  0.00000000000E+00  0.71687212053E+03  0.72127057210E+03  0.79533646877E+02 0.  0.
         66    2    3    3    0    0  0.22680874608E+02  0.26290075193E+02  0.53399762959E+03  0.53512901111E+03  0.19999999612E+01 0.  0.
        -13    1    3    3    0    0 -0.22680874608E+02 -0.26290075193E+02  0.18287449094E+03  0.18614156099E+03  0.10566000000E+00 0.  1.
         13    1    4    4    0    0  0.55997710025E+01  0.68374764317E+01  0.13540476431E+03  0.13569292494E+03  0.10566000000E+00 0. -1.
        -13    1    4    4    0    0  0.85384063067E+01  0.85353306284E+01  0.18170518629E+03  0.18210585422E+03  0.10566000000E+00 0.  1.
        -14    1    4    4    0    0  0.85426972984E+01  0.10917268132E+02  0.21688767899E+03  0.21733023195E+03  0.00000000000E+00 0.  1.
<mgrwt>
<rscale>  0 0.79533647E+02</rscale>
<asrwt>0</asrwt>
<pdfrwt beam="1">  1        2 0.11062630E+00 0.79533647E+02</pdfrwt>
<pdfrwt beam="2">  1       -1 0.33834260E-03 0.79533647E+02</pdfrwt>
<totfact> 0.34168663E+05</totfact>
</mgrwt>
</event>
<event>
 8    1  0.1226832E-020  0.8009863E+02  0.7818608E-02  0.1328772E+00
         -1   -1    0    0    0  501 -0.00000000000E+00  0.00000000000E+00  0.27527070447E+03  0.27527070452E+03  0.50400000000E-02 0.  1.
          2   -1    0    0  501    0  0.00000000000E+00 -0.00000000000E+00 -0.58268010508E+01  0.58268016088E+01  0.25500000000E-02 0. -1.
         24    2    1    2    0    0  0.00000000000E+00  0.00000000000E+00  0.26944390342E+03  0.28109750612E+03  0.80098632073E+02 0.  0.
         66    2    3    3    0    0 -0.38262726450E+02  0.75399015739E+01  0.10321018791E+03  0.11035048364E+03  0.20000000479E+01 0.  0.
        -13    1    3    3    0    0  0.38262726450E+02 -0.75399015739E+01  0.16623371551E+03  0.17074702249E+03  0.10566000000E+00 0.  1.
         13    1    4    4    0    0 -0.32250373710E+01  0.93719974118E+00  0.93948942734E+01  0.99776957181E+01  0.10566000000E+00 0. -1.
        -13    1    4    4    0    0 -0.82875888977E+01  0.19793731522E+01  0.21133419009E+02  0.22786720055E+02  0.10566000000E+00 0.  1.
         14    1    4    4    0    0 -0.26750100181E+02  0.46233286805E+01  0.72681874623E+02  0.77586067864E+02  0.00000000000E+00 0. -1.
<mgrwt>
<rscale>  0 0.80098632E+02</rscale>
<asrwt>0</asrwt>
<pdfrwt beam="1">  1        2 0.89643100E-03 0.80098632E+02</pdfrwt>
<pdfrwt beam="2">  1       -1 0.42349338E-01 0.80098632E+02</pdfrwt>
<totfact> 0.89118108E+04</totfact>
</mgrwt>
</event>
<event>
 8    1  0.1226832E-020  0.7854788E+02  0.7818608E-02  0.1333224E+00
          2   -1    0    0  501    0  0.00000000000E+00  0.00000000000E+00  0.11932049569E+03  0.11932049572E+03  0.25500000000E-02 0. -1.
         -1   -1    0    0    0  501 -0.00000000000E+00 -0.00000000000E+00 -0.12926883134E+02  0.12926884116E+02  0.50400000000E-02 0.  1.
         24    2    1    2    0    0  0.71054273576E-14 -0.17763568394E-14  0.10639361256E+03  0.13224737984E+03  0.78547875084E+02 0.  0.
         66    2    3    3    0    0 -0.32158878509E+02  0.10627038862E+02  0.86621475547E+02  0.93029067940E+02  0.20000084931E+01 0.  0.
        -13    1    3    3    0    0  0.32158878509E+02 -0.10627038862E+02  0.19772137014E+02  0.39218311897E+02  0.10566000000E+00 0.  1.
         13    1    4    4    0    0 -0.19888007880E+02  0.69803306461E+01  0.53776795215E+02  0.57759957938E+02  0.10566000000E+00 0. -1.
        -13    1    4    4    0    0 -0.10467512377E+02  0.34617753817E+01  0.27650137188E+02  0.29767330326E+02  0.10566000000E+00 0.  1.
        -14    1    4    4    0    0 -0.18033582529E+01  0.18493283426E+00  0.51945431428E+01  0.55017796761E+01  0.00000000000E+00 0.  1.
<mgrwt>
<rscale>  0 0.78547875E+02</rscale>
<asrwt>0</asrwt>
<pdfrwt beam="1">  1        2 0.18356999E-01 0.78547875E+02</pdfrwt>
<pdfrwt beam="2">  1       -1 0.19887514E-02 0.78547875E+02</pdfrwt>
<totfact> 0.19587931E+05</totfact>
</mgrwt>
</event>
<event>
 8    1  0.1226832E-020  0.7918592E+02  0.7818608E-02  0.1331378E+00
         -1   -1    0    0    0  501 -0.00000000000E+00  0.00000000000E+00  0.47621491493E+01  0.47621518163E+01  0.50400000000E-02 0.  1.
          2   -1    0    0  501    0  0.00000000000E+00 -0.00000000000E+00 -0.32917955163E+03  0.32917955164E+03  0.25500000000E-02 0. -1.
         24    2    1    2    0    0  0.17763568394E-14  0.00000000000E+00 -0.32441740248E+03  0.33394170346E+03  0.79185922202E+02 0.  0.
         66    2    3    3    0    0 -0.11611667277E+02 -0.22103749259E+02 -0.29175894239E+03  0.29283218232E+03  0.19999977691E+01 0.  0.
        -13    1    3    3    0    0  0.11611667277E+02  0.22103749259E+02 -0.32658460089E+02  0.41109521132E+02  0.10566000000E+00 0.  1.
         13    1    4    4    0    0 -0.61659130471E+01 -0.11344803643E+02 -0.14414027358E+03  0.14471749267E+03  0.10566000000E+00 0. -1.
        -13    1    4    4    0    0 -0.21900080945E+01 -0.38415322542E+01 -0.60258597923E+02  0.60420719072E+02  0.10566000000E+00 0.  1.
        -14    1    4    4    0    0 -0.32557461351E+01 -0.69174133624E+01 -0.87360070893E+02  0.87693970585E+02  0.00000000000E+00 0.  1.
<mgrwt>
<rscale>  0 0.79185922E+02</rscale>
<asrwt>0</asrwt>
<pdfrwt beam="1">  1        2 0.50642990E-01 0.79185922E+02</pdfrwt>
<pdfrwt beam="2">  1       -1 0.73263880E-03 0.79185922E+02</pdfrwt>
<totfact> 0.27078762E+05</totfact>
</mgrwt>
</event>
<event>
 8    1  0.1226832E-020  0.8166306E+02  0.7818608E-02  0.1324397E+00
         -1   -1    0    0    0  501 -0.00000000000E+00  0.00000000000E+00  0.38262638329E+01  0.38262671523E+01  0.50400000000E-02 0.  1.
          2   -1    0    0  501    0  0.00000000000E+00 -0.00000000000E+00 -0.43572875655E+03  0.43572875656E+03  0.25500000000E-02 0. -1.
         24    2    1    2    0    0  0.00000000000E+00  0.00000000000E+00 -0.43190249272E+03  0.43955502371E+03  0.81663061743E+02 0.  0.
         66    2    3    3    0    0 -0.22827762695E+02 -0.83435614617E+01 -0.39251681976E+03  0.39327366498E+03  0.20000011539E+01 0.  0.
        -13    1    3    3    0    0  0.22827762695E+02  0.83435614617E+01 -0.39385672953E+02  0.46281358726E+02  0.10566000000E+00 0.  1.
         13    1    4    4    0    0 -0.93890408123E+01 -0.39856466703E+01 -0.17553273485E+03  0.17582887031E+03  0.10566000000E+00 0. -1.
        -13    1    4    4    0    0 -0.99781743649E+01 -0.31464718359E+01 -0.16532513893E+03  0.16565589931E+03  0.10566000000E+00 0.  1.
         14    1    4    4    0    0 -0.34605475175E+01 -0.12114429555E+01 -0.51658945977E+02  0.51788895360E+02  0.00000000000E+00 0. -1.
<mgrwt>
<rscale>  0 0.81663062E+02</rscale>
<asrwt>0</asrwt>
<pdfrwt beam="1">  1        2 0.67035154E-01 0.81663062E+02</pdfrwt>
<pdfrwt beam="2">  1       -1 0.58865658E-03 0.81663062E+02</pdfrwt>
<totfact> 0.27577085E+05</totfact>
</mgrwt>
</event>
<event>
 8    1  0.1226832E-020  0.8204678E+02  0.7818608E-02  0.1323341E+00
         -1   -1    0    0    0  501 -0.00000000000E+00  0.00000000000E+00  0.50758260011E+01  0.50758285033E+01  0.50400000000E-02 0.  1.
          2   -1    0    0  501    0  0.00000000000E+00 -0.00000000000E+00 -0.33155554263E+03  0.33155554264E+03  0.25500000000E-02 0. -1.
         24    2    1    2    0    0 -0.35527136788E-14  0.35527136788E-14 -0.32647971663E+03  0.33663137115E+03  0.82046783408E+02 0.  0.
         66    2    3    3    0    0 -0.26342895625E+02  0.20928394209E+02 -0.25946825318E+03  0.26164808480E+03  0.20000085831E+01 0.  0.
        -13    1    3    3    0    0  0.26342895625E+02 -0.20928394209E+02 -0.67011463452E+02  0.74983286352E+02  0.10566000000E+00 0.  1.
         13    1    4    4    0    0 -0.10978393793E+02  0.78742812593E+01 -0.10132358237E+03  0.10222039397E+03  0.10566000000E+00 0. -1.
        -13    1    4    4    0    0 -0.88621195297E+01  0.80734146621E+01 -0.92035173611E+02  0.92812722902E+02  0.10566000000E+00 0.  1.
        -14    1    4    4    0    0 -0.65023823016E+01  0.49806982877E+01 -0.66109497204E+02  0.66614967924E+02  0.00000000000E+00 0.  1.
<mgrwt>
<rscale>  0 0.82046783E+02</rscale>
<asrwt>0</asrwt>
<pdfrwt beam="1">  1        2 0.51008528E-01 0.82046783E+02</pdfrwt>
<pdfrwt beam="2">  1       -1 0.78089676E-03 0.82046783E+02</pdfrwt>
<totfact> 0.24737953E+05</totfact>
</mgrwt>
</event>
<event>
 8    1  0.1226832E-020  0.8248593E+02  0.7818608E-02  0.1322141E+00
         -1   -1    0    0    0  501 -0.00000000000E+00  0.00000000000E+00  0.16287231573E+01  0.16287309552E+01  0.50400000000E-02 0.  1.
          2   -1    0    0  501    0  0.00000000000E+00 -0.00000000000E+00 -0.10443630052E+04  0.10443630052E+04  0.25500000000E-02 0. -1.
         24    2    1    2    0    0 -0.35527136788E-14  0.17763568394E-14 -0.10427342820E+04  0.10459917361E+04  0.82485933130E+02 0.  0.
         66    2    3    3    0    0 -0.23410642271E+02  0.65712124200E+01 -0.94372575011E+03  0.94404106395E+03  0.19999995493E+01 0.  0.
        -13    1    3    3    0    0  0.23410642271E+02 -0.65712124200E+01 -0.99008531916E+02  0.10195067219E+03  0.10566000000E+00 0.  1.
         13    1    4    4    0    0 -0.32181740142E+01  0.13883198833E+01 -0.13416973994E+03  0.13421555184E+03  0.10566000000E+00 0. -1.
        -13    1    4    4    0    0 -0.48485758087E+01  0.15387456492E+01 -0.21740464257E+03  0.21746417222E+03  0.10566000000E+00 0.  1.
         14    1    4    4    0    0 -0.15343892448E+02  0.36441468875E+01 -0.59215136759E+03  0.59236133988E+03  0.00000000000E+00 0. -1.
<mgrwt>
<rscale>  0 0.82485933E+02</rscale>
<asrwt>0</asrwt>
<pdfrwt beam="1">  1        2 0.16067070E+00 0.82485933E+02</pdfrwt>
<pdfrwt beam="2">  1       -1 0.25057423E-03 0.82485933E+02</pdfrwt>
<totfact> 0.32573407E+05</totfact>
</mgrwt>
</event>
<event>
 8    1  0.1254354E-020  0.8361560E+02  0.7818608E-02  0.1319093E+00
         -1   -1    0    0    0  501 -0.00000000000E+00  0.00000000000E+00  0.28496893705E+01  0.28496938275E+01  0.50400000000E-02 0.  1.
          2   -1    0    0  501    0  0.00000000000E+00 -0.00000000000E+00 -0.61336178493E+03  0.61336178494E+03  0.25500000000E-02 0. -1.
         24    2    1    2    0    0  0.00000000000E+00 -0.35527136788E-14 -0.61051209556E+03  0.61621147876E+03  0.83615595044E+02 0.  0.
         66    2    3    3    0    0 -0.89393870738E+01  0.14581931604E+02 -0.58637846118E+03  0.58663126844E+03  0.20000001003E+01 0.  0.
        -13    1    3    3    0    0  0.89393870738E+01 -0.14581931604E+02 -0.24133634378E+02  0.29580210325E+02  0.10566000000E+00 0.  1.
         13    1    4    4    0    0 -0.44552406178E+01  0.63841653961E+01 -0.27737148154E+03  0.27748073208E+03  0.10566000000E+00 0. -1.
        -13    1    4    4    0    0 -0.13038387272E+01  0.14140489591E+01 -0.60861510432E+02  0.60891987535E+02  0.10566000000E+00 0.  1.
        -14    1    4    4    0    0 -0.31803077288E+01  0.67837172489E+01 -0.24814546921E+03  0.24825854883E+03  0.00000000000E+00 0.  1.
<mgrwt>
<rscale>  0 0.83615595E+02</rscale>
<asrwt>0</asrwt>
<pdfrwt beam="1">  1        2 0.94363247E-01 0.83615595E+02</pdfrwt>
<pdfrwt beam="2">  1       -1 0.43841458E-03 0.83615595E+02</pdfrwt>
<totfact> 0.28836387E+05</totfact>
</mgrwt>
</event>
<event>
 8    1  0.1226832E-020  0.7926520E+02  0.7818608E-02  0.1331150E+00
         -1   -1    0    0    0  501 -0.00000000000E+00  0.00000000000E+00  0.50519986241E+02  0.50519986492E+02  0.50400000000E-02 0.  1.
          2   -1    0    0  501    0  0.00000000000E+00 -0.00000000000E+00 -0.31091518050E+02  0.31091518154E+02  0.25500000000E-02 0. -1.
         24    2    1    2    0    0  0.00000000000E+00 -0.17763568394E-14  0.19428468191E+02  0.81611504646E+02  0.79265202418E+02 0.  0.
         66    2    3    3    0    0 -0.20287685807E+02  0.95924232263E+01 -0.23882037858E+02  0.32832248020E+02  0.19999997612E+01 0.  0.
        -13    1    3    3    0    0  0.20287685807E+02 -0.95924232263E+01  0.43310506049E+02  0.48779256626E+02  0.10566000000E+00 0.  1.
         13    1    4    4    0    0 -0.94390523510E+01  0.44730928086E+01 -0.10566918752E+02  0.14858506133E+02  0.10566000000E+00 0. -1.
        -13    1    4    4    0    0 -0.37869394560E+01  0.19436526928E+01 -0.38063388064E+01  0.57112236323E+01  0.10566000000E+00 0.  1.
         14    1    4    4    0    0 -0.70616940005E+01  0.31756777249E+01 -0.95087802989E+01  0.12262518254E+02  0.00000000000E+00 0. -1.
<mgrwt>
<rscale>  0 0.79265202E+02</rscale>
<asrwt>0</asrwt>
<pdfrwt beam="1">  1        2 0.47833106E-02 0.79265202E+02</pdfrwt>
<pdfrwt beam="2">  1       -1 0.77723055E-02 0.79265202E+02</pdfrwt>
<totfact> 0.13904692E+05</totfact>
</mgrwt>
</event>
<event>
 8    1  0.1226832E-020  0.8212474E+02  0.7818608E-02  0.1323128E+00
          2   -1    0    0  501    0  0.00000000000E+00  0.00000000000E+00  0.73939664952E+02  0.73939664996E+02  0.25500000000E-02 0. -1.
         -1   -1    0    0    0  501 -0.00000000000E+00 -0.00000000000E+00 -0.22803974521E+02  0.22803975078E+02  0.50400000000E-02 0.  1.
         24    2    1    2    0    0 -0.35527136788E-14  0.00000000000E+00  0.51135690431E+02  0.96743640073E+02  0.82124740844E+02 0.  0.
         66    2    3    3    0    0 -0.30069681510E+02 -0.57484120431E+01  0.57776955020E+02  0.65417172885E+02  0.19999974079E+01 0.  0.
        -13    1    3    3    0    0  0.30069681510E+02  0.57484120431E+01 -0.66412645893E+01  0.31326467189E+02  0.10566000000E+00 0.  1.
         13    1    4    4    0    0 -0.39691802923E+01 -0.44728983962E+00  0.75594996799E+01  0.85505356463E+01  0.10566000000E+00 0. -1.
        -13    1    4    4    0    0 -0.20110394554E+02 -0.47779425868E+01  0.39024951972E+02  0.44161235772E+02  0.10566000000E+00 0.  1.
        -14    1    4    4    0    0 -0.59901066641E+01 -0.52317961668E+00  0.11192503368E+02  0.12705401466E+02  0.00000000000E+00 0.  1.
<mgrwt>
<rscale>  0 0.82124741E+02</rscale>
<asrwt>0</asrwt>
<pdfrwt beam="1">  1        2 0.11375333E-01 0.82124741E+02</pdfrwt>
<pdfrwt beam="2">  1       -1 0.35083038E-02 0.82124741E+02</pdfrwt>
<totfact> 0.15245136E+05</totfact>
</mgrwt>
</event>
<event>
 8    1  0.1226832E-020  0.8020303E+02  0.7818608E-02  0.1328476E+00
         -1   -1    0    0    0  501 -0.00000000000E+00  0.00000000000E+00  0.28470530123E+01  0.28470574733E+01  0.50400000000E-02 0.  1.
          2   -1    0    0  501    0  0.00000000000E+00 -0.00000000000E+00 -0.56484030027E+03  0.56484030027E+03  0.25500000000E-02 0. -1.
         24    2    1    2    0    0 -0.35527136788E-14 -0.71054273576E-14 -0.56199324726E+03  0.56768735775E+03  0.80203031020E+02 0.  0.
         66    2    3    3    0    0  0.17290740050E+02  0.35620745114E+02 -0.32498637675E+03  0.32739571203E+03  0.20000009315E+01 0.  0.
        -13    1    3    3    0    0 -0.17290740050E+02 -0.35620745114E+02 -0.23700687050E+03  0.24029164572E+03  0.10566000000E+00 0.  1.
         13    1    4    4    0    0  0.61592080731E+01  0.12686016224E+02 -0.11803050259E+03  0.11887001959E+03  0.10566000000E+00 0. -1.
        -13    1    4    4    0    0  0.53555265982E+01  0.10550797956E+02 -0.90145660209E+02  0.90918932139E+02  0.10566000000E+00 0.  1.
        -14    1    4    4    0    0  0.57760053788E+01  0.12383930935E+02 -0.11681021395E+03  0.11760676030E+03  0.00000000000E+00 0.  1.
<mgrwt>
<rscale>  0 0.80203031E+02</rscale>
<asrwt>0</asrwt>
<pdfrwt beam="1">  1        2 0.86898419E-01 0.80203031E+02</pdfrwt>
<pdfrwt beam="2">  1       -1 0.43800895E-03 0.80203031E+02</pdfrwt>
<totfact> 0.31404266E+05</totfact>
</mgrwt>
</event>
<event>
 8    1  0.1226832E-020  0.8011846E+02  0.7818608E-02  0.1328716E+00
          2   -1    0    0  501    0  0.00000000000E+00  0.00000000000E+00  0.55316824553E+03  0.55316824553E+03  0.25500000000E-02 0. -1.
         -1   -1    0    0    0  501 -0.00000000000E+00 -0.00000000000E+00 -0.29009995267E+01  0.29010039047E+01  0.50400000000E-02 0.  1.
         24    2    1    2    0    0  0.00000000000E+00  0.00000000000E+00  0.55026724600E+03  0.55606924944E+03  0.80118463224E+02 0.  0.
         66    2    3    3    0    0  0.23544454753E+02  0.17236287760E+02  0.46554586162E+03  0.46646369659E+03  0.20000003478E+01 0.  0.
        -13    1    3    3    0    0 -0.23544454753E+02 -0.17236287760E+02  0.84721384377E+02  0.89605552843E+02  0.10566000000E+00 0.  1.
         13    1    4    4    0    0  0.42967272219E+01  0.24891988924E+01  0.79971505570E+02  0.80125594183E+02  0.10566000000E+00 0. -1.
        -13    1    4    4    0    0  0.74367273357E+00  0.33935553511E+00  0.11795920383E+02  0.11824682365E+02  0.10566000000E+00 0.  1.
         14    1    4    4    0    0  0.18504054798E+02  0.14407733333E+02  0.37377843567E+03  0.37451342005E+03  0.00000000000E+00 0. -1.
<mgrwt>
<rscale>  0 0.80118463E+02</rscale>
<asrwt>0</asrwt>
<pdfrwt beam="1">  1        2 0.85102858E-01 0.80118463E+02</pdfrwt>
<pdfrwt beam="2">  1       -1 0.44630769E-03 0.80118463E+02</pdfrwt>
<totfact> 0.31296285E+05</totfact>
</mgrwt>
</event>
<event>
 8    1  0.1226832E-020  0.7884606E+02  0.7818608E-02  0.1332358E+00
         -1   -1    0    0    0  501 -0.00000000000E+00  0.00000000000E+00  0.18401217572E+02  0.18401218262E+02  0.50400000000E-02 0.  1.
          2   -1    0    0  501    0  0.00000000000E+00 -0.00000000000E+00 -0.84460455021E+02  0.84460455059E+02  0.25500000000E-02 0. -1.
         24    2    1    2    0    0 -0.35527136788E-14  0.35527136788E-14 -0.66059237449E+02  0.10286167332E+03  0.78846058786E+02 0.  0.
         66    2    3    3    0    0 -0.24642714285E+02  0.29913355842E+02 -0.42284691259E+02  0.57393965707E+02  0.19999899029E+01 0.  0.
        -13    1    3    3    0    0  0.24642714285E+02 -0.29913355842E+02 -0.23774546190E+02  0.45467707614E+02  0.10566000000E+00 0.  1.
         13    1    4    4    0    0 -0.13478393779E+02  0.15319652941E+02 -0.21871220545E+02  0.29911875856E+02  0.10566000000E+00 0.  1.
        -13    1    4    4    0    0 -0.17334277890E+01  0.28549739215E+01 -0.36444578405E+01  0.49445813755E+01  0.10566000000E+00 0. -1.
         14    1    4    4    0    0 -0.94308927173E+01  0.11738728979E+02 -0.16769012874E+02  0.22537508475E+02  0.00000000000E+00 0. -1.
<mgrwt>
<rscale>  0 0.78846059E+02</rscale>
<asrwt>0</asrwt>
<pdfrwt beam="1">  1        2 0.12993916E-01 0.78846059E+02</pdfrwt>
<pdfrwt beam="2">  1       -1 0.28309567E-02 0.78846059E+02</pdfrwt>
<totfact> 0.17607057E+05</totfact>
</mgrwt>
</event>
<event>
 8    1  0.1226832E-020  0.8017644E+02  0.7818608E-02  0.1328551E+00
         -1   -1    0    0    0  501 -0.00000000000E+00  0.00000000000E+00  0.18183830020E+03  0.18183830027E+03  0.50400000000E-02 0.  1.
          2   -1    0    0  501    0  0.00000000000E+00 -0.00000000000E+00 -0.88378805376E+01  0.88378809055E+01  0.25500000000E-02 0. -1.
         24    2    1    2    0    0 -0.71054273576E-14 -0.17763568394E-14  0.17300041966E+03  0.19067618117E+03  0.80176435841E+02 0.  0.
         66    2    3    3    0    0  0.37872354520E+02  0.90227679200E+01  0.10903199185E+03  0.11579162670E+03  0.19999974404E+01 0.  0.
        -13    1    3    3    0    0 -0.37872354520E+02 -0.90227679200E+01  0.63968427813E+02  0.74884554473E+02  0.10566000000E+00 0.  1.
         13    1    4    4    0    0  0.11717551918E+02  0.29433844869E+01  0.32780288007E+02  0.34935984043E+02  0.10566000000E+00 0. -1.
        -13    1    4    4    0    0  0.36964169715E+00  0.12559497534E+00  0.16635669165E+01  0.17120245335E+01  0.10566000000E+00 0.  1.
        -14    1    4    4    0    0  0.25785160904E+02  0.59537884577E+01  0.74588136923E+02  0.79143618123E+02  0.00000000000E+00 0.  1.
<mgrwt>
<rscale>  0 0.80176436E+02</rscale>
<asrwt>0</asrwt>
<pdfrwt beam="1">  1        2 0.13596741E-02 0.80176436E+02</pdfrwt>
<pdfrwt beam="2">  1       -1 0.27975120E-01 0.80176436E+02</pdfrwt>
<totfact> 0.10185616E+05</totfact>
</mgrwt>
</event>
<event>
 8    1  0.1226832E-020  0.8074034E+02  0.7818608E-02  0.1326963E+00
          2   -1    0    0  501    0  0.00000000000E+00  0.00000000000E+00  0.25450316498E+03  0.25450316499E+03  0.25500000000E-02 0. -1.
         -1   -1    0    0    0  501 -0.00000000000E+00 -0.00000000000E+00 -0.64036542424E+01  0.64036562258E+01  0.50400000000E-02 0.  1.
         24    2    1    2    0    0 -0.35527136788E-14 -0.44408920985E-15  0.24809951074E+03  0.26090682122E+03  0.80740337689E+02 0.  0.
         66    2    3    3    0    0 -0.12868171051E+02 -0.21280528758E+01  0.24749808133E+03  0.24784958887E+03  0.20000008305E+01 0.  0.
        -13    1    3    3    0    0  0.12868171051E+02  0.21280528758E+01  0.60142940317E+00  0.13057232349E+02  0.10566000000E+00 0.  1.
         13    1    4    4    0    0 -0.46787333479E+01 -0.37959479296E+00  0.81933975946E+02  0.82068399621E+02  0.10566000000E+00 0. -1.
        -13    1    4    4    0    0 -0.52005627706E+01 -0.16493029340E+01  0.99689143874E+02  0.99838382518E+02  0.10566000000E+00 0.  1.
         14    1    4    4    0    0 -0.29888749330E+01 -0.99155148769E-01  0.65874961512E+02  0.65942806729E+02  0.00000000000E+00 0. -1.
<mgrwt>
<rscale>  0 0.80740338E+02</rscale>
<asrwt>0</asrwt>
<pdfrwt beam="1">  1        2 0.39154325E-01 0.80740338E+02</pdfrwt>
<pdfrwt beam="2">  1       -1 0.98517794E-03 0.80740338E+02</pdfrwt>
<totfact> 0.23446741E+05</totfact>
</mgrwt>
</event>
<event>
 8    1  0.1226832E-020  0.7833675E+02  0.7818608E-02  0.1333839E+00
         -1   -1    0    0    0  501 -0.00000000000E+00  0.00000000000E+00  0.10939577913E+02  0.10939579074E+02  0.50400000000E-02 0.  1.
          2   -1    0    0  501    0  0.00000000000E+00 -0.00000000000E+00 -0.14023956986E+03  0.14023956989E+03  0.25500000000E-02 0. -1.
         24    2    1    2    0    0  0.17763568394E-14 -0.17763568394E-14 -0.12929999195E+03  0.15117914896E+03  0.78336754861E+02 0.  0.
         66    2    3    3    0    0 -0.14634927540E+02  0.12203449061E+02 -0.13067670497E+03  0.13207386760E+03  0.20000021040E+01 0.  0.
        -13    1    3    3    0    0  0.14634927540E+02 -0.12203449061E+02  0.13767130185E+01  0.19105281360E+02  0.10566000000E+00 0.  1.
         13    1    4    4    0    0 -0.11918703821E+02  0.95548908632E+01 -0.10069007288E+03  0.10184229662E+03  0.10566000000E+00 0. -1.
        -13    1    4    4    0    0 -0.95069458057E+00  0.11870729129E+01 -0.13672212477E+02  0.13756944441E+02  0.10566000000E+00 0.  1.
         14    1    4    4    0    0 -0.17655291381E+01  0.14614852853E+01 -0.16314419612E+02  0.16474626540E+02  0.00000000000E+00 0. -1.
<mgrwt>
<rscale>  0 0.78336755E+02</rscale>
<asrwt>0</asrwt>
<pdfrwt beam="1">  1        2 0.21575317E-01 0.78336755E+02</pdfrwt>
<pdfrwt beam="2">  1       -1 0.16830122E-02 0.78336755E+02</pdfrwt>
<totfact> 0.20728986E+05</totfact>
</mgrwt>
</event>
<event>
 8    1  0.1226832E-020  0.8016035E+02  0.7818608E-02  0.1328597E+00
          2   -1    0    0  501    0  0.00000000000E+00  0.00000000000E+00  0.44003096443E+03  0.44003096444E+03  0.25500000000E-02 0. -1.
         -1   -1    0    0    0  501 -0.00000000000E+00 -0.00000000000E+00 -0.36506968063E+01  0.36507002854E+01  0.50400000000E-02 0.  1.
         24    2    1    2    0    0  0.00000000000E+00  0.00000000000E+00  0.43638026763E+03  0.44368166473E+03  0.80160349550E+02 0.  0.
         66    2    3    3    0    0  0.17759039823E+02 -0.26609798966E+02  0.35173345296E+03  0.35319100613E+03  0.19999952730E+01 0.  0.
        -13    1    3    3    0    0 -0.17759039823E+02  0.26609798966E+02  0.84646814666E+02  0.90490658599E+02  0.10566000000E+00 0.  1.
         13    1    4    4    0    0  0.98197453774E+01 -0.14244587361E+02  0.18932832220E+03  0.19011722810E+03  0.10566000000E+00 0. -1.
        -13    1    4    4    0    0  0.92904003228E+00 -0.81237237890E+00  0.13361996918E+02  0.13419284256E+02  0.10566000000E+00 0.  1.
         14    1    4    4    0    0  0.70102544130E+01 -0.11552839227E+02  0.14904313384E+03  0.14965449377E+03  0.00000000000E+00 0. -1.
<mgrwt>
<rscale>  0 0.80160350E+02</rscale>
<asrwt>0</asrwt>
<pdfrwt beam="1">  1        2 0.67697047E-01 0.80160350E+02</pdfrwt>
<pdfrwt beam="2">  1       -1 0.56164613E-03 0.80160350E+02</pdfrwt>
<totfact> 0.29044939E+05</totfact>
</mgrwt>
</event>
<event>
 8    1  0.1226832E-020  0.7854862E+02  0.7818608E-02  0.1333221E+00
          2   -1    0    0  501    0  0.00000000000E+00  0.00000000000E+00  0.13531172222E+04  0.13531172222E+04  0.25500000000E-02 0. -1.
         -1   -1    0    0    0  501 -0.00000000000E+00 -0.00000000000E+00 -0.11399336370E+01  0.11399447786E+01  0.50400000000E-02 0.  1.
         24    2    1    2    0    0 -0.17763568394E-14  0.00000000000E+00  0.13519772886E+04  0.13542571670E+04  0.78548618889E+02 0.  0.
         66    2    3    3    0    0  0.82174154366E+01 -0.70009096859E+01  0.13270144567E+04  0.13270598731E+04  0.20000007115E+01 0.  0.
        -13    1    3    3    0    0 -0.82174154366E+01  0.70009096859E+01  0.24962831920E+02  0.27197293880E+02  0.10566000000E+00 0.  1.
         13    1    4    4    0    0  0.29625072486E+01 -0.19838978072E+01  0.45654936393E+03  0.45656329810E+03  0.10566000000E+00 0. -1.
        -13    1    4    4    0    0  0.19140051828E+01 -0.20094671786E+01  0.41530152525E+03  0.41531081062E+03  0.10566000000E+00 0.  1.
         14    1    4    4    0    0  0.33409030052E+01 -0.30075447001E+01  0.45516356747E+03  0.45518576439E+03  0.00000000000E+00 0. -1.
<mgrwt>
<rscale>  0 0.78548619E+02</rscale>
<asrwt>0</asrwt>
<pdfrwt beam="1">  1        2 0.20817160E+00 0.78548619E+02</pdfrwt>
<pdfrwt beam="2">  1       -1 0.17537550E-03 0.78548619E+02</pdfrwt>
<totfact> 0.35987579E+05</totfact>
</mgrwt>
</event>
<event>
 8    1  0.1226832E-020  0.8159113E+02  0.7818608E-02  0.1324596E+00
          2   -1    0    0  501    0  0.00000000000E+00  0.00000000000E+00  0.23457855532E+02  0.23457855671E+02  0.25500000000E-02 0. -1.
         -1   -1    0    0    0  501 -0.00000000000E+00 -0.00000000000E+00 -0.70947587614E+02  0.70947587793E+02  0.50400000000E-02 0.  1.
         24    2    1    2    0    0  0.00000000000E+00  0.88817841970E-15 -0.47489732081E+02  0.94405443464E+02  0.81591133724E+02 0.  0.
         66    2    3    3    0    0  0.23996730230E+02 -0.63695776534E+01  0.13659768736E+02  0.28407813237E+02  0.19999974444E+01 0.  0.
        -13    1    3    3    0    0 -0.23996730230E+02  0.63695776534E+01 -0.61149500817E+02  0.65997630226E+02  0.10566000000E+00 0.  1.
         13    1    4    4    0    0  0.10221337618E+02 -0.26825097956E+01  0.53945146398E+01  0.11865224555E+02  0.10566000000E+00 0. -1.
        -13    1    4    4    0    0  0.19278993066E+01 -0.73512377817E+00  0.71121821123E+00  0.21849938410E+01  0.10566000000E+00 0.  1.
        -14    1    4    4    0    0  0.11847493306E+02 -0.29519440796E+01  0.75540358853E+01  0.14357594842E+02  0.00000000000E+00 0.  1.
<mgrwt>
<rscale>  0 0.81591134E+02</rscale>
<asrwt>0</asrwt>
<pdfrwt beam="1">  1        2 0.36089009E-02 0.81591134E+02</pdfrwt>
<pdfrwt beam="2">  1       -1 0.10915013E-01 0.81591134E+02</pdfrwt>
<totfact> 0.12118886E+05</totfact>
</mgrwt>
</event>
<event>
 8    1  0.1226832E-020  0.8006873E+02  0.7818608E-02  0.1328857E+00
         -1   -1    0    0    0  501 -0.00000000000E+00  0.00000000000E+00  0.92312889021E+01  0.92312902780E+01  0.50400000000E-02 0.  1.
          2   -1    0    0  501    0  0.00000000000E+00 -0.00000000000E+00 -0.17362149411E+03  0.17362149413E+03  0.25500000000E-02 0. -1.
         24    2    1    2    0    0 -0.35527136788E-14 -0.88817841970E-15 -0.16439020521E+03  0.18285278441E+03  0.80068727959E+02 0.  0.
         66    2    3    3    0    0 -0.22278110094E+02 -0.56323361028E+01 -0.15704241948E+03  0.15872730994E+03  0.20000007859E+01 0.  0.
        -13    1    3    3    0    0  0.22278110094E+02  0.56323361028E+01 -0.73477857252E+01  0.24125474471E+02  0.10566000000E+00 0.  1.
         13    1    4    4    0    0 -0.96284309358E+01 -0.21571514649E+01 -0.68282510932E+02  0.68991828849E+02  0.10566000000E+00 0. -1.
        -13    1    4    4    0    0 -0.42257924961E+00 -0.31178355878E+00 -0.25777321247E+01  0.26328025281E+01  0.10566000000E+00 0.  1.
        -14    1    4    4    0    0 -0.12227099909E+02 -0.31634010792E+01 -0.86182176427E+02  0.87102678559E+02  0.00000000000E+00 0.  1.
<mgrwt>
<rscale>  0 0.80068728E+02</rscale>
<asrwt>0</asrwt>
<pdfrwt beam="1">  1        2 0.26710997E-01 0.80068728E+02</pdfrwt>
<pdfrwt beam="2">  1       -1 0.14201985E-02 0.80068728E+02</pdfrwt>
<totfact> 0.20969269E+05</totfact>
</mgrwt>
</event>
<event>
 8    1  0.1226832E-020  0.7970897E+02  0.7818608E-02  0.1329879E+00
         -1   -1    0    0    0  501 -0.00000000000E+00  0.00000000000E+00  0.19910905844E+03  0.19910905851E+03  0.50400000000E-02 0.  1.
          2   -1    0    0  501    0  0.00000000000E+00 -0.00000000000E+00 -0.79774365514E+01  0.79774369590E+01  0.25500000000E-02 0. -1.
         24    2    1    2    0    0  0.00000000000E+00  0.00000000000E+00  0.19113162189E+03  0.20708649547E+03  0.79708968865E+02 0.  0.
         66    2    3    3    0    0 -0.37902897251E+02 -0.61880207082E+01  0.68197947588E+02  0.78293558307E+02  0.19999991985E+01 0.  0.
        -13    1    3    3    0    0  0.37902897251E+02  0.61880207082E+01  0.12293367431E+03  0.12879293716E+03  0.10566000000E+00 0.  1.
         13    1    4    4    0    0 -0.95433703460E+01 -0.19303202578E+01  0.18277745850E+02  0.20709640539E+02  0.10566000000E+00 0. -1.
        -13    1    4    4    0    0 -0.20604301808E+02 -0.27946810239E+01  0.35259192859E+02  0.40933718865E+02  0.10566000000E+00 0.  1.
        -14    1    4    4    0    0 -0.77552250967E+01 -0.14630194265E+01  0.14661008878E+02  0.16650198902E+02  0.00000000000E+00 0.  1.
<mgrwt>
<rscale>  0 0.79708969E+02</rscale>
<asrwt>0</asrwt>
<pdfrwt beam="1">  1        2 0.12272981E-02 0.79708969E+02</pdfrwt>
<pdfrwt beam="2">  1       -1 0.30632159E-01 0.79708969E+02</pdfrwt>
<totfact> 0.10066771E+05</totfact>
</mgrwt>
</event>
<event>
 8    1  0.1226832E-020  0.8441969E+02  0.7818608E-02  0.1316957E+00
         -1   -1    0    0    0  501 -0.00000000000E+00  0.00000000000E+00  0.38373354345E+03  0.38373354348E+03  0.50400000000E-02 0.  1.
          2   -1    0    0  501    0  0.00000000000E+00 -0.00000000000E+00 -0.46429899088E+01  0.46429906090E+01  0.25500000000E-02 0. -1.
         24    2    1    2    0    0  0.00000000000E+00  0.00000000000E+00  0.37909055354E+03  0.38837653409E+03  0.84419692307E+02 0.  0.
         66    2    3    3    0    0 -0.36877939698E+02  0.17645513003E+02  0.14177043495E+03  0.14756084437E+03  0.19999997555E+01 0.  0.
        -13    1    3    3    0    0  0.36877939698E+02 -0.17645513003E+02  0.23732011859E+03  0.24081568972E+03  0.10566000000E+00 0.  1.
         13    1    4    4    0    0 -0.14320960014E+02  0.71065839426E+01  0.54786725177E+02  0.57071795580E+02  0.10566000000E+00 0. -1.
        -13    1    4    4    0    0 -0.12877674120E+02  0.54957869433E+01  0.46824363238E+02  0.48873001969E+02  0.10566000000E+00 0.  1.
        -14    1    4    4    0    0 -0.96793055634E+01  0.50431421169E+01  0.40159346539E+02  0.41616046822E+02  0.00000000000E+00 0.  1.
<mgrwt>
<rscale>  0 0.84419692E+02</rscale>
<asrwt>0</asrwt>
<pdfrwt beam="1">  1        2 0.71430627E-03 0.84419692E+02</pdfrwt>
<pdfrwt beam="2">  1       -1 0.59035924E-01 0.84419692E+02</pdfrwt>
<totfact> 0.67391426E+04</totfact>
</mgrwt>
</event>
<event>
 8    1  0.1226832E-020  0.8137994E+02  0.7818608E-02  0.1325180E+00
          2   -1    0    0  501    0  0.00000000000E+00  0.00000000000E+00  0.34505381404E+03  0.34505381405E+03  0.25500000000E-02 0. -1.
         -1   -1    0    0    0  501 -0.00000000000E+00 -0.00000000000E+00 -0.47983043460E+01  0.47983069929E+01  0.50400000000E-02 0.  1.
         24    2    1    2    0    0  0.00000000000E+00  0.00000000000E+00  0.34025550970E+03  0.34985212105E+03  0.81379940531E+02 0.  0.
         66    2    3    3    0    0 -0.21428324704E+02  0.21002815316E+02  0.28822788966E+03  0.28979235280E+03  0.20000034260E+01 0.  0.
        -13    1    3    3    0    0  0.21428324704E+02 -0.21002815316E+02  0.52027620043E+02  0.60059768250E+02  0.10566000000E+00 0.  1.
         13    1    4    4    0    0 -0.11705351208E+02  0.11491052006E+02  0.15331449246E+03  0.15418950771E+03  0.10566000000E+00 0. -1.
        -13    1    4    4    0    0 -0.41640193333E+01  0.39924392704E+01  0.51378685935E+02  0.51701635958E+02  0.10566000000E+00 0.  1.
         14    1    4    4    0    0 -0.55589541625E+01  0.55193240402E+01  0.83534711256E+02  0.83901209133E+02  0.00000000000E+00 0. -1.
<mgrwt>
<rscale>  0 0.81379941E+02</rscale>
<asrwt>0</asrwt>
<pdfrwt beam="1">  1        2 0.53085210E-01 0.81379941E+02</pdfrwt>
<pdfrwt beam="2">  1       -1 0.73820077E-03 0.81379941E+02</pdfrwt>
<totfact> 0.25638300E+05</totfact>
</mgrwt>
</event>
<event>
 8    1  0.1226832E-020  0.7932200E+02  0.7818608E-02  0.1330987E+00
         -1   -1    0    0    0  501 -0.00000000000E+00  0.00000000000E+00  0.16211654194E+02  0.16211654977E+02  0.50400000000E-02 0.  1.
          2   -1    0    0  501    0  0.00000000000E+00 -0.00000000000E+00 -0.97028642985E+02  0.97028643018E+02  0.25500000000E-02 0. -1.
         24    2    1    2    0    0  0.71054273576E-14 -0.35527136788E-14 -0.80816988791E+02  0.11324029800E+03  0.79321998292E+02 0.  0.
         66    2    3    3    0    0  0.22768709650E+02 -0.28985054479E+02 -0.61241996576E+02  0.71506151227E+02  0.19999990973E+01 0.  0.
        -13    1    3    3    0    0 -0.22768709650E+02  0.28985054479E+02 -0.19574992215E+02  0.41734146769E+02  0.10566000000E+00 0.  1.
         13    1    4    4    0    0  0.16099564395E+02 -0.20534925986E+02 -0.44357583259E+02  0.51463438630E+02  0.10566000000E+00 0. -1.
        -13    1    4    4    0    0  0.28694455738E+00 -0.45679949987E+00 -0.11677984483E+01  0.12907053163E+01  0.10566000000E+00 0.  1.
        -14    1    4    4    0    0  0.63822006977E+01 -0.79933289934E+01 -0.15716614868E+02  0.18752007281E+02  0.00000000000E+00 0.  1.
<mgrwt>
<rscale>  0 0.79321998E+02</rscale>
<asrwt>0</asrwt>
<pdfrwt beam="1">  1        2 0.14927483E-01 0.79321998E+02</pdfrwt>
<pdfrwt beam="2">  1       -1 0.24941008E-02 0.79321998E+02</pdfrwt>
<totfact> 0.17983155E+05</totfact>
</mgrwt>
</event>
<event>
 8    1  0.1226832E-020  0.8006019E+02  0.7818608E-02  0.1328881E+00
          2   -1    0    0  501    0  0.00000000000E+00  0.00000000000E+00  0.19424076126E+03  0.19424076128E+03  0.25500000000E-02 0. -1.
         -1   -1    0    0    0  501 -0.00000000000E+00 -0.00000000000E+00 -0.82495992746E+01  0.82496008141E+01  0.50400000000E-02 0.  1.
         24    2    1    2    0    0  0.00000000000E+00 -0.35527136788E-14  0.18599116199E+03  0.20249036209E+03  0.80060192375E+02 0.  0.
         66    2    3    3    0    0 -0.16377399467E+02  0.29371278473E+02  0.14785732964E+03  0.15164656654E+03  0.20000008902E+01 0.  0.
        -13    1    3    3    0    0  0.16377399467E+02 -0.29371278473E+02  0.38133832350E+02  0.50843795552E+02  0.10566000000E+00 0.  1.
         13    1    4    4    0    0 -0.24486071194E+01  0.36700373993E+01  0.21617084361E+02  0.22062963347E+02  0.10566000000E+00 0.  1.
        -13    1    4    4    0    0 -0.11206507907E+01  0.23479752293E+01  0.12065367675E+02  0.12343140080E+02  0.10566000000E+00 0. -1.
         14    1    4    4    0    0 -0.12808141557E+02  0.23353265845E+02  0.11417487760E+03  0.11724046311E+03  0.00000000000E+00 0. -1.
<mgrwt>
<rscale>  0 0.80060192E+02</rscale>
<asrwt>0</asrwt>
<pdfrwt beam="1">  1        2 0.29883195E-01 0.80060192E+02</pdfrwt>
<pdfrwt beam="2">  1       -1 0.12691692E-02 0.80060192E+02</pdfrwt>
<totfact> 0.21793176E+05</totfact>
</mgrwt>
</event>
<event>
 8    1  0.1226832E-020  0.7392930E+02  0.7818608E-02  0.1347219E+00
         -1   -1    0    0    0  501 -0.00000000000E+00  0.00000000000E+00  0.64113811372E+02  0.64113811570E+02  0.50400000000E-02 0.  1.
          2   -1    0    0  501    0  0.00000000000E+00 -0.00000000000E+00 -0.21311869726E+02  0.21311869879E+02  0.25500000000E-02 0. -1.
         24    2    1    2    0    0 -0.35527136788E-14  0.44408920985E-15  0.42801941646E+02  0.85425681448E+02  0.73929296238E+02 0.  0.
         66    2    3    3    0    0  0.31051090311E+02 -0.36921146893E+01 -0.13024878975E+01  0.31360777955E+02  0.19999997085E+01 0.  0.
        -13    1    3    3    0    0 -0.31051090311E+02  0.36921146893E+01  0.44104429543E+02  0.54064903493E+02  0.10566000000E+00 0.  1.
         13    1    4    4    0    0  0.14600766851E+02 -0.26449816770E+01 -0.83215693855E+00  0.14862098436E+02  0.10566000000E+00 0. -1.
        -13    1    4    4    0    0  0.13987878818E+01 -0.86535165701E-02  0.29030713269E-01  0.14030998680E+01  0.10566000000E+00 0.  1.
         14    1    4    4    0    0  0.15051535578E+02 -0.10384794958E+01 -0.49936167218E+00  0.15095579651E+02  0.00000000000E+00 0. -1.
<mgrwt>
<rscale>  0 0.73929296E+02</rscale>
<asrwt>0</asrwt>
<pdfrwt beam="1">  1        2 0.32787492E-02 0.73929296E+02</pdfrwt>
<pdfrwt beam="2">  1       -1 0.98636634E-02 0.73929296E+02</pdfrwt>
<totfact> 0.15730604E+05</totfact>
</mgrwt>
</event>
<event>
 8    1  0.1226832E-020  0.7658473E+02  0.7818608E-02  0.1339033E+00
          2   -1    0    0  501    0  0.00000000000E+00  0.00000000000E+00  0.91044363750E+02  0.91044363785E+02  0.25500000000E-02 0. -1.
         -1   -1    0    0    0  501 -0.00000000000E+00 -0.00000000000E+00 -0.16105391451E+02  0.16105392240E+02  0.50400000000E-02 0.  1.
         24    2    1    2    0    0  0.00000000000E+00  0.00000000000E+00  0.74938972299E+02  0.10714975602E+03  0.76584728550E+02 0.  0.
         66    2    3    3    0    0  0.10255010257E+02  0.36716940330E+02  0.32854398508E+02  0.50365766576E+02  0.19999997322E+01 0.  0.
        -13    1    3    3    0    0 -0.10255010257E+02 -0.36716940330E+02  0.42084573790E+02  0.56783989449E+02  0.10566000000E+00 0.  1.
         13    1    4    4    0    0  0.37653640505E+01  0.13380440680E+02  0.11727162370E+02  0.18186579132E+02  0.10566000000E+00 0. -1.
        -13    1    4    4    0    0  0.50649650555E+00  0.10669689336E+01  0.72494375421E+00  0.13898449186E+01  0.10566000000E+00 0.  1.
        -14    1    4    4    0    0  0.59831497011E+01  0.22269530716E+02  0.20402292384E+02  0.30789342526E+02  0.00000000000E+00 0.  1.
<mgrwt>
<rscale>  0 0.76584729E+02</rscale>
<asrwt>0</asrwt>
<pdfrwt beam="1">  1        2 0.14006825E-01 0.76584729E+02</pdfrwt>
<pdfrwt beam="2">  1       -1 0.24777526E-02 0.76584729E+02</pdfrwt>
<totfact> 0.19415703E+05</totfact>
</mgrwt>
</event>
<event>
 8    1  0.1226832E-020  0.7962729E+02  0.7818608E-02  0.1330112E+00
         -1   -1    0    0    0  501 -0.00000000000E+00  0.00000000000E+00  0.13274788540E+02  0.13274789496E+02  0.50400000000E-02 0.  1.
          2   -1    0    0  501    0  0.00000000000E+00 -0.00000000000E+00 -0.11940877948E+03  0.11940877950E+03  0.25500000000E-02 0. -1.
         24    2    1    2    0    0  0.17763568394E-14  0.35527136788E-14 -0.10613399094E+03  0.13268356900E+03  0.79627290865E+02 0.  0.
         66    2    3    3    0    0 -0.11393668709E+02 -0.26837386286E+02 -0.98215808982E+02  0.10247148932E+03  0.19999998915E+01 0.  0.
        -13    1    3    3    0    0  0.11393668709E+02  0.26837386286E+02 -0.79181819558E+01  0.30212079684E+02  0.10566000000E+00 0.  1.
         13    1    4    4    0    0 -0.26152315487E+01 -0.55231859739E+01 -0.21755140741E+02  0.22597396577E+02  0.10566000000E+00 0.  1.
        -13    1    4    4    0    0 -0.72151884829E+01 -0.16056506438E+02 -0.57181129187E+02  0.59829449629E+02  0.10566000000E+00 0. -1.
         14    1    4    4    0    0 -0.15632486771E+01 -0.52576938740E+01 -0.19279539055E+02  0.20044643111E+02  0.00000000000E+00 0. -1.
<mgrwt>
<rscale>  0 0.79627291E+02</rscale>
<asrwt>0</asrwt>
<pdfrwt beam="1">  1        2 0.18370581E-01 0.79627291E+02</pdfrwt>
<pdfrwt beam="2">  1       -1 0.20422753E-02 0.79627291E+02</pdfrwt>
<totfact> 0.18892780E+05</totfact>
</mgrwt>
</event>
<event>
 8    1  0.1226832E-020  0.7969355E+02  0.7818608E-02  0.1329923E+00
         -1   -1    0    0    0  501 -0.00000000000E+00  0.00000000000E+00  0.14884137578E+01  0.14884222909E+01  0.50400000000E-02 0.  1.
          2   -1    0    0  501    0  0.00000000000E+00 -0.00000000000E+00 -0.10667468845E+04  0.10667468845E+04  0.25500000000E-02 0. -1.
         24    2    1    2    0    0  0.00000000000E+00  0.00000000000E+00 -0.10652584708E+04  0.10682353068E+04  0.79693545492E+02 0.  0.
         66    2    3    3    0    0 -0.27510750683E+02 -0.81690768867E+01 -0.90302534838E+03  0.90348345589E+03  0.20000083088E+01 0.  0.
        -13    1    3    3    0    0  0.27510750683E+02  0.81690768867E+01 -0.16223312238E+03  0.16475185092E+03  0.10566000000E+00 0.  1.
         13    1    4    4    0    0 -0.10301436305E+02 -0.31904533867E+01 -0.35951180649E+03  0.35967353079E+03  0.10566000000E+00 0. -1.
        -13    1    4    4    0    0 -0.13041874488E+02 -0.42501128606E+01 -0.41061414457E+03  0.41084320712E+03  0.10566000000E+00 0.  1.
         14    1    4    4    0    0 -0.41674398899E+01 -0.72851063934E+00 -0.13289939732E+03  0.13296671798E+03  0.00000000000E+00 0. -1.
<mgrwt>
<rscale>  0 0.79693545E+02</rscale>
<asrwt>0</asrwt>
<pdfrwt beam="1">  1        2 0.16411429E+00 0.79693545E+02</pdfrwt>
<pdfrwt beam="2">  1       -1 0.22898824E-03 0.79693545E+02</pdfrwt>
<totfact> 0.35625594E+05</totfact>
</mgrwt>
</event>
<event>
 8    1  0.1226832E-020  0.8057777E+02  0.7818608E-02  0.1327420E+00
         -1   -1    0    0    0  501 -0.00000000000E+00  0.00000000000E+00  0.16336625575E+02  0.16336626353E+02  0.50400000000E-02 0.  1.
          2   -1    0    0  501    0  0.00000000000E+00 -0.00000000000E+00 -0.99359205979E+02  0.99359206011E+02  0.25500000000E-02 0. -1.
         24    2    1    2    0    0  0.00000000000E+00  0.00000000000E+00 -0.83022580403E+02  0.11569583236E+03  0.80577768458E+02 0.  0.
         66    2    3    3    0    0 -0.96853074189E+01 -0.22804619960E+02 -0.87107847924E+02  0.90584949343E+02  0.20000015645E+01 0.  0.
        -13    1    3    3    0    0  0.96853074189E+01  0.22804619960E+02  0.40852675210E+01  0.25110883021E+02  0.10566000000E+00 0.  1.
         13    1    4    4    0    0 -0.11200801795E+01 -0.25360517577E+01 -0.80018917059E+01  0.84692132476E+01  0.10566000000E+00 0. -1.
        -13    1    4    4    0    0 -0.50875725671E+01 -0.11584836725E+02 -0.47235081898E+02  0.48900469962E+02  0.10566000000E+00 0. -1.
        -14    1    4    4    0    0 -0.34776546723E+01 -0.86837314778E+01 -0.31870874320E+02  0.33215266134E+02  0.00000000000E+00 0.  1.
<mgrwt>
<rscale>  0 0.80577768E+02</rscale>
<asrwt>0</asrwt>
<pdfrwt beam="1">  1        2 0.15286031E-01 0.80577768E+02</pdfrwt>
<pdfrwt beam="2">  1       -1 0.25133272E-02 0.80577768E+02</pdfrwt>
<totfact> 0.17355995E+05</totfact>
</mgrwt>
</event>
<event>
 8    1  0.1226832E-020  0.8051160E+02  0.7818608E-02  0.1327606E+00
          2   -1    0    0  501    0  0.00000000000E+00  0.00000000000E+00  0.33031753026E+03  0.33031753027E+03  0.25500000000E-02 0. -1.
         -1   -1    0    0    0  501 -0.00000000000E+00 -0.00000000000E+00 -0.49059734785E+01  0.49059760674E+01  0.50400000000E-02 0.  1.
         24    2    1    2    0    0  0.17763568394E-14  0.00000000000E+00  0.32541155678E+03  0.33522350634E+03  0.80511601115E+02 0.  0.
         66    2    3    3    0    0  0.99012268632E+01  0.12337799455E+02  0.31682044426E+03  0.31722145181E+03  0.19999995100E+01 0.  0.
        -13    1    3    3    0    0 -0.99012268632E+01 -0.12337799455E+02  0.85911125190E+01  0.18002054526E+02  0.10566000000E+00 0.  1.
         13    1    4    4    0    0  0.18455876777E+01  0.14180280089E+01  0.42347920337E+02  0.42411961971E+02  0.10566000000E+00 0. -1.
        -13    1    4    4    0    0  0.73840901023E+01  0.97883674336E+01  0.24225288999E+03  0.24256300377E+03  0.10566000000E+00 0.  1.
        -14    1    4    4    0    0  0.67154908317E+00  0.11314040125E+01  0.32219633937E+02  0.32246486076E+02  0.00000000000E+00 0.  1.
<mgrwt>
<rscale>  0 0.80511601E+02</rscale>
<asrwt>0</asrwt>
<pdfrwt beam="1">  1        2 0.50818060E-01 0.80511601E+02</pdfrwt>
<pdfrwt beam="2">  1       -1 0.75476568E-03 0.80511601E+02</pdfrwt>
<totfact> 0.25959177E+05</totfact>
</mgrwt>
</event>
<event>
 8    1  0.1226832E-020  0.7743671E+02  0.7818608E-02  0.1336487E+00
         -1   -1    0    0    0  501 -0.00000000000E+00  0.00000000000E+00  0.35392164217E+01  0.35392200103E+01  0.50400000000E-02 0.  1.
          2   -1    0    0  501    0  0.00000000000E+00 -0.00000000000E+00 -0.42357118839E+03  0.42357118839E+03  0.25500000000E-02 0. -1.
         24    2    1    2    0    0  0.00000000000E+00  0.00000000000E+00 -0.42003197196E+03  0.42711040840E+03  0.77436706379E+02 0.  0.
         66    2    3    3    0    0 -0.24105543597E+02 -0.22584692988E+02 -0.32128665743E+03  0.32298647313E+03  0.19999989775E+01 0.  0.
        -13    1    3    3    0    0  0.24105543597E+02  0.22584692988E+02 -0.98745314535E+02  0.10412393527E+03  0.10566000000E+00 0.  1.
         13    1    4    4    0    0 -0.66046498299E+01 -0.72840211643E+01 -0.91970036161E+02  0.92494200247E+02  0.10566000000E+00 0.  1.
        -13    1    4    4    0    0 -0.25720657052E+01 -0.21086065211E+01 -0.32405229684E+02  0.32575632279E+02  0.10566000000E+00 0. -1.
        -14    1    4    4    0    0 -0.14928828062E+02 -0.13192065303E+02 -0.19691139158E+03  0.19791664061E+03  0.00000000000E+00 0.  1.
<mgrwt>
<rscale>  0 0.77436706E+02</rscale>
<asrwt>0</asrwt>
<pdfrwt beam="1">  1        2 0.65164758E-01 0.77436706E+02</pdfrwt>
<pdfrwt beam="2">  1       -1 0.54449545E-03 0.77436706E+02</pdfrwt>
<totfact> 0.31372891E+05</totfact>
</mgrwt>
</event>
<event>
 8    1  0.1226832E-020  0.8079796E+02  0.7818608E-02  0.1326802E+00
         -1   -1    0    0    0  501 -0.00000000000E+00  0.00000000000E+00  0.83843736527E+01  0.83843751675E+01  0.50400000000E-02 0.  1.
          2   -1    0    0  501    0  0.00000000000E+00 -0.00000000000E+00 -0.19465702941E+03  0.19465702942E+03  0.25500000000E-02 0. -1.
         24    2    1    2    0    0  0.00000000000E+00 -0.35527136788E-14 -0.18627265575E+03  0.20304140459E+03  0.80797956017E+02 0.  0.
         66    2    3    3    0    0  0.13818240695E+02  0.22248154606E+02 -0.17040870854E+03  0.17242114749E+03  0.19999997454E+01 0.  0.
        -13    1    3    3    0    0 -0.13818240695E+02 -0.22248154606E+02 -0.15863947217E+02  0.30620257096E+02  0.10566000000E+00 0.  1.
         13    1    4    4    0    0  0.69109343906E+01  0.11243001774E+02 -0.85076696307E+02  0.86094259516E+02  0.10566000000E+00 0. -1.
        -13    1    4    4    0    0  0.59255204054E+01  0.85062715671E+01 -0.65979511937E+02  0.66789038079E+02  0.10566000000E+00 0.  1.
        -14    1    4    4    0    0  0.98178589934E+00  0.24988812649E+01 -0.19352500292E+02  0.19537849899E+02  0.00000000000E+00 0.  1.
<mgrwt>
<rscale>  0 0.80797956E+02</rscale>
<asrwt>0</asrwt>
<pdfrwt beam="1">  1        2 0.29947232E-01 0.80797956E+02</pdfrwt>
<pdfrwt beam="2">  1       -1 0.12899039E-02 0.80797956E+02</pdfrwt>
<totfact> 0.21287222E+05</totfact>
</mgrwt>
</event>
<event>
 8    1  0.1226832E-020  0.8046771E+02  0.7818608E-02  0.1327729E+00
         -1   -1    0    0    0  501 -0.00000000000E+00  0.00000000000E+00  0.46676509544E+01  0.46676536755E+01  0.50400000000E-02 0.  1.
          2   -1    0    0  501    0  0.00000000000E+00 -0.00000000000E+00 -0.34680457339E+03  0.34680457340E+03  0.25500000000E-02 0. -1.
         24    2    1    2    0    0 -0.71054273576E-14 -0.17763568394E-14 -0.34213692243E+03  0.35147222707E+03  0.80467712228E+02 0.  0.
         66    2    3    3    0    0 -0.37881112253E+02  0.11384741453E+02 -0.20272157714E+03  0.20655417896E+03  0.20000003292E+01 0.  0.
        -13    1    3    3    0    0  0.37881112253E+02 -0.11384741453E+02 -0.13941534529E+03  0.14491804812E+03  0.10566000000E+00 0.  1.
         13    1    4    4    0    0 -0.13950402011E+02  0.43871208458E+01 -0.73112954827E+02  0.74561222315E+02  0.10566000000E+00 0. -1.
        -13    1    4    4    0    0 -0.15789747491E+01  0.13884459323E+00 -0.89747202121E+01  0.91142309604E+01  0.10566000000E+00 0.  1.
        -14    1    4    4    0    0 -0.22351735493E+02  0.68587760139E+01 -0.12063390210E+03  0.12287872568E+03  0.00000000000E+00 0.  1.
<mgrwt>
<rscale>  0 0.80467712E+02</rscale>
<asrwt>0</asrwt>
<pdfrwt beam="1">  1        2 0.53354530E-01 0.80467712E+02</pdfrwt>
<pdfrwt beam="2">  1       -1 0.71810063E-03 0.80467712E+02</pdfrwt>
<totfact> 0.26454655E+05</totfact>
</mgrwt>
</event>
<event>
 8    1  0.1226832E-020  0.8002312E+02  0.7818608E-02  0.1328986E+00
         -1   -1    0    0    0  501 -0.00000000000E+00  0.00000000000E+00  0.49650619004E+01  0.49650644585E+01  0.50400000000E-02 0.  1.
          2   -1    0    0  501    0  0.00000000000E+00 -0.00000000000E+00 -0.32243799469E+03  0.32243799470E+03  0.25500000000E-02 0. -1.
         24    2    1    2    0    0 -0.44408920985E-15  0.00000000000E+00 -0.31747293279E+03  0.32740305916E+03  0.80023122235E+02 0.  0.
         66    2    3    3    0    0  0.33875541123E+01 -0.14234305563E+02 -0.31108815692E+03  0.31143848887E+03  0.19999976265E+01 0.  0.
        -13    1    3    3    0    0 -0.33875541123E+01  0.14234305563E+02 -0.63847758629E+01  0.15964570291E+02  0.10566000000E+00 0.  1.
         13    1    4    4    0    0  0.21520325302E+01 -0.87239130158E+01 -0.20034669262E+03  0.20054811470E+03  0.10566000000E+00 0. -1.
        -13    1    4    4    0    0 -0.22980709806E-01 -0.70810952853E+00 -0.20441440087E+02  0.20453986997E+02  0.10566000000E+00 0.  1.
         14    1    4    4    0    0  0.12585022920E+01 -0.48022830182E+01 -0.90300024218E+02  0.90436387168E+02  0.00000000000E+00 0. -1.
<mgrwt>
<rscale>  0 0.80023122E+02</rscale>
<asrwt>0</asrwt>
<pdfrwt beam="1">  1        2 0.49605829E-01 0.80023122E+02</pdfrwt>
<pdfrwt beam="2">  1       -1 0.76385613E-03 0.80023122E+02</pdfrwt>
<totfact> 0.26147961E+05</totfact>
</mgrwt>
</event>
<event>
 8    1  0.1226832E-020  0.7973727E+02  0.7818608E-02  0.1329799E+00
          2   -1    0    0  501    0  0.00000000000E+00  0.00000000000E+00  0.50383322060E+02  0.50383322125E+02  0.25500000000E-02 0. -1.
         -1   -1    0    0    0  501 -0.00000000000E+00 -0.00000000000E+00 -0.31548295507E+02  0.31548295910E+02  0.50400000000E-02 0.  1.
         24    2    1    2    0    0  0.00000000000E+00  0.00000000000E+00  0.18835026553E+02  0.81931618035E+02  0.79737267376E+02 0.  0.
         66    2    3    3    0    0  0.36664458384E+02  0.11532906462E+02  0.20210546881E+02  0.43471331241E+02  0.19999986333E+01 0.  0.
        -13    1    3    3    0    0 -0.36664458384E+02 -0.11532906462E+02 -0.13755203285E+01  0.38460286794E+02  0.10566000000E+00 0.  1.
         13    1    4    4    0    0  0.10903510018E+02  0.35346437106E+01  0.57395456907E+01  0.12819273991E+02  0.10566000000E+00 0. -1.
        -13    1    4    4    0    0  0.22027040945E+02  0.65784602926E+01  0.11738830614E+02  0.25812361009E+02  0.10566000000E+00 0.  1.
         14    1    4    4    0    0  0.37339074205E+01  0.14198024591E+01  0.27321705760E+01  0.48396962409E+01  0.00000000000E+00 0. -1.
<mgrwt>
<rscale>  0 0.79737267E+02</rscale>
<asrwt>0</asrwt>
<pdfrwt beam="1">  1        2 0.77512803E-02 0.79737267E+02</pdfrwt>
<pdfrwt beam="2">  1       -1 0.48535840E-02 0.79737267E+02</pdfrwt>
<totfact> 0.15103301E+05</totfact>
</mgrwt>
</event>
<event>
 8    1  0.1226832E-020  0.7972244E+02  0.7818608E-02  0.1329841E+00
          2   -1    0    0  501    0  0.00000000000E+00  0.00000000000E+00  0.95937766556E+02  0.95937766590E+02  0.25500000000E-02 0. -1.
         -1   -1    0    0    0  501 -0.00000000000E+00 -0.00000000000E+00 -0.16561955284E+02  0.16561956051E+02  0.50400000000E-02 0.  1.
         24    2    1    2    0    0  0.00000000000E+00  0.35527136788E-14  0.79375811272E+02  0.11249972264E+03  0.79722444638E+02 0.  0.
         66    2    3    3    0    0  0.89992071010E+01 -0.19424439130E+02  0.87120006620E+02  0.89733996437E+02  0.19999997569E+01 0.  0.
        -13    1    3    3    0    0 -0.89992071010E+01  0.19424439130E+02 -0.77441953483E+01  0.22765726204E+02  0.10566000000E+00 0.  1.
         13    1    4    4    0    0  0.51713478442E+01 -0.10282206559E+02  0.49692397869E+02  0.51007961930E+02  0.10566000000E+00 0. -1.
        -13    1    4    4    0    0  0.32063207713E+01 -0.67720962891E+01  0.28246757705E+02  0.29223830446E+02  0.10566000000E+00 0.  1.
        -14    1    4    4    0    0  0.62153848556E+00 -0.23701362816E+01  0.91808510466E+01  0.95022040613E+01  0.00000000000E+00 0.  1.
<mgrwt>
<rscale>  0 0.79722445E+02</rscale>
<asrwt>0</asrwt>
<pdfrwt beam="1">  1        2 0.14759656E-01 0.79722445E+02</pdfrwt>
<pdfrwt beam="2">  1       -1 0.25479932E-02 0.79722445E+02</pdfrwt>
<totfact> 0.17686915E+05</totfact>
</mgrwt>
</event>
<event>
 8    1  0.1226832E-020  0.8137683E+02  0.7818608E-02  0.1325189E+00
         -1   -1    0    0    0  501 -0.00000000000E+00  0.00000000000E+00  0.81914516152E+01  0.81914531657E+01  0.50400000000E-02 0.  1.
          2   -1    0    0  501    0  0.00000000000E+00 -0.00000000000E+00 -0.20210666306E+03  0.20210666307E+03  0.25500000000E-02 0. -1.
         24    2    1    2    0    0  0.17763568394E-14  0.00000000000E+00 -0.19391521144E+03  0.21029811624E+03  0.81376830026E+02 0.  0.
         66    2    3    3    0    0 -0.15223437171E+02 -0.52709738342E+01 -0.19350259021E+03  0.19418235920E+03  0.20000004856E+01 0.  0.
        -13    1    3    3    0    0  0.15223437171E+02  0.52709738342E+01 -0.41262122707E+00  0.16115757034E+02  0.10566000000E+00 0.  1.
         13    1    4    4    0    0 -0.28770864456E+01 -0.64067609344E+00 -0.41155484242E+02  0.41261036578E+02  0.10566000000E+00 0. -1.
        -13    1    4    4    0    0 -0.83653677447E+01 -0.33161360750E+01 -0.10979966929E+03  0.11016784775E+03  0.10566000000E+00 0.  1.
         14    1    4    4    0    0 -0.39809829812E+01 -0.13141616658E+01 -0.42547436676E+02  0.42753474877E+02  0.00000000000E+00 0. -1.
<mgrwt>
<rscale>  0 0.81376830E+02</rscale>
<asrwt>0</asrwt>
<pdfrwt beam="1">  1        2 0.31093329E-01 0.81376830E+02</pdfrwt>
<pdfrwt beam="2">  1       -1 0.12602236E-02 0.81376830E+02</pdfrwt>
<totfact> 0.21163656E+05</totfact>
</mgrwt>
</event>
<event>
 8    1  0.1226832E-020  0.8113473E+02  0.7818608E-02  0.1325862E+00
          2   -1    0    0  501    0  0.00000000000E+00  0.00000000000E+00  0.97553015539E+01  0.97553018872E+01  0.25500000000E-02 0. -1.
         -1   -1    0    0    0  501 -0.00000000000E+00 -0.00000000000E+00 -0.16869913680E+03  0.16869913687E+03  0.50400000000E-02 0.  1.
         24    2    1    2    0    0  0.35527136788E-14 -0.44408920985E-15 -0.15894383524E+03  0.17845443876E+03  0.81134727159E+02 0.  0.
         66    2    3    3    0    0 -0.31379392789E+02  0.22284508774E+01 -0.23268598168E+02  0.39179841634E+02  0.20000111520E+01 0.  0.
        -13    1    3    3    0    0  0.31379392789E+02 -0.22284508774E+01 -0.13567523707E+03  0.13927459712E+03  0.10566000000E+00 0.  1.
         13    1    4    4    0    0 -0.16092799469E+02  0.54481820448E+00 -0.11610120911E+02  0.19851475845E+02  0.10566000000E+00 0. -1.
        -13    1    4    4    0    0 -0.43445822954E+00  0.37367344289E-01 -0.17136116341E+00  0.48029049081E+00  0.10566000000E+00 0.  1.
        -14    1    4    4    0    0 -0.14852135090E+02  0.16462653287E+01 -0.11487116094E+02  0.18848075298E+02  0.00000000000E+00 0.  1.
<mgrwt>
<rscale>  0 0.81134727E+02</rscale>
<asrwt>0</asrwt>
<pdfrwt beam="1">  1        2 0.15008158E-02 0.81134727E+02</pdfrwt>
<pdfrwt beam="2">  1       -1 0.25953711E-01 0.81134727E+02</pdfrwt>
<totfact> 0.10091840E+05</totfact>
</mgrwt>
</event>
<event>
 8    1  0.1299743E-020  0.7939482E+02  0.7818608E-02  0.1330778E+00
         -1   -1    0    0    0  501 -0.00000000000E+00  0.00000000000E+00  0.65603632475E+01  0.65603651835E+01  0.50400000000E-02 0.  1.
          2   -1    0    0  501    0  0.00000000000E+00 -0.00000000000E+00 -0.24021295321E+03  0.24021295322E+03  0.25500000000E-02 0. -1.
         24    2    1    2    0    0  0.00000000000E+00  0.00000000000E+00 -0.23365258996E+03  0.24677331840E+03  0.79394822762E+02 0.  0.
         66    2    3    3    0    0 -0.10944055992E+02 -0.10097183183E+02 -0.23119308287E+03  0.23168074377E+03  0.20000000443E+01 0.  0.
        -13    1    3    3    0    0  0.10944055992E+02  0.10097183183E+02 -0.24595070917E+01  0.15092574630E+02  0.10566000000E+00 0.  1.
         13    1    4    4    0    0 -0.65781899973E+01 -0.60223474961E+01 -0.14333451597E+03  0.14361175400E+03  0.10566000000E+00 0. -1.
        -13    1    4    4    0    0 -0.22533014311E+01 -0.27762385492E+01 -0.47710097618E+02  0.47844011606E+02  0.10566000000E+00 0.  1.
        -14    1    4    4    0    0 -0.21125645631E+01 -0.12985971380E+01 -0.40148469278E+02  0.40224978172E+02  0.00000000000E+00 0.  1.
<mgrwt>
<rscale>  0 0.79394823E+02</rscale>
<asrwt>0</asrwt>
<pdfrwt beam="1">  1        2 0.36955832E-01 0.79394823E+02</pdfrwt>
<pdfrwt beam="2">  1       -1 0.10092870E-02 0.79394823E+02</pdfrwt>
<totfact> 0.24004570E+05</totfact>
</mgrwt>
</event>
<event>
 8    1  0.1226832E-020  0.8061897E+02  0.7818608E-02  0.1327304E+00
         -1   -1    0    0    0  501 -0.00000000000E+00  0.00000000000E+00  0.95237601016E+01  0.95237614352E+01  0.50400000000E-02 0.  1.
          2   -1    0    0  501    0  0.00000000000E+00 -0.00000000000E+00 -0.17061058818E+03  0.17061058820E+03  0.25500000000E-02 0. -1.
         24    2    1    2    0    0  0.00000000000E+00  0.00000000000E+00 -0.16108682808E+03  0.18013434964E+03  0.80618966366E+02 0.  0.
         66    2    3    3    0    0 -0.21891128458E+02 -0.25756628969E+02 -0.12955733722E+03  0.13390940616E+03  0.19999977089E+01 0.  0.
        -13    1    3    3    0    0  0.21891128458E+02  0.25756628969E+02 -0.31529490861E+02  0.46224943472E+02  0.10566000000E+00 0.  1.
         13    1    4    4    0    0 -0.48560358303E+01 -0.53518450292E+01 -0.30038985575E+02  0.30896199566E+02  0.10566000000E+00 0. -1.
        -13    1    4    4    0    0 -0.54073995394E+01 -0.65136585824E+01 -0.29726323586E+02  0.30908464793E+02  0.10566000000E+00 0.  1.
         14    1    4    4    0    0 -0.11627693088E+02 -0.13891125357E+02 -0.69792028057E+02  0.72104741804E+02  0.00000000000E+00 0. -1.
<mgrwt>
<rscale>  0 0.80618966E+02</rscale>
<asrwt>0</asrwt>
<pdfrwt beam="1">  1        2 0.26247781E-01 0.80618966E+02</pdfrwt>
<pdfrwt beam="2">  1       -1 0.14651941E-02 0.80618966E+02</pdfrwt>
<totfact> 0.20472240E+05</totfact>
</mgrwt>
</event>
<event>
 8    1  0.1226832E-020  0.8138804E+02  0.7818608E-02  0.1325158E+00
         -1   -1    0    0    0  501 -0.00000000000E+00  0.00000000000E+00  0.37449285488E+02  0.37449285827E+02  0.50400000000E-02 0.  1.
          2   -1    0    0  501    0  0.00000000000E+00 -0.00000000000E+00 -0.44219887302E+02  0.44219887376E+02  0.25500000000E-02 0. -1.
         24    2    1    2    0    0  0.35527136788E-14  0.00000000000E+00 -0.67706018143E+01  0.81669173203E+02  0.81388038450E+02 0.  0.
         66    2    3    3    0    0 -0.30840603733E+02 -0.10598871688E+02 -0.27771882784E+02  0.42880722782E+02  0.19999983234E+01 0.  0.
        -13    1    3    3    0    0  0.30840603733E+02  0.10598871688E+02  0.21001280969E+02  0.38788450421E+02  0.10566000000E+00 0.  1.
         13    1    4    4    0    0 -0.10495760779E+02 -0.33835852146E+01 -0.86269303902E+01  0.14001597596E+02  0.10566000000E+00 0. -1.
        -13    1    4    4    0    0 -0.11892429072E+01 -0.23136254842E+00 -0.83348189461E+00  0.14743416922E+01  0.10566000000E+00 0.  1.
         14    1    4    4    0    0 -0.19155600047E+02 -0.69839239248E+01 -0.18311470499E+02  0.27404783494E+02  0.00000000000E+00 0. -1.
<mgrwt>
<rscale>  0 0.81388038E+02</rscale>
<asrwt>0</asrwt>
<pdfrwt beam="1">  1        2 0.68030596E-02 0.81388038E+02</pdfrwt>
<pdfrwt beam="2">  1       -1 0.57614285E-02 0.81388038E+02</pdfrwt>
<totfact> 0.13881499E+05</totfact>
</mgrwt>
</event>
<event>
 8    1  0.1226832E-020  0.8163121E+02  0.7818608E-02  0.1324485E+00
         -1   -1    0    0    0  501 -0.00000000000E+00  0.00000000000E+00  0.74594532086E+01  0.74594549113E+01  0.50400000000E-02 0.  1.
          2   -1    0    0  501    0  0.00000000000E+00 -0.00000000000E+00 -0.22332913701E+03  0.22332913702E+03  0.25500000000E-02 0. -1.
         24    2    1    2    0    0  0.00000000000E+00  0.00000000000E+00 -0.21586968380E+03  0.23078859193E+03  0.81631205940E+02 0.  0.
         66    2    3    3    0    0  0.26607964443E+01 -0.21213699827E+02 -0.20621429655E+03  0.20732929601E+03  0.19999967269E+01 0.  0.
        -13    1    3    3    0    0 -0.26607964443E+01  0.21213699827E+02 -0.96553872524E+01  0.23459295921E+02  0.10566000000E+00 0.  1.
         13    1    4    4    0    0  0.17192768876E+01 -0.12488516413E+02 -0.11469175274E+03  0.11538253015E+03  0.10566000000E+00 0. -1.
        -13    1    4    4    0    0  0.49871245575E+00 -0.71869578181E+01 -0.76948620125E+02  0.77285201559E+02  0.10566000000E+00 0.  1.
        -14    1    4    4    0    0  0.44280710095E+00 -0.15382255960E+01 -0.14573923688E+02  0.14661564302E+02  0.00000000000E+00 0.  1.
<mgrwt>
<rscale>  0 0.81631206E+02</rscale>
<asrwt>0</asrwt>
<pdfrwt beam="1">  1        2 0.34358324E-01 0.81631206E+02</pdfrwt>
<pdfrwt beam="2">  1       -1 0.11476085E-02 0.81631206E+02</pdfrwt>
<totfact> 0.21740264E+05</totfact>
</mgrwt>
</event>
<event>
 8    1  0.1226832E-020  0.7941319E+02  0.7818608E-02  0.1330725E+00
         -1   -1    0    0    0  501 -0.00000000000E+00  0.00000000000E+00  0.59822406385E+02  0.59822406597E+02  0.50400000000E-02 0.  1.
          2   -1    0    0  501    0  0.00000000000E+00 -0.00000000000E+00 -0.26354902460E+02  0.26354902584E+02  0.25500000000E-02 0. -1.
         24    2    1    2    0    0  0.00000000000E+00  0.00000000000E+00  0.33467503925E+02  0.86177309181E+02  0.79413190332E+02 0.  0.
         66    2    3    3    0    0  0.99618082666E+01 -0.38281336336E+02  0.20160558654E+02  0.44442619867E+02  0.19999999514E+01 0.  0.
        -13    1    3    3    0    0 -0.99618082666E+01  0.38281336336E+02  0.13306945270E+02  0.41734689313E+02  0.10566000000E+00 0.  1.
         13    1    4    4    0    0  0.39494355923E+01 -0.16240918342E+02  0.90744041125E+01  0.19018975896E+02  0.10566000000E+00 0. -1.
        -13    1    4    4    0    0  0.15626247990E+01 -0.51974910584E+01  0.20864948795E+01  0.58155252972E+01  0.10566000000E+00 0.  1.
        -14    1    4    4    0    0  0.44497478753E+01 -0.16842926936E+02  0.89996596622E+01  0.19608118674E+02  0.00000000000E+00 0.  1.
<mgrwt>
<rscale>  0 0.79413190E+02</rscale>
<asrwt>0</asrwt>
<pdfrwt beam="1">  1        2 0.40546004E-02 0.79413190E+02</pdfrwt>
<pdfrwt beam="2">  1       -1 0.92034471E-02 0.79413190E+02</pdfrwt>
<totfact> 0.13391439E+05</totfact>
</mgrwt>
</event>
<event>
 8    1  0.1226832E-020  0.7992053E+02  0.7818608E-02  0.1329277E+00
         -1   -1    0    0    0  501 -0.00000000000E+00  0.00000000000E+00  0.88130548056E+01  0.88130562467E+01  0.50400000000E-02 0.  1.
          2   -1    0    0  501    0  0.00000000000E+00 -0.00000000000E+00 -0.18118832093E+03  0.18118832095E+03  0.25500000000E-02 0. -1.
         24    2    1    2    0    0  0.00000000000E+00  0.00000000000E+00 -0.17237526613E+03  0.19000137720E+03  0.79920529055E+02 0.  0.
         66    2    3    3    0    0 -0.78862349435E+01  0.34238346657E+02 -0.41111271824E+02  0.54116483086E+02  0.19999967940E+01 0.  0.
        -13    1    3    3    0    0  0.78862349435E+01 -0.34238346657E+02 -0.13126399430E+03  0.13588489411E+03  0.10566000000E+00 0.  1.
         13    1    4    4    0    0 -0.64376140048E+01  0.26003294422E+02 -0.30323878100E+02  0.40461870223E+02  0.10566000000E+00 0. -1.
        -13    1    4    4    0    0 -0.90090644991E+00  0.57617839388E+01 -0.72912580715E+01  0.93372048757E+01  0.10566000000E+00 0.  1.
        -14    1    4    4    0    0 -0.54771448880E+00  0.24732682961E+01 -0.34961356525E+01  0.43174079870E+01  0.00000000000E+00 0.  1.
<mgrwt>
<rscale>  0 0.79920529E+02</rscale>
<asrwt>0</asrwt>
<pdfrwt beam="1">  1        2 0.27875123E-01 0.79920529E+02</pdfrwt>
<pdfrwt beam="2">  1       -1 0.13558548E-02 0.79920529E+02</pdfrwt>
<totfact> 0.21378141E+05</totfact>
</mgrwt>
</event>
<event>
 8    1  0.1226832E-020  0.7972510E+02  0.7818608E-02  0.1329833E+00
         -1   -1    0    0    0  501 -0.00000000000E+00  0.00000000000E+00  0.73905224684E+02  0.73905224855E+02  0.50400000000E-02 0.  1.
          2   -1    0    0  501    0  0.00000000000E+00 -0.00000000000E+00 -0.21500818735E+02  0.21500818886E+02  0.25500000000E-02 0. -1.
         24    2    1    2    0    0  0.35527136788E-14  0.00000000000E+00  0.52404405949E+02  0.95406043742E+02  0.79725099057E+02 0.  0.
         66    2    3    3    0    0  0.23394244166E+02 -0.10200017082E+02 -0.10386832377E+02  0.27626387627E+02  0.19999994726E+01 0.  0.
        -13    1    3    3    0    0 -0.23394244166E+02  0.10200017082E+02  0.62791238325E+02  0.67779656115E+02  0.10566000000E+00 0.  1.
         13    1    4    4    0    0  0.11477528959E+02 -0.50932465513E+01 -0.57591124679E+01  0.13814969124E+02  0.10566000000E+00 0.  1.
        -13    1    4    4    0    0  0.16081047141E+01 -0.86217277484E+00 -0.10247723098E+01  0.20953913687E+01  0.10566000000E+00 0. -1.
        -14    1    4    4    0    0  0.10308610493E+02 -0.42445977559E+01 -0.36029475990E+01  0.11716027134E+02  0.00000000000E+00 0.  1.
<mgrwt>
<rscale>  0 0.79725099E+02</rscale>
<asrwt>0</asrwt>
<pdfrwt beam="1">  1        2 0.33078183E-02 0.79725099E+02</pdfrwt>
<pdfrwt beam="2">  1       -1 0.11370035E-01 0.79725099E+02</pdfrwt>
<totfact> 0.12722239E+05</totfact>
</mgrwt>
</event>
<event>
 8    1  0.1226832E-020  0.8497437E+02  0.7818608E-02  0.1315500E+00
         -1   -1    0    0    0  501 -0.00000000000E+00  0.00000000000E+00  0.16509548058E+02  0.16509548828E+02  0.50400000000E-02 0.  1.
          2   -1    0    0  501    0  0.00000000000E+00 -0.00000000000E+00 -0.10934042647E+03  0.10934042650E+03  0.25500000000E-02 0. -1.
         24    2    1    2    0    0 -0.88817841970E-15 -0.71054273576E-14 -0.92830878407E+02  0.12584997532E+03  0.84974374390E+02 0.  0.
         66    2    3    3    0    0 -0.43170755479E+01 -0.40921120168E+02 -0.61972946669E+02  0.74416539386E+02  0.19999995794E+01 0.  0.
        -13    1    3    3    0    0  0.43170755479E+01  0.40921120168E+02 -0.30857931738E+02  0.51433435937E+02  0.10566000000E+00 0.  1.
         13    1    4    4    0    0 -0.35235143613E+01 -0.29725759701E+02 -0.45512095848E+02  0.54473828356E+02  0.10566000000E+00 0. -1.
        -13    1    4    4    0    0 -0.52611140444E+00 -0.56723477468E+01 -0.76105057424E+01  0.95070123520E+01  0.10566000000E+00 0.  1.
        -14    1    4    4    0    0 -0.26744978207E+00 -0.55230127197E+01 -0.88503450789E+01  0.10435698678E+02  0.00000000000E+00 0.  1.
<mgrwt>
<rscale>  0 0.84974374E+02</rscale>
<asrwt>0</asrwt>
<pdfrwt beam="1">  1        2 0.16821604E-01 0.84974374E+02</pdfrwt>
<pdfrwt beam="2">  1       -1 0.25399306E-02 0.84974374E+02</pdfrwt>
<totfact> 0.15465861E+05</totfact>
</mgrwt>
</event>
<event>
 8    1  0.1226832E-020  0.7971892E+02  0.7818608E-02  0.1329851E+00
          2   -1    0    0  501    0  0.00000000000E+00  0.00000000000E+00  0.67973971370E+02  0.67973971418E+02  0.25500000000E-02 0. -1.
         -1   -1    0    0    0  501 -0.00000000000E+00 -0.00000000000E+00 -0.23373305283E+02  0.23373305826E+02  0.50400000000E-02 0.  1.
         24    2    1    2    0    0  0.00000000000E+00  0.00000000000E+00  0.44600666088E+02  0.91347277244E+02  0.79718916478E+02 0.  0.
         66    2    3    3    0    0 -0.99061081408E+01 -0.38098207599E+02  0.29300083585E+02  0.49113127676E+02  0.20000028165E+01 0.  0.
        -13    1    3    3    0    0  0.99061081408E+01  0.38098207599E+02  0.15300582503E+02  0.42234149568E+02  0.10566000000E+00 0.  1.
         13    1    4    4    0    0 -0.77939352891E+01 -0.30471087955E+02  0.23762730843E+02  0.39419679979E+02  0.10566000000E+00 0. -1.
        -13    1    4    4    0    0 -0.15062237161E+01 -0.59459303404E+01  0.38976579668E+01  0.72681289998E+01  0.10566000000E+00 0.  1.
         14    1    4    4    0    0 -0.60594913561E+00 -0.16811893036E+01  0.16396947746E+01  0.24253186972E+01  0.00000000000E+00 0. -1.
<mgrwt>
<rscale>  0 0.79718916E+02</rscale>
<asrwt>0</asrwt>
<pdfrwt beam="1">  1        2 0.10457534E-01 0.79718916E+02</pdfrwt>
<pdfrwt beam="2">  1       -1 0.35958932E-02 0.79718916E+02</pdfrwt>
<totfact> 0.16185314E+05</totfact>
</mgrwt>
</event>
<event>
 8    1  0.1226832E-020  0.7762488E+02  0.7818608E-02  0.1335930E+00
         -1   -1    0    0    0  501 -0.00000000000E+00  0.00000000000E+00  0.35871086425E+01  0.35871121832E+01  0.50400000000E-02 0.  1.
          2   -1    0    0  501    0  0.00000000000E+00 -0.00000000000E+00 -0.41994952191E+03  0.41994952192E+03  0.25500000000E-02 0. -1.
         24    2    1    2    0    0  0.00000000000E+00  0.00000000000E+00 -0.41636241327E+03  0.42353663410E+03  0.77624875160E+02 0.  0.
         66    2    3    3    0    0  0.20670018436E+02  0.32182387292E+02 -0.24344467380E+03  0.24643917082E+03  0.19999997395E+01 0.  0.
        -13    1    3    3    0    0 -0.20670018436E+02 -0.32182387292E+02 -0.17291773947E+03  0.17709746328E+03  0.10566000000E+00 0.  1.
         13    1    4    4    0    0  0.22940850402E+01  0.43308940281E+01 -0.34353236673E+02  0.34701232013E+02  0.10566000000E+00 0. -1.
        -13    1    4    4    0    0  0.12055004808E+02  0.18755682858E+02 -0.13994720330E+03  0.14171213659E+03  0.10566000000E+00 0.  1.
         14    1    4    4    0    0  0.63209285876E+01  0.90958104055E+01 -0.69144233829E+02  0.70025802222E+02  0.00000000000E+00 0. -1.
<mgrwt>
<rscale>  0 0.77624875E+02</rscale>
<asrwt>0</asrwt>
<pdfrwt beam="1">  1        2 0.64607580E-01 0.77624875E+02</pdfrwt>
<pdfrwt beam="2">  1       -1 0.55186348E-03 0.77624875E+02</pdfrwt>
<totfact> 0.31083644E+05</totfact>
</mgrwt>
</event>
<event>
 8    1  0.1226832E-020  0.7603899E+02  0.7818608E-02  0.1340683E+00
         -1   -1    0    0    0  501 -0.00000000000E+00  0.00000000000E+00  0.24289171133E+02  0.24289171656E+02  0.50400000000E-02 0.  1.
          2   -1    0    0  501    0  0.00000000000E+00 -0.00000000000E+00 -0.59511372757E+02  0.59511372811E+02  0.25500000000E-02 0. -1.
         24    2    1    2    0    0  0.00000000000E+00  0.35527136788E-14 -0.35222201624E+02  0.83800544467E+02  0.76038988458E+02 0.  0.
         66    2    3    3    0    0  0.48503508092E+01 -0.27614683711E+02 -0.45879783817E+02  0.53805680212E+02  0.20000001341E+01 0.  0.
        -13    1    3    3    0    0 -0.48503508092E+01  0.27614683711E+02  0.10657582193E+02  0.29994864255E+02  0.10566000000E+00 0.  1.
         13    1    4    4    0    0  0.16170728268E+01 -0.12529826512E+02 -0.22058312851E+02  0.25420303044E+02  0.10566000000E+00 0. -1.
        -13    1    4    4    0    0  0.27488474237E+01 -0.13548365852E+02 -0.21354845428E+02  0.25439240687E+02  0.10566000000E+00 0.  1.
        -14    1    4    4    0    0  0.48443055864E+00 -0.15364913468E+01 -0.24666255373E+01  0.29461364812E+01  0.00000000000E+00 0.  1.
<mgrwt>
<rscale>  0 0.76038988E+02</rscale>
<asrwt>0</asrwt>
<pdfrwt beam="1">  1        2 0.91555958E-02 0.76038988E+02</pdfrwt>
<pdfrwt beam="2">  1       -1 0.37367956E-02 0.76038988E+02</pdfrwt>
<totfact> 0.17831018E+05</totfact>
</mgrwt>
</event>
<event>
 8    1  0.1226832E-020  0.7975853E+02  0.7818608E-02  0.1329738E+00
          2   -1    0    0  501    0  0.00000000000E+00  0.00000000000E+00  0.17940431028E+02  0.17940431209E+02  0.25500000000E-02 0. -1.
         -1   -1    0    0    0  501 -0.00000000000E+00 -0.00000000000E+00 -0.88646454388E+02  0.88646454531E+02  0.50400000000E-02 0.  1.
         24    2    1    2    0    0  0.88817841970E-15  0.00000000000E+00 -0.70706023360E+02  0.10658688574E+03  0.79758526017E+02 0.  0.
         66    2    3    3    0    0  0.75048282821E+01 -0.35540869530E+02 -0.57288172599E+02  0.67863175464E+02  0.20000024322E+01 0.  0.
        -13    1    3    3    0    0 -0.75048282821E+01  0.35540869530E+02 -0.13417850760E+02  0.38723710276E+02  0.10566000000E+00 0.  1.
         13    1    4    4    0    0  0.29344360119E+01 -0.10643540448E+02 -0.16717153374E+02  0.20034226937E+02  0.10566000000E+00 0. -1.
        -13    1    4    4    0    0  0.67723832365E+00 -0.53873779083E+01 -0.83366269274E+01  0.99495228547E+01  0.10566000000E+00 0.  1.
         14    1    4    4    0    0  0.38931539465E+01 -0.19509951174E+02 -0.32234392298E+02  0.37879425672E+02  0.00000000000E+00 0. -1.
<mgrwt>
<rscale>  0 0.79758526E+02</rscale>
<asrwt>0</asrwt>
<pdfrwt beam="1">  1        2 0.27600664E-02 0.79758526E+02</pdfrwt>
<pdfrwt beam="2">  1       -1 0.13637916E-01 0.79758526E+02</pdfrwt>
<totfact> 0.12249137E+05</totfact>
</mgrwt>
</event>
<event>
 8    1  0.1226832E-020  0.7699528E+02  0.7818608E-02  0.1337801E+00
          2   -1    0    0  501    0  0.00000000000E+00  0.00000000000E+00  0.45090942728E+03  0.45090942728E+03  0.25500000000E-02 0. -1.
         -1   -1    0    0    0  501 -0.00000000000E+00 -0.00000000000E+00 -0.32868403877E+01  0.32868442518E+01  0.50400000000E-02 0.  1.
         24    2    1    2    0    0 -0.35527136788E-14  0.88817841970E-15  0.44762258689E+03  0.45419627154E+03  0.76995277672E+02 0.  0.
         66    2    3    3    0    0 -0.26950104313E+02  0.76209279274E+01  0.37955242144E+03  0.38058957855E+03  0.20000024672E+01 0.  0.
        -13    1    3    3    0    0  0.26950104313E+02 -0.76209279274E+01  0.68070165447E+02  0.73606692991E+02  0.10566000000E+00 0.  1.
         13    1    4    4    0    0 -0.23359844993E+02  0.59999663573E+01  0.32223008856E+03  0.32313143315E+03  0.10566000000E+00 0. -1.
        -13    1    4    4    0    0 -0.15203466945E+01  0.73850623683E+00  0.23259422933E+02  0.23320994077E+02  0.10566000000E+00 0.  1.
         14    1    4    4    0    0 -0.20699126254E+01  0.88245533330E+00  0.34062909948E+02  0.34137151314E+02  0.00000000000E+00 0. -1.
<mgrwt>
<rscale>  0 0.76995278E+02</rscale>
<asrwt>0</asrwt>
<pdfrwt beam="1">  1        2 0.69370703E-01 0.76995278E+02</pdfrwt>
<pdfrwt beam="2">  1       -1 0.50566789E-03 0.76995278E+02</pdfrwt>
<totfact> 0.32524256E+05</totfact>
</mgrwt>
</event>
<event>
 8    1  0.1226832E-020  0.8079482E+02  0.7818608E-02  0.1326811E+00
         -1   -1    0    0    0  501 -0.00000000000E+00  0.00000000000E+00  0.34048701525E+01  0.34048738827E+01  0.50400000000E-02 0.  1.
          2   -1    0    0  501    0  0.00000000000E+00 -0.00000000000E+00 -0.47929864178E+03  0.47929864179E+03  0.25500000000E-02 0. -1.
         24    2    1    2    0    0  0.35527136788E-14  0.00000000000E+00 -0.47589377163E+03  0.48270351567E+03  0.80794815216E+02 0.  0.
         66    2    3    3    0    0  0.24650593356E+02 -0.11038319297E+02 -0.41737012281E+03  0.41824791172E+03  0.19999992369E+01 0.  0.
        -13    1    3    3    0    0 -0.24650593356E+02  0.11038319297E+02 -0.58523648820E+02  0.64455603953E+02  0.10566000000E+00 0.  1.
         13    1    4    4    0    0  0.12826175664E+02 -0.60173133881E+01 -0.21118112235E+03  0.21165584434E+03  0.10566000000E+00 0. -1.
        -13    1    4    4    0    0  0.71571579970E+01 -0.33388189968E+01 -0.13434217619E+03  0.13457415833E+03  0.10566000000E+00 0.  1.
        -14    1    4    4    0    0  0.46672596957E+01 -0.16821869124E+01 -0.71846824273E+02  0.72017909050E+02  0.00000000000E+00 0.  1.
<mgrwt>
<rscale>  0 0.80794815E+02</rscale>
<asrwt>0</asrwt>
<pdfrwt beam="1">  1        2 0.73738199E-01 0.80794815E+02</pdfrwt>
<pdfrwt beam="2">  1       -1 0.52382685E-03 0.80794815E+02</pdfrwt>
<totfact> 0.29274294E+05</totfact>
</mgrwt>
</event>
<event>
 8    1  0.1226832E-020  0.7992781E+02  0.7818608E-02  0.1329256E+00
         -1   -1    0    0    0  501 -0.00000000000E+00  0.00000000000E+00  0.39290313899E+02  0.39290314222E+02  0.50400000000E-02 0.  1.
          2   -1    0    0  501    0  0.00000000000E+00 -0.00000000000E+00 -0.40649040402E+02  0.40649040482E+02  0.25500000000E-02 0. -1.
         24    2    1    2    0    0 -0.17763568394E-14 -0.35527136788E-14 -0.13587265033E+01  0.79939354705E+02  0.79927806756E+02 0.  0.
         66    2    3    3    0    0 -0.95851430608E+01 -0.20746763988E+02 -0.33438228288E+02  0.40551427846E+02  0.20000014548E+01 0.  0.
        -13    1    3    3    0    0  0.95851430608E+01  0.20746763988E+02  0.32079501784E+02  0.39387926859E+02  0.10566000000E+00 0.  1.
         13    1    4    4    0    0 -0.54251904519E+01 -0.13275468406E+02 -0.19935742374E+02  0.24558414869E+02  0.10566000000E+00 0. -1.
        -13    1    4    4    0    0 -0.16152197450E+00 -0.36885943927E+00 -0.76637863985E+00  0.87215072631E+00  0.10566000000E+00 0. -1.
         14    1    4    4    0    0 -0.39984306344E+01 -0.71024361429E+01 -0.12736107274E+02  0.15120862250E+02  0.00000000000E+00 0. -1.
<mgrwt>
<rscale>  0 0.79927807E+02</rscale>
<asrwt>0</asrwt>
<pdfrwt beam="1">  1        2 0.62536985E-02 0.79927807E+02</pdfrwt>
<pdfrwt beam="2">  1       -1 0.60446637E-02 0.79927807E+02</pdfrwt>
<totfact> 0.14338268E+05</totfact>
</mgrwt>
</event>
<event>
 8    1  0.1226832E-020  0.7952474E+02  0.7818608E-02  0.1330406E+00
         -1   -1    0    0    0  501 -0.00000000000E+00  0.00000000000E+00  0.56047915956E+01  0.56047938616E+01  0.50400000000E-02 0.  1.
          2   -1    0    0  501    0  0.00000000000E+00 -0.00000000000E+00 -0.28208822530E+03  0.28208822531E+03  0.25500000000E-02 0. -1.
         24    2    1    2    0    0  0.00000000000E+00  0.00000000000E+00 -0.27648343370E+03  0.28769301917E+03  0.79524739345E+02 0.  0.
         66    2    3    3    0    0  0.33959125537E+02  0.10328310982E+02 -0.20295695284E+03  0.20604713276E+03  0.19999998704E+01 0.  0.
        -13    1    3    3    0    0 -0.33959125537E+02 -0.10328310982E+02 -0.73526480861E+02  0.81645886405E+02  0.10566000000E+00 0.  1.
         13    1    4    4    0    0  0.21293945732E+02  0.65032607161E+01 -0.12690530202E+03  0.12884367027E+03  0.10566000000E+00 0.  1.
        -13    1    4    4    0    0  0.90118585504E+01  0.32880669613E+01 -0.54910921715E+02  0.55742671864E+02  0.10566000000E+00 0. -1.
        -14    1    4    4    0    0  0.36533212549E+01  0.53698330456E+00 -0.21140729109E+02  0.21460790631E+02  0.00000000000E+00 0.  1.
<mgrwt>
<rscale>  0 0.79524739E+02</rscale>
<asrwt>0</asrwt>
<pdfrwt beam="1">  1        2 0.43398178E-01 0.79524739E+02</pdfrwt>
<pdfrwt beam="2">  1       -1 0.86227603E-03 0.79524739E+02</pdfrwt>
<totfact> 0.25324975E+05</totfact>
</mgrwt>
</event>
<event>
 8    1  0.1226832E-020  0.8048706E+02  0.7818608E-02  0.1327675E+00
         -1   -1    0    0    0  501 -0.00000000000E+00  0.00000000000E+00  0.40752216475E+01  0.40752247641E+01  0.50400000000E-02 0.  1.
          2   -1    0    0  501    0  0.00000000000E+00 -0.00000000000E+00 -0.39741173887E+03  0.39741173888E+03  0.25500000000E-02 0. -1.
         24    2    1    2    0    0  0.00000000000E+00  0.00000000000E+00 -0.39333651723E+03  0.40148696365E+03  0.80487056065E+02 0.  0.
         66    2    3    3    0    0  0.22452090622E+02 -0.32765734064E+02 -0.22827717187E+03  0.23171568117E+03  0.19999995939E+01 0.  0.
        -13    1    3    3    0    0 -0.22452090622E+02  0.32765734064E+02 -0.16505934536E+03  0.16977128248E+03  0.10566000000E+00 0.  1.
         13    1    4    4    0    0  0.18664972399E+01 -0.29806539853E+01 -0.22902695115E+02  0.23171377121E+02  0.10566000000E+00 0. -1.
        -13    1    4    4    0    0  0.92854338594E+01 -0.14244605948E+02 -0.94959304021E+02  0.96469729267E+02  0.10566000000E+00 0.  1.
        -14    1    4    4    0    0  0.11300159523E+02 -0.15540474130E+02 -0.11041517273E+03  0.11207457478E+03  0.00000000000E+00 0.  1.
<mgrwt>
<rscale>  0 0.80487056E+02</rscale>
<asrwt>0</asrwt>
<pdfrwt beam="1">  1        2 0.61140237E-01 0.80487056E+02</pdfrwt>
<pdfrwt beam="2">  1       -1 0.62695773E-03 0.80487056E+02</pdfrwt>
<totfact> 0.27745922E+05</totfact>
</mgrwt>
</event>
<event>
 8    1  0.1226832E-020  0.8110605E+02  0.7818608E-02  0.1325942E+00
          2   -1    0    0  501    0  0.00000000000E+00  0.00000000000E+00  0.20234506964E+03  0.20234506965E+03  0.25500000000E-02 0. -1.
         -1   -1    0    0    0  501 -0.00000000000E+00 -0.00000000000E+00 -0.81274403060E+01  0.81274418687E+01  0.50400000000E-02 0.  1.
         24    2    1    2    0    0  0.00000000000E+00 -0.35527136788E-14  0.19421762933E+03  0.21047251152E+03  0.81106045171E+02 0.  0.
         66    2    3    3    0    0 -0.10496769312E+01 -0.22572991858E+02  0.18447415436E+03  0.18586380876E+03  0.19999989633E+01 0.  0.
        -13    1    3    3    0    0  0.10496769312E+01  0.22572991858E+02  0.97434749660E+01  0.24608702760E+02  0.10566000000E+00 0.  1.
         13    1    4    4    0    0 -0.97551731126E+00 -0.77290040438E+01  0.63763834819E+02  0.64238048946E+02  0.10566000000E+00 0. -1.
        -13    1    4    4    0    0 -0.40995261680E+00 -0.21142706194E+01  0.18501575435E+02  0.18626799484E+02  0.10566000000E+00 0.  1.
        -14    1    4    4    0    0  0.33579299681E+00 -0.12729717194E+02  0.10220874411E+03  0.10299896033E+03  0.00000000000E+00 0.  1.
<mgrwt>
<rscale>  0 0.81106045E+02</rscale>
<asrwt>0</asrwt>
<pdfrwt beam="1">  1        2 0.31130010E-01 0.81106045E+02</pdfrwt>
<pdfrwt beam="2">  1       -1 0.12503756E-02 0.81106045E+02</pdfrwt>
<totfact> 0.21359653E+05</totfact>
</mgrwt>
</event>
<event>
 8    1  0.1226832E-020  0.7748556E+02  0.7818608E-02  0.1336342E+00
         -1   -1    0    0    0  501 -0.00000000000E+00  0.00000000000E+00  0.24706857715E+01  0.24706909121E+01  0.50400000000E-02 0.  1.
          2   -1    0    0  501    0  0.00000000000E+00 -0.00000000000E+00 -0.60752415646E+03  0.60752415647E+03  0.25500000000E-02 0. -1.
         24    2    1    2    0    0 -0.71054273576E-14 -0.44408920985E-15 -0.60505347069E+03  0.60999484738E+03  0.77485556298E+02 0.  0.
         66    2    3    3    0    0  0.35316730708E+02  0.38075908773E+01 -0.42397976044E+03  0.42546986554E+03  0.20000001645E+01 0.  0.
        -13    1    3    3    0    0 -0.35316730708E+02 -0.38075908773E+01 -0.18107371025E+03  0.18452498184E+03  0.10566000000E+00 0.  1.
         13    1    4    4    0    0  0.23751544246E+02  0.28977241130E+01 -0.27649899136E+03  0.27753240540E+03  0.10566000000E+00 0. -1.
        -13    1    4    4    0    0  0.14125656201E+01  0.37144212600E-01 -0.19907550930E+02  0.19957917462E+02  0.10566000000E+00 0.  1.
        -14    1    4    4    0    0  0.10152620842E+02  0.87272255176E+00 -0.12757321815E+03  0.12797954267E+03  0.00000000000E+00 0.  1.
<mgrwt>
<rscale>  0 0.77485556E+02</rscale>
<asrwt>0</asrwt>
<pdfrwt beam="1">  1        2 0.93465135E-01 0.77485556E+02</pdfrwt>
<pdfrwt beam="2">  1       -1 0.38010639E-03 0.77485556E+02</pdfrwt>
<totfact> 0.35066281E+05</totfact>
</mgrwt>
</event>
<event>
 8    1  0.1226832E-020  0.7987303E+02  0.7818608E-02  0.1329412E+00
         -1   -1    0    0    0  501 -0.00000000000E+00  0.00000000000E+00  0.18686312418E+02  0.18686313098E+02  0.50400000000E-02 0.  1.
          2   -1    0    0  501    0  0.00000000000E+00 -0.00000000000E+00 -0.85352599366E+02  0.85352599404E+02  0.25500000000E-02 0. -1.
         24    2    1    2    0    0 -0.71054273576E-14 -0.35527136788E-14 -0.66666286948E+02  0.10403891250E+03  0.79873033616E+02 0.  0.
         66    2    3    3    0    0  0.34299221849E+02 -0.18209534617E+02 -0.21352336229E+02  0.44361537691E+02  0.19999983680E+01 0.  0.
        -13    1    3    3    0    0 -0.34299221849E+02  0.18209534617E+02 -0.45313950719E+02  0.59677374810E+02  0.10566000000E+00 0.  1.
         13    1    4    4    0    0  0.18126412477E+01 -0.74498948850E+00 -0.79865264363E+00  0.21188883198E+01  0.10566000000E+00 0. -1.
        -13    1    4    4    0    0  0.11209398208E+01 -0.83982773354E+00 -0.71243779867E+00  0.15749756685E+01  0.10566000000E+00 0.  1.
         14    1    4    4    0    0  0.31365640781E+02 -0.16624717395E+02 -0.19841245787E+02  0.40667673703E+02  0.00000000000E+00 0. -1.
<mgrwt>
<rscale>  0 0.79873034E+02</rscale>
<asrwt>0</asrwt>
<pdfrwt beam="1">  1        2 0.13131169E-01 0.79873034E+02</pdfrwt>
<pdfrwt beam="2">  1       -1 0.28748174E-02 0.79873034E+02</pdfrwt>
<totfact> 0.17052047E+05</totfact>
</mgrwt>
</event>
<event>
 8    1  0.1226832E-020  0.8177715E+02  0.7818608E-02  0.1324082E+00
          2   -1    0    0  501    0  0.00000000000E+00  0.00000000000E+00  0.21960717695E+03  0.21960717696E+03  0.25500000000E-02 0. -1.
         -1   -1    0    0    0  501 -0.00000000000E+00 -0.00000000000E+00 -0.76130275570E+01  0.76130292253E+01  0.50400000000E-02 0.  1.
         24    2    1    2    0    0  0.35527136788E-14  0.00000000000E+00  0.21199414939E+03  0.22722020619E+03  0.81777152825E+02 0.  0.
         66    2    3    3    0    0  0.20995719816E+02  0.10535013527E+02  0.19896726482E+03  0.20035912568E+03  0.20000024572E+01 0.  0.
        -13    1    3    3    0    0 -0.20995719816E+02 -0.10535013527E+02  0.13026884564E+02  0.26861080509E+02  0.10566000000E+00 0.  1.
         13    1    4    4    0    0  0.38351139138E+01  0.12340786567E+01  0.33151795026E+02  0.33395863911E+02  0.10566000000E+00 0. -1.
        -13    1    4    4    0    0  0.61362119952E+01  0.35495068123E+01  0.63859915759E+02  0.64252253665E+02  0.10566000000E+00 0.  1.
         14    1    4    4    0    0  0.11024393907E+02  0.57514280583E+01  0.10195555404E+03  0.10271100810E+03  0.00000000000E+00 0. -1.
<mgrwt>
<rscale>  0 0.81777153E+02</rscale>
<asrwt>0</asrwt>
<pdfrwt beam="1">  1        2 0.33785714E-01 0.81777153E+02</pdfrwt>
<pdfrwt beam="2">  1       -1 0.11712353E-02 0.81777153E+02</pdfrwt>
<totfact> 0.21509590E+05</totfact>
</mgrwt>
</event>
<event>
 8    1  0.1226832E-020  0.8197882E+02  0.7818608E-02  0.1323528E+00
         -1   -1    0    0    0  501 -0.00000000000E+00  0.00000000000E+00  0.33909277115E+02  0.33909277489E+02  0.50400000000E-02 0.  1.
          2   -1    0    0  501    0  0.00000000000E+00 -0.00000000000E+00 -0.49547851879E+02  0.49547851945E+02  0.25500000000E-02 0. -1.
         24    2    1    2    0    0  0.00000000000E+00 -0.44408920985E-15 -0.15638574764E+02  0.83457129434E+02  0.81978823075E+02 0.  0.
         66    2    3    3    0    0  0.20478755512E+02  0.23237903567E+01 -0.43864983895E+02  0.48506868128E+02  0.20000036574E+01 0.  0.
        -13    1    3    3    0    0 -0.20478755512E+02 -0.23237903567E+01  0.28226409130E+02  0.34950261306E+02  0.10566000000E+00 0.  1.
         13    1    4    4    0    0  0.13035122556E+02  0.80742489236E+00 -0.28917590210E+02  0.31730183463E+02  0.10566000000E+00 0. -1.
        -13    1    4    4    0    0  0.66147445341E+01  0.13838390270E+01 -0.13645653683E+02  0.15227766881E+02  0.10566000000E+00 0. -1.
         14    1    4    4    0    0  0.82888842121E+00  0.13252643730E+00 -0.13017400016E+01  0.15489177845E+01  0.00000000000E+00 0. -1.
<mgrwt>
<rscale>  0 0.81978823E+02</rscale>
<asrwt>0</asrwt>
<pdfrwt beam="1">  1        2 0.76227465E-02 0.81978823E+02</pdfrwt>
<pdfrwt beam="2">  1       -1 0.52168119E-02 0.81978823E+02</pdfrwt>
<totfact> 0.13946030E+05</totfact>
</mgrwt>
</event>
<event>
 8    1  0.1226832E-020  0.8722389E+02  0.7818608E-02  0.1309717E+00
         -1   -1    0    0    0  501 -0.00000000000E+00  0.00000000000E+00  0.27260696282E+01  0.27260742872E+01  0.50400000000E-02 0.  1.
          2   -1    0    0  501    0  0.00000000000E+00 -0.00000000000E+00 -0.69770782140E+03  0.69770782141E+03  0.25500000000E-02 0. -1.
         24    2    1    2    0    0  0.00000000000E+00  0.35527136788E-14 -0.69498175178E+03  0.70043389570E+03  0.87223889723E+02 0.  0.
         66    2    3    3    0    0  0.16946482234E+02 -0.19395225954E+02 -0.63006553079E+03  0.63059490257E+03  0.20000014220E+01 0.  0.
        -13    1    3    3    0    0 -0.16946482234E+02  0.19395225954E+02 -0.64916220983E+02  0.69838993124E+02  0.10566000000E+00 0.  1.
         13    1    4    4    0    0  0.93917872188E+01 -0.10274787167E+02 -0.34119292815E+03  0.34147679614E+03  0.10566000000E+00 0. -1.
        -13    1    4    4    0    0  0.30039626471E+01 -0.29595101444E+01 -0.11335725612E+03  0.11343571383E+03  0.10566000000E+00 0.  1.
        -14    1    4    4    0    0  0.45507323679E+01 -0.61609286427E+01 -0.17551534652E+03  0.17568239260E+03  0.00000000000E+00 0.  1.
<mgrwt>
<rscale>  0 0.87223890E+02</rscale>
<asrwt>0</asrwt>
<pdfrwt beam="1">  1        2 0.10733952E+00 0.87223890E+02</pdfrwt>
<pdfrwt beam="2">  1       -1 0.41939624E-03 0.87223890E+02</pdfrwt>
<totfact> 0.26673065E+05</totfact>
</mgrwt>
</event>
<event>
 8    1  0.1226832E-020  0.7606311E+02  0.7818608E-02  0.1340610E+00
          2   -1    0    0  501    0  0.00000000000E+00  0.00000000000E+00  0.22788952300E+03  0.22788952301E+03  0.25500000000E-02 0. -1.
         -1   -1    0    0    0  501 -0.00000000000E+00 -0.00000000000E+00 -0.63469305895E+01  0.63469325906E+01  0.50400000000E-02 0.  1.
         24    2    1    2    0    0  0.00000000000E+00 -0.35527136788E-14  0.22154259241E+03  0.23423645560E+03  0.76063111180E+02 0.  0.
         66    2    3    3    0    0 -0.57057904450E+01  0.17356279641E+02  0.21347400045E+03  0.21426372850E+03  0.19999993789E+01 0.  0.
        -13    1    3    3    0    0  0.57057904450E+01 -0.17356279641E+02  0.80685919625E+01  0.19972727101E+02  0.10566000000E+00 0.  1.
         13    1    4    4    0    0 -0.19693166493E+01  0.53200435222E+01  0.60624831528E+02  0.60889756388E+02  0.10566000000E+00 0. -1.
        -13    1    4    4    0    0 -0.15281031753E+01  0.41563747919E+01  0.61254483019E+02  0.61414439708E+02  0.10566000000E+00 0.  1.
         14    1    4    4    0    0 -0.22083706204E+01  0.78798613264E+01  0.91594685900E+02  0.91959532406E+02  0.00000000000E+00 0. -1.
<mgrwt>
<rscale>  0 0.76063111E+02</rscale>
<asrwt>0</asrwt>
<pdfrwt beam="1">  1        2 0.35059922E-01 0.76063111E+02</pdfrwt>
<pdfrwt beam="2">  1       -1 0.97645114E-03 0.76063111E+02</pdfrwt>
<totfact> 0.26365647E+05</totfact>
</mgrwt>
</event>
<event>
 8    1  0.1226832E-020  0.8000842E+02  0.7818608E-02  0.1329028E+00
         -1   -1    0    0    0  501 -0.00000000000E+00  0.00000000000E+00  0.46555940063E+01  0.46555967344E+01  0.50400000000E-02 0.  1.
          2   -1    0    0  501    0  0.00000000000E+00 -0.00000000000E+00 -0.34374484560E+03  0.34374484561E+03  0.25500000000E-02 0. -1.
         24    2    1    2    0    0  0.00000000000E+00  0.00000000000E+00 -0.33908925159E+03  0.34840044234E+03  0.80008422551E+02 0.  0.
         66    2    3    3    0    0  0.15037336798E+02 -0.72227286291E+01 -0.32786138112E+03  0.32829159986E+03  0.19999994801E+01 0.  0.
        -13    1    3    3    0    0 -0.15037336798E+02  0.72227286291E+01 -0.11227870470E+02  0.20108842486E+02  0.10566000000E+00 0.  1.
         13    1    4    4    0    0  0.81006990857E+01 -0.39835684586E+01 -0.19490522405E+03  0.19511419136E+03  0.10566000000E+00 0. -1.
        -13    1    4    4    0    0  0.17028604970E+01 -0.68114835108E+00 -0.28935291959E+02  0.28993550692E+02  0.10566000000E+00 0. -1.
         14    1    4    4    0    0  0.52337772148E+01 -0.25580118194E+01 -0.10402086511E+03  0.10418385780E+03  0.00000000000E+00 0. -1.
<mgrwt>
<rscale>  0 0.80008423E+02</rscale>
<asrwt>0</asrwt>
<pdfrwt beam="1">  1        2 0.52883803E-01 0.80008423E+02</pdfrwt>
<pdfrwt beam="2">  1       -1 0.71624571E-03 0.80008423E+02</pdfrwt>
<totfact> 0.26769014E+05</totfact>
</mgrwt>
</event>
<event>
 8    1  0.1226832E-020  0.7947644E+02  0.7818608E-02  0.1330544E+00
         -1   -1    0    0    0  501 -0.00000000000E+00  0.00000000000E+00  0.48927023107E+01  0.48927049066E+01  0.50400000000E-02 0.  1.
          2   -1    0    0  501    0  0.00000000000E+00 -0.00000000000E+00 -0.32275125078E+03  0.32275125079E+03  0.25500000000E-02 0. -1.
         24    2    1    2    0    0  0.00000000000E+00  0.17763568394E-14 -0.31785854847E+03  0.32764395569E+03  0.79476442229E+02 0.  0.
         66    2    3    3    0    0 -0.22240221459E+02 -0.63574651253E+01 -0.29210986448E+03  0.29303108663E+03  0.19999988269E+01 0.  0.
        -13    1    3    3    0    0  0.22240221459E+02  0.63574651253E+01 -0.25748683990E+02  0.34612869061E+02  0.10566000000E+00 0.  1.
         13    1    4    4    0    0 -0.12390236469E+01 -0.22108702242E+00 -0.13168173637E+02  0.13228606126E+02  0.10566000000E+00 0. -1.
        -13    1    4    4    0    0 -0.62040511187E+01 -0.14475082087E+01 -0.73992166146E+02  0.74265990502E+02  0.10566000000E+00 0. -1.
        -14    1    4    4    0    0 -0.14797146694E+02 -0.46888698942E+01 -0.20494952469E+03  0.20553649000E+03  0.00000000000E+00 0.  1.
<mgrwt>
<rscale>  0 0.79476442E+02</rscale>
<asrwt>0</asrwt>
<pdfrwt beam="1">  1        2 0.49654022E-01 0.79476442E+02</pdfrwt>
<pdfrwt beam="2">  1       -1 0.75272389E-03 0.79476442E+02</pdfrwt>
<totfact> 0.26630850E+05</totfact>
</mgrwt>
</event>
<event>
 8    1  0.1226832E-020  0.7153509E+02  0.7818608E-02  0.1354949E+00
          2   -1    0    0  501    0  0.00000000000E+00  0.00000000000E+00  0.16495197035E+03  0.16495197037E+03  0.25500000000E-02 0. -1.
         -1   -1    0    0    0  501 -0.00000000000E+00 -0.00000000000E+00 -0.77556957196E+01  0.77556973572E+01  0.50400000000E-02 0.  1.
         24    2    1    2    0    0  0.00000000000E+00  0.00000000000E+00  0.15719627463E+03  0.17270766773E+03  0.71535094423E+02 0.  0.
         66    2    3    3    0    0  0.22607195355E+02 -0.63131961821E+01  0.14372803649E+03  0.14564576960E+03  0.20000000015E+01 0.  0.
        -13    1    3    3    0    0 -0.22607195355E+02  0.63131961821E+01  0.13468238142E+02  0.27061898133E+02  0.10566000000E+00 0.  1.
         13    1    4    4    0    0  0.16047053313E+02 -0.44263683185E+01  0.97901883045E+02  0.99307051735E+02  0.10566000000E+00 0. -1.
        -13    1    4    4    0    0  0.45649495265E+01 -0.95912553194E+00  0.32101585275E+02  0.32438890658E+02  0.10566000000E+00 0.  1.
         14    1    4    4    0    0  0.19951925159E+01 -0.92770233169E+00  0.13724568172E+02  0.13899827204E+02  0.00000000000E+00 0. -1.
<mgrwt>
<rscale>  0 0.71535094E+02</rscale>
<asrwt>0</asrwt>
<pdfrwt beam="1">  1        2 0.25377224E-01 0.71535094E+02</pdfrwt>
<pdfrwt beam="2">  1       -1 0.11931842E-02 0.71535094E+02</pdfrwt>
<totfact> 0.27727730E+05</totfact>
</mgrwt>
</event>
<event>
 8    1  0.1226832E-020  0.8024938E+02  0.7818608E-02  0.1328345E+00
         -1   -1    0    0    0  501 -0.00000000000E+00  0.00000000000E+00  0.20123093338E+02  0.20123093970E+02  0.50400000000E-02 0.  1.
          2   -1    0    0  501    0  0.00000000000E+00 -0.00000000000E+00 -0.80007111641E+02  0.80007111681E+02  0.25500000000E-02 0. -1.
         24    2    1    2    0    0  0.35527136788E-14  0.17763568394E-14 -0.59884018302E+02  0.10013020565E+03  0.80249376544E+02 0.  0.
         66    2    3    3    0    0 -0.25212788423E+02 -0.13700817324E+02 -0.64910333066E+02  0.70998228383E+02  0.19999998382E+01 0.  0.
        -13    1    3    3    0    0  0.25212788423E+02  0.13700817324E+02  0.50263147635E+01  0.29131977268E+02  0.10566000000E+00 0.  1.
         13    1    4    4    0    0 -0.16420746315E+02 -0.91535408675E+01 -0.43094724792E+02  0.47016961715E+02  0.10566000000E+00 0. -1.
        -13    1    4    4    0    0 -0.34601235726E+00 -0.34586218204E+00 -0.15248466121E+01  0.16048882909E+01  0.10566000000E+00 0.  1.
         14    1    4    4    0    0 -0.84460297509E+01 -0.42014142746E+01 -0.20290761662E+02  0.22376378377E+02  0.00000000000E+00 0. -1.
<mgrwt>
<rscale>  0 0.80249377E+02</rscale>
<asrwt>0</asrwt>
<pdfrwt beam="1">  1        2 0.12308786E-01 0.80249377E+02</pdfrwt>
<pdfrwt beam="2">  1       -1 0.30958606E-02 0.80249377E+02</pdfrwt>
<totfact> 0.16556503E+05</totfact>
</mgrwt>
</event>
<event>
 8    1  0.1226832E-020  0.7748460E+02  0.7818608E-02  0.1336345E+00
          2   -1    0    0  501    0  0.00000000000E+00  0.00000000000E+00  0.12847448504E+04  0.12847448504E+04  0.25500000000E-02 0. -1.
         -1   -1    0    0    0  501 -0.00000000000E+00 -0.00000000000E+00 -0.11682933210E+01  0.11683041922E+01  0.50400000000E-02 0.  1.
         24    2    1    2    0    0  0.00000000000E+00  0.00000000000E+00  0.12835765571E+04  0.12859131546E+04  0.77484600255E+02 0.  0.
         66    2    3    3    0    0  0.22557865648E+02 -0.41590964330E+01  0.11598325299E+04  0.11600610556E+04  0.20000007713E+01 0.  0.
        -13    1    3    3    0    0 -0.22557865648E+02  0.41590964330E+01  0.12374402716E+03  0.12585209894E+03  0.10566000000E+00 0.  1.
         13    1    4    4    0    0  0.58317480138E+01 -0.13958470786E+01  0.33570245005E+03  0.33575601828E+03  0.10566000000E+00 0. -1.
        -13    1    4    4    0    0  0.75031949483E+01 -0.14002224133E+01  0.34846066811E+03  0.34854426827E+03  0.10566000000E+00 0.  1.
         14    1    4    4    0    0  0.92229226861E+01 -0.13630269411E+01  0.47566941173E+03  0.47576076909E+03  0.00000000000E+00 0. -1.
<mgrwt>
<rscale>  0 0.77484600E+02</rscale>
<asrwt>0</asrwt>
<pdfrwt beam="1">  1        2 0.19765243E+00 0.77484600E+02</pdfrwt>
<pdfrwt beam="2">  1       -1 0.17973884E-03 0.77484600E+02</pdfrwt>
<totfact> 0.37689420E+05</totfact>
</mgrwt>
</event>
<event>
 8    1  0.1226832E-020  0.8066946E+02  0.7818608E-02  0.1327162E+00
          2   -1    0    0  501    0  0.00000000000E+00  0.00000000000E+00  0.12492999087E+03  0.12492999089E+03  0.25500000000E-02 0. -1.
         -1   -1    0    0    0  501 -0.00000000000E+00 -0.00000000000E+00 -0.13022416644E+02  0.13022417620E+02  0.50400000000E-02 0.  1.
         24    2    1    2    0    0  0.35527136788E-14  0.17763568394E-14  0.11190757422E+03  0.13795240851E+03  0.80669460430E+02 0.  0.
         66    2    3    3    0    0  0.17361494374E+02  0.93889015562E+01  0.11609280148E+03  0.11777568305E+03  0.20000009261E+01 0.  0.
        -13    1    3    3    0    0 -0.17361494374E+02 -0.93889015562E+01 -0.41852272519E+01  0.20176725465E+02  0.10566000000E+00 0.  1.
         13    1    4    4    0    0  0.12940961696E+02  0.74709790700E+01  0.87606054969E+02  0.88871345490E+02  0.10566000000E+00 0. -1.
        -13    1    4    4    0    0  0.12128456376E+01  0.93184165369E+00  0.82539417404E+01  0.83951201121E+01  0.10566000000E+00 0.  1.
         14    1    4    4    0    0  0.32076870398E+01  0.98608083252E+00  0.20232804766E+02  0.20509217446E+02  0.00000000000E+00 0. -1.
<mgrwt>
<rscale>  0 0.80669460E+02</rscale>
<asrwt>0</asrwt>
<pdfrwt beam="1">  1        2 0.19219999E-01 0.80669460E+02</pdfrwt>
<pdfrwt beam="2">  1       -1 0.20034488E-02 0.80669460E+02</pdfrwt>
<totfact> 0.18499385E+05</totfact>
</mgrwt>
</event>
<event>
 8    1  0.1295897E-020  0.7908357E+02  0.7818608E-02  0.1331672E+00
         -1   -1    0    0    0  501 -0.00000000000E+00  0.00000000000E+00  0.14936521683E+01  0.14936606715E+01  0.50400000000E-02 0.  1.
          2   -1    0    0  501    0  0.00000000000E+00 -0.00000000000E+00 -0.10467954767E+04  0.10467954767E+04  0.25500000000E-02 0. -1.
         24    2    1    2    0    0  0.00000000000E+00  0.00000000000E+00 -0.10453018245E+04  0.10482891374E+04  0.79083570786E+02 0.  0.
         66    2    3    3    0    0 -0.15242951012E+02 -0.36943876637E+01 -0.10037669043E+04  0.10038914255E+04  0.19999995824E+01 0.  0.
        -13    1    3    3    0    0  0.15242951012E+02  0.36943876637E+01 -0.41534920242E+02  0.44397711870E+02  0.10566000000E+00 0.  1.
         13    1    4    4    0    0 -0.47212456800E+01 -0.10168125908E+01 -0.30629407850E+03  0.30633216899E+03  0.10566000000E+00 0. -1.
        -13    1    4    4    0    0 -0.65763172747E+01 -0.19116311611E+01 -0.48576067094E+03  0.48580895719E+03  0.10566000000E+00 0.  1.
        -14    1    4    4    0    0 -0.39453880569E+01 -0.76594391178E+00 -0.21171215484E+03  0.21175029933E+03  0.00000000000E+00 0.  1.
<mgrwt>
<rscale>  0 0.79083571E+02</rscale>
<asrwt>0</asrwt>
<pdfrwt beam="1">  1        2 0.16104487E+00 0.79083571E+02</pdfrwt>
<pdfrwt beam="2">  1       -1 0.22979413E-03 0.79083571E+02</pdfrwt>
<totfact> 0.36342212E+05</totfact>
</mgrwt>
</event>
<event>
 8    1  0.1226832E-020  0.8241298E+02  0.7818608E-02  0.1322340E+00
          2   -1    0    0  501    0  0.00000000000E+00  0.00000000000E+00  0.25375539917E+03  0.25375539918E+03  0.25500000000E-02 0. -1.
         -1   -1    0    0    0  501 -0.00000000000E+00 -0.00000000000E+00 -0.66913832833E+01  0.66913851814E+01  0.50400000000E-02 0.  1.
         24    2    1    2    0    0  0.00000000000E+00  0.35527136788E-14  0.24706401589E+03  0.26044678437E+03  0.82412981621E+02 0.  0.
         66    2    3    3    0    0 -0.24840280670E+02 -0.28506993945E+02  0.17517418381E+03  0.17921964994E+03  0.20000004403E+01 0.  0.
        -13    1    3    3    0    0  0.24840280670E+02  0.28506993945E+02  0.71889832077E+02  0.81227134430E+02  0.10566000000E+00 0.  1.
         13    1    4    4    0    0 -0.86624103641E+01 -0.10397278698E+02  0.62171647585E+02  0.63627554449E+02  0.10566000000E+00 0. -1.
        -13    1    4    4    0    0 -0.12477456245E+02 -0.14791047165E+02  0.91105579832E+02  0.93138068646E+02  0.10566000000E+00 0.  1.
        -14    1    4    4    0    0 -0.37004140616E+01 -0.33186680816E+01  0.21896956394E+02  0.22454026841E+02  0.00000000000E+00 0.  1.
<mgrwt>
<rscale>  0 0.82412982E+02</rscale>
<asrwt>0</asrwt>
<pdfrwt beam="1">  1        2 0.39039284E-01 0.82412982E+02</pdfrwt>
<pdfrwt beam="2">  1       -1 0.10294439E-02 0.82412982E+02</pdfrwt>
<totfact> 0.22190738E+05</totfact>
</mgrwt>
</event>
<event>
 8    1  0.1226832E-020  0.7905785E+02  0.7818608E-02  0.1331747E+00
          2   -1    0    0  501    0  0.00000000000E+00  0.00000000000E+00  0.64823316155E+01  0.64823321171E+01  0.25500000000E-02 0. -1.
         -1   -1    0    0    0  501 -0.00000000000E+00 -0.00000000000E+00 -0.24104531422E+03  0.24104531427E+03  0.50400000000E-02 0.  1.
         24    2    1    2    0    0  0.00000000000E+00 -0.71054273576E-14 -0.23456298260E+03  0.24752764639E+03  0.79057845398E+02 0.  0.
         66    2    3    3    0    0 -0.12210133785E+02 -0.36706277835E+02 -0.14242220096E+03  0.14759580459E+03  0.20000016034E+01 0.  0.
        -13    1    3    3    0    0  0.12210133785E+02  0.36706277835E+02 -0.92140781643E+02  0.99931841799E+02  0.10566000000E+00 0.  1.
         13    1    4    4    0    0 -0.15419582811E+01 -0.49471665150E+01 -0.17378662339E+02  0.18135080937E+02  0.10566000000E+00 0. -1.
        -13    1    4    4    0    0 -0.35313854733E+01 -0.87277068825E+01 -0.34567555001E+02  0.35826953172E+02  0.10566000000E+00 0.  1.
        -14    1    4    4    0    0 -0.71367900311E+01 -0.23031404438E+02 -0.90475983619E+02  0.93633770479E+02  0.00000000000E+00 0.  1.
<mgrwt>
<rscale>  0 0.79057845E+02</rscale>
<asrwt>0</asrwt>
<pdfrwt beam="1">  1        2 0.99728201E-03 0.79057845E+02</pdfrwt>
<pdfrwt beam="2">  1       -1 0.37083888E-01 0.79057845E+02</pdfrwt>
<totfact> 0.96671342E+04</totfact>
</mgrwt>
</event>
<event>
 8    1  0.1226832E-020  0.8181181E+02  0.7818608E-02  0.1323987E+00
         -1   -1    0    0    0  501 -0.00000000000E+00  0.00000000000E+00  0.25315492964E+01  0.25315543134E+01  0.50400000000E-02 0.  1.
          2   -1    0    0  501    0  0.00000000000E+00 -0.00000000000E+00 -0.66097520474E+03  0.66097520474E+03  0.25500000000E-02 0. -1.
         24    2    1    2    0    0  0.35527136788E-14  0.17763568394E-14 -0.65844365544E+03  0.66350675906E+03  0.81811807963E+02 0.  0.
         66    2    3    3    0    0  0.14178937615E+02  0.14758610559E+02 -0.61643392003E+03  0.61677681265E+03  0.20000010966E+01 0.  0.
        -13    1    3    3    0    0 -0.14178937615E+02 -0.14758610559E+02 -0.42009735412E+02  0.46729946404E+02  0.10566000000E+00 0.  1.
         13    1    4    4    0    0  0.22935279101E+01  0.27361836786E+01 -0.11323846518E+03  0.11329478422E+03  0.10566000000E+00 0. -1.
        -13    1    4    4    0    0  0.41592904955E+01  0.49587403604E+01 -0.17507747099E+03  0.17519709134E+03  0.10566000000E+00 0.  1.
        -14    1    4    4    0    0  0.77261192098E+01  0.70636865202E+01 -0.32811798386E+03  0.32828493709E+03  0.00000000000E+00 0.  1.
<mgrwt>
<rscale>  0 0.81811808E+02</rscale>
<asrwt>0</asrwt>
<pdfrwt beam="1">  1        2 0.10168836E+00 0.81811808E+02</pdfrwt>
<pdfrwt beam="2">  1       -1 0.38947004E-03 0.81811808E+02</pdfrwt>
<totfact> 0.31127377E+05</totfact>
</mgrwt>
</event>
<event>
 8    1  0.1226832E-020  0.8366152E+02  0.7818608E-02  0.1318970E+00
          2   -1    0    0  501    0  0.00000000000E+00  0.00000000000E+00  0.78440701131E+03  0.78440701132E+03  0.25500000000E-02 0. -1.
         -1   -1    0    0    0  501 -0.00000000000E+00 -0.00000000000E+00 -0.22307429946E+01  0.22307486881E+01  0.50400000000E-02 0.  1.
         24    2    1    2    0    0  0.00000000000E+00  0.00000000000E+00  0.78217626832E+03  0.78663776001E+03  0.83661524882E+02 0.  0.
         66    2    3    3    0    0  0.31693816787E+02  0.50172219783E+00  0.64761794348E+03  0.64839629121E+03  0.19999970537E+01 0.  0.
        -13    1    3    3    0    0 -0.31693816787E+02 -0.50172219783E+00  0.13455832484E+03  0.13824146880E+03  0.10566000000E+00 0.  1.
         13    1    4    4    0    0  0.19416991085E+02  0.46250638512E-01  0.38535359574E+03  0.38584248936E+03  0.10566000000E+00 0. -1.
        -13    1    4    4    0    0  0.12014782426E+02  0.30109020182E+00  0.25500581392E+03  0.25528889899E+03  0.10566000000E+00 0.  1.
        -14    1    4    4    0    0  0.26204327573E+00  0.15438135750E+00  0.72585338220E+01  0.72649028573E+01  0.00000000000E+00 0.  1.
<mgrwt>
<rscale>  0 0.83661525E+02</rscale>
<asrwt>0</asrwt>
<pdfrwt beam="1">  1        2 0.12067822E+00 0.83661525E+02</pdfrwt>
<pdfrwt beam="2">  1       -1 0.34319105E-03 0.83661525E+02</pdfrwt>
<totfact> 0.30479226E+05</totfact>
</mgrwt>
</event>
<event>
 8    1  0.1226832E-020  0.7994820E+02  0.7818608E-02  0.1329198E+00
          2   -1    0    0  501    0  0.00000000000E+00  0.00000000000E+00  0.10437490660E+02  0.10437490971E+02  0.25500000000E-02 0. -1.
         -1   -1    0    0    0  501 -0.00000000000E+00 -0.00000000000E+00 -0.15309511433E+03  0.15309511441E+03  0.50400000000E-02 0.  1.
         24    2    1    2    0    0  0.00000000000E+00  0.17763568394E-14 -0.14265762367E+03  0.16353260538E+03  0.79948204685E+02 0.  0.
         66    2    3    3    0    0 -0.38440733753E+02  0.10123839922E+02 -0.79488954367E+02  0.88896996645E+02  0.19999999787E+01 0.  0.
        -13    1    3    3    0    0  0.38440733753E+02 -0.10123839922E+02 -0.63168669304E+02  0.74635608740E+02  0.10566000000E+00 0.  1.
         13    1    4    4    0    0 -0.62987361485E+01  0.13768995485E+01 -0.14253575413E+02  0.15644344203E+02  0.10566000000E+00 0. -1.
        -13    1    4    4    0    0 -0.25337072773E+01  0.49954436790E+00 -0.52119543972E+01  0.58176326643E+01  0.10566000000E+00 0.  1.
         14    1    4    4    0    0 -0.29608290327E+02  0.82473960054E+01 -0.60023424557E+02  0.67435019778E+02  0.00000000000E+00 0. -1.
<mgrwt>
<rscale>  0 0.79948205E+02</rscale>
<asrwt>0</asrwt>
<pdfrwt beam="1">  1        2 0.16057679E-02 0.79948205E+02</pdfrwt>
<pdfrwt beam="2">  1       -1 0.23553093E-01 0.79948205E+02</pdfrwt>
<totfact> 0.10748531E+05</totfact>
</mgrwt>
</event>
<event>
 8    1  0.1226832E-020  0.7986777E+02  0.7818608E-02  0.1329427E+00
          2   -1    0    0  501    0  0.00000000000E+00  0.00000000000E+00  0.16641356010E+04  0.16641356010E+04  0.25500000000E-02 0. -1.
         -1   -1    0    0    0  501 -0.00000000000E+00 -0.00000000000E+00 -0.95827766638E+00  0.95829092007E+00  0.50400000000E-02 0.  1.
         24    2    1    2    0    0  0.44408920985E-15 -0.35527136788E-14  0.16631773233E+04  0.16650938919E+04  0.79867766118E+02 0.  0.
         66    2    3    3    0    0 -0.34055678926E+01 -0.11466286257E+02  0.16258824342E+04  0.16259276624E+04  0.19999994474E+01 0.  0.
        -13    1    3    3    0    0  0.34055678926E+01  0.11466286257E+02  0.37294889134E+02  0.39166229494E+02  0.10566000000E+00 0.  1.
         13    1    4    4    0    0 -0.17707135734E+01 -0.53621893334E+01  0.73279860852E+03  0.73282037384E+03  0.10566000000E+00 0. -1.
        -13    1    4    4    0    0 -0.12415198490E+01 -0.20564965995E+01  0.31982812736E+03  0.31983716602E+03  0.10566000000E+00 0.  1.
        -14    1    4    4    0    0 -0.39333447020E+00 -0.40476003240E+01  0.57325569829E+03  0.57327012254E+03  0.00000000000E+00 0.  1.
<mgrwt>
<rscale>  0 0.79867766E+02</rscale>
<asrwt>0</asrwt>
<pdfrwt beam="1">  1        2 0.25602350E+00 0.79867766E+02</pdfrwt>
<pdfrwt beam="2">  1       -1 0.14742683E-03 0.79867766E+02</pdfrwt>
<totfact> 0.31848456E+05</totfact>
</mgrwt>
</event>
<event>
 8    1  0.1226832E-020  0.8152639E+02  0.7818608E-02  0.1324775E+00
         -1   -1    0    0    0  501 -0.00000000000E+00  0.00000000000E+00  0.19855238536E+01  0.19855302503E+01  0.50400000000E-02 0.  1.
          2   -1    0    0  501    0  0.00000000000E+00 -0.00000000000E+00 -0.83687505628E+03  0.83687505628E+03  0.25500000000E-02 0. -1.
         24    2    1    2    0    0  0.00000000000E+00  0.00000000000E+00 -0.83488953242E+03  0.83886058653E+03  0.81526390116E+02 0.  0.
         66    2    3    3    0    0  0.61031900978E+01  0.23962549665E+02 -0.75082210173E+03  0.75123184248E+03  0.20000000607E+01 0.  0.
        -13    1    3    3    0    0 -0.61031900978E+01 -0.23962549665E+02 -0.84067430693E+02  0.87628744046E+02  0.10566000000E+00 0.  1.
         13    1    4    4    0    0  0.14392791070E+01  0.53157005218E+01 -0.17203610212E+03  0.17212425685E+03  0.10566000000E+00 0. -1.
        -13    1    4    4    0    0  0.31170159049E+01  0.12203006430E+02 -0.40273221284E+03  0.40292911979E+03  0.10566000000E+00 0.  1.
        -14    1    4    4    0    0  0.15468950858E+01  0.64438427133E+01 -0.17605378677E+03  0.17617846585E+03  0.00000000000E+00 0.  1.
<mgrwt>
<rscale>  0 0.81526390E+02</rscale>
<asrwt>0</asrwt>
<pdfrwt beam="1">  1        2 0.12874973E+00 0.81526390E+02</pdfrwt>
<pdfrwt beam="2">  1       -1 0.30546637E-03 0.81526390E+02</pdfrwt>
<totfact> 0.32956779E+05</totfact>
</mgrwt>
</event>
<event>
 8    1  0.1226832E-020  0.7799610E+02  0.7818608E-02  0.1334836E+00
          2   -1    0    0  501    0  0.00000000000E+00  0.00000000000E+00  0.19728114420E+03  0.19728114422E+03  0.25500000000E-02 0. -1.
         -1   -1    0    0    0  501 -0.00000000000E+00 -0.00000000000E+00 -0.77090373910E+01  0.77090390386E+01  0.50400000000E-02 0.  1.
         24    2    1    2    0    0 -0.35527136788E-14  0.35527136788E-14  0.18957210681E+03  0.20499018326E+03  0.77996099589E+02 0.  0.
         66    2    3    3    0    0 -0.23157914755E+02  0.23666357981E+02  0.14886784073E+03  0.15251891534E+03  0.20000040895E+01 0.  0.
        -13    1    3    3    0    0  0.23157914755E+02 -0.23666357981E+02  0.40704266083E+02  0.52471267921E+02  0.10566000000E+00 0.  1.
         13    1    4    4    0    0 -0.31053691207E+01  0.29093089769E+01  0.17288488202E+02  0.17804785436E+02  0.10566000000E+00 0. -1.
        -13    1    4    4    0    0 -0.89732159305E+01  0.90687028208E+01  0.61188115923E+02  0.62504053222E+02  0.10566000000E+00 0.  1.
         14    1    4    4    0    0 -0.11079329704E+02  0.11688346183E+02  0.70391236605E+02  0.72210076679E+02  0.00000000000E+00 0. -1.
<mgrwt>
<rscale>  0 0.77996100E+02</rscale>
<asrwt>0</asrwt>
<pdfrwt beam="1">  1        2 0.30350947E-01 0.77996100E+02</pdfrwt>
<pdfrwt beam="2">  1       -1 0.11860058E-02 0.77996100E+02</pdfrwt>
<totfact> 0.23472254E+05</totfact>
</mgrwt>
</event>
<event>
 8    1  0.1226832E-020  0.7597260E+02  0.7818608E-02  0.1340885E+00
          2   -1    0    0  501    0  0.00000000000E+00  0.00000000000E+00  0.17428269390E+03  0.17428269391E+03  0.25500000000E-02 0. -1.
         -1   -1    0    0    0  501 -0.00000000000E+00 -0.00000000000E+00 -0.82794157596E+01  0.82794172936E+01  0.50400000000E-02 0.  1.
         24    2    1    2    0    0 -0.35527136788E-14  0.00000000000E+00  0.16600327814E+03  0.18256211121E+03  0.75972600961E+02 0.  0.
         66    2    3    3    0    0  0.29988740360E+02  0.19560218405E+02  0.11336228379E+03  0.11889883967E+03  0.19999994052E+01 0.  0.
        -13    1    3    3    0    0 -0.29988740360E+02 -0.19560218405E+02  0.52640994348E+02  0.63663271534E+02  0.10566000000E+00 0.  1.
         13    1    4    4    0    0  0.65998527725E+01  0.40294186776E+01  0.23738976215E+02  0.24966866589E+02  0.10566000000E+00 0. -1.
        -13    1    4    4    0    0  0.10608868997E+02  0.67413917460E+01  0.37586909656E+02  0.39633084735E+02  0.10566000000E+00 0.  1.
         14    1    4    4    0    0  0.12780018591E+02  0.87894079815E+01  0.52036397918E+02  0.54298888351E+02  0.00000000000E+00 0. -1.
<mgrwt>
<rscale>  0 0.75972601E+02</rscale>
<asrwt>0</asrwt>
<pdfrwt beam="1">  1        2 0.26812722E-01 0.75972601E+02</pdfrwt>
<pdfrwt beam="2">  1       -1 0.12737564E-02 0.75972601E+02</pdfrwt>
<totfact> 0.24116005E+05</totfact>
</mgrwt>
</event>
<event>
 8    1  0.1226832E-020  0.7992925E+02  0.7818608E-02  0.1329252E+00
         -1   -1    0    0    0  501 -0.00000000000E+00  0.00000000000E+00  0.37212333449E+02  0.37212333790E+02  0.50400000000E-02 0.  1.
          2   -1    0    0  501    0  0.00000000000E+00 -0.00000000000E+00 -0.42920483953E+02  0.42920484029E+02  0.25500000000E-02 0. -1.
         24    2    1    2    0    0  0.00000000000E+00  0.00000000000E+00 -0.57081505038E+01  0.80132817819E+02  0.79929253152E+02 0.  0.
         66    2    3    3    0    0  0.19540055648E+02  0.26024409125E+02 -0.26068285693E+02  0.41744930224E+02  0.20000088537E+01 0.  0.
        -13    1    3    3    0    0 -0.19540055648E+02 -0.26024409125E+02  0.20360135189E+02  0.38387887595E+02  0.10566000000E+00 0.  1.
         13    1    4    4    0    0  0.24715442295E+01  0.40529422734E+01 -0.38859715777E+01  0.61356997228E+01  0.10566000000E+00 0. -1.
        -13    1    4    4    0    0  0.80907120163E+01  0.93134362793E+01 -0.97701063999E+01  0.15737403196E+02  0.10566000000E+00 0.  1.
         14    1    4    4    0    0  0.89777994024E+01  0.12658030573E+02 -0.12412207715E+02  0.19871827305E+02  0.00000000000E+00 0. -1.
<mgrwt>
<rscale>  0 0.79929253E+02</rscale>
<asrwt>0</asrwt>
<pdfrwt beam="1">  1        2 0.66031514E-02 0.79929253E+02</pdfrwt>
<pdfrwt beam="2">  1       -1 0.57249745E-02 0.79929253E+02</pdfrwt>
<totfact> 0.14500100E+05</totfact>
</mgrwt>
</event>
<event>
 8    1  0.1226832E-020  0.8103280E+02  0.7818608E-02  0.1326146E+00
          2   -1    0    0  501    0  0.00000000000E+00  0.00000000000E+00  0.16115993093E+03  0.16115993095E+03  0.25500000000E-02 0. -1.
         -1   -1    0    0    0  501 -0.00000000000E+00 -0.00000000000E+00 -0.10186020739E+02  0.10186021985E+02  0.50400000000E-02 0.  1.
         24    2    1    2    0    0  0.88817841970E-15  0.00000000000E+00  0.15097391019E+03  0.17134595294E+03  0.81032796008E+02 0.  0.
         66    2    3    3    0    0 -0.68462423190E+01  0.24348804703E+02  0.14239458452E+03  0.14463731543E+03  0.19999973274E+01 0.  0.
        -13    1    3    3    0    0  0.68462423190E+01 -0.24348804703E+02  0.85793256679E+01  0.26708637504E+02  0.10566000000E+00 0.  1.
         13    1    4    4    0    0 -0.23808603947E+01  0.82915856990E+01  0.51668270011E+02  0.52383586929E+02  0.10566000000E+00 0. -1.
        -13    1    4    4    0    0 -0.19211228068E+01  0.52708925187E+01  0.28183168383E+02  0.28736303953E+02  0.10566000000E+00 0.  1.
         14    1    4    4    0    0 -0.25442591175E+01  0.10786326485E+02  0.62543146130E+02  0.63517424549E+02  0.00000000000E+00 0. -1.
<mgrwt>
<rscale>  0 0.81032796E+02</rscale>
<asrwt>0</asrwt>
<pdfrwt beam="1">  1        2 0.24793835E-01 0.81032796E+02</pdfrwt>
<pdfrwt beam="2">  1       -1 0.15670802E-02 0.81032796E+02</pdfrwt>
<totfact> 0.19817848E+05</totfact>
</mgrwt>
</event>
<event>
 8    1  0.1226832E-020  0.8161641E+02  0.7818608E-02  0.1324526E+00
         -1   -1    0    0    0  501 -0.00000000000E+00  0.00000000000E+00  0.91143021585E+02  0.91143021724E+02  0.50400000000E-02 0.  1.
          2   -1    0    0  501    0  0.00000000000E+00 -0.00000000000E+00 -0.18271389223E+02  0.18271389401E+02  0.25500000000E-02 0. -1.
         24    2    1    2    0    0  0.00000000000E+00 -0.35527136788E-14  0.72871632362E+02  0.10941441112E+03  0.81616411087E+02 0.  0.
         66    2    3    3    0    0 -0.17917410952E+01  0.31175302518E+02  0.12892238197E+01  0.31317278015E+02  0.19999952440E+01 0.  0.
        -13    1    3    3    0    0  0.17917410952E+01 -0.31175302518E+02  0.71582408542E+02  0.78097133110E+02  0.10566000000E+00 0.  1.
         13    1    4    4    0    0 -0.13809570795E+01  0.25106182088E+02  0.17119438194E+01  0.25202566083E+02  0.10566000000E+00 0. -1.
        -13    1    4    4    0    0 -0.13525603486E+00  0.32795988283E+01 -0.29881465603E-01  0.32842228315E+01  0.10566000000E+00 0.  1.
         14    1    4    4    0    0 -0.27552798084E+00  0.27895216016E+01 -0.39283853407E+00  0.28304891005E+01  0.00000000000E+00 0. -1.
<mgrwt>
<rscale>  0 0.81616411E+02</rscale>
<asrwt>0</asrwt>
<pdfrwt beam="1">  1        2 0.28109830E-02 0.81616411E+02</pdfrwt>
<pdfrwt beam="2">  1       -1 0.14022003E-01 0.81616411E+02</pdfrwt>
<totfact> 0.11502113E+05</totfact>
</mgrwt>
</event>
<event>
 8    1  0.1226832E-020  0.8098562E+02  0.7818608E-02  0.1326277E+00
          2   -1    0    0  501    0  0.00000000000E+00  0.00000000000E+00  0.64753372008E+01  0.64753377029E+01  0.25500000000E-02 0. -1.
         -1   -1    0    0    0  501 -0.00000000000E+00 -0.00000000000E+00 -0.25321730083E+03  0.25321730088E+03  0.50400000000E-02 0.  1.
         24    2    1    2    0    0  0.00000000000E+00  0.00000000000E+00 -0.24674196363E+03  0.25969263859E+03  0.80985615505E+02 0.  0.
         66    2    3    3    0    0  0.84694847170E+01 -0.33701099164E+02 -0.56938622110E+02  0.66734570930E+02  0.20000033171E+01 0.  0.
        -13    1    3    3    0    0 -0.84694847170E+01  0.33701099164E+02 -0.18980334152E+03  0.19295806766E+03  0.10566000000E+00 0.  1.
         13    1    4    4    0    0  0.35736452300E+01 -0.12861708143E+02 -0.21999567475E+02  0.25732986801E+02  0.10566000000E+00 0. -1.
        -13    1    4    4    0    0  0.13306753076E+01 -0.37651124234E+01 -0.58497265029E+01  0.70835889582E+01  0.10566000000E+00 0.  1.
        -14    1    4    4    0    0  0.35651641794E+01 -0.17074278598E+02 -0.29089328131E+02  0.33917995171E+02  0.00000000000E+00 0.  1.
<mgrwt>
<rscale>  0 0.80985616E+02</rscale>
<asrwt>0</asrwt>
<pdfrwt beam="1">  1        2 0.99620596E-03 0.80985616E+02</pdfrwt>
<pdfrwt beam="2">  1       -1 0.38956500E-01 0.80985616E+02</pdfrwt>
<totfact> 0.89346510E+04</totfact>
</mgrwt>
</event>
<event>
 8    1  0.1226832E-020  0.8114346E+02  0.7818608E-02  0.1325837E+00
         -1   -1    0    0    0  501 -0.00000000000E+00  0.00000000000E+00  0.13101062024E+01  0.13101158968E+01  0.50400000000E-02 0.  1.
          2   -1    0    0  501    0  0.00000000000E+00 -0.00000000000E+00 -0.12564317503E+04  0.12564317503E+04  0.25500000000E-02 0. -1.
         24    2    1    2    0    0  0.00000000000E+00  0.71054273576E-14 -0.12551216441E+04  0.12577418662E+04  0.81143456350E+02 0.  0.
         66    2    3    3    0    0  0.69342005107E+01  0.24382813398E+02 -0.11184577388E+04  0.11187467624E+04  0.20000006194E+01 0.  0.
        -13    1    3    3    0    0 -0.69342005107E+01 -0.24382813398E+02 -0.13666390524E+03  0.13899510382E+03  0.10566000000E+00 0.  1.
         13    1    4    4    0    0  0.47591323327E+01  0.15964859540E+02 -0.75551025648E+03  0.75569390952E+03  0.10566000000E+00 0. -1.
        -13    1    4    4    0    0  0.18869173798E+01  0.80715268877E+01 -0.34698274062E+03  0.34708175328E+03  0.10566000000E+00 0.  1.
        -14    1    4    4    0    0  0.28815079811E+00  0.34642696956E+00 -0.15964741745E+02  0.15971099571E+02  0.00000000000E+00 0.  1.
<mgrwt>
<rscale>  0 0.81143456E+02</rscale>
<asrwt>0</asrwt>
<pdfrwt beam="1">  1        2 0.19329623E+00 0.81143456E+02</pdfrwt>
<pdfrwt beam="2">  1       -1 0.20155655E-03 0.81143456E+02</pdfrwt>
<totfact> 0.33563334E+05</totfact>
</mgrwt>
</event>
<event>
 8    1  0.1226832E-020  0.7948161E+02  0.7818608E-02  0.1330529E+00
         -1   -1    0    0    0  501 -0.00000000000E+00  0.00000000000E+00  0.29835203861E+02  0.29835204287E+02  0.50400000000E-02 0.  1.
          2   -1    0    0  501    0  0.00000000000E+00 -0.00000000000E+00 -0.52935165667E+02  0.52935165729E+02  0.25500000000E-02 0. -1.
         24    2    1    2    0    0 -0.22204460493E-15  0.00000000000E+00 -0.23099961806E+02  0.82770370016E+02  0.79481607414E+02 0.  0.
         66    2    3    3    0    0 -0.16934840138E+01 -0.39666180499E+02 -0.10488775600E+02  0.41113114404E+02  0.19999997380E+01 0.  0.
        -13    1    3    3    0    0  0.16934840138E+01  0.39666180499E+02 -0.12611186206E+02  0.41657255611E+02  0.10566000000E+00 0.  1.
         13    1    4    4    0    0  0.27063276587E+00 -0.35481249651E+01 -0.10366579585E+01  0.37078641588E+01  0.10566000000E+00 0. -1.
        -13    1    4    4    0    0 -0.66648353873E+00 -0.75403310179E+01 -0.15618541880E+01  0.77298993983E+01  0.10566000000E+00 0.  1.
         14    1    4    4    0    0 -0.12976332409E+01 -0.28577724516E+02 -0.78902634539E+01  0.29675350847E+02  0.00000000000E+00 0. -1.
<mgrwt>
<rscale>  0 0.79481607E+02</rscale>
<asrwt>0</asrwt>
<pdfrwt beam="1">  1        2 0.81438716E-02 0.79481607E+02</pdfrwt>
<pdfrwt beam="2">  1       -1 0.45900314E-02 0.79481607E+02</pdfrwt>
<totfact> 0.15402512E+05</totfact>
</mgrwt>
</event>
<event>
 8    1  0.1226832E-020  0.7940029E+02  0.7818608E-02  0.1330762E+00
         -1   -1    0    0    0  501 -0.00000000000E+00  0.00000000000E+00  0.23140870807E+01  0.23140925691E+01  0.50400000000E-02 0.  1.
          2   -1    0    0  501    0  0.00000000000E+00 -0.00000000000E+00 -0.68108924672E+03  0.68108924673E+03  0.25500000000E-02 0. -1.
         24    2    1    2    0    0  0.35527136788E-14 -0.44408920985E-15 -0.67877515964E+03  0.68340333930E+03  0.79400294802E+02 0.  0.
         66    2    3    3    0    0  0.18204326455E+02 -0.37391590298E+01 -0.64130632166E+03  0.64157866003E+03  0.19999985277E+01 0.  0.
        -13    1    3    3    0    0 -0.18204326455E+02  0.37391590298E+01 -0.37468837984E+02  0.41824679267E+02  0.10566000000E+00 0.  1.
         13    1    4    4    0    0  0.67457072864E+01 -0.14587561576E+01 -0.22172110154E+03  0.22182851613E+03  0.10566000000E+00 0. -1.
        -13    1    4    4    0    0  0.28441254626E+01 -0.63876351585E+00 -0.85062548491E+02  0.85112545422E+02  0.10566000000E+00 0.  1.
        -14    1    4    4    0    0  0.86144937059E+01 -0.16416393563E+01 -0.33452267163E+03  0.33463759848E+03  0.00000000000E+00 0.  1.
<mgrwt>
<rscale>  0 0.79400295E+02</rscale>
<asrwt>0</asrwt>
<pdfrwt beam="1">  1        2 0.10478280E+00 0.79400295E+02</pdfrwt>
<pdfrwt beam="2">  1       -1 0.35601436E-03 0.79400295E+02</pdfrwt>
<totfact> 0.33894578E+05</totfact>
</mgrwt>
</event>
<event>
 8    1  0.1226832E-020  0.7990340E+02  0.7818608E-02  0.1329326E+00
         -1   -1    0    0    0  501 -0.00000000000E+00  0.00000000000E+00  0.10984934239E+03  0.10984934251E+03  0.50400000000E-02 0.  1.
          2   -1    0    0  501    0  0.00000000000E+00 -0.00000000000E+00 -0.14530249547E+02  0.14530249770E+02  0.25500000000E-02 0. -1.
         24    2    1    2    0    0 -0.88817841970E-15  0.00000000000E+00  0.95319092844E+02  0.12437959228E+03  0.79903401144E+02 0.  0.
         66    2    3    3    0    0 -0.72275025760E+01 -0.29525697861E+02  0.73931936924E+01  0.31347455177E+02  0.20000013587E+01 0.  0.
        -13    1    3    3    0    0  0.72275025760E+01  0.29525697861E+02  0.87925899152E+02  0.93032137100E+02  0.10566000000E+00 0.  1.
         13    1    4    4    0    0 -0.52718399188E+01 -0.22869930418E+02  0.50793849618E+01  0.24013274018E+02  0.10566000000E+00 0. -1.
        -13    1    4    4    0    0 -0.72940739929E-01 -0.59141534380E+00  0.12766248589E+00  0.61850966551E+00  0.10566000000E+00 0. -1.
         14    1    4    4    0    0 -0.18827219172E+01 -0.60643520995E+01  0.21861462447E+01  0.67156714934E+01  0.00000000000E+00 0. -1.
<mgrwt>
<rscale>  0 0.79903401E+02</rscale>
<asrwt>0</asrwt>
<pdfrwt beam="1">  1        2 0.22354231E-02 0.79903401E+02</pdfrwt>
<pdfrwt beam="2">  1       -1 0.16899899E-01 0.79903401E+02</pdfrwt>
<totfact> 0.11648281E+05</totfact>
</mgrwt>
</event>
<event>
 8    1  0.1226832E-020  0.7395632E+02  0.7818608E-02  0.1347134E+00
          2   -1    0    0  501    0  0.00000000000E+00  0.00000000000E+00  0.39138131167E+02  0.39138131250E+02  0.25500000000E-02 0. -1.
         -1   -1    0    0    0  501 -0.00000000000E+00 -0.00000000000E+00 -0.34937393265E+02  0.34937393629E+02  0.50400000000E-02 0.  1.
         24    2    1    2    0    0  0.00000000000E+00  0.00000000000E+00  0.42007379018E+01  0.74075524879E+02  0.73956319454E+02 0.  0.
         66    2    3    3    0    0  0.18109034441E+02 -0.21750327538E+02  0.25896571542E+02  0.38414141874E+02  0.20000004814E+01 0.  0.
        -13    1    3    3    0    0 -0.18109034441E+02  0.21750327538E+02 -0.21695833640E+02  0.35661383004E+02  0.10566000000E+00 0.  1.
         13    1    4    4    0    0  0.19357842474E+01 -0.17797813662E+01  0.23118179626E+01  0.35029342974E+01  0.10566000000E+00 0. -1.
        -13    1    4    4    0    0  0.42507028796E+01 -0.46128748578E+01  0.64140023498E+01  0.89720499109E+01  0.10566000000E+00 0.  1.
         14    1    4    4    0    0  0.11922547314E+02 -0.15357671314E+02  0.17170751229E+02  0.25939157666E+02  0.00000000000E+00 0. -1.
<mgrwt>
<rscale>  0 0.73956319E+02</rscale>
<asrwt>0</asrwt>
<pdfrwt beam="1">  1        2 0.60212510E-02 0.73956319E+02</pdfrwt>
<pdfrwt beam="2">  1       -1 0.53749836E-02 0.73956319E+02</pdfrwt>
<totfact> 0.17612144E+05</totfact>
</mgrwt>
</event>
<event>
 8    1  0.1226832E-020  0.7892867E+02  0.7818608E-02  0.1332120E+00
          2   -1    0    0  501    0  0.00000000000E+00  0.00000000000E+00  0.31727219455E+03  0.31727219456E+03  0.25500000000E-02 0. -1.
         -1   -1    0    0    0  501 -0.00000000000E+00 -0.00000000000E+00 -0.49088234117E+01  0.49088259990E+01  0.50400000000E-02 0.  1.
         24    2    1    2    0    0  0.00000000000E+00  0.17763568394E-14  0.31236337114E+03  0.32218102056E+03  0.78928666400E+02 0.  0.
         66    2    3    3    0    0 -0.35721511981E+02 -0.10086789431E+02  0.21068917507E+03  0.21394321270E+03  0.20000077306E+01 0.  0.
        -13    1    3    3    0    0  0.35721511981E+02  0.10086789431E+02  0.10167419607E+03  0.10823780785E+03  0.10566000000E+00 0.  1.
         13    1    4    4    0    0 -0.25210551089E+02 -0.71255233709E+01  0.14637149647E+03  0.14869758274E+03  0.10566000000E+00 0. -1.
        -13    1    4    4    0    0 -0.24863313254E+01 -0.82139065578E+00  0.13189796441E+02  0.13447617642E+02  0.10566000000E+00 0.  1.
         14    1    4    4    0    0 -0.80246295664E+01 -0.21398754046E+01  0.51127882158E+02  0.51798012321E+02  0.00000000000E+00 0. -1.
<mgrwt>
<rscale>  0 0.78928666E+02</rscale>
<asrwt>0</asrwt>
<pdfrwt beam="1">  1        2 0.48811121E-01 0.78928666E+02</pdfrwt>
<pdfrwt beam="2">  1       -1 0.75520358E-03 0.78928666E+02</pdfrwt>
<totfact> 0.26950433E+05</totfact>
</mgrwt>
</event>
<event>
 8    1  0.1226832E-020  0.8151159E+02  0.7818608E-02  0.1324816E+00
         -1   -1    0    0    0  501 -0.00000000000E+00  0.00000000000E+00  0.21013763547E+02  0.21013764151E+02  0.50400000000E-02 0.  1.
          2   -1    0    0  501    0  0.00000000000E+00 -0.00000000000E+00 -0.79045091730E+02  0.79045091771E+02  0.25500000000E-02 0. -1.
         24    2    1    2    0    0 -0.35527136788E-14  0.00000000000E+00 -0.58031328183E+02  0.10005885592E+03  0.81511591799E+02 0.  0.
         66    2    3    3    0    0  0.28416276740E+02 -0.28742743842E+02 -0.22846492849E+02  0.46471414213E+02  0.19999990212E+01 0.  0.
        -13    1    3    3    0    0 -0.28416276740E+02  0.28742743842E+02 -0.35184835334E+02  0.53587441709E+02  0.10566000000E+00 0.  1.
         13    1    4    4    0    0  0.17800122850E+02 -0.17352748931E+02 -0.14834976062E+02  0.28949092347E+02  0.10566000000E+00 0. -1.
        -13    1    4    4    0    0  0.51099361079E+01 -0.53740556546E+01 -0.34755957281E+01  0.81904121329E+01  0.10566000000E+00 0.  1.
         14    1    4    4    0    0  0.55062177825E+01 -0.60159392566E+01 -0.45359210585E+01  0.93319097325E+01  0.00000000000E+00 0. -1.
<mgrwt>
<rscale>  0 0.81511592E+02</rscale>
<asrwt>0</asrwt>
<pdfrwt beam="1">  1        2 0.12160783E-01 0.81511592E+02</pdfrwt>
<pdfrwt beam="2">  1       -1 0.32328868E-02 0.81511592E+02</pdfrwt>
<totfact> 0.15824038E+05</totfact>
</mgrwt>
</event>
<event>
 8    1  0.1226832E-020  0.8256496E+02  0.7818608E-02  0.1321926E+00
         -1   -1    0    0    0  501 -0.00000000000E+00  0.00000000000E+00  0.11427569962E+02  0.11427571074E+02  0.50400000000E-02 0.  1.
          2   -1    0    0  501    0  0.00000000000E+00 -0.00000000000E+00 -0.14913432918E+03  0.14913432920E+03  0.25500000000E-02 0. -1.
         24    2    1    2    0    0  0.00000000000E+00  0.00000000000E+00 -0.13770675922E+03  0.16056190027E+03  0.82564957976E+02 0.  0.
         66    2    3    3    0    0 -0.39603903511E+02 -0.10637099910E+02 -0.77724500108E+02  0.87901734849E+02  0.20000011322E+01 0.  0.
        -13    1    3    3    0    0  0.39603903511E+02  0.10637099910E+02 -0.59982259107E+02  0.72660165424E+02  0.10566000000E+00 0.  1.
         13    1    4    4    0    0 -0.12214634728E+02 -0.28565540523E+01 -0.23573438723E+02  0.26703471307E+02  0.10566000000E+00 0. -1.
        -13    1    4    4    0    0 -0.12074555880E+02 -0.29317710074E+01 -0.24799522334E+02  0.27738378701E+02  0.10566000000E+00 0.  1.
        -14    1    4    4    0    0 -0.15314712903E+02 -0.48487748507E+01 -0.29351539052E+02  0.33459884841E+02  0.00000000000E+00 0.  1.
<mgrwt>
<rscale>  0 0.82564958E+02</rscale>
<asrwt>0</asrwt>
<pdfrwt beam="1">  1        2 0.22943742E-01 0.82564958E+02</pdfrwt>
<pdfrwt beam="2">  1       -1 0.17580879E-02 0.82564958E+02</pdfrwt>
<totfact> 0.18383884E+05</totfact>
</mgrwt>
</event>
<event>
 8    1  0.1226832E-020  0.8238753E+02  0.7818608E-02  0.1322409E+00
          2   -1    0    0  501    0  0.00000000000E+00  0.00000000000E+00  0.58884984448E+02  0.58884984504E+02  0.25500000000E-02 0. -1.
         -1   -1    0    0    0  501 -0.00000000000E+00 -0.00000000000E+00 -0.28817642772E+02  0.28817643213E+02  0.50400000000E-02 0.  1.
         24    2    1    2    0    0  0.00000000000E+00  0.00000000000E+00  0.30067341676E+02  0.87702627717E+02  0.82387534694E+02 0.  0.
         66    2    3    3    0    0  0.13556446332E+02 -0.70763610073E+01 -0.25647384331E+02  0.29927252509E+02  0.19999993682E+01 0.  0.
        -13    1    3    3    0    0 -0.13556446332E+02  0.70763610073E+01  0.55714726007E+02  0.57775375207E+02  0.10566000000E+00 0.  1.
         13    1    4    4    0    0  0.20979502510E+01 -0.94649434621E+00 -0.33401035570E+01  0.40576720679E+01  0.10566000000E+00 0. -1.
        -13    1    4    4    0    0  0.82585245835E+00 -0.64062356922E+00 -0.27278546389E+01  0.29231465593E+01  0.10566000000E+00 0.  1.
         14    1    4    4    0    0  0.10632643623E+02 -0.54892430919E+01 -0.19579426135E+02  0.22946433882E+02  0.00000000000E+00 0. -1.
<mgrwt>
<rscale>  0 0.82387535E+02</rscale>
<asrwt>0</asrwt>
<pdfrwt beam="1">  1        2 0.90592283E-02 0.82387535E+02</pdfrwt>
<pdfrwt beam="2">  1       -1 0.44334836E-02 0.82387535E+02</pdfrwt>
<totfact> 0.14304163E+05</totfact>
</mgrwt>
</event>
<event>
 8    1  0.1226832E-020  0.8016414E+02  0.7818608E-02  0.1328586E+00
          2   -1    0    0  501    0  0.00000000000E+00  0.00000000000E+00  0.31789143976E+03  0.31789143977E+03  0.25500000000E-02 0. -1.
         -1   -1    0    0    0  501 -0.00000000000E+00 -0.00000000000E+00 -0.50538386006E+01  0.50538411137E+01  0.50400000000E-02 0.  1.
         24    2    1    2    0    0  0.22204460493E-15  0.00000000000E+00  0.31283760116E+03  0.32294528088E+03  0.80164142521E+02 0.  0.
         66    2    3    3    0    0  0.18602815746E+01  0.24854296302E+02  0.28284616559E+03  0.28394920334E+03  0.19999992520E+01 0.  0.
        -13    1    3    3    0    0 -0.18602815746E+01 -0.24854296302E+02  0.29991435571E+02  0.38996077544E+02  0.10566000000E+00 0.  1.
         13    1    4    4    0    0  0.12751126645E-01  0.47730509225E+01  0.59434097579E+02  0.59625542318E+02  0.10566000000E+00 0. -1.
        -13    1    4    4    0    0  0.40293903502E+00  0.31242514743E+01  0.30534808973E+02  0.30697052467E+02  0.10566000000E+00 0.  1.
         14    1    4    4    0    0  0.14445914129E+01  0.16956993905E+02  0.19287725904E+03  0.19362660855E+03  0.00000000000E+00 0. -1.
<mgrwt>
<rscale>  0 0.80164143E+02</rscale>
<asrwt>0</asrwt>
<pdfrwt beam="1">  1        2 0.48906362E-01 0.80164143E+02</pdfrwt>
<pdfrwt beam="2">  1       -1 0.77751404E-03 0.80164143E+02</pdfrwt>
<totfact> 0.25894632E+05</totfact>
</mgrwt>
</event>
<event>
 8    1  0.1226832E-020  0.8860428E+02  0.7818608E-02  0.1306267E+00
         -1   -1    0    0    0  501 -0.00000000000E+00  0.00000000000E+00  0.35541958166E+02  0.35541958524E+02  0.50400000000E-02 0.  1.
          2   -1    0    0  501    0  0.00000000000E+00 -0.00000000000E+00 -0.55221479983E+02  0.55221480042E+02  0.25500000000E-02 0. -1.
         24    2    1    2    0    0  0.35527136788E-14  0.00000000000E+00 -0.19679521817E+02  0.90763438566E+02  0.88604278685E+02 0.  0.
         66    2    3    3    0    0 -0.29840291639E+02 -0.20313144394E+01 -0.43291691920E+02  0.52656812050E+02  0.20000056370E+01 0.  0.
        -13    1    3    3    0    0  0.29840291639E+02  0.20313144394E+01  0.23612170103E+02  0.38106626516E+02  0.10566000000E+00 0.  1.
         13    1    4    4    0    0 -0.47417035443E+01 -0.45081630444E+00 -0.63641471543E+01  0.79498755261E+01  0.10566000000E+00 0. -1.
        -13    1    4    4    0    0 -0.20937421918E+02 -0.10950970415E+01 -0.29739342923E+02  0.36387010809E+02  0.10566000000E+00 0.  1.
        -14    1    4    4    0    0 -0.41611661766E+01 -0.48540109344E+00 -0.71882018426E+01  0.83199257149E+01  0.00000000000E+00 0.  1.
<mgrwt>
<rscale>  0 0.88604279E+02</rscale>
<asrwt>0</asrwt>
<pdfrwt beam="1">  1        2 0.84956123E-02 0.88604279E+02</pdfrwt>
<pdfrwt beam="2">  1       -1 0.54679936E-02 0.88604279E+02</pdfrwt>
<totfact> 0.11535077E+05</totfact>
</mgrwt>
</event>
<event>
 8    1  0.1226832E-020  0.8081611E+02  0.7818608E-02  0.1326751E+00
         -1   -1    0    0    0  501 -0.00000000000E+00  0.00000000000E+00  0.71195320944E+01  0.71195338783E+01  0.50400000000E-02 0.  1.
          2   -1    0    0  501    0  0.00000000000E+00 -0.00000000000E+00 -0.22934244288E+03  0.22934244289E+03  0.25500000000E-02 0. -1.
         24    2    1    2    0    0  0.00000000000E+00  0.35527136788E-14 -0.22222291078E+03  0.23646197677E+03  0.80816114613E+02 0.  0.
         66    2    3    3    0    0  0.21158866034E+02  0.19265856163E+02 -0.19455205179E+03  0.19665546440E+03  0.19999995472E+01 0.  0.
        -13    1    3    3    0    0 -0.21158866034E+02 -0.19265856163E+02 -0.27670858999E+02  0.39806512373E+02  0.10566000000E+00 0.  1.
         13    1    4    4    0    0  0.56026386012E+01  0.51959682971E+01 -0.54796625959E+02  0.55326928582E+02  0.10566000000E+00 0. -1.
        -13    1    4    4    0    0  0.37728413247E+01  0.39323035038E+01 -0.39878560040E+02  0.40249323689E+02  0.10566000000E+00 0.  1.
        -14    1    4    4    0    0  0.11783386109E+02  0.10137584362E+02 -0.99876865787E+02  0.10107921213E+03  0.00000000000E+00 0.  1.
<mgrwt>
<rscale>  0 0.80816115E+02</rscale>
<asrwt>0</asrwt>
<pdfrwt beam="1">  1        2 0.35283447E-01 0.80816115E+02</pdfrwt>
<pdfrwt beam="2">  1       -1 0.10953129E-02 0.80816115E+02</pdfrwt>
<totfact> 0.22534820E+05</totfact>
</mgrwt>
</event>
<event>
 8    1  0.1226832E-020  0.7825935E+02  0.7818608E-02  0.1334065E+00
          2   -1    0    0  501    0  0.00000000000E+00  0.00000000000E+00  0.50540048637E+03  0.50540048637E+03  0.25500000000E-02 0. -1.
         -1   -1    0    0    0  501 -0.00000000000E+00 -0.00000000000E+00 -0.30295387060E+01  0.30295428983E+01  0.50400000000E-02 0.  1.
         24    2    1    2    0    0  0.00000000000E+00  0.00000000000E+00  0.50237094766E+03  0.50843002927E+03  0.78259348397E+02 0.  0.
         66    2    3    3    0    0  0.30464873879E+02  0.83114987478E+01  0.40118812582E+03  0.40243397203E+03  0.19999974082E+01 0.  0.
        -13    1    3    3    0    0 -0.30464873879E+02 -0.83114987478E+01  0.10118282184E+03  0.10599605724E+03  0.10566000000E+00 0.  1.
         13    1    4    4    0    0  0.17963229755E+02  0.51612286262E+01  0.23139571882E+03  0.23214931780E+03  0.10566000000E+00 0. -1.
        -13    1    4    4    0    0  0.46323485901E+01  0.17048232929E+01  0.65272368872E+02  0.65458829642E+02  0.10566000000E+00 0.  1.
         14    1    4    4    0    0  0.78692955340E+01  0.14454468287E+01  0.10452003813E+03  0.10482582459E+03  0.00000000000E+00 0. -1.
<mgrwt>
<rscale>  0 0.78259348E+02</rscale>
<asrwt>0</asrwt>
<pdfrwt beam="1">  1        2 0.77753908E-01 0.78259348E+02</pdfrwt>
<pdfrwt beam="2">  1       -1 0.46608328E-03 0.78259348E+02</pdfrwt>
<totfact> 0.32356249E+05</totfact>
</mgrwt>
</event>
<event>
 8    1  0.1226832E-020  0.7807051E+02  0.7818608E-02  0.1334618E+00
         -1   -1    0    0    0  501 -0.00000000000E+00  0.00000000000E+00  0.10527622686E+03  0.10527622698E+03  0.50400000000E-02 0.  1.
          2   -1    0    0  501    0  0.00000000000E+00 -0.00000000000E+00 -0.14473838095E+02  0.14473838320E+02  0.25500000000E-02 0. -1.
         24    2    1    2    0    0 -0.35527136788E-14  0.00000000000E+00  0.90802388763E+02  0.11975006530E+03  0.78070508733E+02 0.  0.
         66    2    3    3    0    0  0.27245722798E+02 -0.16945947107E+02  0.11399309642E+02  0.34109218315E+02  0.19999949004E+01 0.  0.
        -13    1    3    3    0    0 -0.27245722798E+02  0.16945947107E+02  0.79403079121E+02  0.85640846983E+02  0.10566000000E+00 0.  1.
         13    1    4    4    0    0  0.31575908576E+01 -0.22183630362E+01  0.19789541322E+01  0.43380799989E+01  0.10566000000E+00 0. -1.
        -13    1    4    4    0    0  0.18430825126E+01 -0.13000180416E+01  0.76136301706E+00  0.23828213815E+01  0.10566000000E+00 0.  1.
         14    1    4    4    0    0  0.22245049428E+02 -0.13427566029E+02  0.86589924928E+01  0.27388316935E+02  0.00000000000E+00 0. -1.
<mgrwt>
<rscale>  0 0.78070509E+02</rscale>
<asrwt>0</asrwt>
<pdfrwt beam="1">  1        2 0.22267444E-02 0.78070509E+02</pdfrwt>
<pdfrwt beam="2">  1       -1 0.16196342E-01 0.78070509E+02</pdfrwt>
<totfact> 0.12459119E+05</totfact>
</mgrwt>
</event>
<event>
 8    1  0.1226832E-020  0.8047611E+02  0.7818608E-02  0.1327706E+00
         -1   -1    0    0    0  501 -0.00000000000E+00  0.00000000000E+00  0.59003066462E+01  0.59003087987E+01  0.50400000000E-02 0.  1.
          2   -1    0    0  501    0  0.00000000000E+00 -0.00000000000E+00 -0.27440957678E+03  0.27440957679E+03  0.25500000000E-02 0. -1.
         24    2    1    2    0    0  0.00000000000E+00 -0.88817841970E-15 -0.26850927013E+03  0.28030988559E+03  0.80476107088E+02 0.  0.
         66    2    3    3    0    0  0.35721626364E+02 -0.50343097789E+01 -0.19622732814E+03  0.19952579577E+03  0.20000013326E+01 0.  0.
        -13    1    3    3    0    0 -0.35721626364E+02  0.50343097789E+01 -0.72281941997E+02  0.80784089819E+02  0.10566000000E+00 0.  1.
         13    1    4    4    0    0  0.20847674174E+02 -0.25599708250E+01 -0.11743493305E+03  0.11929859024E+03  0.10566000000E+00 0.  1.
        -13    1    4    4    0    0  0.11187963779E+02 -0.20119144660E+01 -0.61204173218E+02  0.62250946311E+02  0.10566000000E+00 0. -1.
        -14    1    4    4    0    0  0.36859884113E+01 -0.46242448785E+00 -0.17588221866E+02  0.17976259215E+02  0.00000000000E+00 0.  1.
<mgrwt>
<rscale>  0 0.80476107E+02</rscale>
<asrwt>0</asrwt>
<pdfrwt beam="1">  1        2 0.42216848E-01 0.80476107E+02</pdfrwt>
<pdfrwt beam="2">  1       -1 0.90773987E-03 0.80476107E+02</pdfrwt>
<totfact> 0.24302573E+05</totfact>
</mgrwt>
</event>
<event>
 8    1  0.1226832E-020  0.7853573E+02  0.7818608E-02  0.1333259E+00
         -1   -1    0    0    0  501 -0.00000000000E+00  0.00000000000E+00  0.19606885296E+01  0.19606950073E+01  0.50400000000E-02 0.  1.
          2   -1    0    0  501    0  0.00000000000E+00 -0.00000000000E+00 -0.78643933910E+03  0.78643933910E+03  0.25500000000E-02 0. -1.
         24    2    1    2    0    0 -0.35527136788E-14  0.55511151231E-16 -0.78447865057E+03  0.78840003411E+03  0.78535728087E+02 0.  0.
         66    2    3    3    0    0 -0.27879407914E+02  0.45927168181E+00 -0.66969465773E+03  0.67027785799E+03  0.19999995886E+01 0.  0.
        -13    1    3    3    0    0  0.27879407914E+02 -0.45927168181E+00 -0.11478399284E+03  0.11812217612E+03  0.10566000000E+00 0.  1.
         13    1    4    4    0    0 -0.18124137794E+02  0.41617176182E+00 -0.43930897519E+03  0.43968289075E+03  0.10566000000E+00 0. -1.
        -13    1    4    4    0    0 -0.88878399810E+01  0.34169695081E+00 -0.20565380906E+03  0.20584608523E+03  0.10566000000E+00 0.  1.
        -14    1    4    4    0    0 -0.86743013856E+00 -0.29859703081E+00 -0.24731873477E+02  0.24748882013E+02  0.00000000000E+00 0.  1.
<mgrwt>
<rscale>  0 0.78535728E+02</rscale>
<asrwt>0</asrwt>
<pdfrwt beam="1">  1        2 0.12099042E+00 0.78535728E+02</pdfrwt>
<pdfrwt beam="2">  1       -1 0.30164552E-03 0.78535728E+02</pdfrwt>
<totfact> 0.35944837E+05</totfact>
</mgrwt>
</event>
<event>
 8    1  0.1226832E-020  0.7744746E+02  0.7818608E-02  0.1336455E+00
          2   -1    0    0  501    0  0.00000000000E+00  0.00000000000E+00  0.16237320752E+03  0.16237320754E+03  0.25500000000E-02 0. -1.
         -1   -1    0    0    0  501 -0.00000000000E+00 -0.00000000000E+00 -0.92350653339E+01  0.92350667091E+01  0.50400000000E-02 0.  1.
         24    2    1    2    0    0  0.00000000000E+00 -0.88817841970E-15  0.15313814218E+03  0.17160827425E+03  0.77447460891E+02 0.  0.
         66    2    3    3    0    0  0.11492307787E+02 -0.59046296285E+01  0.15744621373E+03  0.15798812616E+03  0.20000000866E+01 0.  0.
        -13    1    3    3    0    0 -0.11492307787E+02  0.59046296285E+01 -0.43080715490E+01  0.13620148084E+02  0.10566000000E+00 0.  1.
         13    1    4    4    0    0  0.31232056060E+01 -0.76757056043E+00  0.37946711355E+02  0.38082904885E+02  0.10566000000E+00 0. -1.
        -13    1    4    4    0    0  0.90615241253E+00 -0.76887722046E+00  0.16795219384E+02  0.16837542652E+02  0.10566000000E+00 0. -1.
         14    1    4    4    0    0  0.74629497685E+01 -0.43681818476E+01  0.10270428299E+03  0.10306767862E+03  0.00000000000E+00 0. -1.
<mgrwt>
<rscale>  0 0.77447461E+02</rscale>
<asrwt>0</asrwt>
<pdfrwt beam="1">  1        2 0.24980496E-01 0.77447461E+02</pdfrwt>
<pdfrwt beam="2">  1       -1 0.14207793E-02 0.77447461E+02</pdfrwt>
<totfact> 0.22394608E+05</totfact>
</mgrwt>
</event>
<event>
 8    1  0.1226832E-020  0.7709158E+02  0.7818608E-02  0.1337514E+00
          2   -1    0    0  501    0  0.00000000000E+00  0.00000000000E+00  0.25508098601E+02  0.25508098729E+02  0.25500000000E-02 0. -1.
         -1   -1    0    0    0  501 -0.00000000000E+00 -0.00000000000E+00 -0.58247296749E+02  0.58247296967E+02  0.50400000000E-02 0.  1.
         24    2    1    2    0    0  0.17763568394E-14  0.71054273576E-14 -0.32739198147E+02  0.83755395695E+02  0.77091576795E+02 0.  0.
         66    2    3    3    0    0 -0.14060164424E+02 -0.21132888495E+02  0.15097804887E+02  0.29601197122E+02  0.19999897238E+01 0.  0.
        -13    1    3    3    0    0  0.14060164424E+02  0.21132888495E+02 -0.47837003034E+02  0.54154198573E+02  0.10566000000E+00 0.  1.
         13    1    4    4    0    0 -0.13039786337E+01 -0.16449338895E+01  0.11945254219E+01  0.24174827398E+01  0.10566000000E+00 0. -1.
        -13    1    4    4    0    0 -0.12131594070E+02 -0.18995187276E+02  0.13187161237E+02  0.26113312694E+02  0.10566000000E+00 0.  1.
        -14    1    4    4    0    0 -0.62459172044E+00 -0.49276732957E+00  0.71611822815E+00  0.10704016886E+01  0.00000000000E+00 0.  1.
<mgrwt>
<rscale>  0 0.77091577E+02</rscale>
<asrwt>0</asrwt>
<pdfrwt beam="1">  1        2 0.39243229E-02 0.77091577E+02</pdfrwt>
<pdfrwt beam="2">  1       -1 0.89611226E-02 0.77091577E+02</pdfrwt>
<totfact> 0.14465967E+05</totfact>
</mgrwt>
</event>
<event>
 8    1  0.1264186E-020  0.7786706E+02  0.7818608E-02  0.1335216E+00
          2   -1    0    0  501    0  0.00000000000E+00  0.00000000000E+00  0.54876257032E+03  0.54876257033E+03  0.25500000000E-02 0. -1.
         -1   -1    0    0    0  501 -0.00000000000E+00 -0.00000000000E+00 -0.27622481591E+01  0.27622527571E+01  0.50400000000E-02 0.  1.
         24    2    1    2    0    0  0.00000000000E+00  0.35527136788E-14  0.54600032217E+03  0.55152482309E+03  0.77867057714E+02 0.  0.
         66    2    3    3    0    0 -0.21603929895E+02 -0.28557830421E+02  0.38095521873E+03  0.38263972370E+03  0.20000013694E+01 0.  0.
        -13    1    3    3    0    0  0.21603929895E+02  0.28557830421E+02  0.16504510343E+03  0.16888509939E+03  0.10566000000E+00 0.  1.
         13    1    4    4    0    0 -0.11120639515E+02 -0.15078142467E+02  0.19721339083E+03  0.19810136721E+03  0.10566000000E+00 0. -1.
        -13    1    4    4    0    0 -0.75369292931E+01 -0.10469068876E+02  0.14171160149E+03  0.14229756100E+03  0.10566000000E+00 0.  1.
        -14    1    4    4    0    0 -0.29463610870E+01 -0.30106190788E+01  0.42030226414E+02  0.42240795486E+02  0.00000000000E+00 0.  1.
<mgrwt>
<rscale>  0 0.77867058E+02</rscale>
<asrwt>0</asrwt>
<pdfrwt beam="1">  1        2 0.84424935E-01 0.77867058E+02</pdfrwt>
<pdfrwt beam="2">  1       -1 0.42496199E-03 0.77867058E+02</pdfrwt>
<totfact> 0.33623628E+05</totfact>
</mgrwt>
</event>
<event>
 8    1  0.1226832E-020  0.7910991E+02  0.7818608E-02  0.1331597E+00
         -1   -1    0    0    0  501 -0.00000000000E+00  0.00000000000E+00  0.18817014632E+01  0.18817082129E+01  0.50400000000E-02 0.  1.
          2   -1    0    0  501    0  0.00000000000E+00 -0.00000000000E+00 -0.83147712624E+03  0.83147712624E+03  0.25500000000E-02 0. -1.
         24    2    1    2    0    0  0.00000000000E+00  0.35527136788E-14 -0.82959542477E+03  0.83335883445E+03  0.79109911873E+02 0.  0.
         66    2    3    3    0    0  0.16359839675E+02 -0.26479580035E+02 -0.67175439723E+03  0.67247809088E+03  0.20000004274E+01 0.  0.
        -13    1    3    3    0    0 -0.16359839675E+02  0.26479580035E+02 -0.15784102755E+03  0.16088074358E+03  0.10566000000E+00 0.  1.
         13    1    4    4    0    0  0.39156706694E+01 -0.74538473066E+01 -0.18875023335E+03  0.18893796355E+03  0.10566000000E+00 0. -1.
        -13    1    4    4    0    0  0.96767546281E+01 -0.15529443040E+02 -0.38500331582E+03  0.38543789064E+03  0.10566000000E+00 0.  1.
        -14    1    4    4    0    0  0.27674143771E+01 -0.34962896883E+01 -0.98000848055E+02  0.98102236689E+02  0.00000000000E+00 0.  1.
<mgrwt>
<rscale>  0 0.79109912E+02</rscale>
<asrwt>0</asrwt>
<pdfrwt beam="1">  1        2 0.12791926E+00 0.79109912E+02</pdfrwt>
<pdfrwt beam="2">  1       -1 0.28949372E-03 0.79109912E+02</pdfrwt>
<totfact> 0.35601647E+05</totfact>
</mgrwt>
</event>
<event>
 8    1  0.1226832E-020  0.7896294E+02  0.7818608E-02  0.1332020E+00
          2   -1    0    0  501    0  0.00000000000E+00  0.00000000000E+00  0.47622162318E+02  0.47622162387E+02  0.25500000000E-02 0. -1.
         -1   -1    0    0    0  501 -0.00000000000E+00 -0.00000000000E+00 -0.32732373748E+02  0.32732374136E+02  0.50400000000E-02 0.  1.
         24    2    1    2    0    0 -0.71054273576E-14  0.00000000000E+00  0.14889788570E+02  0.80354536522E+02  0.78962939003E+02 0.  0.
         66    2    3    3    0    0 -0.37875346417E+02  0.84303350752E+01  0.14728978340E+02  0.41551837652E+02  0.19999984086E+01 0.  0.
        -13    1    3    3    0    0  0.37875346417E+02 -0.84303350752E+01  0.16081023035E+00  0.38802698871E+02  0.10566000000E+00 0.  1.
         13    1    4    4    0    0 -0.28369771532E+00 -0.51847259050E-01  0.13682475587E+00  0.33624036249E+00  0.10566000000E+00 0. -1.
        -13    1    4    4    0    0 -0.36413340908E+02  0.83633529089E+01  0.14125088886E+02  0.39942538327E+02  0.10566000000E+00 0. -1.
        -14    1    4    4    0    0 -0.11783077939E+01  0.11882942543E+00  0.46706469808E+00  0.12730589624E+01  0.00000000000E+00 0.  1.
<mgrwt>
<rscale>  0 0.78962939E+02</rscale>
<asrwt>0</asrwt>
<pdfrwt beam="1">  1        2 0.73264864E-02 0.78962939E+02</pdfrwt>
<pdfrwt beam="2">  1       -1 0.50357499E-02 0.78962939E+02</pdfrwt>
<totfact> 0.15325043E+05</totfact>
</mgrwt>
</event>
<event>
 8    1  0.1226832E-020  0.8143421E+02  0.7818608E-02  0.1325030E+00
          2   -1    0    0  501    0  0.00000000000E+00  0.00000000000E+00  0.33790947686E+03  0.33790947687E+03  0.25500000000E-02 0. -1.
         -1   -1    0    0    0  501 -0.00000000000E+00 -0.00000000000E+00 -0.49062907771E+01  0.49062933657E+01  0.50400000000E-02 0.  1.
         24    2    1    2    0    0  0.00000000000E+00  0.00000000000E+00  0.33300318609E+03  0.34281577024E+03  0.81434208910E+02 0.  0.
         66    2    3    3    0    0 -0.13160772198E+02  0.23455380617E+02  0.29515475148E+03  0.29638435877E+03  0.19999994503E+01 0.  0.
        -13    1    3    3    0    0  0.13160772198E+02 -0.23455380617E+02  0.37848434606E+02  0.46431411468E+02  0.10566000000E+00 0.  1.
         13    1    4    4    0    0 -0.69172476195E+01  0.13308539836E+02  0.16317401674E+03  0.16386194327E+03  0.10566000000E+00 0. -1.
        -13    1    4    4    0    0 -0.10602830273E+00  0.66898804523E-01  0.22763824493E+01  0.22822792428E+01  0.10566000000E+00 0.  1.
         14    1    4    4    0    0 -0.61374962759E+01  0.10079941976E+02  0.12970435229E+03  0.13024013626E+03  0.00000000000E+00 0. -1.
<mgrwt>
<rscale>  0 0.81434209E+02</rscale>
<asrwt>0</asrwt>
<pdfrwt beam="1">  1        2 0.51986089E-01 0.81434209E+02</pdfrwt>
<pdfrwt beam="2">  1       -1 0.75481395E-03 0.81434209E+02</pdfrwt>
<totfact> 0.25402090E+05</totfact>
</mgrwt>
</event>
<event>
 8    1  0.1226832E-020  0.7407148E+02  0.7818608E-02  0.1346771E+00
          2   -1    0    0  501    0  0.00000000000E+00  0.00000000000E+00  0.40423804277E+03  0.40423804278E+03  0.25500000000E-02 0. -1.
         -1   -1    0    0    0  501 -0.00000000000E+00 -0.00000000000E+00 -0.33931623741E+01  0.33931661172E+01  0.50400000000E-02 0.  1.
         24    2    1    2    0    0  0.00000000000E+00  0.00000000000E+00  0.40084488039E+03  0.40763120889E+03  0.74071481191E+02 0.  0.
         66    2    3    3    0    0 -0.32250829108E+02  0.13461113151E+02  0.26759080811E+03  0.26987063220E+03  0.19999990092E+01 0.  0.
        -13    1    3    3    0    0  0.32250829108E+02 -0.13461113151E+02  0.13325407229E+03  0.13776057669E+03  0.10566000000E+00 0.  1.
         13    1    4    4    0    0 -0.13131123215E+02  0.53531641429E+01  0.11500328207E+03  0.11587428021E+03  0.10566000000E+00 0. -1.
        -13    1    4    4    0    0 -0.44847669990E+01  0.21983038788E+01  0.37993845145E+02  0.38320870397E+02  0.10566000000E+00 0.  1.
         14    1    4    4    0    0 -0.14634938894E+02  0.59096451292E+01  0.11459368090E+03  0.11567548160E+03  0.00000000000E+00 0. -1.
<mgrwt>
<rscale>  0 0.74071481E+02</rscale>
<asrwt>0</asrwt>
<pdfrwt beam="1">  1        2 0.62190501E-01 0.74071481E+02</pdfrwt>
<pdfrwt beam="2">  1       -1 0.52202499E-03 0.74071481E+02</pdfrwt>
<totfact> 0.34646337E+05</totfact>
</mgrwt>
</event>
<event>
 8    1  0.1226832E-020  0.8383216E+02  0.7818608E-02  0.1318515E+00
          2   -1    0    0  501    0  0.00000000000E+00  0.00000000000E+00  0.21592975855E+02  0.21592976005E+02  0.25500000000E-02 0. -1.
         -1   -1    0    0    0  501 -0.00000000000E+00 -0.00000000000E+00 -0.81367097350E+02  0.81367097506E+02  0.50400000000E-02 0.  1.
         24    2    1    2    0    0  0.00000000000E+00  0.00000000000E+00 -0.59774121496E+02  0.10296007351E+03  0.83832160517E+02 0.  0.
         66    2    3    3    0    0 -0.17635007099E+02 -0.20315523588E+02  0.95360577928E+01  0.28612066873E+02  0.19999996228E+01 0.  0.
        -13    1    3    3    0    0  0.17635007099E+02  0.20315523588E+02 -0.69310179289E+02  0.74348006638E+02  0.10566000000E+00 0.  1.
         13    1    4    4    0    0 -0.36359797961E+01 -0.35691919667E+01  0.14731640477E+01  0.53047956342E+01  0.10566000000E+00 0. -1.
        -13    1    4    4    0    0 -0.72104743748E+00 -0.77937372269E+00  0.69041686106E+00  0.12708942853E+01  0.10566000000E+00 0.  1.
         14    1    4    4    0    0 -0.13277979865E+02 -0.15966957899E+02  0.73724768840E+01  0.22036376954E+02  0.00000000000E+00 0. -1.
<mgrwt>
<rscale>  0 0.83832161E+02</rscale>
<asrwt>0</asrwt>
<pdfrwt beam="1">  1        2 0.33219963E-02 0.83832161E+02</pdfrwt>
<pdfrwt beam="2">  1       -1 0.12518015E-01 0.83832161E+02</pdfrwt>
<totfact> 0.11023653E+05</totfact>
</mgrwt>
</event>
<event>
 8    1  0.1226832E-020  0.8070850E+02  0.7818608E-02  0.1327053E+00
          2   -1    0    0  501    0  0.00000000000E+00  0.00000000000E+00  0.18877585825E+02  0.18877585997E+02  0.25500000000E-02 0. -1.
         -1   -1    0    0    0  501 -0.00000000000E+00 -0.00000000000E+00 -0.86264496808E+02  0.86264496956E+02  0.50400000000E-02 0.  1.
         24    2    1    2    0    0 -0.35527136788E-14  0.00000000000E+00 -0.67386910983E+02  0.10514208295E+03  0.80708499155E+02 0.  0.
         66    2    3    3    0    0 -0.18166262255E+02  0.12265052764E+02  0.10387336994E+02  0.24338064388E+02  0.20000011793E+01 0.  0.
        -13    1    3    3    0    0  0.18166262255E+02 -0.12265052764E+02 -0.77774247978E+02  0.80804018564E+02  0.10566000000E+00 0.  1.
         13    1    4    4    0    0 -0.65239082751E+01  0.45505805812E+01  0.34228217398E+01  0.86600251447E+01  0.10566000000E+00 0. -1.
        -13    1    4    4    0    0 -0.84746842467E+00  0.31826276621E+00  0.14769481815E+00  0.92329394782E+00  0.10566000000E+00 0.  1.
        -14    1    4    4    0    0 -0.10794885555E+02  0.73962094169E+01  0.68168204365E+01  0.14754745296E+02  0.00000000000E+00 0.  1.
<mgrwt>
<rscale>  0 0.80708499E+02</rscale>
<asrwt>0</asrwt>
<pdfrwt beam="1">  1        2 0.29042440E-02 0.80708499E+02</pdfrwt>
<pdfrwt beam="2">  1       -1 0.13271461E-01 0.80708499E+02</pdfrwt>
<totfact> 0.11962226E+05</totfact>
</mgrwt>
</event>
<event>
 8    1  0.1226832E-020  0.7991462E+02  0.7818608E-02  0.1329294E+00
         -1   -1    0    0    0  501 -0.00000000000E+00  0.00000000000E+00  0.90004531341E+01  0.90004545452E+01  0.50400000000E-02 0.  1.
          2   -1    0    0  501    0  0.00000000000E+00 -0.00000000000E+00 -0.17738954928E+03  0.17738954930E+03  0.25500000000E-02 0. -1.
         24    2    1    2    0    0 -0.35527136788E-14  0.35527136788E-14 -0.16838909614E+03  0.18639000384E+03  0.79914615884E+02 0.  0.
         66    2    3    3    0    0 -0.25134429780E+02  0.30515816241E+02 -0.71130432369E+02  0.81403273992E+02  0.20000015861E+01 0.  0.
        -13    1    3    3    0    0  0.25134429780E+02 -0.30515816241E+02 -0.97258663774E+02  0.10498672985E+03  0.10566000000E+00 0.  1.
         13    1    4    4    0    0 -0.96724823713E+01  0.10645283645E+02 -0.25928483741E+02  0.29650909130E+02  0.10566000000E+00 0. -1.
        -13    1    4    4    0    0 -0.71707826902E+01  0.90289137453E+01 -0.21778130698E+02  0.24642230998E+02  0.10566000000E+00 0.  1.
        -14    1    4    4    0    0 -0.82911647185E+01  0.10841618851E+02 -0.23423817930E+02  0.27110133864E+02  0.00000000000E+00 0.  1.
<mgrwt>
<rscale>  0 0.79914616E+02</rscale>
<asrwt>0</asrwt>
<pdfrwt beam="1">  1        2 0.27290697E-01 0.79914616E+02</pdfrwt>
<pdfrwt beam="2">  1       -1 0.13846854E-02 0.79914616E+02</pdfrwt>
<totfact> 0.21229215E+05</totfact>
</mgrwt>
</event>
<event>
 8    1  0.1226832E-020  0.8010683E+02  0.7818608E-02  0.1328749E+00
          2   -1    0    0  501    0  0.00000000000E+00  0.00000000000E+00  0.53754620909E+02  0.53754620970E+02  0.25500000000E-02 0. -1.
         -1   -1    0    0    0  501 -0.00000000000E+00 -0.00000000000E+00 -0.29844429007E+02  0.29844429433E+02  0.50400000000E-02 0.  1.
         24    2    1    2    0    0 -0.35527136788E-14  0.00000000000E+00  0.23910191902E+02  0.83599050402E+02  0.80106828369E+02 0.  0.
         66    2    3    3    0    0  0.17095249191E+02 -0.81824398911E+01  0.48756764245E+02  0.52349039383E+02  0.19999992966E+01 0.  0.
        -13    1    3    3    0    0 -0.17095249191E+02  0.81824398911E+01 -0.24846572343E+02  0.31250011019E+02  0.10566000000E+00 0.  1.
         13    1    4    4    0    0  0.11994860420E+02 -0.50883372599E+01  0.31832273041E+02  0.34395822763E+02  0.10566000000E+00 0. -1.
        -13    1    4    4    0    0  0.14785322216E+01 -0.69143477767E+00  0.42246969785E+01  0.45302724177E+01  0.10566000000E+00 0. -1.
         14    1    4    4    0    0  0.36218565493E+01 -0.24026678536E+01  0.12699794226E+02  0.13422944202E+02  0.00000000000E+00 0. -1.
<mgrwt>
<rscale>  0 0.80106828E+02</rscale>
<asrwt>0</asrwt>
<pdfrwt beam="1">  1        2 0.82699416E-02 0.80106828E+02</pdfrwt>
<pdfrwt beam="2">  1       -1 0.45914507E-02 0.80106828E+02</pdfrwt>
<totfact> 0.15127810E+05</totfact>
</mgrwt>
</event>
<event>
 8    1  0.1226832E-020  0.8007288E+02  0.7818608E-02  0.1328845E+00
          2   -1    0    0  501    0  0.00000000000E+00  0.00000000000E+00  0.10156430636E+04  0.10156430636E+04  0.25500000000E-02 0. -1.
         -1   -1    0    0    0  501 -0.00000000000E+00 -0.00000000000E+00 -0.15782242903E+01  0.15782323378E+01  0.50400000000E-02 0.  1.
         24    2    1    2    0    0  0.00000000000E+00  0.35527136788E-14  0.10140648393E+04  0.10172212959E+04  0.80072882998E+02 0.  0.
         66    2    3    3    0    0  0.11852196875E+02  0.14894258870E+02  0.95443810127E+03  0.95462998208E+03  0.20000002739E+01 0.  0.
        -13    1    3    3    0    0 -0.11852196875E+02 -0.14894258870E+02  0.59626737999E+02  0.62591313826E+02  0.10566000000E+00 0.  1.
         13    1    4    4    0    0  0.56011355903E+01  0.75425827818E+01  0.47111906619E+03  0.47121274279E+03  0.10566000000E+00 0. -1.
        -13    1    4    4    0    0  0.17793762446E+01  0.21610348871E+01  0.17214348328E+03  0.17216627502E+03  0.10566000000E+00 0.  1.
        -14    1    4    4    0    0  0.44716850400E+01  0.51906412011E+01  0.31117555179E+03  0.31125096427E+03  0.00000000000E+00 0.  1.
<mgrwt>
<rscale>  0 0.80072883E+02</rscale>
<asrwt>0</asrwt>
<pdfrwt beam="1">  1        2 0.15625312E+00 0.80072883E+02</pdfrwt>
<pdfrwt beam="2">  1       -1 0.24280382E-03 0.80072883E+02</pdfrwt>
<totfact> 0.35167812E+05</totfact>
</mgrwt>
</event>
<event>
 8    1  0.1226832E-020  0.7889401E+02  0.7818608E-02  0.1332220E+00
         -1   -1    0    0    0  501 -0.00000000000E+00  0.00000000000E+00  0.29760721749E+01  0.29760764425E+01  0.50400000000E-02 0.  1.
          2   -1    0    0  501    0  0.00000000000E+00 -0.00000000000E+00 -0.52285863752E+03  0.52285863752E+03  0.25500000000E-02 0. -1.
         24    2    1    2    0    0 -0.17763568394E-14 -0.35527136788E-14 -0.51988256534E+03  0.52583471397E+03  0.78894009055E+02 0.  0.
         66    2    3    3    0    0 -0.13908945028E+02 -0.28923042612E+02 -0.41268721925E+03  0.41393808965E+03  0.19999959857E+01 0.  0.
        -13    1    3    3    0    0  0.13908945028E+02  0.28923042612E+02 -0.10719534609E+03  0.11189662432E+03  0.10566000000E+00 0.  1.
         13    1    4    4    0    0 -0.10715409822E+02 -0.23329520734E+02 -0.33125044636E+03  0.33224381999E+03  0.10566000000E+00 0. -1.
        -13    1    4    4    0    0 -0.21141422365E+01 -0.43168306144E+01 -0.59657843766E+02  0.59851266576E+02  0.10566000000E+00 0.  1.
        -14    1    4    4    0    0 -0.10793929689E+01 -0.12766912634E+01 -0.21778929125E+02  0.21843003081E+02  0.00000000000E+00 0.  1.
<mgrwt>
<rscale>  0 0.78894009E+02</rscale>
<asrwt>0</asrwt>
<pdfrwt beam="1">  1        2 0.80439717E-01 0.78894009E+02</pdfrwt>
<pdfrwt beam="2">  1       -1 0.45785800E-03 0.78894009E+02</pdfrwt>
<totfact> 0.32022164E+05</totfact>
</mgrwt>
</event>
<event>
 8    1  0.1226832E-020  0.7733482E+02  0.7818608E-02  0.1336790E+00
          2   -1    0    0  501    0  0.00000000000E+00  0.00000000000E+00  0.50751734880E+02  0.50751734944E+02  0.25500000000E-02 0. -1.
         -1   -1    0    0    0  501 -0.00000000000E+00 -0.00000000000E+00 -0.29460439980E+02  0.29460440411E+02  0.50400000000E-02 0.  1.
         24    2    1    2    0    0  0.00000000000E+00 -0.17763568394E-14  0.21291294900E+02  0.80212175355E+02  0.77334816458E+02 0.  0.
         66    2    3    3    0    0 -0.37028235401E+02  0.10618473123E+02  0.74860638447E+01  0.39292280965E+02  0.20000007927E+01 0.  0.
        -13    1    3    3    0    0  0.37028235401E+02 -0.10618473123E+02  0.13805231055E+02  0.40919894390E+02  0.10566000000E+00 0.  1.
         13    1    4    4    0    0 -0.15496884570E+01  0.27926993879E+00  0.41146987481E+00  0.16309498784E+01  0.10566000000E+00 0. -1.
        -13    1    4    4    0    0 -0.14150231823E+02  0.48910762349E+01  0.31875725698E+01  0.15307627847E+02  0.10566000000E+00 0. -1.
         14    1    4    4    0    0 -0.21328315121E+02  0.54481269495E+01  0.38870214001E+01  0.22353703240E+02  0.00000000000E+00 0. -1.
<mgrwt>
<rscale>  0 0.77334816E+02</rscale>
<asrwt>0</asrwt>
<pdfrwt beam="1">  1        2 0.78079592E-02 0.77334816E+02</pdfrwt>
<pdfrwt beam="2">  1       -1 0.45323754E-02 0.77334816E+02</pdfrwt>
<totfact> 0.16445243E+05</totfact>
</mgrwt>
</event>
<event>
 8    1  0.1226832E-020  0.7681048E+02  0.7818608E-02  0.1338354E+00
          2   -1    0    0  501    0  0.00000000000E+00  0.00000000000E+00  0.64043895823E+01  0.64043900900E+01  0.25500000000E-02 0. -1.
         -1   -1    0    0    0  501 -0.00000000000E+00 -0.00000000000E+00 -0.23030492772E+03  0.23030492777E+03  0.50400000000E-02 0.  1.
         24    2    1    2    0    0  0.17763568394E-14  0.00000000000E+00 -0.22390053814E+03  0.23670931786E+03  0.76810482265E+02 0.  0.
         66    2    3    3    0    0 -0.11488844631E+02 -0.30897811260E+02 -0.51456846017E+02  0.61143072796E+02  0.20000143157E+01 0.  0.
        -13    1    3    3    0    0  0.11488844631E+02  0.30897811260E+02 -0.17244369212E+03  0.17556624507E+03  0.10566000000E+00 0.  1.
         13    1    4    4    0    0 -0.32008920447E+01 -0.10953754931E+02 -0.18113446296E+02  0.21408842980E+02  0.10566000000E+00 0. -1.
        -13    1    4    4    0    0 -0.12978497201E+01 -0.38429071950E+01 -0.61853947794E+01  0.73974740431E+01  0.10566000000E+00 0. -1.
         14    1    4    4    0    0 -0.69901028658E+01 -0.16101149134E+02 -0.27158004941E+02  0.32336755773E+02  0.00000000000E+00 0. -1.
<mgrwt>
<rscale>  0 0.76810482E+02</rscale>
<asrwt>0</asrwt>
<pdfrwt beam="1">  1        2 0.98529092E-03 0.76810482E+02</pdfrwt>
<pdfrwt beam="2">  1       -1 0.35431521E-01 0.76810482E+02</pdfrwt>
<totfact> 0.10565963E+05</totfact>
</mgrwt>
</event>
<event>
 8    1  0.1226832E-020  0.7886671E+02  0.7818608E-02  0.1332299E+00
          2   -1    0    0  501    0  0.00000000000E+00  0.00000000000E+00  0.10171591549E+02  0.10171591869E+02  0.25500000000E-02 0. -1.
         -1   -1    0    0    0  501 -0.00000000000E+00 -0.00000000000E+00 -0.15287570897E+03  0.15287570906E+03  0.50400000000E-02 0.  1.
         24    2    1    2    0    0 -0.35527136788E-14  0.00000000000E+00 -0.14270411743E+03  0.16304730093E+03  0.78866705327E+02 0.  0.
         66    2    3    3    0    0 -0.24169293843E+02 -0.30385683138E+02 -0.57446482548E+02  0.69365285717E+02  0.20000002182E+01 0.  0.
        -13    1    3    3    0    0  0.24169293843E+02  0.30385683138E+02 -0.85257634878E+02  0.93682015209E+02  0.10566000000E+00 0.  1.
         13    1    4    4    0    0 -0.32235788331E+01 -0.36637174246E+01 -0.75674170449E+01  0.90050680523E+01  0.10566000000E+00 0. -1.
        -13    1    4    4    0    0 -0.42117120147E+01 -0.62519287984E+01 -0.11775622471E+02  0.13982187970E+02  0.10566000000E+00 0.  1.
         14    1    4    4    0    0 -0.16734002995E+02 -0.20470036915E+02 -0.38103443032E+02  0.46378029695E+02  0.00000000000E+00 0. -1.
<mgrwt>
<rscale>  0 0.78866705E+02</rscale>
<asrwt>0</asrwt>
<pdfrwt beam="1">  1        2 0.15648604E-02 0.78866705E+02</pdfrwt>
<pdfrwt beam="2">  1       -1 0.23519338E-01 0.78866705E+02</pdfrwt>
<totfact> 0.11129225E+05</totfact>
</mgrwt>
</event>
<event>
 8    1  0.1226832E-020  0.8057965E+02  0.7818608E-02  0.1327414E+00
         -1   -1    0    0    0  501 -0.00000000000E+00  0.00000000000E+00  0.28634993467E+02  0.28634993911E+02  0.50400000000E-02 0.  1.
          2   -1    0    0  501    0  0.00000000000E+00 -0.00000000000E+00 -0.56688324852E+02  0.56688324909E+02  0.25500000000E-02 0. -1.
         24    2    1    2    0    0  0.00000000000E+00 -0.35527136788E-14 -0.28053331385E+02  0.85323318820E+02  0.80579645895E+02 0.  0.
         66    2    3    3    0    0  0.30807247713E+01 -0.31461534494E+02  0.12371692595E+02  0.34005556343E+02  0.20000166618E+01 0.  0.
        -13    1    3    3    0    0 -0.30807247713E+01  0.31461534494E+02 -0.40425023980E+02  0.51317762477E+02  0.10566000000E+00 0.  1.
         13    1    4    4    0    0  0.89045990581E+00 -0.65548288289E+01  0.20658208047E+01  0.69309075490E+01  0.10566000000E+00 0. -1.
        -13    1    4    4    0    0 -0.70514354727E-01 -0.33672934624E+01  0.16390645136E+01  0.37471768108E+01  0.10566000000E+00 0.  1.
         14    1    4    4    0    0  0.22607792202E+01 -0.21539412203E+02  0.86668072769E+01  0.23327471983E+02  0.00000000000E+00 0. -1.
<mgrwt>
<rscale>  0 0.80579646E+02</rscale>
<asrwt>0</asrwt>
<pdfrwt beam="1">  1        2 0.87212807E-02 0.80579646E+02</pdfrwt>
<pdfrwt beam="2">  1       -1 0.44053837E-02 0.80579646E+02</pdfrwt>
<totfact> 0.15065692E+05</totfact>
</mgrwt>
</event>
<event>
 8    1  0.1226832E-020  0.8119489E+02  0.7818608E-02  0.1325694E+00
         -1   -1    0    0    0  501 -0.00000000000E+00  0.00000000000E+00  0.39760899346E+02  0.39760899665E+02  0.50400000000E-02 0.  1.
          2   -1    0    0  501    0  0.00000000000E+00 -0.00000000000E+00 -0.41451588263E+02  0.41451588342E+02  0.25500000000E-02 0. -1.
         24    2    1    2    0    0 -0.88817841970E-15 -0.17763568394E-14 -0.16906889175E+01  0.81212488007E+02  0.81194887643E+02 0.  0.
         66    2    3    3    0    0 -0.73847674200E+01 -0.84429453768E+01 -0.39845708975E+02  0.41442715112E+02  0.19999989212E+01 0.  0.
        -13    1    3    3    0    0  0.73847674200E+01  0.84429453768E+01  0.38155020057E+02  0.39769772895E+02  0.10566000000E+00 0.  1.
         13    1    4    4    0    0 -0.42238649206E+01 -0.40054660828E+01 -0.19894759760E+02  0.20729144299E+02  0.10566000000E+00 0. -1.
        -13    1    4    4    0    0 -0.25242519277E+01 -0.28840181220E+01 -0.12448826661E+02  0.13025891815E+02  0.10566000000E+00 0.  1.
         14    1    4    4    0    0 -0.63665057180E+00 -0.15534611720E+01 -0.75021225542E+01  0.76876789983E+01  0.00000000000E+00 0. -1.
<mgrwt>
<rscale>  0 0.81194888E+02</rscale>
<asrwt>0</asrwt>
<pdfrwt beam="1">  1        2 0.63771674E-02 0.81194888E+02</pdfrwt>
<pdfrwt beam="2">  1       -1 0.61170615E-02 0.81194888E+02</pdfrwt>
<totfact> 0.13784043E+05</totfact>
</mgrwt>
</event>
<event>
 8    1  0.1226832E-020  0.7959288E+02  0.7818608E-02  0.1330211E+00
         -1   -1    0    0    0  501 -0.00000000000E+00  0.00000000000E+00  0.18688399125E+02  0.18688399805E+02  0.50400000000E-02 0.  1.
          2   -1    0    0  501    0  0.00000000000E+00 -0.00000000000E+00 -0.84745433202E+02  0.84745433241E+02  0.25500000000E-02 0. -1.
         24    2    1    2    0    0  0.00000000000E+00  0.35527136788E-14 -0.66057034077E+02  0.10343383305E+03  0.79592876989E+02 0.  0.
         66    2    3    3    0    0  0.20164230735E+02  0.31547513943E+02 -0.50480049894E+02  0.62881454109E+02  0.19999991206E+01 0.  0.
        -13    1    3    3    0    0 -0.20164230735E+02 -0.31547513943E+02 -0.15576984183E+02  0.40552378936E+02  0.10566000000E+00 0.  1.
         13    1    4    4    0    0  0.59113589480E+01  0.10052823037E+02 -0.17029353282E+02  0.20640093335E+02  0.10566000000E+00 0. -1.
        -13    1    4    4    0    0  0.73859837179E+01  0.11420634582E+02 -0.17382115773E+02  0.22071084308E+02  0.10566000000E+00 0.  1.
         14    1    4    4    0    0  0.68668880689E+01  0.10074056323E+02 -0.16068580838E+02  0.20170276466E+02  0.00000000000E+00 0. -1.
<mgrwt>
<rscale>  0 0.79592877E+02</rscale>
<asrwt>0</asrwt>
<pdfrwt beam="1">  1        2 0.13037759E-01 0.79592877E+02</pdfrwt>
<pdfrwt beam="2">  1       -1 0.28751384E-02 0.79592877E+02</pdfrwt>
<totfact> 0.17181676E+05</totfact>
</mgrwt>
</event>
<event>
 8    1  0.1226832E-020  0.7957964E+02  0.7818608E-02  0.1330249E+00
         -1   -1    0    0    0  501 -0.00000000000E+00  0.00000000000E+00  0.28229205112E+01  0.28229250104E+01  0.50400000000E-02 0.  1.
          2   -1    0    0  501    0  0.00000000000E+00 -0.00000000000E+00 -0.56084776776E+03  0.56084776777E+03  0.25500000000E-02 0. -1.
         24    2    1    2    0    0  0.00000000000E+00 -0.35527136788E-14 -0.55802484725E+03  0.56367069278E+03  0.79579644054E+02 0.  0.
         66    2    3    3    0    0 -0.24849454968E+02  0.27368348495E+02 -0.38297507379E+03  0.38476022281E+03  0.20000001586E+01 0.  0.
        -13    1    3    3    0    0  0.24849454968E+02 -0.27368348495E+02 -0.17504977346E+03  0.17891046997E+03  0.10566000000E+00 0.  1.
         13    1    4    4    0    0 -0.14497330450E+02  0.15067697842E+02 -0.21957258033E+03  0.22056594775E+03  0.10566000000E+00 0. -1.
        -13    1    4    4    0    0 -0.29301543114E+01  0.41504383838E+01 -0.52199021653E+02  0.52445790762E+02  0.10566000000E+00 0.  1.
        -14    1    4    4    0    0 -0.74219702073E+01  0.81502122690E+01 -0.11120347180E+03  0.11174848430E+03  0.00000000000E+00 0.  1.
<mgrwt>
<rscale>  0 0.79579644E+02</rscale>
<asrwt>0</asrwt>
<pdfrwt beam="1">  1        2 0.86284183E-01 0.79579644E+02</pdfrwt>
<pdfrwt beam="2">  1       -1 0.43429626E-03 0.79579644E+02</pdfrwt>
<totfact> 0.31981711E+05</totfact>
</mgrwt>
</event>
<event>
 8    1  0.1226832E-020  0.7764339E+02  0.7818608E-02  0.1335875E+00
         -1   -1    0    0    0  501 -0.00000000000E+00  0.00000000000E+00  0.22107203703E+02  0.22107204277E+02  0.50400000000E-02 0.  1.
          2   -1    0    0  501    0  0.00000000000E+00 -0.00000000000E+00 -0.68173429672E+02  0.68173429720E+02  0.25500000000E-02 0. -1.
         24    2    1    2    0    0 -0.35527136788E-14  0.88817841970E-15 -0.46066225970E+02  0.90280633997E+02  0.77643387998E+02 0.  0.
         66    2    3    3    0    0  0.16969331331E+02 -0.48601816505E+01 -0.63218970674E+02  0.65667479253E+02  0.20000017060E+01 0.  0.
        -13    1    3    3    0    0 -0.16969331331E+02  0.48601816505E+01  0.17152744705E+02  0.24613154744E+02  0.10566000000E+00 0.  1.
         13    1    4    4    0    0  0.96654481959E+01 -0.29229572134E+01 -0.35070128907E+02  0.36495063683E+02  0.10566000000E+00 0. -1.
        -13    1    4    4    0    0  0.43643481879E+01 -0.65044384113E+00 -0.17694549142E+02  0.18236744383E+02  0.10566000000E+00 0.  1.
         14    1    4    4    0    0  0.29395349476E+01 -0.12867805960E+01 -0.10454292626E+02  0.10935671187E+02  0.00000000000E+00 0. -1.
<mgrwt>
<rscale>  0 0.77643388E+02</rscale>
<asrwt>0</asrwt>
<pdfrwt beam="1">  1        2 0.10488220E-01 0.77643388E+02</pdfrwt>
<pdfrwt beam="2">  1       -1 0.34011083E-02 0.77643388E+02</pdfrwt>
<totfact> 0.17393998E+05</totfact>
</mgrwt>
</event>
<event>
 8    1  0.1226832E-020  0.7990860E+02  0.7818608E-02  0.1329311E+00
         -1   -1    0    0    0  501 -0.00000000000E+00  0.00000000000E+00  0.96157944239E+01  0.96157957447E+01  0.50400000000E-02 0.  1.
          2   -1    0    0  501    0  0.00000000000E+00 -0.00000000000E+00 -0.16601290303E+03  0.16601290305E+03  0.25500000000E-02 0. -1.
         24    2    1    2    0    0  0.00000000000E+00  0.00000000000E+00 -0.15639710861E+03  0.17562869880E+03  0.79908599412E+02 0.  0.
         66    2    3    3    0    0  0.21636719175E+02  0.21161303074E+01 -0.15185850599E+03  0.15341978838E+03  0.20000000128E+01 0.  0.
        -13    1    3    3    0    0 -0.21636719175E+02 -0.21161303074E+01 -0.45386026144E+01  0.22208910415E+02  0.10566000000E+00 0.  1.
         13    1    4    4    0    0  0.55507172129E+01  0.82032506599E+00 -0.39665767451E+02  0.40060799621E+02  0.10566000000E+00 0. -1.
        -13    1    4    4    0    0  0.13497778918E+02  0.16184256548E+01 -0.95892551284E+02  0.96851442390E+02  0.10566000000E+00 0.  1.
        -14    1    4    4    0    0  0.25882230441E+01 -0.32262041342E+00 -0.16300187260E+02  0.16507546370E+02  0.00000000000E+00 0.  1.
<mgrwt>
<rscale>  0 0.79908599E+02</rscale>
<asrwt>0</asrwt>
<pdfrwt beam="1">  1        2 0.25540445E-01 0.79908599E+02</pdfrwt>
<pdfrwt beam="2">  1       -1 0.14793532E-02 0.79908599E+02</pdfrwt>
<totfact> 0.20768060E+05</totfact>
</mgrwt>
</event>
<event>
 8    1  0.1226832E-020  0.8102295E+02  0.7818608E-02  0.1326173E+00
          2   -1    0    0  501    0  0.00000000000E+00  0.00000000000E+00  0.13282738188E+04  0.13282738188E+04  0.25500000000E-02 0. -1.
         -1   -1    0    0    0  501 -0.00000000000E+00 -0.00000000000E+00 -0.12355681076E+01  0.12355783869E+01  0.50400000000E-02 0.  1.
         24    2    1    2    0    0  0.00000000000E+00  0.35527136788E-14  0.13270382507E+04  0.13295093972E+04  0.81022949923E+02 0.  0.
         66    2    3    3    0    0  0.43333017905E+01  0.16841431873E+02  0.12638661557E+04  0.12639873697E+04  0.19999996961E+01 0.  0.
        -13    1    3    3    0    0 -0.43333017905E+01 -0.16841431873E+02  0.63172095043E+02  0.65522027503E+02  0.10566000000E+00 0.  1.
         13    1    4    4    0    0  0.24625229945E+01  0.10289160916E+02  0.79463365761E+03  0.79470409073E+03  0.10566000000E+00 0. -1.
        -13    1    4    4    0    0 -0.41341561536E-01  0.64235455400E-01  0.12831399283E+02  0.12832061678E+02  0.10566000000E+00 0.  1.
         14    1    4    4    0    0  0.19121203576E+01  0.64880355021E+01  0.45640109877E+03  0.45645121729E+03  0.00000000000E+00 0. -1.
<mgrwt>
<rscale>  0 0.81022950E+02</rscale>
<asrwt>0</asrwt>
<pdfrwt beam="1">  1        2 0.20435031E+00 0.81022950E+02</pdfrwt>
<pdfrwt beam="2">  1       -1 0.19008773E-03 0.81022950E+02</pdfrwt>
<totfact> 0.33344348E+05</totfact>
</mgrwt>
</event>
<event>
 8    1  0.1226832E-020  0.8012256E+02  0.7818608E-02  0.1328704E+00
          2   -1    0    0  501    0  0.00000000000E+00  0.00000000000E+00  0.79315574734E+01  0.79315578833E+01  0.25500000000E-02 0. -1.
         -1   -1    0    0    0  501 -0.00000000000E+00 -0.00000000000E+00 -0.20234439688E+03  0.20234439695E+03  0.50400000000E-02 0.  1.
         24    2    1    2    0    0 -0.44408920985E-15  0.00000000000E+00 -0.19441283941E+03  0.21027595483E+03  0.80122562690E+02 0.  0.
         66    2    3    3    0    0  0.23723174025E+01 -0.32737545884E+02 -0.37103457607E+02  0.49578638213E+02  0.20000000748E+01 0.  0.
        -13    1    3    3    0    0 -0.23723174025E+01  0.32737545884E+02 -0.15730938180E+03  0.16069731662E+03  0.10566000000E+00 0.  1.
         13    1    4    4    0    0  0.23357880754E+01 -0.30941451306E+02 -0.35281818673E+02  0.46985606390E+02  0.10566000000E+00 0. -1.
        -13    1    4    4    0    0  0.17248557291E+00 -0.15426502981E+01 -0.14931552817E+01  0.21564317624E+01  0.10566000000E+00 0.  1.
        -14    1    4    4    0    0 -0.13595624582E+00 -0.25344428022E+00 -0.32848365160E+00  0.43660006107E+00  0.00000000000E+00 0.  1.
<mgrwt>
<rscale>  0 0.80122563E+02</rscale>
<asrwt>0</asrwt>
<pdfrwt beam="1">  1        2 0.12202398E-02 0.80122563E+02</pdfrwt>
<pdfrwt beam="2">  1       -1 0.31129903E-01 0.80122563E+02</pdfrwt>
<totfact> 0.98865829E+04</totfact>
</mgrwt>
</event>
<event>
 8    1  0.1226832E-020  0.7912609E+02  0.7818608E-02  0.1331550E+00
         -1   -1    0    0    0  501 -0.00000000000E+00  0.00000000000E+00  0.10949070502E+03  0.10949070514E+03  0.50400000000E-02 0.  1.
          2   -1    0    0  501    0  0.00000000000E+00 -0.00000000000E+00 -0.14295591795E+02  0.14295592023E+02  0.25500000000E-02 0. -1.
         24    2    1    2    0    0  0.00000000000E+00  0.00000000000E+00  0.95195113227E+02  0.12378629716E+03  0.79126087876E+02 0.  0.
         66    2    3    3    0    0  0.35848245939E+02 -0.57216360818E+01  0.23121097888E+02  0.43086181253E+02  0.19999977649E+01 0.  0.
        -13    1    3    3    0    0 -0.35848245939E+02  0.57216360818E+01  0.72074015339E+02  0.80700115908E+02  0.10566000000E+00 0.  1.
         13    1    4    4    0    0  0.16394915262E+02 -0.29025552530E+01  0.95675844755E+01  0.19203330705E+02  0.10566000000E+00 0. -1.
        -13    1    4    4    0    0  0.95013111409E+01 -0.13465254552E+01  0.69423335637E+01  0.11844627624E+02  0.10566000000E+00 0.  1.
        -14    1    4    4    0    0  0.99520195368E+01 -0.14725553736E+01  0.66111798488E+01  0.12038222925E+02  0.00000000000E+00 0.  1.
<mgrwt>
<rscale>  0 0.79126088E+02</rscale>
<asrwt>0</asrwt>
<pdfrwt beam="1">  1        2 0.21993219E-02 0.79126088E+02</pdfrwt>
<pdfrwt beam="2">  1       -1 0.16844723E-01 0.79126088E+02</pdfrwt>
<totfact> 0.11945277E+05</totfact>
</mgrwt>
</event>
<event>
 8    1  0.1226832E-020  0.7864495E+02  0.7818608E-02  0.1332941E+00
          2   -1    0    0  501    0  0.00000000000E+00  0.00000000000E+00  0.21732086531E+02  0.21732086680E+02  0.25500000000E-02 0. -1.
         -1   -1    0    0    0  501 -0.00000000000E+00 -0.00000000000E+00 -0.71150885923E+02  0.71150886102E+02  0.50400000000E-02 0.  1.
         24    2    1    2    0    0  0.00000000000E+00  0.71054273576E-14 -0.49418799393E+02  0.92882972782E+02  0.78644954698E+02 0.  0.
         66    2    3    3    0    0 -0.34168940643E+01  0.38971973851E+02 -0.20343944957E+02  0.44140299124E+02  0.19999998667E+01 0.  0.
        -13    1    3    3    0    0  0.34168940643E+01 -0.38971973851E+02 -0.29074854436E+02  0.48742673658E+02  0.10566000000E+00 0.  1.
         13    1    4    4    0    0 -0.10567313580E+01  0.11503807025E+02 -0.63974852356E+01  0.13205803217E+02  0.10566000000E+00 0. -1.
        -13    1    4    4    0    0 -0.84161516376E+00  0.39607125603E+01 -0.18330331586E+01  0.44459796069E+01  0.10566000000E+00 0.  1.
        -14    1    4    4    0    0 -0.15185475425E+01  0.23507454266E+02 -0.12113426563E+02  0.26488516300E+02  0.00000000000E+00 0.  1.
<mgrwt>
<rscale>  0 0.78644955E+02</rscale>
<asrwt>0</asrwt>
<pdfrwt beam="1">  1        2 0.33433980E-02 0.78644955E+02</pdfrwt>
<pdfrwt beam="2">  1       -1 0.10946290E-01 0.78644955E+02</pdfrwt>
<totfact> 0.13254909E+05</totfact>
</mgrwt>
</event>
<event>
 8    1  0.1226832E-020  0.8143935E+02  0.7818608E-02  0.1325016E+00
          2   -1    0    0  501    0  0.00000000000E+00  0.00000000000E+00  0.10591879867E+04  0.10591879867E+04  0.25500000000E-02 0. -1.
         -1   -1    0    0    0  501 -0.00000000000E+00 -0.00000000000E+00 -0.15654329101E+01  0.15654410233E+01  0.50400000000E-02 0.  1.
         24    2    1    2    0    0  0.71054273576E-14  0.00000000000E+00  0.10576225538E+04  0.10607534278E+04  0.81439352579E+02 0.  0.
         66    2    3    3    0    0 -0.28592467049E+02  0.12372724541E+02  0.87014589342E+03  0.87070574205E+03  0.19999786821E+01 0.  0.
        -13    1    3    3    0    0  0.28592467049E+02 -0.12372724541E+02  0.18747666041E+03  0.19004768572E+03  0.10566000000E+00 0.  1.
         13    1    4    4    0    0 -0.11770190976E+02  0.56028715036E+01  0.38029564956E+03  0.38051901635E+03  0.10566000000E+00 0. -1.
        -13    1    4    4    0    0 -0.18966671947E+00  0.77095638069E-01  0.65768641309E+01  0.65808983455E+01  0.10566000000E+00 0. -1.
         14    1    4    4    0    0 -0.16632609354E+02  0.66927573990E+01  0.48327337973E+03  0.48360582735E+03  0.00000000000E+00 0. -1.
<mgrwt>
<rscale>  0 0.81439353E+02</rscale>
<asrwt>0</asrwt>
<pdfrwt beam="1">  1        2 0.16295194E+00 0.81439353E+02</pdfrwt>
<pdfrwt beam="2">  1       -1 0.24083655E-03 0.81439353E+02</pdfrwt>
<totfact> 0.33676236E+05</totfact>
</mgrwt>
</event>
<event>
 8    1  0.1226832E-020  0.7896697E+02  0.7818608E-02  0.1332009E+00
          2   -1    0    0  501    0  0.00000000000E+00  0.00000000000E+00  0.18826219870E+03  0.18826219872E+03  0.25500000000E-02 0. -1.
         -1   -1    0    0    0  501 -0.00000000000E+00 -0.00000000000E+00 -0.82807147278E+01  0.82807162616E+01  0.50400000000E-02 0.  1.
         24    2    1    2    0    0 -0.17763568394E-14  0.35527136788E-14  0.17998148397E+03  0.19654291498E+03  0.78966973195E+02 0.  0.
         66    2    3    3    0    0 -0.12232315166E+02  0.17632843519E+02  0.17246121431E+03  0.17380281110E+03  0.19999994866E+01 0.  0.
        -13    1    3    3    0    0  0.12232315166E+02 -0.17632843519E+02  0.75202696631E+01  0.22740103886E+02  0.10566000000E+00 0.  1.
         13    1    4    4    0    0 -0.63571006945E+01  0.10295711788E+02  0.99017566481E+02  0.99754218188E+02  0.10566000000E+00 0. -1.
        -13    1    4    4    0    0 -0.39907724185E+00  0.25130738781E+00  0.44553545139E+01  0.44814914847E+01  0.10566000000E+00 0. -1.
         14    1    4    4    0    0 -0.54761372297E+01  0.70858243435E+01  0.68988293317E+02  0.69567101422E+02  0.00000000000E+00 0. -1.
<mgrwt>
<rscale>  0 0.78966973E+02</rscale>
<asrwt>0</asrwt>
<pdfrwt beam="1">  1        2 0.28963415E-01 0.78966973E+02</pdfrwt>
<pdfrwt beam="2">  1       -1 0.12739562E-02 0.78966973E+02</pdfrwt>
<totfact> 0.22356820E+05</totfact>
</mgrwt>
</event>
<event>
 8    1  0.1226832E-020  0.7584385E+02  0.7818608E-02  0.1341278E+00
         -1   -1    0    0    0  501 -0.00000000000E+00  0.00000000000E+00  0.33974881282E+01  0.33974918665E+01  0.50400000000E-02 0.  1.
          2   -1    0    0  501    0  0.00000000000E+00 -0.00000000000E+00 -0.42327493208E+03  0.42327493209E+03  0.25500000000E-02 0. -1.
         24    2    1    2    0    0  0.00000000000E+00  0.00000000000E+00 -0.41987744395E+03  0.42667242395E+03  0.75843848949E+02 0.  0.
         66    2    3    3    0    0  0.26324504605E+02 -0.22528380048E+02 -0.29642687605E+03  0.29845167162E+03  0.19999991907E+01 0.  0.
        -13    1    3    3    0    0 -0.26324504605E+02  0.22528380048E+02 -0.12345056790E+03  0.12822075234E+03  0.10566000000E+00 0.  1.
         13    1    4    4    0    0  0.13649907105E+02 -0.11316568820E+02 -0.14394136339E+03  0.14502934859E+03  0.10566000000E+00 0. -1.
        -13    1    4    4    0    0  0.10352788182E+02 -0.89863478038E+01 -0.12233352886E+03  0.12309930186E+03  0.10566000000E+00 0.  1.
        -14    1    4    4    0    0  0.23218093179E+01 -0.22254634239E+01 -0.30151983798E+02  0.30323021171E+02  0.00000000000E+00 0.  1.
<mgrwt>
<rscale>  0 0.75843849E+02</rscale>
<asrwt>0</asrwt>
<pdfrwt beam="1">  1        2 0.65119179E-01 0.75843849E+02</pdfrwt>
<pdfrwt beam="2">  1       -1 0.52269111E-03 0.75843849E+02</pdfrwt>
<totfact> 0.33106625E+05</totfact>
</mgrwt>
</event>
<event>
 8    1  0.1226832E-020  0.8072845E+02  0.7818608E-02  0.1326997E+00
         -1   -1    0    0    0  501 -0.00000000000E+00  0.00000000000E+00  0.24627001151E+02  0.24627001666E+02  0.50400000000E-02 0.  1.
          2   -1    0    0  501    0  0.00000000000E+00 -0.00000000000E+00 -0.66157895686E+02  0.66157895735E+02  0.25500000000E-02 0. -1.
         24    2    1    2    0    0  0.35527136788E-14  0.00000000000E+00 -0.41530894535E+02  0.90784897402E+02  0.80728448488E+02 0.  0.
         66    2    3    3    0    0 -0.31870363283E+02 -0.18101593729E+02 -0.39725694470E+02  0.54088062897E+02  0.19999988581E+01 0.  0.
        -13    1    3    3    0    0  0.31870363283E+02  0.18101593729E+02 -0.18052000650E+01  0.36696834505E+02  0.10566000000E+00 0.  1.
         13    1    4    4    0    0 -0.18101426498E+02 -0.96673993945E+01 -0.21485895240E+02  0.29711531610E+02  0.10566000000E+00 0. -1.
        -13    1    4    4    0    0 -0.67422093593E+01 -0.42105268853E+01 -0.96385808107E+01  0.12493971657E+02  0.10566000000E+00 0.  1.
        -14    1    4    4    0    0 -0.70267274263E+01 -0.42236674495E+01 -0.86012184197E+01  0.11882559630E+02  0.00000000000E+00 0.  1.
<mgrwt>
<rscale>  0 0.80728448E+02</rscale>
<asrwt>0</asrwt>
<pdfrwt beam="1">  1        2 0.10178138E-01 0.80728448E+02</pdfrwt>
<pdfrwt beam="2">  1       -1 0.37887695E-02 0.80728448E+02</pdfrwt>
<totfact> 0.15540751E+05</totfact>
</mgrwt>
</event>
<event>
 8    1  0.1226832E-020  0.7598606E+02  0.7818608E-02  0.1340844E+00
         -1   -1    0    0    0  501 -0.00000000000E+00  0.00000000000E+00  0.58997806882E+01  0.58997828409E+01  0.50400000000E-02 0.  1.
          2   -1    0    0  501    0  0.00000000000E+00 -0.00000000000E+00 -0.24466506654E+03  0.24466506655E+03  0.25500000000E-02 0. -1.
         24    2    1    2    0    0  0.00000000000E+00  0.00000000000E+00 -0.23876528585E+03  0.25056484939E+03  0.75986064670E+02 0.  0.
         66    2    3    3    0    0 -0.58040033662E+01 -0.32594344355E+02 -0.18074807760E+03  0.18376600691E+03  0.20000007516E+01 0.  0.
        -13    1    3    3    0    0  0.58040033662E+01  0.32594344355E+02 -0.58017208257E+02  0.66798842482E+02  0.10566000000E+00 0.  1.
         13    1    4    4    0    0 -0.17473372577E+01 -0.86964758956E+01 -0.46454637966E+02  0.47294042258E+02  0.10566000000E+00 0. -1.
        -13    1    4    4    0    0 -0.26457576234E+01 -0.17457460336E+02 -0.94339026566E+02  0.95977216319E+02  0.10566000000E+00 0.  1.
        -14    1    4    4    0    0 -0.14109084852E+01 -0.64404081240E+01 -0.39954413063E+02  0.40494748335E+02  0.00000000000E+00 0.  1.
<mgrwt>
<rscale>  0 0.75986065E+02</rscale>
<asrwt>0</asrwt>
<pdfrwt beam="1">  1        2 0.37640772E-01 0.75986065E+02</pdfrwt>
<pdfrwt beam="2">  1       -1 0.90765893E-03 0.75986065E+02</pdfrwt>
<totfact> 0.27108671E+05</totfact>
</mgrwt>
</event>
<event>
 8    1  0.1226832E-020  0.7850323E+02  0.7818608E-02  0.1333354E+00
          2   -1    0    0  501    0  0.00000000000E+00  0.00000000000E+00  0.41748587112E+02  0.41748587190E+02  0.25500000000E-02 0. -1.
         -1   -1    0    0    0  501 -0.00000000000E+00 -0.00000000000E+00 -0.36903987027E+02  0.36903987371E+02  0.50400000000E-02 0.  1.
         24    2    1    2    0    0  0.00000000000E+00  0.00000000000E+00  0.48446000857E+01  0.78652574561E+02  0.78503231367E+02 0.  0.
         66    2    3    3    0    0  0.84374111932E+01 -0.12347300387E+02  0.38756316654E+02  0.41589635941E+02  0.20000006724E+01 0.  0.
        -13    1    3    3    0    0 -0.84374111932E+01  0.12347300387E+02 -0.33911716568E+02  0.37062938620E+02  0.10566000000E+00 0.  1.
         13    1    4    4    0    0  0.54973787221E+01 -0.84713262625E+01  0.28244117263E+02  0.29995430743E+02  0.10566000000E+00 0. -1.
        -13    1    4    4    0    0  0.23189254477E+01 -0.29872474377E+01  0.86143975582E+01  0.94085106055E+01  0.10566000000E+00 0.  1.
         14    1    4    4    0    0  0.62110702342E+00 -0.88872668655E+00  0.18978018325E+01  0.21856945929E+01  0.00000000000E+00 0. -1.
<mgrwt>
<rscale>  0 0.78503231E+02</rscale>
<asrwt>0</asrwt>
<pdfrwt beam="1">  1        2 0.64228595E-02 0.78503231E+02</pdfrwt>
<pdfrwt beam="2">  1       -1 0.56775365E-02 0.78503231E+02</pdfrwt>
<totfact> 0.15149928E+05</totfact>
</mgrwt>
</event>
<event>
 8    1  0.1226832E-020  0.7982195E+02  0.7818608E-02  0.1329557E+00
         -1   -1    0    0    0  501 -0.00000000000E+00  0.00000000000E+00  0.10965348461E+02  0.10965349619E+02  0.50400000000E-02 0.  1.
          2   -1    0    0  501    0  0.00000000000E+00 -0.00000000000E+00 -0.14526542188E+03  0.14526542190E+03  0.25500000000E-02 0. -1.
         24    2    1    2    0    0  0.00000000000E+00 -0.35527136788E-14 -0.13430007342E+03  0.15623077152E+03  0.79821953434E+02 0.  0.
         66    2    3    3    0    0  0.21503075119E+02 -0.19204779367E+02 -0.12113794929E+03  0.12453757879E+03  0.19999954940E+01 0.  0.
        -13    1    3    3    0    0 -0.21503075119E+02  0.19204779367E+02 -0.13162124130E+02  0.31693192735E+02  0.10566000000E+00 0.  1.
         13    1    4    4    0    0  0.12360863487E+02 -0.11768439948E+02 -0.71036168070E+02  0.73057754298E+02  0.10566000000E+00 0. -1.
        -13    1    4    4    0    0  0.36523518912E+01 -0.30010631613E+01 -0.17926971207E+02  0.18540051649E+02  0.10566000000E+00 0.  1.
        -14    1    4    4    0    0  0.54898597411E+01 -0.44352762574E+01 -0.32174810011E+02  0.32939772839E+02  0.00000000000E+00 0.  1.
<mgrwt>
<rscale>  0 0.79821953E+02</rscale>
<asrwt>0</asrwt>
<pdfrwt beam="1">  1        2 0.22348525E-01 0.79821953E+02</pdfrwt>
<pdfrwt beam="2">  1       -1 0.16869769E-02 0.79821953E+02</pdfrwt>
<totfact> 0.19942676E+05</totfact>
</mgrwt>
</event>
<event>
 8    1  0.1226832E-020  0.7958491E+02  0.7818608E-02  0.1330234E+00
          2   -1    0    0  501    0  0.00000000000E+00  0.00000000000E+00  0.99391234033E+03  0.99391234034E+03  0.25500000000E-02 0. -1.
         -1   -1    0    0    0  501 -0.00000000000E+00 -0.00000000000E+00 -0.15931337833E+01  0.15931417554E+01  0.50400000000E-02 0.  1.
         24    2    1    2    0    0  0.00000000000E+00  0.00000000000E+00  0.99231920655E+03  0.99550548209E+03  0.79584905523E+02 0.  0.
         66    2    3    3    0    0  0.23615644865E+02  0.76885428154E+01  0.88497252098E+03  0.88532320384E+03  0.20000005011E+01 0.  0.
        -13    1    3    3    0    0 -0.23615644865E+02 -0.76885428154E+01  0.10734668557E+03  0.11018227825E+03  0.10566000000E+00 0.  1.
         13    1    4    4    0    0  0.15038244365E+02  0.41534458694E+01  0.57430282610E+03  0.57451470577E+03  0.10566000000E+00 0. -1.
        -13    1    4    4    0    0  0.53521808672E+00  0.19100949909E+00  0.19132916921E+02  0.19141646141E+02  0.10566000000E+00 0. -1.
         14    1    4    4    0    0  0.80421824132E+01  0.33440874468E+01  0.29153677795E+03  0.29166685193E+03  0.00000000000E+00 0. -1.
<mgrwt>
<rscale>  0 0.79584906E+02</rscale>
<asrwt>0</asrwt>
<pdfrwt beam="1">  1        2 0.15290924E+00 0.79584906E+02</pdfrwt>
<pdfrwt beam="2">  1       -1 0.24509869E-03 0.79584906E+02</pdfrwt>
<totfact> 0.35700509E+05</totfact>
</mgrwt>
</event>
<event>
 8    1  0.1226832E-020  0.8044610E+02  0.7818608E-02  0.1327790E+00
          2   -1    0    0  501    0  0.00000000000E+00  0.00000000000E+00  0.49094127584E+03  0.49094127585E+03  0.25500000000E-02 0. -1.
         -1   -1    0    0    0  501 -0.00000000000E+00 -0.00000000000E+00 -0.32954918811E+01  0.32954957350E+01  0.50400000000E-02 0.  1.
         24    2    1    2    0    0 -0.17763568394E-14 -0.35527136788E-14  0.48764578396E+03  0.49423677158E+03  0.80446104757E+02 0.  0.
         66    2    3    3    0    0 -0.11208595565E+02 -0.29390506930E+02  0.39774429881E+03  0.39899118004E+03  0.20000003704E+01 0.  0.
        -13    1    3    3    0    0  0.11208595565E+02  0.29390506930E+02  0.89901485150E+02  0.95245591543E+02  0.10566000000E+00 0.  1.
         13    1    4    4    0    0 -0.15062884100E+01 -0.42773669845E+01  0.49577875548E+02  0.49784954363E+02  0.10566000000E+00 0. -1.
        -13    1    4    4    0    0 -0.41526550297E+01 -0.10677265066E+02  0.15166136424E+03  0.15209348803E+03  0.10566000000E+00 0.  1.
         14    1    4    4    0    0 -0.55496521253E+01 -0.14435874879E+02  0.19650505902E+03  0.19711273764E+03  0.00000000000E+00 0. -1.
<mgrwt>
<rscale>  0 0.80446105E+02</rscale>
<asrwt>0</asrwt>
<pdfrwt beam="1">  1        2 0.75529425E-01 0.80446105E+02</pdfrwt>
<pdfrwt beam="2">  1       -1 0.50699906E-03 0.80446105E+02</pdfrwt>
<totfact> 0.29837762E+05</totfact>
</mgrwt>
</event>
<event>
 8    1  0.1226832E-020  0.8166392E+02  0.7818608E-02  0.1324395E+00
         -1   -1    0    0    0  501 -0.00000000000E+00  0.00000000000E+00  0.30330992680E+01  0.30331034554E+01  0.50400000000E-02 0.  1.
          2   -1    0    0  501    0  0.00000000000E+00 -0.00000000000E+00 -0.54968454752E+03  0.54968454753E+03  0.25500000000E-02 0. -1.
         24    2    1    2    0    0  0.00000000000E+00 -0.35527136788E-14 -0.54665144825E+03  0.55271765098E+03  0.81663920004E+02 0.  0.
         66    2    3    3    0    0  0.10747489300E+02  0.30241842717E+02 -0.44406478898E+03  0.44522759841E+03  0.19999993127E+01 0.  0.
        -13    1    3    3    0    0 -0.10747489300E+02 -0.30241842717E+02 -0.10258665928E+03  0.10749005258E+03  0.10566000000E+00 0.  1.
         13    1    4    4    0    0  0.64509837969E+01  0.15735958071E+02 -0.23241373936E+03  0.23303517540E+03  0.10566000000E+00 0. -1.
        -13    1    4    4    0    0  0.34974931083E+00  0.13882036920E+01 -0.22891878352E+02  0.22936841382E+02  0.10566000000E+00 0.  1.
         14    1    4    4    0    0  0.39467561925E+01  0.13117680953E+02 -0.18875917126E+03  0.18925558162E+03  0.00000000000E+00 0. -1.
<mgrwt>
<rscale>  0 0.81663920E+02</rscale>
<asrwt>0</asrwt>
<pdfrwt beam="1">  1        2 0.84566775E-01 0.81663920E+02</pdfrwt>
<pdfrwt beam="2">  1       -1 0.46663142E-03 0.81663920E+02</pdfrwt>
<totfact> 0.29719373E+05</totfact>
</mgrwt>
</event>
<event>
 8    1  0.1226832E-020  0.7801915E+02  0.7818608E-02  0.1334769E+00
         -1   -1    0    0    0  501 -0.00000000000E+00  0.00000000000E+00  0.10437381158E+01  0.10437502843E+01  0.50400000000E-02 0.  1.
          2   -1    0    0  501    0  0.00000000000E+00 -0.00000000000E+00 -0.14579694010E+04  0.14579694010E+04  0.25500000000E-02 0. -1.
         24    2    1    2    0    0  0.00000000000E+00 -0.44408920985E-15 -0.14569256629E+04  0.14590131513E+04  0.78019154418E+02 0.  0.
         66    2    3    3    0    0  0.19916674766E+02  0.27939944912E+01 -0.13534602532E+04  0.13536111470E+04  0.19999988715E+01 0.  0.
        -13    1    3    3    0    0 -0.19916674766E+02 -0.27939944912E+01 -0.10346540967E+03  0.10540200425E+03  0.10566000000E+00 0.  1.
         13    1    4    4    0    0  0.42885116370E+01  0.10145002775E+01 -0.32463494670E+03  0.32466487387E+03  0.10566000000E+00 0. -1.
        -13    1    4    4    0    0  0.46834353440E+01  0.10879301783E+01 -0.31999174157E+03  0.32002788003E+03  0.10566000000E+00 0.  1.
         14    1    4    4    0    0  0.10944727785E+02  0.69156403541E+00 -0.70883356493E+03  0.70891839312E+03  0.00000000000E+00 0. -1.
<mgrwt>
<rscale>  0 0.78019154E+02</rscale>
<asrwt>0</asrwt>
<pdfrwt beam="1">  1        2 0.22430136E+00 0.78019154E+02</pdfrwt>
<pdfrwt beam="2">  1       -1 0.16057720E-03 0.78019154E+02</pdfrwt>
<totfact> 0.35848413E+05</totfact>
</mgrwt>
</event>
<event>
 8    1  0.1226832E-020  0.8030992E+02  0.7818608E-02  0.1328174E+00
          2   -1    0    0  501    0  0.00000000000E+00  0.00000000000E+00  0.20862683170E+03  0.20862683171E+03  0.25500000000E-02 0. -1.
         -1   -1    0    0    0  501 -0.00000000000E+00 -0.00000000000E+00 -0.77287310032E+01  0.77287326466E+01  0.50400000000E-02 0.  1.
         24    2    1    2    0    0  0.35527136788E-14  0.00000000000E+00  0.20089810069E+03  0.21635556436E+03  0.80309920725E+02 0.  0.
         66    2    3    3    0    0  0.26088775317E+02 -0.30338500050E+02  0.10875637003E+03  0.11590080600E+03  0.20000067414E+01 0.  0.
        -13    1    3    3    0    0 -0.26088775317E+02  0.30338500050E+02  0.92141730664E+02  0.10045475836E+03  0.10566000000E+00 0.  1.
         13    1    4    4    0    0  0.27574306711E+01 -0.39928669440E+01  0.13889610899E+02  0.14713220765E+02  0.10566000000E+00 0. -1.
        -13    1    4    4    0    0  0.24170203650E+01 -0.24618500192E+01  0.97899473722E+01  0.10380603381E+02  0.10566000000E+00 0.  1.
         14    1    4    4    0    0  0.20914324281E+02 -0.23883783087E+02  0.85076811758E+02  0.90806981855E+02  0.00000000000E+00 0. -1.
<mgrwt>
<rscale>  0 0.80309921E+02</rscale>
<asrwt>0</asrwt>
<pdfrwt beam="1">  1        2 0.32096436E-01 0.80309921E+02</pdfrwt>
<pdfrwt beam="2">  1       -1 0.11890356E-02 0.80309921E+02</pdfrwt>
<totfact> 0.22158601E+05</totfact>
</mgrwt>
</event>
<event>
 8    1  0.1226832E-020  0.7883377E+02  0.7818608E-02  0.1332394E+00
          2   -1    0    0  501    0  0.00000000000E+00  0.00000000000E+00  0.56838557166E+01  0.56838562886E+01  0.25500000000E-02 0. -1.
         -1   -1    0    0    0  501 -0.00000000000E+00 -0.00000000000E+00 -0.27335157688E+03  0.27335157692E+03  0.50400000000E-02 0.  1.
         24    2    1    2    0    0  0.00000000000E+00  0.00000000000E+00 -0.26766772116E+03  0.27903543321E+03  0.78833774720E+02 0.  0.
         66    2    3    3    0    0 -0.12072266747E+02 -0.33510940528E+02 -0.74379313016E+02  0.82492454079E+02  0.20000039328E+01 0.  0.
        -13    1    3    3    0    0  0.12072266747E+02  0.33510940528E+02 -0.19328840815E+03  0.19654297913E+03  0.10566000000E+00 0.  1.
         13    1    4    4    0    0 -0.43098670668E+01 -0.12417938556E+02 -0.28166566241E+02  0.31082901569E+02  0.10566000000E+00 0. -1.
        -13    1    4    4    0    0 -0.58608184066E+01 -0.14445586227E+02 -0.33003017445E+02  0.36499787374E+02  0.10566000000E+00 0.  1.
        -14    1    4    4    0    0 -0.19015812734E+01 -0.66474157459E+01 -0.13209729330E+02  0.14909765136E+02  0.00000000000E+00 0.  1.
<mgrwt>
<rscale>  0 0.78833775E+02</rscale>
<asrwt>0</asrwt>
<pdfrwt beam="1">  1        2 0.87443960E-03 0.78833775E+02</pdfrwt>
<pdfrwt beam="2">  1       -1 0.42054079E-01 0.78833775E+02</pdfrwt>
<totfact> 0.93069722E+04</totfact>
</mgrwt>
</event>
<event>
 8    1  0.1226832E-020  0.8160067E+02  0.7818608E-02  0.1324569E+00
          2   -1    0    0  501    0  0.00000000000E+00  0.00000000000E+00  0.16706316335E+02  0.16706316530E+02  0.25500000000E-02 0. -1.
         -1   -1    0    0    0  501 -0.00000000000E+00 -0.00000000000E+00 -0.99642978960E+02  0.99642979088E+02  0.50400000000E-02 0.  1.
         24    2    1    2    0    0  0.00000000000E+00  0.00000000000E+00 -0.82936662625E+02  0.11634929562E+03  0.81600665336E+02 0.  0.
         66    2    3    3    0    0 -0.16169610676E+02  0.28998119841E+02 -0.77422116646E+01  0.34150975178E+02  0.20000001172E+01 0.  0.
        -13    1    3    3    0    0  0.16169610676E+02 -0.28998119841E+02 -0.75194450961E+02  0.82198320439E+02  0.10566000000E+00 0.  1.
         13    1    4    4    0    0 -0.64405268871E+01  0.11977492526E+02 -0.32372486521E+01  0.13979687288E+02  0.10566000000E+00 0. -1.
        -13    1    4    4    0    0 -0.32902687234E+01  0.65191483585E+01 -0.10545421539E+01  0.73789150139E+01  0.10566000000E+00 0.  1.
        -14    1    4    4    0    0 -0.64388150654E+01  0.10501478956E+02 -0.34504208586E+01  0.12792372876E+02  0.00000000000E+00 0.  1.
<mgrwt>
<rscale>  0 0.81600665E+02</rscale>
<asrwt>0</asrwt>
<pdfrwt beam="1">  1        2 0.25702026E-02 0.81600665E+02</pdfrwt>
<pdfrwt beam="2">  1       -1 0.15329689E-01 0.81600665E+02</pdfrwt>
<totfact> 0.11290684E+05</totfact>
</mgrwt>
</event>
<event>
 8    1  0.1226832E-020  0.6974581E+02  0.7818608E-02  0.1360960E+00
         -1   -1    0    0    0  501 -0.00000000000E+00  0.00000000000E+00  0.52836061718E+01  0.52836085756E+01  0.50400000000E-02 0.  1.
          2   -1    0    0  501    0  0.00000000000E+00 -0.00000000000E+00 -0.23016843348E+03  0.23016843349E+03  0.25500000000E-02 0. -1.
         24    2    1    2    0    0  0.00000000000E+00  0.35527136788E-14 -0.22488482730E+03  0.23545204207E+03  0.69745813934E+02 0.  0.
         66    2    3    3    0    0 -0.16066238312E+02 -0.27849936056E+02 -0.15787328600E+03  0.16112640191E+03  0.20000024605E+01 0.  0.
        -13    1    3    3    0    0  0.16066238312E+02  0.27849936056E+02 -0.67011541308E+02  0.74325640154E+02  0.10566000000E+00 0.  1.
         13    1    4    4    0    0 -0.52766663713E+01 -0.10415666593E+02 -0.58464956197E+02  0.59619557074E+02  0.10566000000E+00 0. -1.
        -13    1    4    4    0    0 -0.54553389990E+01 -0.77731889185E+01 -0.45616391052E+02  0.46594522062E+02  0.10566000000E+00 0.  1.
         14    1    4    4    0    0 -0.53342329418E+01 -0.96610805448E+01 -0.53791938747E+02  0.54912322775E+02  0.00000000000E+00 0. -1.
<mgrwt>
<rscale>  0 0.69745814E+02</rscale>
<asrwt>0</asrwt>
<pdfrwt beam="1">  1        2 0.35410520E-01 0.69745814E+02</pdfrwt>
<pdfrwt beam="2">  1       -1 0.81286286E-03 0.69745814E+02</pdfrwt>
<totfact> 0.33158903E+05</totfact>
</mgrwt>
</event>
<event>
 8    1  0.1226832E-020  0.7990290E+02  0.7818608E-02  0.1329327E+00
          2   -1    0    0  501    0  0.00000000000E+00  0.00000000000E+00  0.97034740917E+01  0.97034744268E+01  0.25500000000E-02 0. -1.
         -1   -1    0    0    0  501 -0.00000000000E+00 -0.00000000000E+00 -0.16448937257E+03  0.16448937265E+03  0.50400000000E-02 0.  1.
         24    2    1    2    0    0 -0.17763568394E-14  0.00000000000E+00 -0.15478589848E+03  0.17419284708E+03  0.79902901099E+02 0.  0.
         66    2    3    3    0    0 -0.11244995732E+02 -0.36317358212E+02 -0.10402664380E+03  0.11077428878E+03  0.19999995355E+01 0.  0.
        -13    1    3    3    0    0  0.11244995732E+02  0.36317358212E+02 -0.50759254683E+02  0.63418558297E+02  0.10566000000E+00 0.  1.
         13    1    4    4    0    0 -0.69296970037E+00 -0.18441608994E+01 -0.55335802813E+01  0.58747605223E+01  0.10566000000E+00 0. -1.
        -13    1    4    4    0    0 -0.68791790728E+01 -0.22888866559E+02 -0.62797098384E+02  0.67191592082E+02  0.10566000000E+00 0.  1.
        -14    1    4    4    0    0 -0.36728469592E+01 -0.11584330753E+02 -0.35695965133E+02  0.37707936175E+02  0.00000000000E+00 0.  1.
<mgrwt>
<rscale>  0 0.79902901E+02</rscale>
<asrwt>0</asrwt>
<pdfrwt beam="1">  1        2 0.14928423E-02 0.79902901E+02</pdfrwt>
<pdfrwt beam="2">  1       -1 0.25306055E-01 0.79902901E+02</pdfrwt>
<totfact> 0.10562868E+05</totfact>
</mgrwt>
</event>
<event>
 8    1  0.1226832E-020  0.8042653E+02  0.7818608E-02  0.1327845E+00
          2   -1    0    0  501    0  0.00000000000E+00  0.00000000000E+00  0.32644903406E+03  0.32644903407E+03  0.25500000000E-02 0. -1.
         -1   -1    0    0    0  501 -0.00000000000E+00 -0.00000000000E+00 -0.49536249843E+01  0.49536275483E+01  0.50400000000E-02 0.  1.
         24    2    1    2    0    0  0.00000000000E+00 -0.35527136788E-14  0.32149540908E+03  0.33140266162E+03  0.80426525916E+02 0.  0.
         66    2    3    3    0    0 -0.21686134705E+02  0.28672412683E+02  0.23486871186E+03  0.23761251543E+03  0.19999976816E+01 0.  0.
        -13    1    3    3    0    0  0.21686134705E+02 -0.28672412683E+02  0.86626697218E+02  0.93790146190E+02  0.10566000000E+00 0.  1.
         13    1    4    4    0    0 -0.39844942859E+00  0.64041120048E+00  0.43349451114E+01  0.44013408874E+01  0.10566000000E+00 0. -1.
        -13    1    4    4    0    0 -0.26218082086E+01  0.28138271019E+01  0.27360809470E+02  0.27629993849E+02  0.10566000000E+00 0.  1.
         14    1    4    4    0    0 -0.18665877068E+02  0.25218174380E+02  0.20317295728E+03  0.20558118069E+03  0.00000000000E+00 0. -1.
<mgrwt>
<rscale>  0 0.80426526E+02</rscale>
<asrwt>0</asrwt>
<pdfrwt beam="1">  1        2 0.50222943E-01 0.80426526E+02</pdfrwt>
<pdfrwt beam="2">  1       -1 0.76209612E-03 0.80426526E+02</pdfrwt>
<totfact> 0.25921004E+05</totfact>
</mgrwt>
</event>
<event>
 8    1  0.1226832E-020  0.8071262E+02  0.7818608E-02  0.1327041E+00
          2   -1    0    0  501    0  0.00000000000E+00  0.00000000000E+00  0.83052085204E+02  0.83052085243E+02  0.25500000000E-02 0. -1.
         -1   -1    0    0    0  501 -0.00000000000E+00 -0.00000000000E+00 -0.19609763374E+02  0.19609764021E+02  0.50400000000E-02 0.  1.
         24    2    1    2    0    0  0.00000000000E+00 -0.17763568394E-14  0.63442321830E+02  0.10266184926E+03  0.80712620420E+02 0.  0.
         66    2    3    3    0    0 -0.32071511609E+02  0.10998737965E+02  0.59522354297E+02  0.68530757819E+02  0.20000031457E+01 0.  0.
        -13    1    3    3    0    0  0.32071511609E+02 -0.10998737965E+02  0.39199675338E+01  0.34131091445E+02  0.10566000000E+00 0.  1.
         13    1    4    4    0    0 -0.95023580552E+01  0.34027641474E+01  0.17742048605E+02  0.20412375295E+02  0.10566000000E+00 0. -1.
        -13    1    4    4    0    0 -0.57712102325E+01  0.24930214767E+01  0.10036975379E+02  0.11843735156E+02  0.10566000000E+00 0.  1.
        -14    1    4    4    0    0 -0.16797943322E+02  0.51029523405E+01  0.31743330312E+02  0.36274647369E+02  0.00000000000E+00 0.  1.
<mgrwt>
<rscale>  0 0.80712620E+02</rscale>
<asrwt>0</asrwt>
<pdfrwt beam="1">  1        2 0.12777244E-01 0.80712620E+02</pdfrwt>
<pdfrwt beam="2">  1       -1 0.30168867E-02 0.80712620E+02</pdfrwt>
<totfact> 0.16460120E+05</totfact>
</mgrwt>
</event>
<event>
 8    1  0.1226832E-020  0.7856434E+02  0.7818608E-02  0.1333176E+00
         -1   -1    0    0    0  501 -0.00000000000E+00  0.00000000000E+00  0.26458343530E+01  0.26458391533E+01  0.50400000000E-02 0.  1.
          2   -1    0    0  501    0  0.00000000000E+00 -0.00000000000E+00 -0.58321395316E+03  0.58321395316E+03  0.25500000000E-02 0. -1.
         24    2    1    2    0    0  0.35527136788E-14 -0.44408920985E-15 -0.58056811880E+03  0.58585979231E+03  0.78564341026E+02 0.  0.
         66    2    3    3    0    0 -0.20685838578E+02  0.38024859048E+01 -0.53765087845E+03  0.53806582302E+03  0.19999988612E+01 0.  0.
        -13    1    3    3    0    0  0.20685838578E+02 -0.38024859048E+01 -0.42917240357E+02  0.47793969291E+02  0.10566000000E+00 0.  1.
         13    1    4    4    0    0 -0.40456688769E+01  0.37549932389E+00 -0.10780974900E+03  0.10788633639E+03  0.10566000000E+00 0. -1.
        -13    1    4    4    0    0 -0.96371519907E+00  0.37927899820E+00 -0.19590740846E+02  0.19618381444E+02  0.10566000000E+00 0.  1.
         14    1    4    4    0    0 -0.15676454502E+02  0.30477075827E+01 -0.41025038860E+03  0.41056110519E+03  0.00000000000E+00 0. -1.
<mgrwt>
<rscale>  0 0.78564341E+02</rscale>
<asrwt>0</asrwt>
<pdfrwt beam="1">  1        2 0.89725121E-01 0.78564341E+02</pdfrwt>
<pdfrwt beam="2">  1       -1 0.40705227E-03 0.78564341E+02</pdfrwt>
<totfact> 0.33445464E+05</totfact>
</mgrwt>
</event>
<event>
 8    1  0.1226832E-020  0.7994158E+02  0.7818608E-02  0.1329217E+00
          2   -1    0    0  501    0  0.00000000000E+00  0.00000000000E+00  0.69565884762E+03  0.69565884763E+03  0.25500000000E-02 0. -1.
         -1   -1    0    0    0  501 -0.00000000000E+00 -0.00000000000E+00 -0.22966171768E+01  0.22966227070E+01  0.50400000000E-02 0.  1.
         24    2    1    2    0    0  0.17763568394E-14  0.88817841970E-15  0.69336223044E+03  0.69795547033E+03  0.79941578423E+02 0.  0.
         66    2    3    3    0    0 -0.98428896512E+01 -0.78192163404E+01  0.67793678157E+03  0.67805626789E+03  0.19999995829E+01 0.  0.
        -13    1    3    3    0    0  0.98428896512E+01  0.78192163404E+01  0.15425448875E+02  0.19899202444E+02  0.10566000000E+00 0.  1.
         13    1    4    4    0    0 -0.50676207055E+01 -0.36351484936E+01  0.37410031611E+03  0.37415231225E+03  0.10566000000E+00 0. -1.
        -13    1    4    4    0    0 -0.52333201191E+00 -0.43510232307E+00  0.23100888160E+02  0.23111152897E+02  0.10566000000E+00 0. -1.
        -14    1    4    4    0    0 -0.42519369338E+01 -0.37489655237E+01  0.28073557730E+03  0.28079280274E+03  0.00000000000E+00 0.  1.
<mgrwt>
<rscale>  0 0.79941578E+02</rscale>
<asrwt>0</asrwt>
<pdfrwt beam="1">  1        2 0.10702435E+00 0.79941578E+02</pdfrwt>
<pdfrwt beam="2">  1       -1 0.35332642E-03 0.79941578E+02</pdfrwt>
<totfact> 0.33467370E+05</totfact>
</mgrwt>
</event>
<event>
 8    1  0.1226832E-020  0.7924507E+02  0.7818608E-02  0.1331208E+00
          2   -1    0    0  501    0  0.00000000000E+00  0.00000000000E+00  0.45847268299E+03  0.45847268299E+03  0.25500000000E-02 0. -1.
         -1   -1    0    0    0  501 -0.00000000000E+00 -0.00000000000E+00 -0.34242917485E+01  0.34242954575E+01  0.50400000000E-02 0.  1.
         24    2    1    2    0    0  0.55511151231E-16  0.00000000000E+00  0.45504839124E+03  0.46189697845E+03  0.79245065045E+02 0.  0.
         66    2    3    3    0    0  0.46811153025E+00  0.36364407774E+02  0.31896785373E+03  0.32104062206E+03  0.20000057892E+01 0.  0.
        -13    1    3    3    0    0 -0.46811153025E+00 -0.36364407774E+02  0.13608053751E+03  0.14085635639E+03  0.10566000000E+00 0.  1.
         13    1    4    4    0    0  0.53102536027E+00  0.91284993406E+01  0.78403136170E+02  0.78934621133E+02  0.10566000000E+00 0. -1.
        -13    1    4    4    0    0  0.49645068007E+00  0.60778409791E+01  0.56687357483E+02  0.57014509352E+02  0.10566000000E+00 0.  1.
        -14    1    4    4    0    0 -0.55936451009E+00  0.21158067455E+02  0.18387736007E+03  0.18509149158E+03  0.00000000000E+00 0.  1.
<mgrwt>
<rscale>  0 0.79245065E+02</rscale>
<asrwt>0</asrwt>
<pdfrwt beam="1">  1        2 0.70534259E-01 0.79245065E+02</pdfrwt>
<pdfrwt beam="2">  1       -1 0.52681440E-03 0.79245065E+02</pdfrwt>
<totfact> 0.30343416E+05</totfact>
</mgrwt>
</event>
<event>
 8    1  0.1226832E-020  0.8164273E+02  0.7818608E-02  0.1324453E+00
          2   -1    0    0  501    0  0.00000000000E+00  0.00000000000E+00  0.19997185552E+02  0.19997185715E+02  0.25500000000E-02 0. -1.
         -1   -1    0    0    0  501 -0.00000000000E+00 -0.00000000000E+00 -0.83330914063E+02  0.83330914215E+02  0.50400000000E-02 0.  1.
         24    2    1    2    0    0  0.00000000000E+00 -0.17763568394E-14 -0.63333728511E+02  0.10332809993E+03  0.81642728201E+02 0.  0.
         66    2    3    3    0    0 -0.19232763326E+02 -0.10529171042E+02  0.11855985041E+02  0.25006539578E+02  0.20000030936E+01 0.  0.
        -13    1    3    3    0    0  0.19232763326E+02  0.10529171042E+02 -0.75189713552E+02  0.78321560352E+02  0.10566000000E+00 0.  1.
         13    1    4    4    0    0 -0.17044525219E+02 -0.86926902939E+01  0.10702071550E+02  0.21923143114E+02  0.10566000000E+00 0. -1.
        -13    1    4    4    0    0 -0.17461577041E+01 -0.14575755600E+01  0.92886129359E+00  0.24591747760E+01  0.10566000000E+00 0.  1.
         14    1    4    4    0    0 -0.44208040307E+00 -0.37890518821E+00  0.22505219736E+00  0.62422168816E+00  0.00000000000E+00 0. -1.
<mgrwt>
<rscale>  0 0.81642728E+02</rscale>
<asrwt>0</asrwt>
<pdfrwt beam="1">  1        2 0.30764901E-02 0.81642728E+02</pdfrwt>
<pdfrwt beam="2">  1       -1 0.12820141E-01 0.81642728E+02</pdfrwt>
<totfact> 0.11709868E+05</totfact>
</mgrwt>
</event>
<event>
 8    1  0.1226832E-020  0.7986083E+02  0.7818608E-02  0.1329447E+00
         -1   -1    0    0    0  501 -0.00000000000E+00  0.00000000000E+00  0.21161337965E+02  0.21161338565E+02  0.50400000000E-02 0.  1.
          2   -1    0    0  501    0  0.00000000000E+00 -0.00000000000E+00 -0.75346750269E+02  0.75346750312E+02  0.25500000000E-02 0. -1.
         24    2    1    2    0    0  0.00000000000E+00 -0.22204460493E-15 -0.54185412305E+02  0.96508088877E+02  0.79860830900E+02 0.  0.
         66    2    3    3    0    0  0.39396318187E+02 -0.15520695134E+01 -0.34554577547E+02  0.52464251127E+02  0.20000026157E+01 0.  0.
        -13    1    3    3    0    0 -0.39396318187E+02  0.15520695134E+01 -0.19630834758E+02  0.44043837750E+02  0.10566000000E+00 0.  1.
         13    1    4    4    0    0  0.22014430190E+02 -0.17653412923E+00 -0.19404839493E+02  0.29346639683E+02  0.10566000000E+00 0. -1.
        -13    1    4    4    0    0  0.52879247873E+01 -0.34454822325E+00 -0.51659069252E+01  0.74012580302E+01  0.10566000000E+00 0.  1.
        -14    1    4    4    0    0  0.12093963209E+02 -0.10309871609E+01 -0.99838311289E+01  0.15716353414E+02  0.00000000000E+00 0.  1.
<mgrwt>
<rscale>  0 0.79860831E+02</rscale>
<asrwt>0</asrwt>
<pdfrwt beam="1">  1        2 0.11591808E-01 0.79860831E+02</pdfrwt>
<pdfrwt beam="2">  1       -1 0.32555906E-02 0.79860831E+02</pdfrwt>
<totfact> 0.16520984E+05</totfact>
</mgrwt>
</event>
<event>
 8    1  0.1226832E-020  0.7969318E+02  0.7818608E-02  0.1329924E+00
         -1   -1    0    0    0  501 -0.00000000000E+00  0.00000000000E+00  0.17366868527E+02  0.17366869258E+02  0.50400000000E-02 0.  1.
          2   -1    0    0  501    0  0.00000000000E+00 -0.00000000000E+00 -0.91424113238E+02  0.91424113274E+02  0.25500000000E-02 0. -1.
         24    2    1    2    0    0 -0.44408920985E-15 -0.35527136788E-14 -0.74057244712E+02  0.10879098253E+03  0.79693176533E+02 0.  0.
         66    2    3    3    0    0  0.34625477473E+01  0.23926660642E+02  0.61445307117E+01  0.25024579533E+02  0.19999991873E+01 0.  0.
        -13    1    3    3    0    0 -0.34625477473E+01 -0.23926660642E+02 -0.80201775423E+02  0.83766402999E+02  0.10566000000E+00 0.  1.
         13    1    4    4    0    0  0.18054591061E+01  0.12622253864E+02  0.33764892019E+01  0.13190633743E+02  0.10566000000E+00 0. -1.
        -13    1    4    4    0    0  0.11604616654E+00  0.21289758707E+00 -0.85619208323E-01  0.27800499957E+00  0.10566000000E+00 0.  1.
        -14    1    4    4    0    0  0.15410424747E+01  0.11091509191E+02  0.28536607182E+01  0.11555940790E+02  0.00000000000E+00 0.  1.
<mgrwt>
<rscale>  0 0.79693177E+02</rscale>
<asrwt>0</asrwt>
<pdfrwt beam="1">  1        2 0.14065248E-01 0.79693177E+02</pdfrwt>
<pdfrwt beam="2">  1       -1 0.26718260E-02 0.79693177E+02</pdfrwt>
<totfact> 0.17473123E+05</totfact>
</mgrwt>
</event>
<event>
 8    1  0.1226832E-020  0.7991220E+02  0.7818608E-02  0.1329301E+00
         -1   -1    0    0    0  501 -0.00000000000E+00  0.00000000000E+00  0.11024381790E+03  0.11024381802E+03  0.50400000000E-02 0.  1.
          2   -1    0    0  501    0  0.00000000000E+00 -0.00000000000E+00 -0.14481446580E+02  0.14481446805E+02  0.25500000000E-02 0. -1.
         24    2    1    2    0    0 -0.35527136788E-14  0.88817841970E-15  0.95762371324E+02  0.12472526482E+03  0.79912201345E+02 0.  0.
         66    2    3    3    0    0 -0.25128063693E+02  0.71282552625E+01  0.77006020902E+00  0.26207337810E+02  0.19999885902E+01 0.  0.
        -13    1    3    3    0    0  0.25128063693E+02 -0.71282552625E+01  0.94992311115E+02  0.98517927013E+02  0.10566000000E+00 0.  1.
         13    1    4    4    0    0 -0.15071284721E+02  0.47459672432E+01  0.45394364427E+00  0.15807753069E+02  0.10566000000E+00 0. -1.
        -13    1    4    4    0    0 -0.56744390559E+01  0.10465598841E+01 -0.28938828085E+00  0.57783609962E+01  0.10566000000E+00 0.  1.
        -14    1    4    4    0    0 -0.43823399153E+01  0.13357281351E+01  0.60550484560E+00  0.46212237451E+01  0.00000000000E+00 0.  1.
<mgrwt>
<rscale>  0 0.79912201E+02</rscale>
<asrwt>0</asrwt>
<pdfrwt beam="1">  1        2 0.22279149E-02 0.79912201E+02</pdfrwt>
<pdfrwt beam="2">  1       -1 0.16960588E-01 0.79912201E+02</pdfrwt>
<totfact> 0.11635840E+05</totfact>
</mgrwt>
</event>
<event>
 8    1  0.1226832E-020  0.8004865E+02  0.7818608E-02  0.1328913E+00
          2   -1    0    0  501    0  0.00000000000E+00  0.00000000000E+00  0.16964832199E+04  0.16964832199E+04  0.25500000000E-02 0. -1.
         -1   -1    0    0    0  501 -0.00000000000E+00 -0.00000000000E+00 -0.94426831143E+00  0.94428176175E+00  0.50400000000E-02 0.  1.
         24    2    1    2    0    0  0.00000000000E+00  0.44408920985E-15  0.16955389516E+04  0.16974275017E+04  0.80048654268E+02 0.  0.
         66    2    3    3    0    0  0.13458584659E+02 -0.23714363290E+01  0.16454409613E+04  0.16454989257E+04  0.19999992631E+01 0.  0.
        -13    1    3    3    0    0 -0.13458584659E+02  0.23714363290E+01  0.50097990288E+02  0.51928576008E+02  0.10566000000E+00 0.  1.
         13    1    4    4    0    0  0.34781186957E+01 -0.77046584011E+00  0.37721771926E+03  0.37723455544E+03  0.10566000000E+00 0.  1.
        -13    1    4    4    0    0  0.57723173769E+01 -0.13420409413E+01  0.81291146865E+03  0.81293307704E+03  0.10566000000E+00 0. -1.
        -14    1    4    4    0    0  0.42081485863E+01 -0.25892954762E+00  0.45531177339E+03  0.45533129318E+03  0.00000000000E+00 0.  1.
<mgrwt>
<rscale>  0 0.80048654E+02</rscale>
<asrwt>0</asrwt>
<pdfrwt beam="1">  1        2 0.26099656E+00 0.80048654E+02</pdfrwt>
<pdfrwt beam="2">  1       -1 0.14527356E-03 0.80048654E+02</pdfrwt>
<totfact> 0.31322683E+05</totfact>
</mgrwt>
</event>
<event>
 8    1  0.1226832E-020  0.7974791E+02  0.7818608E-02  0.1329768E+00
          2   -1    0    0  501    0  0.00000000000E+00  0.00000000000E+00  0.61534094107E+03  0.61534094108E+03  0.25500000000E-02 0. -1.
         -1   -1    0    0    0  501 -0.00000000000E+00 -0.00000000000E+00 -0.25838206536E+01  0.25838255691E+01  0.50400000000E-02 0.  1.
         24    2    1    2    0    0  0.35527136788E-14  0.35527136788E-14  0.61275712042E+03  0.61792476665E+03  0.79747906628E+02 0.  0.
         66    2    3    3    0    0 -0.25519638413E+02 -0.19917929002E+02  0.48662092981E+03  0.48770063069E+03  0.20000013452E+01 0.  0.
        -13    1    3    3    0    0  0.25519638413E+02  0.19917929002E+02  0.12613619061E+03  0.13022413596E+03  0.10566000000E+00 0.  1.
         13    1    4    4    0    0 -0.34408562933E+01 -0.31514253714E+01  0.72210319863E+02  0.72360986952E+02  0.10566000000E+00 0. -1.
        -13    1    4    4    0    0 -0.16729883808E+02 -0.13382820220E+02  0.31493359900E+03  0.31566148297E+03  0.10566000000E+00 0.  1.
        -14    1    4    4    0    0 -0.53488983121E+01 -0.33836834111E+01  0.99477010948E+02  0.99678160766E+02  0.00000000000E+00 0.  1.
<mgrwt>
<rscale>  0 0.79747907E+02</rscale>
<asrwt>0</asrwt>
<pdfrwt beam="1">  1        2 0.94667933E-01 0.79747907E+02</pdfrwt>
<pdfrwt beam="2">  1       -1 0.39751085E-03 0.79747907E+02</pdfrwt>
<totfact> 0.32654411E+05</totfact>
</mgrwt>
</event>
<event>
 8    1  0.1226832E-020  0.7990109E+02  0.7818608E-02  0.1329332E+00
         -1   -1    0    0    0  501 -0.00000000000E+00  0.00000000000E+00  0.37554525417E+01  0.37554559236E+01  0.50400000000E-02 0.  1.
          2   -1    0    0  501    0  0.00000000000E+00 -0.00000000000E+00 -0.42499413926E+03  0.42499413927E+03  0.25500000000E-02 0. -1.
         24    2    1    2    0    0  0.35527136788E-14  0.00000000000E+00 -0.42123868672E+03  0.42874959519E+03  0.79901090034E+02 0.  0.
         66    2    3    3    0    0  0.26762153790E+02  0.24863955618E+02 -0.29721056110E+03  0.29945374733E+03  0.19999998101E+01 0.  0.
        -13    1    3    3    0    0 -0.26762153790E+02 -0.24863955618E+02 -0.12402812563E+03  0.12929584786E+03  0.10566000000E+00 0.  1.
         13    1    4    4    0    0  0.10473726520E+02  0.90922633913E+01 -0.11129938738E+03  0.11216030044E+03  0.10566000000E+00 0. -1.
        -13    1    4    4    0    0  0.53861118835E+01  0.49597740813E+01 -0.55222748156E+02  0.55706127473E+02  0.10566000000E+00 0.  1.
        -14    1    4    4    0    0  0.10902315387E+02  0.10811918146E+02 -0.13068842556E+03  0.13158731942E+03  0.00000000000E+00 0.  1.
<mgrwt>
<rscale>  0 0.79901090E+02</rscale>
<asrwt>0</asrwt>
<pdfrwt beam="1">  1        2 0.65383676E-01 0.79901090E+02</pdfrwt>
<pdfrwt beam="2">  1       -1 0.57776253E-03 0.79901090E+02</pdfrwt>
<totfact> 0.28946409E+05</totfact>
</mgrwt>
</event>
<event>
 8    1  0.1226832E-020  0.8019676E+02  0.7818608E-02  0.1328494E+00
         -1   -1    0    0    0  501 -0.00000000000E+00  0.00000000000E+00  0.25414892976E+01  0.25414942950E+01  0.50400000000E-02 0.  1.
          2   -1    0    0  501    0  0.00000000000E+00 -0.00000000000E+00 -0.63265203727E+03  0.63265203728E+03  0.25500000000E-02 0. -1.
         24    2    1    2    0    0  0.00000000000E+00  0.00000000000E+00 -0.63011054797E+03  0.63519353157E+03  0.80196757306E+02 0.  0.
         66    2    3    3    0    0  0.12041808060E+02 -0.89309248227E+01 -0.60960006783E+03  0.60978767557E+03  0.20000039478E+01 0.  0.
        -13    1    3    3    0    0 -0.12041808060E+02  0.89309248227E+01 -0.20510480144E+02  0.25405856004E+02  0.10566000000E+00 0.  1.
         13    1    4    4    0    0  0.13662319863E+01 -0.16986532659E+01 -0.88863734119E+02  0.88890530532E+02  0.10566000000E+00 0. -1.
        -13    1    4    4    0    0  0.10373713924E+02 -0.68073109422E+01 -0.50386699800E+03  0.50401975781E+03  0.10566000000E+00 0.  1.
        -14    1    4    4    0    0  0.30186215002E+00 -0.42496061467E+00 -0.16869335713E+02  0.16877387229E+02  0.00000000000E+00 0.  1.
<mgrwt>
<rscale>  0 0.80196757E+02</rscale>
<asrwt>0</asrwt>
<pdfrwt beam="1">  1        2 0.97330958E-01 0.80196757E+02</pdfrwt>
<pdfrwt beam="2">  1       -1 0.39099924E-03 0.80196757E+02</pdfrwt>
<totfact> 0.32420391E+05</totfact>
</mgrwt>
</event>
<event>
 8    1  0.1226832E-020  0.7930441E+02  0.7818608E-02  0.1331037E+00
         -1   -1    0    0    0  501 -0.00000000000E+00  0.00000000000E+00  0.70643784014E+01  0.70643801993E+01  0.50400000000E-02 0.  1.
          2   -1    0    0  501    0  0.00000000000E+00 -0.00000000000E+00 -0.22256694943E+03  0.22256694945E+03  0.25500000000E-02 0. -1.
         24    2    1    2    0    0  0.00000000000E+00  0.00000000000E+00 -0.21550257103E+03  0.22963132965E+03  0.79304409929E+02 0.  0.
         66    2    3    3    0    0  0.16793564537E+02 -0.21147711795E+02 -0.19179324446E+03  0.19369537475E+03  0.20000135336E+01 0.  0.
        -13    1    3    3    0    0 -0.16793564537E+02  0.21147711795E+02 -0.23709326572E+02  0.35935954899E+02  0.10566000000E+00 0.  1.
         13    1    4    4    0    0  0.13212323575E+01 -0.25906771849E+01 -0.20740740410E+02  0.20943895054E+02  0.10566000000E+00 0. -1.
        -13    1    4    4    0    0  0.13204915482E+01 -0.15106283127E+01 -0.15117706624E+02  0.15250636493E+02  0.10566000000E+00 0.  1.
         14    1    4    4    0    0  0.14151840631E+02 -0.17046406298E+02 -0.15593479743E+03  0.15750084320E+03  0.00000000000E+00 0. -1.
<mgrwt>
<rscale>  0 0.79304410E+02</rscale>
<asrwt>0</asrwt>
<pdfrwt beam="1">  1        2 0.34241064E-01 0.79304410E+02</pdfrwt>
<pdfrwt beam="2">  1       -1 0.10868278E-02 0.79304410E+02</pdfrwt>
<totfact> 0.23433467E+05</totfact>
</mgrwt>
</event>
<event>
 8    1  0.1226832E-020  0.7543783E+02  0.7818608E-02  0.1342521E+00
         -1   -1    0    0    0  501 -0.00000000000E+00  0.00000000000E+00  0.18324929642E+03  0.18324929649E+03  0.50400000000E-02 0.  1.
          2   -1    0    0  501    0  0.00000000000E+00 -0.00000000000E+00 -0.77638310366E+01  0.77638314553E+01  0.25500000000E-02 0. -1.
         24    2    1    2    0    0 -0.71054273576E-14  0.00000000000E+00  0.17548546539E+03  0.19101312795E+03  0.75437831931E+02 0.  0.
         66    2    3    3    0    0  0.37000226863E+02  0.43785226286E+01  0.73364045675E+02  0.82307176978E+02  0.19999839768E+01 0.  0.
        -13    1    3    3    0    0 -0.37000226863E+02 -0.43785226286E+01  0.10212141971E+03  0.10870595097E+03  0.10566000000E+00 0.  1.
         13    1    4    4    0    0  0.26394270681E+01  0.34568857704E+00  0.50291551900E+01  0.56911898405E+01  0.10566000000E+00 0. -1.
        -13    1    4    4    0    0  0.34273196783E+01  0.75218545051E+00  0.79166581349E+01  0.86600775510E+01  0.10566000000E+00 0.  1.
        -14    1    4    4    0    0  0.30933480117E+02  0.32806486011E+01  0.60418232350E+02  0.67955909587E+02  0.00000000000E+00 0.  1.
<mgrwt>
<rscale>  0 0.75437832E+02</rscale>
<asrwt>0</asrwt>
<pdfrwt beam="1">  1        2 0.11944356E-02 0.75437832E+02</pdfrwt>
<pdfrwt beam="2">  1       -1 0.28192198E-01 0.75437832E+02</pdfrwt>
<totfact> 0.11862395E+05</totfact>
</mgrwt>
</event>
<event>
 8    1  0.1226832E-020  0.8074783E+02  0.7818608E-02  0.1326943E+00
          2   -1    0    0  501    0  0.00000000000E+00  0.00000000000E+00  0.60513177244E+02  0.60513177298E+02  0.25500000000E-02 0. -1.
         -1   -1    0    0    0  501 -0.00000000000E+00 -0.00000000000E+00 -0.26937155807E+02  0.26937156278E+02  0.50400000000E-02 0.  1.
         24    2    1    2    0    0 -0.35527136788E-14  0.00000000000E+00  0.33576021437E+02  0.87450333576E+02  0.80747827383E+02 0.  0.
         66    2    3    3    0    0  0.28824951141E+02 -0.27210737007E+02  0.24956548484E+02  0.46884233261E+02  0.19999998659E+01 0.  0.
        -13    1    3    3    0    0 -0.28824951141E+02  0.27210737007E+02  0.86194729530E+01  0.40566100315E+02  0.10566000000E+00 0.  1.
         13    1    4    4    0    0  0.78980958325E+01 -0.74020011909E+01  0.64815178194E+01  0.12617082733E+02  0.10566000000E+00 0. -1.
        -13    1    4    4    0    0  0.59842847131E+01 -0.48989476557E+01  0.54783234399E+01  0.94781086409E+01  0.10566000000E+00 0.  1.
         14    1    4    4    0    0  0.14942570595E+02 -0.14909788161E+02  0.12996707225E+02  0.24789041887E+02  0.00000000000E+00 0. -1.
<mgrwt>
<rscale>  0 0.80747827E+02</rscale>
<asrwt>0</asrwt>
<pdfrwt beam="1">  1        2 0.93097195E-02 0.80747827E+02</pdfrwt>
<pdfrwt beam="2">  1       -1 0.41441779E-02 0.80747827E+02</pdfrwt>
<totfact> 0.15206889E+05</totfact>
</mgrwt>
</event>
<event>
 8    1  0.1226832E-020  0.8377384E+02  0.7818608E-02  0.1318671E+00
          2   -1    0    0  501    0  0.00000000000E+00  0.00000000000E+00  0.52053297254E+03  0.52053297254E+03  0.25500000000E-02 0. -1.
         -1   -1    0    0    0  501 -0.00000000000E+00 -0.00000000000E+00 -0.33706088325E+01  0.33706126006E+01  0.50400000000E-02 0.  1.
         24    2    1    2    0    0 -0.71054273576E-14  0.00000000000E+00  0.51716236371E+03  0.52390358514E+03  0.83773838960E+02 0.  0.
         66    2    3    3    0    0 -0.38648535233E+02 -0.93998215882E+01  0.34037372586E+03  0.34269569471E+03  0.19999983609E+01 0.  0.
        -13    1    3    3    0    0  0.38648535233E+02  0.93998215882E+01  0.17678863784E+03  0.18120789043E+03  0.10566000000E+00 0.  1.
         13    1    4    4    0    0 -0.11326281426E+02 -0.27518182834E+01  0.10323802246E+03  0.10389397288E+03  0.10566000000E+00 0. -1.
        -13    1    4    4    0    0 -0.12844144733E+02 -0.23984924406E+01  0.11189805727E+03  0.11265838276E+03  0.10566000000E+00 0.  1.
        -14    1    4    4    0    0 -0.14478109074E+02 -0.42495108642E+01  0.12523764613E+03  0.12614333908E+03  0.00000000000E+00 0.  1.
<mgrwt>
<rscale>  0 0.83773839E+02</rscale>
<asrwt>0</asrwt>
<pdfrwt beam="1">  1        2 0.80081996E-01 0.83773839E+02</pdfrwt>
<pdfrwt beam="2">  1       -1 0.51855550E-03 0.83773839E+02</pdfrwt>
<totfact> 0.27342516E+05</totfact>
</mgrwt>
</event>
<event>
 8    1  0.1226832E-020  0.8005982E+02  0.7818608E-02  0.1328882E+00
         -1   -1    0    0    0  501 -0.00000000000E+00  0.00000000000E+00  0.12798465097E+02  0.12798466089E+02  0.50400000000E-02 0.  1.
          2   -1    0    0  501    0  0.00000000000E+00 -0.00000000000E+00 -0.12520201481E+03  0.12520201484E+03  0.25500000000E-02 0. -1.
         24    2    1    2    0    0  0.35527136788E-14  0.00000000000E+00 -0.11240354972E+03  0.13800048093E+03  0.80059819809E+02 0.  0.
         66    2    3    3    0    0 -0.18209628961E+02 -0.18768439411E+02 -0.10842138061E+03  0.11154837818E+03  0.19999993086E+01 0.  0.
        -13    1    3    3    0    0  0.18209628961E+02  0.18768439411E+02 -0.39821691063E+01  0.26452102745E+02  0.10566000000E+00 0.  1.
         13    1    4    4    0    0 -0.13760997654E+02 -0.14199439102E+02 -0.85148202083E+02  0.87414052698E+02  0.10566000000E+00 0. -1.
        -13    1    4    4    0    0 -0.14059679501E+01 -0.13560696691E+01 -0.77095031821E+01  0.79538213567E+01  0.10566000000E+00 0.  1.
        -14    1    4    4    0    0 -0.30426633569E+01 -0.32129306402E+01 -0.15563675346E+02  0.16180504129E+02  0.00000000000E+00 0.  1.
<mgrwt>
<rscale>  0 0.80059820E+02</rscale>
<asrwt>0</asrwt>
<pdfrwt beam="1">  1        2 0.19261848E-01 0.80059820E+02</pdfrwt>
<pdfrwt beam="2">  1       -1 0.19689948E-02 0.80059820E+02</pdfrwt>
<totfact> 0.18889730E+05</totfact>
</mgrwt>
</event>
<event>
 8    1  0.1226832E-020  0.8018689E+02  0.7818608E-02  0.1328522E+00
          2   -1    0    0  501    0  0.00000000000E+00  0.00000000000E+00  0.48459923768E+03  0.48459923768E+03  0.25500000000E-02 0. -1.
         -1   -1    0    0    0  501 -0.00000000000E+00 -0.00000000000E+00 -0.33171400668E+01  0.33171438956E+01  0.50400000000E-02 0.  1.
         24    2    1    2    0    0 -0.71054273576E-14  0.17763568394E-14  0.48128209761E+03  0.48791638158E+03  0.80186893775E+02 0.  0.
         66    2    3    3    0    0 -0.37432636584E+02  0.14278941451E+02  0.24458565945E+03  0.24785325352E+03  0.20000056448E+01 0.  0.
        -13    1    3    3    0    0  0.37432636584E+02 -0.14278941451E+02  0.23669643816E+03  0.24006312806E+03  0.10566000000E+00 0.  1.
         13    1    4    4    0    0 -0.24080651436E+02  0.86570668934E+01  0.15870572154E+03  0.16075552804E+03  0.10566000000E+00 0. -1.
        -13    1    4    4    0    0 -0.23542477712E+00  0.14807036507E+00  0.20466288110E+01  0.20681400302E+01  0.10566000000E+00 0. -1.
        -14    1    4    4    0    0 -0.13116560371E+02  0.54738041927E+01  0.83833309094E+02  0.85029585451E+02  0.00000000000E+00 0.  1.
<mgrwt>
<rscale>  0 0.80186894E+02</rscale>
<asrwt>0</asrwt>
<pdfrwt beam="1">  1        2 0.74553741E-01 0.80186894E+02</pdfrwt>
<pdfrwt beam="2">  1       -1 0.51032946E-03 0.80186894E+02</pdfrwt>
<totfact> 0.29963795E+05</totfact>
</mgrwt>
</event>
<event>
 8    1  0.1226832E-020  0.7977531E+02  0.7818608E-02  0.1329690E+00
         -1   -1    0    0    0  501 -0.00000000000E+00  0.00000000000E+00  0.50967113975E+01  0.50967138895E+01  0.50400000000E-02 0.  1.
          2   -1    0    0  501    0  0.00000000000E+00 -0.00000000000E+00 -0.31216686888E+03  0.31216686889E+03  0.25500000000E-02 0. -1.
         24    2    1    2    0    0  0.00000000000E+00 -0.35527136788E-14 -0.30707015749E+03  0.31726358278E+03  0.79775305340E+02 0.  0.
         66    2    3    3    0    0  0.88633333451E+01 -0.24232357321E+02 -0.27447176805E+03  0.27568916785E+03  0.19999983435E+01 0.  0.
        -13    1    3    3    0    0 -0.88633333451E+01  0.24232357321E+02 -0.32598389439E+02  0.41574414937E+02  0.10566000000E+00 0.  1.
         13    1    4    4    0    0  0.51878677928E+01 -0.11384653145E+02 -0.13124746626E+03  0.13184245471E+03  0.10566000000E+00 0. -1.
        -13    1    4    4    0    0  0.17300179049E+01 -0.60593674998E+01 -0.69064960979E+02  0.69351920633E+02  0.10566000000E+00 0.  1.
         14    1    4    4    0    0  0.19454476475E+01 -0.67883366766E+01 -0.74159340809E+02  0.74494792507E+02  0.00000000000E+00 0. -1.
<mgrwt>
<rscale>  0 0.79775305E+02</rscale>
<asrwt>0</asrwt>
<pdfrwt beam="1">  1        2 0.48025657E-01 0.79775305E+02</pdfrwt>
<pdfrwt beam="2">  1       -1 0.78410989E-03 0.79775305E+02</pdfrwt>
<totfact> 0.26055069E+05</totfact>
</mgrwt>
</event>
<event>
 8    1  0.1226832E-020  0.7905218E+02  0.7818608E-02  0.1331763E+00
         -1   -1    0    0    0  501 -0.00000000000E+00  0.00000000000E+00  0.74534012047E+00  0.74535716055E+00  0.50400000000E-02 0.  1.
          2   -1    0    0  501    0  0.00000000000E+00 -0.00000000000E+00 -0.20960819252E+04  0.20960819252E+04  0.25500000000E-02 0. -1.
         24    2    1    2    0    0  0.00000000000E+00  0.00000000000E+00 -0.20953365851E+04  0.20968272824E+04  0.79052180776E+02 0.  0.
         66    2    3    3    0    0  0.14506616037E+02 -0.20970945348E+01 -0.20212754325E+04  0.20213295659E+04  0.20000014212E+01 0.  0.
        -13    1    3    3    0    0 -0.14506616037E+02  0.20970945348E+01 -0.74061152601E+02  0.75497716541E+02  0.10566000000E+00 0.  1.
         13    1    4    4    0    0  0.16214369677E+01 -0.73562269165E-01 -0.29964958087E+03  0.29965399538E+03  0.10566000000E+00 0. -1.
        -13    1    4    4    0    0  0.11442856474E+01  0.69788771900E-02 -0.12664212242E+03  0.12664733623E+03  0.10566000000E+00 0.  1.
         14    1    4    4    0    0  0.11740893422E+02 -0.20305111429E+01 -0.15949837292E+04  0.15950282342E+04  0.00000000000E+00 0. -1.
<mgrwt>
<rscale>  0 0.79052181E+02</rscale>
<asrwt>0</asrwt>
<pdfrwt beam="1">  1        2 0.32246942E+00 0.79052181E+02</pdfrwt>
<pdfrwt beam="2">  1       -1 0.11467070E-03 0.79052181E+02</pdfrwt>
<totfact> 0.27340970E+05</totfact>
</mgrwt>
</event>
<event>
 8    1  0.1226832E-020  0.7861440E+02  0.7818608E-02  0.1333030E+00
         -1   -1    0    0    0  501 -0.00000000000E+00  0.00000000000E+00  0.46744934727E+02  0.46744934999E+02  0.50400000000E-02 0.  1.
          2   -1    0    0  501    0  0.00000000000E+00 -0.00000000000E+00 -0.33052906853E+02  0.33052906952E+02  0.25500000000E-02 0. -1.
         24    2    1    2    0    0  0.71054273576E-14  0.00000000000E+00  0.13692027874E+02  0.79797841951E+02  0.78614400415E+02 0.  0.
         66    2    3    3    0    0 -0.38651924469E+02  0.69925208888E+01  0.64145090493E+01  0.39849875071E+02  0.20000008132E+01 0.  0.
        -13    1    3    3    0    0  0.38651924469E+02 -0.69925208888E+01  0.72775188247E+01  0.39947966880E+02  0.10566000000E+00 0.  1.
         13    1    4    4    0    0 -0.95366459212E+01  0.16992068512E+01  0.97044940743E+00  0.97359054760E+01  0.10566000000E+00 0.  1.
        -13    1    4    4    0    0 -0.26996687698E+02  0.45981371617E+01  0.49329911128E+01  0.27826418694E+02  0.10566000000E+00 0. -1.
         14    1    4    4    0    0 -0.21185908504E+01  0.69517687588E+00  0.51106852915E+00  0.22875509003E+01  0.00000000000E+00 0. -1.
<mgrwt>
<rscale>  0 0.78614400E+02</rscale>
<asrwt>0</asrwt>
<pdfrwt beam="1">  1        2 0.50850626E-02 0.78614400E+02</pdfrwt>
<pdfrwt beam="2">  1       -1 0.71915285E-02 0.78614400E+02</pdfrwt>
<totfact> 0.14400122E+05</totfact>
</mgrwt>
</event>
<event>
 8    1  0.1226832E-020  0.7686864E+02  0.7818608E-02  0.1338180E+00
         -1   -1    0    0    0  501 -0.00000000000E+00  0.00000000000E+00  0.11784726049E+03  0.11784726060E+03  0.50400000000E-02 0.  1.
          2   -1    0    0  501    0  0.00000000000E+00 -0.00000000000E+00 -0.12534842157E+02  0.12534842416E+02  0.25500000000E-02 0. -1.
         24    2    1    2    0    0  0.00000000000E+00  0.00000000000E+00  0.10531241834E+03  0.13038210302E+03  0.76868636851E+02 0.  0.
         66    2    3    3    0    0  0.43001219459E+01  0.19186848342E+02 -0.32706185875E+01  0.20033051052E+02  0.19999976132E+01 0.  0.
        -13    1    3    3    0    0 -0.43001219459E+01 -0.19186848342E+02  0.10858303692E+03  0.11034905197E+03  0.10566000000E+00 0.  1.
         13    1    4    4    0    0  0.24369874373E+01  0.11423169884E+02 -0.18393379899E+01  0.11824637256E+02  0.10566000000E+00 0. -1.
        -13    1    4    4    0    0  0.10026385117E+01  0.57559684497E+01 -0.14625704726E+01  0.60238470433E+01  0.10566000000E+00 0.  1.
         14    1    4    4    0    0  0.86049599692E+00  0.20077100081E+01  0.31289874927E-01  0.21845667519E+01  0.00000000000E+00 0. -1.
<mgrwt>
<rscale>  0 0.76868637E+02</rscale>
<asrwt>0</asrwt>
<pdfrwt beam="1">  1        2 0.19284373E-02 0.76868637E+02</pdfrwt>
<pdfrwt beam="2">  1       -1 0.18130347E-01 0.76868637E+02</pdfrwt>
<totfact> 0.12635505E+05</totfact>
</mgrwt>
</event>
<event>
 8    1  0.1425735E-020  0.7898267E+02  0.7818608E-02  0.1331963E+00
         -1   -1    0    0    0  501 -0.00000000000E+00  0.00000000000E+00  0.30009919814E+01  0.30009962136E+01  0.50400000000E-02 0.  1.
          2   -1    0    0  501    0  0.00000000000E+00 -0.00000000000E+00 -0.51968301465E+03  0.51968301466E+03  0.25500000000E-02 0. -1.
         24    2    1    2    0    0 -0.35527136788E-14  0.35527136788E-14 -0.51668202267E+03  0.52268401087E+03  0.78982673228E+02 0.  0.
         66    2    3    3    0    0  0.24868991380E+02 -0.29287971749E+02 -0.31817892806E+03  0.32049661820E+03  0.19999987014E+01 0.  0.
        -13    1    3    3    0    0 -0.24868991380E+02  0.29287971749E+02 -0.19850309461E+03  0.20218739268E+03  0.10566000000E+00 0.  1.
         13    1    4    4    0    0  0.14061101131E+02 -0.16576307636E+02 -0.18181862906E+03  0.18311338994E+03  0.10566000000E+00 0. -1.
        -13    1    4    4    0    0  0.28966291225E+01 -0.41789141615E+01 -0.43911962639E+02  0.44205490730E+02  0.10566000000E+00 0.  1.
        -14    1    4    4    0    0  0.79112611268E+01 -0.85327499518E+01 -0.92448336358E+02  0.93177737522E+02  0.00000000000E+00 0.  1.
<mgrwt>
<rscale>  0 0.78982673E+02</rscale>
<asrwt>0</asrwt>
<pdfrwt beam="1">  1        2 0.79951162E-01 0.78982673E+02</pdfrwt>
<pdfrwt beam="2">  1       -1 0.46169181E-03 0.78982673E+02</pdfrwt>
<totfact> 0.31868404E+05</totfact>
</mgrwt>
</event>
<event>
 8    1  0.1226832E-020  0.7984393E+02  0.7818608E-02  0.1329495E+00
         -1   -1    0    0    0  501 -0.00000000000E+00  0.00000000000E+00  0.30160026003E+02  0.30160026424E+02  0.50400000000E-02 0.  1.
          2   -1    0    0  501    0  0.00000000000E+00 -0.00000000000E+00 -0.52843566818E+02  0.52843566879E+02  0.25500000000E-02 0. -1.
         24    2    1    2    0    0  0.71054273576E-14  0.00000000000E+00 -0.22683540815E+02  0.83003593303E+02  0.79843932001E+02 0.  0.
         66    2    3    3    0    0 -0.37697409750E+02 -0.11381374738E+02 -0.46819680716E+01  0.39705808394E+02  0.20000005889E+01 0.  0.
        -13    1    3    3    0    0  0.37697409750E+02  0.11381374738E+02 -0.18001572743E+02  0.43297784910E+02  0.10566000000E+00 0.  1.
         13    1    4    4    0    0 -0.19389918018E+02 -0.54625706155E+01 -0.30268751705E+01  0.20371100506E+02  0.10566000000E+00 0. -1.
        -13    1    4    4    0    0 -0.15064457762E+02 -0.45734697810E+01 -0.11248401415E+01  0.15783882376E+02  0.10566000000E+00 0.  1.
        -14    1    4    4    0    0 -0.32430339704E+01 -0.13453343418E+01 -0.53025275950E+00  0.35508255116E+01  0.00000000000E+00 0.  1.
<mgrwt>
<rscale>  0 0.79843932E+02</rscale>
<asrwt>0</asrwt>
<pdfrwt beam="1">  1        2 0.81297795E-02 0.79843932E+02</pdfrwt>
<pdfrwt beam="2">  1       -1 0.46400041E-02 0.79843932E+02</pdfrwt>
<totfact> 0.15206495E+05</totfact>
</mgrwt>
</event>
<event>
 8    1  0.1226832E-020  0.7735239E+02  0.7818608E-02  0.1336737E+00
         -1   -1    0    0    0  501 -0.00000000000E+00  0.00000000000E+00  0.16814360261E+02  0.16814361016E+02  0.50400000000E-02 0.  1.
          2   -1    0    0  501    0  0.00000000000E+00 -0.00000000000E+00 -0.88962520739E+02  0.88962520775E+02  0.25500000000E-02 0. -1.
         24    2    1    2    0    0  0.00000000000E+00  0.17763568394E-14 -0.72148160478E+02  0.10577688179E+03  0.77352386267E+02 0.  0.
         66    2    3    3    0    0 -0.32992834585E+02 -0.14511747063E+02 -0.55180308103E+02  0.65939247386E+02  0.20000016530E+01 0.  0.
        -13    1    3    3    0    0  0.32992834585E+02  0.14511747063E+02 -0.16967852375E+02  0.39837634406E+02  0.10566000000E+00 0.  1.
         13    1    4    4    0    0 -0.18145420675E+02 -0.81249363819E+01 -0.30099133669E+02  0.36072702898E+02  0.10566000000E+00 0. -1.
        -13    1    4    4    0    0 -0.11513363256E+02 -0.46823569790E+01 -0.20142670930E+02  0.23668974557E+02  0.10566000000E+00 0.  1.
        -14    1    4    4    0    0 -0.33340506550E+01 -0.17044537025E+01 -0.49385035041E+01  0.61975699313E+01  0.00000000000E+00 0.  1.
<mgrwt>
<rscale>  0 0.77352386E+02</rscale>
<asrwt>0</asrwt>
<pdfrwt beam="1">  1        2 0.13686541E-01 0.77352386E+02</pdfrwt>
<pdfrwt beam="2">  1       -1 0.25868248E-02 0.77352386E+02</pdfrwt>
<totfact> 0.18788720E+05</totfact>
</mgrwt>
</event>
<event>
 8    1  0.1226832E-020  0.8398886E+02  0.7818608E-02  0.1318098E+00
          2   -1    0    0  501    0  0.00000000000E+00  0.00000000000E+00  0.50731863373E+02  0.50731863437E+02  0.25500000000E-02 0. -1.
         -1   -1    0    0    0  501 -0.00000000000E+00 -0.00000000000E+00 -0.34761828494E+02  0.34761828859E+02  0.50400000000E-02 0.  1.
         24    2    1    2    0    0 -0.17763568394E-14  0.00000000000E+00  0.15970034878E+02  0.85493692296E+02  0.83988864788E+02 0.  0.
         66    2    3    3    0    0  0.61090150367E+01  0.37661217567E+02  0.25791150511E+02  0.46096321195E+02  0.20000024320E+01 0.  0.
        -13    1    3    3    0    0 -0.61090150367E+01 -0.37661217567E+02 -0.98211156323E+01  0.39397371101E+02  0.10566000000E+00 0.  1.
         13    1    4    4    0    0  0.71354675396E+00  0.37787806524E+01  0.22621897585E+01  0.44628464827E+01  0.10566000000E+00 0. -1.
        -13    1    4    4    0    0  0.15221741985E+00  0.38254797526E+01  0.23737517496E+01  0.45059213136E+01  0.10566000000E+00 0.  1.
        -14    1    4    4    0    0  0.52432508629E+01  0.30056957162E+02  0.21155209003E+02  0.37127553399E+02  0.00000000000E+00 0.  1.
<mgrwt>
<rscale>  0 0.83988865E+02</rscale>
<asrwt>0</asrwt>
<pdfrwt beam="1">  1        2 0.78049021E-02 0.83988865E+02</pdfrwt>
<pdfrwt beam="2">  1       -1 0.53479737E-02 0.83988865E+02</pdfrwt>
<totfact> 0.13114715E+05</totfact>
</mgrwt>
</event>
<event>
 8    1  0.1226832E-020  0.7964426E+02  0.7818608E-02  0.1330064E+00
         -1   -1    0    0    0  501 -0.00000000000E+00  0.00000000000E+00  0.71394900438E+01  0.71394918228E+01  0.50400000000E-02 0.  1.
          2   -1    0    0  501    0  0.00000000000E+00 -0.00000000000E+00 -0.22211698727E+03  0.22211698728E+03  0.25500000000E-02 0. -1.
         24    2    1    2    0    0  0.00000000000E+00  0.00000000000E+00 -0.21497749723E+03  0.22925647911E+03  0.79644264697E+02 0.  0.
         66    2    3    3    0    0 -0.16336040297E+02 -0.17964020531E+02 -0.19831946973E+03  0.19981037087E+03  0.19999965149E+01 0.  0.
        -13    1    3    3    0    0  0.16336040297E+02  0.17964020531E+02 -0.16658027491E+02  0.29446108235E+02  0.10566000000E+00 0.  1.
         13    1    4    4    0    0 -0.12794188837E+02 -0.13329836997E+02 -0.15009377196E+03  0.15122674157E+03  0.10566000000E+00 0. -1.
        -13    1    4    4    0    0 -0.66468882744E+00 -0.10833760561E+01 -0.83401449960E+01  0.84371024354E+01  0.10566000000E+00 0.  1.
        -14    1    4    4    0    0 -0.28771626327E+01 -0.35508074778E+01 -0.39885552783E+02  0.40146526866E+02  0.00000000000E+00 0.  1.
<mgrwt>
<rscale>  0 0.79644265E+02</rscale>
<asrwt>0</asrwt>
<pdfrwt beam="1">  1        2 0.34171839E-01 0.79644265E+02</pdfrwt>
<pdfrwt beam="2">  1       -1 0.10983834E-02 0.79644265E+02</pdfrwt>
<totfact> 0.23154630E+05</totfact>
</mgrwt>
</event>
<event>
 8    1  0.1226832E-020  0.7897056E+02  0.7818608E-02  0.1331998E+00
          2   -1    0    0  501    0  0.00000000000E+00  0.00000000000E+00  0.24541698095E+02  0.24541698228E+02  0.25500000000E-02 0. -1.
         -1   -1    0    0    0  501 -0.00000000000E+00 -0.00000000000E+00 -0.63528092336E+02  0.63528092536E+02  0.50400000000E-02 0.  1.
         24    2    1    2    0    0  0.00000000000E+00  0.00000000000E+00 -0.38986394241E+02  0.88069790763E+02  0.78970558496E+02 0.  0.
         66    2    3    3    0    0  0.16279590569E+02 -0.35942529808E+02 -0.19994095472E+02  0.44279277011E+02  0.20000002055E+01 0.  0.
        -13    1    3    3    0    0 -0.16279590569E+02  0.35942529808E+02 -0.18992298769E+02  0.43790513752E+02  0.10566000000E+00 0.  1.
         13    1    4    4    0    0  0.10588562615E+02 -0.22704537685E+02 -0.12702056463E+02  0.28088558029E+02  0.10566000000E+00 0. -1.
        -13    1    4    4    0    0  0.88954600460E+00 -0.14199151115E+01 -0.57883755966E+00  0.17758569689E+01  0.10566000000E+00 0.  1.
         14    1    4    4    0    0  0.48014819498E+01 -0.11818077012E+02 -0.67132014495E+01  0.14414862014E+02  0.00000000000E+00 0. -1.
<mgrwt>
<rscale>  0 0.78970558E+02</rscale>
<asrwt>0</asrwt>
<pdfrwt beam="1">  1        2 0.37756459E-02 0.78970558E+02</pdfrwt>
<pdfrwt beam="2">  1       -1 0.97735527E-02 0.78970558E+02</pdfrwt>
<totfact> 0.13416122E+05</totfact>
</mgrwt>
</event>
<event>
 8    1  0.1226832E-020  0.7582114E+02  0.7818608E-02  0.1341347E+00
          2   -1    0    0  501    0  0.00000000000E+00  0.00000000000E+00  0.39019018201E+02  0.39019018285E+02  0.25500000000E-02 0. -1.
         -1   -1    0    0    0  501 -0.00000000000E+00 -0.00000000000E+00 -0.36833613300E+02  0.36833613645E+02  0.50400000000E-02 0.  1.
         24    2    1    2    0    0 -0.35527136788E-14  0.17763568394E-14  0.21854049012E+01  0.75852631930E+02  0.75821143331E+02 0.  0.
         66    2    3    3    0    0 -0.31370004894E+02  0.11809341519E+02  0.18754936383E+02  0.38461479343E+02  0.20000000771E+01 0.  0.
        -13    1    3    3    0    0  0.31370004894E+02 -0.11809341519E+02 -0.16569531482E+02  0.37391152587E+02  0.10566000000E+00 0.  1.
         13    1    4    4    0    0 -0.10771202768E+02  0.41469652079E+01  0.56893631766E+01  0.12868416643E+02  0.10566000000E+00 0. -1.
        -13    1    4    4    0    0 -0.83052225125E+01  0.36756106771E+01  0.53817383299E+01  0.10557514211E+02  0.10566000000E+00 0.  1.
        -14    1    4    4    0    0 -0.12293579614E+02  0.39867656345E+01  0.76838348768E+01  0.15035548489E+02  0.00000000000E+00 0.  1.
<mgrwt>
<rscale>  0 0.75821143E+02</rscale>
<asrwt>0</asrwt>
<pdfrwt beam="1">  1        2 0.60029259E-02 0.75821143E+02</pdfrwt>
<pdfrwt beam="2">  1       -1 0.56667098E-02 0.75821143E+02</pdfrwt>
<totfact> 0.16442894E+05</totfact>
</mgrwt>
</event>
<event>
 8    1  0.1226832E-020  0.8103413E+02  0.7818608E-02  0.1326142E+00
         -1   -1    0    0    0  501 -0.00000000000E+00  0.00000000000E+00  0.26868308827E+01  0.26868356097E+01  0.50400000000E-02 0.  1.
          2   -1    0    0  501    0  0.00000000000E+00 -0.00000000000E+00 -0.61099161956E+03  0.61099161956E+03  0.25500000000E-02 0. -1.
         24    2    1    2    0    0  0.44408920985E-15  0.71054273576E-14 -0.60830478867E+03  0.61367845517E+03  0.81034131193E+02 0.  0.
         66    2    3    3    0    0 -0.27367444088E+01 -0.34803569516E+02 -0.45969609359E+03  0.46102416064E+03  0.20000022334E+01 0.  0.
        -13    1    3    3    0    0  0.27367444088E+01  0.34803569516E+02 -0.14860869508E+03  0.15265429453E+03  0.10566000000E+00 0.  1.
         13    1    4    4    0    0  0.33457546918E-01 -0.21737988796E+01 -0.25162685335E+02  0.25256650971E+02  0.10566000000E+00 0. -1.
        -13    1    4    4    0    0 -0.58715437694E+00 -0.57525912191E+01 -0.83221342807E+02  0.83422060144E+02  0.10566000000E+00 0.  1.
         14    1    4    4    0    0 -0.21830475788E+01 -0.26877179417E+02 -0.35131206545E+03  0.35234544953E+03  0.00000000000E+00 0. -1.
<mgrwt>
<rscale>  0 0.81034131E+02</rscale>
<asrwt>0</asrwt>
<pdfrwt beam="1">  1        2 0.93998601E-01 0.81034131E+02</pdfrwt>
<pdfrwt beam="2">  1       -1 0.41335945E-03 0.81034131E+02</pdfrwt>
<totfact> 0.31261910E+05</totfact>
</mgrwt>
</event>
<event>
 8    1  0.1226832E-020  0.8082382E+02  0.7818608E-02  0.1326730E+00
          2   -1    0    0  501    0  0.00000000000E+00  0.00000000000E+00  0.17663497806E+03  0.17663497808E+03  0.25500000000E-02 0. -1.
         -1   -1    0    0    0  501 -0.00000000000E+00 -0.00000000000E+00 -0.92457466392E+01  0.92457480129E+01  0.50400000000E-02 0.  1.
         24    2    1    2    0    0  0.00000000000E+00  0.17763568394E-14  0.16738923142E+03  0.18588072609E+03  0.80823817880E+02 0.  0.
         66    2    3    3    0    0 -0.27920777187E+02 -0.15929853939E+02  0.13997575739E+03  0.14363336206E+03  0.19999985348E+01 0.  0.
        -13    1    3    3    0    0  0.27920777187E+02  0.15929853939E+02  0.27413474031E+02  0.42247364033E+02  0.10566000000E+00 0.  1.
         13    1    4    4    0    0 -0.21878935171E+02 -0.12593958137E+02  0.10795819552E+03  0.11087054943E+03  0.10566000000E+00 0. -1.
        -13    1    4    4    0    0 -0.53197066409E+01 -0.30556185115E+01  0.29379872234E+02  0.30013732520E+02  0.10566000000E+00 0.  1.
        -14    1    4    4    0    0 -0.72213537549E+00 -0.28027729025E+00  0.26376896367E+01  0.27490801151E+01  0.00000000000E+00 0.  1.
<mgrwt>
<rscale>  0 0.80823818E+02</rscale>
<asrwt>0</asrwt>
<pdfrwt beam="1">  1        2 0.27174610E-01 0.80823818E+02</pdfrwt>
<pdfrwt beam="2">  1       -1 0.14224228E-02 0.80823818E+02</pdfrwt>
<totfact> 0.20573436E+05</totfact>
</mgrwt>
</event>
<event>
 8    1  0.1226832E-020  0.8225699E+02  0.7818608E-02  0.1322766E+00
         -1   -1    0    0    0  501 -0.00000000000E+00  0.00000000000E+00  0.41075153025E+01  0.41075183946E+01  0.50400000000E-02 0.  1.
          2   -1    0    0  501    0  0.00000000000E+00 -0.00000000000E+00 -0.41181887021E+03  0.41181887021E+03  0.25500000000E-02 0. -1.
         24    2    1    2    0    0 -0.35527136788E-14  0.35527136788E-14 -0.40771135490E+03  0.41592638861E+03  0.82256986473E+02 0.  0.
         66    2    3    3    0    0 -0.26254982313E+02  0.27500989174E+02 -0.28294672128E+03  0.28549689244E+03  0.20000029567E+01 0.  0.
        -13    1    3    3    0    0  0.26254982313E+02 -0.27500989174E+02 -0.12476463363E+03  0.13042949617E+03  0.10566000000E+00 0.  1.
         13    1    4    4    0    0 -0.97549504386E+01  0.90386349584E+01 -0.99537456806E+02  0.10042197195E+03  0.10566000000E+00 0.  1.
        -13    1    4    4    0    0 -0.13383941367E+02  0.14960497637E+02 -0.14627937516E+03  0.14765030693E+03  0.10566000000E+00 0. -1.
        -14    1    4    4    0    0 -0.31160905068E+01  0.35018565788E+01 -0.37129889309E+02  0.37424613554E+02  0.00000000000E+00 0.  1.
<mgrwt>
<rscale>  0 0.82256986E+02</rscale>
<asrwt>0</asrwt>
<pdfrwt beam="1">  1        2 0.63356717E-01 0.82256986E+02</pdfrwt>
<pdfrwt beam="2">  1       -1 0.63192600E-03 0.82256986E+02</pdfrwt>
<totfact> 0.26538740E+05</totfact>
</mgrwt>
</event>
<event>
 8    1  0.1226832E-020  0.8136022E+02  0.7818608E-02  0.1325235E+00
          2   -1    0    0  501    0  0.00000000000E+00  0.00000000000E+00  0.87646633742E+03  0.87646633742E+03  0.25500000000E-02 0. -1.
         -1   -1    0    0    0  501 -0.00000000000E+00 -0.00000000000E+00 -0.18881139146E+01  0.18881206413E+01  0.50400000000E-02 0.  1.
         24    2    1    2    0    0  0.35527136788E-14  0.00000000000E+00  0.87457822350E+03  0.87835445806E+03  0.81360217385E+02 0.  0.
         66    2    3    3    0    0 -0.30555623061E+02 -0.13051405480E+02  0.69048055303E+03  0.69128241653E+03  0.20000012728E+01 0.  0.
        -13    1    3    3    0    0  0.30555623061E+02  0.13051405480E+02  0.18409767048E+03  0.18707204154E+03  0.10566000000E+00 0.  1.
         13    1    4    4    0    0 -0.17939421197E+02 -0.78539231209E+01  0.41683308252E+03  0.41729286693E+03  0.10566000000E+00 0. -1.
        -13    1    4    4    0    0 -0.65997489985E+01 -0.32898721141E+01  0.14847227659E+03  0.14865533299E+03  0.10566000000E+00 0.  1.
        -14    1    4    4    0    0 -0.60164528653E+01 -0.19076102447E+01  0.12517519391E+03  0.12533421661E+03  0.00000000000E+00 0.  1.
<mgrwt>
<rscale>  0 0.81360217E+02</rscale>
<asrwt>0</asrwt>
<pdfrwt beam="1">  1        2 0.13484075E+00 0.81360217E+02</pdfrwt>
<pdfrwt beam="2">  1       -1 0.29048007E-03 0.81360217E+02</pdfrwt>
<totfact> 0.33344174E+05</totfact>
</mgrwt>
</event>
<event>
 8    1  0.1226832E-020  0.8137803E+02  0.7818608E-02  0.1325186E+00
          2   -1    0    0  501    0  0.00000000000E+00  0.00000000000E+00  0.40963003838E+02  0.40963003917E+02  0.25500000000E-02 0. -1.
         -1   -1    0    0    0  501 -0.00000000000E+00 -0.00000000000E+00 -0.40416858948E+02  0.40416859262E+02  0.50400000000E-02 0.  1.
         24    2    1    2    0    0 -0.35527136788E-14 -0.22204460493E-15  0.54614488993E+00  0.81379863179E+02  0.81378030554E+02 0.  0.
         66    2    3    3    0    0 -0.30332275287E+02 -0.13429660886E+01  0.27324548463E+02  0.40895983129E+02  0.20000013423E+01 0.  0.
        -13    1    3    3    0    0  0.30332275287E+02  0.13429660886E+01 -0.26778403573E+02  0.40483880050E+02  0.10566000000E+00 0.  1.
         13    1    4    4    0    0 -0.58844120106E+01  0.12662415021E+00  0.49181452332E+01  0.76708314383E+01  0.10566000000E+00 0. -1.
        -13    1    4    4    0    0 -0.23076568311E+01 -0.63014632192E-01  0.16055973498E+01  0.28139576720E+01  0.10566000000E+00 0.  1.
         14    1    4    4    0    0 -0.22140206445E+02 -0.14065756066E+01  0.20800805880E+02  0.30411194018E+02  0.00000000000E+00 0. -1.
<mgrwt>
<rscale>  0 0.81378031E+02</rscale>
<asrwt>0</asrwt>
<pdfrwt beam="1">  1        2 0.63020006E-02 0.81378031E+02</pdfrwt>
<pdfrwt beam="2">  1       -1 0.62179783E-02 0.81378031E+02</pdfrwt>
<totfact> 0.13664476E+05</totfact>
</mgrwt>
</event>
<event>
 8    1  0.1226832E-020  0.8025314E+02  0.7818608E-02  0.1328335E+00
          2   -1    0    0  501    0  0.00000000000E+00  0.00000000000E+00  0.24596867218E+03  0.24596867220E+03  0.25500000000E-02 0. -1.
         -1   -1    0    0    0  501 -0.00000000000E+00 -0.00000000000E+00 -0.65461245138E+01  0.65461264540E+01  0.50400000000E-02 0.  1.
         24    2    1    2    0    0  0.00000000000E+00  0.00000000000E+00  0.23942254767E+03  0.25251479865E+03  0.80253144518E+02 0.  0.
         66    2    3    3    0    0  0.24219539570E+02 -0.21088882442E+02  0.19535396361E+03  0.19798610598E+03  0.20000005732E+01 0.  0.
        -13    1    3    3    0    0 -0.24219539570E+02  0.21088882442E+02  0.44068584060E+02  0.54528692674E+02  0.10566000000E+00 0.  1.
         13    1    4    4    0    0  0.77755127156E+01 -0.70840261371E+01  0.65939775227E+02  0.66773551241E+02  0.10566000000E+00 0. -1.
        -13    1    4    4    0    0  0.14684328619E+02 -0.11897321472E+02  0.11387454478E+03  0.11543222634E+03  0.10566000000E+00 0.  1.
        -14    1    4    4    0    0  0.17596982356E+01 -0.21075348334E+01  0.15539643602E+02  0.15780328394E+02  0.00000000000E+00 0.  1.
<mgrwt>
<rscale>  0 0.80253145E+02</rscale>
<asrwt>0</asrwt>
<pdfrwt beam="1">  1        2 0.37841328E-01 0.80253145E+02</pdfrwt>
<pdfrwt beam="2">  1       -1 0.10070964E-02 0.80253145E+02</pdfrwt>
<totfact> 0.23533525E+05</totfact>
</mgrwt>
</event>
<event>
 8    1  0.1226832E-020  0.7782401E+02  0.7818608E-02  0.1335342E+00
         -1   -1    0    0    0  501 -0.00000000000E+00  0.00000000000E+00  0.62028344324E+01  0.62028364800E+01  0.50400000000E-02 0.  1.
          2   -1    0    0  501    0  0.00000000000E+00 -0.00000000000E+00 -0.24410515777E+03  0.24410515778E+03  0.25500000000E-02 0. -1.
         24    2    1    2    0    0 -0.17763568394E-14  0.00000000000E+00 -0.23790232334E+03  0.25030799426E+03  0.77824010066E+02 0.  0.
         66    2    3    3    0    0 -0.93979479621E+01 -0.10227025412E+02 -0.23585043599E+03  0.23626752132E+03  0.20000007220E+01 0.  0.
        -13    1    3    3    0    0  0.93979479621E+01  0.10227025412E+02 -0.20518873535E+01  0.14040472942E+02  0.10566000000E+00 0.  1.
         13    1    4    4    0    0 -0.33451984083E+01 -0.33349153123E+01 -0.85908835537E+02  0.86038661077E+02  0.10566000000E+00 0. -1.
        -13    1    4    4    0    0 -0.30729245817E+00 -0.38726572681E-01 -0.71426725441E+01  0.71501652785E+01  0.10566000000E+00 0.  1.
         14    1    4    4    0    0 -0.57454570956E+01 -0.68533835273E+01 -0.14279892790E+03  0.14307869497E+03  0.00000000000E+00 0. -1.
<mgrwt>
<rscale>  0 0.77824010E+02</rscale>
<asrwt>0</asrwt>
<pdfrwt beam="1">  1        2 0.37554632E-01 0.77824010E+02</pdfrwt>
<pdfrwt beam="2">  1       -1 0.95428257E-03 0.77824010E+02</pdfrwt>
<totfact> 0.25442992E+05</totfact>
</mgrwt>
</event>
<event>
 8    1  0.1381200E-020  0.7844309E+02  0.7818608E-02  0.1333529E+00
         -1   -1    0    0    0  501 -0.00000000000E+00  0.00000000000E+00  0.90118109701E+02  0.90118109842E+02  0.50400000000E-02 0.  1.
          2   -1    0    0  501    0  0.00000000000E+00 -0.00000000000E+00 -0.17070150037E+02  0.17070150228E+02  0.25500000000E-02 0. -1.
         24    2    1    2    0    0  0.17763568394E-14  0.00000000000E+00  0.73047959663E+02  0.10718826007E+03  0.78443092021E+02 0.  0.
         66    2    3    3    0    0 -0.84106260287E+01  0.35777086201E+02  0.17932556589E+02  0.40942827417E+02  0.20000009531E+01 0.  0.
        -13    1    3    3    0    0  0.84106260287E+01 -0.35777086201E+02  0.55115403074E+02  0.66245432653E+02  0.10566000000E+00 0.  1.
         13    1    4    4    0    0 -0.40208983136E+01  0.17957327489E+02  0.90091403012E+01  0.20489241245E+02  0.10566000000E+00 0. -1.
        -13    1    4    4    0    0 -0.35199011801E+01  0.12553702659E+02  0.58069446579E+01  0.14272943812E+02  0.10566000000E+00 0.  1.
        -14    1    4    4    0    0 -0.86982653504E+00  0.52660560527E+01  0.31164716297E+01  0.61806423590E+01  0.00000000000E+00 0.  1.
<mgrwt>
<rscale>  0 0.78443092E+02</rscale>
<asrwt>0</asrwt>
<pdfrwt beam="1">  1        2 0.26261769E-02 0.78443092E+02</pdfrwt>
<pdfrwt beam="2">  1       -1 0.13864325E-01 0.78443092E+02</pdfrwt>
<totfact> 0.12721744E+05</totfact>
</mgrwt>
</event>
<event>
 8    1  0.1226832E-020  0.8035311E+02  0.7818608E-02  0.1328052E+00
          2   -1    0    0  501    0  0.00000000000E+00  0.00000000000E+00  0.10384997233E+04  0.10384997233E+04  0.25500000000E-02 0. -1.
         -1   -1    0    0    0  501 -0.00000000000E+00 -0.00000000000E+00 -0.15543108053E+01  0.15543189766E+01  0.50400000000E-02 0.  1.
         24    2    1    2    0    0  0.00000000000E+00  0.00000000000E+00  0.10369454125E+04  0.10400540423E+04  0.80353110509E+02 0.  0.
         66    2    3    3    0    0  0.17131886609E+02  0.19425418149E+02  0.91590934865E+03  0.91627767812E+03  0.20000176332E+01 0.  0.
        -13    1    3    3    0    0 -0.17131886609E+02 -0.19425418149E+02  0.12103606382E+03  0.12377636414E+03  0.10566000000E+00 0.  1.
         13    1    4    4    0    0  0.75705321775E+01  0.84708633827E+01  0.38063565453E+03  0.38080517479E+03  0.10566000000E+00 0.  1.
        -13    1    4    4    0    0  0.95948114275E+01  0.10874804030E+02  0.53251805973E+03  0.53271551214E+03  0.10566000000E+00 0. -1.
        -14    1    4    4    0    0 -0.33456996491E-01  0.79750736078E-01  0.27556343877E+01  0.27569911913E+01  0.00000000000E+00 0.  1.
<mgrwt>
<rscale>  0 0.80353111E+02</rscale>
<asrwt>0</asrwt>
<pdfrwt beam="1">  1        2 0.15976993E+00 0.80353111E+02</pdfrwt>
<pdfrwt beam="2">  1       -1 0.23912426E-03 0.80353111E+02</pdfrwt>
<totfact> 0.34867703E+05</totfact>
</mgrwt>
</event>
<event>
 8    1  0.1226832E-020  0.7903345E+02  0.7818608E-02  0.1331817E+00
          2   -1    0    0  501    0  0.00000000000E+00  0.00000000000E+00  0.26856649599E+02  0.26856649720E+02  0.25500000000E-02 0. -1.
         -1   -1    0    0    0  501 -0.00000000000E+00 -0.00000000000E+00 -0.58144690082E+02  0.58144690300E+02  0.50400000000E-02 0.  1.
         24    2    1    2    0    0  0.17763568394E-14 -0.17763568394E-14 -0.31288040483E+02  0.85001340020E+02  0.79033450690E+02 0.  0.
         66    2    3    3    0    0  0.14654440717E+02 -0.89541410324E+01  0.22593029660E+02  0.28449503992E+02  0.20000034538E+01 0.  0.
        -13    1    3    3    0    0 -0.14654440717E+02  0.89541410324E+01 -0.53881070143E+02  0.56551836028E+02  0.10566000000E+00 0.  1.
         13    1    4    4    0    0  0.39307691444E+01 -0.23623187843E+01  0.72273916929E+01  0.85602482922E+01  0.10566000000E+00 0. -1.
        -13    1    4    4    0    0  0.22370941687E+01 -0.13132227720E+01  0.25705512565E+01  0.36534972515E+01  0.10566000000E+00 0.  1.
        -14    1    4    4    0    0  0.84865774042E+01 -0.52785994761E+01  0.12795086710E+02  0.16235758448E+02  0.00000000000E+00 0.  1.
<mgrwt>
<rscale>  0 0.79033451E+02</rscale>
<asrwt>0</asrwt>
<pdfrwt beam="1">  1        2 0.41317923E-02 0.79033451E+02</pdfrwt>
<pdfrwt beam="2">  1       -1 0.89453370E-02 0.79033451E+02</pdfrwt>
<totfact> 0.13623596E+05</totfact>
</mgrwt>
</event>
<event>
 8    1  0.1226832E-020  0.8105648E+02  0.7818608E-02  0.1326080E+00
          2   -1    0    0  501    0  0.00000000000E+00  0.00000000000E+00  0.15140892382E+02  0.15140892596E+02  0.25500000000E-02 0. -1.
         -1   -1    0    0    0  501 -0.00000000000E+00 -0.00000000000E+00 -0.10848357469E+03  0.10848357481E+03  0.50400000000E-02 0.  1.
         24    2    1    2    0    0 -0.88817841970E-15  0.71054273576E-14 -0.93342682312E+02  0.12362446741E+03  0.81056477844E+02 0.  0.
         66    2    3    3    0    0 -0.70049426221E+01  0.39744303261E+02 -0.41448520873E+02  0.57884874936E+02  0.20000002369E+01 0.  0.
        -13    1    3    3    0    0  0.70049426221E+01 -0.39744303261E+02 -0.51894161440E+02  0.65739592472E+02  0.10566000000E+00 0.  1.
         13    1    4    4    0    0 -0.36151060245E+01  0.24832311922E+02 -0.25897620670E+02  0.36061206682E+02  0.10566000000E+00 0. -1.
        -13    1    4    4    0    0 -0.57144957703E+00  0.15966951005E+01 -0.16159001991E+01  0.23448427137E+01  0.10566000000E+00 0.  1.
        -14    1    4    4    0    0 -0.28183870206E+01  0.13315296238E+02 -0.13935000004E+02  0.19478825540E+02  0.00000000000E+00 0.  1.
<mgrwt>
<rscale>  0 0.81056478E+02</rscale>
<asrwt>0</asrwt>
<pdfrwt beam="1">  1        2 0.23293681E-02 0.81056478E+02</pdfrwt>
<pdfrwt beam="2">  1       -1 0.16689780E-01 0.81056478E+02</pdfrwt>
<totfact> 0.11269378E+05</totfact>
</mgrwt>
</event>
<event>
 8    1  0.1226832E-020  0.7657806E+02  0.7818608E-02  0.1339053E+00
          2   -1    0    0  501    0  0.00000000000E+00  0.00000000000E+00  0.13465540637E+03  0.13465540639E+03  0.25500000000E-02 0. -1.
         -1   -1    0    0    0  501 -0.00000000000E+00 -0.00000000000E+00 -0.10887417371E+02  0.10887418538E+02  0.50400000000E-02 0.  1.
         24    2    1    2    0    0  0.00000000000E+00  0.00000000000E+00  0.12376798900E+03  0.14554282493E+03  0.76578056834E+02 0.  0.
         66    2    3    3    0    0  0.35876257153E+02 -0.11009384209E+02  0.76114716255E+02  0.84886762290E+02  0.20000033768E+01 0.  0.
        -13    1    3    3    0    0 -0.35876257153E+02  0.11009384209E+02  0.47653272743E+02  0.60656062641E+02  0.10566000000E+00 0.  1.
         13    1    4    4    0    0  0.17076866345E+02 -0.49312574088E+01  0.35817111848E+02  0.39985163860E+02  0.10566000000E+00 0. -1.
        -13    1    4    4    0    0  0.14471336054E+02 -0.45302296240E+01  0.32150687812E+02  0.35547439267E+02  0.10566000000E+00 0.  1.
         14    1    4    4    0    0  0.43280547547E+01 -0.15478971766E+01  0.81469165953E+01  0.93541591626E+01  0.00000000000E+00 0. -1.
<mgrwt>
<rscale>  0 0.76578057E+02</rscale>
<asrwt>0</asrwt>
<pdfrwt beam="1">  1        2 0.20716218E-01 0.76578057E+02</pdfrwt>
<pdfrwt beam="2">  1       -1 0.16749872E-02 0.76578057E+02</pdfrwt>
<totfact> 0.21736848E+05</totfact>
</mgrwt>
</event>
<event>
 8    1  0.1226832E-020  0.8000371E+02  0.7818608E-02  0.1329041E+00
         -1   -1    0    0    0  501 -0.00000000000E+00  0.00000000000E+00  0.13974638932E+03  0.13974638941E+03  0.50400000000E-02 0.  1.
          2   -1    0    0  501    0  0.00000000000E+00 -0.00000000000E+00 -0.11450374412E+02  0.11450374695E+02  0.25500000000E-02 0. -1.
         24    2    1    2    0    0  0.17763568394E-14 -0.35527136788E-14  0.12829601491E+03  0.15119676411E+03  0.80003712632E+02 0.  0.
         66    2    3    3    0    0  0.14865363469E+02 -0.30831861449E+02  0.25155799633E+02  0.42525250439E+02  0.19999895806E+01 0.  0.
        -13    1    3    3    0    0 -0.14865363469E+02  0.30831861449E+02  0.10314021528E+03  0.10867151367E+03  0.10566000000E+00 0.  1.
         13    1    4    4    0    0  0.11427171657E+02 -0.23338521661E+02  0.18127560788E+02  0.31684167491E+02  0.10566000000E+00 0. -1.
        -13    1    4    4    0    0  0.28637509510E+01 -0.59215339682E+01  0.57040486375E+01  0.87070643124E+01  0.10566000000E+00 0.  1.
         14    1    4    4    0    0  0.57444086086E+00 -0.15718058198E+01  0.13241902066E+01  0.21340186365E+01  0.00000000000E+00 0. -1.
<mgrwt>
<rscale>  0 0.80003713E+02</rscale>
<asrwt>0</asrwt>
<pdfrwt beam="1">  1        2 0.17615960E-02 0.80003713E+02</pdfrwt>
<pdfrwt beam="2">  1       -1 0.21499446E-01 0.80003713E+02</pdfrwt>
<totfact> 0.10978898E+05</totfact>
</mgrwt>
</event>
<event>
 8    1  0.1226832E-020  0.8077681E+02  0.7818608E-02  0.1326861E+00
          2   -1    0    0  501    0  0.00000000000E+00  0.00000000000E+00  0.31961033270E+03  0.31961033271E+03  0.25500000000E-02 0. -1.
         -1   -1    0    0    0  501 -0.00000000000E+00 -0.00000000000E+00 -0.51037859081E+01  0.51037883966E+01  0.50400000000E-02 0.  1.
         24    2    1    2    0    0  0.00000000000E+00  0.00000000000E+00  0.31450654679E+03  0.32471412110E+03  0.80776806517E+02 0.  0.
         66    2    3    3    0    0  0.22863252846E+02  0.55015651954E+01  0.28922534052E+03  0.29018665226E+03  0.20000000753E+01 0.  0.
        -13    1    3    3    0    0 -0.22863252846E+02 -0.55015651954E+01  0.25281206266E+02  0.34527468842E+02  0.10566000000E+00 0.  1.
         13    1    4    4    0    0  0.59264962721E+01  0.18323323817E+01  0.78159202634E+02  0.78405056727E+02  0.10566000000E+00 0. -1.
        -13    1    4    4    0    0  0.14005994575E+02  0.28457085702E+01  0.18006745578E+03  0.18063378902E+03  0.10566000000E+00 0.  1.
        -14    1    4    4    0    0  0.29307619996E+01  0.82352424347E+00  0.30998682107E+02  0.31147806511E+02  0.00000000000E+00 0.  1.
<mgrwt>
<rscale>  0 0.80776807E+02</rscale>
<asrwt>0</asrwt>
<pdfrwt beam="1">  1        2 0.49170826E-01 0.80776807E+02</pdfrwt>
<pdfrwt beam="2">  1       -1 0.78519794E-03 0.80776807E+02</pdfrwt>
<totfact> 0.25432460E+05</totfact>
</mgrwt>
</event>
<event>
 8    1  0.1226832E-020  0.8193009E+02  0.7818608E-02  0.1323662E+00
          2   -1    0    0  501    0  0.00000000000E+00  0.00000000000E+00  0.47291783039E+01  0.47291789914E+01  0.25500000000E-02 0. -1.
         -1   -1    0    0    0  501 -0.00000000000E+00 -0.00000000000E+00 -0.35484696952E+03  0.35484696956E+03  0.50400000000E-02 0.  1.
         24    2    1    2    0    0  0.00000000000E+00 -0.35527136788E-14 -0.35011779122E+03  0.35957614855E+03  0.81930085305E+02 0.  0.
         66    2    3    3    0    0  0.26155530984E+02  0.25966658668E+02 -0.25339603947E+03  0.25607017004E+03  0.19999994779E+01 0.  0.
        -13    1    3    3    0    0 -0.26155530984E+02 -0.25966658668E+02 -0.96721751746E+02  0.10350597851E+03  0.10566000000E+00 0.  1.
         13    1    4    4    0    0  0.17295255144E+02  0.17532838627E+02 -0.16876251982E+03  0.17055006755E+03  0.10566000000E+00 0. -1.
        -13    1    4    4    0    0  0.34176763247E+01  0.39989869347E+01 -0.36458092754E+02  0.36835799153E+02  0.10566000000E+00 0.  1.
        -14    1    4    4    0    0  0.54425995156E+01  0.44348331062E+01 -0.48175426900E+02  0.48684303334E+02  0.00000000000E+00 0.  1.
<mgrwt>
<rscale>  0 0.81930085E+02</rscale>
<asrwt>0</asrwt>
<pdfrwt beam="1">  1        2 0.72756623E-03 0.81930085E+02</pdfrwt>
<pdfrwt beam="2">  1       -1 0.54591821E-01 0.81930085E+02</pdfrwt>
<totfact> 0.75586376E+04</totfact>
</mgrwt>
</event>
<event>
 8    1  0.1226832E-020  0.7625104E+02  0.7818608E-02  0.1340040E+00
          2   -1    0    0  501    0  0.00000000000E+00  0.00000000000E+00  0.73428840095E+01  0.73428844522E+01  0.25500000000E-02 0. -1.
         -1   -1    0    0    0  501 -0.00000000000E+00 -0.00000000000E+00 -0.19795427485E+03  0.19795427492E+03  0.50400000000E-02 0.  1.
         24    2    1    2    0    0 -0.35527136788E-14  0.35527136788E-14 -0.19061139084E+03  0.20529715937E+03  0.76251041473E+02 0.  0.
         66    2    3    3    0    0  0.23982109060E+02 -0.20375563398E+02 -0.37547743962E+02  0.49032011945E+02  0.19999950129E+01 0.  0.
        -13    1    3    3    0    0 -0.23982109060E+02  0.20375563398E+02 -0.15306364688E+03  0.15626514742E+03  0.10566000000E+00 0.  1.
         13    1    4    4    0    0  0.12600643300E+02 -0.10330004680E+02 -0.20322533857E+02  0.26048066237E+02  0.10566000000E+00 0. -1.
        -13    1    4    4    0    0  0.95881134796E+00 -0.56543700314E+00 -0.14892952861E+01  0.18623111154E+01  0.10566000000E+00 0.  1.
         14    1    4    4    0    0  0.10422654411E+02 -0.94801217149E+01 -0.15735914818E+02  0.21121634593E+02  0.00000000000E+00 0. -1.
<mgrwt>
<rscale>  0 0.76251041E+02</rscale>
<asrwt>0</asrwt>
<pdfrwt beam="1">  1        2 0.11296746E-02 0.76251041E+02</pdfrwt>
<pdfrwt beam="2">  1       -1 0.30454500E-01 0.76251041E+02</pdfrwt>
<totfact> 0.11288049E+05</totfact>
</mgrwt>
</event>
<event>
 8    1  0.1226832E-020  0.8603798E+02  0.7818608E-02  0.1312740E+00
         -1   -1    0    0    0  501 -0.00000000000E+00  0.00000000000E+00  0.28761046583E+01  0.28761090743E+01  0.50400000000E-02 0.  1.
          2   -1    0    0  501    0  0.00000000000E+00 -0.00000000000E+00 -0.64345089878E+03  0.64345089879E+03  0.25500000000E-02 0. -1.
         24    2    1    2    0    0  0.00000000000E+00  0.00000000000E+00 -0.64057479413E+03  0.64632700786E+03  0.86037981290E+02 0.  0.
         66    2    3    3    0    0 -0.71421054168E+01  0.23457941553E+02 -0.58577093749E+03  0.58628736631E+03  0.19999987202E+01 0.  0.
        -13    1    3    3    0    0  0.71421054168E+01 -0.23457941553E+02 -0.54803856637E+02  0.60039641555E+02  0.10566000000E+00 0.  1.
         13    1    4    4    0    0 -0.44426794005E+01  0.11826935891E+02 -0.28874624924E+03  0.28902252755E+03  0.10566000000E+00 0. -1.
        -13    1    4    4    0    0 -0.22122631764E+01  0.94578180322E+01 -0.23795900356E+03  0.23815718123E+03  0.10566000000E+00 0.  1.
         14    1    4    4    0    0 -0.48716283998E+00  0.21731876307E+01 -0.59065684680E+02  0.59107657531E+02  0.00000000000E+00 0. -1.
<mgrwt>
<rscale>  0 0.86037981E+02</rscale>
<asrwt>0</asrwt>
<pdfrwt beam="1">  1        2 0.98992332E-01 0.86037981E+02</pdfrwt>
<pdfrwt beam="2">  1       -1 0.44247849E-03 0.86037981E+02</pdfrwt>
<totfact> 0.27103396E+05</totfact>
</mgrwt>
</event>
<event>
 8    1  0.1226832E-020  0.7863123E+02  0.7818608E-02  0.1332981E+00
         -1   -1    0    0    0  501 -0.00000000000E+00  0.00000000000E+00  0.38515991318E+01  0.38516024294E+01  0.50400000000E-02 0.  1.
          2   -1    0    0  501    0  0.00000000000E+00 -0.00000000000E+00 -0.40131823798E+03  0.40131823799E+03  0.25500000000E-02 0. -1.
         24    2    1    2    0    0  0.35527136788E-14 -0.17763568394E-14 -0.39746663885E+03  0.40516984042E+03  0.78631231624E+02 0.  0.
         66    2    3    3    0    0  0.26312588589E+02 -0.11794354769E+02 -0.33637946968E+03  0.33761902603E+03  0.19999991451E+01 0.  0.
        -13    1    3    3    0    0 -0.26312588589E+02  0.11794354769E+02 -0.61087169175E+02  0.67550814389E+02  0.10566000000E+00 0.  1.
         13    1    4    4    0    0  0.49847039116E+01 -0.16034187478E+01 -0.58051944682E+02  0.58287714573E+02  0.10566000000E+00 0. -1.
        -13    1    4    4    0    0  0.31514813414E+01 -0.11453645904E+01 -0.38271147977E+02  0.38417907623E+02  0.10566000000E+00 0.  1.
         14    1    4    4    0    0  0.18176403336E+02 -0.90455714307E+01 -0.24005637702E+03  0.24091340383E+03  0.00000000000E+00 0. -1.
<mgrwt>
<rscale>  0 0.78631232E+02</rscale>
<asrwt>0</asrwt>
<pdfrwt beam="1">  1        2 0.61741234E-01 0.78631232E+02</pdfrwt>
<pdfrwt beam="2">  1       -1 0.59255429E-03 0.78631232E+02</pdfrwt>
<totfact> 0.29589256E+05</totfact>
</mgrwt>
</event>
<event>
 8    1  0.1226832E-020  0.7906146E+02  0.7818608E-02  0.1331736E+00
          2   -1    0    0  501    0  0.00000000000E+00  0.00000000000E+00  0.12383845459E+04  0.12383845459E+04  0.25500000000E-02 0. -1.
         -1   -1    0    0    0  501 -0.00000000000E+00 -0.00000000000E+00 -0.12618636649E+01  0.12618737299E+01  0.50400000000E-02 0.  1.
         24    2    1    2    0    0  0.00000000000E+00  0.00000000000E+00  0.12371226823E+04  0.12396464197E+04  0.79061462213E+02 0.  0.
         66    2    3    3    0    0 -0.76288972721E+01 -0.18701202899E+02  0.11513074987E+04  0.11514863836E+04  0.19999999033E+01 0.  0.
        -13    1    3    3    0    0  0.76288972721E+01  0.18701202899E+02  0.85815183569E+02  0.88160036062E+02  0.10566000000E+00 0.  1.
         13    1    4    4    0    0 -0.27624899279E+01 -0.58287853137E+01  0.35399201761E+03  0.35405079549E+03  0.10566000000E+00 0. -1.
        -13    1    4    4    0    0 -0.34280127560E+01 -0.89602553552E+01  0.51533694612E+03  0.51542624753E+03  0.10566000000E+00 0.  1.
         14    1    4    4    0    0 -0.14383945883E+01 -0.39121622304E+01  0.28197853497E+03  0.28200934058E+03  0.00000000000E+00 0. -1.
<mgrwt>
<rscale>  0 0.79061462E+02</rscale>
<asrwt>0</asrwt>
<pdfrwt beam="1">  1        2 0.19052087E+00 0.79061462E+02</pdfrwt>
<pdfrwt beam="2">  1       -1 0.19413347E-03 0.79061462E+02</pdfrwt>
<totfact> 0.35984704E+05</totfact>
</mgrwt>
</event>
<event>
 8    1  0.1226832E-020  0.7808169E+02  0.7818608E-02  0.1334585E+00
          2   -1    0    0  501    0  0.00000000000E+00  0.00000000000E+00  0.26359757911E+03  0.26359757912E+03  0.25500000000E-02 0. -1.
         -1   -1    0    0    0  501 -0.00000000000E+00 -0.00000000000E+00 -0.57822509857E+01  0.57822531822E+01  0.50400000000E-02 0.  1.
         24    2    1    2    0    0  0.00000000000E+00  0.00000000000E+00  0.25781532812E+03  0.26937983230E+03  0.78081692070E+02 0.  0.
         66    2    3    3    0    0 -0.18886592389E+02  0.23160669932E+02  0.21552123235E+03  0.21759255872E+03  0.20000033494E+01 0.  0.
        -13    1    3    3    0    0  0.18886592389E+02 -0.23160669932E+02  0.42294095772E+02  0.51787273581E+02  0.10566000000E+00 0.  1.
         13    1    4    4    0    0 -0.46731245524E+01  0.49246767735E+01  0.47671928299E+02  0.48153031537E+02  0.10566000000E+00 0. -1.
        -13    1    4    4    0    0 -0.13969914485E+02  0.18130948423E+02  0.16549611485E+03  0.16707143680E+03  0.10566000000E+00 0.  1.
        -14    1    4    4    0    0 -0.24355335202E+00  0.10504473556E+00  0.23531891979E+01  0.23680903768E+01  0.00000000000E+00 0.  1.
<mgrwt>
<rscale>  0 0.78081692E+02</rscale>
<asrwt>0</asrwt>
<pdfrwt beam="1">  1        2 0.40553475E-01 0.78081692E+02</pdfrwt>
<pdfrwt beam="2">  1       -1 0.88957721E-03 0.78081692E+02</pdfrwt>
<totfact> 0.25927179E+05</totfact>
</mgrwt>
</event>
<event>
 8    1  0.1226832E-020  0.7833143E+02  0.7818608E-02  0.1333854E+00
          2   -1    0    0  501    0  0.00000000000E+00  0.00000000000E+00  0.70642724191E+03  0.70642724192E+03  0.25500000000E-02 0. -1.
         -1   -1    0    0    0  501 -0.00000000000E+00 -0.00000000000E+00 -0.21714214517E+01  0.21714273007E+01  0.50400000000E-02 0.  1.
         24    2    1    2    0    0  0.00000000000E+00 -0.17763568394E-14  0.70425582046E+03  0.70859866922E+03  0.78331432799E+02 0.  0.
         66    2    3    3    0    0 -0.34717811165E+02 -0.10262514087E+02  0.48692975711E+03  0.48827782458E+03  0.20000018176E+01 0.  0.
        -13    1    3    3    0    0  0.34717811165E+02  0.10262514087E+02  0.21732606335E+03  0.22032084464E+03  0.10566000000E+00 0.  1.
         13    1    4    4    0    0 -0.60041559652E+01 -0.21013835140E+01  0.82724518682E+02  0.82968806528E+02  0.10566000000E+00 0. -1.
        -13    1    4    4    0    0 -0.24197189193E+01 -0.25695669384E+00  0.32895298235E+02  0.32985343357E+02  0.10566000000E+00 0.  1.
         14    1    4    4    0    0 -0.26293936281E+02 -0.79041738790E+01  0.37130994019E+03  0.37232367469E+03  0.00000000000E+00 0. -1.
<mgrwt>
<rscale>  0 0.78331433E+02</rscale>
<asrwt>0</asrwt>
<pdfrwt beam="1">  1        2 0.10868120E+00 0.78331433E+02</pdfrwt>
<pdfrwt beam="2">  1       -1 0.33406502E-03 0.78331433E+02</pdfrwt>
<totfact> 0.35407009E+05</totfact>
</mgrwt>
</event>
<event>
 8    1  0.1226832E-020  0.7091423E+02  0.7818608E-02  0.1357011E+00
          2   -1    0    0  501    0  0.00000000000E+00  0.00000000000E+00  0.49749025081E+02  0.49749025146E+02  0.25500000000E-02 0. -1.
         -1   -1    0    0    0  501 -0.00000000000E+00 -0.00000000000E+00 -0.25270984592E+02  0.25270985094E+02  0.50400000000E-02 0.  1.
         24    2    1    2    0    0  0.00000000000E+00  0.44408920985E-15  0.24478040489E+02  0.75020010240E+02  0.70914226149E+02 0.  0.
         66    2    3    3    0    0 -0.13627956651E+02 -0.31506382339E+01  0.46684147114E+02  0.48775581132E+02  0.19999998027E+01 0.  0.
        -13    1    3    3    0    0  0.13627956651E+02  0.31506382339E+01 -0.22206106625E+02  0.26244429109E+02  0.10566000000E+00 0.  1.
         13    1    4    4    0    0 -0.50710172633E+01 -0.58341511579E+00  0.15401545106E+02  0.16225730953E+02  0.10566000000E+00 0. -1.
        -13    1    4    4    0    0 -0.25203867420E+01 -0.88542761655E+00  0.11063483245E+02  0.11381922375E+02  0.10566000000E+00 0.  1.
         14    1    4    4    0    0 -0.60365526453E+01 -0.16817955016E+01  0.20219118763E+02  0.21167927804E+02  0.00000000000E+00 0. -1.
<mgrwt>
<rscale>  0 0.70914226E+02</rscale>
<asrwt>0</asrwt>
<pdfrwt beam="1">  1        2 0.76536962E-02 0.70914226E+02</pdfrwt>
<pdfrwt beam="2">  1       -1 0.38878439E-02 0.70914226E+02</pdfrwt>
<totfact> 0.20702516E+05</totfact>
</mgrwt>
</event>
<event>
 8    1  0.1226832E-020  0.8000392E+02  0.7818608E-02  0.1329040E+00
          2   -1    0    0  501    0  0.00000000000E+00  0.00000000000E+00  0.56404980967E+02  0.56404981025E+02  0.25500000000E-02 0. -1.
         -1   -1    0    0    0  501 -0.00000000000E+00 -0.00000000000E+00 -0.28369067486E+02  0.28369067934E+02  0.50400000000E-02 0.  1.
         24    2    1    2    0    0  0.00000000000E+00  0.00000000000E+00  0.28035913482E+02  0.84774048959E+02  0.80003918230E+02 0.  0.
         66    2    3    3    0    0  0.11235825384E+02 -0.12110213466E+02  0.52601227268E+02  0.55170555115E+02  0.19999998222E+01 0.  0.
        -13    1    3    3    0    0 -0.11235825384E+02  0.12110213466E+02 -0.24565313787E+02  0.29603493844E+02  0.10566000000E+00 0.  1.
         13    1    4    4    0    0  0.36104418245E+01 -0.45208127866E+01  0.19344531399E+02  0.20191461005E+02  0.10566000000E+00 0. -1.
        -13    1    4    4    0    0  0.32003032030E+01 -0.39713723399E+01  0.14533224237E+02  0.15402581264E+02  0.10566000000E+00 0.  1.
         14    1    4    4    0    0  0.44250803566E+01 -0.36180283399E+01  0.18723471633E+02  0.19576512846E+02  0.00000000000E+00 0. -1.
<mgrwt>
<rscale>  0 0.80003918E+02</rscale>
<asrwt>0</asrwt>
<pdfrwt beam="1">  1        2 0.86776893E-02 0.80003918E+02</pdfrwt>
<pdfrwt beam="2">  1       -1 0.43644720E-02 0.80003918E+02</pdfrwt>
<totfact> 0.15345871E+05</totfact>
</mgrwt>
</event>
<event>
 8    1  0.1226832E-020  0.7866787E+02  0.7818608E-02  0.1332875E+00
         -1   -1    0    0    0  501 -0.00000000000E+00  0.00000000000E+00  0.33109891469E+02  0.33109891852E+02  0.50400000000E-02 0.  1.
          2   -1    0    0  501    0  0.00000000000E+00 -0.00000000000E+00 -0.46727978272E+02  0.46727978341E+02  0.25500000000E-02 0. -1.
         24    2    1    2    0    0 -0.35527136788E-14  0.00000000000E+00 -0.13618086803E+02  0.79837870194E+02  0.78667866558E+02 0.  0.
         66    2    3    3    0    0  0.19732528604E+02 -0.27544698636E+02 -0.27036416643E+02  0.43394134823E+02  0.20000010194E+01 0.  0.
        -13    1    3    3    0    0 -0.19732528604E+02  0.27544698636E+02  0.13418329840E+02  0.36443735371E+02  0.10566000000E+00 0.  1.
         13    1    4    4    0    0  0.12012157143E+02 -0.17572042382E+02 -0.17236971388E+02  0.27389650224E+02  0.10566000000E+00 0. -1.
        -13    1    4    4    0    0  0.21472384517E+01 -0.32173544220E+01 -0.25325657476E+01  0.46246141187E+01  0.10566000000E+00 0.  1.
        -14    1    4    4    0    0  0.55731330095E+01 -0.67553018317E+01 -0.72668795070E+01  0.11379870480E+02  0.00000000000E+00 0.  1.
<mgrwt>
<rscale>  0 0.78667867E+02</rscale>
<asrwt>0</asrwt>
<pdfrwt beam="1">  1        2 0.71889197E-02 0.78667867E+02</pdfrwt>
<pdfrwt beam="2">  1       -1 0.50938295E-02 0.78667867E+02</pdfrwt>
<totfact> 0.15420815E+05</totfact>
</mgrwt>
</event>
<event>
 8    1  0.1226832E-020  0.8029496E+02  0.7818608E-02  0.1328216E+00
          2   -1    0    0  501    0  0.00000000000E+00  0.00000000000E+00  0.19814635832E+02  0.19814635996E+02  0.25500000000E-02 0. -1.
         -1   -1    0    0    0  501 -0.00000000000E+00 -0.00000000000E+00 -0.81344929568E+02  0.81344929724E+02  0.50400000000E-02 0.  1.
         24    2    1    2    0    0 -0.88817841970E-15  0.00000000000E+00 -0.61530293736E+02  0.10115956572E+03  0.80294960549E+02 0.  0.
         66    2    3    3    0    0  0.78223640082E+01  0.36453742953E+02 -0.12108193993E+02  0.39251409061E+02  0.19999993895E+01 0.  0.
        -13    1    3    3    0    0 -0.78223640082E+01 -0.36453742953E+02 -0.49422099743E+02  0.61908156659E+02  0.10566000000E+00 0.  1.
         13    1    4    4    0    0  0.35484828675E+01  0.14107940381E+02 -0.40135750201E+01  0.15091244512E+02  0.10566000000E+00 0. -1.
        -13    1    4    4    0    0  0.21078927060E+00  0.93463846456E+00 -0.46243686345E+00  0.10691085372E+01  0.10566000000E+00 0.  1.
         14    1    4    4    0    0  0.40630918701E+01  0.21411164107E+02 -0.76321821095E+01  0.23091056011E+02  0.00000000000E+00 0. -1.
<mgrwt>
<rscale>  0 0.80294961E+02</rscale>
<asrwt>0</asrwt>
<pdfrwt beam="1">  1        2 0.30484056E-02 0.80294961E+02</pdfrwt>
<pdfrwt beam="2">  1       -1 0.12514604E-01 0.80294961E+02</pdfrwt>
<totfact> 0.12261904E+05</totfact>
</mgrwt>
</event>
<event>
 8    1  0.1226832E-020  0.8141986E+02  0.7818608E-02  0.1325070E+00
          2   -1    0    0  501    0  0.00000000000E+00  0.00000000000E+00  0.42794965792E+02  0.42794965868E+02  0.25500000000E-02 0. -1.
         -1   -1    0    0    0  501 -0.00000000000E+00 -0.00000000000E+00 -0.38726479166E+02  0.38726479494E+02  0.50400000000E-02 0.  1.
         24    2    1    2    0    0  0.17763568394E-14  0.00000000000E+00  0.40684866260E+01  0.81521445362E+02  0.81419859190E+02 0.  0.
         66    2    3    3    0    0  0.15939378313E+02 -0.14717791564E+02  0.36496664535E+02  0.42505101914E+02  0.19999992421E+01 0.  0.
        -13    1    3    3    0    0 -0.15939378313E+02  0.14717791564E+02 -0.32428177909E+02  0.39016343448E+02  0.10566000000E+00 0.  1.
         13    1    4    4    0    0  0.42845704789E+01 -0.34066936445E+01  0.86629547400E+01  0.10247978076E+02  0.10566000000E+00 0. -1.
        -13    1    4    4    0    0  0.41287537228E+01 -0.48882778027E+01  0.11486627296E+02  0.13148978586E+02  0.10566000000E+00 0.  1.
        -14    1    4    4    0    0  0.75260541112E+01 -0.64228201167E+01  0.16347082499E+02  0.19108145252E+02  0.00000000000E+00 0.  1.
<mgrwt>
<rscale>  0 0.81419859E+02</rscale>
<asrwt>0</asrwt>
<pdfrwt beam="1">  1        2 0.65838409E-02 0.81419859E+02</pdfrwt>
<pdfrwt beam="2">  1       -1 0.59579199E-02 0.81419859E+02</pdfrwt>
<totfact> 0.13770803E+05</totfact>
</mgrwt>
</event>
<event>
 8    1  0.1226832E-020  0.8102730E+02  0.7818608E-02  0.1326161E+00
         -1   -1    0    0    0  501 -0.00000000000E+00  0.00000000000E+00  0.11601949383E+03  0.11601949394E+03  0.50400000000E-02 0.  1.
          2   -1    0    0  501    0  0.00000000000E+00 -0.00000000000E+00 -0.14147242362E+02  0.14147242592E+02  0.25500000000E-02 0. -1.
         24    2    1    2    0    0  0.00000000000E+00  0.00000000000E+00  0.10187225147E+03  0.13016673653E+03  0.81027302066E+02 0.  0.
         66    2    3    3    0    0 -0.21766230887E+02  0.18972463792E+02  0.53701162455E+01  0.29437413810E+02  0.19999984908E+01 0.  0.
        -13    1    3    3    0    0  0.21766230887E+02 -0.18972463792E+02  0.96502135224E+02  0.10072932272E+03  0.10566000000E+00 0.  1.
         13    1    4    4    0    0 -0.12308417169E+02  0.11489978080E+02  0.26228601386E+01  0.17041340582E+02  0.10566000000E+00 0. -1.
        -13    1    4    4    0    0 -0.85257317336E+01  0.65826254141E+01  0.26726601928E+01  0.11098348322E+02  0.10566000000E+00 0.  1.
        -14    1    4    4    0    0 -0.93208198401E+00  0.89986029730E+00  0.74595914072E-01  0.12977249054E+01  0.00000000000E+00 0.  1.
<mgrwt>
<rscale>  0 0.81027302E+02</rscale>
<asrwt>0</asrwt>
<pdfrwt beam="1">  1        2 0.21764989E-02 0.81027302E+02</pdfrwt>
<pdfrwt beam="2">  1       -1 0.17849152E-01 0.81027302E+02</pdfrwt>
<totfact> 0.11110966E+05</totfact>
</mgrwt>
</event>
<event>
 8    1  0.1226832E-020  0.8119958E+02  0.7818608E-02  0.1325681E+00
         -1   -1    0    0    0  501 -0.00000000000E+00  0.00000000000E+00  0.10343912188E+01  0.10344034973E+01  0.50400000000E-02 0.  1.
          2   -1    0    0  501    0  0.00000000000E+00 -0.00000000000E+00 -0.15935296076E+04  0.15935296077E+04  0.25500000000E-02 0. -1.
         24    2    1    2    0    0  0.00000000000E+00 -0.17763568394E-14 -0.15924952164E+04  0.15945640111E+04  0.81199576948E+02 0.  0.
         66    2    3    3    0    0  0.13479493177E+02  0.10847286838E+02 -0.15174522809E+04  0.15175522347E+04  0.20000001797E+01 0.  0.
        -13    1    3    3    0    0 -0.13479493177E+02 -0.10847286838E+02 -0.75042935574E+02  0.77011776448E+02  0.10566000000E+00 0.  1.
         13    1    4    4    0    0  0.70849885959E+01  0.59615592590E+01 -0.78454844804E+03  0.78460309440E+03  0.10566000000E+00 0. -1.
        -13    1    4    4    0    0  0.21200249194E+01  0.10865081291E+01 -0.25287439943E+03  0.25288564226E+03  0.10566000000E+00 0.  1.
        -14    1    4    4    0    0  0.42744796616E+01  0.37992194501E+01 -0.48002943338E+03  0.48006349805E+03  0.00000000000E+00 0.  1.
<mgrwt>
<rscale>  0 0.81199577E+02</rscale>
<asrwt>0</asrwt>
<pdfrwt beam="1">  1        2 0.24515644E+00 0.81199577E+02</pdfrwt>
<pdfrwt beam="2">  1       -1 0.15913933E-03 0.81199577E+02</pdfrwt>
<totfact> 0.31182364E+05</totfact>
</mgrwt>
</event>
<event>
 8    1  0.1226832E-020  0.7673576E+02  0.7818608E-02  0.1338579E+00
          2   -1    0    0  501    0  0.00000000000E+00  0.00000000000E+00  0.11951015999E+04  0.11951015999E+04  0.25500000000E-02 0. -1.
         -1   -1    0    0    0  501 -0.00000000000E+00 -0.00000000000E+00 -0.12317682287E+01  0.12317785397E+01  0.50400000000E-02 0.  1.
         24    2    1    2    0    0  0.00000000000E+00 -0.88817841970E-15  0.11938698317E+04  0.11963333784E+04  0.76735763504E+02 0.  0.
         66    2    3    3    0    0 -0.91238067414E+01 -0.56181865159E+01  0.11712828197E+04  0.11713335356E+04  0.19999961134E+01 0.  0.
        -13    1    3    3    0    0  0.91238067414E+01  0.56181865159E+01  0.22587011959E+02  0.24999842849E+02  0.10566000000E+00 0.  1.
         13    1    4    4    0    0 -0.43917751908E+01 -0.25462486970E+01  0.52083617091E+03  0.52086092113E+03  0.10566000000E+00 0. -1.
        -13    1    4    4    0    0 -0.42482886648E+01 -0.26053290266E+01  0.61015044890E+03  0.61017080982E+03  0.10566000000E+00 0.  1.
        -14    1    4    4    0    0 -0.48374288585E+00 -0.46660879223E+00  0.40296199894E+02  0.40301804635E+02  0.00000000000E+00 0.  1.
<mgrwt>
<rscale>  0 0.76735764E+02</rscale>
<asrwt>0</asrwt>
<pdfrwt beam="1">  1        2 0.18386255E+00 0.76735764E+02</pdfrwt>
<pdfrwt beam="2">  1       -1 0.18950281E-03 0.76735764E+02</pdfrwt>
<totfact> 0.39048267E+05</totfact>
</mgrwt>
</event>
<event>
 8    1  0.1226832E-020  0.8005973E+02  0.7818608E-02  0.1328882E+00
         -1   -1    0    0    0  501 -0.00000000000E+00  0.00000000000E+00  0.33768033136E+02  0.33768033512E+02  0.50400000000E-02 0.  1.
          2   -1    0    0  501    0  0.00000000000E+00 -0.00000000000E+00 -0.47452867572E+02  0.47452867641E+02  0.25500000000E-02 0. -1.
         24    2    1    2    0    0 -0.35527136788E-14  0.35527136788E-14 -0.13684834436E+02  0.81220901153E+02  0.80059728269E+02 0.  0.
         66    2    3    3    0    0 -0.29727979739E+02  0.23289684673E+02 -0.20237467823E+02  0.42891925692E+02  0.19999985307E+01 0.  0.
        -13    1    3    3    0    0  0.29727979739E+02 -0.23289684673E+02  0.65526333866E+01  0.38328975461E+02  0.10566000000E+00 0.  1.
         13    1    4    4    0    0 -0.69041359220E+00  0.59847616844E+00 -0.70033732402E+00  0.11560627386E+01  0.10566000000E+00 0. -1.
        -13    1    4    4    0    0 -0.12272031243E+02  0.93123086559E+01 -0.89358580402E+01  0.17809620049E+02  0.10566000000E+00 0.  1.
         14    1    4    4    0    0 -0.16765534904E+02  0.13378899849E+02 -0.10601272459E+02  0.23926242905E+02  0.00000000000E+00 0. -1.
<mgrwt>
<rscale>  0 0.80059728E+02</rscale>
<asrwt>0</asrwt>
<pdfrwt beam="1">  1        2 0.73004411E-02 0.80059728E+02</pdfrwt>
<pdfrwt beam="2">  1       -1 0.51950821E-02 0.80059728E+02</pdfrwt>
<totfact> 0.14744942E+05</totfact>
</mgrwt>
</event>
<event>
 8    1  0.1226832E-020  0.7972635E+02  0.7818608E-02  0.1329830E+00
          2   -1    0    0  501    0  0.00000000000E+00  0.00000000000E+00  0.43501104859E+03  0.43501104859E+03  0.25500000000E-02 0. -1.
         -1   -1    0    0    0  501 -0.00000000000E+00 -0.00000000000E+00 -0.36529465571E+01  0.36529500340E+01  0.50400000000E-02 0.  1.
         24    2    1    2    0    0  0.00000000000E+00 -0.71054273576E-14  0.43135810203E+03  0.43866399863E+03  0.79726353898E+02 0.  0.
         66    2    3    3    0    0  0.11360515464E+02  0.38163353134E+02  0.22269775184E+03  0.22623835107E+03  0.19999968823E+01 0.  0.
        -13    1    3    3    0    0 -0.11360515464E+02 -0.38163353134E+02  0.20866035019E+03  0.21242564756E+03  0.10566000000E+00 0.  1.
         13    1    4    4    0    0  0.50831328292E+01  0.16240741343E+02  0.94118205315E+02  0.95644381197E+02  0.10566000000E+00 0. -1.
        -13    1    4    4    0    0  0.17336628464E+01  0.45166894326E+01  0.25043465267E+02  0.25506712585E+02  0.10566000000E+00 0.  1.
         14    1    4    4    0    0  0.45437197888E+01  0.17405922358E+02  0.10353608125E+03  0.10508725729E+03  0.00000000000E+00 0. -1.
<mgrwt>
<rscale>  0 0.79726354E+02</rscale>
<asrwt>0</asrwt>
<pdfrwt beam="1">  1        2 0.66924746E-01 0.79726354E+02</pdfrwt>
<pdfrwt beam="2">  1       -1 0.56199230E-03 0.79726354E+02</pdfrwt>
<totfact> 0.29344826E+05</totfact>
</mgrwt>
</event>
<event>
 8    1  0.1226832E-020  0.8121554E+02  0.7818608E-02  0.1325637E+00
         -1   -1    0    0    0  501 -0.00000000000E+00  0.00000000000E+00  0.25454282721E+01  0.25454332617E+01  0.50400000000E-02 0.  1.
          2   -1    0    0  501    0  0.00000000000E+00 -0.00000000000E+00 -0.64782388350E+03  0.64782388351E+03  0.25500000000E-02 0. -1.
         24    2    1    2    0    0  0.00000000000E+00  0.00000000000E+00 -0.64527845523E+03  0.65036931677E+03  0.81215536754E+02 0.  0.
         66    2    3    3    0    0 -0.19219745630E+02 -0.17615778282E+02 -0.57188927127E+03  0.57248672723E+03  0.19999992675E+01 0.  0.
        -13    1    3    3    0    0  0.19219745630E+02  0.17615778282E+02 -0.73389183964E+02  0.77882589540E+02  0.10566000000E+00 0.  1.
         13    1    4    4    0    0 -0.89695834631E+01 -0.84040252048E+01 -0.26462637554E+03  0.26491170390E+03  0.10566000000E+00 0. -1.
        -13    1    4    4    0    0 -0.89033960152E+01 -0.76559611524E+01 -0.27019399515E+03  0.27044905321E+03  0.10566000000E+00 0.  1.
         14    1    4    4    0    0 -0.13467661520E+01 -0.15557919246E+01 -0.37068900571E+02  0.37125970117E+02  0.00000000000E+00 0. -1.
<mgrwt>
<rscale>  0 0.81215537E+02</rscale>
<asrwt>0</asrwt>
<pdfrwt beam="1">  1        2 0.99665082E-01 0.81215537E+02</pdfrwt>
<pdfrwt beam="2">  1       -1 0.39160525E-03 0.81215537E+02</pdfrwt>
<totfact> 0.31565704E+05</totfact>
</mgrwt>
</event>
<event>
 8    1  0.1226832E-020  0.8410658E+02  0.7818608E-02  0.1317786E+00
          2   -1    0    0  501    0  0.00000000000E+00  0.00000000000E+00  0.26022164993E+03  0.26022164994E+03  0.25500000000E-02 0. -1.
         -1   -1    0    0    0  501 -0.00000000000E+00 -0.00000000000E+00 -0.67960477937E+01  0.67960496626E+01  0.50400000000E-02 0.  1.
         24    2    1    2    0    0  0.00000000000E+00  0.00000000000E+00  0.25342560214E+03  0.26701769961E+03  0.84106575749E+02 0.  0.
         66    2    3    3    0    0  0.57109907059E+01 -0.40148670317E+02  0.16184234390E+03  0.16685765020E+03  0.20000022852E+01 0.  0.
        -13    1    3    3    0    0 -0.57109907059E+01  0.40148670317E+02  0.91583258239E+02  0.10016004941E+03  0.10566000000E+00 0.  1.
         13    1    4    4    0    0  0.13522656361E+01 -0.95036886140E+01  0.39545913659E+02  0.40694461181E+02  0.10566000000E+00 0. -1.
        -13    1    4    4    0    0  0.34288199908E+01 -0.26162803117E+02  0.10614461540E+03  0.10937522396E+03  0.10566000000E+00 0.  1.
        -14    1    4    4    0    0  0.92990507900E+00 -0.44821785856E+01  0.16151814835E+02  0.16787965058E+02  0.00000000000E+00 0.  1.
<mgrwt>
<rscale>  0 0.84106576E+02</rscale>
<asrwt>0</asrwt>
<pdfrwt beam="1">  1        2 0.40034104E-01 0.84106576E+02</pdfrwt>
<pdfrwt beam="2">  1       -1 0.10455459E-02 0.84106576E+02</pdfrwt>
<totfact> 0.21223481E+05</totfact>
</mgrwt>
</event>
<event>
 8    1  0.1226832E-020  0.8215615E+02  0.7818608E-02  0.1323042E+00
         -1   -1    0    0    0  501 -0.00000000000E+00  0.00000000000E+00  0.37169907741E+02  0.37169908083E+02  0.50400000000E-02 0.  1.
          2   -1    0    0  501    0  0.00000000000E+00 -0.00000000000E+00 -0.45397158121E+02  0.45397158192E+02  0.25500000000E-02 0. -1.
         24    2    1    2    0    0  0.14210854715E-13  0.88817841970E-15 -0.82272503800E+01  0.82567066275E+02  0.82156148793E+02 0.  0.
         66    2    3    3    0    0 -0.39231779574E+02 -0.62303960192E+01 -0.14533849361E+02  0.42345993218E+02  0.20000003237E+01 0.  0.
        -13    1    3    3    0    0  0.39231779574E+02  0.62303960192E+01  0.63065989815E+01  0.40221073057E+02  0.10566000000E+00 0.  1.
         13    1    4    4    0    0 -0.29006225352E+02 -0.50471625483E+01 -0.10891451386E+02  0.31392193875E+02  0.10566000000E+00 0. -1.
        -13    1    4    4    0    0 -0.17108571678E+01 -0.22345483682E+00 -0.29027523510E+00  0.17528228833E+01  0.10566000000E+00 0.  1.
        -14    1    4    4    0    0 -0.85146970540E+01 -0.95977863409E+00 -0.33521227407E+01  0.92009764599E+01  0.00000000000E+00 0.  1.
<mgrwt>
<rscale>  0 0.82156149E+02</rscale>
<asrwt>0</asrwt>
<pdfrwt beam="1">  1        2 0.69841782E-02 0.82156149E+02</pdfrwt>
<pdfrwt beam="2">  1       -1 0.57184474E-02 0.82156149E+02</pdfrwt>
<totfact> 0.13602328E+05</totfact>
</mgrwt>
</event>
<event>
 8    1  0.1226832E-020  0.7901447E+02  0.7818608E-02  0.1331872E+00
          2   -1    0    0  501    0  0.00000000000E+00  0.00000000000E+00  0.55485679644E+02  0.55485679703E+02  0.25500000000E-02 0. -1.
         -1   -1    0    0    0  501 -0.00000000000E+00 -0.00000000000E+00 -0.28130169341E+02  0.28130169793E+02  0.50400000000E-02 0.  1.
         24    2    1    2    0    0 -0.35527136788E-14  0.00000000000E+00  0.27355510303E+02  0.83615849495E+02  0.79014469200E+02 0.  0.
         66    2    3    3    0    0  0.21895653943E+02 -0.18904515655E+02  0.42121640405E+02  0.51137393005E+02  0.19999998053E+01 0.  0.
        -13    1    3    3    0    0 -0.21895653943E+02  0.18904515655E+02 -0.14766130103E+02  0.32478456490E+02  0.10566000000E+00 0.  1.
         13    1    4    4    0    0  0.68345288227E+01 -0.52078794409E+01  0.13588393734E+02  0.16077574469E+02  0.10566000000E+00 0. -1.
        -13    1    4    4    0    0  0.52196299244E+01 -0.42659714934E+01  0.94946689836E+01  0.11644868075E+02  0.10566000000E+00 0.  1.
        -14    1    4    4    0    0  0.98414951957E+01 -0.94306647207E+01  0.19038577688E+02  0.23414950462E+02  0.00000000000E+00 0.  1.
<mgrwt>
<rscale>  0 0.79014469E+02</rscale>
<asrwt>0</asrwt>
<pdfrwt beam="1">  1        2 0.85362584E-02 0.79014469E+02</pdfrwt>
<pdfrwt beam="2">  1       -1 0.43277184E-02 0.79014469E+02</pdfrwt>
<totfact> 0.15816730E+05</totfact>
</mgrwt>
</event>
<event>
 8    1  0.1226832E-020  0.8012091E+02  0.7818608E-02  0.1328709E+00
         -1   -1    0    0    0  501 -0.00000000000E+00  0.00000000000E+00  0.97765263267E+02  0.97765263397E+02  0.50400000000E-02 0.  1.
          2   -1    0    0  501    0  0.00000000000E+00 -0.00000000000E+00 -0.16415239186E+02  0.16415239384E+02  0.25500000000E-02 0. -1.
         24    2    1    2    0    0  0.00000000000E+00  0.17763568394E-14  0.81350024081E+02  0.11418050278E+03  0.80120913608E+02 0.  0.
         66    2    3    3    0    0  0.37188464009E+02  0.10116951741E+02  0.25252501226E+02  0.46119663803E+02  0.20000008067E+01 0.  0.
        -13    1    3    3    0    0 -0.37188464009E+02 -0.10116951741E+02  0.56097522855E+02  0.68060838978E+02  0.10566000000E+00 0.  1.
         13    1    4    4    0    0  0.42838733973E+01  0.77584790516E+00  0.26698255714E+01  0.51080959146E+01  0.10566000000E+00 0. -1.
        -13    1    4    4    0    0  0.14404374751E+02  0.40529014143E+01  0.90471133940E+01  0.17486378888E+02  0.10566000000E+00 0.  1.
         14    1    4    4    0    0  0.18500215862E+02  0.52882024213E+01  0.13535562260E+02  0.23525189000E+02  0.00000000000E+00 0. -1.
<mgrwt>
<rscale>  0 0.80120914E+02</rscale>
<asrwt>0</asrwt>
<pdfrwt beam="1">  1        2 0.25254214E-02 0.80120914E+02</pdfrwt>
<pdfrwt beam="2">  1       -1 0.15040810E-01 0.80120914E+02</pdfrwt>
<totfact> 0.11865633E+05</totfact>
</mgrwt>
</event>
<event>
 8    1  0.1226832E-020  0.7931291E+02  0.7818608E-02  0.1331013E+00
         -1   -1    0    0    0  501 -0.00000000000E+00  0.00000000000E+00  0.42965110875E+01  0.42965140435E+01  0.50400000000E-02 0.  1.
          2   -1    0    0  501    0  0.00000000000E+00 -0.00000000000E+00 -0.36602578767E+03  0.36602578768E+03  0.25500000000E-02 0. -1.
         24    2    1    2    0    0  0.00000000000E+00  0.00000000000E+00 -0.36172927659E+03  0.37032230173E+03  0.79312909518E+02 0.  0.
         66    2    3    3    0    0 -0.69549168855E+01 -0.15600408078E+02 -0.34795448808E+03  0.34837920341E+03  0.19999992050E+01 0.  0.
        -13    1    3    3    0    0  0.69549168855E+01  0.15600408078E+02 -0.13774788510E+02  0.21943098314E+02  0.10566000000E+00 0.  1.
         13    1    4    4    0    0 -0.12497343794E+01 -0.20895619013E+01 -0.47692857499E+02  0.47755082718E+02  0.10566000000E+00 0. -1.
        -13    1    4    4    0    0 -0.20421830959E+01 -0.53002649228E+01 -0.13253368715E+03  0.13265539082E+03  0.10566000000E+00 0.  1.
         14    1    4    4    0    0 -0.36629994102E+01 -0.82105812536E+01 -0.16772794343E+03  0.16796872988E+03  0.00000000000E+00 0. -1.
<mgrwt>
<rscale>  0 0.79312910E+02</rscale>
<asrwt>0</asrwt>
<pdfrwt beam="1">  1        2 0.56311635E-01 0.79312910E+02</pdfrwt>
<pdfrwt beam="2">  1       -1 0.66100223E-03 0.79312910E+02</pdfrwt>
<totfact> 0.28006701E+05</totfact>
</mgrwt>
</event>
<event>
 8    1  0.1226832E-020  0.8058141E+02  0.7818608E-02  0.1327410E+00
         -1   -1    0    0    0  501 -0.00000000000E+00  0.00000000000E+00  0.55104591081E+01  0.55104614130E+01  0.50400000000E-02 0.  1.
          2   -1    0    0  501    0  0.00000000000E+00 -0.00000000000E+00 -0.29459259758E+03  0.29459259759E+03  0.25500000000E-02 0. -1.
         24    2    1    2    0    0  0.00000000000E+00  0.00000000000E+00 -0.28908213847E+03  0.30010305900E+03  0.80581407534E+02 0.  0.
         66    2    3    3    0    0 -0.23389516329E+02 -0.12705392658E+02 -0.25715064507E+03  0.25853230111E+03  0.19999956734E+01 0.  0.
        -13    1    3    3    0    0  0.23389516329E+02  0.12705392658E+02 -0.31931493404E+02  0.41570757893E+02  0.10566000000E+00 0.  1.
         13    1    4    4    0    0 -0.14242769406E+02 -0.77973881013E+01 -0.16272144771E+03  0.16352961949E+03  0.10566000000E+00 0. -1.
        -13    1    4    4    0    0 -0.12121544338E+00 -0.34183293595E-01 -0.13290934444E+01  0.13392218266E+01  0.10566000000E+00 0. -1.
         14    1    4    4    0    0 -0.90255314796E+01 -0.48738212630E+01 -0.93100103913E+02  0.93663459795E+02  0.00000000000E+00 0. -1.
<mgrwt>
<rscale>  0 0.80581408E+02</rscale>
<asrwt>0</asrwt>
<pdfrwt beam="1">  1        2 0.45321926E-01 0.80581408E+02</pdfrwt>
<pdfrwt beam="2">  1       -1 0.84776335E-03 0.80581408E+02</pdfrwt>
<totfact> 0.24850510E+05</totfact>
</mgrwt>
</event>
<event>
 8    1  0.1300094E-020  0.8971356E+02  0.7818608E-02  0.1303547E+00
         -1   -1    0    0    0  501 -0.00000000000E+00  0.00000000000E+00  0.73192564989E+00  0.73194300227E+00  0.50400000000E-02 0.  1.
          2   -1    0    0  501    0  0.00000000000E+00 -0.00000000000E+00 -0.27490591540E+04  0.27490591540E+04  0.25500000000E-02 0. -1.
         24    2    1    2    0    0 -0.88817841970E-15  0.00000000000E+00 -0.27483272284E+04  0.27497910970E+04  0.89713561232E+02 0.  0.
         66    2    3    3    0    0 -0.76646094611E+01 -0.64609588988E+01 -0.27142648318E+04  0.27142840801E+04  0.19999990070E+01 0.  0.
        -13    1    3    3    0    0  0.76646094611E+01  0.64609588988E+01 -0.34062396545E+02  0.35507016919E+02  0.10566000000E+00 0.  1.
         13    1    4    4    0    0 -0.25883282293E+01 -0.19240847346E+01 -0.74492821573E+03  0.74493520476E+03  0.10566000000E+00 0. -1.
        -13    1    4    4    0    0 -0.32668263404E+01 -0.20026795583E+01 -0.11075910687E+04  0.11075977020E+04  0.10566000000E+00 0.  1.
        -14    1    4    4    0    0 -0.18094548915E+01 -0.25341946059E+01 -0.86174554739E+03  0.86175117332E+03  0.00000000000E+00 0.  1.
<mgrwt>
<rscale>  0 0.89713561E+02</rscale>
<asrwt>0</asrwt>
<pdfrwt beam="1">  1        2 0.42292391E+00 0.89713561E+02</pdfrwt>
<pdfrwt beam="2">  1       -1 0.11260748E-03 0.89713561E+02</pdfrwt>
<totfact> 0.13017519E+05</totfact>
</mgrwt>
</event>
<event>
 8    1  0.1226832E-020  0.7751485E+02  0.7818608E-02  0.1336256E+00
          2   -1    0    0  501    0  0.00000000000E+00  0.00000000000E+00  0.24940023229E+02  0.24940023359E+02  0.25500000000E-02 0. -1.
         -1   -1    0    0    0  501 -0.00000000000E+00 -0.00000000000E+00 -0.60230020289E+02  0.60230020500E+02  0.50400000000E-02 0.  1.
         24    2    1    2    0    0  0.88817841970E-15  0.00000000000E+00 -0.35289997061E+02  0.85170043859E+02  0.77514853276E+02 0.  0.
         66    2    3    3    0    0  0.78845763312E+01  0.15553167950E+02  0.20342924368E+02  0.26868236958E+02  0.20000020512E+01 0.  0.
        -13    1    3    3    0    0 -0.78845763312E+01 -0.15553167950E+02 -0.55632921428E+02  0.58301806901E+02  0.10566000000E+00 0.  1.
         13    1    4    4    0    0  0.53218481744E+01  0.87195098841E+01  0.11954302817E+02  0.15724771556E+02  0.10566000000E+00 0.  1.
        -13    1    4    4    0    0  0.24093242495E+01  0.57931859652E+01  0.73663716968E+01  0.96767992114E+01  0.10566000000E+00 0. -1.
         14    1    4    4    0    0  0.15340390724E+00  0.10404721012E+01  0.10222498533E+01  0.14666661906E+01  0.00000000000E+00 0. -1.
<mgrwt>
<rscale>  0 0.77514853E+02</rscale>
<asrwt>0</asrwt>
<pdfrwt beam="1">  1        2 0.38369267E-02 0.77514853E+02</pdfrwt>
<pdfrwt beam="2">  1       -1 0.92661570E-02 0.77514853E+02</pdfrwt>
<totfact> 0.14183505E+05</totfact>
</mgrwt>
</event>
<event>
 8    1  0.1226832E-020  0.7975120E+02  0.7818608E-02  0.1329759E+00
          2   -1    0    0  501    0  0.00000000000E+00  0.00000000000E+00  0.14103935426E+02  0.14103935657E+02  0.25500000000E-02 0. -1.
         -1   -1    0    0    0  501 -0.00000000000E+00 -0.00000000000E+00 -0.11273898507E+03  0.11273898518E+03  0.50400000000E-02 0.  1.
         24    2    1    2    0    0  0.00000000000E+00  0.00000000000E+00 -0.98635049644E+02  0.12684292084E+03  0.79751197790E+02 0.  0.
         66    2    3    3    0    0  0.62196607001E+01 -0.27453688549E+02 -0.44847320363E+01  0.28574499341E+02  0.19999992439E+01 0.  0.
        -13    1    3    3    0    0 -0.62196607001E+01  0.27453688549E+02 -0.94150317608E+02  0.98268421499E+02  0.10566000000E+00 0.  1.
         13    1    4    4    0    0  0.16732438431E+01 -0.53872023112E+01 -0.60540647035E+00  0.56744492887E+01  0.10566000000E+00 0. -1.
        -13    1    4    4    0    0  0.87698934525E+00 -0.24397782491E+01 -0.63595697279E+00  0.26715601290E+01  0.10566000000E+00 0.  1.
        -14    1    4    4    0    0  0.36694275118E+01 -0.19626707989E+02 -0.32433685932E+01  0.20228489923E+02  0.00000000000E+00 0.  1.
<mgrwt>
<rscale>  0 0.79751198E+02</rscale>
<asrwt>0</asrwt>
<pdfrwt beam="1">  1        2 0.21698363E-02 0.79751198E+02</pdfrwt>
<pdfrwt beam="2">  1       -1 0.17344459E-01 0.79751198E+02</pdfrwt>
<totfact> 0.11636709E+05</totfact>
</mgrwt>
</event>
<event>
 8    1  0.1226832E-020  0.7963809E+02  0.7818608E-02  0.1330082E+00
          2   -1    0    0  501    0  0.00000000000E+00  0.00000000000E+00  0.38191125899E+03  0.38191125900E+03  0.25500000000E-02 0. -1.
         -1   -1    0    0    0  501 -0.00000000000E+00 -0.00000000000E+00 -0.41516337352E+01  0.41516367945E+01  0.50400000000E-02 0.  1.
         24    2    1    2    0    0 -0.71054273576E-14  0.00000000000E+00  0.37775962525E+03  0.38606289579E+03  0.79638087844E+02 0.  0.
         66    2    3    3    0    0 -0.35466384922E+02  0.33566829593E+01  0.27495773171E+03  0.27726320710E+03  0.20000006226E+01 0.  0.
        -13    1    3    3    0    0  0.35466384922E+02 -0.33566829593E+01  0.10280189354E+03  0.10879968869E+03  0.10566000000E+00 0.  1.
         13    1    4    4    0    0 -0.14006750347E+02  0.17637507205E+01  0.10672835503E+03  0.10765803641E+03  0.10566000000E+00 0. -1.
        -13    1    4    4    0    0 -0.49270852248E+01  0.54521462742E+00  0.42971381223E+02  0.43256493109E+02  0.10566000000E+00 0.  1.
         14    1    4    4    0    0 -0.16532549351E+02  0.10477176114E+01  0.12525799546E+03  0.12634867759E+03  0.00000000000E+00 0. -1.
<mgrwt>
<rscale>  0 0.79638088E+02</rscale>
<asrwt>0</asrwt>
<pdfrwt beam="1">  1        2 0.58755567E-01 0.79638088E+02</pdfrwt>
<pdfrwt beam="2">  1       -1 0.63871324E-03 0.79638088E+02</pdfrwt>
<totfact> 0.28128905E+05</totfact>
</mgrwt>
</event>
<event>
 8    1  0.1226832E-020  0.7917546E+02  0.7818608E-02  0.1331408E+00
          2   -1    0    0  501    0  0.00000000000E+00  0.00000000000E+00  0.46302361896E+02  0.46302361966E+02  0.25500000000E-02 0. -1.
         -1   -1    0    0    0  501 -0.00000000000E+00 -0.00000000000E+00 -0.33846829937E+02  0.33846830313E+02  0.50400000000E-02 0.  1.
         24    2    1    2    0    0  0.17763568394E-14 -0.17763568394E-14  0.12455531959E+02  0.80149192279E+02  0.79175455455E+02 0.  0.
         66    2    3    3    0    0  0.84446099678E+01 -0.76574083008E+01  0.44582157540E+02  0.46059918677E+02  0.19999995505E+01 0.  0.
        -13    1    3    3    0    0 -0.84446099678E+01  0.76574083008E+01 -0.32126625582E+02  0.34089273602E+02  0.10566000000E+00 0.  1.
         13    1    4    4    0    0  0.22132684076E+01 -0.20152909316E+01  0.10351750292E+02  0.10776356189E+02  0.10566000000E+00 0. -1.
        -13    1    4    4    0    0  0.59020252419E+01 -0.46623363376E+01  0.29975455238E+02  0.30904859858E+02  0.10566000000E+00 0.  1.
         14    1    4    4    0    0  0.32931631827E+00 -0.97978103153E+00  0.42549520103E+01  0.43787026295E+01  0.00000000000E+00 0. -1.
<mgrwt>
<rscale>  0 0.79175455E+02</rscale>
<asrwt>0</asrwt>
<pdfrwt beam="1">  1        2 0.71234403E-02 0.79175455E+02</pdfrwt>
<pdfrwt beam="2">  1       -1 0.52072047E-02 0.79175455E+02</pdfrwt>
<totfact> 0.15121966E+05</totfact>
</mgrwt>
</event>
<event>
 8    1  0.1226832E-020  0.7896057E+02  0.7818608E-02  0.1332027E+00
          2   -1    0    0  501    0  0.00000000000E+00  0.00000000000E+00  0.32604624735E+03  0.32604624736E+03  0.25500000000E-02 0. -1.
         -1   -1    0    0    0  501 -0.00000000000E+00 -0.00000000000E+00 -0.47805865060E+01  0.47805891628E+01  0.50400000000E-02 0.  1.
         24    2    1    2    0    0 -0.35527136788E-14 -0.35527136788E-14  0.32126566084E+03  0.33082683652E+03  0.78960565639E+02 0.  0.
         66    2    3    3    0    0 -0.18820718522E+02 -0.14732568652E+02  0.29225841987E+03  0.29324094531E+03  0.20000000381E+01 0.  0.
        -13    1    3    3    0    0  0.18820718522E+02  0.14732568652E+02  0.29007240970E+02  0.37585891203E+02  0.10566000000E+00 0.  1.
         13    1    4    4    0    0 -0.37924600025E+01 -0.30184034014E+01  0.55223365190E+02  0.55435771293E+02  0.10566000000E+00 0. -1.
        -13    1    4    4    0    0 -0.55704570880E+00 -0.14794035581E+00  0.59779371702E+01  0.60065866445E+01  0.10566000000E+00 0.  1.
        -14    1    4    4    0    0 -0.14471212811E+02 -0.11566224895E+02  0.23105711751E+03  0.23179858738E+03  0.00000000000E+00 0.  1.
<mgrwt>
<rscale>  0 0.78960566E+02</rscale>
<asrwt>0</asrwt>
<pdfrwt beam="1">  1        2 0.50160960E-01 0.78960566E+02</pdfrwt>
<pdfrwt beam="2">  1       -1 0.73547507E-03 0.78960566E+02</pdfrwt>
<totfact> 0.27187724E+05</totfact>
</mgrwt>
</event>
<event>
 8    1  0.1226832E-020  0.8065314E+02  0.7818608E-02  0.1327208E+00
          2   -1    0    0  501    0  0.00000000000E+00  0.00000000000E+00  0.45897881240E+03  0.45897881241E+03  0.25500000000E-02 0. -1.
         -1   -1    0    0    0  501 -0.00000000000E+00 -0.00000000000E+00 -0.35431511633E+01  0.35431547479E+01  0.50400000000E-02 0.  1.
         24    2    1    2    0    0  0.00000000000E+00 -0.35527136788E-14  0.45543566124E+03  0.46252196716E+03  0.80653137414E+02 0.  0.
         66    2    3    3    0    0 -0.18148862548E+02  0.18883860097E+02  0.40351606483E+03  0.40437012248E+03  0.19999988148E+01 0.  0.
        -13    1    3    3    0    0  0.18148862548E+02 -0.18883860097E+02  0.51919596410E+02  0.58151844677E+02  0.10566000000E+00 0.  1.
         13    1    4    4    0    0 -0.10931473461E+02  0.10823336707E+02  0.22543377569E+03  0.22595804946E+03  0.10566000000E+00 0. -1.
        -13    1    4    4    0    0 -0.39581149250E+01  0.46726579851E+01  0.10566377200E+03  0.10584112757E+03  0.10566000000E+00 0.  1.
        -14    1    4    4    0    0 -0.32592741620E+01  0.33878654055E+01  0.72418517136E+02  0.72570945455E+02  0.00000000000E+00 0.  1.
<mgrwt>
<rscale>  0 0.80653137E+02</rscale>
<asrwt>0</asrwt>
<pdfrwt beam="1">  1        2 0.70612130E-01 0.80653137E+02</pdfrwt>
<pdfrwt beam="2">  1       -1 0.54510042E-03 0.80653137E+02</pdfrwt>
<totfact> 0.28991692E+05</totfact>
</mgrwt>
</event>
<event>
 8    1  0.1226832E-020  0.8002754E+02  0.7818608E-02  0.1328973E+00
         -1   -1    0    0    0  501 -0.00000000000E+00  0.00000000000E+00  0.14720342539E+02  0.14720343401E+02  0.50400000000E-02 0.  1.
          2   -1    0    0  501    0  0.00000000000E+00 -0.00000000000E+00 -0.10876795420E+03  0.10876795423E+03  0.25500000000E-02 0. -1.
         24    2    1    2    0    0  0.00000000000E+00 -0.17763568394E-14 -0.94047611666E+02  0.12348829764E+03  0.80027535217E+02 0.  0.
         66    2    3    3    0    0  0.38690980779E+02  0.91339672817E+01 -0.40384718258E+02  0.56704028194E+02  0.19999981748E+01 0.  0.
        -13    1    3    3    0    0 -0.38690980779E+02 -0.91339672817E+01 -0.53662893407E+02  0.66784269442E+02  0.10566000000E+00 0.  1.
         13    1    4    4    0    0  0.17577207982E+02  0.34248662178E+01 -0.18495404707E+02  0.25744496662E+02  0.10566000000E+00 0. -1.
        -13    1    4    4    0    0  0.66514541919E+01  0.17046695916E+01 -0.62599379835E+01  0.92922402506E+01  0.10566000000E+00 0.  1.
         14    1    4    4    0    0  0.14462318606E+02  0.40044314723E+01 -0.15629375567E+02  0.21667291282E+02  0.00000000000E+00 0. -1.
<mgrwt>
<rscale>  0 0.80027535E+02</rscale>
<asrwt>0</asrwt>
<pdfrwt beam="1">  1        2 0.16733531E-01 0.80027535E+02</pdfrwt>
<pdfrwt beam="2">  1       -1 0.22646682E-02 0.80027535E+02</pdfrwt>
<totfact> 0.18137824E+05</totfact>
</mgrwt>
</event>
<event>
 8    1  0.1226832E-020  0.8077141E+02  0.7818608E-02  0.1326876E+00
         -1   -1    0    0    0  501 -0.00000000000E+00  0.00000000000E+00  0.24882916189E+01  0.24882967231E+01  0.50400000000E-02 0.  1.
          2   -1    0    0  501    0  0.00000000000E+00 -0.00000000000E+00 -0.65547113528E+03  0.65547113529E+03  0.25500000000E-02 0. -1.
         24    2    1    2    0    0  0.00000000000E+00  0.35527136788E-14 -0.65298284366E+03  0.65795943201E+03  0.80771406157E+02 0.  0.
         66    2    3    3    0    0 -0.86901901263E+01  0.30685354599E+02 -0.52819242212E+03  0.52915814761E+03  0.20000002363E+01 0.  0.
        -13    1    3    3    0    0  0.86901901263E+01 -0.30685354599E+02 -0.12479042154E+03  0.12880128440E+03  0.10566000000E+00 0.  1.
         13    1    4    4    0    0 -0.13247076806E+01  0.49186294384E+01 -0.76866184424E+02  0.77034857292E+02  0.10566000000E+00 0. -1.
        -13    1    4    4    0    0 -0.14343216550E+01  0.61052447118E+01 -0.11419393545E+03  0.11436606730E+03  0.10566000000E+00 0.  1.
         14    1    4    4    0    0 -0.59311607907E+01  0.19661480449E+02 -0.33713230225E+03  0.33775722302E+03  0.00000000000E+00 0. -1.
<mgrwt>
<rscale>  0 0.80771406E+02</rscale>
<asrwt>0</asrwt>
<pdfrwt beam="1">  1        2 0.10084158E+00 0.80771406E+02</pdfrwt>
<pdfrwt beam="2">  1       -1 0.38281501E-03 0.80771406E+02</pdfrwt>
<totfact> 0.32115144E+05</totfact>
</mgrwt>
</event>
<event>
 8    1  0.1226832E-020  0.7569862E+02  0.7818608E-02  0.1341721E+00
          2   -1    0    0  501    0  0.00000000000E+00  0.00000000000E+00  0.96835503761E+01  0.96835507118E+01  0.25500000000E-02 0. -1.
         -1   -1    0    0    0  501 -0.00000000000E+00 -0.00000000000E+00 -0.14793853121E+03  0.14793853130E+03  0.50400000000E-02 0.  1.
         24    2    1    2    0    0  0.00000000000E+00  0.00000000000E+00 -0.13825498083E+03  0.15762208201E+03  0.75698619611E+02 0.  0.
         66    2    3    3    0    0  0.20109164692E+02 -0.17371692260E+02 -0.13132572171E+02  0.29708898519E+02  0.20000007023E+01 0.  0.
        -13    1    3    3    0    0 -0.20109164692E+02  0.17371692260E+02 -0.12512240866E+03  0.12791318349E+03  0.10566000000E+00 0.  1.
         13    1    4    4    0    0  0.16899668000E+02 -0.14779608420E+02 -0.10967656738E+02  0.24986721712E+02  0.10566000000E+00 0. -1.
        -13    1    4    4    0    0  0.30181341988E+01 -0.21924183263E+01 -0.20752173457E+01  0.42700729768E+01  0.10566000000E+00 0.  1.
         14    1    4    4    0    0  0.19136249303E+00 -0.39966551334E+00 -0.89698087620E-01  0.45210383013E+00  0.00000000000E+00 0. -1.
<mgrwt>
<rscale>  0 0.75698620E+02</rscale>
<asrwt>0</asrwt>
<pdfrwt beam="1">  1        2 0.14897771E-02 0.75698620E+02</pdfrwt>
<pdfrwt beam="2">  1       -1 0.22759773E-01 0.75698620E+02</pdfrwt>
<totfact> 0.12446249E+05</totfact>
</mgrwt>
</event>
<event>
 8    1  0.1226832E-020  0.7184125E+02  0.7818608E-02  0.1353941E+00
         -1   -1    0    0    0  501 -0.00000000000E+00  0.00000000000E+00  0.13487628696E+02  0.13487629637E+02  0.50400000000E-02 0.  1.
          2   -1    0    0  501    0  0.00000000000E+00 -0.00000000000E+00 -0.95664796337E+02  0.95664796371E+02  0.25500000000E-02 0. -1.
         24    2    1    2    0    0  0.35527136788E-14  0.35527136788E-14 -0.82177167642E+02  0.10915242601E+03  0.71841250142E+02 0.  0.
         66    2    3    3    0    0  0.28322271959E+02  0.20973309546E+02 -0.30786966749E+02  0.46838746018E+02  0.20000011685E+01 0.  0.
        -13    1    3    3    0    0 -0.28322271959E+02 -0.20973309546E+02 -0.51390200892E+02  0.62313679991E+02  0.10566000000E+00 0.  1.
         13    1    4    4    0    0  0.68679109837E+01  0.50075606385E+01 -0.66438696867E+01  0.10788699332E+02  0.10566000000E+00 0.  1.
        -13    1    4    4    0    0  0.14254623263E+02  0.10173381713E+02 -0.16428963683E+02  0.24012788085E+02  0.10566000000E+00 0. -1.
        -14    1    4    4    0    0  0.71997377120E+01  0.57923671940E+01 -0.77141333790E+01  0.12037258601E+02  0.00000000000E+00 0.  1.
<mgrwt>
<rscale>  0 0.71841250E+02</rscale>
<asrwt>0</asrwt>
<pdfrwt beam="1">  1        2 0.14717661E-01 0.71841250E+02</pdfrwt>
<pdfrwt beam="2">  1       -1 0.20750199E-02 0.71841250E+02</pdfrwt>
<totfact> 0.23315433E+05</totfact>
</mgrwt>
</event>
<event>
 8    1  0.1226832E-020  0.7839969E+02  0.7818608E-02  0.1333655E+00
          2   -1    0    0  501    0  0.00000000000E+00  0.00000000000E+00  0.64140775750E+02  0.64140775801E+02  0.25500000000E-02 0. -1.
         -1   -1    0    0    0  501 -0.00000000000E+00 -0.00000000000E+00 -0.23957114128E+02  0.23957114658E+02  0.50400000000E-02 0.  1.
         24    2    1    2    0    0  0.00000000000E+00  0.71054273576E-14  0.40183661623E+02  0.88097890459E+02  0.78399691593E+02 0.  0.
         66    2    3    3    0    0 -0.81551985287E+01 -0.36816434332E+02  0.32032312746E+02  0.49517937731E+02  0.19999993352E+01 0.  0.
        -13    1    3    3    0    0  0.81551985287E+01  0.36816434332E+02  0.81513488765E+01  0.38579952728E+02  0.10566000000E+00 0.  1.
         13    1    4    4    0    0 -0.40008119617E+01 -0.20949922925E+02  0.18225906577E+02  0.28055313250E+02  0.10566000000E+00 0. -1.
        -13    1    4    4    0    0 -0.31824839044E+01 -0.12523384396E+02  0.10339385215E+02  0.16549242013E+02  0.10566000000E+00 0.  1.
        -14    1    4    4    0    0 -0.97190266261E+00 -0.33431270104E+01  0.34670209536E+01  0.49133824689E+01  0.00000000000E+00 0.  1.
<mgrwt>
<rscale>  0 0.78399692E+02</rscale>
<asrwt>0</asrwt>
<pdfrwt beam="1">  1        2 0.98678117E-02 0.78399692E+02</pdfrwt>
<pdfrwt beam="2">  1       -1 0.36857099E-02 0.78399692E+02</pdfrwt>
<totfact> 0.16701115E+05</totfact>
</mgrwt>
</event>
<event>
 8    1  0.1226832E-020  0.7901850E+02  0.7818608E-02  0.1331860E+00
          2   -1    0    0  501    0  0.00000000000E+00  0.00000000000E+00  0.65059557130E+02  0.65059557180E+02  0.25500000000E-02 0. -1.
         -1   -1    0    0    0  501 -0.00000000000E+00 -0.00000000000E+00 -0.23993103764E+02  0.23993104293E+02  0.50400000000E-02 0.  1.
         24    2    1    2    0    0 -0.35527136788E-14  0.00000000000E+00  0.41066453366E+02  0.89052661473E+02  0.79018497350E+02 0.  0.
         66    2    3    3    0    0 -0.24688775357E+02  0.21963652066E+02  0.44901690555E+02  0.55786194137E+02  0.20000002264E+01 0.  0.
        -13    1    3    3    0    0  0.24688775357E+02 -0.21963652066E+02 -0.38352371892E+01  0.33266467336E+02  0.10566000000E+00 0.  1.
         13    1    4    4    0    0 -0.28772193393E+00  0.29052014920E+00  0.43444737980E+00  0.60588318162E+00  0.10566000000E+00 0.  1.
        -13    1    4    4    0    0 -0.54099298051E+01  0.41392796968E+01  0.99142979355E+01  0.12029357609E+02  0.10566000000E+00 0.  1.
         14    1    4    4    0    0 -0.18991123618E+02  0.17533852220E+02  0.34552945240E+02  0.43150953346E+02  0.00000000000E+00 0. -1.
<mgrwt>
<rscale>  0 0.79018497E+02</rscale>
<asrwt>0</asrwt>
<pdfrwt beam="1">  1        2 0.10009162E-01 0.79018497E+02</pdfrwt>
<pdfrwt beam="2">  1       -1 0.36912469E-02 0.79018497E+02</pdfrwt>
<totfact> 0.16404183E+05</totfact>
</mgrwt>
</event>
<event>
 8    1  0.1226832E-020  0.8016552E+02  0.7818608E-02  0.1328582E+00
          2   -1    0    0  501    0  0.00000000000E+00  0.00000000000E+00  0.42815101493E+03  0.42815101494E+03  0.25500000000E-02 0. -1.
         -1   -1    0    0    0  501 -0.00000000000E+00 -0.00000000000E+00 -0.37524767572E+01  0.37524801418E+01  0.50400000000E-02 0.  1.
         24    2    1    2    0    0  0.00000000000E+00  0.88817841970E-15  0.42439853817E+03  0.43190349508E+03  0.80165515395E+02 0.  0.
         66    2    3    3    0    0 -0.39466758941E+02 -0.57583863099E+01  0.19228890951E+03  0.19639197740E+03  0.19999987924E+01 0.  0.
        -13    1    3    3    0    0  0.39466758941E+02  0.57583863099E+01  0.23210962867E+03  0.23551151768E+03  0.10566000000E+00 0.  1.
         13    1    4    4    0    0 -0.12422214900E+02 -0.26032172694E+01  0.61468875439E+02  0.62765611405E+02  0.10566000000E+00 0. -1.
        -13    1    4    4    0    0 -0.48412211451E+01 -0.33192536315E+00  0.22247924182E+02  0.22771229458E+02  0.10566000000E+00 0.  1.
         14    1    4    4    0    0 -0.22203322896E+02 -0.28232436774E+01  0.10857210988E+03  0.11085513654E+03  0.00000000000E+00 0. -1.
<mgrwt>
<rscale>  0 0.80165515E+02</rscale>
<asrwt>0</asrwt>
<pdfrwt beam="1">  1        2 0.65869365E-01 0.80165515E+02</pdfrwt>
<pdfrwt beam="2">  1       -1 0.57730457E-03 0.80165515E+02</pdfrwt>
<totfact> 0.28770682E+05</totfact>
</mgrwt>
</event>
<event>
 8    1  0.1226832E-020  0.7910237E+02  0.7818608E-02  0.1331618E+00
          2   -1    0    0  501    0  0.00000000000E+00  0.00000000000E+00  0.73571520416E+03  0.73571520416E+03  0.25500000000E-02 0. -1.
         -1   -1    0    0    0  501 -0.00000000000E+00 -0.00000000000E+00 -0.21262222849E+01  0.21262282583E+01  0.50400000000E-02 0.  1.
         24    2    1    2    0    0 -0.35527136788E-14  0.00000000000E+00  0.73358898187E+03  0.73784143242E+03  0.79102370831E+02 0.  0.
         66    2    3    3    0    0 -0.28058907287E+02 -0.85612917529E+01  0.61411378788E+03  0.61481732447E+03  0.20000007499E+01 0.  0.
        -13    1    3    3    0    0  0.28058907287E+02  0.85612917529E+01  0.11947519399E+03  0.12302410796E+03  0.10566000000E+00 0.  1.
         13    1    4    4    0    0 -0.17763660003E+02 -0.50721205958E+01  0.38323698184E+03  0.38368198999E+03  0.10566000000E+00 0. -1.
        -13    1    4    4    0    0 -0.40189647225E+01 -0.19407461189E+01  0.95109982243E+02  0.95214696655E+02  0.10566000000E+00 0.  1.
        -14    1    4    4    0    0 -0.62762825624E+01 -0.15484250381E+01  0.13576682379E+03  0.13592063782E+03  0.00000000000E+00 0.  1.
<mgrwt>
<rscale>  0 0.79102371E+02</rscale>
<asrwt>0</asrwt>
<pdfrwt beam="1">  1        2 0.11318697E+00 0.79102371E+02</pdfrwt>
<pdfrwt beam="2">  1       -1 0.32711155E-03 0.79102371E+02</pdfrwt>
<totfact> 0.34824630E+05</totfact>
</mgrwt>
</event>
<event>
 8    1  0.1226832E-020  0.8011324E+02  0.7818608E-02  0.1328730E+00
         -1   -1    0    0    0  501 -0.00000000000E+00  0.00000000000E+00  0.17076238494E+03  0.17076238502E+03  0.50400000000E-02 0.  1.
          2   -1    0    0  501    0  0.00000000000E+00 -0.00000000000E+00 -0.93962889359E+01  0.93962892819E+01  0.25500000000E-02 0. -1.
         24    2    1    2    0    0  0.00000000000E+00  0.35527136788E-14  0.16136609601E+03  0.18015867430E+03  0.80113238511E+02 0.  0.
         66    2    3    3    0    0 -0.12751833013E+02  0.26443266282E+02  0.19531431269E+02  0.35317592895E+02  0.19999959162E+01 0.  0.
        -13    1    3    3    0    0  0.12751833013E+02 -0.26443266282E+02  0.14183466474E+03  0.14484108140E+03  0.10566000000E+00 0.  1.
         13    1    4    4    0    0 -0.10360058037E+02  0.21114188751E+02  0.16390096745E+02  0.28666813644E+02  0.10566000000E+00 0. -1.
        -13    1    4    4    0    0 -0.24125822410E+00  0.43312048361E+00  0.17871514809E+00  0.53749606861E+00  0.10566000000E+00 0. -1.
        -14    1    4    4    0    0 -0.21505167523E+01  0.48959570469E+01  0.29626193756E+01  0.61132831826E+01  0.00000000000E+00 0.  1.
<mgrwt>
<rscale>  0 0.80113239E+02</rscale>
<asrwt>0</asrwt>
<pdfrwt beam="1">  1        2 0.14455832E-02 0.80113239E+02</pdfrwt>
<pdfrwt beam="2">  1       -1 0.26271132E-01 0.80113239E+02</pdfrwt>
<totfact> 0.10386843E+05</totfact>
</mgrwt>
</event>
<event>
 8    1  0.1226832E-020  0.8157205E+02  0.7818608E-02  0.1324648E+00
         -1   -1    0    0    0  501 -0.00000000000E+00  0.00000000000E+00  0.79108511681E+00  0.79110117155E+00  0.50400000000E-02 0.  1.
          2   -1    0    0  501    0  0.00000000000E+00 -0.00000000000E+00 -0.21027861868E+04  0.21027861868E+04  0.25500000000E-02 0. -1.
         24    2    1    2    0    0  0.00000000000E+00  0.00000000000E+00 -0.21019951016E+04  0.21035772879E+04  0.81572047761E+02 0.  0.
         66    2    3    3    0    0 -0.19113740002E+01  0.14143223808E+02 -0.20362453453E+04  0.20362963415E+04  0.20000000803E+01 0.  0.
        -13    1    3    3    0    0  0.19113740002E+01 -0.14143223808E+02 -0.65749756307E+02  0.67280946402E+02  0.10566000000E+00 0.  1.
         13    1    4    4    0    0 -0.78147193274E+00  0.65462219181E+01 -0.10422791491E+04  0.10423000046E+04  0.10566000000E+00 0. -1.
        -13    1    4    4    0    0 -0.70785212593E-01  0.25941761855E+00 -0.61075962926E+02  0.61076646269E+02  0.10566000000E+00 0.  1.
         14    1    4    4    0    0 -0.10591168549E+01  0.73375842714E+01 -0.93289023331E+03  0.93291969069E+03  0.00000000000E+00 0. -1.
<mgrwt>
<rscale>  0 0.81572048E+02</rscale>
<asrwt>0</asrwt>
<pdfrwt beam="1">  1        2 0.32350109E+00 0.81572048E+02</pdfrwt>
<pdfrwt beam="2">  1       -1 0.12170832E-03 0.81572048E+02</pdfrwt>
<totfact> 0.25104970E+05</totfact>
</mgrwt>
</event>
<event>
 8    1  0.1226832E-020  0.8335548E+02  0.7818608E-02  0.1319790E+00
          2   -1    0    0  501    0  0.00000000000E+00  0.00000000000E+00  0.51580234130E+01  0.51580240433E+01  0.25500000000E-02 0. -1.
         -1   -1    0    0    0  501 -0.00000000000E+00 -0.00000000000E+00 -0.33676345406E+03  0.33676345410E+03  0.50400000000E-02 0.  1.
         24    2    1    2    0    0  0.00000000000E+00  0.44408920985E-15 -0.33160543065E+03  0.34192147814E+03  0.83355477202E+02 0.  0.
         66    2    3    3    0    0 -0.40918480892E+02  0.35963935481E+01 -0.19424981740E+03  0.19855540203E+03  0.19999975419E+01 0.  0.
        -13    1    3    3    0    0  0.40918480892E+02 -0.35963935481E+01 -0.13735561325E+03  0.14336607612E+03  0.10566000000E+00 0.  1.
         13    1    4    4    0    0 -0.91498672285E+01  0.52768026564E+00 -0.44315563933E+02  0.45253495859E+02  0.10566000000E+00 0. -1.
        -13    1    4    4    0    0 -0.14110726354E+02  0.66825348835E+00 -0.68100751172E+02  0.69550576095E+02  0.10566000000E+00 0.  1.
        -14    1    4    4    0    0 -0.17657887310E+02  0.24004597941E+01 -0.81833502293E+02  0.83751330073E+02  0.00000000000E+00 0.  1.
<mgrwt>
<rscale>  0 0.83355477E+02</rscale>
<asrwt>0</asrwt>
<pdfrwt beam="1">  1        2 0.79354237E-03 0.83355477E+02</pdfrwt>
<pdfrwt beam="2">  1       -1 0.51809745E-01 0.83355477E+02</pdfrwt>
<totfact> 0.74045123E+04</totfact>
</mgrwt>
</event>
<event>
 8    1  0.1226832E-020  0.7921773E+02  0.7818608E-02  0.1331286E+00
          2   -1    0    0  501    0  0.00000000000E+00  0.00000000000E+00  0.15569736611E+03  0.15569736613E+03  0.25500000000E-02 0. -1.
         -1   -1    0    0    0  501 -0.00000000000E+00 -0.00000000000E+00 -0.10076354817E+02  0.10076356077E+02  0.50400000000E-02 0.  1.
         24    2    1    2    0    0  0.00000000000E+00  0.00000000000E+00  0.14562101130E+03  0.16577372221E+03  0.79217725572E+02 0.  0.
         66    2    3    3    0    0  0.32223986389E+02  0.77418614807E+01  0.11815327050E+03  0.12272944656E+03  0.20000010754E+01 0.  0.
        -13    1    3    3    0    0 -0.32223986389E+02 -0.77418614807E+01  0.27467740791E+02  0.43044275650E+02  0.10566000000E+00 0.  1.
         13    1    4    4    0    0  0.43661243790E+01  0.13907049484E+01  0.16267910188E+02  0.16901277120E+02  0.10566000000E+00 0. -1.
        -13    1    4    4    0    0  0.24667819803E+02  0.55911281272E+01  0.91957751631E+02  0.95372958938E+02  0.10566000000E+00 0.  1.
        -14    1    4    4    0    0  0.31900422076E+01  0.76002840515E+00  0.99276086851E+01  0.10455210503E+02  0.00000000000E+00 0.  1.
<mgrwt>
<rscale>  0 0.79217726E+02</rscale>
<asrwt>0</asrwt>
<pdfrwt beam="1">  1        2 0.23953440E-01 0.79217726E+02</pdfrwt>
<pdfrwt beam="2">  1       -1 0.15502086E-02 0.79217726E+02</pdfrwt>
<totfact> 0.20808249E+05</totfact>
</mgrwt>
</event>
<event>
 8    1  0.1226832E-020  0.7920488E+02  0.7818608E-02  0.1331323E+00
          2   -1    0    0  501    0  0.00000000000E+00  0.00000000000E+00  0.56997018374E+01  0.56997024078E+01  0.25500000000E-02 0. -1.
         -1   -1    0    0    0  501 -0.00000000000E+00 -0.00000000000E+00 -0.27516407622E+03  0.27516407627E+03  0.50400000000E-02 0.  1.
         24    2    1    2    0    0 -0.35527136788E-14 -0.35527136788E-14 -0.26946437438E+03  0.28086377867E+03  0.79204880592E+02 0.  0.
         66    2    3    3    0    0 -0.31776236483E+02  0.23233924035E+02 -0.12028172501E+03  0.12657502837E+03  0.20000013978E+01 0.  0.
        -13    1    3    3    0    0  0.31776236483E+02 -0.23233924035E+02 -0.14918264938E+03  0.15428875030E+03  0.10566000000E+00 0.  1.
         13    1    4    4    0    0 -0.15715233750E+02  0.12245049505E+02 -0.58858469199E+02  0.62138879694E+02  0.10566000000E+00 0. -1.
        -13    1    4    4    0    0 -0.13484953010E+02  0.89257413290E+01 -0.51254388618E+02  0.53745105196E+02  0.10566000000E+00 0.  1.
        -14    1    4    4    0    0 -0.25760497228E+01  0.20631332009E+01 -0.10168867190E+02  0.10691043481E+02  0.00000000000E+00 0.  1.
<mgrwt>
<rscale>  0 0.79204881E+02</rscale>
<asrwt>0</asrwt>
<pdfrwt beam="1">  1        2 0.87687746E-03 0.79204881E+02</pdfrwt>
<pdfrwt beam="2">  1       -1 0.42332925E-01 0.79204881E+02</pdfrwt>
<totfact> 0.91728519E+04</totfact>
</mgrwt>
</event>
<event>
 8    1  0.1226832E-020  0.7898476E+02  0.7818608E-02  0.1331957E+00
          2   -1    0    0  501    0  0.00000000000E+00  0.00000000000E+00  0.18805513536E+03  0.18805513538E+03  0.25500000000E-02 0. -1.
         -1   -1    0    0    0  501 -0.00000000000E+00 -0.00000000000E+00 -0.82935665409E+01  0.82935680723E+01  0.50400000000E-02 0.  1.
         24    2    1    2    0    0  0.71054273576E-14 -0.17763568394E-14  0.17976156882E+03  0.19634870345E+03  0.78984756264E+02 0.  0.
         66    2    3    3    0    0 -0.33802376614E+02  0.11003868060E+02  0.13255956543E+03  0.13725787451E+03  0.19999876517E+01 0.  0.
        -13    1    3    3    0    0  0.33802376614E+02 -0.11003868060E+02  0.47202003393E+02  0.59090828945E+02  0.10566000000E+00 0.  1.
         13    1    4    4    0    0 -0.31527768764E+02  0.10187243957E+02  0.12317757883E+03  0.12755589846E+03  0.10566000000E+00 0. -1.
        -13    1    4    4    0    0 -0.10650974230E+01  0.41474222142E+00  0.54130109727E+01  0.55333801114E+01  0.10566000000E+00 0.  1.
        -14    1    4    4    0    0 -0.12095104267E+01  0.40188188199E+00  0.39689756316E+01  0.41685959367E+01  0.00000000000E+00 0.  1.
<mgrwt>
<rscale>  0 0.78984756E+02</rscale>
<asrwt>0</asrwt>
<pdfrwt beam="1">  1        2 0.28931558E-01 0.78984756E+02</pdfrwt>
<pdfrwt beam="2">  1       -1 0.12759335E-02 0.78984756E+02</pdfrwt>
<totfact> 0.22335127E+05</totfact>
</mgrwt>
</event>
<event>
 8    1  0.1226832E-020  0.7956966E+02  0.7818608E-02  0.1330277E+00
         -1   -1    0    0    0  501 -0.00000000000E+00  0.00000000000E+00  0.28179687619E+01  0.28179732689E+01  0.50400000000E-02 0.  1.
          2   -1    0    0  501    0  0.00000000000E+00 -0.00000000000E+00 -0.56169239406E+03  0.56169239407E+03  0.25500000000E-02 0. -1.
         24    2    1    2    0    0  0.00000000000E+00  0.00000000000E+00 -0.55887442530E+03  0.56451036734E+03  0.79569664924E+02 0.  0.
         66    2    3    3    0    0 -0.28083931048E+02  0.13214101243E+02 -0.45591061376E+03  0.45697024782E+03  0.19999996959E+01 0.  0.
        -13    1    3    3    0    0  0.28083931048E+02 -0.13214101243E+02 -0.10296381154E+03  0.10754011952E+03  0.10566000000E+00 0.  1.
         13    1    4    4    0    0 -0.21707943294E+02  0.10050542210E+02 -0.34518084883E+03  0.34600878278E+03  0.10566000000E+00 0. -1.
        -13    1    4    4    0    0 -0.32805824002E+01  0.12668567644E+01 -0.50526533254E+02  0.50648878306E+02  0.10566000000E+00 0.  1.
         14    1    4    4    0    0 -0.30954053538E+01  0.18967022691E+01 -0.60203231674E+02  0.60312586728E+02  0.00000000000E+00 0. -1.
<mgrwt>
<rscale>  0 0.79569665E+02</rscale>
<asrwt>0</asrwt>
<pdfrwt beam="1">  1        2 0.86414126E-01 0.79569665E+02</pdfrwt>
<pdfrwt beam="2">  1       -1 0.43353445E-03 0.79569665E+02</pdfrwt>
<totfact> 0.32006375E+05</totfact>
</mgrwt>
</event>
<event>
 8    1  0.1226832E-020  0.8276592E+02  0.7818608E-02  0.1321380E+00
         -1   -1    0    0    0  501 -0.00000000000E+00  0.00000000000E+00  0.37134661173E+02  0.37134661515E+02  0.50400000000E-02 0.  1.
          2   -1    0    0  501    0  0.00000000000E+00 -0.00000000000E+00 -0.46117270080E+02  0.46117270151E+02  0.25500000000E-02 0. -1.
         24    2    1    2    0    0  0.17763568394E-14  0.00000000000E+00 -0.89826089075E+01  0.83251931665E+02  0.82765916072E+02 0.  0.
         66    2    3    3    0    0  0.13397156630E+02 -0.16035495008E+02 -0.40395571929E+02  0.45523874258E+02  0.19999975254E+01 0.  0.
        -13    1    3    3    0    0 -0.13397156630E+02  0.16035495008E+02  0.31412963021E+02  0.37728057407E+02  0.10566000000E+00 0.  1.
         13    1    4    4    0    0  0.38757581838E+01 -0.46273536216E+01 -0.13049729066E+02  0.14378473346E+02  0.10566000000E+00 0.  1.
        -13    1    4    4    0    0  0.37595416223E+01 -0.44368877400E+01 -0.11929332670E+02  0.13271784658E+02  0.10566000000E+00 0. -1.
        -14    1    4    4    0    0  0.57618568235E+01 -0.69712536460E+01 -0.15416510194E+02  0.17873616254E+02  0.00000000000E+00 0.  1.
<mgrwt>
<rscale>  0 0.82765916E+02</rscale>
<asrwt>0</asrwt>
<pdfrwt beam="1">  1        2 0.70949647E-02 0.82765916E+02</pdfrwt>
<pdfrwt beam="2">  1       -1 0.57130248E-02 0.82765916E+02</pdfrwt>
<totfact> 0.13372724E+05</totfact>
</mgrwt>
</event>
<event>
 8    1  0.1226832E-020  0.7942118E+02  0.7818608E-02  0.1330702E+00
         -1   -1    0    0    0  501 -0.00000000000E+00  0.00000000000E+00  0.52063194347E+01  0.52063218742E+01  0.50400000000E-02 0.  1.
          2   -1    0    0  501    0  0.00000000000E+00 -0.00000000000E+00 -0.30288782659E+03  0.30288782660E+03  0.25500000000E-02 0. -1.
         24    2    1    2    0    0 -0.35527136788E-14  0.00000000000E+00 -0.29768150715E+03  0.30809414847E+03  0.79421184971E+02 0.  0.
         66    2    3    3    0    0 -0.28678409627E+02  0.17211908425E+02 -0.23179331387E+03  0.23420256473E+03  0.19999998835E+01 0.  0.
        -13    1    3    3    0    0  0.28678409627E+02 -0.17211908425E+02 -0.65888193284E+02  0.73891583747E+02  0.10566000000E+00 0.  1.
         13    1    4    4    0    0 -0.25242718666E+01  0.18592035411E+01 -0.22645792997E+02  0.22862014145E+02  0.10566000000E+00 0. -1.
        -13    1    4    4    0    0 -0.24564816417E+01  0.16915284529E+01 -0.23490887318E+02  0.23679706958E+02  0.10566000000E+00 0.  1.
         14    1    4    4    0    0 -0.23697656118E+02  0.13661176431E+02 -0.18565663355E+03  0.18766084362E+03  0.00000000000E+00 0. -1.
<mgrwt>
<rscale>  0 0.79421185E+02</rscale>
<asrwt>0</asrwt>
<pdfrwt beam="1">  1        2 0.46598113E-01 0.79421185E+02</pdfrwt>
<pdfrwt beam="2">  1       -1 0.80097265E-03 0.79421185E+02</pdfrwt>
<totfact> 0.26074525E+05</totfact>
</mgrwt>
</event>
<event>
 8    1  0.1226832E-020  0.8285950E+02  0.7818608E-02  0.1321127E+00
          2   -1    0    0  501    0  0.00000000000E+00  0.00000000000E+00  0.50925810829E+02  0.50925810893E+02  0.25500000000E-02 0. -1.
         -1   -1    0    0    0  501 -0.00000000000E+00 -0.00000000000E+00 -0.33704403288E+02  0.33704403665E+02  0.50400000000E-02 0.  1.
         24    2    1    2    0    0  0.00000000000E+00  0.17763568394E-14  0.17221407541E+02  0.84630214557E+02  0.82859497574E+02 0.  0.
         66    2    3    3    0    0  0.34725991739E+02  0.13385003171E+02  0.27151991798E+02  0.46111641377E+02  0.19999999444E+01 0.  0.
        -13    1    3    3    0    0 -0.34725991739E+02 -0.13385003171E+02 -0.99305842566E+01  0.38518573180E+02  0.10566000000E+00 0.  1.
         13    1    4    4    0    0  0.13307244461E+02  0.48334413709E+01  0.10589548786E+02  0.17680345532E+02  0.10566000000E+00 0. -1.
        -13    1    4    4    0    0  0.16981725382E+02  0.65037589278E+01  0.12378500853E+02  0.21998098203E+02  0.10566000000E+00 0.  1.
        -14    1    4    4    0    0  0.44370218965E+01  0.20478028720E+01  0.41839421588E+01  0.64331976420E+01  0.00000000000E+00 0.  1.
<mgrwt>
<rscale>  0 0.82859498E+02</rscale>
<asrwt>0</asrwt>
<pdfrwt beam="1">  1        2 0.78347402E-02 0.82859498E+02</pdfrwt>
<pdfrwt beam="2">  1       -1 0.51852929E-02 0.82859498E+02</pdfrwt>
<totfact> 0.13624514E+05</totfact>
</mgrwt>
</event>
<event>
 8    1  0.1226832E-020  0.7580417E+02  0.7818608E-02  0.1341399E+00
         -1   -1    0    0    0  501 -0.00000000000E+00  0.00000000000E+00  0.95293259895E+01  0.95293273223E+01  0.50400000000E-02 0.  1.
          2   -1    0    0  501    0  0.00000000000E+00 -0.00000000000E+00 -0.15075229440E+03  0.15075229442E+03  0.25500000000E-02 0. -1.
         24    2    1    2    0    0  0.00000000000E+00  0.00000000000E+00 -0.14122296841E+03  0.16028162174E+03  0.75804165203E+02 0.  0.
         66    2    3    3    0    0 -0.61023332356E+01 -0.17057076476E+02 -0.14099087669E+03  0.14216402368E+03  0.19999981078E+01 0.  0.
        -13    1    3    3    0    0  0.61023332356E+01  0.17057076476E+02 -0.23209172386E+00  0.18117598059E+02  0.10566000000E+00 0.  1.
         13    1    4    4    0    0 -0.46764667948E+01 -0.12495056637E+02 -0.99400120873E+02  0.10029152993E+03  0.10566000000E+00 0. -1.
        -13    1    4    4    0    0 -0.10600199468E+00 -0.15221821768E+01 -0.14092918735E+02  0.14175676263E+02  0.10566000000E+00 0.  1.
         14    1    4    4    0    0 -0.13198644462E+01 -0.30398376625E+01 -0.27497837079E+02  0.27696817492E+02  0.00000000000E+00 0. -1.
<mgrwt>
<rscale>  0 0.75804165E+02</rscale>
<asrwt>0</asrwt>
<pdfrwt beam="1">  1        2 0.23192659E-01 0.75804165E+02</pdfrwt>
<pdfrwt beam="2">  1       -1 0.14660504E-02 0.75804165E+02</pdfrwt>
<totfact> 0.23135442E+05</totfact>
</mgrwt>
</event>
<event>
 8    1  0.1226832E-020  0.7693108E+02  0.7818608E-02  0.1337993E+00
          2   -1    0    0  501    0  0.00000000000E+00  0.00000000000E+00  0.40887328855E+02  0.40887328935E+02  0.25500000000E-02 0. -1.
         -1   -1    0    0    0  501 -0.00000000000E+00 -0.00000000000E+00 -0.36187198311E+02  0.36187198662E+02  0.50400000000E-02 0.  1.
         24    2    1    2    0    0 -0.71054273576E-14  0.44408920985E-15  0.47001305441E+01  0.77074527597E+02  0.76931083297E+02 0.  0.
         66    2    3    3    0    0  0.37026795404E+02 -0.31980775146E+01  0.12187373196E+02  0.39163035353E+02  0.19999987403E+01 0.  0.
        -13    1    3    3    0    0 -0.37026795404E+02  0.31980775146E+01 -0.74872426514E+01  0.37911492245E+02  0.10566000000E+00 0.  1.
         13    1    4    4    0    0  0.21876816088E+02 -0.11429256106E+01  0.73916379579E+01  0.23120312213E+02  0.10566000000E+00 0. -1.
        -13    1    4    4    0    0  0.99715772004E+01 -0.98181005462E+00  0.31884601171E+01  0.10515405118E+02  0.10566000000E+00 0.  1.
        -14    1    4    4    0    0  0.51784021155E+01 -0.10733418494E+01  0.16072751206E+01  0.55273180213E+01  0.00000000000E+00 0.  1.
<mgrwt>
<rscale>  0 0.76931083E+02</rscale>
<asrwt>0</asrwt>
<pdfrwt beam="1">  1        2 0.62903583E-02 0.76931083E+02</pdfrwt>
<pdfrwt beam="2">  1       -1 0.55672613E-02 0.76931083E+02</pdfrwt>
<totfact> 0.15948299E+05</totfact>
</mgrwt>
</event>
<event>
 8    1  0.1226832E-020  0.7922492E+02  0.7818608E-02  0.1331265E+00
         -1   -1    0    0    0  501 -0.00000000000E+00  0.00000000000E+00  0.14007108092E+02  0.14007108998E+02  0.50400000000E-02 0.  1.
          2   -1    0    0  501    0  0.00000000000E+00 -0.00000000000E+00 -0.11202505687E+03  0.11202505690E+03  0.25500000000E-02 0. -1.
         24    2    1    2    0    0  0.00000000000E+00  0.35527136788E-14 -0.98017948778E+02  0.12603216590E+03  0.79224923844E+02 0.  0.
         66    2    3    3    0    0 -0.30899738547E+02 -0.24610407895E+02 -0.44929726990E+02  0.59859388445E+02  0.19999996511E+01 0.  0.
        -13    1    3    3    0    0  0.30899738547E+02  0.24610407895E+02 -0.53088221788E+02  0.66172777452E+02  0.10566000000E+00 0.  1.
         13    1    4    4    0    0 -0.63380863877E+01 -0.47878334987E+01 -0.99811064373E+01  0.12756501810E+02  0.10566000000E+00 0. -1.
        -13    1    4    4    0    0 -0.96951252609E+00 -0.92956791224E+00 -0.12894815586E+01  0.18649337166E+01  0.10566000000E+00 0.  1.
         14    1    4    4    0    0 -0.23592139633E+02 -0.18893006484E+02 -0.33659138994E+02  0.45237952919E+02  0.00000000000E+00 0. -1.
<mgrwt>
<rscale>  0 0.79224924E+02</rscale>
<asrwt>0</asrwt>
<pdfrwt beam="1">  1        2 0.17234624E-01 0.79224924E+02</pdfrwt>
<pdfrwt beam="2">  1       -1 0.21549399E-02 0.79224924E+02</pdfrwt>
<totfact> 0.18792854E+05</totfact>
</mgrwt>
</event>
<event>
 8    1  0.1226832E-020  0.7890547E+02  0.7818608E-02  0.1332187E+00
          2   -1    0    0  501    0  0.00000000000E+00  0.00000000000E+00  0.15390807296E+03  0.15390807298E+03  0.25500000000E-02 0. -1.
         -1   -1    0    0    0  501 -0.00000000000E+00 -0.00000000000E+00 -0.10113296690E+02  0.10113297946E+02  0.50400000000E-02 0.  1.
         24    2    1    2    0    0  0.00000000000E+00  0.00000000000E+00  0.14379477627E+03  0.16402137093E+03  0.78905465200E+02 0.  0.
         66    2    3    3    0    0  0.13967777427E+02 -0.95428983551E+01  0.14597425561E+03  0.14696478834E+03  0.19999990165E+01 0.  0.
        -13    1    3    3    0    0 -0.13967777427E+02  0.95428983551E+01 -0.21794793414E+01  0.17056582585E+02  0.10566000000E+00 0.  1.
         13    1    4    4    0    0  0.60307228265E+01 -0.40040266815E+01  0.65505860681E+02  0.65904709961E+02  0.10566000000E+00 0. -1.
        -13    1    4    4    0    0  0.40967484814E+01 -0.26513408303E+01  0.46044437441E+02  0.46302422611E+02  0.10566000000E+00 0.  1.
         14    1    4    4    0    0  0.38403061187E+01 -0.28875308433E+01  0.34423957486E+02  0.34757655768E+02  0.00000000000E+00 0. -1.
<mgrwt>
<rscale>  0 0.78905465E+02</rscale>
<asrwt>0</asrwt>
<pdfrwt beam="1">  1        2 0.23678165E-01 0.78905465E+02</pdfrwt>
<pdfrwt beam="2">  1       -1 0.15558919E-02 0.78905465E+02</pdfrwt>
<totfact> 0.20948320E+05</totfact>
</mgrwt>
</event>
<event>
 8    1  0.1226832E-020  0.7984650E+02  0.7818608E-02  0.1329488E+00
          2   -1    0    0  501    0  0.00000000000E+00  0.00000000000E+00  0.61446054499E+02  0.61446054552E+02  0.25500000000E-02 0. -1.
         -1   -1    0    0    0  501 -0.00000000000E+00 -0.00000000000E+00 -0.25939270769E+02  0.25939271259E+02  0.50400000000E-02 0.  1.
         24    2    1    2    0    0  0.00000000000E+00  0.00000000000E+00  0.35506783730E+02  0.87385325810E+02  0.79846499460E+02 0.  0.
         66    2    3    3    0    0 -0.19061435346E+02  0.33686683503E+02  0.28360008207E+02  0.48025212405E+02  0.19999995395E+01 0.  0.
        -13    1    3    3    0    0  0.19061435346E+02 -0.33686683503E+02  0.71467755224E+01  0.39360113405E+02  0.10566000000E+00 0.  1.
         13    1    4    4    0    0 -0.87918634689E+01  0.15086576285E+02  0.12337377739E+02  0.21380451370E+02  0.10566000000E+00 0. -1.
        -13    1    4    4    0    0 -0.66498446411E+01  0.11387754032E+02  0.92298706744E+01  0.16096678302E+02  0.10566000000E+00 0.  1.
        -14    1    4    4    0    0 -0.36197272357E+01  0.72123531855E+01  0.67927597937E+01  0.10548082733E+02  0.00000000000E+00 0.  1.
<mgrwt>
<rscale>  0 0.79846499E+02</rscale>
<asrwt>0</asrwt>
<pdfrwt beam="1">  1        2 0.94532391E-02 0.79846499E+02</pdfrwt>
<pdfrwt beam="2">  1       -1 0.39906571E-02 0.79846499E+02</pdfrwt>
<totfact> 0.15734331E+05</totfact>
</mgrwt>
</event>
<event>
 8    1  0.1226832E-020  0.7792595E+02  0.7818608E-02  0.1335042E+00
         -1   -1    0    0    0  501 -0.00000000000E+00  0.00000000000E+00  0.17624133454E+01  0.17624205519E+01  0.50400000000E-02 0.  1.
          2   -1    0    0  501    0  0.00000000000E+00 -0.00000000000E+00 -0.86138159839E+03  0.86138159840E+03  0.25500000000E-02 0. -1.
         24    2    1    2    0    0  0.00000000000E+00 -0.17763568394E-14 -0.85961918505E+03  0.86314401895E+03  0.77925952962E+02 0.  0.
         66    2    3    3    0    0 -0.93272458287E+01  0.10544952833E+02 -0.83220190555E+03  0.83232337774E+03  0.19999997244E+01 0.  0.
        -13    1    3    3    0    0  0.93272458287E+01 -0.10544952833E+02 -0.27417279503E+02  0.30820641207E+02  0.10566000000E+00 0.  1.
         13    1    4    4    0    0 -0.71260640569E+01  0.84159674519E+01 -0.64010152753E+03  0.64019652140E+03  0.10566000000E+00 0. -1.
        -13    1    4    4    0    0 -0.17479099203E+01  0.17357249283E+01 -0.17155419251E+03  0.17157190931E+03  0.10566000000E+00 0.  1.
         14    1    4    4    0    0 -0.45327185154E+00  0.39326045307E+00 -0.20546185500E+02  0.20554947039E+02  0.00000000000E+00 0. -1.
<mgrwt>
<rscale>  0 0.77925953E+02</rscale>
<asrwt>0</asrwt>
<pdfrwt beam="1">  1        2 0.13251991E+00 0.77925953E+02</pdfrwt>
<pdfrwt beam="2">  1       -1 0.27114176E-03 0.77925953E+02</pdfrwt>
<totfact> 0.37209683E+05</totfact>
</mgrwt>
</event>
<event>
 8    1  0.1226832E-020  0.7928729E+02  0.7818608E-02  0.1331086E+00
         -1   -1    0    0    0  501 -0.00000000000E+00  0.00000000000E+00  0.20041106086E+01  0.20041169459E+01  0.50400000000E-02 0.  1.
          2   -1    0    0  501    0  0.00000000000E+00 -0.00000000000E+00 -0.78419629967E+03  0.78419629967E+03  0.25500000000E-02 0. -1.
         24    2    1    2    0    0  0.00000000000E+00  0.00000000000E+00 -0.78219218906E+03  0.78620041662E+03  0.79287290689E+02 0.  0.
         66    2    3    3    0    0  0.43480905210E+01 -0.27564615904E+02 -0.67020693392E+03  0.67079061429E+03  0.20000004262E+01 0.  0.
        -13    1    3    3    0    0 -0.43480905210E+01  0.27564615904E+02 -0.11198525514E+03  0.11540980233E+03  0.10566000000E+00 0.  1.
         13    1    4    4    0    0  0.15459485832E+01 -0.14065704440E+02 -0.33456348477E+03  0.33486261437E+03  0.10566000000E+00 0. -1.
        -13    1    4    4    0    0  0.21148712670E-01 -0.84311791749E+00 -0.17099732423E+02  0.17120844257E+02  0.10566000000E+00 0.  1.
         14    1    4    4    0    0  0.27809932252E+01 -0.12655793547E+02 -0.31854371673E+03  0.31880715566E+03  0.00000000000E+00 0. -1.
<mgrwt>
<rscale>  0 0.79287291E+02</rscale>
<asrwt>0</asrwt>
<pdfrwt beam="1">  1        2 0.12064534E+00 0.79287291E+02</pdfrwt>
<pdfrwt beam="2">  1       -1 0.30832582E-03 0.79287291E+02</pdfrwt>
<totfact> 0.35049470E+05</totfact>
</mgrwt>
</event>
<event>
 8    1  0.1226832E-020  0.7725214E+02  0.7818608E-02  0.1337035E+00
         -1   -1    0    0    0  501 -0.00000000000E+00  0.00000000000E+00  0.96895560420E+01  0.96895573527E+01  0.50400000000E-02 0.  1.
          2   -1    0    0  501    0  0.00000000000E+00 -0.00000000000E+00 -0.15397745824E+03  0.15397745826E+03  0.25500000000E-02 0. -1.
         24    2    1    2    0    0 -0.88817841970E-15  0.00000000000E+00 -0.14428790220E+03  0.16366701561E+03  0.77252140936E+02 0.  0.
         66    2    3    3    0    0 -0.77981647271E+01 -0.10899640199E+02 -0.14888329497E+03  0.14949865902E+03  0.19999999648E+01 0.  0.
        -13    1    3    3    0    0  0.77981647271E+01  0.10899640199E+02  0.45953927733E+01  0.14168356587E+02  0.10566000000E+00 0.  1.
         13    1    4    4    0    0 -0.41010104931E+01 -0.45455688972E+01 -0.61453275344E+02  0.61757563895E+02  0.10566000000E+00 0. -1.
        -13    1    4    4    0    0 -0.28716092115E+01 -0.45686783679E+01 -0.66659858333E+02  0.66877999660E+02  0.10566000000E+00 0.  1.
         14    1    4    4    0    0 -0.82554502249E+00 -0.17853929342E+01 -0.20770161291E+02  0.20863095470E+02  0.00000000000E+00 0. -1.
<mgrwt>
<rscale>  0 0.77252141E+02</rscale>
<asrwt>0</asrwt>
<pdfrwt beam="1">  1        2 0.23688838E-01 0.77252141E+02</pdfrwt>
<pdfrwt beam="2">  1       -1 0.14907011E-02 0.77252141E+02</pdfrwt>
<totfact> 0.22158397E+05</totfact>
</mgrwt>
</event>
<event>
 8    1  0.1226832E-020  0.7998941E+02  0.7818608E-02  0.1329081E+00
          2   -1    0    0  501    0  0.00000000000E+00  0.00000000000E+00  0.38444638559E+02  0.38444638643E+02  0.25500000000E-02 0. -1.
         -1   -1    0    0    0  501 -0.00000000000E+00 -0.00000000000E+00 -0.41607273824E+02  0.41607274129E+02  0.50400000000E-02 0.  1.
         24    2    1    2    0    0  0.00000000000E+00 -0.35527136788E-14 -0.31626352654E+01  0.80051912772E+02  0.79989414779E+02 0.  0.
         66    2    3    3    0    0  0.22927675347E+02 -0.23030484272E+02  0.21705820252E+02  0.39130857722E+02  0.19999726491E+01 0.  0.
        -13    1    3    3    0    0 -0.22927675347E+02  0.23030484272E+02 -0.24868455517E+02  0.40921055051E+02  0.10566000000E+00 0.  1.
         13    1    4    4    0    0  0.69637147571E+01 -0.71426929857E+01  0.67600176469E+01  0.12050742256E+02  0.10566000000E+00 0. -1.
        -13    1    4    4    0    0  0.73370593583E+01 -0.61668028635E+01  0.62887922676E+01  0.11463942158E+02  0.10566000000E+00 0.  1.
        -14    1    4    4    0    0  0.86269012317E+01 -0.97209884226E+01  0.86570103373E+01  0.15616173307E+02  0.00000000000E+00 0.  1.
<mgrwt>
<rscale>  0 0.79989415E+02</rscale>
<asrwt>0</asrwt>
<pdfrwt beam="1">  1        2 0.59145598E-02 0.79989415E+02</pdfrwt>
<pdfrwt beam="2">  1       -1 0.64011191E-02 0.79989415E+02</pdfrwt>
<totfact> 0.14145126E+05</totfact>
</mgrwt>
</event>
<event>
 8    1  0.1226832E-020  0.7698233E+02  0.7818608E-02  0.1337840E+00
          2   -1    0    0  501    0  0.00000000000E+00  0.00000000000E+00  0.78502541583E+03  0.78502541584E+03  0.25500000000E-02 0. -1.
         -1   -1    0    0    0  501 -0.00000000000E+00 -0.00000000000E+00 -0.18872857360E+01  0.18872924657E+01  0.50400000000E-02 0.  1.
         24    2    1    2    0    0 -0.88817841970E-15  0.00000000000E+00  0.78313813010E+03  0.78691270830E+03  0.76982333536E+02 0.  0.
         66    2    3    3    0    0  0.74773081087E+01 -0.18234993005E+02  0.72948958096E+03  0.72975850377E+03  0.19999998474E+01 0.  0.
        -13    1    3    3    0    0 -0.74773081087E+01  0.18234993005E+02  0.53648549139E+02  0.57154204528E+02  0.10566000000E+00 0.  1.
         13    1    4    4    0    0  0.37919458059E+01 -0.88726037866E+01  0.33252644637E+03  0.33266642549E+03  0.10566000000E+00 0.  1.
        -13    1    4    4    0    0  0.29540622192E+01 -0.82815905316E+01  0.33658809712E+03  0.33670293957E+03  0.10566000000E+00 0. -1.
        -14    1    4    4    0    0  0.73130008368E+00 -0.10807986867E+01  0.60375037463E+02  0.60389138711E+02  0.00000000000E+00 0.  1.
<mgrwt>
<rscale>  0 0.76982334E+02</rscale>
<asrwt>0</asrwt>
<pdfrwt beam="1">  1        2 0.12077315E+00 0.76982334E+02</pdfrwt>
<pdfrwt beam="2">  1       -1 0.29035214E-03 0.76982334E+02</pdfrwt>
<totfact> 0.37841650E+05</totfact>
</mgrwt>
</event>
<event>
 8    1  0.1226832E-020  0.7765639E+02  0.7818608E-02  0.1335837E+00
         -1   -1    0    0    0  501 -0.00000000000E+00  0.00000000000E+00  0.48734419820E+01  0.48734445881E+01  0.50400000000E-02 0.  1.
          2   -1    0    0  501    0  0.00000000000E+00 -0.00000000000E+00 -0.30935594424E+03  0.30935594425E+03  0.25500000000E-02 0. -1.
         24    2    1    2    0    0  0.00000000000E+00  0.00000000000E+00 -0.30448250225E+03  0.31422938883E+03  0.77656388201E+02 0.  0.
         66    2    3    3    0    0 -0.95426172455E+01 -0.36913250619E+02 -0.18151374724E+03  0.18548555213E+03  0.19999993726E+01 0.  0.
        -13    1    3    3    0    0  0.95426172455E+01  0.36913250619E+02 -0.12296875501E+03  0.12874383670E+03  0.10566000000E+00 0.  1.
         13    1    4    4    0    0 -0.78704770201E+01 -0.30417979717E+02 -0.14712557548E+03  0.15044315878E+03  0.10566000000E+00 0. -1.
        -13    1    4    4    0    0 -0.13974577620E+01 -0.47006256307E+01 -0.23884799103E+02  0.24383263968E+02  0.10566000000E+00 0.  1.
         14    1    4    4    0    0 -0.27468246340E+00 -0.17946452716E+01 -0.10503372655E+02  0.10659129384E+02  0.00000000000E+00 0. -1.
<mgrwt>
<rscale>  0 0.77656388E+02</rscale>
<asrwt>0</asrwt>
<pdfrwt beam="1">  1        2 0.47593207E-01 0.77656388E+02</pdfrwt>
<pdfrwt beam="2">  1       -1 0.74976075E-03 0.77656388E+02</pdfrwt>
<totfact> 0.27865220E+05</totfact>
</mgrwt>
</event>
<event>
 8    1  0.1226832E-020  0.8048400E+02  0.7818608E-02  0.1327683E+00
         -1   -1    0    0    0  501 -0.00000000000E+00  0.00000000000E+00  0.50393053067E+02  0.50393053319E+02  0.50400000000E-02 0.  1.
          2   -1    0    0  501    0  0.00000000000E+00 -0.00000000000E+00 -0.32135752850E+02  0.32135752952E+02  0.25500000000E-02 0. -1.
         24    2    1    2    0    0  0.00000000000E+00  0.00000000000E+00  0.18257300217E+02  0.82528806271E+02  0.80484003710E+02 0.  0.
         66    2    3    3    0    0 -0.18110829973E+02 -0.11778586959E+02 -0.25649174834E+02  0.33594901987E+02  0.19999991890E+01 0.  0.
        -13    1    3    3    0    0  0.18110829973E+02  0.11778586959E+02  0.43906475051E+02  0.48933904284E+02  0.10566000000E+00 0.  1.
         13    1    4    4    0    0 -0.32150379497E+01 -0.24089655808E+01 -0.49152631411E+01  0.63490597705E+01  0.10566000000E+00 0. -1.
        -13    1    4    4    0    0 -0.19489790257E+01 -0.77791460200E+00 -0.30716109332E+01  0.37215088514E+01  0.10566000000E+00 0.  1.
         14    1    4    4    0    0 -0.12946812997E+02 -0.85917067763E+01 -0.17662300760E+02  0.23524333365E+02  0.00000000000E+00 0. -1.
<mgrwt>
<rscale>  0 0.80484004E+02</rscale>
<asrwt>0</asrwt>
<pdfrwt beam="1">  1        2 0.49439620E-02 0.80484004E+02</pdfrwt>
<pdfrwt beam="2">  1       -1 0.77527774E-02 0.80484004E+02</pdfrwt>
<totfact> 0.13411645E+05</totfact>
</mgrwt>
</event>
<event>
 8    1  0.1226832E-020  0.7977120E+02  0.7818608E-02  0.1329702E+00
          2   -1    0    0  501    0  0.00000000000E+00  0.00000000000E+00  0.24163770470E+03  0.24163770471E+03  0.25500000000E-02 0. -1.
         -1   -1    0    0    0  501 -0.00000000000E+00 -0.00000000000E+00 -0.65836621837E+01  0.65836641129E+01  0.50400000000E-02 0.  1.
         24    2    1    2    0    0  0.00000000000E+00  0.00000000000E+00  0.23505404252E+03  0.24822136883E+03  0.79771204321E+02 0.  0.
         66    2    3    3    0    0 -0.24857125914E+01  0.36713637577E+02  0.16527994294E+03  0.16933850575E+03  0.20000101269E+01 0.  0.
        -13    1    3    3    0    0  0.24857125914E+01 -0.36713637577E+02  0.69774099573E+02  0.78882863072E+02  0.10566000000E+00 0.  1.
         13    1    4    4    0    0 -0.73586118262E+00  0.88528549604E+01  0.37952133948E+02  0.38978072911E+02  0.10566000000E+00 0. -1.
        -13    1    4    4    0    0 -0.12958814740E+01  0.10945206421E+02  0.52019657254E+02  0.53174549902E+02  0.10566000000E+00 0.  1.
        -14    1    4    4    0    0 -0.45396993471E+00  0.16915576195E+02  0.75308151742E+02  0.77185882942E+02  0.00000000000E+00 0.  1.
<mgrwt>
<rscale>  0 0.79771204E+02</rscale>
<asrwt>0</asrwt>
<pdfrwt beam="1">  1        2 0.37175024E-01 0.79771204E+02</pdfrwt>
<pdfrwt beam="2">  1       -1 0.10128715E-02 0.79771204E+02</pdfrwt>
<totfact> 0.23758003E+05</totfact>
</mgrwt>
</event>
<event>
 8    1  0.1226832E-020  0.7976735E+02  0.7818608E-02  0.1329713E+00
          2   -1    0    0  501    0  0.00000000000E+00  0.00000000000E+00  0.48382876397E+02  0.48382876464E+02  0.25500000000E-02 0. -1.
         -1   -1    0    0    0  501 -0.00000000000E+00 -0.00000000000E+00 -0.32877489087E+02  0.32877489473E+02  0.50400000000E-02 0.  1.
         24    2    1    2    0    0  0.00000000000E+00  0.00000000000E+00  0.15505387311E+02  0.81260365937E+02  0.79767349440E+02 0.  0.
         66    2    3    3    0    0  0.17098649349E+02 -0.17295869199E+02  0.39926951404E+02  0.46793935056E+02  0.20000021826E+01 0.  0.
        -13    1    3    3    0    0 -0.17098649349E+02  0.17295869199E+02 -0.24421564093E+02  0.34466430881E+02  0.10566000000E+00 0.  1.
         13    1    4    4    0    0  0.40201040844E+01 -0.48759064523E+01  0.10285249863E+02  0.12072001879E+02  0.10566000000E+00 0. -1.
        -13    1    4    4    0    0  0.22190219879E+01 -0.25592860460E+01  0.48719193941E+01  0.59347086084E+01  0.10566000000E+00 0.  1.
        -14    1    4    4    0    0  0.10859523277E+02 -0.98606767007E+01  0.24769782147E+02  0.28787224569E+02  0.00000000000E+00 0.  1.
<mgrwt>
<rscale>  0 0.79767349E+02</rscale>
<asrwt>0</asrwt>
<pdfrwt beam="1">  1        2 0.74435195E-02 0.79767349E+02</pdfrwt>
<pdfrwt beam="2">  1       -1 0.50580753E-02 0.79767349E+02</pdfrwt>
<totfact> 0.14955922E+05</totfact>
</mgrwt>
</event>
<event>
 8    1  0.1226832E-020  0.8094434E+02  0.7818608E-02  0.1326393E+00
         -1   -1    0    0    0  501 -0.00000000000E+00  0.00000000000E+00  0.73864324951E+02  0.73864325123E+02  0.50400000000E-02 0.  1.
          2   -1    0    0  501    0  0.00000000000E+00 -0.00000000000E+00 -0.22175748882E+02  0.22175749029E+02  0.25500000000E-02 0. -1.
         24    2    1    2    0    0  0.00000000000E+00  0.00000000000E+00  0.51688576069E+02  0.96040074152E+02  0.80944344750E+02 0.  0.
         66    2    3    3    0    0  0.12581635975E+02 -0.15031824405E+02 -0.16118077478E+02  0.25456742281E+02  0.19999993062E+01 0.  0.
        -13    1    3    3    0    0 -0.12581635975E+02  0.15031824405E+02  0.67806653547E+02  0.70583331871E+02  0.10566000000E+00 0.  1.
         13    1    4    4    0    0  0.10404028494E+02 -0.13106387981E+02 -0.14117473063E+02  0.21893730256E+02  0.10566000000E+00 0. -1.
        -13    1    4    4    0    0  0.36820170016E+00 -0.39272294280E+00 -0.19395766432E+00  0.58188264534E+00  0.10566000000E+00 0.  1.
         14    1    4    4    0    0  0.18094057806E+01 -0.15327134809E+01 -0.18066467505E+01  0.29811293790E+01  0.00000000000E+00 0. -1.
<mgrwt>
<rscale>  0 0.80944345E+02</rscale>
<asrwt>0</asrwt>
<pdfrwt beam="1">  1        2 0.34116537E-02 0.80944345E+02</pdfrwt>
<pdfrwt beam="2">  1       -1 0.11363742E-01 0.80944345E+02</pdfrwt>
<totfact> 0.12257915E+05</totfact>
</mgrwt>
</event>
<event>
 8    1  0.1226832E-020  0.8809897E+02  0.7818608E-02  0.1307522E+00
          2   -1    0    0  501    0  0.00000000000E+00  0.00000000000E+00  0.24030928520E+02  0.24030928655E+02  0.25500000000E-02 0. -1.
         -1   -1    0    0    0  501 -0.00000000000E+00 -0.00000000000E+00 -0.80744154722E+02  0.80744154880E+02  0.50400000000E-02 0.  1.
         24    2    1    2    0    0  0.88817841970E-15 -0.71054273576E-14 -0.56713226203E+02  0.10477508353E+03  0.88098967663E+02 0.  0.
         66    2    3    3    0    0  0.71943070338E+01 -0.32310132945E+02  0.61519788716E+01  0.33727578879E+02  0.19999970948E+01 0.  0.
        -13    1    3    3    0    0 -0.71943070338E+01  0.32310132945E+02 -0.62865205074E+02  0.71047504655E+02  0.10566000000E+00 0.  1.
         13    1    4    4    0    0  0.86205204199E-01 -0.74972717150E+00  0.37924712260E+00  0.85118422478E+00  0.10566000000E+00 0. -1.
        -13    1    4    4    0    0  0.17283486875E+01 -0.83765277084E+01  0.19238519197E+01  0.87673129225E+01  0.10566000000E+00 0.  1.
         14    1    4    4    0    0  0.53797531421E+01 -0.23183878065E+02  0.38488798293E+01  0.24109081732E+02  0.00000000000E+00 0. -1.
<mgrwt>
<rscale>  0 0.88098968E+02</rscale>
<asrwt>0</asrwt>
<pdfrwt beam="1">  1        2 0.36970660E-02 0.88098968E+02</pdfrwt>
<pdfrwt beam="2">  1       -1 0.12422178E-01 0.88098968E+02</pdfrwt>
<totfact> 0.97704281E+04</totfact>
</mgrwt>
</event>
<event>
 8    1  0.1226832E-020  0.7957528E+02  0.7818608E-02  0.1330261E+00
          2   -1    0    0  501    0  0.00000000000E+00  0.00000000000E+00  0.23691755058E+03  0.23691755060E+03  0.25500000000E-02 0. -1.
         -1   -1    0    0    0  501 -0.00000000000E+00 -0.00000000000E+00 -0.66818856645E+01  0.66818875653E+01  0.50400000000E-02 0.  1.
         24    2    1    2    0    0  0.00000000000E+00  0.00000000000E+00  0.23023566492E+03  0.24359943816E+03  0.79575278023E+02 0.  0.
         66    2    3    3    0    0  0.16934556512E+01 -0.27403127851E+02  0.20323785149E+03  0.20509369441E+03  0.19999998026E+01 0.  0.
        -13    1    3    3    0    0 -0.16934556512E+01  0.27403127851E+02  0.26997813423E+02  0.38505743750E+02  0.10566000000E+00 0.  1.
         13    1    4    4    0    0  0.15272022508E+01 -0.22627705249E+02  0.16222139439E+03  0.16379907617E+03  0.10566000000E+00 0. -1.
        -13    1    4    4    0    0  0.15139387581E+00 -0.17912232253E+01  0.15447996041E+02  0.15552592918E+02  0.10566000000E+00 0.  1.
         14    1    4    4    0    0  0.14859524561E-01 -0.29841993765E+01  0.25568461064E+02  0.25742025327E+02  0.00000000000E+00 0. -1.
<mgrwt>
<rscale>  0 0.79575278E+02</rscale>
<asrwt>0</asrwt>
<pdfrwt beam="1">  1        2 0.36448855E-01 0.79575278E+02</pdfrwt>
<pdfrwt beam="2">  1       -1 0.10279825E-02 0.79575278E+02</pdfrwt>
<totfact> 0.23744567E+05</totfact>
</mgrwt>
</event>
<event>
 8    1  0.1226832E-020  0.8095624E+02  0.7818608E-02  0.1326359E+00
         -1   -1    0    0    0  501 -0.00000000000E+00  0.00000000000E+00  0.11104934577E+03  0.11104934588E+03  0.50400000000E-02 0.  1.
          2   -1    0    0  501    0  0.00000000000E+00 -0.00000000000E+00 -0.14754504938E+02  0.14754505158E+02  0.25500000000E-02 0. -1.
         24    2    1    2    0    0 -0.88817841970E-15  0.35527136788E-14  0.96294840831E+02  0.12580385104E+03  0.80956238587E+02 0.  0.
         66    2    3    3    0    0  0.55574381139E+01 -0.20947495913E+02 -0.49043926655E+01  0.22309992635E+02  0.20000001380E+01 0.  0.
        -13    1    3    3    0    0 -0.55574381139E+01  0.20947495913E+02  0.10119923350E+03  0.10349385841E+03  0.10566000000E+00 0.  1.
         13    1    4    4    0    0  0.11528626157E+01 -0.44461265525E+01 -0.15479894195E+01  0.48481510713E+01  0.10566000000E+00 0. -1.
        -13    1    4    4    0    0  0.31134293657E+01 -0.92011320269E+01 -0.16307870601E+01  0.98501220024E+01  0.10566000000E+00 0.  1.
        -14    1    4    4    0    0  0.12911461325E+01 -0.73002373335E+01 -0.17256161859E+01  0.76117195615E+01  0.00000000000E+00 0.  1.
<mgrwt>
<rscale>  0 0.80956239E+02</rscale>
<asrwt>0</asrwt>
<pdfrwt beam="1">  1        2 0.22699237E-02 0.80956239E+02</pdfrwt>
<pdfrwt beam="2">  1       -1 0.17084516E-01 0.80956239E+02</pdfrwt>
<totfact> 0.11245714E+05</totfact>
</mgrwt>
</event>
<event>
 8    1  0.1226832E-020  0.8471630E+02  0.7818608E-02  0.1316176E+00
         -1   -1    0    0    0  501 -0.00000000000E+00  0.00000000000E+00  0.46709968052E+02  0.46709968324E+02  0.50400000000E-02 0.  1.
          2   -1    0    0  501    0  0.00000000000E+00 -0.00000000000E+00 -0.38411780378E+02  0.38411780463E+02  0.25500000000E-02 0. -1.
         24    2    1    2    0    0  0.00000000000E+00  0.35527136788E-14  0.82981876738E+01  0.85121748786E+02  0.84716304203E+02 0.  0.
         66    2    3    3    0    0  0.34309630322E+02 -0.23870897515E+02  0.10909475146E+02  0.43243347822E+02  0.20000004713E+01 0.  0.
        -13    1    3    3    0    0 -0.34309630322E+02  0.23870897515E+02 -0.26112874720E+01  0.41878400964E+02  0.10566000000E+00 0.  1.
         13    1    4    4    0    0  0.11517150726E+02 -0.81946072785E+01  0.29361203472E+01  0.14437046652E+02  0.10566000000E+00 0. -1.
        -13    1    4    4    0    0  0.77883810328E+01 -0.54157932569E+01  0.22563131500E+01  0.97515028985E+01  0.10566000000E+00 0.  1.
        -14    1    4    4    0    0  0.15004098563E+02 -0.10260496980E+02  0.57170416486E+01  0.19054798272E+02  0.00000000000E+00 0.  1.
<mgrwt>
<rscale>  0 0.84716304E+02</rscale>
<asrwt>0</asrwt>
<pdfrwt beam="1">  1        2 0.59095047E-02 0.84716304E+02</pdfrwt>
<pdfrwt beam="2">  1       -1 0.71861489E-02 0.84716304E+02</pdfrwt>
<totfact> 0.12054791E+05</totfact>
</mgrwt>
</event>
<event>
 8    1  0.1226832E-020  0.7436887E+02  0.7818608E-02  0.1345837E+00
         -1   -1    0    0    0  501 -0.00000000000E+00  0.00000000000E+00  0.65674674918E+01  0.65674694256E+01  0.50400000000E-02 0.  1.
          2   -1    0    0  501    0  0.00000000000E+00 -0.00000000000E+00 -0.21053502559E+03  0.21053502560E+03  0.25500000000E-02 0. -1.
         24    2    1    2    0    0  0.00000000000E+00  0.00000000000E+00 -0.20396755809E+03  0.21710249503E+03  0.74368868433E+02 0.  0.
         66    2    3    3    0    0 -0.33625406259E+02  0.24107042939E+01 -0.14767620423E+03  0.15148841784E+03  0.20000005670E+01 0.  0.
        -13    1    3    3    0    0  0.33625406259E+02 -0.24107042939E+01 -0.56291353861E+02  0.65614077185E+02  0.10566000000E+00 0.  1.
         13    1    4    4    0    0 -0.15448280083E+02  0.91830051217E+00 -0.64591217073E+02  0.66419342969E+02  0.10566000000E+00 0. -1.
        -13    1    4    4    0    0 -0.72748206926E+01  0.10552776939E+01 -0.34181817821E+02  0.34963473235E+02  0.10566000000E+00 0.  1.
         14    1    4    4    0    0 -0.10902305483E+02  0.43712608782E+00 -0.48903169339E+02  0.50105601637E+02  0.00000000000E+00 0. -1.
<mgrwt>
<rscale>  0 0.74368868E+02</rscale>
<asrwt>0</asrwt>
<pdfrwt beam="1">  1        2 0.32389999E-01 0.74368868E+02</pdfrwt>
<pdfrwt beam="2">  1       -1 0.10103799E-02 0.74368868E+02</pdfrwt>
<totfact> 0.27200996E+05</totfact>
</mgrwt>
</event>
<event>
 8    1  0.1226832E-020  0.8048270E+02  0.7818608E-02  0.1327687E+00
         -1   -1    0    0    0  501 -0.00000000000E+00  0.00000000000E+00  0.76580388299E+02  0.76580388465E+02  0.50400000000E-02 0.  1.
          2   -1    0    0  501    0  0.00000000000E+00 -0.00000000000E+00 -0.21145963846E+02  0.21145964000E+02  0.25500000000E-02 0. -1.
         24    2    1    2    0    0 -0.88817841970E-15  0.00000000000E+00  0.55434424453E+02  0.97726352466E+02  0.80482697220E+02 0.  0.
         66    2    3    3    0    0 -0.73350944527E+01  0.39532351856E+02  0.28786355451E+02  0.49490046643E+02  0.20000006623E+01 0.  0.
        -13    1    3    3    0    0  0.73350944527E+01 -0.39532351856E+02  0.26648069002E+02  0.48236305823E+02  0.10566000000E+00 0.  1.
         13    1    4    4    0    0 -0.40287510672E+01  0.19626877684E+02  0.13415503714E+02  0.24112902494E+02  0.10566000000E+00 0. -1.
        -13    1    4    4    0    0 -0.77288314519E+00  0.30870126499E+01  0.24679655944E+01  0.40285249990E+01  0.10566000000E+00 0. -1.
         14    1    4    4    0    0 -0.25334602403E+01  0.16818461522E+02  0.12902886143E+02  0.21348619149E+02  0.00000000000E+00 0. -1.
<mgrwt>
<rscale>  0 0.80482697E+02</rscale>
<asrwt>0</asrwt>
<pdfrwt beam="1">  1        2 0.32532252E-02 0.80482697E+02</pdfrwt>
<pdfrwt beam="2">  1       -1 0.11781598E-01 0.80482697E+02</pdfrwt>
<totfact> 0.12341408E+05</totfact>
</mgrwt>
</event>
<event>
 8    1  0.1226832E-020  0.8319376E+02  0.7818608E-02  0.1320225E+00
         -1   -1    0    0    0  501 -0.00000000000E+00  0.00000000000E+00  0.20107852369E+01  0.20107915532E+01  0.50400000000E-02 0.  1.
          2   -1    0    0  501    0  0.00000000000E+00 -0.00000000000E+00 -0.86050855436E+03  0.86050855437E+03  0.25500000000E-02 0. -1.
         24    2    1    2    0    0  0.35527136788E-14  0.00000000000E+00 -0.85849776913E+03  0.86251934592E+03  0.83193764740E+02 0.  0.
         66    2    3    3    0    0  0.16189989199E+02 -0.23913245871E+02 -0.73954399850E+03  0.74011031934E+03  0.19999990223E+01 0.  0.
        -13    1    3    3    0    0 -0.16189989199E+02  0.23913245871E+02 -0.11895377063E+03  0.12240902658E+03  0.10566000000E+00 0.  1.
         13    1    4    4    0    0  0.86937841883E+01 -0.13119093096E+02 -0.40622495736E+03  0.40652972786E+03  0.10566000000E+00 0. -1.
        -13    1    4    4    0    0  0.66201800647E+01 -0.87317698968E+01 -0.27217968888E+03  0.27240019235E+03  0.10566000000E+00 0. -1.
         14    1    4    4    0    0  0.87602494556E+00 -0.20623828784E+01 -0.61139352251E+02  0.61180399120E+02  0.00000000000E+00 0. -1.
<mgrwt>
<rscale>  0 0.83193765E+02</rscale>
<asrwt>0</asrwt>
<pdfrwt beam="1">  1        2 0.13238564E+00 0.83193765E+02</pdfrwt>
<pdfrwt beam="2">  1       -1 0.30935275E-03 0.83193765E+02</pdfrwt>
<totfact> 0.31388678E+05</totfact>
</mgrwt>
</event>
<event>
 8    1  0.1226832E-020  0.7975919E+02  0.7818608E-02  0.1329736E+00
          2   -1    0    0  501    0  0.00000000000E+00  0.00000000000E+00  0.32242470460E+03  0.32242470461E+03  0.25500000000E-02 0. -1.
         -1   -1    0    0    0  501 -0.00000000000E+00 -0.00000000000E+00 -0.49325671015E+01  0.49325696764E+01  0.50400000000E-02 0.  1.
         24    2    1    2    0    0  0.35527136788E-14  0.71054273576E-14  0.31749213749E+03  0.32735727428E+03  0.79759185394E+02 0.  0.
         66    2    3    3    0    0  0.22307131700E+02  0.31987054798E+02  0.19259030142E+03  0.19650904304E+03  0.19999994572E+01 0.  0.
        -13    1    3    3    0    0 -0.22307131700E+02 -0.31987054798E+02  0.12490183607E+03  0.13084823124E+03  0.10566000000E+00 0.  1.
         13    1    4    4    0    0  0.79610540360E+01  0.11753045574E+02  0.71021271603E+02  0.72426132341E+02  0.10566000000E+00 0. -1.
        -13    1    4    4    0    0  0.30381450105E+01  0.33462167086E+01  0.21141202139E+02  0.21619183224E+02  0.10566000000E+00 0.  1.
        -14    1    4    4    0    0  0.11307932653E+02  0.16887792515E+02  0.10042782768E+03  0.10246372748E+03  0.00000000000E+00 0.  1.
<mgrwt>
<rscale>  0 0.79759185E+02</rscale>
<asrwt>0</asrwt>
<pdfrwt beam="1">  1        2 0.49603799E-01 0.79759185E+02</pdfrwt>
<pdfrwt beam="2">  1       -1 0.75885670E-03 0.79759185E+02</pdfrwt>
<totfact> 0.26374788E+05</totfact>
</mgrwt>
</event>
<event>
 8    1  0.1226832E-020  0.7998940E+02  0.7818608E-02  0.1329082E+00
         -1   -1    0    0    0  501 -0.00000000000E+00  0.00000000000E+00  0.72790679179E+02  0.72790679353E+02  0.50400000000E-02 0.  1.
          2   -1    0    0  501    0  0.00000000000E+00 -0.00000000000E+00 -0.21975013045E+02  0.21975013193E+02  0.25500000000E-02 0. -1.
         24    2    1    2    0    0  0.00000000000E+00  0.00000000000E+00  0.50815666133E+02  0.94765692547E+02  0.79989402793E+02 0.  0.
         66    2    3    3    0    0 -0.29958744678E+02  0.19806652002E+02  0.46405118732E+01  0.36267950016E+02  0.20000004171E+01 0.  0.
        -13    1    3    3    0    0  0.29958744678E+02 -0.19806652002E+02  0.46175154260E+02  0.58497742531E+02  0.10566000000E+00 0.  1.
         13    1    4    4    0    0 -0.45222332932E+00  0.16171674493E+00 -0.23673348472E-01  0.49232378391E+00  0.10566000000E+00 0.  1.
        -13    1    4    4    0    0 -0.19152548223E+01  0.10522858582E+01  0.71049208182E-01  0.21889994489E+01  0.10566000000E+00 0.  1.
         14    1    4    4    0    0 -0.27591266527E+02  0.18592649399E+02  0.45931360135E+01  0.33586626783E+02  0.00000000000E+00 0. -1.
<mgrwt>
<rscale>  0 0.79989403E+02</rscale>
<asrwt>0</asrwt>
<pdfrwt beam="1">  1        2 0.33807713E-02 0.79989403E+02</pdfrwt>
<pdfrwt beam="2">  1       -1 0.11198566E-01 0.79989403E+02</pdfrwt>
<totfact> 0.12657517E+05</totfact>
</mgrwt>
</event>
<event>
 8    1  0.1226832E-020  0.7951676E+02  0.7818608E-02  0.1330428E+00
          2   -1    0    0  501    0  0.00000000000E+00  0.00000000000E+00  0.28520820279E+02  0.28520820393E+02  0.25500000000E-02 0. -1.
         -1   -1    0    0    0  501 -0.00000000000E+00 -0.00000000000E+00 -0.55423676853E+02  0.55423677083E+02  0.50400000000E-02 0.  1.
         24    2    1    2    0    0  0.00000000000E+00 -0.35527136788E-14 -0.26902856574E+02  0.83944497476E+02  0.79516759017E+02 0.  0.
         66    2    3    3    0    0  0.19524557809E+02  0.22196065643E+02  0.14567429642E+02  0.33016415923E+02  0.20000065872E+01 0.  0.
        -13    1    3    3    0    0 -0.19524557809E+02 -0.22196065643E+02 -0.41470286216E+02  0.50928081552E+02  0.10566000000E+00 0.  1.
         13    1    4    4    0    0  0.35167635843E+01  0.48300878041E+01  0.29237773307E+01  0.66525943975E+01  0.10566000000E+00 0. -1.
        -13    1    4    4    0    0  0.47638928206E+01  0.52107969094E+01  0.41349478329E+01  0.81826668546E+01  0.10566000000E+00 0.  1.
         14    1    4    4    0    0  0.11243901405E+02  0.12155180930E+02  0.75087044783E+01  0.18181154671E+02  0.00000000000E+00 0. -1.
<mgrwt>
<rscale>  0 0.79516759E+02</rscale>
<asrwt>0</asrwt>
<pdfrwt beam="1">  1        2 0.43878185E-02 0.79516759E+02</pdfrwt>
<pdfrwt beam="2">  1       -1 0.85267195E-02 0.79516759E+02</pdfrwt>
<totfact> 0.13550436E+05</totfact>
</mgrwt>
</event>
<event>
 8    1  0.1226832E-020  0.8589605E+02  0.7818608E-02  0.1313106E+00
         -1   -1    0    0    0  501 -0.00000000000E+00  0.00000000000E+00  0.19657977724E+02  0.19657978370E+02  0.50400000000E-02 0.  1.
          2   -1    0    0  501    0  0.00000000000E+00 -0.00000000000E+00 -0.93831259380E+02  0.93831259414E+02  0.25500000000E-02 0. -1.
         24    2    1    2    0    0 -0.88817841970E-15 -0.17763568394E-14 -0.74173281655E+02  0.11348923778E+03  0.85896049859E+02 0.  0.
         66    2    3    3    0    0  0.67569836645E+01  0.91828453001E+01 -0.91783435829E+02  0.92510434909E+02  0.19999996328E+01 0.  0.
        -13    1    3    3    0    0 -0.67569836645E+01 -0.91828453001E+01  0.17610154173E+02  0.20978802875E+02  0.10566000000E+00 0.  1.
         13    1    4    4    0    0  0.55694708648E+01  0.67418581317E+01 -0.69714215368E+02  0.70260619448E+02  0.10566000000E+00 0. -1.
        -13    1    4    4    0    0  0.30305310819E+00  0.10159078830E+01 -0.11385903047E+02  0.11435640002E+02  0.10566000000E+00 0.  1.
        -14    1    4    4    0    0  0.88445969148E+00  0.14250792854E+01 -0.10683317413E+02  0.10814175459E+02  0.00000000000E+00 0.  1.
<mgrwt>
<rscale>  0 0.85896050E+02</rscale>
<asrwt>0</asrwt>
<pdfrwt beam="1">  1        2 0.14435578E-01 0.85896050E+02</pdfrwt>
<pdfrwt beam="2">  1       -1 0.30243044E-02 0.85896050E+02</pdfrwt>
<totfact> 0.14378960E+05</totfact>
</mgrwt>
</event>
<event>
 8    1  0.1226832E-020  0.7935960E+02  0.7818608E-02  0.1330879E+00
          2   -1    0    0  501    0  0.00000000000E+00  0.00000000000E+00  0.16766690598E+03  0.16766690600E+03  0.25500000000E-02 0. -1.
         -1   -1    0    0    0  501 -0.00000000000E+00 -0.00000000000E+00 -0.93905611259E+01  0.93905624784E+01  0.50400000000E-02 0.  1.
         24    2    1    2    0    0  0.00000000000E+00  0.00000000000E+00  0.15827634486E+03  0.17705746848E+03  0.79359598055E+02 0.  0.
         66    2    3    3    0    0  0.24144783341E+02  0.19221451954E+02  0.13474378708E+03  0.13824732525E+03  0.20000011759E+01 0.  0.
        -13    1    3    3    0    0 -0.24144783341E+02 -0.19221451954E+02  0.23532557775E+02  0.38810143227E+02  0.10566000000E+00 0.  1.
         13    1    4    4    0    0  0.16864473174E+02  0.12450318133E+02  0.92152921830E+02  0.94507105780E+02  0.10566000000E+00 0. -1.
        -13    1    4    4    0    0  0.41820431805E+01  0.34869537167E+01  0.23399416732E+02  0.24024824636E+02  0.10566000000E+00 0.  1.
         14    1    4    4    0    0  0.30982669872E+01  0.32841801052E+01  0.19191448521E+02  0.19715394838E+02  0.00000000000E+00 0. -1.
<mgrwt>
<rscale>  0 0.79359598E+02</rscale>
<asrwt>0</asrwt>
<pdfrwt beam="1">  1        2 0.25794909E-01 0.79359598E+02</pdfrwt>
<pdfrwt beam="2">  1       -1 0.14447018E-02 0.79359598E+02</pdfrwt>
<totfact> 0.21220118E+05</totfact>
</mgrwt>
</event>
<event>
 8    1  0.1226832E-020  0.8109392E+02  0.7818608E-02  0.1325975E+00
         -1   -1    0    0    0  501 -0.00000000000E+00  0.00000000000E+00  0.32165204351E+01  0.32165243837E+01  0.50400000000E-02 0.  1.
          2   -1    0    0  501    0  0.00000000000E+00 -0.00000000000E+00 -0.51112834160E+03  0.51112834160E+03  0.25500000000E-02 0. -1.
         24    2    1    2    0    0  0.00000000000E+00  0.00000000000E+00 -0.50791182116E+03  0.51434486599E+03  0.81093915254E+02 0.  0.
         66    2    3    3    0    0 -0.25898556969E+02 -0.29036811731E+02 -0.32591826781E+03  0.32823861592E+03  0.19999999329E+01 0.  0.
        -13    1    3    3    0    0  0.25898556969E+02  0.29036811731E+02 -0.18199355335E+03  0.18610625006E+03  0.10566000000E+00 0.  1.
         13    1    4    4    0    0 -0.93692840450E+01 -0.10549861979E+02 -0.11982912209E+03  0.12065700450E+03  0.10566000000E+00 0. -1.
        -13    1    4    4    0    0 -0.43420401308E+01 -0.46395657772E+01 -0.58468470508E+02  0.58812856509E+02  0.10566000000E+00 0.  1.
        -14    1    4    4    0    0 -0.12187232793E+02 -0.13847383975E+02 -0.14762067522E+03  0.14876875491E+03  0.00000000000E+00 0.  1.
<mgrwt>
<rscale>  0 0.81093915E+02</rscale>
<asrwt>0</asrwt>
<pdfrwt beam="1">  1        2 0.78635065E-01 0.81093915E+02</pdfrwt>
<pdfrwt beam="2">  1       -1 0.49485001E-03 0.81093915E+02</pdfrwt>
<totfact> 0.29597406E+05</totfact>
</mgrwt>
</event>
<event>
 8    1  0.1226832E-020  0.7766797E+02  0.7818608E-02  0.1335803E+00
          2   -1    0    0  501    0  0.00000000000E+00  0.00000000000E+00  0.21382957625E+02  0.21382957777E+02  0.25500000000E-02 0. -1.
         -1   -1    0    0    0  501 -0.00000000000E+00 -0.00000000000E+00 -0.70527112834E+02  0.70527113015E+02  0.50400000000E-02 0.  1.
         24    2    1    2    0    0 -0.17763568394E-14 -0.35527136788E-14 -0.49144155210E+02  0.91910070791E+02  0.77667967153E+02 0.  0.
         66    2    3    3    0    0  0.12992051206E+02  0.25791065172E+02  0.60904769590E+01  0.29581520415E+02  0.20000008099E+01 0.  0.
        -13    1    3    3    0    0 -0.12992051206E+02 -0.25791065172E+02 -0.55234632169E+02  0.62328550377E+02  0.10566000000E+00 0.  1.
         13    1    4    4    0    0  0.50976652937E+01  0.85152914903E+01  0.19416345525E+01  0.10113233379E+02  0.10566000000E+00 0.  1.
        -13    1    4    4    0    0  0.40813831339E+01  0.79324322120E+01  0.16618197669E+01  0.90749092589E+01  0.10566000000E+00 0. -1.
        -14    1    4    4    0    0  0.38130027785E+01  0.93433414693E+01  0.24870226396E+01  0.10393377777E+02  0.00000000000E+00 0.  1.
<mgrwt>
<rscale>  0 0.77667967E+02</rscale>
<asrwt>0</asrwt>
<pdfrwt beam="1">  1        2 0.32896858E-02 0.77667967E+02</pdfrwt>
<pdfrwt beam="2">  1       -1 0.10850325E-01 0.77667967E+02</pdfrwt>
<totfact> 0.13691304E+05</totfact>
</mgrwt>
</event>
<event>
 8    1  0.1226832E-020  0.7873661E+02  0.7818608E-02  0.1332675E+00
          2   -1    0    0  501    0  0.00000000000E+00  0.00000000000E+00  0.10153519178E+02  0.10153519499E+02  0.25500000000E-02 0. -1.
         -1   -1    0    0    0  501 -0.00000000000E+00 -0.00000000000E+00 -0.15264298489E+03  0.15264298498E+03  0.50400000000E-02 0.  1.
         24    2    1    2    0    0  0.00000000000E+00  0.00000000000E+00 -0.14248946571E+03  0.16279650447E+03  0.78736611748E+02 0.  0.
         66    2    3    3    0    0 -0.18884311028E+02  0.34406479841E+02 -0.76928554787E+02  0.86385332100E+02  0.20000005662E+01 0.  0.
        -13    1    3    3    0    0  0.18884311028E+02 -0.34406479841E+02 -0.65560910928E+02  0.76411172375E+02  0.10566000000E+00 0.  1.
         13    1    4    4    0    0 -0.14881478358E+02  0.26583120999E+02 -0.58483643473E+02  0.65942918028E+02  0.10566000000E+00 0. -1.
        -13    1    4    4    0    0 -0.19460249838E+01  0.39075875218E+01 -0.84133500082E+01  0.94790229388E+01  0.10566000000E+00 0.  1.
        -14    1    4    4    0    0 -0.20568076858E+01  0.39157713205E+01 -0.10031561306E+02  0.10963391133E+02  0.00000000000E+00 0.  1.
<mgrwt>
<rscale>  0 0.78736612E+02</rscale>
<asrwt>0</asrwt>
<pdfrwt beam="1">  1        2 0.15620800E-02 0.78736612E+02</pdfrwt>
<pdfrwt beam="2">  1       -1 0.23483535E-01 0.78736612E+02</pdfrwt>
<totfact> 0.11180132E+05</totfact>
</mgrwt>
</event>
<event>
 8    1  0.1257032E-020  0.7019498E+02  0.7818608E-02  0.1359431E+00
          2   -1    0    0  501    0  0.00000000000E+00  0.00000000000E+00  0.51770532953E+03  0.51770532954E+03  0.25500000000E-02 0. -1.
         -1   -1    0    0    0  501 -0.00000000000E+00 -0.00000000000E+00 -0.23794084080E+01  0.23794137458E+01  0.50400000000E-02 0.  1.
         24    2    1    2    0    0 -0.17763568394E-14  0.17763568394E-14  0.51532592112E+03  0.52008474328E+03  0.70194979981E+02 0.  0.
         66    2    3    3    0    0 -0.14690091116E+02  0.12649906401E+02  0.47439231949E+03  0.47479247224E+03  0.20000005754E+01 0.  0.
        -13    1    3    3    0    0  0.14690091116E+02 -0.12649906401E+02  0.40933601637E+02  0.45292271040E+02  0.10566000000E+00 0.  1.
         13    1    4    4    0    0 -0.73358765983E+01  0.61959738241E+01  0.24043624775E+03  0.24062794014E+03  0.10566000000E+00 0. -1.
        -13    1    4    4    0    0 -0.93489745596E+00  0.30451833104E+00  0.23099180350E+02  0.23120338698E+02  0.10566000000E+00 0.  1.
        -14    1    4    4    0    0 -0.64193170618E+01  0.61494142462E+01  0.21085689138E+03  0.21104419341E+03  0.00000000000E+00 0.  1.
<mgrwt>
<rscale>  0 0.70194980E+02</rscale>
<asrwt>0</asrwt>
<pdfrwt beam="1">  1        2 0.79647070E-01 0.70194980E+02</pdfrwt>
<pdfrwt beam="2">  1       -1 0.36606280E-03 0.70194980E+02</pdfrwt>
<totfact> 0.43180786E+05</totfact>
</mgrwt>
</event>
<event>
 8    1  0.1226832E-020  0.7386296E+02  0.7818608E-02  0.1347429E+00
         -1   -1    0    0    0  501 -0.00000000000E+00  0.00000000000E+00  0.23563811408E+01  0.23563865307E+01  0.50400000000E-02 0.  1.
          2   -1    0    0  501    0  0.00000000000E+00 -0.00000000000E+00 -0.57882510419E+03  0.57882510419E+03  0.25500000000E-02 0. -1.
         24    2    1    2    0    0 -0.35527136788E-14 -0.17763568394E-14 -0.57646872305E+03  0.58118149072E+03  0.73862957624E+02 0.  0.
         66    2    3    3    0    0 -0.29722697010E+02 -0.80921929752E+01 -0.44835073269E+03  0.44941217365E+03  0.20000043886E+01 0.  0.
        -13    1    3    3    0    0  0.29722697010E+02  0.80921929752E+01 -0.12811799036E+03  0.13176931707E+03  0.10566000000E+00 0.  1.
         13    1    4    4    0    0 -0.23418765005E+02 -0.65068061396E+01 -0.35750074112E+03  0.35832606401E+03  0.10566000000E+00 0. -1.
        -13    1    4    4    0    0 -0.15995249818E+01 -0.23701195661E+00 -0.18524437511E+02  0.18595176901E+02  0.10566000000E+00 0.  1.
        -14    1    4    4    0    0 -0.47044070232E+01 -0.13483748790E+01 -0.72325554055E+02  0.72490932741E+02  0.00000000000E+00 0.  1.
<mgrwt>
<rscale>  0 0.73862958E+02</rscale>
<asrwt>0</asrwt>
<pdfrwt beam="1">  1        2 0.89049903E-01 0.73862958E+02</pdfrwt>
<pdfrwt beam="2">  1       -1 0.36252105E-03 0.73862958E+02</pdfrwt>
<totfact> 0.39155779E+05</totfact>
</mgrwt>
</event>
<event>
 8    1  0.1226832E-020  0.8112163E+02  0.7818608E-02  0.1325898E+00
          2   -1    0    0  501    0  0.00000000000E+00  0.00000000000E+00  0.40856685252E+03  0.40856685253E+03  0.25500000000E-02 0. -1.
         -1   -1    0    0    0  501 -0.00000000000E+00 -0.00000000000E+00 -0.40267071517E+01  0.40267103059E+01  0.50400000000E-02 0.  1.
         24    2    1    2    0    0  0.71054273576E-14 -0.17763568394E-14  0.40454014537E+03  0.41259356284E+03  0.81121630145E+02 0.  0.
         66    2    3    3    0    0  0.36395561288E+02 -0.14027745077E+02  0.25851536954E+03  0.26144905969E+03  0.20000016305E+01 0.  0.
        -13    1    3    3    0    0 -0.36395561288E+02  0.14027745077E+02  0.14602477583E+03  0.15114450315E+03  0.10566000000E+00 0.  1.
         13    1    4    4    0    0  0.25707004462E+02 -0.94493174924E+01  0.18042157188E+03  0.18248861455E+03  0.10566000000E+00 0. -1.
        -13    1    4    4    0    0  0.61967945951E+01 -0.22594591571E+01  0.42223781779E+02  0.42735984026E+02  0.10566000000E+00 0.  1.
         14    1    4    4    0    0  0.44917622308E+01 -0.23189684279E+01  0.35870015890E+02  0.36224461106E+02  0.00000000000E+00 0. -1.
<mgrwt>
<rscale>  0 0.81121630E+02</rscale>
<asrwt>0</asrwt>
<pdfrwt beam="1">  1        2 0.62856455E-01 0.81121630E+02</pdfrwt>
<pdfrwt beam="2">  1       -1 0.61949349E-03 0.81121630E+02</pdfrwt>
<totfact> 0.27445997E+05</totfact>
</mgrwt>
</event>
<event>
 8    1  0.1226832E-020  0.8004238E+02  0.7818608E-02  0.1328931E+00
         -1   -1    0    0    0  501 -0.00000000000E+00  0.00000000000E+00  0.24988637275E+01  0.24988688101E+01  0.50400000000E-02 0.  1.
          2   -1    0    0  501    0  0.00000000000E+00 -0.00000000000E+00 -0.64096899803E+03  0.64096899803E+03  0.25500000000E-02 0. -1.
         24    2    1    2    0    0  0.00000000000E+00  0.71054273576E-14 -0.63847013430E+03  0.64346786684E+03  0.80042384185E+02 0.  0.
         66    2    3    3    0    0  0.40844963095E+01 -0.32755936887E+02 -0.50099204514E+03  0.50208232771E+03  0.19999995658E+01 0.  0.
        -13    1    3    3    0    0 -0.40844963095E+01  0.32755936887E+02 -0.13747808916E+03  0.14138553913E+03  0.10566000000E+00 0.  1.
         13    1    4    4    0    0  0.68450581874E+00 -0.54836026020E+01 -0.74112121459E+02  0.74317939671E+02  0.10566000000E+00 0. -1.
        -13    1    4    4    0    0  0.23184394281E+01 -0.15760076582E+02 -0.24883145187E+03  0.24934084659E+03  0.10566000000E+00 0.  1.
         14    1    4    4    0    0  0.10815510626E+01 -0.11512257703E+02 -0.17804847181E+03  0.17842354145E+03  0.00000000000E+00 0. -1.
<mgrwt>
<rscale>  0 0.80042384E+02</rscale>
<asrwt>0</asrwt>
<pdfrwt beam="1">  1        2 0.98610485E-01 0.80042384E+02</pdfrwt>
<pdfrwt beam="2">  1       -1 0.38444148E-03 0.80042384E+02</pdfrwt>
<totfact> 0.32694505E+05</totfact>
</mgrwt>
</event>
<event>
 8    1  0.1226832E-020  0.7939617E+02  0.7818608E-02  0.1330774E+00
          2   -1    0    0  501    0  0.00000000000E+00  0.00000000000E+00  0.21794831533E+02  0.21794831682E+02  0.25500000000E-02 0. -1.
         -1   -1    0    0    0  501 -0.00000000000E+00 -0.00000000000E+00 -0.72307868353E+02  0.72307868529E+02  0.50400000000E-02 0.  1.
         24    2    1    2    0    0  0.00000000000E+00  0.44408920985E-15 -0.50513036821E+02  0.94102700210E+02  0.79396166772E+02 0.  0.
         66    2    3    3    0    0  0.35785264240E+02  0.24835550247E+01 -0.51871499504E+01  0.36299582934E+02  0.20000035788E+01 0.  0.
        -13    1    3    3    0    0 -0.35785264240E+02 -0.24835550247E+01 -0.45325886870E+02  0.57803117276E+02  0.10566000000E+00 0.  1.
         13    1    4    4    0    0  0.43963857490E+01  0.95616695483E-01 -0.11133939536E+01  0.45374178051E+01  0.10566000000E+00 0.  1.
        -13    1    4    4    0    0  0.12807713091E+02  0.96173266738E+00 -0.11090599113E+01  0.12891998382E+02  0.10566000000E+00 0. -1.
         14    1    4    4    0    0  0.18581165399E+02  0.14262056619E+01 -0.29646960855E+01  0.18870166747E+02  0.00000000000E+00 0. -1.
<mgrwt>
<rscale>  0 0.79396167E+02</rscale>
<asrwt>0</asrwt>
<pdfrwt beam="1">  1        2 0.33530511E-02 0.79396167E+02</pdfrwt>
<pdfrwt beam="2">  1       -1 0.11124287E-01 0.79396167E+02</pdfrwt>
<totfact> 0.12908050E+05</totfact>
</mgrwt>
</event>
<event>
 8    1  0.1226832E-020  0.7925543E+02  0.7818608E-02  0.1331178E+00
          2   -1    0    0  501    0  0.00000000000E+00  0.00000000000E+00  0.71793019736E+02  0.71793019781E+02  0.25500000000E-02 0. -1.
         -1   -1    0    0    0  501 -0.00000000000E+00 -0.00000000000E+00 -0.21873374609E+02  0.21873375190E+02  0.50400000000E-02 0.  1.
         24    2    1    2    0    0  0.35527136788E-14 -0.35527136788E-14  0.49919645127E+02  0.93666394971E+02  0.79255426170E+02 0.  0.
         66    2    3    3    0    0 -0.31357299749E+02  0.21083327515E+02  0.38987393152E+02  0.54330504948E+02  0.19999991019E+01 0.  0.
        -13    1    3    3    0    0  0.31357299749E+02 -0.21083327515E+02  0.10932251974E+02  0.39335890023E+02  0.10566000000E+00 0.  1.
         13    1    4    4    0    0 -0.18527358027E+02  0.12214730542E+02  0.23304713598E+02  0.32180482868E+02  0.10566000000E+00 0. -1.
        -13    1    4    4    0    0 -0.92319771857E+01  0.61899143539E+01  0.10430481765E+02  0.15243049444E+02  0.10566000000E+00 0.  1.
        -14    1    4    4    0    0 -0.35979645365E+01  0.26786826193E+01  0.52521977888E+01  0.69069726359E+01  0.00000000000E+00 0.  1.
<mgrwt>
<rscale>  0 0.79255426E+02</rscale>
<asrwt>0</asrwt>
<pdfrwt beam="1">  1        2 0.11045080E-01 0.79255426E+02</pdfrwt>
<pdfrwt beam="2">  1       -1 0.33651346E-02 0.79255426E+02</pdfrwt>
<totfact> 0.16662914E+05</totfact>
</mgrwt>
</event>
<event>
 8    1  0.1226832E-020  0.7969203E+02  0.7818608E-02  0.1329928E+00
          2   -1    0    0  501    0  0.00000000000E+00  0.00000000000E+00  0.17752300321E+03  0.17752300322E+03  0.25500000000E-02 0. -1.
         -1   -1    0    0    0  501 -0.00000000000E+00 -0.00000000000E+00 -0.89436560592E+01  0.89436574793E+01  0.50400000000E-02 0.  1.
         24    2    1    2    0    0  0.00000000000E+00 -0.35527136788E-14  0.16857934715E+03  0.18646666070E+03  0.79692027641E+02 0.  0.
         66    2    3    3    0    0  0.15653818428E+02 -0.28508991424E+02  0.13810272929E+03  0.14189492052E+03  0.20000018633E+01 0.  0.
        -13    1    3    3    0    0 -0.15653818428E+02  0.28508991424E+02  0.30476617858E+02  0.44571740189E+02  0.10566000000E+00 0.  1.
         13    1    4    4    0    0  0.26822935771E+01 -0.45864824150E+01  0.20453631239E+02  0.21132740350E+02  0.10566000000E+00 0. -1.
        -13    1    4    4    0    0  0.88068238475E+01 -0.16565096807E+02  0.83585487520E+02  0.85665088960E+02  0.10566000000E+00 0.  1.
        -14    1    4    4    0    0  0.41647010031E+01 -0.73574122021E+01  0.34063610530E+02  0.35097091206E+02  0.00000000000E+00 0.  1.
<mgrwt>
<rscale>  0 0.79692028E+02</rscale>
<asrwt>0</asrwt>
<pdfrwt beam="1">  1        2 0.27311229E-01 0.79692028E+02</pdfrwt>
<pdfrwt beam="2">  1       -1 0.13759473E-02 0.79692028E+02</pdfrwt>
<totfact> 0.21391776E+05</totfact>
</mgrwt>
</event>
<event>
 8    1  0.1226832E-020  0.7817323E+02  0.7818608E-02  0.1334317E+00
         -1   -1    0    0    0  501 -0.00000000000E+00  0.00000000000E+00  0.42399356195E+01  0.42399386150E+01  0.50400000000E-02 0.  1.
          2   -1    0    0  501    0  0.00000000000E+00 -0.00000000000E+00 -0.36032692878E+03  0.36032692879E+03  0.25500000000E-02 0. -1.
         24    2    1    2    0    0 -0.27755575616E-16  0.00000000000E+00 -0.35608699316E+03  0.36456686740E+03  0.78173231420E+02 0.  0.
         66    2    3    3    0    0 -0.13422796068E+00 -0.32775908257E+02 -0.27725170943E+03  0.27918952086E+03  0.19999981732E+01 0.  0.
        -13    1    3    3    0    0  0.13422796068E+00  0.32775908257E+02 -0.78835283722E+02  0.85377346543E+02  0.10566000000E+00 0.  1.
         13    1    4    4    0    0  0.23491957423E-01 -0.24863719829E+02 -0.20945164983E+03  0.21092228402E+03  0.10566000000E+00 0. -1.
        -13    1    4    4    0    0 -0.36996875388E+00 -0.62988243038E+01 -0.56314322260E+02  0.56666799099E+02  0.10566000000E+00 0.  1.
         14    1    4    4    0    0  0.21224883578E+00 -0.16133641234E+01 -0.11485737341E+02  0.11600437734E+02  0.00000000000E+00 0. -1.
<mgrwt>
<rscale>  0 0.78173231E+02</rscale>
<asrwt>0</asrwt>
<pdfrwt beam="1">  1        2 0.55434888E-01 0.78173231E+02</pdfrwt>
<pdfrwt beam="2">  1       -1 0.65229831E-03 0.78173231E+02</pdfrwt>
<totfact> 0.28924101E+05</totfact>
</mgrwt>
</event>
<event>
 8    1  0.1226832E-020  0.7959046E+02  0.7818608E-02  0.1330218E+00
          2   -1    0    0  501    0  0.00000000000E+00  0.00000000000E+00  0.89618079278E+02  0.89618079315E+02  0.25500000000E-02 0. -1.
         -1   -1    0    0    0  501 -0.00000000000E+00 -0.00000000000E+00 -0.17671215254E+02  0.17671215973E+02  0.50400000000E-02 0.  1.
         24    2    1    2    0    0 -0.35527136788E-14  0.00000000000E+00  0.71946864024E+02  0.10728929529E+03  0.79590461993E+02 0.  0.
         66    2    3    3    0    0 -0.18745363690E+02 -0.34414848783E+02  0.45127342555E+02  0.59801735100E+02  0.19999995618E+01 0.  0.
        -13    1    3    3    0    0  0.18745363690E+02  0.34414848783E+02  0.26819521469E+02  0.47487560187E+02  0.10566000000E+00 0.  1.
         13    1    4    4    0    0 -0.40545970303E+01 -0.81649472686E+01  0.10795530509E+02  0.14130136729E+02  0.10566000000E+00 0.  1.
        -13    1    4    4    0    0 -0.26625739229E+01 -0.44905443057E+01  0.68308972569E+01  0.85980584684E+01  0.10566000000E+00 0. -1.
         14    1    4    4    0    0 -0.12028192737E+02 -0.21759357209E+02  0.27500914789E+02  0.37073539903E+02  0.00000000000E+00 0. -1.
<mgrwt>
<rscale>  0 0.79590462E+02</rscale>
<asrwt>0</asrwt>
<pdfrwt beam="1">  1        2 0.13787397E-01 0.79590462E+02</pdfrwt>
<pdfrwt beam="2">  1       -1 0.27186486E-02 0.79590462E+02</pdfrwt>
<totfact> 0.17439798E+05</totfact>
</mgrwt>
</event>
<event>
 8    1  0.1226832E-020  0.8097206E+02  0.7818608E-02  0.1326315E+00
         -1   -1    0    0    0  501 -0.00000000000E+00  0.00000000000E+00  0.10869759027E+02  0.10869760195E+02  0.50400000000E-02 0.  1.
          2   -1    0    0  501    0  0.00000000000E+00 -0.00000000000E+00 -0.15079622616E+03  0.15079622618E+03  0.25500000000E-02 0. -1.
         24    2    1    2    0    0  0.00000000000E+00  0.35527136788E-14 -0.13992646713E+03  0.16166598637E+03  0.80972062754E+02 0.  0.
         66    2    3    3    0    0 -0.48446715908E+01  0.22575897030E+02 -0.13634380821E+03  0.13829958788E+03  0.20000005658E+01 0.  0.
        -13    1    3    3    0    0  0.48446715908E+01 -0.22575897030E+02 -0.35826589246E+01  0.23366398493E+02  0.10566000000E+00 0.  1.
         13    1    4    4    0    0 -0.22349507451E+01  0.11323683558E+02 -0.63074376126E+02  0.64121828591E+02  0.10566000000E+00 0. -1.
        -13    1    4    4    0    0 -0.25723413766E+01  0.10216422872E+02 -0.66498527673E+02  0.67327985141E+02  0.10566000000E+00 0.  1.
        -14    1    4    4    0    0 -0.37379469071E-01  0.10357906002E+01 -0.67709044070E+01  0.68497741481E+01  0.00000000000E+00 0.  1.
<mgrwt>
<rscale>  0 0.80972063E+02</rscale>
<asrwt>0</asrwt>
<pdfrwt beam="1">  1        2 0.23199418E-01 0.80972063E+02</pdfrwt>
<pdfrwt beam="2">  1       -1 0.16722708E-02 0.80972063E+02</pdfrwt>
<totfact> 0.19431081E+05</totfact>
</mgrwt>
</event>
<event>
 8    1  0.1226832E-020  0.7893504E+02  0.7818608E-02  0.1332101E+00
          2   -1    0    0  501    0  0.00000000000E+00  0.00000000000E+00  0.49974580145E+03  0.49974580146E+03  0.25500000000E-02 0. -1.
         -1   -1    0    0    0  501 -0.00000000000E+00 -0.00000000000E+00 -0.31169532403E+01  0.31169573150E+01  0.50400000000E-02 0.  1.
         24    2    1    2    0    0  0.00000000000E+00  0.35527136788E-14  0.49662884821E+03  0.50286275877E+03  0.78935044721E+02 0.  0.
         66    2    3    3    0    0 -0.50452390192E+01  0.19472008489E+02  0.46461077187E+03  0.46505030146E+03  0.19999997472E+01 0.  0.
        -13    1    3    3    0    0  0.50452390192E+01 -0.19472008489E+02  0.32018076336E+02  0.37812457308E+02  0.10566000000E+00 0.  1.
         13    1    4    4    0    0 -0.13378893222E+01  0.59209005889E+01  0.15859489038E+03  0.15871105012E+03  0.10566000000E+00 0. -1.
        -13    1    4    4    0    0 -0.15309299007E+01  0.60449761843E+01  0.12778702957E+03  0.12793913230E+03  0.10566000000E+00 0.  1.
        -14    1    4    4    0    0 -0.21764197964E+01  0.75061317160E+01  0.17822885192E+03  0.17840011904E+03  0.00000000000E+00 0.  1.
<mgrwt>
<rscale>  0 0.78935045E+02</rscale>
<asrwt>0</asrwt>
<pdfrwt beam="1">  1        2 0.76883959E-01 0.78935045E+02</pdfrwt>
<pdfrwt beam="2">  1       -1 0.47953165E-03 0.78935045E+02</pdfrwt>
<totfact> 0.31527868E+05</totfact>
</mgrwt>
</event>
<event>
 8    1  0.1226832E-020  0.7889520E+02  0.7818608E-02  0.1332216E+00
          2   -1    0    0  501    0  0.00000000000E+00  0.00000000000E+00  0.71582698257E+03  0.71582698258E+03  0.25500000000E-02 0. -1.
         -1   -1    0    0    0  501 -0.00000000000E+00 -0.00000000000E+00 -0.21738644944E+01  0.21738703369E+01  0.50400000000E-02 0.  1.
         24    2    1    2    0    0  0.00000000000E+00  0.00000000000E+00  0.71365311808E+03  0.71800085291E+03  0.78895195307E+02 0.  0.
         66    2    3    3    0    0  0.18848569288E+02  0.22083551082E+02  0.59974803574E+03  0.60045371029E+03  0.20000084888E+01 0.  0.
        -13    1    3    3    0    0 -0.18848569288E+02 -0.22083551082E+02  0.11390508233E+03  0.11754714262E+03  0.10566000000E+00 0.  1.
         13    1    4    4    0    0  0.65003647747E+01  0.76696407066E+01  0.22055751290E+03  0.22078656162E+03  0.10566000000E+00 0. -1.
        -13    1    4    4    0    0  0.16416529333E+01  0.24406509340E+01  0.63951503025E+02  0.64019197937E+02  0.10566000000E+00 0. -1.
         14    1    4    4    0    0  0.10706551580E+02  0.11973259441E+02  0.31523901982E+03  0.31564795074E+03  0.00000000000E+00 0. -1.
<mgrwt>
<rscale>  0 0.78895195E+02</rscale>
<asrwt>0</asrwt>
<pdfrwt beam="1">  1        2 0.11012730E+00 0.78895195E+02</pdfrwt>
<pdfrwt beam="2">  1       -1 0.33444094E-03 0.78895195E+02</pdfrwt>
<totfact> 0.34856693E+05</totfact>
</mgrwt>
</event>
<event>
 8    1  0.1226832E-020  0.7990752E+02  0.7818608E-02  0.1329314E+00
          2   -1    0    0  501    0  0.00000000000E+00  0.00000000000E+00  0.65998236822E+03  0.65998236823E+03  0.25500000000E-02 0. -1.
         -1   -1    0    0    0  501 -0.00000000000E+00 -0.00000000000E+00 -0.24187028879E+01  0.24187081390E+01  0.50400000000E-02 0.  1.
         24    2    1    2    0    0  0.00000000000E+00  0.00000000000E+00  0.65756366533E+03  0.66240107637E+03  0.79907521567E+02 0.  0.
         66    2    3    3    0    0  0.27284476787E+02  0.91301164889E+01  0.55849024625E+03  0.55923443819E+03  0.19999984857E+01 0.  0.
        -13    1    3    3    0    0 -0.27284476787E+02 -0.91301164889E+01  0.99073419080E+02  0.10316663818E+03  0.10566000000E+00 0.  1.
         13    1    4    4    0    0  0.31107166168E+01  0.14239097150E+01  0.65715204629E+02  0.65804280713E+02  0.10566000000E+00 0.  1.
        -13    1    4    4    0    0  0.86155113453E+01  0.22508811022E+01  0.16236182060E+03  0.16260585922E+03  0.10566000000E+00 0. -1.
         14    1    4    4    0    0  0.15558248825E+02  0.54553256717E+01  0.33041322103E+03  0.33082429825E+03  0.00000000000E+00 0. -1.
<mgrwt>
<rscale>  0 0.79907522E+02</rscale>
<asrwt>0</asrwt>
<pdfrwt beam="1">  1        2 0.10153576E+00 0.79907522E+02</pdfrwt>
<pdfrwt beam="2">  1       -1 0.37210852E-03 0.79907522E+02</pdfrwt>
<totfact> 0.33083084E+05</totfact>
</mgrwt>
</event>
<event>
 8    1  0.1226832E-020  0.7814100E+02  0.7818608E-02  0.1334411E+00
          2   -1    0    0  501    0  0.00000000000E+00  0.00000000000E+00  0.18327316513E+03  0.18327316515E+03  0.25500000000E-02 0. -1.
         -1   -1    0    0    0  501 -0.00000000000E+00 -0.00000000000E+00 -0.83291170272E+01  0.83291185521E+01  0.50400000000E-02 0.  1.
         24    2    1    2    0    0 -0.88817841970E-15  0.00000000000E+00  0.17494404810E+03  0.19160228370E+03  0.78140995338E+02 0.  0.
         66    2    3    3    0    0  0.67483675227E+01 -0.28162911348E+02  0.23316120740E+02  0.37233473507E+02  0.20000058124E+01 0.  0.
        -13    1    3    3    0    0 -0.67483675227E+01  0.28162911348E+02  0.15162792737E+03  0.15436881019E+03  0.10566000000E+00 0.  1.
         13    1    4    4    0    0  0.23280260900E+01 -0.79341097444E+01  0.71199289263E+01  0.10912119632E+02  0.10566000000E+00 0. -1.
        -13    1    4    4    0    0  0.27043629195E+01 -0.11423232477E+02  0.83901572732E+01  0.14429474077E+02  0.10566000000E+00 0.  1.
         14    1    4    4    0    0  0.17159785131E+01 -0.88055691262E+01  0.78060345400E+01  0.11891879798E+02  0.00000000000E+00 0. -1.
<mgrwt>
<rscale>  0 0.78140995E+02</rscale>
<asrwt>0</asrwt>
<pdfrwt beam="1">  1        2 0.28195871E-01 0.78140995E+02</pdfrwt>
<pdfrwt beam="2">  1       -1 0.12814028E-02 0.78140995E+02</pdfrwt>
<totfact> 0.22775797E+05</totfact>
</mgrwt>
</event>
<event>
 8    1  0.1226832E-020  0.8153196E+02  0.7818608E-02  0.1324759E+00
          2   -1    0    0  501    0  0.00000000000E+00  0.00000000000E+00  0.19944434424E+02  0.19944434587E+02  0.25500000000E-02 0. -1.
         -1   -1    0    0    0  501 -0.00000000000E+00 -0.00000000000E+00 -0.83324754449E+02  0.83324754601E+02  0.50400000000E-02 0.  1.
         24    2    1    2    0    0  0.00000000000E+00  0.00000000000E+00 -0.63380320025E+02  0.10326918919E+03  0.81531959802E+02 0.  0.
         66    2    3    3    0    0  0.77804855324E+01 -0.17578022371E+02  0.13789055358E+02  0.23741543136E+02  0.19999993010E+01 0.  0.
        -13    1    3    3    0    0 -0.77804855324E+01  0.17578022371E+02 -0.77169375383E+02  0.79527646052E+02  0.10566000000E+00 0.  1.
         13    1    4    4    0    0  0.34482119110E+01 -0.75164227955E+01  0.64892120275E+01  0.10512269679E+02  0.10566000000E+00 0. -1.
        -13    1    4    4    0    0  0.18665936445E+01 -0.33560396872E+01  0.19813635691E+01  0.43225154534E+01  0.10566000000E+00 0.  1.
        -14    1    4    4    0    0  0.24656799769E+01 -0.67055598886E+01  0.53184797615E+01  0.89067580040E+01  0.00000000000E+00 0.  1.
<mgrwt>
<rscale>  0 0.81531960E+02</rscale>
<asrwt>0</asrwt>
<pdfrwt beam="1">  1        2 0.30683746E-02 0.81531960E+02</pdfrwt>
<pdfrwt beam="2">  1       -1 0.12819193E-01 0.81531960E+02</pdfrwt>
<totfact> 0.11749405E+05</totfact>
</mgrwt>
</event>
<event>
 8    1  0.1226832E-020  0.8545293E+02  0.7818608E-02  0.1314252E+00
          2   -1    0    0  501    0  0.00000000000E+00  0.00000000000E+00  0.91572374550E+01  0.91572378100E+01  0.25500000000E-02 0. -1.
         -1   -1    0    0    0  501 -0.00000000000E+00 -0.00000000000E+00 -0.19935606216E+03  0.19935606222E+03  0.50400000000E-02 0.  1.
         24    2    1    2    0    0 -0.71054273576E-14  0.17763568394E-14 -0.19019882471E+03  0.20851330003E+03  0.85452930739E+02 0.  0.
         66    2    3    3    0    0  0.36649072311E+02 -0.12179177168E+02 -0.50686759528E+02  0.63754485616E+02  0.19999967337E+01 0.  0.
        -13    1    3    3    0    0 -0.36649072311E+02  0.12179177168E+02 -0.13951206518E+03  0.14475881442E+03  0.10566000000E+00 0.  1.
         13    1    4    4    0    0  0.18577146331E+02 -0.55098333190E+01 -0.26091539528E+02  0.32499972738E+02  0.10566000000E+00 0. -1.
        -13    1    4    4    0    0  0.29776121217E+01 -0.10757987372E+01 -0.45902058172E+01  0.55771561167E+01  0.10566000000E+00 0.  1.
         14    1    4    4    0    0  0.15094313858E+02 -0.55935451120E+01 -0.20005014183E+02  0.25677356761E+02  0.00000000000E+00 0. -1.
<mgrwt>
<rscale>  0 0.85452931E+02</rscale>
<asrwt>0</asrwt>
<pdfrwt beam="1">  1        2 0.14088059E-02 0.85452931E+02</pdfrwt>
<pdfrwt beam="2">  1       -1 0.30670160E-01 0.85452931E+02</pdfrwt>
<totfact> 0.84281210E+04</totfact>
</mgrwt>
</event>
<event>
 8    1  0.1226832E-020  0.7581047E+02  0.7818608E-02  0.1341379E+00
          2   -1    0    0  501    0  0.00000000000E+00  0.00000000000E+00  0.81057658414E+01  0.81057662426E+01  0.25500000000E-02 0. -1.
         -1   -1    0    0    0  501 -0.00000000000E+00 -0.00000000000E+00 -0.17725735719E+03  0.17725735726E+03  0.50400000000E-02 0.  1.
         24    2    1    2    0    0  0.00000000000E+00  0.00000000000E+00 -0.16915159135E+03  0.18536312350E+03  0.75810465633E+02 0.  0.
         66    2    3    3    0    0  0.26145680527E+02 -0.21646699297E+02 -0.43528997116E+02  0.55235403373E+02  0.19999988081E+01 0.  0.
        -13    1    3    3    0    0 -0.26145680527E+02  0.21646699297E+02 -0.12562259423E+03  0.13012772013E+03  0.10566000000E+00 0.  1.
         13    1    4    4    0    0  0.79905274013E+01 -0.63447915625E+01 -0.13715436960E+02  0.17094715065E+02  0.10566000000E+00 0. -1.
        -13    1    4    4    0    0  0.90542132876E+01 -0.84787309723E+01 -0.16059634550E+02  0.20292626323E+02  0.10566000000E+00 0.  1.
        -14    1    4    4    0    0  0.91009398378E+01 -0.68231767625E+01 -0.13753925606E+02  0.17848061986E+02  0.00000000000E+00 0.  1.
<mgrwt>
<rscale>  0 0.75810466E+02</rscale>
<asrwt>0</asrwt>
<pdfrwt beam="1">  1        2 0.12470411E-02 0.75810466E+02</pdfrwt>
<pdfrwt beam="2">  1       -1 0.27270360E-01 0.75810466E+02</pdfrwt>
<totfact> 0.11824862E+05</totfact>
</mgrwt>
</event>
<event>
 8    1  0.1226832E-020  0.8035742E+02  0.7818608E-02  0.1328040E+00
          2   -1    0    0  501    0  0.00000000000E+00  0.00000000000E+00  0.52134189856E+03  0.52134189857E+03  0.25500000000E-02 0. -1.
         -1   -1    0    0    0  501 -0.00000000000E+00 -0.00000000000E+00 -0.30964854412E+01  0.30964895429E+01  0.50400000000E-02 0.  1.
         24    2    1    2    0    0  0.00000000000E+00 -0.88817841970E-15  0.51824541312E+03  0.52443838811E+03  0.80357418474E+02 0.  0.
         66    2    3    3    0    0  0.15709319143E+02  0.68007529290E+01  0.49633211698E+03  0.49663125485E+03  0.20000001309E+01 0.  0.
        -13    1    3    3    0    0 -0.15709319143E+02 -0.68007529290E+01  0.21913296140E+02  0.27807133259E+02  0.10566000000E+00 0.  1.
         13    1    4    4    0    0  0.10594108527E+02  0.44963953005E+01  0.31220036861E+03  0.31241244218E+03  0.10566000000E+00 0. -1.
        -13    1    4    4    0    0  0.37265826352E+01  0.19779632905E+01  0.13128376326E+03  0.13135157943E+03  0.10566000000E+00 0.  1.
         14    1    4    4    0    0  0.13886279810E+01  0.32639433798E+00  0.52847985104E+02  0.52867233240E+02  0.00000000000E+00 0. -1.
<mgrwt>
<rscale>  0 0.80357418E+02</rscale>
<asrwt>0</asrwt>
<pdfrwt beam="1">  1        2 0.80206413E-01 0.80357418E+02</pdfrwt>
<pdfrwt beam="2">  1       -1 0.47638289E-03 0.80357418E+02</pdfrwt>
<totfact> 0.30498219E+05</totfact>
</mgrwt>
</event>
<event>
 8    1  0.1226832E-020  0.8202683E+02  0.7818608E-02  0.1323396E+00
          2   -1    0    0  501    0  0.00000000000E+00  0.00000000000E+00  0.90227425506E+03  0.90227425507E+03  0.25500000000E-02 0. -1.
         -1   -1    0    0    0  501 -0.00000000000E+00 -0.00000000000E+00 -0.18642858629E+01  0.18642926756E+01  0.50400000000E-02 0.  1.
         24    2    1    2    0    0  0.00000000000E+00  0.00000000000E+00  0.90040996920E+03  0.90413854774E+03  0.82026830236E+02 0.  0.
         66    2    3    3    0    0  0.59250797101E+01 -0.27736880793E+02  0.77664288557E+03  0.77716318289E+03  0.20000008200E+01 0.  0.
        -13    1    3    3    0    0 -0.59250797101E+01  0.27736880793E+02  0.12376708363E+03  0.12697536485E+03  0.10566000000E+00 0.  1.
         13    1    4    4    0    0  0.29626688295E+01 -0.11967164138E+02  0.32785844409E+03  0.32809017198E+03  0.10566000000E+00 0. -1.
        -13    1    4    4    0    0  0.24869612308E+01 -0.99698827131E+01  0.28389607844E+03  0.28408199178E+03  0.10566000000E+00 0.  1.
         14    1    4    4    0    0  0.47544964980E+00 -0.57998339423E+01  0.16488836305E+03  0.16499101913E+03  0.00000000000E+00 0. -1.
<mgrwt>
<rscale>  0 0.82026830E+02</rscale>
<asrwt>0</asrwt>
<pdfrwt beam="1">  1        2 0.13881159E+00 0.82026830E+02</pdfrwt>
<pdfrwt beam="2">  1       -1 0.28681340E-03 0.82026830E+02</pdfrwt>
<totfact> 0.32754720E+05</totfact>
</mgrwt>
</event>
<event>
 8    1  0.1226832E-020  0.8001774E+02  0.7818608E-02  0.1329001E+00
         -1   -1    0    0    0  501 -0.00000000000E+00  0.00000000000E+00  0.30374546270E+01  0.30374588084E+01  0.50400000000E-02 0.  1.
          2   -1    0    0  501    0  0.00000000000E+00 -0.00000000000E+00 -0.52699016730E+03  0.52699016730E+03  0.25500000000E-02 0. -1.
         24    2    1    2    0    0  0.00000000000E+00  0.00000000000E+00 -0.52395271267E+03  0.53002762611E+03  0.80017743827E+02 0.  0.
         66    2    3    3    0    0  0.22582895423E+02  0.21717131331E+02 -0.42668442086E+03  0.42783783839E+03  0.19999986822E+01 0.  0.
        -13    1    3    3    0    0 -0.22582895423E+02 -0.21717131331E+02 -0.97268291812E+02  0.10218978772E+03  0.10566000000E+00 0.  1.
         13    1    4    4    0    0  0.21988644974E+01  0.21194950110E+01 -0.46241169212E+02  0.46342034464E+02  0.10566000000E+00 0. -1.
        -13    1    4    4    0    0  0.50452870800E+01  0.57986415152E+01 -0.10324346265E+03  0.10352923698E+03  0.10566000000E+00 0.  1.
        -14    1    4    4    0    0  0.15338743845E+02  0.13798994805E+02 -0.27719978900E+03  0.27796656695E+03  0.00000000000E+00 0.  1.
<mgrwt>
<rscale>  0 0.80017744E+02</rscale>
<asrwt>0</asrwt>
<pdfrwt beam="1">  1        2 0.81075338E-01 0.80017744E+02</pdfrwt>
<pdfrwt beam="2">  1       -1 0.46730145E-03 0.80017744E+02</pdfrwt>
<totfact> 0.30939774E+05</totfact>
</mgrwt>
</event>
<event>
 8    1  0.1226832E-020  0.7818933E+02  0.7818608E-02  0.1334270E+00
          2   -1    0    0  501    0  0.00000000000E+00  0.00000000000E+00  0.78846336021E+03  0.78846336021E+03  0.25500000000E-02 0. -1.
         -1   -1    0    0    0  501 -0.00000000000E+00 -0.00000000000E+00 -0.19384417324E+01  0.19384482845E+01  0.50400000000E-02 0.  1.
         24    2    1    2    0    0  0.00000000000E+00  0.00000000000E+00  0.78652491847E+03  0.79040180850E+03  0.78189331061E+02 0.  0.
         66    2    3    3    0    0 -0.11955174353E+02  0.15175783821E+02  0.73679604894E+03  0.73705199839E+03  0.19999996025E+01 0.  0.
        -13    1    3    3    0    0  0.11955174353E+02 -0.15175783821E+02  0.49728869537E+02  0.53349810102E+02  0.10566000000E+00 0.  1.
         13    1    4    4    0    0 -0.11487996736E+01  0.14718110012E+01  0.64144229309E+02  0.64171483433E+02  0.10566000000E+00 0. -1.
        -13    1    4    4    0    0 -0.74462636422E+01  0.89669204245E+01  0.41806641664E+03  0.41822887560E+03  0.10566000000E+00 0.  1.
         14    1    4    4    0    0 -0.33601110376E+01  0.47370523954E+01  0.25458540299E+03  0.25465163936E+03  0.00000000000E+00 0. -1.
<mgrwt>
<rscale>  0 0.78189331E+02</rscale>
<asrwt>0</asrwt>
<pdfrwt beam="1">  1        2 0.12130197E+00 0.78189331E+02</pdfrwt>
<pdfrwt beam="2">  1       -1 0.29822253E-03 0.78189331E+02</pdfrwt>
<totfact> 0.36375915E+05</totfact>
</mgrwt>
</event>
<event>
 8    1  0.1226832E-020  0.8240740E+02  0.7818608E-02  0.1322355E+00
          2   -1    0    0  501    0  0.00000000000E+00  0.00000000000E+00  0.13610614805E+02  0.13610615044E+02  0.25500000000E-02 0. -1.
         -1   -1    0    0    0  501 -0.00000000000E+00 -0.00000000000E+00 -0.12473681586E+03  0.12473681596E+03  0.50400000000E-02 0.  1.
         24    2    1    2    0    0  0.00000000000E+00  0.00000000000E+00 -0.11112620106E+03  0.13834743101E+03  0.82407397150E+02 0.  0.
         66    2    3    3    0    0 -0.18366584226E+01 -0.39328916547E+02 -0.35338055219E+02  0.52942564609E+02  0.20000024544E+01 0.  0.
        -13    1    3    3    0    0  0.18366584226E+01  0.39328916547E+02 -0.75788145836E+02  0.85404866397E+02  0.10566000000E+00 0.  1.
         13    1    4    4    0    0 -0.15375055689E+01 -0.17649918528E+02 -0.16015949869E+02  0.23883160630E+02  0.10566000000E+00 0. -1.
        -13    1    4    4    0    0  0.37803525527E-01 -0.17622192829E+02 -0.15318283609E+02  0.23349605692E+02  0.10566000000E+00 0.  1.
        -14    1    4    4    0    0 -0.33695637918E+00 -0.40568051897E+01 -0.40038217415E+01  0.57097982877E+01  0.00000000000E+00 0.  1.
<mgrwt>
<rscale>  0 0.82407397E+02</rscale>
<asrwt>0</asrwt>
<pdfrwt beam="1">  1        2 0.20939408E-02 0.82407397E+02</pdfrwt>
<pdfrwt beam="2">  1       -1 0.19190279E-01 0.82407397E+02</pdfrwt>
<totfact> 0.10472750E+05</totfact>
</mgrwt>
</event>
<event>
 8    1  0.1226832E-020  0.7918364E+02  0.7818608E-02  0.1331384E+00
         -1   -1    0    0    0  501 -0.00000000000E+00  0.00000000000E+00  0.11419472772E+02  0.11419473884E+02  0.50400000000E-02 0.  1.
          2   -1    0    0  501    0  0.00000000000E+00 -0.00000000000E+00 -0.13726660494E+03  0.13726660497E+03  0.25500000000E-02 0. -1.
         24    2    1    2    0    0  0.00000000000E+00  0.00000000000E+00 -0.12584713217E+03  0.14868607885E+03  0.79183643312E+02 0.  0.
         66    2    3    3    0    0  0.13584663021E+02 -0.18210405149E+02 -0.12379027093E+03  0.12587371888E+03  0.20000010527E+01 0.  0.
        -13    1    3    3    0    0 -0.13584663021E+02  0.18210405149E+02 -0.20568612448E+01  0.22812359968E+02  0.10566000000E+00 0.  1.
         13    1    4    4    0    0  0.80657022314E+01 -0.11960883238E+02 -0.80344878550E+02  0.81629828823E+02  0.10566000000E+00 0. -1.
        -13    1    4    4    0    0  0.53071988198E+01 -0.59255039061E+01 -0.40578331153E+02  0.41350817150E+02  0.10566000000E+00 0.  1.
        -14    1    4    4    0    0  0.21176196961E+00 -0.32401800475E+00 -0.28670612241E+01  0.28930729098E+01  0.00000000000E+00 0.  1.
<mgrwt>
<rscale>  0 0.79183643E+02</rscale>
<asrwt>0</asrwt>
<pdfrwt beam="1">  1        2 0.21117938E-01 0.79183643E+02</pdfrwt>
<pdfrwt beam="2">  1       -1 0.17568422E-02 0.79183643E+02</pdfrwt>
<totfact> 0.20010958E+05</totfact>
</mgrwt>
</event>
<event>
 8    1  0.1226832E-020  0.7874331E+02  0.7818608E-02  0.1332656E+00
          2   -1    0    0  501    0  0.00000000000E+00  0.00000000000E+00  0.51646606830E+02  0.51646606893E+02  0.25500000000E-02 0. -1.
         -1   -1    0    0    0  501 -0.00000000000E+00 -0.00000000000E+00 -0.30014116811E+02  0.30014117234E+02  0.50400000000E-02 0.  1.
         24    2    1    2    0    0  0.00000000000E+00  0.00000000000E+00  0.21632490019E+02  0.81660724127E+02  0.78743312354E+02 0.  0.
         66    2    3    3    0    0  0.31251514493E+02  0.23818889301E+02  0.87167597929E+01  0.40298617109E+02  0.19999984925E+01 0.  0.
        -13    1    3    3    0    0 -0.31251514493E+02 -0.23818889301E+02  0.12915730227E+02  0.41362107018E+02  0.10566000000E+00 0.  1.
         13    1    4    4    0    0  0.22083844373E+02  0.17323946143E+02  0.56212995785E+01  0.28625608557E+02  0.10566000000E+00 0. -1.
        -13    1    4    4    0    0  0.67120374544E+01  0.47059813063E+01  0.19562591792E+01  0.84282750819E+01  0.10566000000E+00 0.  1.
        -14    1    4    4    0    0  0.24556326651E+01  0.17889618526E+01  0.11392010352E+01  0.32447334705E+01  0.00000000000E+00 0.  1.
<mgrwt>
<rscale>  0 0.78743312E+02</rscale>
<asrwt>0</asrwt>
<pdfrwt beam="1">  1        2 0.79456319E-02 0.78743312E+02</pdfrwt>
<pdfrwt beam="2">  1       -1 0.46175564E-02 0.78743312E+02</pdfrwt>
<totfact> 0.15714761E+05</totfact>
</mgrwt>
</event>
<event>
 8    1  0.1226832E-020  0.8008525E+02  0.7818608E-02  0.1328810E+00
         -1   -1    0    0    0  501 -0.00000000000E+00  0.00000000000E+00  0.94051151599E+02  0.94051151734E+02  0.50400000000E-02 0.  1.
          2   -1    0    0  501    0  0.00000000000E+00 -0.00000000000E+00 -0.17048295958E+02  0.17048296149E+02  0.25500000000E-02 0. -1.
         24    2    1    2    0    0  0.00000000000E+00 -0.71054273576E-14  0.77002855641E+02  0.11109944788E+03  0.80085251719E+02 0.  0.
         66    2    3    3    0    0 -0.21295017722E+02  0.33216405889E+02  0.29260820556E+02  0.49163025012E+02  0.20000021860E+01 0.  0.
        -13    1    3    3    0    0  0.21295017722E+02 -0.33216405889E+02  0.47742035085E+02  0.61936422871E+02  0.10566000000E+00 0.  1.
         13    1    4    4    0    0 -0.14362864764E+02  0.21391655283E+02  0.18938182221E+02  0.31977503183E+02  0.10566000000E+00 0. -1.
        -13    1    4    4    0    0 -0.18393257886E+01  0.26526641164E+01  0.20530634217E+01  0.38270066266E+01  0.10566000000E+00 0.  1.
         14    1    4    4    0    0 -0.50928271695E+01  0.91720864895E+01  0.82695749142E+01  0.13358515202E+02  0.00000000000E+00 0. -1.
<mgrwt>
<rscale>  0 0.80085252E+02</rscale>
<asrwt>0</asrwt>
<pdfrwt beam="1">  1        2 0.26228147E-02 0.80085252E+02</pdfrwt>
<pdfrwt beam="2">  1       -1 0.14469408E-01 0.80085252E+02</pdfrwt>
<totfact> 0.11976603E+05</totfact>
</mgrwt>
</event>
<event>
 8    1  0.1226832E-020  0.8044505E+02  0.7818608E-02  0.1327793E+00
          2   -1    0    0  501    0  0.00000000000E+00  0.00000000000E+00  0.48670636506E+02  0.48670636573E+02  0.25500000000E-02 0. -1.
         -1   -1    0    0    0  501 -0.00000000000E+00 -0.00000000000E+00 -0.33240810599E+02  0.33240810981E+02  0.50400000000E-02 0.  1.
         24    2    1    2    0    0  0.00000000000E+00  0.00000000000E+00  0.15429825907E+02  0.81911447553E+02  0.80445047783E+02 0.  0.
         66    2    3    3    0    0 -0.32210139045E+02  0.20925722508E+02  0.19787611821E+02  0.43254231127E+02  0.20000022522E+01 0.  0.
        -13    1    3    3    0    0  0.32210139045E+02 -0.20925722508E+02 -0.43577859137E+01  0.38657216427E+02  0.10566000000E+00 0.  1.
         13    1    4    4    0    0 -0.30039943209E+02  0.19605439160E+02  0.18194228606E+02  0.40222040615E+02  0.10566000000E+00 0. -1.
        -13    1    4    4    0    0 -0.63300424811E+00  0.61374197119E+00  0.54946974945E+00  0.10442483548E+01  0.10566000000E+00 0.  1.
         14    1    4    4    0    0 -0.15371915875E+01  0.70654137718E+00  0.10439134652E+01  0.19879421564E+01  0.00000000000E+00 0. -1.
<mgrwt>
<rscale>  0 0.80445048E+02</rscale>
<asrwt>0</asrwt>
<pdfrwt beam="1">  1        2 0.74877902E-02 0.80445048E+02</pdfrwt>
<pdfrwt beam="2">  1       -1 0.51139709E-02 0.80445048E+02</pdfrwt>
<totfact> 0.14631579E+05</totfact>
</mgrwt>
</event>
<event>
 8    1  0.1226832E-020  0.7858033E+02  0.7818608E-02  0.1333129E+00
          2   -1    0    0  501    0  0.00000000000E+00  0.00000000000E+00  0.39802822141E+03  0.39802822142E+03  0.25500000000E-02 0. -1.
         -1   -1    0    0    0  501 -0.00000000000E+00 -0.00000000000E+00 -0.38784091082E+01  0.38784123830E+01  0.50400000000E-02 0.  1.
         24    2    1    2    0    0  0.00000000000E+00  0.00000000000E+00  0.39414981230E+03  0.40190663380E+03  0.78580326774E+02 0.  0.
         66    2    3    3    0    0 -0.37490587883E+02  0.27968207408E+01  0.25514533118E+03  0.25790794171E+03  0.19999978916E+01 0.  0.
        -13    1    3    3    0    0  0.37490587883E+02 -0.27968207408E+01  0.13900448112E+03  0.14399869208E+03  0.10566000000E+00 0.  1.
         13    1    4    4    0    0 -0.13670625294E+02  0.98947930522E+00  0.94188482675E+02  0.95180599378E+02  0.10566000000E+00 0. -1.
        -13    1    4    4    0    0 -0.13935864881E+02  0.11632072620E+01  0.89021531770E+02  0.90113293491E+02  0.10566000000E+00 0.  1.
        -14    1    4    4    0    0 -0.98840977076E+01  0.64413417358E+00  0.71935316732E+02  0.72614048845E+02  0.00000000000E+00 0.  1.
<mgrwt>
<rscale>  0 0.78580327E+02</rscale>
<asrwt>0</asrwt>
<pdfrwt beam="1">  1        2 0.61235122E-01 0.78580327E+02</pdfrwt>
<pdfrwt beam="2">  1       -1 0.59667848E-03 0.78580327E+02</pdfrwt>
<totfact> 0.29554223E+05</totfact>
</mgrwt>
</event>
<event>
 8    1  0.1226832E-020  0.8031769E+02  0.7818608E-02  0.1328152E+00
         -1   -1    0    0    0  501 -0.00000000000E+00  0.00000000000E+00  0.16949554760E+02  0.16949555509E+02  0.50400000000E-02 0.  1.
          2   -1    0    0  501    0  0.00000000000E+00 -0.00000000000E+00 -0.95148982623E+02  0.95148982658E+02  0.25500000000E-02 0. -1.
         24    2    1    2    0    0  0.00000000000E+00  0.00000000000E+00 -0.78199427864E+02  0.11209853817E+03  0.80317692577E+02 0.  0.
         66    2    3    3    0    0  0.89558077932E+01 -0.37608261845E+02 -0.54164999186E+02  0.66576534936E+02  0.20000037666E+01 0.  0.
        -13    1    3    3    0    0 -0.89558077932E+01  0.37608261845E+02 -0.24034428678E+02  0.45522003230E+02  0.10566000000E+00 0.  1.
         13    1    4    4    0    0  0.50883410389E+01 -0.19771473227E+02 -0.27505275813E+02  0.34254251264E+02  0.10566000000E+00 0. -1.
        -13    1    4    4    0    0  0.16437833841E+01 -0.65852866447E+01 -0.10613518054E+02  0.12598648877E+02  0.10566000000E+00 0.  1.
         14    1    4    4    0    0  0.22236833702E+01 -0.11251501973E+02 -0.16046205320E+02  0.19723634795E+02  0.00000000000E+00 0. -1.
<mgrwt>
<rscale>  0 0.80317693E+02</rscale>
<asrwt>0</asrwt>
<pdfrwt beam="1">  1        2 0.14638305E-01 0.80317693E+02</pdfrwt>
<pdfrwt beam="2">  1       -1 0.26076239E-02 0.80317693E+02</pdfrwt>
<totfact> 0.17298187E+05</totfact>
</mgrwt>
</event>
<event>
 8    1  0.1226832E-020  0.7960149E+02  0.7818608E-02  0.1330186E+00
         -1   -1    0    0    0  501 -0.00000000000E+00  0.00000000000E+00  0.24602754045E+01  0.24602805669E+01  0.50400000000E-02 0.  1.
          2   -1    0    0  501    0  0.00000000000E+00 -0.00000000000E+00 -0.64386997811E+03  0.64386997811E+03  0.25500000000E-02 0. -1.
         24    2    1    2    0    0  0.00000000000E+00  0.00000000000E+00 -0.64140970270E+03  0.64633025868E+03  0.79601485935E+02 0.  0.
         66    2    3    3    0    0  0.11343545335E+02  0.27953764816E+02 -0.53139100115E+03  0.53225039699E+03  0.20000005887E+01 0.  0.
        -13    1    3    3    0    0 -0.11343545335E+02 -0.27953764816E+02 -0.11001870155E+03  0.11407986169E+03  0.10566000000E+00 0.  1.
         13    1    4    4    0    0  0.65769896897E+01  0.14544856571E+02 -0.26983893364E+03  0.27031069331E+03  0.10566000000E+00 0. -1.
        -13    1    4    4    0    0  0.25794540611E+01  0.64058161445E+01 -0.12903155621E+03  0.12921625952E+03  0.10566000000E+00 0.  1.
         14    1    4    4    0    0  0.21871015844E+01  0.70030921006E+01 -0.13252051130E+03  0.13272344416E+03  0.00000000000E+00 0. -1.
<mgrwt>
<rscale>  0 0.79601486E+02</rscale>
<asrwt>0</asrwt>
<pdfrwt beam="1">  1        2 0.99056786E-01 0.79601486E+02</pdfrwt>
<pdfrwt beam="2">  1       -1 0.37850482E-03 0.79601486E+02</pdfrwt>
<totfact> 0.33206156E+05</totfact>
</mgrwt>
</event>
<event>
 8    1  0.1226832E-020  0.7989016E+02  0.7818608E-02  0.1329363E+00
         -1   -1    0    0    0  501 -0.00000000000E+00  0.00000000000E+00  0.72450032743E+02  0.72450032918E+02  0.50400000000E-02 0.  1.
          2   -1    0    0  501    0  0.00000000000E+00 -0.00000000000E+00 -0.22023581690E+02  0.22023581838E+02  0.25500000000E-02 0. -1.
         24    2    1    2    0    0  0.00000000000E+00  0.00000000000E+00  0.50426451053E+02  0.94473614756E+02  0.79890155334E+02 0.  0.
         66    2    3    3    0    0 -0.21854141879E+01  0.23591265607E+02 -0.12765112503E+02  0.26986514383E+02  0.20000033107E+01 0.  0.
        -13    1    3    3    0    0  0.21854141879E+01 -0.23591265607E+02  0.63191563556E+02  0.67487100373E+02  0.10566000000E+00 0.  1.
         13    1    4    4    0    0 -0.83342228350E+00  0.90117422411E+01 -0.57681105350E+01  0.10732583757E+02  0.10566000000E+00 0. -1.
        -13    1    4    4    0    0 -0.48555012377E-01  0.48677169929E+01 -0.24728118498E+01  0.54610428301E+01  0.10566000000E+00 0.  1.
        -14    1    4    4    0    0 -0.13034368920E+01  0.97118063726E+01 -0.45241901180E+01  0.10792887796E+02  0.00000000000E+00 0.  1.
<mgrwt>
<rscale>  0 0.79890155E+02</rscale>
<asrwt>0</asrwt>
<pdfrwt beam="1">  1        2 0.33882433E-02 0.79890155E+02</pdfrwt>
<pdfrwt beam="2">  1       -1 0.11146159E-01 0.79890155E+02</pdfrwt>
<totfact> 0.12708031E+05</totfact>
</mgrwt>
</event>
<event>
 8    1  0.1226832E-020  0.7368163E+02  0.7818608E-02  0.1348003E+00
          2   -1    0    0  501    0  0.00000000000E+00  0.00000000000E+00  0.68194213968E+02  0.68194214016E+02  0.25500000000E-02 0. -1.
         -1   -1    0    0    0  501 -0.00000000000E+00 -0.00000000000E+00 -0.19902648581E+02  0.19902649219E+02  0.50400000000E-02 0.  1.
         24    2    1    2    0    0 -0.35527136788E-14 -0.35527136788E-14  0.48291565388E+02  0.88096863235E+02  0.73681626096E+02 0.  0.
         66    2    3    3    0    0  0.28796941451E+02  0.21612612260E+02  0.33337442663E+02  0.49109611522E+02  0.20000037330E+01 0.  0.
        -13    1    3    3    0    0 -0.28796941451E+02 -0.21612612260E+02  0.14954122725E+02  0.38987251713E+02  0.10566000000E+00 0.  1.
         13    1    4    4    0    0  0.23141746671E+02  0.18232318831E+02  0.26961591630E+02  0.39936155001E+02  0.10566000000E+00 0. -1.
        -13    1    4    4    0    0  0.36059162736E+01  0.22650528089E+01  0.42469427698E+01  0.60150464108E+01  0.10566000000E+00 0.  1.
         14    1    4    4    0    0  0.20492785062E+01  0.11152406193E+01  0.21289082628E+01  0.31584101105E+01  0.00000000000E+00 0. -1.
<mgrwt>
<rscale>  0 0.73681626E+02</rscale>
<asrwt>0</asrwt>
<pdfrwt beam="1">  1        2 0.10491417E-01 0.73681626E+02</pdfrwt>
<pdfrwt beam="2">  1       -1 0.30619460E-02 0.73681626E+02</pdfrwt>
<totfact> 0.20023760E+05</totfact>
</mgrwt>
</event>
<event>
 8    1  0.1226832E-020  0.8159450E+02  0.7818608E-02  0.1324586E+00
         -1   -1    0    0    0  501 -0.00000000000E+00  0.00000000000E+00  0.52395977044E+02  0.52395977286E+02  0.50400000000E-02 0.  1.
          2   -1    0    0  501    0  0.00000000000E+00 -0.00000000000E+00 -0.31766095006E+02  0.31766095108E+02  0.25500000000E-02 0. -1.
         24    2    1    2    0    0  0.71054273576E-14  0.33306690739E-15  0.20629882038E+02  0.84162072394E+02  0.81594499795E+02 0.  0.
         66    2    3    3    0    0 -0.37280661818E+02 -0.96528034537E+00 -0.66787367402E+01  0.37939228092E+02  0.19999980095E+01 0.  0.
        -13    1    3    3    0    0  0.37280661818E+02  0.96528034537E+00  0.27308618779E+02  0.46222844302E+02  0.10566000000E+00 0.  1.
         13    1    4    4    0    0 -0.27002536872E+02 -0.19719294807E+00 -0.44510942986E+01  0.27367851342E+02  0.10566000000E+00 0. -1.
        -13    1    4    4    0    0 -0.13003229544E+01 -0.65265715383E-01 -0.53310385233E-01  0.13073275917E+01  0.10566000000E+00 0. -1.
         14    1    4    4    0    0 -0.89778019921E+01 -0.70282168192E+00 -0.21743320564E+01  0.92640491589E+01  0.00000000000E+00 0. -1.
<mgrwt>
<rscale>  0 0.81594500E+02</rscale>
<asrwt>0</asrwt>
<pdfrwt beam="1">  1        2 0.48870916E-02 0.81594500E+02</pdfrwt>
<pdfrwt beam="2">  1       -1 0.80609195E-02 0.81594500E+02</pdfrwt>
<totfact> 0.12876947E+05</totfact>
</mgrwt>
</event>
<event>
 8    1  0.1226832E-020  0.7997005E+02  0.7818608E-02  0.1329136E+00
          2   -1    0    0  501    0  0.00000000000E+00  0.00000000000E+00  0.17196911989E+03  0.17196911991E+03  0.25500000000E-02 0. -1.
         -1   -1    0    0    0  501 -0.00000000000E+00 -0.00000000000E+00 -0.92970302230E+01  0.92970315892E+01  0.50400000000E-02 0.  1.
         24    2    1    2    0    0  0.00000000000E+00 -0.17763568394E-14  0.16267208967E+03  0.18126615150E+03  0.79970050159E+02 0.  0.
         66    2    3    3    0    0  0.17678330482E+02 -0.10412947470E+02  0.15911241088E+03  0.16044223927E+03  0.20000001770E+01 0.  0.
        -13    1    3    3    0    0 -0.17678330482E+02  0.10412947470E+02  0.35596787892E+01  0.20823912235E+02  0.10566000000E+00 0.  1.
         13    1    4    4    0    0  0.16852045088E+02 -0.97868607484E+01  0.15156753600E+03  0.15281525840E+03  0.10566000000E+00 0. -1.
        -13    1    4    4    0    0  0.49073948397E+00 -0.47739743145E+00  0.36735152867E+01  0.37382632526E+01  0.10566000000E+00 0.  1.
         14    1    4    4    0    0  0.33554591018E+00 -0.14868929034E+00  0.38713595937E+01  0.38887176121E+01  0.00000000000E+00 0. -1.
<mgrwt>
<rscale>  0 0.79970050E+02</rscale>
<asrwt>0</asrwt>
<pdfrwt beam="1">  1        2 0.26456787E-01 0.79970050E+02</pdfrwt>
<pdfrwt beam="2">  1       -1 0.14303125E-02 0.79970050E+02</pdfrwt>
<totfact> 0.20970532E+05</totfact>
</mgrwt>
</event>
<event>
 8    1  0.1226832E-020  0.8060704E+02  0.7818608E-02  0.1327338E+00
         -1   -1    0    0    0  501 -0.00000000000E+00  0.00000000000E+00  0.10721971047E+02  0.10721972231E+02  0.50400000000E-02 0.  1.
          2   -1    0    0  501    0  0.00000000000E+00 -0.00000000000E+00 -0.15149954757E+03  0.15149954759E+03  0.25500000000E-02 0. -1.
         24    2    1    2    0    0  0.00000000000E+00  0.00000000000E+00 -0.14077757653E+03  0.16222151983E+03  0.80607043377E+02 0.  0.
         66    2    3    3    0    0 -0.37097391670E+02  0.14987873532E+02 -0.79767055927E+02  0.89261615703E+02  0.20000012426E+01 0.  0.
        -13    1    3    3    0    0  0.37097391670E+02 -0.14987873532E+02 -0.61010520599E+02  0.72959904122E+02  0.10566000000E+00 0.  1.
         13    1    4    4    0    0 -0.22627425357E+02  0.94804913686E+01 -0.47721632454E+02  0.53658601016E+02  0.10566000000E+00 0. -1.
        -13    1    4    4    0    0 -0.55079405964E+00  0.39091022725E+00 -0.14214781696E+01  0.15773234051E+01  0.10566000000E+00 0. -1.
         14    1    4    4    0    0 -0.13919172254E+02  0.51164719356E+01 -0.30623945303E+02  0.34025691282E+02  0.00000000000E+00 0. -1.
<mgrwt>
<rscale>  0 0.80607043E+02</rscale>
<asrwt>0</asrwt>
<pdfrwt beam="1">  1        2 0.23307621E-01 0.80607043E+02</pdfrwt>
<pdfrwt beam="2">  1       -1 0.16495342E-02 0.80607043E+02</pdfrwt>
<totfact> 0.19695275E+05</totfact>
</mgrwt>
</event>
<event>
 8    1  0.1226832E-020  0.8236911E+02  0.7818608E-02  0.1322460E+00
         -1   -1    0    0    0  501 -0.00000000000E+00  0.00000000000E+00  0.98915208237E+02  0.98915208366E+02  0.50400000000E-02 0.  1.
          2   -1    0    0  501    0  0.00000000000E+00 -0.00000000000E+00 -0.17147693053E+02  0.17147693242E+02  0.25500000000E-02 0. -1.
         24    2    1    2    0    0 -0.35527136788E-14  0.35527136788E-14  0.81767515185E+02  0.11606290161E+03  0.82369111870E+02 0.  0.
         66    2    3    3    0    0 -0.31365295022E+02  0.21892124086E+02  0.19486589694E+02  0.42974108535E+02  0.19999994229E+01 0.  0.
        -13    1    3    3    0    0  0.31365295022E+02 -0.21892124086E+02  0.62280925491E+02  0.73088793073E+02  0.10566000000E+00 0.  1.
         13    1    4    4    0    0 -0.14433489723E+02  0.10288179464E+02  0.86066665779E+01  0.19704266946E+02  0.10566000000E+00 0. -1.
        -13    1    4    4    0    0 -0.33008463472E+01  0.18762915202E+01  0.24685337991E+01  0.45299977516E+01  0.10566000000E+00 0.  1.
        -14    1    4    4    0    0 -0.13630958952E+02  0.97276531019E+01  0.84113893166E+01  0.18739843837E+02  0.00000000000E+00 0.  1.
<mgrwt>
<rscale>  0 0.82369112E+02</rscale>
<asrwt>0</asrwt>
<pdfrwt beam="1">  1        2 0.26381067E-02 0.82369112E+02</pdfrwt>
<pdfrwt beam="2">  1       -1 0.15217724E-01 0.82369112E+02</pdfrwt>
<totfact> 0.11047599E+05</totfact>
</mgrwt>
</event>
<event>
 8    1  0.1226832E-020  0.7973959E+02  0.7818608E-02  0.1329792E+00
          2   -1    0    0  501    0  0.00000000000E+00  0.00000000000E+00  0.10946471090E+03  0.10946471093E+03  0.25500000000E-02 0. -1.
         -1   -1    0    0    0  501 -0.00000000000E+00 -0.00000000000E+00 -0.14521580512E+02  0.14521581387E+02  0.50400000000E-02 0.  1.
         24    2    1    2    0    0  0.00000000000E+00  0.00000000000E+00  0.94943130387E+02  0.12398629232E+03  0.79739592892E+02 0.  0.
         66    2    3    3    0    0 -0.17277443512E+02  0.22418806807E+02  0.91107146018E+02  0.95423398677E+02  0.20000016177E+01 0.  0.
        -13    1    3    3    0    0  0.17277443512E+02 -0.22418806807E+02  0.38359843685E+01  0.28562893639E+02  0.10566000000E+00 0.  1.
         13    1    4    4    0    0 -0.30177468250E+01  0.46937392647E+01  0.18544807880E+02  0.19366441271E+02  0.10566000000E+00 0.  1.
        -13    1    4    4    0    0 -0.47813412109E+01  0.66199655071E+01  0.24418973274E+02  0.25748448242E+02  0.10566000000E+00 0.  1.
         14    1    4    4    0    0 -0.94783554758E+01  0.11105102035E+02  0.48143364865E+02  0.50308509163E+02  0.00000000000E+00 0. -1.
<mgrwt>
<rscale>  0 0.79739593E+02</rscale>
<asrwt>0</asrwt>
<pdfrwt beam="1">  1        2 0.16840725E-01 0.79739593E+02</pdfrwt>
<pdfrwt beam="2">  1       -1 0.22340893E-02 0.79739593E+02</pdfrwt>
<totfact> 0.18347218E+05</totfact>
</mgrwt>
</event>
<event>
 8    1  0.1226832E-020  0.8835626E+02  0.7818608E-02  0.1306882E+00
         -1   -1    0    0    0  501 -0.00000000000E+00  0.00000000000E+00  0.82370200805E+01  0.82370216224E+01  0.50400000000E-02 0.  1.
          2   -1    0    0  501    0  0.00000000000E+00 -0.00000000000E+00 -0.23694332577E+03  0.23694332578E+03  0.25500000000E-02 0. -1.
         24    2    1    2    0    0  0.17763568394E-14  0.00000000000E+00 -0.22870630569E+03  0.24518034740E+03  0.88356258929E+02 0.  0.
         66    2    3    3    0    0 -0.91088192465E+01  0.20838083210E+02 -0.21943750777E+03  0.22062188493E+03  0.19999991899E+01 0.  0.
        -13    1    3    3    0    0  0.91088192465E+01 -0.20838083210E+02 -0.92687979189E+01  0.24558462469E+02  0.10566000000E+00 0.  1.
         13    1    4    4    0    0 -0.40382483554E+01  0.10819507507E+02 -0.11648760132E+03  0.11705871013E+03  0.10566000000E+00 0. -1.
        -13    1    4    4    0    0 -0.29390482307E+01  0.49915624015E+01 -0.53127803283E+02  0.53442757651E+02  0.10566000000E+00 0.  1.
        -14    1    4    4    0    0 -0.21315226604E+01  0.50270133019E+01 -0.49822103166E+02  0.50120417151E+02  0.00000000000E+00 0.  1.
<mgrwt>
<rscale>  0 0.88356259E+02</rscale>
<asrwt>0</asrwt>
<pdfrwt beam="1">  1        2 0.36452814E-01 0.88356259E+02</pdfrwt>
<pdfrwt beam="2">  1       -1 0.12672342E-02 0.88356259E+02</pdfrwt>
<totfact> 0.18005148E+05</totfact>
</mgrwt>
</event>
<event>
 8    1  0.1226832E-020  0.7840713E+02  0.7818608E-02  0.1333634E+00
          2   -1    0    0  501    0  0.00000000000E+00  0.00000000000E+00  0.14357949182E+03  0.14357949184E+03  0.25500000000E-02 0. -1.
         -1   -1    0    0    0  501 -0.00000000000E+00 -0.00000000000E+00 -0.10704309994E+02  0.10704311181E+02  0.50400000000E-02 0.  1.
         24    2    1    2    0    0  0.00000000000E+00  0.00000000000E+00  0.13287518183E+03  0.15428380303E+03  0.78407129333E+02 0.  0.
         66    2    3    3    0    0 -0.12319011532E+02 -0.46028238813E+01  0.13909942557E+03  0.13973401241E+03  0.19999994578E+01 0.  0.
        -13    1    3    3    0    0  0.12319011532E+02  0.46028238813E+01 -0.62242437402E+01  0.14549790616E+02  0.10566000000E+00 0.  1.
         13    1    4    4    0    0 -0.58173532259E+01 -0.16671664746E+01  0.66219641111E+02  0.66495662080E+02  0.10566000000E+00 0. -1.
        -13    1    4    4    0    0 -0.14688715016E+01 -0.10385975574E+01  0.22593626296E+02  0.22665378479E+02  0.10566000000E+00 0. -1.
        -14    1    4    4    0    0 -0.50327868045E+01 -0.18970598493E+01  0.50286158162E+02  0.50572971850E+02  0.00000000000E+00 0.  1.
<mgrwt>
<rscale>  0 0.78407129E+02</rscale>
<asrwt>0</asrwt>
<pdfrwt beam="1">  1        2 0.22089152E-01 0.78407129E+02</pdfrwt>
<pdfrwt beam="2">  1       -1 0.16468170E-02 0.78407129E+02</pdfrwt>
<totfact> 0.20833947E+05</totfact>
</mgrwt>
</event>
<event>
 8    1  0.1226832E-020  0.7954696E+02  0.7818608E-02  0.1330342E+00
          2   -1    0    0  501    0  0.00000000000E+00  0.00000000000E+00  0.86139409512E+01  0.86139413286E+01  0.25500000000E-02 0. -1.
         -1   -1    0    0    0  501 -0.00000000000E+00 -0.00000000000E+00 -0.18364761859E+03  0.18364761866E+03  0.50400000000E-02 0.  1.
         24    2    1    2    0    0  0.00000000000E+00  0.00000000000E+00 -0.17503367764E+03  0.19226155999E+03  0.79546961861E+02 0.  0.
         66    2    3    3    0    0 -0.21646689817E+02  0.32230471829E+02 -0.10815765983E+03  0.11493242307E+03  0.19999996902E+01 0.  0.
        -13    1    3    3    0    0  0.21646689817E+02 -0.32230471829E+02 -0.66876017816E+02  0.77329136924E+02  0.10566000000E+00 0.  1.
         13    1    4    4    0    0 -0.10796091254E+02  0.14854446636E+02 -0.50602252999E+02  0.53831304497E+02  0.10566000000E+00 0. -1.
        -13    1    4    4    0    0 -0.31554559643E+00  0.66608189749E+00 -0.17132573181E+01  0.18680601680E+01  0.10566000000E+00 0. -1.
         14    1    4    4    0    0 -0.10535052967E+02  0.16709943296E+02 -0.55842149510E+02  0.59233058404E+02  0.00000000000E+00 0. -1.
<mgrwt>
<rscale>  0 0.79546962E+02</rscale>
<asrwt>0</asrwt>
<pdfrwt beam="1">  1        2 0.13252219E-02 0.79546962E+02</pdfrwt>
<pdfrwt beam="2">  1       -1 0.28253477E-01 0.79546962E+02</pdfrwt>
<totfact> 0.10362227E+05</totfact>
</mgrwt>
</event>
<event>
 8    1  0.1226832E-020  0.7955964E+02  0.7818608E-02  0.1330306E+00
         -1   -1    0    0    0  501 -0.00000000000E+00  0.00000000000E+00  0.43665056605E+01  0.43665085692E+01  0.50400000000E-02 0.  1.
          2   -1    0    0  501    0  0.00000000000E+00 -0.00000000000E+00 -0.36240270352E+03  0.36240270353E+03  0.25500000000E-02 0. -1.
         24    2    1    2    0    0  0.00000000000E+00  0.00000000000E+00 -0.35803619786E+03  0.36676921210E+03  0.79559637791E+02 0.  0.
         66    2    3    3    0    0  0.37704562856E+02  0.95532289668E+01 -0.21701449093E+03  0.22048171696E+03  0.19999992561E+01 0.  0.
        -13    1    3    3    0    0 -0.37704562856E+02 -0.95532289668E+01 -0.14102170693E+03  0.14628749514E+03  0.10566000000E+00 0.  1.
         13    1    4    4    0    0  0.11935465427E+02  0.33688858366E+01 -0.73121946098E+02  0.74166265188E+02  0.10566000000E+00 0. -1.
        -13    1    4    4    0    0  0.21352248030E+02  0.54463116698E+01 -0.11880071586E+03  0.12082715779E+03  0.10566000000E+00 0.  1.
        -14    1    4    4    0    0  0.44168493985E+01  0.73803146046E+00 -0.25091828970E+02  0.25488293982E+02  0.00000000000E+00 0.  1.
<mgrwt>
<rscale>  0 0.79559638E+02</rscale>
<asrwt>0</asrwt>
<pdfrwt beam="1">  1        2 0.55754238E-01 0.79559638E+02</pdfrwt>
<pdfrwt beam="2">  1       -1 0.67177061E-03 0.79559638E+02</pdfrwt>
<totfact> 0.27682487E+05</totfact>
</mgrwt>
</event>
<event>
 8    1  0.1226832E-020  0.7982701E+02  0.7818608E-02  0.1329543E+00
         -1   -1    0    0    0  501 -0.00000000000E+00  0.00000000000E+00  0.11509165062E+03  0.11509165073E+03  0.50400000000E-02 0.  1.
          2   -1    0    0  501    0  0.00000000000E+00 -0.00000000000E+00 -0.13841906628E+02  0.13841906863E+02  0.25500000000E-02 0. -1.
         24    2    1    2    0    0  0.35527136788E-14  0.00000000000E+00  0.10124974400E+03  0.12893355760E+03  0.79827010564E+02 0.  0.
         66    2    3    3    0    0  0.24346395986E+02 -0.26218340852E+02  0.22175865397E+02  0.42141634959E+02  0.19999990905E+01 0.  0.
        -13    1    3    3    0    0 -0.24346395986E+02  0.26218340852E+02  0.79073878599E+02  0.86791922638E+02  0.10566000000E+00 0.  1.
         13    1    4    4    0    0  0.18263254034E+02 -0.20248992050E+02  0.17486761963E+02  0.32393921265E+02  0.10566000000E+00 0. -1.
        -13    1    4    4    0    0  0.29787783790E+01 -0.26968087076E+01  0.25026809841E+01  0.47350262914E+01  0.10566000000E+00 0.  1.
        -14    1    4    4    0    0  0.31043635736E+01 -0.32725400951E+01  0.21864224501E+01  0.50126874031E+01  0.00000000000E+00 0.  1.
<mgrwt>
<rscale>  0 0.79827011E+02</rscale>
<asrwt>0</asrwt>
<pdfrwt beam="1">  1        2 0.21295242E-02 0.79827011E+02</pdfrwt>
<pdfrwt beam="2">  1       -1 0.17706407E-01 0.79827011E+02</pdfrwt>
<totfact> 0.11555453E+05</totfact>
</mgrwt>
</event>
<event>
 8    1  0.1226832E-020  0.7856100E+02  0.7818608E-02  0.1333185E+00
         -1   -1    0    0    0  501 -0.00000000000E+00  0.00000000000E+00  0.27943326968E+01  0.27943372420E+01  0.50400000000E-02 0.  1.
          2   -1    0    0  501    0  0.00000000000E+00 -0.00000000000E+00 -0.55217352983E+03  0.55217352984E+03  0.25500000000E-02 0. -1.
         24    2    1    2    0    0  0.00000000000E+00 -0.35527136788E-14 -0.54937919714E+03  0.55496786708E+03  0.78561003344E+02 0.  0.
         66    2    3    3    0    0 -0.23468064456E+00 -0.26322484274E+02 -0.48058169714E+03  0.48130623919E+03  0.20000017817E+01 0.  0.
        -13    1    3    3    0    0  0.23468064456E+00  0.26322484274E+02 -0.68797500001E+02  0.73661627892E+02  0.10566000000E+00 0.  1.
         13    1    4    4    0    0 -0.88434779781E+00 -0.11960405777E+02 -0.22009816695E+03  0.22042469834E+03  0.10566000000E+00 0. -1.
        -13    1    4    4    0    0  0.44817763271E+00 -0.13100579794E+02 -0.24089176630E+03  0.24124817157E+03  0.10566000000E+00 0.  1.
        -14    1    4    4    0    0  0.20148952054E+00 -0.12614987023E+01 -0.19591763889E+02  0.19633369280E+02  0.00000000000E+00 0.  1.
<mgrwt>
<rscale>  0 0.78561003E+02</rscale>
<asrwt>0</asrwt>
<pdfrwt beam="1">  1        2 0.84949687E-01 0.78561003E+02</pdfrwt>
<pdfrwt beam="2">  1       -1 0.42989813E-03 0.78561003E+02</pdfrwt>
<totfact> 0.32918477E+05</totfact>
</mgrwt>
</event>
<event>
 8    1  0.1226832E-020  0.8009221E+02  0.7818608E-02  0.1328790E+00
         -1   -1    0    0    0  501 -0.00000000000E+00  0.00000000000E+00  0.12817161607E+02  0.12817162598E+02  0.50400000000E-02 0.  1.
          2   -1    0    0  501    0  0.00000000000E+00 -0.00000000000E+00 -0.12512056260E+03  0.12512056263E+03  0.25500000000E-02 0. -1.
         24    2    1    2    0    0  0.00000000000E+00  0.00000000000E+00 -0.11230340099E+03  0.13793772522E+03  0.80092210391E+02 0.  0.
         66    2    3    3    0    0 -0.36913463319E+02 -0.22591628484E+01 -0.29842706644E+02  0.47563586957E+02  0.20000183448E+01 0.  0.
        -13    1    3    3    0    0  0.36913463319E+02  0.22591628484E+01 -0.82460694350E+02  0.90374138268E+02  0.10566000000E+00 0.  1.
         13    1    4    4    0    0 -0.24548934560E+02 -0.21938901611E+01 -0.20143318713E+02  0.31831239292E+02  0.10566000000E+00 0. -1.
        -13    1    4    4    0    0 -0.33832332252E+01 -0.17032507449E+00 -0.30143856282E+01  0.45357427658E+01  0.10566000000E+00 0.  1.
         14    1    4    4    0    0 -0.89812955342E+01  0.10505238717E+00 -0.66850023034E+01  0.11196604899E+02  0.00000000000E+00 0. -1.
<mgrwt>
<rscale>  0 0.80092210E+02</rscale>
<asrwt>0</asrwt>
<pdfrwt beam="1">  1        2 0.19249316E-01 0.80092210E+02</pdfrwt>
<pdfrwt beam="2">  1       -1 0.19718712E-02 0.80092210E+02</pdfrwt>
<totfact> 0.18865649E+05</totfact>
</mgrwt>
</event>
<event>
 8    1  0.1226832E-020  0.7987020E+02  0.7818608E-02  0.1329420E+00
          2   -1    0    0  501    0  0.00000000000E+00  0.00000000000E+00  0.68715323813E+02  0.68715323860E+02  0.25500000000E-02 0. -1.
         -1   -1    0    0    0  501 -0.00000000000E+00 -0.00000000000E+00 -0.23208977135E+02  0.23208977682E+02  0.50400000000E-02 0.  1.
         24    2    1    2    0    0  0.00000000000E+00  0.35527136788E-14  0.45506346678E+02  0.91924301542E+02  0.79870204870E+02 0.  0.
         66    2    3    3    0    0  0.31512712505E+01 -0.23225221156E+02  0.59945287257E+02  0.64395487958E+02  0.19999991889E+01 0.  0.
        -13    1    3    3    0    0 -0.31512712505E+01  0.23225221156E+02 -0.14438940580E+02  0.27528813584E+02  0.10566000000E+00 0.  1.
         13    1    4    4    0    0  0.35572725838E+00 -0.43232588734E+01  0.12146420210E+02  0.12898209066E+02  0.10566000000E+00 0. -1.
        -13    1    4    4    0    0  0.21852628652E+00 -0.58320704242E+01  0.14036701336E+02  0.15202004723E+02  0.10566000000E+00 0.  1.
         14    1    4    4    0    0  0.25770177056E+01 -0.13069891859E+02  0.33762165712E+02  0.36295274169E+02  0.00000000000E+00 0. -1.
<mgrwt>
<rscale>  0 0.79870205E+02</rscale>
<asrwt>0</asrwt>
<pdfrwt beam="1">  1        2 0.10571588E-01 0.79870205E+02</pdfrwt>
<pdfrwt beam="2">  1       -1 0.35706119E-02 0.79870205E+02</pdfrwt>
<totfact> 0.16144721E+05</totfact>
</mgrwt>
</event>
<event>
 8    1  0.1226832E-020  0.7610233E+02  0.7818608E-02  0.1340491E+00
         -1   -1    0    0    0  501 -0.00000000000E+00  0.00000000000E+00  0.14130806073E+02  0.14130806972E+02  0.50400000000E-02 0.  1.
          2   -1    0    0  501    0  0.00000000000E+00 -0.00000000000E+00 -0.10246344161E+03  0.10246344164E+03  0.25500000000E-02 0. -1.
         24    2    1    2    0    0 -0.35527136788E-14  0.00000000000E+00 -0.88332635537E+02  0.11659424861E+03  0.76102327880E+02 0.  0.
         66    2    3    3    0    0 -0.23972577645E+02 -0.24081916755E+02 -0.70343734714E+02  0.78146427993E+02  0.20000002534E+01 0.  0.
        -13    1    3    3    0    0  0.23972577645E+02  0.24081916755E+02 -0.17988900823E+02  0.38447820620E+02  0.10566000000E+00 0.  1.
         13    1    4    4    0    0 -0.44782825808E+01 -0.51219873052E+01 -0.14338584991E+02  0.15871230337E+02  0.10566000000E+00 0.  1.
        -13    1    4    4    0    0 -0.94389127846E+01 -0.10149034475E+02 -0.28971422713E+02  0.32116202662E+02  0.10566000000E+00 0. -1.
        -14    1    4    4    0    0 -0.10055382280E+02 -0.88108949756E+01 -0.27033727010E+02  0.30158994995E+02  0.00000000000E+00 0.  1.
<mgrwt>
<rscale>  0 0.76102328E+02</rscale>
<asrwt>0</asrwt>
<pdfrwt beam="1">  1        2 0.15763606E-01 0.76102328E+02</pdfrwt>
<pdfrwt beam="2">  1       -1 0.21739703E-02 0.76102328E+02</pdfrwt>
<totfact> 0.20393089E+05</totfact>
</mgrwt>
</event>
<event>
 8    1  0.1226832E-020  0.7896388E+02  0.7818608E-02  0.1332018E+00
          2   -1    0    0  501    0  0.00000000000E+00  0.00000000000E+00  0.82836850109E+02  0.82836850148E+02  0.25500000000E-02 0. -1.
         -1   -1    0    0    0  501 -0.00000000000E+00 -0.00000000000E+00 -0.18817994592E+02  0.18817995266E+02  0.50400000000E-02 0.  1.
         24    2    1    2    0    0  0.17763568394E-14  0.00000000000E+00  0.64018855517E+02  0.10165484541E+03  0.78963876137E+02 0.  0.
         66    2    3    3    0    0 -0.13165178770E+02 -0.32766979064E+02  0.54689675268E+02  0.65130310959E+02  0.19999939238E+01 0.  0.
        -13    1    3    3    0    0  0.13165178770E+02  0.32766979064E+02  0.93291802490E+01  0.36524534455E+02  0.10566000000E+00 0.  1.
         13    1    4    4    0    0 -0.31025045653E+01 -0.79092203079E+01  0.11941300951E+02  0.14655617793E+02  0.10566000000E+00 0. -1.
        -13    1    4    4    0    0 -0.50225762208E+01 -0.13348146275E+02  0.23442655779E+02  0.27440272500E+02  0.10566000000E+00 0.  1.
         14    1    4    4    0    0 -0.50400979837E+01 -0.11509612481E+02  0.19305718539E+02  0.23034420667E+02  0.00000000000E+00 0. -1.
<mgrwt>
<rscale>  0 0.78963876E+02</rscale>
<asrwt>0</asrwt>
<pdfrwt beam="1">  1        2 0.12744131E-01 0.78963876E+02</pdfrwt>
<pdfrwt beam="2">  1       -1 0.28950762E-02 0.78963876E+02</pdfrwt>
<totfact> 0.17448219E+05</totfact>
</mgrwt>
</event>
<event>
 8    1  0.1226832E-020  0.8051826E+02  0.7818608E-02  0.1327587E+00
         -1   -1    0    0    0  501 -0.00000000000E+00  0.00000000000E+00  0.58323380400E+02  0.58323380618E+02  0.50400000000E-02 0.  1.
          2   -1    0    0  501    0  0.00000000000E+00 -0.00000000000E+00 -0.27789838983E+02  0.27789839100E+02  0.25500000000E-02 0. -1.
         24    2    1    2    0    0  0.17763568394E-14  0.00000000000E+00  0.30533541417E+02  0.86113219718E+02  0.80518255437E+02 0.  0.
         66    2    3    3    0    0 -0.10671697813E+02 -0.60133227923E+00 -0.26207600546E+02  0.28374020813E+02  0.19999989991E+01 0.  0.
        -13    1    3    3    0    0  0.10671697813E+02  0.60133227923E+00  0.56741141963E+02  0.57739198904E+02  0.10566000000E+00 0.  1.
         13    1    4    4    0    0 -0.20150161282E+01 -0.61508111768E+00 -0.47061332098E+01  0.51572733690E+01  0.10566000000E+00 0. -1.
        -13    1    4    4    0    0 -0.18708756024E+01  0.63177178362E-01 -0.62171346757E+01  0.64936965195E+01  0.10566000000E+00 0.  1.
         14    1    4    4    0    0 -0.67858060829E+01 -0.49428339916E-01 -0.15284332661E+02  0.16723050925E+02  0.00000000000E+00 0. -1.
<mgrwt>
<rscale>  0 0.80518255E+02</rscale>
<asrwt>0</asrwt>
<pdfrwt beam="1">  1        2 0.42753599E-02 0.80518255E+02</pdfrwt>
<pdfrwt beam="2">  1       -1 0.89728278E-02 0.80518255E+02</pdfrwt>
<totfact> 0.13015032E+05</totfact>
</mgrwt>
</event>
<event>
 8    1  0.1226832E-020  0.8716492E+02  0.7818608E-02  0.1309866E+00
         -1   -1    0    0    0  501 -0.00000000000E+00  0.00000000000E+00  0.33306592781E+01  0.33306630914E+01  0.50400000000E-02 0.  1.
          2   -1    0    0  501    0  0.00000000000E+00 -0.00000000000E+00 -0.57028645851E+03  0.57028645851E+03  0.25500000000E-02 0. -1.
         24    2    1    2    0    0  0.00000000000E+00  0.00000000000E+00 -0.56695579923E+03  0.57361712160E+03  0.87164923668E+02 0.  0.
         66    2    3    3    0    0  0.24152382838E+02 -0.10311596387E+02 -0.51232903484E+03  0.51300556191E+03  0.19999987494E+01 0.  0.
        -13    1    3    3    0    0 -0.24152382838E+02  0.10311596387E+02 -0.54626764390E+02  0.60611559694E+02  0.10566000000E+00 0.  1.
         13    1    4    4    0    0  0.30405348896E+01 -0.13056773778E+01 -0.72893792112E+02  0.72968936805E+02  0.10566000000E+00 0. -1.
        -13    1    4    4    0    0  0.12938786232E+02 -0.62337290930E+01 -0.27009627114E+03  0.27047787047E+03  0.10566000000E+00 0.  1.
        -14    1    4    4    0    0  0.81730617164E+01 -0.27721899161E+01 -0.16933897158E+03  0.16955875463E+03  0.00000000000E+00 0.  1.
<mgrwt>
<rscale>  0 0.87164924E+02</rscale>
<asrwt>0</asrwt>
<pdfrwt beam="1">  1        2 0.87736300E-01 0.87164924E+02</pdfrwt>
<pdfrwt beam="2">  1       -1 0.51240987E-03 0.87164924E+02</pdfrwt>
<totfact> 0.25333336E+05</totfact>
</mgrwt>
</event>
<event>
 8    1  0.1226832E-020  0.7955198E+02  0.7818608E-02  0.1330328E+00
         -1   -1    0    0    0  501 -0.00000000000E+00  0.00000000000E+00  0.14825364085E+01  0.14825449754E+01  0.50400000000E-02 0.  1.
          2   -1    0    0  501    0  0.00000000000E+00 -0.00000000000E+00 -0.10671742135E+04  0.10671742135E+04  0.25500000000E-02 0. -1.
         24    2    1    2    0    0 -0.35527136788E-14 -0.17763568394E-14 -0.10656916771E+04  0.10686567585E+04  0.79551975585E+02 0.  0.
         66    2    3    3    0    0 -0.18978749725E+02 -0.10684322604E+02 -0.97988683680E+03  0.98013088954E+03  0.19999992694E+01 0.  0.
        -13    1    3    3    0    0  0.18978749725E+02  0.10684322604E+02 -0.85804840292E+02  0.88525868943E+02  0.10566000000E+00 0.  1.
         13    1    4    4    0    0 -0.12481434057E+02 -0.71465831056E+01 -0.65624255291E+03  0.65640015179E+03  0.10566000000E+00 0. -1.
        -13    1    4    4    0    0 -0.11558964108E+01 -0.36124520161E+00 -0.68463950422E+02  0.68474741811E+02  0.10566000000E+00 0.  1.
         14    1    4    4    0    0 -0.53414192566E+01 -0.31764942969E+01 -0.25518033346E+03  0.25525599594E+03  0.00000000000E+00 0. -1.
<mgrwt>
<rscale>  0 0.79551976E+02</rscale>
<asrwt>0</asrwt>
<pdfrwt beam="1">  1        2 0.16418003E+00 0.79551976E+02</pdfrwt>
<pdfrwt beam="2">  1       -1 0.22808404E-03 0.79551976E+02</pdfrwt>
<totfact> 0.35790243E+05</totfact>
</mgrwt>
</event>
<event>
 8    1  0.1226832E-020  0.7815787E+02  0.7818608E-02  0.1334362E+00
         -1   -1    0    0    0  501 -0.00000000000E+00  0.00000000000E+00  0.72167146766E+01  0.72167164365E+01  0.50400000000E-02 0.  1.
          2   -1    0    0  501    0  0.00000000000E+00 -0.00000000000E+00 -0.21161472493E+03  0.21161472494E+03  0.25500000000E-02 0. -1.
         24    2    1    2    0    0  0.00000000000E+00  0.17763568394E-14 -0.20439801025E+03  0.21883144138E+03  0.78157873191E+02 0.  0.
         66    2    3    3    0    0  0.18971677728E+02  0.96145223517E+01 -0.19397122351E+03  0.19514404723E+03  0.20000059512E+01 0.  0.
        -13    1    3    3    0    0 -0.18971677728E+02 -0.96145223517E+01 -0.10426786745E+02  0.23687394152E+02  0.10566000000E+00 0.  1.
         13    1    4    4    0    0  0.83342001753E+01  0.49639079698E+01 -0.92359374492E+02  0.92867456601E+02  0.10566000000E+00 0. -1.
        -13    1    4    4    0    0  0.49148852611E+01  0.22875783770E+01 -0.43896826963E+02  0.44230438540E+02  0.10566000000E+00 0.  1.
        -14    1    4    4    0    0  0.57225922916E+01  0.23630360049E+01 -0.57715022053E+02  0.58046152089E+02  0.00000000000E+00 0.  1.
<mgrwt>
<rscale>  0 0.78157873E+02</rscale>
<asrwt>0</asrwt>
<pdfrwt beam="1">  1        2 0.32556107E-01 0.78157873E+02</pdfrwt>
<pdfrwt beam="2">  1       -1 0.11102641E-02 0.78157873E+02</pdfrwt>
<totfact> 0.23920635E+05</totfact>
</mgrwt>
</event>
<event>
 8    1  0.1226832E-020  0.8072915E+02  0.7818608E-02  0.1326995E+00
          2   -1    0    0  501    0  0.00000000000E+00  0.00000000000E+00  0.56589484897E+03  0.56589484898E+03  0.25500000000E-02 0. -1.
         -1   -1    0    0    0  501 -0.00000000000E+00 -0.00000000000E+00 -0.28791527757E+01  0.28791571870E+01  0.50400000000E-02 0.  1.
         24    2    1    2    0    0  0.35527136788E-14 -0.22204460493E-15  0.56301569620E+03  0.56877400617E+03  0.80729151645E+02 0.  0.
         66    2    3    3    0    0  0.21516360257E+02 -0.14132146819E+01  0.52188208832E+03  0.52233118331E+03  0.20000016200E+01 0.  0.
        -13    1    3    3    0    0 -0.21516360257E+02  0.14132146819E+01  0.41133607873E+02  0.46442822859E+02  0.10566000000E+00 0.  1.
         13    1    4    4    0    0  0.51173558155E+01 -0.10662889581E+00  0.11286993744E+03  0.11298598428E+03  0.10566000000E+00 0.  1.
        -13    1    4    4    0    0  0.29721381852E+01 -0.34974093358E+00  0.88036522519E+02  0.88087436025E+02  0.10566000000E+00 0. -1.
         14    1    4    4    0    0  0.13426866256E+02 -0.95684485249E+00  0.32097562836E+03  0.32125776301E+03  0.00000000000E+00 0. -1.
<mgrwt>
<rscale>  0 0.80729152E+02</rscale>
<asrwt>0</asrwt>
<pdfrwt beam="1">  1        2 0.87060786E-01 0.80729152E+02</pdfrwt>
<pdfrwt beam="2">  1       -1 0.44294672E-03 0.80729152E+02</pdfrwt>
<totfact> 0.30890873E+05</totfact>
</mgrwt>
</event>
<event>
 8    1  0.1226832E-020  0.7992301E+02  0.7818608E-02  0.1329270E+00
          2   -1    0    0  501    0  0.00000000000E+00  0.00000000000E+00  0.25493235429E+04  0.25493235429E+04  0.25500000000E-02 0. -1.
         -1   -1    0    0    0  501 -0.00000000000E+00 -0.00000000000E+00 -0.62639998114E+00  0.62642025668E+00  0.50400000000E-02 0.  1.
         24    2    1    2    0    0  0.00000000000E+00  0.00000000000E+00  0.25486971429E+04  0.25499499631E+04  0.79923014748E+02 0.  0.
         66    2    3    3    0    0 -0.92533932578E+01 -0.83035523160E+01  0.24860010238E+04  0.24860329170E+04  0.20000001506E+01 0.  0.
        -13    1    3    3    0    0  0.92533932578E+01  0.83035523160E+01  0.62696119086E+02  0.63917046086E+02  0.10566000000E+00 0.  1.
         13    1    4    4    0    0 -0.14923610620E+01 -0.12477450411E+01  0.51368073449E+03  0.51368442857E+03  0.10566000000E+00 0. -1.
        -13    1    4    4    0    0 -0.48356571194E+01 -0.37771660254E+01  0.12023338364E+04  0.12023494982E+04  0.10566000000E+00 0.  1.
        -14    1    4    4    0    0 -0.29253750764E+01 -0.32786412494E+01  0.76998645293E+03  0.76999899026E+03  0.00000000000E+00 0.  1.
<mgrwt>
<rscale>  0 0.79923015E+02</rscale>
<asrwt>0</asrwt>
<pdfrwt beam="1">  1        2 0.39220891E+00 0.79923015E+02</pdfrwt>
<pdfrwt beam="2">  1       -1 0.96369488E-04 0.79923015E+02</pdfrwt>
<totfact> 0.20363136E+05</totfact>
</mgrwt>
</event>
<event>
 8    1  0.1226832E-020  0.8228630E+02  0.7818608E-02  0.1322686E+00
         -1   -1    0    0    0  501 -0.00000000000E+00  0.00000000000E+00  0.21981174665E+02  0.21981175242E+02  0.50400000000E-02 0.  1.
          2   -1    0    0  501    0  0.00000000000E+00 -0.00000000000E+00 -0.77009472817E+02  0.77009472859E+02  0.25500000000E-02 0. -1.
         24    2    1    2    0    0  0.00000000000E+00  0.22204460493E-15 -0.55028298152E+02  0.98990648101E+02  0.82286297851E+02 0.  0.
         66    2    3    3    0    0 -0.10900271734E+02  0.17284630388E+01 -0.75181270456E+02  0.76013333962E+02  0.20000010509E+01 0.  0.
        -13    1    3    3    0    0  0.10900271734E+02 -0.17284630388E+01  0.20152972304E+02  0.22977314140E+02  0.10566000000E+00 0.  1.
         13    1    4    4    0    0 -0.22727051588E+01  0.34234331967E+00 -0.20674624433E+02  0.20802251012E+02  0.10566000000E+00 0. -1.
        -13    1    4    4    0    0 -0.20736302847E+01  0.29612380918E+00 -0.10719388868E+02  0.10922641329E+02  0.10566000000E+00 0. -1.
         14    1    4    4    0    0 -0.65539362906E+01  0.10899959099E+01 -0.43787257155E+02  0.44288441620E+02  0.00000000000E+00 0. -1.
<mgrwt>
<rscale>  0 0.82286298E+02</rscale>
<asrwt>0</asrwt>
<pdfrwt beam="1">  1        2 0.11847611E-01 0.82286298E+02</pdfrwt>
<pdfrwt beam="2">  1       -1 0.33817193E-02 0.82286298E+02</pdfrwt>
<totfact> 0.15321330E+05</totfact>
</mgrwt>
</event>
<event>
 8    1  0.1226832E-020  0.7942104E+02  0.7818608E-02  0.1330703E+00
         -1   -1    0    0    0  501 -0.00000000000E+00  0.00000000000E+00  0.58292418468E+01  0.58292440256E+01  0.50400000000E-02 0.  1.
          2   -1    0    0  501    0  0.00000000000E+00 -0.00000000000E+00 -0.27051972629E+03  0.27051972631E+03  0.25500000000E-02 0. -1.
         24    2    1    2    0    0  0.00000000000E+00  0.00000000000E+00 -0.26469048445E+03  0.27634897033E+03  0.79421035290E+02 0.  0.
         66    2    3    3    0    0 -0.32847593067E+02  0.12561340678E+02 -0.68442345945E+02  0.76974712516E+02  0.19999996317E+01 0.  0.
        -13    1    3    3    0    0  0.32847593067E+02 -0.12561340678E+02 -0.19624813850E+03  0.19937425782E+03  0.10566000000E+00 0.  1.
         13    1    4    4    0    0 -0.65193504210E+01  0.20114140357E+01 -0.12483750278E+02  0.14226837364E+02  0.10566000000E+00 0. -1.
        -13    1    4    4    0    0 -0.15328328777E+02  0.55136270806E+01 -0.32336329382E+02  0.36207832145E+02  0.10566000000E+00 0.  1.
        -14    1    4    4    0    0 -0.10999913869E+02  0.50362995621E+01 -0.23622266285E+02  0.26540043007E+02  0.00000000000E+00 0.  1.
<mgrwt>
<rscale>  0 0.79421035E+02</rscale>
<asrwt>0</asrwt>
<pdfrwt beam="1">  1        2 0.41618410E-01 0.79421035E+02</pdfrwt>
<pdfrwt beam="2">  1       -1 0.89680682E-03 0.79421035E+02</pdfrwt>
<totfact> 0.25029590E+05</totfact>
</mgrwt>
</event>
<event>
 8    1  0.1226832E-020  0.7918417E+02  0.7818608E-02  0.1331383E+00
          2   -1    0    0  501    0  0.00000000000E+00  0.00000000000E+00  0.66656160328E+01  0.66656165206E+01  0.25500000000E-02 0. -1.
         -1   -1    0    0    0  501 -0.00000000000E+00 -0.00000000000E+00 -0.23516701601E+03  0.23516701606E+03  0.50400000000E-02 0.  1.
         24    2    1    2    0    0  0.00000000000E+00  0.00000000000E+00 -0.22850139997E+03  0.24183263258E+03  0.79184167554E+02 0.  0.
         66    2    3    3    0    0 -0.22830094727E+02  0.22917369642E+02 -0.44739946466E+02  0.55245650142E+02  0.19999983111E+01 0.  0.
        -13    1    3    3    0    0  0.22830094727E+02 -0.22917369642E+02 -0.18376145351E+03  0.18658698244E+03  0.10566000000E+00 0.  1.
         13    1    4    4    0    0 -0.34847511677E+01  0.42404948697E+01 -0.68756506838E+01  0.87983534711E+01  0.10566000000E+00 0. -1.
        -13    1    4    4    0    0 -0.44015125613E+01  0.45752125624E+01 -0.92909264237E+01  0.11253371080E+02  0.10566000000E+00 0.  1.
         14    1    4    4    0    0 -0.14943830998E+02  0.14101662210E+02 -0.28573369359E+02  0.35193925591E+02  0.00000000000E+00 0. -1.
<mgrwt>
<rscale>  0 0.79184168E+02</rscale>
<asrwt>0</asrwt>
<pdfrwt beam="1">  1        2 0.10254796E-02 0.79184168E+02</pdfrwt>
<pdfrwt beam="2">  1       -1 0.36179535E-01 0.79184168E+02</pdfrwt>
<totfact> 0.97089294E+04</totfact>
</mgrwt>
</event>
<event>
 8    1  0.1226832E-020  0.8141193E+02  0.7818608E-02  0.1325092E+00
         -1   -1    0    0    0  501 -0.00000000000E+00  0.00000000000E+00  0.20491270224E+01  0.20491332205E+01  0.50400000000E-02 0.  1.
          2   -1    0    0  501    0  0.00000000000E+00 -0.00000000000E+00 -0.80862384114E+03  0.80862384115E+03  0.25500000000E-02 0. -1.
         24    2    1    2    0    0  0.17763568394E-14  0.00000000000E+00 -0.80657471412E+03  0.81067297437E+03  0.81411927328E+02 0.  0.
         66    2    3    3    0    0  0.15590388949E+02 -0.31208732687E+02 -0.61191084714E+03  0.61290776637E+03  0.20000005684E+01 0.  0.
        -13    1    3    3    0    0 -0.15590388949E+02  0.31208732687E+02 -0.19466386698E+03  0.19776520800E+03  0.10566000000E+00 0.  1.
         13    1    4    4    0    0  0.96995350499E+01 -0.20527372298E+02 -0.39228262007E+03  0.39293907819E+03  0.10566000000E+00 0. -1.
        -13    1    4    4    0    0  0.37335370519E+01 -0.63549373237E+01 -0.13981648194E+03  0.14001065786E+03  0.10566000000E+00 0.  1.
        -14    1    4    4    0    0  0.21573168472E+01 -0.43264230650E+01 -0.79811745127E+02  0.79958030321E+02  0.00000000000E+00 0.  1.
<mgrwt>
<rscale>  0 0.81411927E+02</rscale>
<asrwt>0</asrwt>
<pdfrwt beam="1">  1        2 0.12440341E+00 0.81411927E+02</pdfrwt>
<pdfrwt beam="2">  1       -1 0.31525143E-03 0.81411927E+02</pdfrwt>
<totfact> 0.32897404E+05</totfact>
</mgrwt>
</event>
<event>
 8    1  0.1228954E-020  0.8032054E+02  0.7818608E-02  0.1328144E+00
         -1   -1    0    0    0  501 -0.00000000000E+00  0.00000000000E+00  0.34154853078E+01  0.34154890264E+01  0.50400000000E-02 0.  1.
          2   -1    0    0  501    0  0.00000000000E+00 -0.00000000000E+00 -0.47221588279E+03  0.47221588280E+03  0.25500000000E-02 0. -1.
         24    2    1    2    0    0  0.00000000000E+00  0.00000000000E+00 -0.46880039749E+03  0.47563137183E+03  0.80320540232E+02 0.  0.
         66    2    3    3    0    0 -0.18438070906E+02 -0.75769157078E+01 -0.44082574847E+03  0.44128076394E+03  0.20000004751E+01 0.  0.
        -13    1    3    3    0    0  0.18438070906E+02  0.75769157078E+01 -0.27974649017E+02  0.34350607884E+02  0.10566000000E+00 0.  1.
         13    1    4    4    0    0 -0.14624527408E+02 -0.61532086294E+01 -0.34859671403E+03  0.34895761773E+03  0.10566000000E+00 0. -1.
        -13    1    4    4    0    0 -0.36455510828E+00 -0.38340193377E+00 -0.15894205996E+02  0.15903359574E+02  0.10566000000E+00 0. -1.
        -14    1    4    4    0    0 -0.34489883900E+01 -0.10403051446E+01 -0.76334828444E+02  0.76419786635E+02  0.00000000000E+00 0.  1.
<mgrwt>
<rscale>  0 0.80320540E+02</rscale>
<asrwt>0</asrwt>
<pdfrwt beam="1">  1        2 0.72648545E-01 0.80320540E+02</pdfrwt>
<pdfrwt beam="2">  1       -1 0.52545994E-03 0.80320540E+02</pdfrwt>
<totfact> 0.29582928E+05</totfact>
</mgrwt>
</event>
<event>
 8    1  0.1226832E-020  0.7729516E+02  0.7818608E-02  0.1336907E+00
          2   -1    0    0  501    0  0.00000000000E+00  0.00000000000E+00  0.10774212939E+04  0.10774212939E+04  0.25500000000E-02 0. -1.
         -1   -1    0    0    0  501 -0.00000000000E+00 -0.00000000000E+00 -0.13863010848E+01  0.13863102464E+01  0.50400000000E-02 0.  1.
         24    2    1    2    0    0 -0.35527136788E-14  0.00000000000E+00  0.10760349928E+04  0.10788076041E+04  0.77295155136E+02 0.  0.
         66    2    3    3    0    0  0.25526876153E+02 -0.10046874692E+02  0.91780898960E+03  0.91822105317E+03  0.20000001078E+01 0.  0.
        -13    1    3    3    0    0 -0.25526876153E+02  0.10046874692E+02  0.15822600319E+03  0.16058655095E+03  0.10566000000E+00 0.  1.
         13    1    4    4    0    0  0.76119500521E+01 -0.33871172280E+01  0.26038823646E+03  0.26052151389E+03  0.10566000000E+00 0. -1.
        -13    1    4    4    0    0  0.89274651181E+01 -0.30924203201E+01  0.30660311572E+03  0.30674866655E+03  0.10566000000E+00 0.  1.
        -14    1    4    4    0    0  0.89874609824E+01 -0.35673371440E+01  0.35081763742E+03  0.35095087273E+03  0.00000000000E+00 0.  1.
<mgrwt>
<rscale>  0 0.77295155E+02</rscale>
<asrwt>0</asrwt>
<pdfrwt beam="1">  1        2 0.16575727E+00 0.77295155E+02</pdfrwt>
<pdfrwt beam="2">  1       -1 0.21327760E-03 0.77295155E+02</pdfrwt>
<totfact> 0.38556759E+05</totfact>
</mgrwt>
</event>
<event>
 8    1  0.1226832E-020  0.7896194E+02  0.7818608E-02  0.1332023E+00
          2   -1    0    0  501    0  0.00000000000E+00  0.00000000000E+00  0.14252617593E+02  0.14252617821E+02  0.25500000000E-02 0. -1.
         -1   -1    0    0    0  501 -0.00000000000E+00 -0.00000000000E+00 -0.10936566739E+03  0.10936566751E+03  0.50400000000E-02 0.  1.
         24    2    1    2    0    0  0.00000000000E+00  0.00000000000E+00 -0.95113049797E+02  0.12361828533E+03  0.78961941627E+02 0.  0.
         66    2    3    3    0    0  0.33622711670E+02  0.18860559692E+02 -0.60735144252E+02  0.71965027873E+02  0.20000093726E+01 0.  0.
        -13    1    3    3    0    0 -0.33622711670E+02 -0.18860559692E+02 -0.34377905545E+02  0.51653257454E+02  0.10566000000E+00 0.  1.
         13    1    4    4    0    0  0.16588858953E+02  0.99231386118E+01 -0.30502361681E+02  0.36111828442E+02  0.10566000000E+00 0. -1.
        -13    1    4    4    0    0  0.88066156872E+01  0.50299987351E+01 -0.15068975263E+02  0.18164320704E+02  0.10566000000E+00 0.  1.
        -14    1    4    4    0    0  0.82272370295E+01  0.39074223454E+01 -0.15163807308E+02  0.17688878727E+02  0.00000000000E+00 0.  1.
<mgrwt>
<rscale>  0 0.78961942E+02</rscale>
<asrwt>0</asrwt>
<pdfrwt beam="1">  1        2 0.21927105E-02 0.78961942E+02</pdfrwt>
<pdfrwt beam="2">  1       -1 0.16825487E-01 0.78961942E+02</pdfrwt>
<totfact> 0.12010506E+05</totfact>
</mgrwt>
</event>
<event>
 8    1  0.1226832E-020  0.8050124E+02  0.7818608E-02  0.1327635E+00
         -1   -1    0    0    0  501 -0.00000000000E+00  0.00000000000E+00  0.18622227322E+01  0.18622295524E+01  0.50400000000E-02 0.  1.
          2   -1    0    0  501    0  0.00000000000E+00 -0.00000000000E+00 -0.86998701453E+03  0.86998701453E+03  0.25500000000E-02 0. -1.
         24    2    1    2    0    0  0.00000000000E+00  0.00000000000E+00 -0.86812479180E+03  0.87184924409E+03  0.80501243962E+02 0.  0.
         66    2    3    3    0    0  0.29230970963E+01  0.14380758739E+02 -0.83995951377E+03  0.84009007582E+03  0.20000000240E+01 0.  0.
        -13    1    3    3    0    0 -0.29230970963E+01 -0.14380758739E+02 -0.28165278031E+02  0.31759168269E+02  0.10566000000E+00 0.  1.
         13    1    4    4    0    0  0.12583237941E+01  0.82840313852E+01 -0.43619196556E+03  0.43627244989E+03  0.10566000000E+00 0. -1.
        -13    1    4    4    0    0  0.11772981368E+01  0.49648892662E+01 -0.33805667310E+03  0.33809519599E+03  0.10566000000E+00 0.  1.
        -14    1    4    4    0    0  0.48747516539E+00  0.11318380879E+01 -0.65710875110E+02  0.65722429940E+02  0.00000000000E+00 0.  1.
<mgrwt>
<rscale>  0 0.80501244E+02</rscale>
<asrwt>0</asrwt>
<pdfrwt beam="1">  1        2 0.13384383E+00 0.80501244E+02</pdfrwt>
<pdfrwt beam="2">  1       -1 0.28649703E-03 0.80501244E+02</pdfrwt>
<totfact> 0.34244720E+05</totfact>
</mgrwt>
</event>
<event>
 8    1  0.1226832E-020  0.7586167E+02  0.7818608E-02  0.1341223E+00
         -1   -1    0    0    0  501 -0.00000000000E+00  0.00000000000E+00  0.50533545380E+02  0.50533545631E+02  0.50400000000E-02 0.  1.
          2   -1    0    0  501    0  0.00000000000E+00 -0.00000000000E+00 -0.28471149421E+02  0.28471149535E+02  0.25500000000E-02 0. -1.
         24    2    1    2    0    0  0.00000000000E+00 -0.71054273576E-14  0.22062395959E+02  0.79004695166E+02  0.75861667150E+02 0.  0.
         66    2    3    3    0    0 -0.10456974501E+02  0.30363209751E+02 -0.99317200979E+01  0.33673608168E+02  0.20000002111E+01 0.  0.
        -13    1    3    3    0    0  0.10456974501E+02 -0.30363209751E+02  0.31994116057E+02  0.45331086998E+02  0.10566000000E+00 0.  1.
         13    1    4    4    0    0 -0.32566927123E+01  0.10049750351E+02 -0.23592227542E+01  0.10825000027E+02  0.10566000000E+00 0.  1.
        -13    1    4    4    0    0 -0.23303615652E+01  0.62674746043E+01 -0.21598629850E+01  0.70276592895E+01  0.10566000000E+00 0. -1.
         14    1    4    4    0    0 -0.48699202239E+01  0.14045984796E+02 -0.54126343587E+01  0.15820948852E+02  0.00000000000E+00 0. -1.
<mgrwt>
<rscale>  0 0.75861667E+02</rscale>
<asrwt>0</asrwt>
<pdfrwt beam="1">  1        2 0.43801769E-02 0.75861667E+02</pdfrwt>
<pdfrwt beam="2">  1       -1 0.77743916E-02 0.75861667E+02</pdfrwt>
<totfact> 0.15450828E+05</totfact>
</mgrwt>
</event>
<event>
 8    1  0.1226832E-020  0.7929227E+02  0.7818608E-02  0.1331072E+00
         -1   -1    0    0    0  501 -0.00000000000E+00  0.00000000000E+00  0.36760257894E+02  0.36760258240E+02  0.50400000000E-02 0.  1.
          2   -1    0    0  501    0  0.00000000000E+00 -0.00000000000E+00 -0.42758566504E+02  0.42758566580E+02  0.25500000000E-02 0. -1.
         24    2    1    2    0    0  0.35527136788E-14  0.00000000000E+00 -0.59983086095E+01  0.79518824819E+02  0.79292268188E+02 0.  0.
         66    2    3    3    0    0 -0.19498487303E+02 -0.18553839591E+02 -0.32159465788E+02  0.41984130473E+02  0.20000002912E+01 0.  0.
        -13    1    3    3    0    0  0.19498487303E+02  0.18553839591E+02  0.26161157179E+02  0.37534694346E+02  0.10566000000E+00 0.  1.
         13    1    4    4    0    0 -0.79928070371E+01 -0.69428914466E+01 -0.13444875255E+02  0.17113285500E+02  0.10566000000E+00 0. -1.
        -13    1    4    4    0    0 -0.32709584533E+01 -0.26872708936E+01 -0.46195709276E+01  0.62667530388E+01  0.10566000000E+00 0.  1.
        -14    1    4    4    0    0 -0.82347218122E+01 -0.89236772506E+01 -0.14095019606E+02  0.18604091934E+02  0.00000000000E+00 0.  1.
<mgrwt>
<rscale>  0 0.79292268E+02</rscale>
<asrwt>0</asrwt>
<pdfrwt beam="1">  1        2 0.65782410E-02 0.79292268E+02</pdfrwt>
<pdfrwt beam="2">  1       -1 0.56554243E-02 0.79292268E+02</pdfrwt>
<totfact> 0.14811533E+05</totfact>
</mgrwt>
</event>
<event>
 8    1  0.1226832E-020  0.7768101E+02  0.7818608E-02  0.1335764E+00
         -1   -1    0    0    0  501 -0.00000000000E+00  0.00000000000E+00  0.17563518946E+01  0.17563591259E+01  0.50400000000E-02 0.  1.
          2   -1    0    0  501    0  0.00000000000E+00 -0.00000000000E+00 -0.85892906109E+03  0.85892906109E+03  0.25500000000E-02 0. -1.
         24    2    1    2    0    0  0.00000000000E+00 -0.35527136788E-14 -0.85717270920E+03  0.86068542022E+03  0.77681009194E+02 0.  0.
         66    2    3    3    0    0  0.20543088135E+02  0.22468711297E+02 -0.69564036469E+03  0.69630911127E+03  0.19999996173E+01 0.  0.
        -13    1    3    3    0    0 -0.20543088135E+02 -0.22468711297E+02 -0.16153234451E+03  0.16437630895E+03  0.10566000000E+00 0.  1.
         13    1    4    4    0    0  0.24655925162E+01  0.25416916455E+01 -0.84917766573E+02  0.84991632451E+02  0.10566000000E+00 0. -1.
        -13    1    4    4    0    0  0.16751673697E+00  0.24159804557E+00 -0.43973024227E+01  0.44083856575E+01  0.10566000000E+00 0.  1.
         14    1    4    4    0    0  0.17909978882E+02  0.19685421606E+02 -0.60632529569E+03  0.60690909316E+03  0.00000000000E+00 0. -1.
<mgrwt>
<rscale>  0 0.77681009E+02</rscale>
<asrwt>0</asrwt>
<pdfrwt beam="1">  1        2 0.13214260E+00 0.77681009E+02</pdfrwt>
<pdfrwt beam="2">  1       -1 0.27020923E-03 0.77681009E+02</pdfrwt>
<totfact> 0.37499806E+05</totfact>
</mgrwt>
</event>
<event>
 8    1  0.1226832E-020  0.7203976E+02  0.7818608E-02  0.1353291E+00
          2   -1    0    0  501    0  0.00000000000E+00  0.00000000000E+00  0.91505564485E+03  0.91505564486E+03  0.25500000000E-02 0. -1.
         -1   -1    0    0    0  501 -0.00000000000E+00 -0.00000000000E+00 -0.14178676004E+01  0.14178765580E+01  0.50400000000E-02 0.  1.
         24    2    1    2    0    0  0.00000000000E+00  0.17763568394E-14  0.91363777725E+03  0.91647352142E+03  0.72039762847E+02 0.  0.
         66    2    3    3    0    0 -0.61580381221E+01 -0.88039595233E+01  0.89417650199E+03  0.89424328220E+03  0.19999766894E+01 0.  0.
        -13    1    3    3    0    0  0.61580381221E+01  0.88039595233E+01  0.19461275265E+02  0.22230239220E+02  0.10566000000E+00 0.  1.
         13    1    4    4    0    0 -0.11640092382E+01 -0.11062188140E+01  0.11115203625E+03  0.11116368545E+03  0.10566000000E+00 0. -1.
        -13    1    4    4    0    0 -0.27487956660E+01 -0.55017116100E+01  0.51561826473E+03  0.51565495323E+03  0.10566000000E+00 0.  1.
        -14    1    4    4    0    0 -0.22452332178E+01 -0.21960290992E+01  0.26740620101E+03  0.26742464351E+03  0.00000000000E+00 0.  1.
<mgrwt>
<rscale>  0 0.72039763E+02</rscale>
<asrwt>0</asrwt>
<pdfrwt beam="1">  1        2 0.14077751E+00 0.72039763E+02</pdfrwt>
<pdfrwt beam="2">  1       -1 0.21813460E-03 0.72039763E+02</pdfrwt>
<totfact> 0.45889845E+05</totfact>
</mgrwt>
</event>
<event>
 8    1  0.1226832E-020  0.8016505E+02  0.7818608E-02  0.1328584E+00
         -1   -1    0    0    0  501 -0.00000000000E+00  0.00000000000E+00  0.37881664431E+01  0.37881697959E+01  0.50400000000E-02 0.  1.
          2   -1    0    0  501    0  0.00000000000E+00 -0.00000000000E+00 -0.42411233215E+03  0.42411233216E+03  0.25500000000E-02 0. -1.
         24    2    1    2    0    0 -0.71054273576E-14  0.00000000000E+00 -0.42032416571E+03  0.42790050195E+03  0.80165050333E+02 0.  0.
         66    2    3    3    0    0 -0.31196803777E+02  0.44353226382E+01 -0.34230770168E+03  0.34376078199E+03  0.19999874203E+01 0.  0.
        -13    1    3    3    0    0  0.31196803777E+02 -0.44353226382E+01 -0.78016464023E+02  0.84139719963E+02  0.10566000000E+00 0.  1.
         13    1    4    4    0    0 -0.12629904542E+02  0.16838261611E+01 -0.13270238724E+03  0.13331273196E+03  0.10566000000E+00 0. -1.
        -13    1    4    4    0    0 -0.12332864766E+02  0.20841460460E+01 -0.14569894901E+03  0.14623487315E+03  0.10566000000E+00 0.  1.
        -14    1    4    4    0    0 -0.62340344685E+01  0.66735043114E+00 -0.63906365427E+02  0.64213176875E+02  0.00000000000E+00 0.  1.
<mgrwt>
<rscale>  0 0.80165050E+02</rscale>
<asrwt>0</asrwt>
<pdfrwt beam="1">  1        2 0.65248014E-01 0.80165050E+02</pdfrwt>
<pdfrwt beam="2">  1       -1 0.58279543E-03 0.80165050E+02</pdfrwt>
<totfact> 0.28677798E+05</totfact>
</mgrwt>
</event>
<event>
 8    1  0.1226832E-020  0.8051250E+02  0.7818608E-02  0.1327603E+00
         -1   -1    0    0    0  501 -0.00000000000E+00  0.00000000000E+00  0.82207947114E+01  0.82207962564E+01  0.50400000000E-02 0.  1.
          2   -1    0    0  501    0  0.00000000000E+00 -0.00000000000E+00 -0.19713005322E+03  0.19713005323E+03  0.25500000000E-02 0. -1.
         24    2    1    2    0    0  0.44408920985E-15  0.00000000000E+00 -0.18890925851E+03  0.20535084949E+03  0.80512504849E+02 0.  0.
         66    2    3    3    0    0  0.27517364654E+01 -0.17724849799E+02 -0.18636140005E+03  0.18723331377E+03  0.20000001645E+01 0.  0.
        -13    1    3    3    0    0 -0.27517364654E+01  0.17724849799E+02 -0.25478584545E+01  0.18117535724E+02  0.10566000000E+00 0.  1.
         13    1    4    4    0    0 -0.63421198045E-01 -0.37585535539E+01 -0.42931336032E+02  0.43095725131E+02  0.10566000000E+00 0. -1.
        -13    1    4    4    0    0  0.18473032605E+00 -0.14062599886E+01 -0.15936610557E+02  0.15999950391E+02  0.10566000000E+00 0. -1.
         14    1    4    4    0    0  0.26304273374E+01 -0.12560036257E+02 -0.12749345346E+03  0.12813763824E+03  0.00000000000E+00 0. -1.
<mgrwt>
<rscale>  0 0.80512505E+02</rscale>
<asrwt>0</asrwt>
<pdfrwt beam="1">  1        2 0.30327697E-01 0.80512505E+02</pdfrwt>
<pdfrwt beam="2">  1       -1 0.12647379E-02 0.80512505E+02</pdfrwt>
<totfact> 0.21581322E+05</totfact>
</mgrwt>
</event>
<event>
 8    1  0.1226832E-020  0.7999279E+02  0.7818608E-02  0.1329072E+00
          2   -1    0    0  501    0  0.00000000000E+00  0.00000000000E+00  0.23293528292E+03  0.23293528294E+03  0.25500000000E-02 0. -1.
         -1   -1    0    0    0  501 -0.00000000000E+00 -0.00000000000E+00 -0.68676213967E+01  0.68676232461E+01  0.50400000000E-02 0.  1.
         24    2    1    2    0    0  0.44408920985E-15 -0.35527136788E-14  0.22606766153E+03  0.23980290618E+03  0.79992788587E+02 0.  0.
         66    2    3    3    0    0  0.36951035689E+01 -0.17111191300E+02  0.22082778955E+03  0.22152959011E+03  0.19999996771E+01 0.  0.
        -13    1    3    3    0    0 -0.36951035689E+01  0.17111191300E+02  0.52398719815E+01  0.18273316078E+02  0.10566000000E+00 0.  1.
         13    1    4    4    0    0  0.13775449893E+01 -0.65466441022E+01  0.84551471320E+02  0.84815792430E+02  0.10566000000E+00 0. -1.
        -13    1    4    4    0    0  0.11584461493E+01 -0.41519354652E+01  0.45483064610E+02  0.45686988257E+02  0.10566000000E+00 0.  1.
         14    1    4    4    0    0  0.11591124303E+01 -0.64126117321E+01  0.90793253616E+02  0.91026809419E+02  0.00000000000E+00 0. -1.
<mgrwt>
<rscale>  0 0.79992789E+02</rscale>
<asrwt>0</asrwt>
<pdfrwt beam="1">  1        2 0.35836191E-01 0.79992789E+02</pdfrwt>
<pdfrwt beam="2">  1       -1 0.10565575E-02 0.79992789E+02</pdfrwt>
<totfact> 0.23279073E+05</totfact>
</mgrwt>
</event>
<event>
 8    1  0.1226832E-020  0.8135667E+02  0.7818608E-02  0.1325245E+00
         -1   -1    0    0    0  501 -0.00000000000E+00  0.00000000000E+00  0.61287578344E+01  0.61287599067E+01  0.50400000000E-02 0.  1.
          2   -1    0    0  501    0  0.00000000000E+00 -0.00000000000E+00 -0.26999383550E+03  0.26999383552E+03  0.25500000000E-02 0. -1.
         24    2    1    2    0    0  0.35527136788E-14 -0.35527136788E-14 -0.26386507767E+03  0.27612259542E+03  0.81356674523E+02 0.  0.
         66    2    3    3    0    0  0.16126967832E+02 -0.18949589264E+02 -0.24112486921E+03  0.24241363119E+03  0.20000027277E+01 0.  0.
        -13    1    3    3    0    0 -0.16126967832E+02  0.18949589264E+02 -0.22740208458E+02  0.33708964230E+02  0.10566000000E+00 0.  1.
         13    1    4    4    0    0  0.13434471142E+01 -0.18761448615E+01 -0.20130414738E+02  0.20262515423E+02  0.10566000000E+00 0. -1.
        -13    1    4    4    0    0  0.54795752436E+01 -0.59325439247E+01 -0.72179537237E+02  0.72630004695E+02  0.10566000000E+00 0.  1.
         14    1    4    4    0    0  0.93039454737E+01 -0.11140900478E+02 -0.14881491724E+03  0.14952111107E+03  0.00000000000E+00 0. -1.
<mgrwt>
<rscale>  0 0.81356675E+02</rscale>
<asrwt>0</asrwt>
<pdfrwt beam="1">  1        2 0.41537504E-01 0.81356675E+02</pdfrwt>
<pdfrwt beam="2">  1       -1 0.94288620E-03 0.81356675E+02</pdfrwt>
<totfact> 0.23478811E+05</totfact>
</mgrwt>
</event>
<event>
 8    1  0.1226832E-020  0.8015646E+02  0.7818608E-02  0.1328608E+00
          2   -1    0    0  501    0  0.00000000000E+00  0.00000000000E+00  0.68860934480E+03  0.68860934480E+03  0.25500000000E-02 0. -1.
         -1   -1    0    0    0  501 -0.00000000000E+00 -0.00000000000E+00 -0.23326183173E+01  0.23326237622E+01  0.50400000000E-02 0.  1.
         24    2    1    2    0    0 -0.35527136788E-14  0.35527136788E-14  0.68627672648E+03  0.69094196856E+03  0.80156463340E+02 0.  0.
         66    2    3    3    0    0  0.30898734341E+02 -0.17438705615E+02  0.50355652344E+03  0.50480888714E+03  0.19999998045E+01 0.  0.
        -13    1    3    3    0    0 -0.30898734341E+02  0.17438705615E+02  0.18272020304E+03  0.18613308142E+03  0.10566000000E+00 0.  1.
         13    1    4    4    0    0  0.25856506120E+02 -0.14527343618E+02  0.42625843245E+03  0.42728897133E+03  0.10566000000E+00 0. -1.
        -13    1    4    4    0    0  0.10347823152E+01 -0.68294863791E+00  0.19977533408E+02  0.20016248360E+02  0.10566000000E+00 0.  1.
         14    1    4    4    0    0  0.40074459058E+01 -0.22284133594E+01  0.57320557584E+02  0.57503667453E+02  0.00000000000E+00 0. -1.
<mgrwt>
<rscale>  0 0.80156463E+02</rscale>
<asrwt>0</asrwt>
<pdfrwt beam="1">  1        2 0.10594007E+00 0.80156463E+02</pdfrwt>
<pdfrwt beam="2">  1       -1 0.35886420E-03 0.80156463E+02</pdfrwt>
<totfact> 0.33155860E+05</totfact>
</mgrwt>
</event>
<event>
 8    1  0.1226832E-020  0.7661550E+02  0.7818608E-02  0.1338940E+00
         -1   -1    0    0    0  501 -0.00000000000E+00  0.00000000000E+00  0.21175511864E+02  0.21175512464E+02  0.50400000000E-02 0.  1.
          2   -1    0    0  501    0  0.00000000000E+00 -0.00000000000E+00 -0.69300972099E+02  0.69300972146E+02  0.25500000000E-02 0. -1.
         24    2    1    2    0    0  0.35527136788E-14  0.35527136788E-14 -0.48125460234E+02  0.90476484610E+02  0.76615496765E+02 0.  0.
         66    2    3    3    0    0 -0.24920663645E+02  0.17158203298E+02 -0.51774910259E+02  0.60000706253E+02  0.20000003739E+01 0.  0.
        -13    1    3    3    0    0  0.24920663645E+02 -0.17158203298E+02  0.36494500251E+01  0.30475778357E+02  0.10566000000E+00 0.  1.
         13    1    4    4    0    0 -0.18355569494E+01  0.12414533007E+01 -0.30288688642E+01  0.37544222251E+01  0.10566000000E+00 0.  1.
        -13    1    4    4    0    0 -0.62566965405E+01  0.44500784270E+01 -0.14300181367E+02  0.16231321597E+02  0.10566000000E+00 0. -1.
        -14    1    4    4    0    0 -0.16828410155E+02  0.11466671571E+02 -0.34445860028E+02  0.40014962431E+02  0.00000000000E+00 0.  1.
<mgrwt>
<rscale>  0 0.76615497E+02</rscale>
<asrwt>0</asrwt>
<pdfrwt beam="1">  1        2 0.10661688E-01 0.76615497E+02</pdfrwt>
<pdfrwt beam="2">  1       -1 0.32577712E-02 0.76615497E+02</pdfrwt>
<totfact> 0.18101207E+05</totfact>
</mgrwt>
</event>
<event>
 8    1  0.1589066E-020  0.7315316E+02  0.7818608E-02  0.1349687E+00
          2   -1    0    0  501    0  0.00000000000E+00  0.00000000000E+00  0.64670487070E+02  0.64670487121E+02  0.25500000000E-02 0. -1.
         -1   -1    0    0    0  501 -0.00000000000E+00 -0.00000000000E+00 -0.20687122341E+02  0.20687122955E+02  0.50400000000E-02 0.  1.
         24    2    1    2    0    0 -0.44408920985E-15  0.17763568394E-14  0.43983364730E+02  0.85357610075E+02  0.73153162781E+02 0.  0.
         66    2    3    3    0    0  0.35199949073E+01 -0.14689676651E+02  0.60842175854E+02  0.62721187195E+02  0.19999990602E+01 0.  0.
        -13    1    3    3    0    0 -0.35199949073E+01  0.14689676651E+02 -0.16858811124E+02  0.22636422880E+02  0.10566000000E+00 0.  1.
         13    1    4    4    0    0  0.18300224674E+01 -0.97407193980E+01  0.40276153770E+02  0.41477829296E+02  0.10566000000E+00 0. -1.
        -13    1    4    4    0    0  0.34726574650E+00 -0.18968603457E+01  0.90812555585E+01  0.92843437691E+01  0.10566000000E+00 0.  1.
        -14    1    4    4    0    0  0.13427066934E+01 -0.30520969076E+01  0.11484766525E+02  0.11959014129E+02  0.00000000000E+00 0.  1.
<mgrwt>
<rscale>  0 0.73153163E+02</rscale>
<asrwt>0</asrwt>
<pdfrwt beam="1">  1        2 0.99493055E-02 0.73153163E+02</pdfrwt>
<pdfrwt beam="2">  1       -1 0.31826343E-02 0.73153163E+02</pdfrwt>
<totfact> 0.20163039E+05</totfact>
</mgrwt>
</event>
<event>
 8    1  0.1226832E-020  0.8053105E+02  0.7818608E-02  0.1327551E+00
          2   -1    0    0  501    0  0.00000000000E+00  0.00000000000E+00  0.45274286090E+03  0.45274286091E+03  0.25500000000E-02 0. -1.
         -1   -1    0    0    0  501 -0.00000000000E+00 -0.00000000000E+00 -0.35810870134E+01  0.35810905600E+01  0.50400000000E-02 0.  1.
         24    2    1    2    0    0 -0.71054273576E-14  0.00000000000E+00  0.44916177389E+03  0.45632395147E+03  0.80531047191E+02 0.  0.
         66    2    3    3    0    0  0.37730921114E+02  0.10993938559E+02  0.27373231236E+03  0.27654632153E+03  0.20000060512E+01 0.  0.
        -13    1    3    3    0    0 -0.37730921114E+02 -0.10993938559E+02  0.17542946152E+03  0.17977762994E+03  0.10566000000E+00 0.  1.
         13    1    4    4    0    0  0.17623516310E+02  0.44592846326E+01  0.12659727941E+03  0.12789587900E+03  0.10566000000E+00 0. -1.
        -13    1    4    4    0    0  0.11992525580E+02  0.41273593196E+01  0.91666443412E+02  0.92539741606E+02  0.10566000000E+00 0.  1.
         14    1    4    4    0    0  0.81148792251E+01  0.24072946064E+01  0.55468589537E+02  0.56110700917E+02  0.00000000000E+00 0. -1.
<mgrwt>
<rscale>  0 0.80531047E+02</rscale>
<asrwt>0</asrwt>
<pdfrwt beam="1">  1        2 0.69652724E-01 0.80531047E+02</pdfrwt>
<pdfrwt beam="2">  1       -1 0.55093693E-03 0.80531047E+02</pdfrwt>
<totfact> 0.28973889E+05</totfact>
</mgrwt>
</event>
<event>
 8    1  0.1226832E-020  0.7847754E+02  0.7818608E-02  0.1333428E+00
         -1   -1    0    0    0  501 -0.00000000000E+00  0.00000000000E+00  0.90248286358E+01  0.90248300431E+01  0.50400000000E-02 0.  1.
          2   -1    0    0  501    0  0.00000000000E+00 -0.00000000000E+00 -0.17060499933E+03  0.17060499935E+03  0.25500000000E-02 0. -1.
         24    2    1    2    0    0 -0.22204460493E-15  0.35527136788E-14 -0.16158017069E+03  0.17962982939E+03  0.78477538480E+02 0.  0.
         66    2    3    3    0    0  0.12460909517E+01  0.23997402934E+02 -0.15177156637E+03  0.15367510009E+03  0.19999850954E+01 0.  0.
        -13    1    3    3    0    0 -0.12460909517E+01 -0.23997402934E+02 -0.98086043282E+01  0.25954729302E+02  0.10566000000E+00 0.  1.
         13    1    4    4    0    0  0.15731833726E+01  0.14590905082E+02 -0.90956526922E+02  0.92132895161E+02  0.10566000000E+00 0. -1.
        -13    1    4    4    0    0 -0.21780866066E+00  0.29464887934E+01 -0.20752307933E+02  0.20961838789E+02  0.10566000000E+00 0.  1.
         14    1    4    4    0    0 -0.10928376024E+00  0.64600090585E+01 -0.40062731511E+02  0.40580366140E+02  0.00000000000E+00 0. -1.
<mgrwt>
<rscale>  0 0.78477538E+02</rscale>
<asrwt>0</asrwt>
<pdfrwt beam="1">  1        2 0.26246920E-01 0.78477538E+02</pdfrwt>
<pdfrwt beam="2">  1       -1 0.13884354E-02 0.78477538E+02</pdfrwt>
<totfact> 0.21982962E+05</totfact>
</mgrwt>
</event>
<event>
 8    1  0.1226832E-020  0.8023342E+02  0.7818608E-02  0.1328390E+00
         -1   -1    0    0    0  501 -0.00000000000E+00  0.00000000000E+00  0.43929675382E+02  0.43929675671E+02  0.50400000000E-02 0.  1.
          2   -1    0    0  501    0  0.00000000000E+00 -0.00000000000E+00 -0.36634696760E+02  0.36634696849E+02  0.25500000000E-02 0. -1.
         24    2    1    2    0    0 -0.17763568394E-14  0.71054273576E-14  0.72949786220E+01  0.80564372520E+02  0.80233418265E+02 0.  0.
         66    2    3    3    0    0  0.13827041513E+02 -0.36640768815E+02 -0.49654063061E+01  0.39527057562E+02  0.20000008342E+01 0.  0.
        -13    1    3    3    0    0 -0.13827041513E+02  0.36640768815E+02  0.12260384928E+02  0.41037314958E+02  0.10566000000E+00 0.  1.
         13    1    4    4    0    0  0.53625311586E+01 -0.12481197950E+02 -0.17568640343E+01  0.13697984449E+02  0.10566000000E+00 0. -1.
        -13    1    4    4    0    0  0.62403347198E+01 -0.19095813585E+02 -0.22425317939E+01  0.20214647827E+02  0.10566000000E+00 0.  1.
        -14    1    4    4    0    0  0.22241756346E+01 -0.50637572804E+01 -0.96601047789E+00  0.56144252860E+01  0.00000000000E+00 0.  1.
<mgrwt>
<rscale>  0 0.80233418E+02</rscale>
<asrwt>0</asrwt>
<pdfrwt beam="1">  1        2 0.56361072E-02 0.80233418E+02</pdfrwt>
<pdfrwt beam="2">  1       -1 0.67584116E-02 0.80233418E+02</pdfrwt>
<totfact> 0.13889359E+05</totfact>
</mgrwt>
</event>
<event>
 8    1  0.1226832E-020  0.7700447E+02  0.7818608E-02  0.1337774E+00
         -1   -1    0    0    0  501 -0.00000000000E+00  0.00000000000E+00  0.67874753865E+02  0.67874754052E+02  0.50400000000E-02 0.  1.
          2   -1    0    0  501    0  0.00000000000E+00 -0.00000000000E+00 -0.21840550433E+02  0.21840550581E+02  0.25500000000E-02 0. -1.
         24    2    1    2    0    0  0.71054273576E-14  0.00000000000E+00  0.46034203432E+02  0.89715304633E+02  0.77004467401E+02 0.  0.
         66    2    3    3    0    0 -0.37337518472E+02  0.36628548618E+01  0.32980797454E+02  0.49992397350E+02  0.20000001602E+01 0.  0.
        -13    1    3    3    0    0  0.37337518472E+02 -0.36628548618E+01  0.13053405978E+02  0.39722907284E+02  0.10566000000E+00 0.  1.
         13    1    4    4    0    0 -0.15723077263E+01 -0.25819614213E-01  0.10960239878E+01  0.19197007205E+01  0.10566000000E+00 0. -1.
        -13    1    4    4    0    0 -0.20006381349E+02  0.15601951515E+01  0.18281326049E+02  0.27146041143E+02  0.10566000000E+00 0.  1.
        -14    1    4    4    0    0 -0.15758829397E+02  0.21284793245E+01  0.13603447417E+02  0.20926655486E+02  0.00000000000E+00 0.  1.
<mgrwt>
<rscale>  0 0.77004467E+02</rscale>
<asrwt>0</asrwt>
<pdfrwt beam="1">  1        2 0.33600847E-02 0.77004467E+02</pdfrwt>
<pdfrwt beam="2">  1       -1 0.10442270E-01 0.77004467E+02</pdfrwt>
<totfact> 0.14086507E+05</totfact>
</mgrwt>
</event>
<event>
 8    1  0.1395119E-020  0.7881158E+02  0.7818608E-02  0.1332458E+00
          2   -1    0    0  501    0  0.00000000000E+00  0.00000000000E+00  0.24715278858E+03  0.24715278859E+03  0.25500000000E-02 0. -1.
         -1   -1    0    0    0  501 -0.00000000000E+00 -0.00000000000E+00 -0.62828175661E+01  0.62828195876E+01  0.50400000000E-02 0.  1.
         24    2    1    2    0    0  0.00000000000E+00 -0.71054273576E-14  0.24086997101E+03  0.25343560818E+03  0.78811576292E+02 0.  0.
         66    2    3    3    0    0  0.99554927445E+01 -0.37878395843E+02  0.13374236558E+03  0.13937325805E+03  0.20000002516E+01 0.  0.
        -13    1    3    3    0    0 -0.99554927445E+01  0.37878395843E+02  0.10712760543E+03  0.11406235013E+03  0.10566000000E+00 0.  1.
         13    1    4    4    0    0  0.54991965454E+01 -0.21427500406E+02  0.75182694806E+02  0.78369813695E+02  0.10566000000E+00 0.  1.
        -13    1    4    4    0    0  0.37477031530E+01 -0.15192248429E+02  0.53425327126E+02  0.55669798220E+02  0.10566000000E+00 0. -1.
        -14    1    4    4    0    0  0.70859304609E+00 -0.12586470077E+01  0.51343436521E+01  0.53336461387E+01  0.00000000000E+00 0.  1.
<mgrwt>
<rscale>  0 0.78811576E+02</rscale>
<asrwt>0</asrwt>
<pdfrwt beam="1">  1        2 0.38023500E-01 0.78811576E+02</pdfrwt>
<pdfrwt beam="2">  1       -1 0.96658762E-03 0.78811576E+02</pdfrwt>
<totfact> 0.24724084E+05</totfact>
</mgrwt>
</event>
<event>
 8    1  0.1226832E-020  0.7942391E+02  0.7818608E-02  0.1330694E+00
          2   -1    0    0  501    0  0.00000000000E+00  0.00000000000E+00  0.12468380144E+04  0.12468380144E+04  0.25500000000E-02 0. -1.
         -1   -1    0    0    0  501 -0.00000000000E+00 -0.00000000000E+00 -0.12648259928E+01  0.12648360343E+01  0.50400000000E-02 0.  1.
         24    2    1    2    0    0 -0.35527136788E-14  0.00000000000E+00  0.12455731884E+04  0.12481028505E+04  0.79423910696E+02 0.  0.
         66    2    3    3    0    0 -0.19924125993E+02  0.58730450518E+01  0.11545915628E+04  0.11547801264E+04  0.20000117616E+01 0.  0.
        -13    1    3    3    0    0  0.19924125993E+02 -0.58730450518E+01  0.90981625669E+02  0.93322724072E+02  0.10566000000E+00 0.  1.
         13    1    4    4    0    0 -0.65771927026E+01  0.23632848338E+01  0.38008822303E+03  0.38015248655E+03  0.10566000000E+00 0. -1.
        -13    1    4    4    0    0 -0.60674844327E+01  0.10999505176E+01  0.31582887562E+03  0.31588908512E+03  0.10566000000E+00 0.  1.
        -14    1    4    4    0    0 -0.72794488578E+01  0.24098097004E+01  0.45867446411E+03  0.45873855472E+03  0.00000000000E+00 0.  1.
<mgrwt>
<rscale>  0 0.79423911E+02</rscale>
<asrwt>0</asrwt>
<pdfrwt beam="1">  1        2 0.19182189E+00 0.79423911E+02</pdfrwt>
<pdfrwt beam="2">  1       -1 0.19458873E-03 0.79423911E+02</pdfrwt>
<totfact> 0.35525153E+05</totfact>
</mgrwt>
</event>
<event>
 8    1  0.1226832E-020  0.8090780E+02  0.7818608E-02  0.1326495E+00
         -1   -1    0    0    0  501 -0.00000000000E+00  0.00000000000E+00  0.15297209462E+01  0.15297292489E+01  0.50400000000E-02 0.  1.
          2   -1    0    0  501    0  0.00000000000E+00 -0.00000000000E+00 -0.10698118710E+04  0.10698118710E+04  0.25500000000E-02 0. -1.
         24    2    1    2    0    0 -0.17763568394E-14  0.00000000000E+00 -0.10682821500E+04  0.10713416002E+04  0.80907801273E+02 0.  0.
         66    2    3    3    0    0  0.96498012639E+01  0.12311951553E+02 -0.10281122214E+04  0.10282331655E+04  0.20000024826E+01 0.  0.
        -13    1    3    3    0    0 -0.96498012639E+01 -0.12311951553E+02 -0.40169928670E+02  0.43108434777E+02  0.10566000000E+00 0.  1.
         13    1    4    4    0    0  0.51016314651E+01  0.64552859983E+01 -0.50366799360E+03  0.50373520455E+03  0.10566000000E+00 0. -1.
        -13    1    4    4    0    0  0.71122004878E+00  0.11051432497E+01 -0.67053064809E+02  0.67066025974E+02  0.10566000000E+00 0.  1.
         14    1    4    4    0    0  0.38369497500E+01  0.47515223051E+01 -0.45739116296E+03  0.45743193494E+03  0.00000000000E+00 0. -1.
<mgrwt>
<rscale>  0 0.80907801E+02</rscale>
<asrwt>0</asrwt>
<pdfrwt beam="1">  1        2 0.16458584E+00 0.80907801E+02</pdfrwt>
<pdfrwt beam="2">  1       -1 0.23534318E-03 0.80907801E+02</pdfrwt>
<totfact> 0.34252832E+05</totfact>
</mgrwt>
</event>
<event>
 8    1  0.1226832E-020  0.8388371E+02  0.7818608E-02  0.1318378E+00
          2   -1    0    0  501    0  0.00000000000E+00  0.00000000000E+00  0.32802712730E+03  0.32802712731E+03  0.25500000000E-02 0. -1.
         -1   -1    0    0    0  501 -0.00000000000E+00 -0.00000000000E+00 -0.53627238475E+01  0.53627262159E+01  0.50400000000E-02 0.  1.
         24    2    1    2    0    0  0.00000000000E+00  0.00000000000E+00  0.32266440345E+03  0.33338985353E+03  0.83883712237E+02 0.  0.
         66    2    3    3    0    0  0.30195225050E+02  0.47004922208E+01  0.27546054728E+03  0.27715764350E+03  0.19999997333E+01 0.  0.
        -13    1    3    3    0    0 -0.30195225050E+02 -0.47004922208E+01  0.47203856171E+02  0.56232210026E+02  0.10566000000E+00 0.  1.
         13    1    4    4    0    0  0.23399759600E+02  0.37228291851E+01  0.21179419613E+03  0.21311546374E+03  0.10566000000E+00 0. -1.
        -13    1    4    4    0    0  0.63430453232E+01  0.10731449338E+01  0.57600892267E+02  0.57959121956E+02  0.10566000000E+00 0.  1.
        -14    1    4    4    0    0  0.45242012621E+00 -0.95481898117E-01  0.60654588832E+01  0.60830578024E+01  0.00000000000E+00 0.  1.
<mgrwt>
<rscale>  0 0.83883712E+02</rscale>
<asrwt>0</asrwt>
<pdfrwt beam="1">  1        2 0.50465716E-01 0.83883712E+02</pdfrwt>
<pdfrwt beam="2">  1       -1 0.82503456E-03 0.83883712E+02</pdfrwt>
<totfact> 0.23249666E+05</totfact>
</mgrwt>
</event>
<event>
 8    1  0.1226832E-020  0.8276447E+02  0.7818608E-02  0.1321384E+00
         -1   -1    0    0    0  501 -0.00000000000E+00  0.00000000000E+00  0.18143259390E+01  0.18143329393E+01  0.50400000000E-02 0.  1.
          2   -1    0    0  501    0  0.00000000000E+00 -0.00000000000E+00 -0.94386894133E+03  0.94386894133E+03  0.25500000000E-02 0. -1.
         24    2    1    2    0    0  0.00000000000E+00  0.17763568394E-14 -0.94205461539E+03  0.94568327427E+03  0.82764466166E+02 0.  0.
         66    2    3    3    0    0 -0.24903988848E+01 -0.13205556929E+02 -0.91822454582E+03  0.91832505429E+03  0.19999960500E+01 0.  0.
        -13    1    3    3    0    0  0.24903988848E+01  0.13205556929E+02 -0.23830069573E+02  0.27358219977E+02  0.10566000000E+00 0.  1.
         13    1    4    4    0    0 -0.77068307450E+00 -0.39897830319E+01 -0.26298429582E+03  0.26301570929E+03  0.10566000000E+00 0. -1.
        -13    1    4    4    0    0 -0.15117400324E+01 -0.43367641775E+01 -0.34714193851E+03  0.34717233403E+03  0.10566000000E+00 0.  1.
        -14    1    4    4    0    0 -0.20797577788E+00 -0.48790097199E+01 -0.30809831148E+03  0.30813701097E+03  0.00000000000E+00 0.  1.
<mgrwt>
<rscale>  0 0.82764466E+02</rscale>
<asrwt>0</asrwt>
<pdfrwt beam="1">  1        2 0.14521021E+00 0.82764466E+02</pdfrwt>
<pdfrwt beam="2">  1       -1 0.27912836E-03 0.82764466E+02</pdfrwt>
<totfact> 0.32137172E+05</totfact>
</mgrwt>
</event>
<event>
 8    1  0.1226832E-020  0.7886085E+02  0.7818608E-02  0.1332316E+00
         -1   -1    0    0    0  501 -0.00000000000E+00  0.00000000000E+00  0.24639656212E+02  0.24639656727E+02  0.50400000000E-02 0.  1.
          2   -1    0    0  501    0  0.00000000000E+00 -0.00000000000E+00 -0.63099845493E+02  0.63099845544E+02  0.25500000000E-02 0. -1.
         24    2    1    2    0    0  0.35527136788E-14  0.00000000000E+00 -0.38460189281E+02  0.87739502272E+02  0.78860852768E+02 0.  0.
         66    2    3    3    0    0 -0.27137700377E+02 -0.21257153224E+02 -0.40481821200E+02  0.53208074491E+02  0.19999995923E+01 0.  0.
        -13    1    3    3    0    0  0.27137700377E+02  0.21257153224E+02  0.20216319189E+01  0.34531427781E+02  0.10566000000E+00 0.  1.
         13    1    4    4    0    0 -0.15288696445E+02 -0.12894037007E+02 -0.23880039018E+02  0.31149122890E+02  0.10566000000E+00 0. -1.
        -13    1    4    4    0    0 -0.19731260909E+01 -0.12653823797E+01 -0.30892715113E+01  0.38793274731E+01  0.10566000000E+00 0.  1.
        -14    1    4    4    0    0 -0.98758778418E+01 -0.70977338373E+01 -0.13512510671E+02  0.18179624127E+02  0.00000000000E+00 0.  1.
<mgrwt>
<rscale>  0 0.78860853E+02</rscale>
<asrwt>0</asrwt>
<pdfrwt beam="1">  1        2 0.97076685E-02 0.78860853E+02</pdfrwt>
<pdfrwt beam="2">  1       -1 0.37907164E-02 0.78860853E+02</pdfrwt>
<totfact> 0.16374974E+05</totfact>
</mgrwt>
</event>
<event>
 8    1  0.1515612E-020  0.7946045E+02  0.7818608E-02  0.1330590E+00
          2   -1    0    0  501    0  0.00000000000E+00  0.00000000000E+00  0.44598343565E+03  0.44598343565E+03  0.25500000000E-02 0. -1.
         -1   -1    0    0    0  501 -0.00000000000E+00 -0.00000000000E+00 -0.35393470454E+01  0.35393506338E+01  0.50400000000E-02 0.  1.
         24    2    1    2    0    0  0.00000000000E+00 -0.35527136788E-14  0.44244408860E+03  0.44952278629E+03  0.79460454653E+02 0.  0.
         66    2    3    3    0    0 -0.17647727214E+02 -0.24858650915E+02  0.36526929676E+03  0.36654475027E+03  0.19999989196E+01 0.  0.
        -13    1    3    3    0    0  0.17647727214E+02  0.24858650915E+02  0.77174791842E+02  0.82978036016E+02  0.10566000000E+00 0.  1.
         13    1    4    4    0    0 -0.11711527118E+02 -0.16021810265E+02  0.23440376988E+03  0.23524242128E+03  0.10566000000E+00 0. -1.
        -13    1    4    4    0    0 -0.31085615006E+01 -0.55781812915E+01  0.78196586909E+02  0.78456973109E+02  0.10566000000E+00 0.  1.
        -14    1    4    4    0    0 -0.28276385955E+01 -0.32586593584E+01  0.52668939971E+02  0.52845355884E+02  0.00000000000E+00 0.  1.
<mgrwt>
<rscale>  0 0.79460455E+02</rscale>
<asrwt>0</asrwt>
<pdfrwt beam="1">  1        2 0.68612811E-01 0.79460455E+02</pdfrwt>
<pdfrwt beam="2">  1       -1 0.54451541E-03 0.79460455E+02</pdfrwt>
<totfact> 0.29852224E+05</totfact>
</mgrwt>
</event>
<event>
 8    1  0.1226832E-020  0.8113847E+02  0.7818608E-02  0.1325851E+00
         -1   -1    0    0    0  501 -0.00000000000E+00  0.00000000000E+00  0.41427977476E+02  0.41427977783E+02  0.50400000000E-02 0.  1.
          2   -1    0    0  501    0  0.00000000000E+00 -0.00000000000E+00 -0.39728291729E+02  0.39728291810E+02  0.25500000000E-02 0. -1.
         24    2    1    2    0    0  0.00000000000E+00  0.00000000000E+00  0.16996857478E+01  0.81156269593E+02  0.81138469068E+02 0.  0.
         66    2    3    3    0    0 -0.64504918568E+01 -0.39208743530E+02 -0.72089159492E+01  0.40433932202E+02  0.19999974358E+01 0.  0.
        -13    1    3    3    0    0  0.64504918568E+01  0.39208743530E+02  0.89086016970E+01  0.40722337391E+02  0.10566000000E+00 0.  1.
         13    1    4    4    0    0 -0.34797998873E+01 -0.17708803990E+02 -0.34168989165E+01  0.18368372499E+02  0.10566000000E+00 0. -1.
        -13    1    4    4    0    0 -0.26623813087E+00 -0.54177017796E+01 -0.76448242447E+00  0.54788660075E+01  0.10566000000E+00 0.  1.
         14    1    4    4    0    0 -0.27044538386E+01 -0.16082237760E+02 -0.30275346082E+01  0.16586693695E+02  0.00000000000E+00 0. -1.
<mgrwt>
<rscale>  0 0.81138469E+02</rscale>
<asrwt>0</asrwt>
<pdfrwt beam="1">  1        2 0.61120449E-02 0.81138469E+02</pdfrwt>
<pdfrwt beam="2">  1       -1 0.63735351E-02 0.81138469E+02</pdfrwt>
<totfact> 0.13689158E+05</totfact>
</mgrwt>
</event>
<event>
 8    1  0.1226832E-020  0.8235638E+02  0.7818608E-02  0.1322494E+00
          2   -1    0    0  501    0  0.00000000000E+00  0.00000000000E+00  0.88632921655E+03  0.88632921656E+03  0.25500000000E-02 0. -1.
         -1   -1    0    0    0  501 -0.00000000000E+00 -0.00000000000E+00 -0.19131043354E+01  0.19131109742E+01  0.50400000000E-02 0.  1.
         24    2    1    2    0    0  0.35527136788E-14 -0.35527136788E-14  0.88441611222E+03  0.88824232753E+03  0.82356377212E+02 0.  0.
         66    2    3    3    0    0  0.18429432305E+02 -0.27748668970E+02  0.70310912455E+03  0.70390061346E+03  0.20000006134E+01 0.  0.
        -13    1    3    3    0    0 -0.18429432305E+02  0.27748668970E+02  0.18130698767E+03  0.18434171407E+03  0.10566000000E+00 0.  1.
         13    1    4    4    0    0  0.64243245842E+01 -0.91388236697E+01  0.23042781404E+03  0.23069845836E+03  0.10566000000E+00 0. -1.
        -13    1    4    4    0    0  0.30329608316E+01 -0.51782680843E+01  0.14128273082E+03  0.14141016407E+03  0.10566000000E+00 0.  1.
        -14    1    4    4    0    0  0.89721468888E+01 -0.13431577216E+02  0.33139857970E+03  0.33179199103E+03  0.00000000000E+00 0.  1.
<mgrwt>
<rscale>  0 0.82356377E+02</rscale>
<asrwt>0</asrwt>
<pdfrwt beam="1">  1        2 0.13635826E+00 0.82356377E+02</pdfrwt>
<pdfrwt beam="2">  1       -1 0.29432444E-03 0.82356377E+02</pdfrwt>
<totfact> 0.32348778E+05</totfact>
</mgrwt>
</event>
<event>
 8    1  0.1226832E-020  0.8043516E+02  0.7818608E-02  0.1327821E+00
         -1   -1    0    0    0  501 -0.00000000000E+00  0.00000000000E+00  0.15529427879E+01  0.15529509664E+01  0.50400000000E-02 0.  1.
          2   -1    0    0  501    0  0.00000000000E+00 -0.00000000000E+00 -0.10415383293E+04  0.10415383293E+04  0.25500000000E-02 0. -1.
         24    2    1    2    0    0  0.00000000000E+00 -0.35527136788E-14 -0.10399853865E+04  0.10430912803E+04  0.80435159077E+02 0.  0.
         66    2    3    3    0    0 -0.11096603765E+02 -0.20300465041E+02 -0.94652906944E+03  0.94681387970E+03  0.19999998965E+01 0.  0.
        -13    1    3    3    0    0  0.11096603765E+02  0.20300465041E+02 -0.93456317084E+02  0.96277400583E+02  0.10566000000E+00 0.  1.
         13    1    4    4    0    0 -0.58334228569E+01 -0.96575713243E+01 -0.44208601495E+03  0.44222997782E+03  0.10566000000E+00 0. -1.
        -13    1    4    4    0    0 -0.39643327411E+01 -0.75044691720E+01 -0.34166973147E+03  0.34177514473E+03  0.10566000000E+00 0.  1.
        -14    1    4    4    0    0 -0.12988481672E+01 -0.31384245443E+01 -0.16277332303E+03  0.16280875715E+03  0.00000000000E+00 0.  1.
<mgrwt>
<rscale>  0 0.80435159E+02</rscale>
<asrwt>0</asrwt>
<pdfrwt beam="1">  1        2 0.16023611E+00 0.80435159E+02</pdfrwt>
<pdfrwt beam="2">  1       -1 0.23891574E-03 0.80435159E+02</pdfrwt>
<totfact> 0.34776724E+05</totfact>
</mgrwt>
</event>
<event>
 8    1  0.1226832E-020  0.8085149E+02  0.7818608E-02  0.1326652E+00
          2   -1    0    0  501    0  0.00000000000E+00  0.00000000000E+00  0.10811441362E+03  0.10811441365E+03  0.25500000000E-02 0. -1.
         -1   -1    0    0    0  501 -0.00000000000E+00 -0.00000000000E+00 -0.15115847235E+02  0.15115848075E+02  0.50400000000E-02 0.  1.
         24    2    1    2    0    0  0.00000000000E+00 -0.71054273576E-14  0.92998566388E+02  0.12323026173E+03  0.80851493834E+02 0.  0.
         66    2    3    3    0    0 -0.69055692482E+01 -0.34814582278E+02  0.75944019691E+02  0.83852466552E+02  0.19999985451E+01 0.  0.
        -13    1    3    3    0    0  0.69055692482E+01  0.34814582278E+02  0.17054546697E+02  0.39377795176E+02  0.10566000000E+00 0.  1.
         13    1    4    4    0    0 -0.43727904035E+01 -0.25188491181E+02  0.54396356306E+02  0.60104543317E+02  0.10566000000E+00 0. -1.
        -13    1    4    4    0    0 -0.10219706341E+01 -0.28478459722E+01  0.60385403911E+01  0.67549822168E+01  0.10566000000E+00 0.  1.
         14    1    4    4    0    0 -0.15108082105E+01 -0.67782451248E+01  0.15509122994E+02  0.16992941019E+02  0.00000000000E+00 0. -1.
<mgrwt>
<rscale>  0 0.80851494E+02</rscale>
<asrwt>0</asrwt>
<pdfrwt beam="1">  1        2 0.16632986E-01 0.80851494E+02</pdfrwt>
<pdfrwt beam="2">  1       -1 0.23255151E-02 0.80851494E+02</pdfrwt>
<totfact> 0.17616877E+05</totfact>
</mgrwt>
</event>
<event>
 8    1  0.1226832E-020  0.8076390E+02  0.7818608E-02  0.1326897E+00
         -1   -1    0    0    0  501 -0.00000000000E+00  0.00000000000E+00  0.14591353472E+01  0.14591440515E+01  0.50400000000E-02 0.  1.
          2   -1    0    0  501    0  0.00000000000E+00 -0.00000000000E+00 -0.11175776516E+04  0.11175776516E+04  0.25500000000E-02 0. -1.
         24    2    1    2    0    0  0.00000000000E+00 -0.17763568394E-14 -0.11161185163E+04  0.11190367957E+04  0.80763901008E+02 0.  0.
         66    2    3    3    0    0 -0.37456233023E+00  0.15235857657E+02 -0.10761693906E+04  0.10762791594E+04  0.19999978569E+01 0.  0.
        -13    1    3    3    0    0  0.37456233023E+00 -0.15235857657E+02 -0.39949125652E+02  0.42757636276E+02  0.10566000000E+00 0.  1.
         13    1    4    4    0    0 -0.43766864620E+00  0.11916079031E+02 -0.86754432122E+03  0.86762627031E+03  0.10566000000E+00 0. -1.
        -13    1    4    4    0    0  0.14906853704E+00  0.15888664459E+00 -0.12763046050E+02  0.12765342726E+02  0.10566000000E+00 0. -1.
         14    1    4    4    0    0 -0.85962221077E-01  0.31608919809E+01 -0.19586202335E+03  0.19588754635E+03  0.00000000000E+00 0. -1.
<mgrwt>
<rscale>  0 0.80763901E+02</rscale>
<asrwt>0</asrwt>
<pdfrwt beam="1">  1        2 0.17193434E+00 0.80763901E+02</pdfrwt>
<pdfrwt beam="2">  1       -1 0.22448392E-03 0.80763901E+02</pdfrwt>
<totfact> 0.34371482E+05</totfact>
</mgrwt>
</event>
<event>
 8    1  0.1226832E-020  0.8321735E+02  0.7818608E-02  0.1320161E+00
          2   -1    0    0  501    0  0.00000000000E+00  0.00000000000E+00  0.72308007472E+01  0.72308011968E+01  0.25500000000E-02 0. -1.
         -1   -1    0    0    0  501 -0.00000000000E+00 -0.00000000000E+00 -0.23943153295E+03  0.23943153300E+03  0.50400000000E-02 0.  1.
         24    2    1    2    0    0  0.00000000000E+00  0.00000000000E+00 -0.23220073220E+03  0.24666233420E+03  0.83217348415E+02 0.  0.
         66    2    3    3    0    0  0.45153742020E+01  0.39597112002E+02 -0.15135827952E+03  0.15653002477E+03  0.19999981270E+01 0.  0.
        -13    1    3    3    0    0 -0.45153742020E+01 -0.39597112002E+02 -0.80842452680E+02  0.90132309426E+02  0.10566000000E+00 0.  1.
         13    1    4    4    0    0  0.14873545966E+01  0.13802995743E+02 -0.54426326435E+02  0.56169129318E+02  0.10566000000E+00 0. -1.
        -13    1    4    4    0    0  0.21036986224E+01  0.22029278070E+02 -0.83046177983E+02  0.85944130002E+02  0.10566000000E+00 0.  1.
        -14    1    4    4    0    0  0.92432098299E+00  0.37648381882E+01 -0.13885775100E+02  0.14416765449E+02  0.00000000000E+00 0.  1.
<mgrwt>
<rscale>  0 0.83217348E+02</rscale>
<asrwt>0</asrwt>
<pdfrwt beam="1">  1        2 0.11124311E-02 0.83217348E+02</pdfrwt>
<pdfrwt beam="2">  1       -1 0.36835614E-01 0.83217348E+02</pdfrwt>
<totfact> 0.84991306E+04</totfact>
</mgrwt>
</event>
<event>
 8    1  0.1226832E-020  0.7837940E+02  0.7818608E-02  0.1333714E+00
         -1   -1    0    0    0  501 -0.00000000000E+00  0.00000000000E+00  0.31246445006E+01  0.31246485653E+01  0.50400000000E-02 0.  1.
          2   -1    0    0  501    0  0.00000000000E+00 -0.00000000000E+00 -0.49152197814E+03  0.49152197815E+03  0.25500000000E-02 0. -1.
         24    2    1    2    0    0 -0.17763568394E-14  0.35527136788E-14 -0.48839733364E+03  0.49464662671E+03  0.78379396600E+02 0.  0.
         66    2    3    3    0    0  0.13865037922E+02  0.31955419451E+02 -0.35732799569E+03  0.35902741486E+03  0.20000020335E+01 0.  0.
        -13    1    3    3    0    0 -0.13865037922E+02 -0.31955419451E+02 -0.13106933795E+03  0.13561921185E+03  0.10566000000E+00 0.  1.
         13    1    4    4    0    0  0.14984947240E+01  0.32989868237E+01 -0.42932600649E+02  0.43085359033E+02  0.10566000000E+00 0. -1.
        -13    1    4    4    0    0  0.55014521141E+01  0.12161621925E+02 -0.13074967292E+03  0.13142929337E+03  0.10566000000E+00 0.  1.
         14    1    4    4    0    0  0.68650910841E+01  0.16494810702E+02 -0.18364572212E+03  0.18451276246E+03  0.00000000000E+00 0. -1.
<mgrwt>
<rscale>  0 0.78379397E+02</rscale>
<asrwt>0</asrwt>
<pdfrwt beam="1">  1        2 0.75618705E-01 0.78379397E+02</pdfrwt>
<pdfrwt beam="2">  1       -1 0.48071524E-03 0.78379397E+02</pdfrwt>
<totfact> 0.31942794E+05</totfact>
</mgrwt>
</event>
<event>
 8    1  0.1226832E-020  0.8027703E+02  0.7818608E-02  0.1328267E+00
         -1   -1    0    0    0  501 -0.00000000000E+00  0.00000000000E+00  0.10525080929E+03  0.10525080941E+03  0.50400000000E-02 0.  1.
          2   -1    0    0  501    0  0.00000000000E+00 -0.00000000000E+00 -0.15307247567E+02  0.15307247780E+02  0.25500000000E-02 0. -1.
         24    2    1    2    0    0  0.00000000000E+00  0.35527136788E-14  0.89943561721E+02  0.12055805719E+03  0.80277025717E+02 0.  0.
         66    2    3    3    0    0  0.17168776435E+02 -0.28591526769E+02  0.11524745968E+02  0.35342072096E+02  0.20000007894E+01 0.  0.
        -13    1    3    3    0    0 -0.17168776435E+02  0.28591526769E+02  0.78418815752E+02  0.85215985093E+02  0.10566000000E+00 0.  1.
         13    1    4    4    0    0  0.55155228226E+01 -0.84969039671E+01  0.43962165423E+01  0.11043380504E+02  0.10566000000E+00 0. -1.
        -13    1    4    4    0    0  0.84171437017E+01 -0.14468877218E+02  0.51299334001E+01  0.17507829585E+02  0.10566000000E+00 0.  1.
         14    1    4    4    0    0  0.32361099107E+01 -0.56257455836E+01  0.19985960257E+01  0.67908620072E+01  0.00000000000E+00 0. -1.
<mgrwt>
<rscale>  0 0.80277026E+02</rscale>
<asrwt>0</asrwt>
<pdfrwt beam="1">  1        2 0.23549611E-02 0.80277026E+02</pdfrwt>
<pdfrwt beam="2">  1       -1 0.16192433E-01 0.80277026E+02</pdfrwt>
<totfact> 0.11621881E+05</totfact>
</mgrwt>
</event>
<event>
 8    1  0.1226832E-020  0.7974679E+02  0.7818608E-02  0.1329772E+00
         -1   -1    0    0    0  501 -0.00000000000E+00  0.00000000000E+00  0.10978383174E+01  0.10978498863E+01  0.50400000000E-02 0.  1.
          2   -1    0    0  501    0  0.00000000000E+00 -0.00000000000E+00 -0.14481906118E+04  0.14481906118E+04  0.25500000000E-02 0. -1.
         24    2    1    2    0    0  0.00000000000E+00  0.00000000000E+00 -0.14470927735E+04  0.14492884617E+04  0.79746787511E+02 0.  0.
         66    2    3    3    0    0 -0.17040050022E+02 -0.53554237414E+01 -0.13713586967E+04  0.13714764740E+04  0.20000069901E+01 0.  0.
        -13    1    3    3    0    0  0.17040050022E+02  0.53554237414E+01 -0.75734076843E+02  0.77811987685E+02  0.10566000000E+00 0.  1.
         13    1    4    4    0    0 -0.65248545530E+01 -0.13755149933E+01 -0.53845290558E+03  0.53849420467E+03  0.10566000000E+00 0. -1.
        -13    1    4    4    0    0 -0.29283700711E+01 -0.11987205880E+01 -0.20391840768E+03  0.20394298330E+03  0.10566000000E+00 0.  1.
         14    1    4    4    0    0 -0.75868253978E+01 -0.27811881601E+01 -0.62898738342E+03  0.62903928608E+03  0.00000000000E+00 0. -1.
<mgrwt>
<rscale>  0 0.79746788E+02</rscale>
<asrwt>0</asrwt>
<pdfrwt beam="1">  1        2 0.22279703E+00 0.79746788E+02</pdfrwt>
<pdfrwt beam="2">  1       -1 0.16890025E-03 0.79746788E+02</pdfrwt>
<totfact> 0.33943515E+05</totfact>
</mgrwt>
</event>
<event>
 8    1  0.1226832E-020  0.8493457E+02  0.7818608E-02  0.1315604E+00
         -1   -1    0    0    0  501 -0.00000000000E+00  0.00000000000E+00  0.39827071533E+01  0.39827103423E+01  0.50400000000E-02 0.  1.
          2   -1    0    0  501    0  0.00000000000E+00 -0.00000000000E+00 -0.45282508793E+03  0.45282508794E+03  0.25500000000E-02 0. -1.
         24    2    1    2    0    0  0.00000000000E+00  0.00000000000E+00 -0.44884238078E+03  0.45680779828E+03  0.84934573571E+02 0.  0.
         66    2    3    3    0    0 -0.38429662609E+02 -0.75376845379E+01 -0.31256139721E+03  0.31501155960E+03  0.20000005392E+01 0.  0.
        -13    1    3    3    0    0  0.38429662609E+02  0.75376845379E+01 -0.13628098357E+03  0.14179623868E+03  0.10566000000E+00 0.  1.
         13    1    4    4    0    0 -0.10697388106E+01 -0.36810582962E+00 -0.96769106450E+01  0.97433878447E+01  0.10566000000E+00 0. -1.
        -13    1    4    4    0    0 -0.19636433385E+02 -0.41727657228E+01 -0.15438488254E+03  0.15568463190E+03  0.10566000000E+00 0.  1.
        -14    1    4    4    0    0 -0.17723490414E+02 -0.29968129855E+01 -0.14849960403E+03  0.14958353986E+03  0.00000000000E+00 0.  1.
<mgrwt>
<rscale>  0 0.84934574E+02</rscale>
<asrwt>0</asrwt>
<pdfrwt beam="1">  1        2 0.69665358E-01 0.84934574E+02</pdfrwt>
<pdfrwt beam="2">  1       -1 0.61272478E-03 0.84934574E+02</pdfrwt>
<totfact> 0.25206936E+05</totfact>
</mgrwt>
</event>
<event>
 8    1  0.1226832E-020  0.7954309E+02  0.7818608E-02  0.1330353E+00
         -1   -1    0    0    0  501 -0.00000000000E+00  0.00000000000E+00  0.23002479263E+01  0.23002534477E+01  0.50400000000E-02 0.  1.
          2   -1    0    0  501    0  0.00000000000E+00 -0.00000000000E+00 -0.68765367091E+03  0.68765367091E+03  0.25500000000E-02 0. -1.
         24    2    1    2    0    0  0.00000000000E+00 -0.35527136788E-14 -0.68535342298E+03  0.68995392436E+03  0.79543091137E+02 0.  0.
         66    2    3    3    0    0 -0.23605022881E+02  0.25201967835E+02 -0.51362549302E+03  0.51478877548E+03  0.19999990538E+01 0.  0.
        -13    1    3    3    0    0  0.23605022881E+02 -0.25201967835E+02 -0.17172792996E+03  0.17516514888E+03  0.10566000000E+00 0.  1.
         13    1    4    4    0    0 -0.76993492838E+01  0.75835125798E+01 -0.15165533541E+03  0.15203993411E+03  0.10566000000E+00 0. -1.
        -13    1    4    4    0    0 -0.39680967790E+01  0.38197294809E+01 -0.82623772539E+02  0.82807216340E+02  0.10566000000E+00 0.  1.
         14    1    4    4    0    0 -0.11937576818E+02  0.13798725774E+02 -0.27934638507E+03  0.27994162503E+03  0.00000000000E+00 0. -1.
<mgrwt>
<rscale>  0 0.79543091E+02</rscale>
<asrwt>0</asrwt>
<pdfrwt beam="1">  1        2 0.10579271E+00 0.79543091E+02</pdfrwt>
<pdfrwt beam="2">  1       -1 0.35388527E-03 0.79543091E+02</pdfrwt>
<totfact> 0.33813463E+05</totfact>
</mgrwt>
</event>
<event>
 8    1  0.1226832E-020  0.7788875E+02  0.7818608E-02  0.1335152E+00
         -1   -1    0    0    0  501 -0.00000000000E+00  0.00000000000E+00  0.20921117881E+03  0.20921117887E+03  0.50400000000E-02 0.  1.
          2   -1    0    0  501    0  0.00000000000E+00 -0.00000000000E+00 -0.72494428128E+01  0.72494432613E+01  0.25500000000E-02 0. -1.
         24    2    1    2    0    0  0.00000000000E+00 -0.88817841970E-15  0.20196173600E+03  0.21646062213E+03  0.77888754816E+02 0.  0.
         66    2    3    3    0    0  0.38590352543E+02  0.49914464532E+01  0.10307001400E+03  0.11018873643E+03  0.20000007529E+01 0.  0.
        -13    1    3    3    0    0 -0.38590352543E+02 -0.49914464532E+01  0.98891722002E+02  0.10627188571E+03  0.10566000000E+00 0.  1.
         13    1    4    4    0    0  0.53473302786E+01  0.10281339074E+01  0.13320555225E+02  0.14390947014E+02  0.10566000000E+00 0.  1.
        -13    1    4    4    0    0  0.10455363521E+02  0.12499369558E+01  0.26673940940E+02  0.28677295166E+02  0.10566000000E+00 0. -1.
         14    1    4    4    0    0  0.22787658743E+02  0.27133755901E+01  0.63075517831E+02  0.67120494246E+02  0.00000000000E+00 0. -1.
<mgrwt>
<rscale>  0 0.77888755E+02</rscale>
<asrwt>0</asrwt>
<pdfrwt beam="1">  1        2 0.11152990E-02 0.77888755E+02</pdfrwt>
<pdfrwt beam="2">  1       -1 0.32186334E-01 0.77888755E+02</pdfrwt>
<totfact> 0.10515979E+05</totfact>
</mgrwt>
</event>
<event>
 8    1  0.1226832E-020  0.8052936E+02  0.7818608E-02  0.1327556E+00
          2   -1    0    0  501    0  0.00000000000E+00  0.00000000000E+00  0.23482301492E+02  0.23482301630E+02  0.25500000000E-02 0. -1.
         -1   -1    0    0    0  501 -0.00000000000E+00 -0.00000000000E+00 -0.69041125349E+02  0.69041125533E+02  0.50400000000E-02 0.  1.
         24    2    1    2    0    0  0.00000000000E+00  0.71054273576E-14 -0.45558823857E+02  0.92523427163E+02  0.80529361991E+02 0.  0.
         66    2    3    3    0    0 -0.16325528148E+02 -0.36297864625E+02 -0.29608269775E+02  0.49645820127E+02  0.19999928262E+01 0.  0.
        -13    1    3    3    0    0  0.16325528148E+02  0.36297864625E+02 -0.15950554082E+02  0.42877607037E+02  0.10566000000E+00 0.  1.
         13    1    4    4    0    0 -0.89691732106E+01 -0.19512864551E+02 -0.16193123005E+02  0.26896586173E+02  0.10566000000E+00 0. -1.
        -13    1    4    4    0    0 -0.41371363816E+01 -0.10700570879E+02 -0.88452614603E+01  0.14486819144E+02  0.10566000000E+00 0.  1.
        -14    1    4    4    0    0 -0.32192185556E+01 -0.60844291950E+01 -0.45698853104E+01  0.82624148097E+01  0.00000000000E+00 0.  1.
<mgrwt>
<rscale>  0 0.80529362E+02</rscale>
<asrwt>0</asrwt>
<pdfrwt beam="1">  1        2 0.36126618E-02 0.80529362E+02</pdfrwt>
<pdfrwt beam="2">  1       -1 0.10621712E-01 0.80529362E+02</pdfrwt>
<totfact> 0.12582411E+05</totfact>
</mgrwt>
</event>
<event>
 8    1  0.1226832E-020  0.8285651E+02  0.7818608E-02  0.1321135E+00
          2   -1    0    0  501    0  0.00000000000E+00  0.00000000000E+00  0.19718718703E+03  0.19718718705E+03  0.25500000000E-02 0. -1.
         -1   -1    0    0    0  501 -0.00000000000E+00 -0.00000000000E+00 -0.87039131291E+01  0.87039145883E+01  0.50400000000E-02 0.  1.
         24    2    1    2    0    0 -0.17763568394E-14 -0.71054273576E-14  0.18848327390E+03  0.20589110163E+03  0.82856509653E+02 0.  0.
         66    2    3    3    0    0  0.10589746575E+02 -0.39489115976E+02  0.78046841647E+02  0.88129691376E+02  0.19999994706E+01 0.  0.
        -13    1    3    3    0    0 -0.10589746575E+02  0.39489115976E+02  0.11043643225E+03  0.11776141026E+03  0.10566000000E+00 0.  1.
         13    1    4    4    0    0  0.45023261828E+01 -0.14675722943E+02  0.29251797140E+02  0.33035232478E+02  0.10566000000E+00 0. -1.
        -13    1    4    4    0    0  0.47599084099E+00 -0.34699618783E+01  0.72091380115E+01  0.80156121177E+01  0.10566000000E+00 0.  1.
        -14    1    4    4    0    0  0.56114295510E+01 -0.21343431155E+02  0.41585906496E+02  0.47078846780E+02  0.00000000000E+00 0.  1.
<mgrwt>
<rscale>  0 0.82856510E+02</rscale>
<asrwt>0</asrwt>
<pdfrwt beam="1">  1        2 0.30336489E-01 0.82856510E+02</pdfrwt>
<pdfrwt beam="2">  1       -1 0.13390637E-02 0.82856510E+02</pdfrwt>
<totfact> 0.20005806E+05</totfact>
</mgrwt>
</event>
<event>
 8    1  0.1226832E-020  0.7925176E+02  0.7818608E-02  0.1331188E+00
         -1   -1    0    0    0  501 -0.00000000000E+00  0.00000000000E+00  0.57439812114E+01  0.57439834226E+01  0.50400000000E-02 0.  1.
          2   -1    0    0  501    0  0.00000000000E+00 -0.00000000000E+00 -0.27336614189E+03  0.27336614191E+03  0.25500000000E-02 0. -1.
         24    2    1    2    0    0  0.00000000000E+00  0.35527136788E-14 -0.26762216068E+03  0.27911012533E+03  0.79251758166E+02 0.  0.
         66    2    3    3    0    0  0.15589327646E+02 -0.19018400767E+02 -0.24321306776E+03  0.24446129150E+03  0.20000022952E+01 0.  0.
        -13    1    3    3    0    0 -0.15589327646E+02  0.19018400767E+02 -0.24409092921E+02  0.34648833825E+02  0.10566000000E+00 0.  1.
         13    1    4    4    0    0  0.90114197042E+01 -0.11493970182E+02 -0.14416490614E+03  0.14490289287E+03  0.10566000000E+00 0. -1.
        -13    1    4    4    0    0  0.37229118163E+01 -0.37159137648E+01 -0.56710101071E+02  0.56953619858E+02  0.10566000000E+00 0.  1.
        -14    1    4    4    0    0  0.28549961255E+01 -0.38085168205E+01 -0.42338060546E+02  0.42604778770E+02  0.00000000000E+00 0.  1.
<mgrwt>
<rscale>  0 0.79251758E+02</rscale>
<asrwt>0</asrwt>
<pdfrwt beam="1">  1        2 0.42056320E-01 0.79251758E+02</pdfrwt>
<pdfrwt beam="2">  1       -1 0.88368980E-03 0.79251758E+02</pdfrwt>
<totfact> 0.25265549E+05</totfact>
</mgrwt>
</event>
<event>
 8    1  0.1226832E-020  0.8887014E+02  0.7818608E-02  0.1305611E+00
          2   -1    0    0  501    0  0.00000000000E+00  0.00000000000E+00  0.96493445028E+03  0.96493445028E+03  0.25500000000E-02 0. -1.
         -1   -1    0    0    0  501 -0.00000000000E+00 -0.00000000000E+00 -0.20462244769E+01  0.20462306838E+01  0.50400000000E-02 0.  1.
         24    2    1    2    0    0  0.00000000000E+00 -0.88817841970E-15  0.96288822580E+03  0.96698068096E+03  0.88870141068E+02 0.  0.
         66    2    3    3    0    0 -0.12269964777E+02 -0.67021356167E+01  0.94036283935E+03  0.94046889385E+03  0.20000006836E+01 0.  0.
        -13    1    3    3    0    0  0.12269964777E+02  0.67021356167E+01  0.22525386447E+02  0.26511787116E+02  0.10566000000E+00 0.  1.
         13    1    4    4    0    0 -0.85706186964E+01 -0.54404797755E+01  0.68150304136E+03  0.68157865348E+03  0.10566000000E+00 0. -1.
        -13    1    4    4    0    0 -0.29654129771E+01 -0.92667621948E+00  0.18599470661E+03  0.18602068286E+03  0.10566000000E+00 0.  1.
         14    1    4    4    0    0 -0.73393310332E+00 -0.33497962176E+00  0.72865091381E+02  0.72869557506E+02  0.00000000000E+00 0. -1.
<mgrwt>
<rscale>  0 0.88870141E+02</rscale>
<asrwt>0</asrwt>
<pdfrwt beam="1">  1        2 0.14845169E+00 0.88870141E+02</pdfrwt>
<pdfrwt beam="2">  1       -1 0.31480374E-03 0.88870141E+02</pdfrwt>
<totfact> 0.26723712E+05</totfact>
</mgrwt>
</event>
<event>
 8    1  0.1226832E-020  0.8055272E+02  0.7818608E-02  0.1327490E+00
         -1   -1    0    0    0  501 -0.00000000000E+00  0.00000000000E+00  0.20862573578E+01  0.20862634456E+01  0.50400000000E-02 0.  1.
          2   -1    0    0  501    0  0.00000000000E+00 -0.00000000000E+00 -0.77755642744E+03  0.77755642745E+03  0.25500000000E-02 0. -1.
         24    2    1    2    0    0  0.00000000000E+00  0.00000000000E+00 -0.77547017009E+03  0.77964269089E+03  0.80552720441E+02 0.  0.
         66    2    3    3    0    0  0.12697338474E+02  0.26219363360E+02 -0.65680741355E+03  0.65745620076E+03  0.19999997810E+01 0.  0.
        -13    1    3    3    0    0 -0.12697338474E+02 -0.26219363360E+02 -0.11866275653E+03  0.12218649014E+03  0.10566000000E+00 0.  1.
         13    1    4    4    0    0  0.49994815502E+01  0.11263702184E+02 -0.28490456840E+03  0.28517098391E+03  0.10566000000E+00 0. -1.
        -13    1    4    4    0    0  0.70223374527E+01  0.12857506910E+02 -0.32815493137E+03  0.32848180902E+03  0.10566000000E+00 0.  1.
        -14    1    4    4    0    0  0.67551947139E+00  0.20981542650E+01 -0.43747913778E+02  0.43803407834E+02  0.00000000000E+00 0.  1.
<mgrwt>
<rscale>  0 0.80552720E+02</rscale>
<asrwt>0</asrwt>
<pdfrwt beam="1">  1        2 0.11962384E+00 0.80552720E+02</pdfrwt>
<pdfrwt beam="2">  1       -1 0.32096376E-03 0.80552720E+02</pdfrwt>
<totfact> 0.33584539E+05</totfact>
</mgrwt>
</event>
<event>
 8    1  0.1226832E-020  0.8071064E+02  0.7818608E-02  0.1327047E+00
          2   -1    0    0  501    0  0.00000000000E+00  0.00000000000E+00  0.43921658388E+02  0.43921658462E+02  0.25500000000E-02 0. -1.
         -1   -1    0    0    0  501 -0.00000000000E+00 -0.00000000000E+00 -0.37078556449E+02  0.37078556792E+02  0.50400000000E-02 0.  1.
         24    2    1    2    0    0  0.35527136788E-14  0.00000000000E+00  0.68431019392E+01  0.81000215254E+02  0.80710636393E+02 0.  0.
         66    2    3    3    0    0  0.18305286698E+02 -0.34909186005E+02  0.11987252663E+02  0.41248382096E+02  0.20000026260E+01 0.  0.
        -13    1    3    3    0    0 -0.18305286698E+02  0.34909186005E+02 -0.51441507234E+01  0.39751833157E+02  0.10566000000E+00 0.  1.
         13    1    4    4    0    0  0.76941187403E+01 -0.16216657846E+02  0.57830842323E+01  0.18858278876E+02  0.10566000000E+00 0. -1.
        -13    1    4    4    0    0  0.38164837549E+01 -0.75011567718E+01  0.22188958116E+01  0.87044565496E+01  0.10566000000E+00 0.  1.
         14    1    4    4    0    0  0.67946842031E+01 -0.11191371387E+02  0.39852726187E+01  0.13685646671E+02  0.00000000000E+00 0. -1.
<mgrwt>
<rscale>  0 0.80710636E+02</rscale>
<asrwt>0</asrwt>
<pdfrwt beam="1">  1        2 0.67571782E-02 0.80710636E+02</pdfrwt>
<pdfrwt beam="2">  1       -1 0.57043933E-02 0.80710636E+02</pdfrwt>
<totfact> 0.14184912E+05</totfact>
</mgrwt>
</event>
<event>
 8    1  0.1226832E-020  0.7898847E+02  0.7818608E-02  0.1331947E+00
          2   -1    0    0  501    0  0.00000000000E+00  0.00000000000E+00  0.70828898317E+03  0.70828898318E+03  0.25500000000E-02 0. -1.
         -1   -1    0    0    0  501 -0.00000000000E+00 -0.00000000000E+00 -0.22021981950E+01  0.22022039623E+01  0.50400000000E-02 0.  1.
         24    2    1    2    0    0  0.00000000000E+00  0.00000000000E+00  0.70608678498E+03  0.71049118714E+03  0.78988474368E+02 0.  0.
         66    2    3    3    0    0  0.17538876606E+02 -0.26880666811E+02  0.55987865677E+03  0.56080147354E+03  0.19999930827E+01 0.  0.
        -13    1    3    3    0    0 -0.17538876606E+02  0.26880666811E+02  0.14620812820E+03  0.14968971360E+03  0.10566000000E+00 0.  1.
         13    1    4    4    0    0  0.92158774177E+01 -0.14932718524E+02  0.31543102760E+03  0.31591875983E+03  0.10566000000E+00 0. -1.
        -13    1    4    4    0    0  0.12566689025E+01 -0.20843385017E+01  0.36162908325E+02  0.36244872551E+02  0.10566000000E+00 0. -1.
         14    1    4    4    0    0  0.70663302856E+01 -0.98636097856E+01  0.20828472085E+03  0.20863784116E+03  0.00000000000E+00 0. -1.
<mgrwt>
<rscale>  0 0.78988474E+02</rscale>
<asrwt>0</asrwt>
<pdfrwt beam="1">  1        2 0.10896769E+00 0.78988474E+02</pdfrwt>
<pdfrwt beam="2">  1       -1 0.33879969E-03 0.78988474E+02</pdfrwt>
<totfact> 0.34668299E+05</totfact>
</mgrwt>
</event>
<event>
 8    1  0.1226832E-020  0.8120516E+02  0.7818608E-02  0.1325666E+00
          2   -1    0    0  501    0  0.00000000000E+00  0.00000000000E+00  0.76470495516E+01  0.76470499768E+01  0.25500000000E-02 0. -1.
         -1   -1    0    0    0  501 -0.00000000000E+00 -0.00000000000E+00 -0.21558241206E+03  0.21558241212E+03  0.50400000000E-02 0.  1.
         24    2    1    2    0    0 -0.35527136788E-14 -0.35527136788E-14 -0.20793536251E+03  0.22322946210E+03  0.81205158495E+02 0.  0.
         66    2    3    3    0    0 -0.26504875063E+02 -0.24198935363E+02 -0.51983915242E+02  0.63201458473E+02  0.20000086340E+01 0.  0.
        -13    1    3    3    0    0  0.26504875063E+02  0.24198935363E+02 -0.15595144727E+03  0.16002800362E+03  0.10566000000E+00 0.  1.
         13    1    4    4    0    0 -0.32119640902E+00 -0.17332593777E+00 -0.54790159575E+00  0.66676023284E+00  0.10566000000E+00 0.  1.
        -13    1    4    4    0    0 -0.12323710054E+02 -0.12082789072E+02 -0.25746005448E+02  0.30995734897E+02  0.10566000000E+00 0.  1.
         14    1    4    4    0    0 -0.13859968599E+02 -0.11942820353E+02 -0.25690008198E+02  0.31538963344E+02  0.00000000000E+00 0. -1.
<mgrwt>
<rscale>  0 0.81205158E+02</rscale>
<asrwt>0</asrwt>
<pdfrwt beam="1">  1        2 0.11764694E-02 0.81205158E+02</pdfrwt>
<pdfrwt beam="2">  1       -1 0.33166520E-01 0.81205158E+02</pdfrwt>
<totfact> 0.93672471E+04</totfact>
</mgrwt>
</event>
<event>
 8    1  0.1226832E-020  0.7939257E+02  0.7818608E-02  0.1330784E+00
          2   -1    0    0  501    0  0.00000000000E+00  0.00000000000E+00  0.12603340078E+04  0.12603340078E+04  0.25500000000E-02 0. -1.
         -1   -1    0    0    0  501 -0.00000000000E+00 -0.00000000000E+00 -0.12502944700E+01  0.12503046282E+01  0.50400000000E-02 0.  1.
         24    2    1    2    0    0  0.00000000000E+00 -0.17763568394E-14  0.12590837134E+04  0.12615843125E+04  0.79392570173E+02 0.  0.
         66    2    3    3    0    0 -0.68846232178E+01  0.15649830559E+02  0.11987820003E+04  0.11989055840E+04  0.19999970603E+01 0.  0.
        -13    1    3    3    0    0  0.68846232178E+01 -0.15649830559E+02  0.60301713084E+02  0.62678728435E+02  0.10566000000E+00 0.  1.
         13    1    4    4    0    0 -0.30247993991E+01  0.74353532066E+01  0.52989828360E+03  0.52995908901E+03  0.10566000000E+00 0. -1.
        -13    1    4    4    0    0 -0.27622136673E+00  0.77039149194E+00  0.90712143861E+02  0.90715897224E+02  0.10566000000E+00 0.  1.
        -14    1    4    4    0    0 -0.35836024520E+01  0.74440858601E+01  0.57817157281E+03  0.57823059780E+03  0.00000000000E+00 0.  1.
<mgrwt>
<rscale>  0 0.79392570E+02</rscale>
<asrwt>0</asrwt>
<pdfrwt beam="1">  1        2 0.19389738E+00 0.79392570E+02</pdfrwt>
<pdfrwt beam="2">  1       -1 0.19235393E-03 0.79392570E+02</pdfrwt>
<totfact> 0.35502563E+05</totfact>
</mgrwt>
</event>
<event>
 8    1  0.1226832E-020  0.8224158E+02  0.7818608E-02  0.1322808E+00
          2   -1    0    0  501    0  0.00000000000E+00  0.00000000000E+00  0.12835074432E+03  0.12835074435E+03  0.25500000000E-02 0. -1.
         -1   -1    0    0    0  501 -0.00000000000E+00 -0.00000000000E+00 -0.13174206498E+02  0.13174207462E+02  0.50400000000E-02 0.  1.
         24    2    1    2    0    0  0.00000000000E+00  0.00000000000E+00  0.11517653783E+03  0.14152495181E+03  0.82241577804E+02 0.  0.
         66    2    3    3    0    0 -0.13786693300E+02  0.17174600906E+02  0.11733018422E+03  0.11939602989E+03  0.19999992992E+01 0.  0.
        -13    1    3    3    0    0  0.13786693300E+02 -0.17174600906E+02 -0.21536463932E+01  0.22128921918E+02  0.10566000000E+00 0.  1.
         13    1    4    4    0    0 -0.76641617344E+01  0.10194496849E+02  0.63848622027E+02  0.65110097833E+02  0.10566000000E+00 0. -1.
        -13    1    4    4    0    0 -0.45777936587E+01  0.48708556047E+01  0.39595187555E+02  0.40155590777E+02  0.10566000000E+00 0.  1.
        -14    1    4    4    0    0 -0.15447379067E+01  0.21092484521E+01  0.13886374637E+02  0.14130341284E+02  0.00000000000E+00 0.  1.
<mgrwt>
<rscale>  0 0.82241578E+02</rscale>
<asrwt>0</asrwt>
<pdfrwt beam="1">  1        2 0.19746268E-01 0.82241578E+02</pdfrwt>
<pdfrwt beam="2">  1       -1 0.20268011E-02 0.82241578E+02</pdfrwt>
<totfact> 0.17716705E+05</totfact>
</mgrwt>
</event>
<event>
 8    1  0.1226832E-020  0.7952001E+02  0.7818608E-02  0.1330419E+00
          2   -1    0    0  501    0  0.00000000000E+00  0.00000000000E+00  0.41543857154E+02  0.41543857232E+02  0.25500000000E-02 0. -1.
         -1   -1    0    0    0  501 -0.00000000000E+00 -0.00000000000E+00 -0.38052747726E+02  0.38052748059E+02  0.50400000000E-02 0.  1.
         24    2    1    2    0    0  0.35527136788E-14 -0.35527136788E-14  0.34911094284E+01  0.79596605292E+02  0.79520008356E+02 0.  0.
         66    2    3    3    0    0 -0.28220195628E+02  0.23319407640E+02 -0.13717457544E+02  0.39145150988E+02  0.19999975964E+01 0.  0.
        -13    1    3    3    0    0  0.28220195628E+02 -0.23319407640E+02  0.17208566973E+02  0.40451454304E+02  0.10566000000E+00 0.  1.
         13    1    4    4    0    0 -0.72168326081E+01  0.57168124477E+01 -0.28079447473E+01  0.96260238518E+01  0.10566000000E+00 0. -1.
        -13    1    4    4    0    0 -0.24946069205E+01  0.18847635997E+01 -0.15975082142E+01  0.35126334914E+01  0.10566000000E+00 0.  1.
        -14    1    4    4    0    0 -0.18508756100E+02  0.15717831593E+02 -0.93120045830E+01  0.26006493645E+02  0.00000000000E+00 0.  1.
<mgrwt>
<rscale>  0 0.79520008E+02</rscale>
<asrwt>0</asrwt>
<pdfrwt beam="1">  1        2 0.63913627E-02 0.79520008E+02</pdfrwt>
<pdfrwt beam="2">  1       -1 0.58542689E-02 0.79520008E+02</pdfrwt>
<totfact> 0.14607555E+05</totfact>
</mgrwt>
</event>
<event>
 8    1  0.1226832E-020  0.7991160E+02  0.7818608E-02  0.1329302E+00
          2   -1    0    0  501    0  0.00000000000E+00  0.00000000000E+00  0.25741006727E+02  0.25741006854E+02  0.25500000000E-02 0. -1.
         -1   -1    0    0    0  501 -0.00000000000E+00 -0.00000000000E+00 -0.62020337119E+02  0.62020337323E+02  0.50400000000E-02 0.  1.
         24    2    1    2    0    0 -0.35527136788E-14 -0.35527136788E-14 -0.36279330391E+02  0.87761344177E+02  0.79911599397E+02 0.  0.
         66    2    3    3    0    0 -0.18027224666E+02 -0.24084812565E+02  0.10684650500E+02  0.31987822766E+02  0.20000058824E+01 0.  0.
        -13    1    3    3    0    0  0.18027224666E+02  0.24084812565E+02 -0.46963980891E+02  0.55773521411E+02  0.10566000000E+00 0.  1.
         13    1    4    4    0    0 -0.11368284484E+02 -0.16085910331E+02  0.64609019789E+01  0.20730384022E+02  0.10566000000E+00 0. -1.
        -13    1    4    4    0    0 -0.15125377127E+00 -0.17479863110E+00  0.55624594702E-01  0.26017378018E+00  0.10566000000E+00 0. -1.
        -14    1    4    4    0    0 -0.65076864104E+01 -0.78241036028E+01  0.41681239262E+01  0.10997264963E+02  0.00000000000E+00 0.  1.
<mgrwt>
<rscale>  0 0.79911599E+02</rscale>
<asrwt>0</asrwt>
<pdfrwt beam="1">  1        2 0.39601549E-02 0.79911599E+02</pdfrwt>
<pdfrwt beam="2">  1       -1 0.95415903E-02 0.79911599E+02</pdfrwt>
<totfact> 0.13096244E+05</totfact>
</mgrwt>
</event>
<event>
 8    1  0.1226832E-020  0.7991278E+02  0.7818608E-02  0.1329299E+00
         -1   -1    0    0    0  501 -0.00000000000E+00  0.00000000000E+00  0.21855151266E+01  0.21855209379E+01  0.50400000000E-02 0.  1.
          2   -1    0    0  501    0  0.00000000000E+00 -0.00000000000E+00 -0.73049640450E+03  0.73049640450E+03  0.25500000000E-02 0. -1.
         24    2    1    2    0    0  0.35527136788E-14  0.00000000000E+00 -0.72831088937E+03  0.73268192544E+03  0.79912779266E+02 0.  0.
         66    2    3    3    0    0 -0.31096548116E+02  0.15342654757E+02 -0.54593713962E+03  0.54704090593E+03  0.19999981306E+01 0.  0.
        -13    1    3    3    0    0  0.31096548116E+02 -0.15342654757E+02 -0.18237374975E+03  0.18564101951E+03  0.10566000000E+00 0.  1.
         13    1    4    4    0    0 -0.19741492715E+02  0.95311122816E+01 -0.34427064241E+03  0.34496790434E+03  0.10566000000E+00 0. -1.
        -13    1    4    4    0    0 -0.82931117496E+00  0.12675502408E+00 -0.14372211482E+02  0.14397063964E+02  0.10566000000E+00 0.  1.
         14    1    4    4    0    0 -0.10525744226E+02  0.56847874513E+01 -0.18729428572E+03  0.18767593763E+03  0.00000000000E+00 0. -1.
<mgrwt>
<rscale>  0 0.79912779E+02</rscale>
<asrwt>0</asrwt>
<pdfrwt beam="1">  1        2 0.11238387E+00 0.79912779E+02</pdfrwt>
<pdfrwt beam="2">  1       -1 0.33623413E-03 0.79912779E+02</pdfrwt>
<totfact> 0.33863912E+05</totfact>
</mgrwt>
</event>
<event>
 8    1  0.1226832E-020  0.8221044E+02  0.7818608E-02  0.1322893E+00
         -1   -1    0    0    0  501 -0.00000000000E+00  0.00000000000E+00  0.63391416663E+02  0.63391416863E+02  0.50400000000E-02 0.  1.
          2   -1    0    0  501    0  0.00000000000E+00 -0.00000000000E+00 -0.26654068259E+02  0.26654068381E+02  0.25500000000E-02 0. -1.
         24    2    1    2    0    0  0.00000000000E+00  0.00000000000E+00  0.36737348403E+02  0.90045485244E+02  0.82210441217E+02 0.  0.
         66    2    3    3    0    0  0.27652692094E+02 -0.38513262427E+01 -0.14627708189E+02  0.31582810856E+02  0.20000002124E+01 0.  0.
        -13    1    3    3    0    0 -0.27652692094E+02  0.38513262427E+01  0.51365056592E+02  0.58462674388E+02  0.10566000000E+00 0.  1.
         13    1    4    4    0    0  0.60278099022E+01 -0.75059832144E+00 -0.24251063057E+01  0.65414214577E+01  0.10566000000E+00 0. -1.
        -13    1    4    4    0    0  0.15535144430E+02 -0.19088048439E+01 -0.90676379588E+01  0.18089153396E+02  0.10566000000E+00 0.  1.
         14    1    4    4    0    0  0.60897377618E+01 -0.11919230773E+01 -0.31349639243E+01  0.69522360026E+01  0.00000000000E+00 0. -1.
<mgrwt>
<rscale>  0 0.82210441E+02</rscale>
<asrwt>0</asrwt>
<pdfrwt beam="1">  1        2 0.41006260E-02 0.82210441E+02</pdfrwt>
<pdfrwt beam="2">  1       -1 0.97525256E-02 0.82210441E+02</pdfrwt>
<totfact> 0.12170139E+05</totfact>
</mgrwt>
</event>
<event>
 8    1  0.1226832E-020  0.8033306E+02  0.7818608E-02  0.1328109E+00
          2   -1    0    0  501    0  0.00000000000E+00  0.00000000000E+00  0.25015129119E+03  0.25015129121E+03  0.25500000000E-02 0. -1.
         -1   -1    0    0    0  501 -0.00000000000E+00 -0.00000000000E+00 -0.64494973034E+01  0.64494992727E+01  0.50400000000E-02 0.  1.
         24    2    1    2    0    0  0.35527136788E-14  0.88817841970E-15  0.24370179389E+03  0.25660079048E+03  0.80333064981E+02 0.  0.
         66    2    3    3    0    0 -0.19671917632E+02  0.63059713378E+01  0.23186444209E+03  0.23279147130E+03  0.19999973082E+01 0.  0.
        -13    1    3    3    0    0  0.19671917632E+02 -0.63059713378E+01  0.11837351801E+02  0.23809319175E+02  0.10566000000E+00 0.  1.
         13    1    4    4    0    0 -0.24625091161E+01  0.54563433516E+00  0.24484045583E+02  0.24613844074E+02  0.10566000000E+00 0. -1.
        -13    1    4    4    0    0 -0.47508459036E+01  0.11178895369E+01  0.60598415654E+02  0.60794731331E+02  0.10566000000E+00 0.  1.
         14    1    4    4    0    0 -0.12458562613E+02  0.46424474657E+01  0.14678198085E+03  0.14738289590E+03  0.00000000000E+00 0. -1.
<mgrwt>
<rscale>  0 0.80333065E+02</rscale>
<asrwt>0</asrwt>
<pdfrwt beam="1">  1        2 0.38484816E-01 0.80333065E+02</pdfrwt>
<pdfrwt beam="2">  1       -1 0.99223045E-03 0.80333065E+02</pdfrwt>
<totfact> 0.23614148E+05</totfact>
</mgrwt>
</event>
<event>
 8    1  0.1226832E-020  0.7920820E+02  0.7818608E-02  0.1331314E+00
          2   -1    0    0  501    0  0.00000000000E+00  0.00000000000E+00  0.41359711025E+03  0.41359711026E+03  0.25500000000E-02 0. -1.
         -1   -1    0    0    0  501 -0.00000000000E+00 -0.00000000000E+00 -0.37922991075E+01  0.37923024566E+01  0.50400000000E-02 0.  1.
         24    2    1    2    0    0  0.17763568394E-14  0.00000000000E+00  0.40980481115E+03  0.41738941272E+03  0.79208197875E+02 0.  0.
         66    2    3    3    0    0 -0.15489889619E+02 -0.19886525533E+02  0.36582387179E+03  0.36669676267E+03  0.20000008783E+01 0.  0.
        -13    1    3    3    0    0  0.15489889619E+02  0.19886525533E+02  0.43980939357E+02  0.50692650049E+02  0.10566000000E+00 0.  1.
         13    1    4    4    0    0 -0.74243698823E+01 -0.87544639932E+01  0.16693913848E+03  0.16733334703E+03  0.10566000000E+00 0. -1.
        -13    1    4    4    0    0 -0.21356676734E+01 -0.35414942690E+01  0.53205616311E+02  0.53366206809E+02  0.10566000000E+00 0.  1.
        -14    1    4    4    0    0 -0.59298520634E+01 -0.75905672704E+01  0.14567911700E+03  0.14599720883E+03  0.00000000000E+00 0.  1.
<mgrwt>
<rscale>  0 0.79208198E+02</rscale>
<asrwt>0</asrwt>
<pdfrwt beam="1">  1        2 0.63630268E-01 0.79208198E+02</pdfrwt>
<pdfrwt beam="2">  1       -1 0.58343142E-03 0.79208198E+02</pdfrwt>
<totfact> 0.29335846E+05</totfact>
</mgrwt>
</event>
<event>
 8    1  0.1226832E-020  0.7972807E+02  0.7818608E-02  0.1329825E+00
         -1   -1    0    0    0  501 -0.00000000000E+00  0.00000000000E+00  0.69372994187E+02  0.69372994370E+02  0.50400000000E-02 0.  1.
          2   -1    0    0  501    0  0.00000000000E+00 -0.00000000000E+00 -0.22907205778E+02  0.22907205920E+02  0.25500000000E-02 0. -1.
         24    2    1    2    0    0 -0.35527136788E-14  0.00000000000E+00  0.46465788409E+02  0.92280200291E+02  0.79728074561E+02 0.  0.
         66    2    3    3    0    0 -0.15554090328E+02  0.34800458974E+02  0.98424351294E+01  0.39419223756E+02  0.20000003713E+01 0.  0.
        -13    1    3    3    0    0  0.15554090328E+02 -0.34800458974E+02  0.36623353280E+02  0.52860976535E+02  0.10566000000E+00 0.  1.
         13    1    4    4    0    0 -0.93673484107E+01  0.21881884797E+02  0.56921672331E+01  0.24473986810E+02  0.10566000000E+00 0. -1.
        -13    1    4    4    0    0 -0.14095193360E+01  0.37091999532E+01  0.14382424576E+01  0.42219207067E+01  0.10566000000E+00 0.  1.
         14    1    4    4    0    0 -0.47772225813E+01  0.92093742239E+01  0.27120254387E+01  0.10723316239E+02  0.00000000000E+00 0. -1.
<mgrwt>
<rscale>  0 0.79728075E+02</rscale>
<asrwt>0</asrwt>
<pdfrwt beam="1">  1        2 0.35241855E-02 0.79728075E+02</pdfrwt>
<pdfrwt beam="2">  1       -1 0.10672768E-01 0.79728075E+02</pdfrwt>
<totfact> 0.12881984E+05</totfact>
</mgrwt>
</event>
<event>
 8    1  0.1226832E-020  0.8256335E+02  0.7818608E-02  0.1321930E+00
          2   -1    0    0  501    0  0.00000000000E+00  0.00000000000E+00  0.20127848400E+02  0.20127848562E+02  0.25500000000E-02 0. -1.
         -1   -1    0    0    0  501 -0.00000000000E+00 -0.00000000000E+00 -0.84667596453E+02  0.84667596603E+02  0.50400000000E-02 0.  1.
         24    2    1    2    0    0 -0.71054273576E-14  0.00000000000E+00 -0.64539748053E+02  0.10479544516E+03  0.82563346883E+02 0.  0.
         66    2    3    3    0    0  0.36256827835E+02  0.17829726428E+02 -0.21690906508E+02  0.45901548240E+02  0.19999991434E+01 0.  0.
        -13    1    3    3    0    0 -0.36256827835E+02 -0.17829726428E+02 -0.42848841545E+02  0.58893896924E+02  0.10566000000E+00 0.  1.
         13    1    4    4    0    0  0.19623848215E+02  0.92555458711E+01 -0.12196901773E+02  0.24890482620E+02  0.10566000000E+00 0. -1.
        -13    1    4    4    0    0  0.23425852105E+01  0.14088475119E+01 -0.17547513416E+01  0.32500573974E+01  0.10566000000E+00 0.  1.
         14    1    4    4    0    0  0.14290394409E+02  0.71653330449E+01 -0.77392533928E+01  0.17761008223E+02  0.00000000000E+00 0. -1.
<mgrwt>
<rscale>  0 0.82563347E+02</rscale>
<asrwt>0</asrwt>
<pdfrwt beam="1">  1        2 0.30965921E-02 0.82563347E+02</pdfrwt>
<pdfrwt beam="2">  1       -1 0.13025784E-01 0.82563347E+02</pdfrwt>
<totfact> 0.11352169E+05</totfact>
</mgrwt>
</event>
<event>
 8    1  0.1226832E-020  0.7942370E+02  0.7818608E-02  0.1330695E+00
          2   -1    0    0  501    0  0.00000000000E+00  0.00000000000E+00  0.24547513323E+03  0.24547513325E+03  0.25500000000E-02 0. -1.
         -1   -1    0    0    0  501 -0.00000000000E+00 -0.00000000000E+00 -0.64244020436E+01  0.64244040206E+01  0.50400000000E-02 0.  1.
         24    2    1    2    0    0  0.17763568394E-14 -0.71054273576E-14  0.23905073119E+03  0.25189953727E+03  0.79423704227E+02 0.  0.
         66    2    3    3    0    0 -0.87400193303E+01 -0.34594666792E+02  0.64498495147E+02  0.73737607608E+02  0.19999977975E+01 0.  0.
        -13    1    3    3    0    0  0.87400193303E+01  0.34594666792E+02  0.17455223604E+03  0.17816192966E+03  0.10566000000E+00 0.  1.
         13    1    4    4    0    0 -0.34976576652E+01 -0.14299492041E+02  0.25161629458E+02  0.29151806853E+02  0.10566000000E+00 0. -1.
        -13    1    4    4    0    0 -0.57865670822E+00 -0.20898800038E+01  0.47595051189E+01  0.52312995545E+01  0.10566000000E+00 0.  1.
        -14    1    4    4    0    0 -0.46637049569E+01 -0.18205294747E+02  0.34577360570E+02  0.39354501201E+02  0.00000000000E+00 0.  1.
<mgrwt>
<rscale>  0 0.79423704E+02</rscale>
<asrwt>0</asrwt>
<pdfrwt beam="1">  1        2 0.37765399E-01 0.79423704E+02</pdfrwt>
<pdfrwt beam="2">  1       -1 0.98836986E-03 0.79423704E+02</pdfrwt>
<totfact> 0.24167828E+05</totfact>
</mgrwt>
</event>
<event>
 8    1  0.1226832E-020  0.7991429E+02  0.7818608E-02  0.1329295E+00
          2   -1    0    0  501    0  0.00000000000E+00  0.00000000000E+00  0.14615177440E+03  0.14615177443E+03  0.25500000000E-02 0. -1.
         -1   -1    0    0    0  501 -0.00000000000E+00 -0.00000000000E+00 -0.10924078220E+02  0.10924079382E+02  0.50400000000E-02 0.  1.
         24    2    1    2    0    0  0.00000000000E+00  0.00000000000E+00  0.13522769618E+03  0.15707585381E+03  0.79914291802E+02 0.  0.
         66    2    3    3    0    0  0.36375338254E+02  0.26990043943E+01  0.99599729456E+02  0.10608749205E+03  0.20000008200E+01 0.  0.
        -13    1    3    3    0    0 -0.36375338254E+02 -0.26990043943E+01  0.35627966727E+02  0.50988361760E+02  0.10566000000E+00 0.  1.
         13    1    4    4    0    0  0.10560831049E+02  0.35559098897E+00  0.29147476033E+02  0.31003937178E+02  0.10566000000E+00 0. -1.
        -13    1    4    4    0    0  0.21770677905E+02  0.15166001324E+01  0.60016215438E+02  0.63860940895E+02  0.10566000000E+00 0.  1.
        -14    1    4    4    0    0  0.40438293006E+01  0.82681327287E+00  0.10436037984E+02  0.11222613974E+02  0.00000000000E+00 0.  1.
<mgrwt>
<rscale>  0 0.79914292E+02</rscale>
<asrwt>0</asrwt>
<pdfrwt beam="1">  1        2 0.22484890E-01 0.79914292E+02</pdfrwt>
<pdfrwt beam="2">  1       -1 0.16806274E-02 0.79914292E+02</pdfrwt>
<totfact> 0.19920224E+05</totfact>
</mgrwt>
</event>
<event>
 8    1  0.1226832E-020  0.8090733E+02  0.7818608E-02  0.1326496E+00
         -1   -1    0    0    0  501 -0.00000000000E+00  0.00000000000E+00  0.10787324626E+01  0.10787442364E+01  0.50400000000E-02 0.  1.
          2   -1    0    0  501    0  0.00000000000E+00 -0.00000000000E+00 -0.15170491762E+04  0.15170491762E+04  0.25500000000E-02 0. -1.
         24    2    1    2    0    0  0.17763568394E-14  0.00000000000E+00 -0.15159704438E+04  0.15181279205E+04  0.80907332980E+02 0.  0.
         66    2    3    3    0    0 -0.15163745002E+02  0.36487741182E+01 -0.14583241261E+04  0.14584088965E+04  0.20000036193E+01 0.  0.
        -13    1    3    3    0    0  0.15163745002E+02 -0.36487741182E+01 -0.57646317722E+02  0.59719023988E+02  0.10566000000E+00 0.  1.
         13    1    4    4    0    0 -0.12515050839E+02  0.28861969391E+01 -0.11885610112E+04  0.11886304073E+04  0.10566000000E+00 0. -1.
        -13    1    4    4    0    0 -0.52587818516E+00  0.48482289162E+00 -0.81282792158E+02  0.81286007813E+02  0.10566000000E+00 0.  1.
         14    1    4    4    0    0 -0.21228159777E+01  0.27775428744E+00 -0.18848032267E+03  0.18849248136E+03  0.00000000000E+00 0. -1.
<mgrwt>
<rscale>  0 0.80907333E+02</rscale>
<asrwt>0</asrwt>
<pdfrwt beam="1">  1        2 0.23339047E+00 0.80907333E+02</pdfrwt>
<pdfrwt beam="2">  1       -1 0.16596096E-03 0.80907333E+02</pdfrwt>
<totfact> 0.32150393E+05</totfact>
</mgrwt>
</event>
<event>
 8    1  0.1226832E-020  0.8359529E+02  0.7818608E-02  0.1319147E+00
         -1   -1    0    0    0  501 -0.00000000000E+00  0.00000000000E+00  0.12550136777E+01  0.12550237978E+01  0.50400000000E-02 0.  1.
          2   -1    0    0  501    0  0.00000000000E+00 -0.00000000000E+00 -0.13920455476E+04  0.13920455476E+04  0.25500000000E-02 0. -1.
         24    2    1    2    0    0  0.00000000000E+00  0.00000000000E+00 -0.13907905339E+04  0.13933005714E+04  0.83595293025E+02 0.  0.
         66    2    3    3    0    0 -0.89301492677E+01 -0.20027769296E+02 -0.12883999098E+04  0.12885880593E+04  0.20000004245E+01 0.  0.
        -13    1    3    3    0    0  0.89301492677E+01  0.20027769296E+02 -0.10239062411E+03  0.10471251205E+03  0.10566000000E+00 0.  1.
         13    1    4    4    0    0 -0.60314455183E+01 -0.15090618019E+02 -0.93126808484E+03  0.93140987867E+03  0.10566000000E+00 0. -1.
        -13    1    4    4    0    0 -0.21456475967E+01 -0.40907157840E+01 -0.28425213665E+03  0.28428968697E+03  0.10566000000E+00 0.  1.
         14    1    4    4    0    0 -0.75305615268E+00 -0.84643549359E+00 -0.72879688298E+02  0.72888493695E+02  0.00000000000E+00 0. -1.
<mgrwt>
<rscale>  0 0.83595293E+02</rscale>
<asrwt>0</asrwt>
<pdfrwt beam="1">  1        2 0.21415962E+00 0.83595293E+02</pdfrwt>
<pdfrwt beam="2">  1       -1 0.19308092E-03 0.83595293E+02</pdfrwt>
<totfact> 0.30383131E+05</totfact>
</mgrwt>
</event>
<event>
 8    1  0.1226832E-020  0.7817742E+02  0.7818608E-02  0.1334305E+00
          2   -1    0    0  501    0  0.00000000000E+00  0.00000000000E+00  0.10665468601E+03  0.10665468604E+03  0.25500000000E-02 0. -1.
         -1   -1    0    0    0  501 -0.00000000000E+00 -0.00000000000E+00 -0.14325925066E+02  0.14325925953E+02  0.50400000000E-02 0.  1.
         24    2    1    2    0    0  0.00000000000E+00 -0.35527136788E-14  0.92328760946E+02  0.12098061200E+03  0.78177416054E+02 0.  0.
         66    2    3    3    0    0  0.14851017056E+02 -0.19497069032E+02  0.93266244156E+02  0.96453515810E+02  0.20000011867E+01 0.  0.
        -13    1    3    3    0    0 -0.14851017056E+02  0.19497069032E+02 -0.93748321010E+00  0.24527096185E+02  0.10566000000E+00 0.  1.
         13    1    4    4    0    0  0.62202462690E+01 -0.89776506917E+01  0.41423489818E+02  0.42839308448E+02  0.10566000000E+00 0.  1.
        -13    1    4    4    0    0  0.86062480998E+01 -0.10291976266E+02  0.50485693356E+02  0.52238000340E+02  0.10566000000E+00 0. -1.
        -14    1    4    4    0    0  0.24522687566E-01 -0.22744207419E+00  0.13570609826E+01  0.13762070229E+01  0.00000000000E+00 0.  1.
<mgrwt>
<rscale>  0 0.78177416E+02</rscale>
<asrwt>0</asrwt>
<pdfrwt beam="1">  1        2 0.16408413E-01 0.78177416E+02</pdfrwt>
<pdfrwt beam="2">  1       -1 0.22039886E-02 0.78177416E+02</pdfrwt>
<totfact> 0.19198419E+05</totfact>
</mgrwt>
</event>
<event>
 8    1  0.1226832E-020  0.8243031E+02  0.7818608E-02  0.1322293E+00
          2   -1    0    0  501    0  0.00000000000E+00  0.00000000000E+00  0.95364280210E+01  0.95364283619E+01  0.25500000000E-02 0. -1.
         -1   -1    0    0    0  501 -0.00000000000E+00 -0.00000000000E+00 -0.17812634409E+03  0.17812634416E+03  0.50400000000E-02 0.  1.
         24    2    1    2    0    0 -0.35527136788E-14  0.00000000000E+00 -0.16858991607E+03  0.18766277253E+03  0.82430312331E+02 0.  0.
         66    2    3    3    0    0 -0.23056818348E+02 -0.34133076342E+02 -0.84303381765E+02  0.93849581543E+02  0.20000014662E+01 0.  0.
        -13    1    3    3    0    0  0.23056818348E+02  0.34133076342E+02 -0.84286534306E+02  0.93813190982E+02  0.10566000000E+00 0.  1.
         13    1    4    4    0    0 -0.54882602506E+01 -0.73250216403E+01 -0.19603216231E+02  0.21635022377E+02  0.10566000000E+00 0. -1.
        -13    1    4    4    0    0 -0.71500364257E+01 -0.11758247525E+02 -0.28631526492E+02  0.31767198162E+02  0.10566000000E+00 0.  1.
         14    1    4    4    0    0 -0.10418521672E+02 -0.15049807177E+02 -0.36068639042E+02  0.40447361005E+02  0.00000000000E+00 0. -1.
<mgrwt>
<rscale>  0 0.82430312E+02</rscale>
<asrwt>0</asrwt>
<pdfrwt beam="1">  1        2 0.14671429E-02 0.82430312E+02</pdfrwt>
<pdfrwt beam="2">  1       -1 0.27404051E-01 0.82430312E+02</pdfrwt>
<totfact> 0.95486575E+04</totfact>
</mgrwt>
</event>
<event>
 8    1  0.1226832E-020  0.7845789E+02  0.7818608E-02  0.1333486E+00
          2   -1    0    0  501    0  0.00000000000E+00  0.00000000000E+00  0.12170916812E+04  0.12170916812E+04  0.25500000000E-02 0. -1.
         -1   -1    0    0    0  501 -0.00000000000E+00 -0.00000000000E+00 -0.12644108930E+01  0.12644209378E+01  0.50400000000E-02 0.  1.
         24    2    1    2    0    0 -0.17763568394E-14  0.00000000000E+00  0.12158272703E+04  0.12183561021E+04  0.78457889347E+02 0.  0.
         66    2    3    3    0    0  0.94847318164E+01  0.97421318580E+01  0.11793018085E+04  0.11793818825E+04  0.20000013395E+01 0.  0.
        -13    1    3    3    0    0 -0.94847318164E+01 -0.97421318580E+01  0.36525461744E+02  0.38974219561E+02  0.10566000000E+00 0.  1.
         13    1    4    4    0    0  0.47717951261E+01  0.55097039524E+01  0.58636438002E+03  0.58640968971E+03  0.10566000000E+00 0. -1.
        -13    1    4    4    0    0  0.45073039980E+01  0.36484295890E+01  0.53984571789E+03  0.53987687218E+03  0.10566000000E+00 0.  1.
        -14    1    4    4    0    0  0.20563269218E+00  0.58399831660E+00  0.53091710618E+02  0.53095320652E+02  0.00000000000E+00 0.  1.
<mgrwt>
<rscale>  0 0.78457889E+02</rscale>
<asrwt>0</asrwt>
<pdfrwt beam="1">  1        2 0.18724527E+00 0.78457889E+02</pdfrwt>
<pdfrwt beam="2">  1       -1 0.19452511E-03 0.78457889E+02</pdfrwt>
<totfact> 0.36791366E+05</totfact>
</mgrwt>
</event>
<event>
 8    1  0.1226832E-020  0.8012774E+02  0.7818608E-02  0.1328689E+00
          2   -1    0    0  501    0  0.00000000000E+00  0.00000000000E+00  0.51869044737E+03  0.51869044738E+03  0.25500000000E-02 0. -1.
         -1   -1    0    0    0  501 -0.00000000000E+00 -0.00000000000E+00 -0.30945480529E+01  0.30945521571E+01  0.50400000000E-02 0.  1.
         24    2    1    2    0    0  0.00000000000E+00  0.00000000000E+00  0.51559589932E+03  0.52178499953E+03  0.80127737678E+02 0.  0.
         66    2    3    3    0    0 -0.94377756621E+01  0.37991152332E+02  0.31271605935E+03  0.31516302613E+03  0.19999993880E+01 0.  0.
        -13    1    3    3    0    0  0.94377756621E+01 -0.37991152332E+02  0.20287983997E+03  0.20662197340E+03  0.10566000000E+00 0.  1.
         13    1    4    4    0    0 -0.67229798601E+01  0.25278741597E+02  0.20405213562E+03  0.20572189589E+03  0.10566000000E+00 0. -1.
        -13    1    4    4    0    0 -0.26115447148E+01  0.11441494262E+02  0.96790991064E+02  0.97499923446E+02  0.10566000000E+00 0.  1.
         14    1    4    4    0    0 -0.10325108725E+00  0.12709164725E+01  0.11872932666E+02  0.11941206788E+02  0.00000000000E+00 0. -1.
<mgrwt>
<rscale>  0 0.80127738E+02</rscale>
<asrwt>0</asrwt>
<pdfrwt beam="1">  1        2 0.79798560E-01 0.80127738E+02</pdfrwt>
<pdfrwt beam="2">  1       -1 0.47608445E-03 0.80127738E+02</pdfrwt>
<totfact> 0.30677853E+05</totfact>
</mgrwt>
</event>
<event>
 8    1  0.1226832E-020  0.7998423E+02  0.7818608E-02  0.1329096E+00
          2   -1    0    0  501    0  0.00000000000E+00  0.00000000000E+00  0.50585242066E+03  0.50585242067E+03  0.25500000000E-02 0. -1.
         -1   -1    0    0    0  501 -0.00000000000E+00 -0.00000000000E+00 -0.31617288041E+01  0.31617328211E+01  0.50400000000E-02 0.  1.
         24    2    1    2    0    0  0.00000000000E+00 -0.17763568394E-14  0.50269069186E+03  0.50901415349E+03  0.79984228271E+02 0.  0.
         66    2    3    3    0    0  0.27411697750E+02  0.11350076306E+02  0.42192463305E+03  0.42297118268E+03  0.20000002239E+01 0.  0.
        -13    1    3    3    0    0 -0.27411697750E+02 -0.11350076306E+02  0.80766058807E+02  0.86042970805E+02  0.10566000000E+00 0.  1.
         13    1    4    4    0    0  0.11324359575E+02  0.50683227795E+01  0.16882246404E+03  0.16927777333E+03  0.10566000000E+00 0. -1.
        -13    1    4    4    0    0  0.51314807673E+01  0.15109949113E+01  0.74313531824E+02  0.74505888201E+02  0.10566000000E+00 0.  1.
        -14    1    4    4    0    0  0.10955857408E+02  0.47707586147E+01  0.17878863718E+03  0.17918752115E+03  0.00000000000E+00 0.  1.
<mgrwt>
<rscale>  0 0.79984228E+02</rscale>
<asrwt>0</asrwt>
<pdfrwt beam="1">  1        2 0.77823442E-01 0.79984228E+02</pdfrwt>
<pdfrwt beam="2">  1       -1 0.48642017E-03 0.79984228E+02</pdfrwt>
<totfact> 0.30579791E+05</totfact>
</mgrwt>
</event>
<event>
 8    1  0.1226832E-020  0.7917687E+02  0.7818608E-02  0.1331404E+00
          2   -1    0    0  501    0  0.00000000000E+00  0.00000000000E+00  0.27420600293E+03  0.27420600294E+03  0.25500000000E-02 0. -1.
         -1   -1    0    0    0  501 -0.00000000000E+00 -0.00000000000E+00 -0.57155708184E+01  0.57155730405E+01  0.50400000000E-02 0.  1.
         24    2    1    2    0    0  0.00000000000E+00  0.00000000000E+00  0.26849043211E+03  0.27992157598E+03  0.79176868876E+02 0.  0.
         66    2    3    3    0    0 -0.44722245705E+00  0.37959911052E+02  0.17371252197E+03  0.17782349437E+03  0.20000010487E+01 0.  0.
        -13    1    3    3    0    0  0.44722245705E+00 -0.37959911052E+02  0.94777910143E+02  0.10209808162E+03  0.10566000000E+00 0.  1.
         13    1    4    4    0    0  0.33021642444E+00  0.71352784667E+01  0.34048755267E+02  0.34790086820E+02  0.10566000000E+00 0. -1.
        -13    1    4    4    0    0 -0.57240843334E+00  0.18758834181E+02  0.81972015527E+02  0.84093067520E+02  0.10566000000E+00 0.  1.
        -14    1    4    4    0    0 -0.20503044816E+00  0.12065798404E+02  0.57691751176E+02  0.58940340026E+02  0.00000000000E+00 0.  1.
<mgrwt>
<rscale>  0 0.79176869E+02</rscale>
<asrwt>0</asrwt>
<pdfrwt beam="1">  1        2 0.42185532E-01 0.79176869E+02</pdfrwt>
<pdfrwt beam="2">  1       -1 0.87931891E-03 0.79176869E+02</pdfrwt>
<totfact> 0.25356391E+05</totfact>
</mgrwt>
</event>
<event>
 8    1  0.1226832E-020  0.7090171E+02  0.7818608E-02  0.1357053E+00
          2   -1    0    0  501    0  0.00000000000E+00  0.00000000000E+00  0.17193602713E+03  0.17193602715E+03  0.25500000000E-02 0. -1.
         -1   -1    0    0    0  501 -0.00000000000E+00 -0.00000000000E+00 -0.73094809725E+01  0.73094827101E+01  0.50400000000E-02 0.  1.
         24    2    1    2    0    0  0.00000000000E+00  0.00000000000E+00  0.16462654615E+03  0.17924550986E+03  0.70901714399E+02 0.  0.
         66    2    3    3    0    0 -0.27966808710E+02  0.93247126371E+01  0.32731115026E+02  0.44095561384E+02  0.19999969409E+01 0.  0.
        -13    1    3    3    0    0  0.27966808710E+02 -0.93247126371E+01  0.13189543113E+03  0.13514994847E+03  0.10566000000E+00 0.  1.
         13    1    4    4    0    0 -0.10593012510E+02  0.31430355994E+01  0.12392780320E+02  0.16603697025E+02  0.10566000000E+00 0. -1.
        -13    1    4    4    0    0 -0.76550050835E+01  0.29583253788E+01  0.80451183633E+01  0.11492862367E+02  0.10566000000E+00 0.  1.
        -14    1    4    4    0    0 -0.97187911169E+01  0.32233516589E+01  0.12293216343E+02  0.15999001992E+02  0.00000000000E+00 0.  1.
<mgrwt>
<rscale>  0 0.70901714E+02</rscale>
<asrwt>0</asrwt>
<pdfrwt beam="1">  1        2 0.26451697E-01 0.70901714E+02</pdfrwt>
<pdfrwt beam="2">  1       -1 0.11245357E-02 0.70901714E+02</pdfrwt>
<totfact> 0.28766373E+05</totfact>
</mgrwt>
</event>
<event>
 8    1  0.1226832E-020  0.8412715E+02  0.7818608E-02  0.1317731E+00
         -1   -1    0    0    0  501 -0.00000000000E+00  0.00000000000E+00  0.14335289975E+02  0.14335290861E+02  0.50400000000E-02 0.  1.
          2   -1    0    0  501    0  0.00000000000E+00 -0.00000000000E+00 -0.12342576822E+03  0.12342576824E+03  0.25500000000E-02 0. -1.
         24    2    1    2    0    0  0.00000000000E+00  0.00000000000E+00 -0.10909047824E+03  0.13776105910E+03  0.84127147593E+02 0.  0.
         66    2    3    3    0    0 -0.96551097996E+01  0.39395607989E+02 -0.72670852977E+02  0.83248351020E+02  0.20000002708E+01 0.  0.
        -13    1    3    3    0    0  0.96551097996E+01 -0.39395607989E+02 -0.36419625263E+02  0.54512708082E+02  0.10566000000E+00 0.  1.
         13    1    4    4    0    0 -0.44427242915E+01  0.18168848383E+02 -0.33373355907E+02  0.38257507750E+02  0.10566000000E+00 0. -1.
        -13    1    4    4    0    0 -0.39149092710E+01  0.15865108057E+02 -0.28036276119E+02  0.32451072570E+02  0.10566000000E+00 0.  1.
         14    1    4    4    0    0 -0.12974762371E+01  0.53616515496E+01 -0.11261220950E+02  0.12539770700E+02  0.00000000000E+00 0. -1.
<mgrwt>
<rscale>  0 0.84127148E+02</rscale>
<asrwt>0</asrwt>
<pdfrwt beam="1">  1        2 0.18988579E-01 0.84127148E+02</pdfrwt>
<pdfrwt beam="2">  1       -1 0.22054294E-02 0.84127148E+02</pdfrwt>
<totfact> 0.16474761E+05</totfact>
</mgrwt>
</event>
<event>
 8    1  0.1226832E-020  0.8122993E+02  0.7818608E-02  0.1325597E+00
         -1   -1    0    0    0  501 -0.00000000000E+00  0.00000000000E+00  0.45861153076E+02  0.45861153353E+02  0.50400000000E-02 0.  1.
          2   -1    0    0  501    0  0.00000000000E+00 -0.00000000000E+00 -0.35968899155E+02  0.35968899246E+02  0.25500000000E-02 0. -1.
         24    2    1    2    0    0  0.00000000000E+00  0.00000000000E+00  0.98922539209E+01  0.81830052599E+02  0.81229925647E+02 0.  0.
         66    2    3    3    0    0  0.24582081692E+02 -0.30906179122E+02 -0.45063648607E+01  0.39796708275E+02  0.20000042493E+01 0.  0.
        -13    1    3    3    0    0 -0.24582081692E+02  0.30906179122E+02  0.14398618782E+02  0.42033344324E+02  0.10566000000E+00 0.  1.
         13    1    4    4    0    0  0.60222785755E+01 -0.67898487801E+01 -0.75004039565E+00  0.91073382680E+01  0.10566000000E+00 0. -1.
        -13    1    4    4    0    0  0.13001620865E+02 -0.16920386165E+02 -0.20407285758E+01  0.21436355806E+02  0.10566000000E+00 0. -1.
        -14    1    4    4    0    0  0.55581822521E+01 -0.71959441768E+01 -0.17155958892E+01  0.92530142007E+01  0.00000000000E+00 0.  1.
<mgrwt>
<rscale>  0 0.81229926E+02</rscale>
<asrwt>0</asrwt>
<pdfrwt beam="1">  1        2 0.55336768E-02 0.81229926E+02</pdfrwt>
<pdfrwt beam="2">  1       -1 0.70555621E-02 0.81229926E+02</pdfrwt>
<totfact> 0.13370808E+05</totfact>
</mgrwt>
</event>
<event>
 8    1  0.1226832E-020  0.7944892E+02  0.7818608E-02  0.1330623E+00
          2   -1    0    0  501    0  0.00000000000E+00  0.00000000000E+00  0.47151493621E+03  0.47151493621E+03  0.25500000000E-02 0. -1.
         -1   -1    0    0    0  501 -0.00000000000E+00 -0.00000000000E+00 -0.33467267122E+01  0.33467305072E+01  0.50400000000E-02 0.  1.
         24    2    1    2    0    0  0.00000000000E+00  0.00000000000E+00  0.46816820950E+03  0.47486166672E+03  0.79448915282E+02 0.  0.
         66    2    3    3    0    0 -0.22175810613E+02  0.28140488328E+02  0.33643145649E+03  0.33833973838E+03  0.19999990821E+01 0.  0.
        -13    1    3    3    0    0  0.22175810613E+02 -0.28140488328E+02  0.13173675301E+03  0.13652192834E+03  0.10566000000E+00 0.  1.
         13    1    4    4    0    0 -0.26001750724E+01  0.27694148029E+01  0.38905898949E+02  0.39091056597E+02  0.10566000000E+00 0. -1.
        -13    1    4    4    0    0 -0.18871841181E+02  0.24053562931E+02  0.28392969035E+03  0.28557100782E+03  0.10566000000E+00 0.  1.
        -14    1    4    4    0    0 -0.70379436011E+00  0.13175105938E+01  0.13595867186E+02  0.13677673969E+02  0.00000000000E+00 0.  1.
<mgrwt>
<rscale>  0 0.79448915E+02</rscale>
<asrwt>0</asrwt>
<pdfrwt beam="1">  1        2 0.72540692E-01 0.79448915E+02</pdfrwt>
<pdfrwt beam="2">  1       -1 0.51488180E-03 0.79448915E+02</pdfrwt>
<totfact> 0.30421754E+05</totfact>
</mgrwt>
</event>
<event>
 8    1  0.1226832E-020  0.8024877E+02  0.7818608E-02  0.1328347E+00
         -1   -1    0    0    0  501 -0.00000000000E+00  0.00000000000E+00  0.22313231549E+02  0.22313232118E+02  0.50400000000E-02 0.  1.
          2   -1    0    0  501    0  0.00000000000E+00 -0.00000000000E+00 -0.72152976555E+02  0.72152976600E+02  0.25500000000E-02 0. -1.
         24    2    1    2    0    0  0.00000000000E+00 -0.71054273576E-14 -0.49839745006E+02  0.94466208718E+02  0.80248765769E+02 0.  0.
         66    2    3    3    0    0 -0.22575319299E+02 -0.32273131443E+02 -0.33804079452E+02  0.51941465470E+02  0.19999982282E+01 0.  0.
        -13    1    3    3    0    0  0.22575319299E+02  0.32273131443E+02 -0.16035665553E+02  0.42524743249E+02  0.10566000000E+00 0.  1.
         13    1    4    4    0    0 -0.11711826699E+02 -0.17665467262E+02 -0.17315457097E+02  0.27369176764E+02  0.10566000000E+00 0. -1.
        -13    1    4    4    0    0 -0.20659662701E+01 -0.25913604696E+01 -0.26881610157E+01  0.42685758040E+01  0.10566000000E+00 0.  1.
        -14    1    4    4    0    0 -0.87975263300E+01 -0.12016303711E+02 -0.13800461339E+02  0.20303712901E+02  0.00000000000E+00 0.  1.
<mgrwt>
<rscale>  0 0.80248766E+02</rscale>
<asrwt>0</asrwt>
<pdfrwt beam="1">  1        2 0.11100458E-01 0.80248766E+02</pdfrwt>
<pdfrwt beam="2">  1       -1 0.34328050E-02 0.80248766E+02</pdfrwt>
<totfact> 0.16131046E+05</totfact>
</mgrwt>
</event>
<event>
 8    1  0.1226832E-020  0.7936918E+02  0.7818608E-02  0.1330851E+00
         -1   -1    0    0    0  501 -0.00000000000E+00  0.00000000000E+00  0.54730594072E+02  0.54730594304E+02  0.50400000000E-02 0.  1.
          2   -1    0    0  501    0  0.00000000000E+00 -0.00000000000E+00 -0.28774888124E+02  0.28774888237E+02  0.25500000000E-02 0. -1.
         24    2    1    2    0    0  0.00000000000E+00  0.35527136788E-14  0.25955705949E+02  0.83505482541E+02  0.79369181318E+02 0.  0.
         66    2    3    3    0    0  0.16525201663E+00 -0.27233681427E+02 -0.17346253501E+02  0.32351093008E+02  0.19999989935E+01 0.  0.
        -13    1    3    3    0    0 -0.16525201663E+00  0.27233681427E+02  0.43301959450E+02  0.51154389533E+02  0.10566000000E+00 0.  1.
         13    1    4    4    0    0 -0.10868241513E+00 -0.10282825703E+02 -0.60538940101E+01  0.11933528943E+02  0.10566000000E+00 0. -1.
        -13    1    4    4    0    0 -0.36333949214E+00 -0.74368185492E+01 -0.43649298731E+01  0.86314577305E+01  0.10566000000E+00 0.  1.
        -14    1    4    4    0    0  0.63727392390E+00 -0.95140371746E+01 -0.69274296181E+01  0.11786106334E+02  0.00000000000E+00 0.  1.
<mgrwt>
<rscale>  0 0.79369181E+02</rscale>
<asrwt>0</asrwt>
<pdfrwt beam="1">  1        2 0.44269059E-02 0.79369181E+02</pdfrwt>
<pdfrwt beam="2">  1       -1 0.84200913E-02 0.79369181E+02</pdfrwt>
<totfact> 0.13644945E+05</totfact>
</mgrwt>
</event>
<event>
 8    1  0.1226832E-020  0.8046435E+02  0.7818608E-02  0.1327739E+00
         -1   -1    0    0    0  501 -0.00000000000E+00  0.00000000000E+00  0.20131932761E+01  0.20131995849E+01  0.50400000000E-02 0.  1.
          2   -1    0    0  501    0  0.00000000000E+00 -0.00000000000E+00 -0.80400897137E+03  0.80400897138E+03  0.25500000000E-02 0. -1.
         24    2    1    2    0    0  0.00000000000E+00  0.00000000000E+00 -0.80199577810E+03  0.80602217096E+03  0.80464352337E+02 0.  0.
         66    2    3    3    0    0 -0.12662521842E+02 -0.90256685294E+01 -0.77266599913E+03  0.77282504383E+03  0.20000002612E+01 0.  0.
        -13    1    3    3    0    0  0.12662521842E+02  0.90256685294E+01 -0.29329778967E+02  0.33197127136E+02  0.10566000000E+00 0.  1.
         13    1    4    4    0    0 -0.48087311837E+01 -0.32805717545E+01 -0.30284994455E+03  0.30290590308E+03  0.10566000000E+00 0. -1.
        -13    1    4    4    0    0 -0.48058870676E+01 -0.43028204332E+01 -0.32212885317E+03  0.32219345124E+03  0.10566000000E+00 0.  1.
         14    1    4    4    0    0 -0.30479035910E+01 -0.14422763417E+01 -0.14768720142E+03  0.14772568951E+03  0.00000000000E+00 0. -1.
<mgrwt>
<rscale>  0 0.80464352E+02</rscale>
<asrwt>0</asrwt>
<pdfrwt beam="1">  1        2 0.12369343E+00 0.80464352E+02</pdfrwt>
<pdfrwt beam="2">  1       -1 0.30972317E-03 0.80464352E+02</pdfrwt>
<totfact> 0.33881695E+05</totfact>
</mgrwt>
</event>
<event>
 8    1  0.1226832E-020  0.8135796E+02  0.7818608E-02  0.1325241E+00
          2   -1    0    0  501    0  0.00000000000E+00  0.00000000000E+00  0.42604698347E+02  0.42604698423E+02  0.25500000000E-02 0. -1.
         -1   -1    0    0    0  501 -0.00000000000E+00 -0.00000000000E+00 -0.38840302089E+02  0.38840302416E+02  0.50400000000E-02 0.  1.
         24    2    1    2    0    0  0.00000000000E+00 -0.17763568394E-14  0.37643962579E+01  0.81445000839E+02  0.81357958938E+02 0.  0.
         66    2    3    3    0    0 -0.23582089792E+02  0.95126262536E+01  0.33637441668E+02  0.42214718871E+02  0.19999975488E+01 0.  0.
        -13    1    3    3    0    0  0.23582089792E+02 -0.95126262536E+01 -0.29873045410E+02  0.39230281968E+02  0.10566000000E+00 0.  1.
         13    1    4    4    0    0 -0.12236392474E+02  0.59246683608E+01  0.18342634457E+02  0.22831872434E+02  0.10566000000E+00 0. -1.
        -13    1    4    4    0    0 -0.39656474764E+01  0.13080850490E+01  0.50989055953E+01  0.65914678720E+01  0.10566000000E+00 0.  1.
         14    1    4    4    0    0 -0.73800498419E+01  0.22798728438E+01  0.10195901616E+02  0.12791378566E+02  0.00000000000E+00 0. -1.
<mgrwt>
<rscale>  0 0.81357959E+02</rscale>
<asrwt>0</asrwt>
<pdfrwt beam="1">  1        2 0.65545690E-02 0.81357959E+02</pdfrwt>
<pdfrwt beam="2">  1       -1 0.59754311E-02 0.81357959E+02</pdfrwt>
<totfact> 0.13786841E+05</totfact>
</mgrwt>
</event>
<event>
 8    1  0.1226832E-020  0.8014285E+02  0.7818608E-02  0.1328647E+00
         -1   -1    0    0    0  501 -0.00000000000E+00  0.00000000000E+00  0.18782629765E+03  0.18782629772E+03  0.50400000000E-02 0.  1.
          2   -1    0    0  501    0  0.00000000000E+00 -0.00000000000E+00 -0.85489572166E+01  0.85489575969E+01  0.25500000000E-02 0. -1.
         24    2    1    2    0    0  0.00000000000E+00  0.00000000000E+00  0.17927734043E+03  0.19637525531E+03  0.80142848133E+02 0.  0.
         66    2    3    3    0    0  0.38440948819E+02  0.50429548116E+01  0.65120702189E+02  0.75814535515E+02  0.20000005814E+01 0.  0.
        -13    1    3    3    0    0 -0.38440948819E+02 -0.50429548116E+01  0.11415663824E+03  0.12056071980E+03  0.10566000000E+00 0.  1.
         13    1    4    4    0    0  0.62130376863E+01  0.63295930840E+00  0.10042016825E+02  0.11826061928E+02  0.10566000000E+00 0. -1.
        -13    1    4    4    0    0  0.21516645744E+02  0.25828386168E+01  0.38035400277E+02  0.43776020122E+02  0.10566000000E+00 0.  1.
        -14    1    4    4    0    0  0.10711265389E+02  0.18271568863E+01  0.17043285087E+02  0.20212453465E+02  0.00000000000E+00 0.  1.
<mgrwt>
<rscale>  0 0.80142848E+02</rscale>
<asrwt>0</asrwt>
<pdfrwt beam="1">  1        2 0.13152242E-02 0.80142848E+02</pdfrwt>
<pdfrwt beam="2">  1       -1 0.28896354E-01 0.80142848E+02</pdfrwt>
<totfact> 0.10101753E+05</totfact>
</mgrwt>
</event>
<event>
 8    1  0.1226832E-020  0.7851026E+02  0.7818608E-02  0.1333333E+00
          2   -1    0    0  501    0  0.00000000000E+00  0.00000000000E+00  0.31637471227E+03  0.31637471228E+03  0.25500000000E-02 0. -1.
         -1   -1    0    0    0  501 -0.00000000000E+00 -0.00000000000E+00 -0.48706947800E+01  0.48706973876E+01  0.50400000000E-02 0.  1.
         24    2    1    2    0    0  0.00000000000E+00  0.35527136788E-14  0.31150401749E+03  0.32124540967E+03  0.78510256147E+02 0.  0.
         66    2    3    3    0    0  0.31110265117E+02 -0.23468928377E+02  0.17429795695E+03  0.17861247726E+03  0.20000101494E+01 0.  0.
        -13    1    3    3    0    0 -0.31110265117E+02  0.23468928377E+02  0.13720606054E+03  0.14263293241E+03  0.10566000000E+00 0.  1.
         13    1    4    4    0    0  0.12254676254E+02 -0.87724246848E+01  0.65660063098E+02  0.67367555804E+02  0.10566000000E+00 0. -1.
        -13    1    4    4    0    0  0.42318208909E+01 -0.39610793083E+01  0.25464972034E+02  0.26116554559E+02  0.10566000000E+00 0.  1.
        -14    1    4    4    0    0  0.14623767972E+02 -0.10735424383E+02  0.83172921818E+02  0.85128366894E+02  0.00000000000E+00 0.  1.
<mgrwt>
<rscale>  0 0.78510256E+02</rscale>
<asrwt>0</asrwt>
<pdfrwt beam="1">  1        2 0.48673031E-01 0.78510256E+02</pdfrwt>
<pdfrwt beam="2">  1       -1 0.74933789E-03 0.78510256E+02</pdfrwt>
<totfact> 0.27299846E+05</totfact>
</mgrwt>
</event>
<event>
 8    1  0.1226832E-020  0.7588970E+02  0.7818608E-02  0.1341138E+00
         -1   -1    0    0    0  501 -0.00000000000E+00  0.00000000000E+00  0.31979156923E+02  0.31979157320E+02  0.50400000000E-02 0.  1.
          2   -1    0    0  501    0  0.00000000000E+00 -0.00000000000E+00 -0.45023444905E+02  0.45023444977E+02  0.25500000000E-02 0. -1.
         24    2    1    2    0    0  0.00000000000E+00  0.35527136788E-14 -0.13044287982E+02  0.77002602297E+02  0.75889704911E+02 0.  0.
         66    2    3    3    0    0 -0.56716818495E+01  0.23670994338E+02 -0.36027466992E+02  0.43525421571E+02  0.19999992646E+01 0.  0.
        -13    1    3    3    0    0  0.56716818495E+01 -0.23670994338E+02  0.22983179010E+02  0.33477180726E+02  0.10566000000E+00 0.  1.
         13    1    4    4    0    0 -0.72927435046E+00  0.18723177421E+01 -0.26466224836E+01  0.33246337260E+01  0.10566000000E+00 0. -1.
        -13    1    4    4    0    0 -0.22396801061E+01  0.76185736261E+01 -0.10960580767E+02  0.13535299252E+02  0.10566000000E+00 0.  1.
         14    1    4    4    0    0 -0.27027273929E+01  0.14180102970E+02 -0.22420263742E+02  0.26665488592E+02  0.00000000000E+00 0. -1.
<mgrwt>
<rscale>  0 0.75889705E+02</rscale>
<asrwt>0</asrwt>
<pdfrwt beam="1">  1        2 0.69266839E-02 0.75889705E+02</pdfrwt>
<pdfrwt beam="2">  1       -1 0.49198703E-02 0.75889705E+02</pdfrwt>
<totfact> 0.16882651E+05</totfact>
</mgrwt>
</event>
<event>
 8    1  0.1226832E-020  0.7840461E+02  0.7818608E-02  0.1333641E+00
         -1   -1    0    0    0  501 -0.00000000000E+00  0.00000000000E+00  0.46641663430E+02  0.46641663702E+02  0.50400000000E-02 0.  1.
          2   -1    0    0  501    0  0.00000000000E+00 -0.00000000000E+00 -0.32949524412E+02  0.32949524511E+02  0.25500000000E-02 0. -1.
         24    2    1    2    0    0  0.00000000000E+00  0.00000000000E+00  0.13692139017E+02  0.79591188213E+02  0.78404608094E+02 0.  0.
         66    2    3    3    0    0  0.25727380387E+02  0.29339963537E+02  0.10379346940E+02  0.40428485072E+02  0.20000001066E+01 0.  0.
        -13    1    3    3    0    0 -0.25727380387E+02 -0.29339963537E+02  0.33127920775E+01  0.39162703141E+02  0.10566000000E+00 0.  1.
         13    1    4    4    0    0  0.14186315474E+02  0.16133149932E+02  0.50541592991E+01  0.22070019567E+02  0.10566000000E+00 0. -1.
        -13    1    4    4    0    0  0.70386579635E+01  0.77275352068E+01  0.36436706774E+01  0.11070004803E+02  0.10566000000E+00 0.  1.
        -14    1    4    4    0    0  0.45024069496E+01  0.54792783981E+01  0.16815169634E+01  0.72884607019E+01  0.00000000000E+00 0.  1.
<mgrwt>
<rscale>  0 0.78404608E+02</rscale>
<asrwt>0</asrwt>
<pdfrwt beam="1">  1        2 0.50691577E-02 0.78404608E+02</pdfrwt>
<pdfrwt beam="2">  1       -1 0.71756405E-02 0.78404608E+02</pdfrwt>
<totfact> 0.14498594E+05</totfact>
</mgrwt>
</event>
<event>
 8    1  0.1226832E-020  0.7858119E+02  0.7818608E-02  0.1333127E+00
         -1   -1    0    0    0  501 -0.00000000000E+00  0.00000000000E+00  0.87821444191E+02  0.87821444336E+02  0.50400000000E-02 0.  1.
          2   -1    0    0  501    0  0.00000000000E+00 -0.00000000000E+00 -0.17578290440E+02  0.17578290625E+02  0.25500000000E-02 0. -1.
         24    2    1    2    0    0  0.00000000000E+00  0.00000000000E+00  0.70243153752E+02  0.10539973496E+03  0.78581190375E+02 0.  0.
         66    2    3    3    0    0  0.34473925696E+02  0.14820976847E+02  0.50649479932E+02  0.63067287295E+02  0.20000004408E+01 0.  0.
        -13    1    3    3    0    0 -0.34473925696E+02 -0.14820976847E+02  0.19593673820E+02  0.42332447666E+02  0.10566000000E+00 0.  1.
         13    1    4    4    0    0  0.20480980222E+02  0.92561818755E+01  0.29659234270E+02  0.37213287886E+02  0.10566000000E+00 0. -1.
        -13    1    4    4    0    0  0.73808167504E+00  0.38084907074E+00  0.15363263548E+01  0.17496494728E+01  0.10566000000E+00 0.  1.
        -14    1    4    4    0    0  0.13254863799E+02  0.51839459008E+01  0.19453919307E+02  0.24104349936E+02  0.00000000000E+00 0.  1.
<mgrwt>
<rscale>  0 0.78581190E+02</rscale>
<asrwt>0</asrwt>
<pdfrwt beam="1">  1        2 0.27043524E-02 0.78581190E+02</pdfrwt>
<pdfrwt beam="2">  1       -1 0.13510991E-01 0.78581190E+02</pdfrwt>
<totfact> 0.12733670E+05</totfact>
</mgrwt>
</event>
<event>
 8    1  0.1226832E-020  0.7840134E+02  0.7818608E-02  0.1333650E+00
         -1   -1    0    0    0  501 -0.00000000000E+00  0.00000000000E+00  0.72890652759E+01  0.72890670184E+01  0.50400000000E-02 0.  1.
          2   -1    0    0  501    0  0.00000000000E+00 -0.00000000000E+00 -0.21082156979E+03  0.21082156980E+03  0.25500000000E-02 0. -1.
         24    2    1    2    0    0 -0.35527136788E-14  0.00000000000E+00 -0.20353250451E+03  0.21811063682E+03  0.78401336097E+02 0.  0.
         66    2    3    3    0    0 -0.27515106978E+02  0.27544049638E+02 -0.11393681599E+03  0.12042156708E+03  0.19999990094E+01 0.  0.
        -13    1    3    3    0    0  0.27515106978E+02 -0.27544049638E+02 -0.89595688516E+02  0.97689069743E+02  0.10566000000E+00 0.  1.
         13    1    4    4    0    0 -0.57516960605E+01  0.62996544569E+01 -0.23691895860E+02  0.25181039441E+02  0.10566000000E+00 0. -1.
        -13    1    4    4    0    0 -0.20946259493E+01  0.15869029888E+01 -0.81421457245E+01  0.85563672197E+01  0.10566000000E+00 0.  1.
        -14    1    4    4    0    0 -0.19668784968E+02  0.19657492192E+02 -0.82102774409E+02  0.86684160416E+02  0.00000000000E+00 0.  1.
<mgrwt>
<rscale>  0 0.78401336E+02</rscale>
<asrwt>0</asrwt>
<pdfrwt beam="1">  1        2 0.32434083E-01 0.78401336E+02</pdfrwt>
<pdfrwt beam="2">  1       -1 0.11213950E-02 0.78401336E+02</pdfrwt>
<totfact> 0.23694611E+05</totfact>
</mgrwt>
</event>
<event>
 8    1  0.1226832E-020  0.7999019E+02  0.7818608E-02  0.1329079E+00
         -1   -1    0    0    0  501 -0.00000000000E+00  0.00000000000E+00  0.16048347564E+02  0.16048348356E+02  0.50400000000E-02 0.  1.
          2   -1    0    0  501    0  0.00000000000E+00 -0.00000000000E+00 -0.99674280304E+02  0.99674280337E+02  0.25500000000E-02 0. -1.
         24    2    1    2    0    0  0.00000000000E+00 -0.35527136788E-14 -0.83625932740E+02  0.11572262869E+03  0.79990187929E+02 0.  0.
         66    2    3    3    0    0  0.37231747618E+01 -0.29284592837E+02 -0.80823867220E+02  0.86069430836E+02  0.20000010384E+01 0.  0.
        -13    1    3    3    0    0 -0.37231747618E+01  0.29284592837E+02 -0.28020655204E+01  0.29653197857E+02  0.10566000000E+00 0.  1.
         13    1    4    4    0    0  0.10004331074E+01 -0.68798860674E+01 -0.19357608270E+02  0.20568467631E+02  0.10566000000E+00 0. -1.
        -13    1    4    4    0    0  0.15393744333E+01 -0.64209325181E+01 -0.18358055788E+02  0.19509675149E+02  0.10566000000E+00 0.  1.
        -14    1    4    4    0    0  0.11833672211E+01 -0.15983774251E+02 -0.43108203162E+02  0.45991288057E+02  0.00000000000E+00 0.  1.
<mgrwt>
<rscale>  0 0.79990188E+02</rscale>
<asrwt>0</asrwt>
<pdfrwt beam="1">  1        2 0.15334504E-01 0.79990188E+02</pdfrwt>
<pdfrwt beam="2">  1       -1 0.24689767E-02 0.79990188E+02</pdfrwt>
<totfact> 0.17715502E+05</totfact>
</mgrwt>
</event>
<event>
 8    1  0.1226832E-020  0.8084127E+02  0.7818608E-02  0.1326681E+00
          2   -1    0    0  501    0  0.00000000000E+00  0.00000000000E+00  0.73768286893E+02  0.73768286937E+02  0.25500000000E-02 0. -1.
         -1   -1    0    0    0  501 -0.00000000000E+00 -0.00000000000E+00 -0.22148101536E+02  0.22148102109E+02  0.50400000000E-02 0.  1.
         24    2    1    2    0    0 -0.35527136788E-14  0.17763568394E-14  0.51620185357E+02  0.95916389046E+02  0.80841265152E+02 0.  0.
         66    2    3    3    0    0  0.28612544683E+02 -0.71220792736E+01 -0.69351501460E+01  0.30356186131E+02  0.20000006038E+01 0.  0.
        -13    1    3    3    0    0 -0.28612544683E+02  0.71220792736E+01  0.58555335503E+02  0.65560202915E+02  0.10566000000E+00 0.  1.
         13    1    4    4    0    0  0.18473947309E+02 -0.37538379108E+01 -0.41391137722E+01  0.19300814881E+02  0.10566000000E+00 0. -1.
        -13    1    4    4    0    0  0.31113763625E+01 -0.11891758128E+01 -0.69972406290E+00  0.34052283011E+01  0.10566000000E+00 0.  1.
         14    1    4    4    0    0  0.70272210124E+01 -0.21790655501E+01 -0.20963123109E+01  0.76501429485E+01  0.00000000000E+00 0. -1.
<mgrwt>
<rscale>  0 0.80841265E+02</rscale>
<asrwt>0</asrwt>
<pdfrwt beam="1">  1        2 0.11348967E-01 0.80841265E+02</pdfrwt>
<pdfrwt beam="2">  1       -1 0.34074003E-02 0.80841265E+02</pdfrwt>
<totfact> 0.15900427E+05</totfact>
</mgrwt>
</event>
<event>
 8    1  0.1226832E-020  0.8020954E+02  0.7818608E-02  0.1328458E+00
          2   -1    0    0  501    0  0.00000000000E+00  0.00000000000E+00  0.32130400217E+03  0.32130400218E+03  0.25500000000E-02 0. -1.
         -1   -1    0    0    0  501 -0.00000000000E+00 -0.00000000000E+00 -0.50058269297E+01  0.50058294669E+01  0.50400000000E-02 0.  1.
         24    2    1    2    0    0  0.00000000000E+00 -0.35527136788E-14  0.31629817524E+03  0.32630983165E+03  0.80209541635E+02 0.  0.
         66    2    3    3    0    0  0.97723495743E+01 -0.13349951897E+02  0.30676033923E+03  0.30721267187E+03  0.20000001130E+01 0.  0.
        -13    1    3    3    0    0 -0.97723495743E+01  0.13349951897E+02  0.95378360127E+01  0.19097159781E+02  0.10566000000E+00 0.  1.
         13    1    4    4    0    0  0.30764092485E+01 -0.48464289902E+01  0.99831076793E+02  0.99996036049E+02  0.10566000000E+00 0. -1.
        -13    1    4    4    0    0  0.91598590344E+00 -0.19835883628E+01  0.38273827299E+02  0.38336284029E+02  0.10566000000E+00 0.  1.
        -14    1    4    4    0    0  0.57799544224E+01 -0.65199345436E+01  0.16865543514E+03  0.16888035179E+03  0.00000000000E+00 0.  1.
<mgrwt>
<rscale>  0 0.80209542E+02</rscale>
<asrwt>0</asrwt>
<pdfrwt beam="1">  1        2 0.49431400E-01 0.80209542E+02</pdfrwt>
<pdfrwt beam="2">  1       -1 0.77012719E-03 0.80209542E+02</pdfrwt>
<totfact> 0.25956067E+05</totfact>
</mgrwt>
</event>
<event>
 8    1  0.1226832E-020  0.8030776E+02  0.7818608E-02  0.1328180E+00
          2   -1    0    0  501    0  0.00000000000E+00  0.00000000000E+00  0.90323155232E+03  0.90323155232E+03  0.25500000000E-02 0. -1.
         -1   -1    0    0    0  501 -0.00000000000E+00 -0.00000000000E+00 -0.17850694366E+01  0.17850765516E+01  0.50400000000E-02 0.  1.
         24    2    1    2    0    0  0.88817841970E-15  0.71054273576E-14  0.90144648288E+03  0.90501662887E+03  0.80307764493E+02 0.  0.
         66    2    3    3    0    0  0.71185718671E+01  0.29572168778E+02  0.74597981210E+03  0.74660234884E+03  0.19999989418E+01 0.  0.
        -13    1    3    3    0    0 -0.71185718671E+01 -0.29572168778E+02  0.15546667078E+03  0.15841428003E+03  0.10566000000E+00 0.  1.
         13    1    4    4    0    0  0.12390350423E+01  0.65447813439E+01  0.16628361377E+03  0.16641700858E+03  0.10566000000E+00 0. -1.
        -13    1    4    4    0    0  0.40454532704E+00  0.98967196701E+00  0.20240275660E+02  0.20268769828E+02  0.10566000000E+00 0.  1.
         14    1    4    4    0    0  0.54749914978E+01  0.22037715467E+02  0.55945592267E+03  0.55991657044E+03  0.00000000000E+00 0. -1.
<mgrwt>
<rscale>  0 0.80307764E+02</rscale>
<asrwt>0</asrwt>
<pdfrwt beam="1">  1        2 0.13895851E+00 0.80307764E+02</pdfrwt>
<pdfrwt beam="2">  1       -1 0.27462698E-03 0.80307764E+02</pdfrwt>
<totfact> 0.34613316E+05</totfact>
</mgrwt>
</event>
<event>
 8    1  0.1226832E-020  0.7920684E+02  0.7818608E-02  0.1331317E+00
          2   -1    0    0  501    0  0.00000000000E+00  0.00000000000E+00  0.15423169413E+03  0.15423169415E+03  0.25500000000E-02 0. -1.
         -1   -1    0    0    0  501 -0.00000000000E+00 -0.00000000000E+00 -0.10169315930E+02  0.10169317179E+02  0.50400000000E-02 0.  1.
         24    2    1    2    0    0  0.35527136788E-14  0.00000000000E+00  0.14406237820E+03  0.16440101133E+03  0.79206841331E+02 0.  0.
         66    2    3    3    0    0  0.19913211119E+02 -0.32110569534E+02  0.96530350006E+02  0.10368091975E+03  0.19999988950E+01 0.  0.
        -13    1    3    3    0    0 -0.19913211119E+02  0.32110569534E+02  0.47532028193E+02  0.60720091576E+02  0.10566000000E+00 0.  1.
         13    1    4    4    0    0  0.39692292268E+01 -0.58196278024E+01  0.16938655410E+02  0.18345355258E+02  0.10566000000E+00 0. -1.
        -13    1    4    4    0    0  0.50488002061E+01 -0.86228099847E+01  0.27610209021E+02  0.29362868418E+02  0.10566000000E+00 0.  1.
         14    1    4    4    0    0  0.10895181686E+02 -0.17668131747E+02  0.51981485576E+02  0.55972696076E+02  0.00000000000E+00 0. -1.
<mgrwt>
<rscale>  0 0.79206841E+02</rscale>
<asrwt>0</asrwt>
<pdfrwt beam="1">  1        2 0.23727953E-01 0.79206841E+02</pdfrwt>
<pdfrwt beam="2">  1       -1 0.15645103E-02 0.79206841E+02</pdfrwt>
<totfact> 0.20751990E+05</totfact>
</mgrwt>
</event>
<event>
 8    1  0.1226832E-020  0.8009126E+02  0.7818608E-02  0.1328793E+00
          2   -1    0    0  501    0  0.00000000000E+00  0.00000000000E+00  0.28214489813E+03  0.28214489814E+03  0.25500000000E-02 0. -1.
         -1   -1    0    0    0  501 -0.00000000000E+00 -0.00000000000E+00 -0.56837886529E+01  0.56837908875E+01  0.50400000000E-02 0.  1.
         24    2    1    2    0    0  0.35527136788E-14  0.00000000000E+00  0.27646110947E+03  0.28782868902E+03  0.80091255295E+02 0.  0.
         66    2    3    3    0    0 -0.13217267845E+02 -0.11731859271E+02  0.26735772429E+03  0.26794866194E+03  0.20000009752E+01 0.  0.
        -13    1    3    3    0    0  0.13217267845E+02  0.11731859271E+02  0.91033851814E+01  0.19880027089E+02  0.10566000000E+00 0.  1.
         13    1    4    4    0    0 -0.70768008045E+01 -0.72975994975E+01  0.15228378828E+03  0.15262273555E+03  0.10566000000E+00 0.  1.
        -13    1    4    4    0    0 -0.15781081130E+00 -0.15875400451E+00  0.25534824647E+01  0.25654519717E+01  0.10566000000E+00 0. -1.
         14    1    4    4    0    0 -0.59826562290E+01 -0.42755057694E+01  0.11252045354E+03  0.11276047441E+03  0.00000000000E+00 0. -1.
<mgrwt>
<rscale>  0 0.80091255E+02</rscale>
<asrwt>0</asrwt>
<pdfrwt beam="1">  1        2 0.43406909E-01 0.80091255E+02</pdfrwt>
<pdfrwt beam="2">  1       -1 0.87442917E-03 0.80091255E+02</pdfrwt>
<totfact> 0.24859540E+05</totfact>
</mgrwt>
</event>
<event>
 8    1  0.1226832E-020  0.7822127E+02  0.7818608E-02  0.1334176E+00
          2   -1    0    0  501    0  0.00000000000E+00  0.00000000000E+00  0.41147100950E+03  0.41147100951E+03  0.25500000000E-02 0. -1.
         -1   -1    0    0    0  501 -0.00000000000E+00 -0.00000000000E+00 -0.37174939622E+01  0.37174973787E+01  0.50400000000E-02 0.  1.
         24    2    1    2    0    0 -0.88817841970E-15  0.00000000000E+00  0.40775351554E+03  0.41518850688E+03  0.78221268318E+02 0.  0.
         66    2    3    3    0    0  0.43894105497E+01  0.38833899429E+02  0.20690766682E+03  0.21057569013E+03  0.20000037492E+01 0.  0.
        -13    1    3    3    0    0 -0.43894105497E+01 -0.38833899429E+02  0.20084584872E+03  0.20461281676E+03  0.10566000000E+00 0.  1.
         13    1    4    4    0    0  0.48309961728E+00  0.82983386536E+01  0.44747374995E+02  0.45513015090E+02  0.10566000000E+00 0. -1.
        -13    1    4    4    0    0  0.16763654903E+01  0.10112342410E+02  0.56965402503E+02  0.57880375920E+02  0.10566000000E+00 0.  1.
        -14    1    4    4    0    0  0.22299454421E+01  0.20423218366E+02  0.10519488932E+03  0.10718229912E+03  0.00000000000E+00 0.  1.
<mgrwt>
<rscale>  0 0.78221268E+02</rscale>
<asrwt>0</asrwt>
<pdfrwt beam="1">  1        2 0.63303234E-01 0.78221268E+02</pdfrwt>
<pdfrwt beam="2">  1       -1 0.57192240E-03 0.78221268E+02</pdfrwt>
<totfact> 0.30256666E+05</totfact>
</mgrwt>
</event>
<event>
 8    1  0.1226832E-020  0.7928752E+02  0.7818608E-02  0.1331086E+00
          2   -1    0    0  501    0  0.00000000000E+00  0.00000000000E+00  0.78389519230E+02  0.78389519272E+02  0.25500000000E-02 0. -1.
         -1   -1    0    0    0  501 -0.00000000000E+00 -0.00000000000E+00 -0.20048949927E+02  0.20048950560E+02  0.50400000000E-02 0.  1.
         24    2    1    2    0    0  0.00000000000E+00  0.00000000000E+00  0.58340569303E+02  0.98438469832E+02  0.79287516774E+02 0.  0.
         66    2    3    3    0    0  0.17807087646E+02 -0.13871798344E+02  0.69612316925E+02  0.73207880893E+02  0.19999993741E+01 0.  0.
        -13    1    3    3    0    0 -0.17807087646E+02  0.13871798344E+02 -0.11271747622E+02  0.25230588939E+02  0.10566000000E+00 0.  1.
         13    1    4    4    0    0  0.10798882261E+02 -0.79992154246E+01  0.41841518557E+02  0.43946867291E+02  0.10566000000E+00 0. -1.
        -13    1    4    4    0    0  0.16060599506E+01 -0.87563575102E+00  0.46773150547E+01  0.50234058855E+01  0.10566000000E+00 0.  1.
        -14    1    4    4    0    0  0.54021454334E+01 -0.49969471681E+01  0.23093483313E+02  0.24237607717E+02  0.00000000000E+00 0.  1.
<mgrwt>
<rscale>  0 0.79287517E+02</rscale>
<asrwt>0</asrwt>
<pdfrwt beam="1">  1        2 0.12059926E-01 0.79287517E+02</pdfrwt>
<pdfrwt beam="2">  1       -1 0.30844538E-02 0.79287517E+02</pdfrwt>
<totfact> 0.17014445E+05</totfact>
</mgrwt>
</event>
<event>
 8    1  0.1226832E-020  0.8035373E+02  0.7818608E-02  0.1328051E+00
         -1   -1    0    0    0  501 -0.00000000000E+00  0.00000000000E+00  0.13613731263E+01  0.13613824556E+01  0.50400000000E-02 0.  1.
          2   -1    0    0  501    0  0.00000000000E+00 -0.00000000000E+00 -0.11856960742E+04  0.11856960742E+04  0.25500000000E-02 0. -1.
         24    2    1    2    0    0  0.00000000000E+00 -0.88817841970E-15 -0.11843347011E+04  0.11870574567E+04  0.80353725743E+02 0.  0.
         66    2    3    3    0    0 -0.23191044528E+02 -0.79918056029E+01 -0.10621352243E+04  0.10624203161E+04  0.19999986292E+01 0.  0.
        -13    1    3    3    0    0  0.23191044528E+02  0.79918056029E+01 -0.12219947680E+03  0.12463714052E+03  0.10566000000E+00 0.  1.
         13    1    4    4    0    0 -0.11483516781E+02 -0.40332658140E+01 -0.51700053540E+03  0.51714379350E+03  0.10566000000E+00 0. -1.
        -13    1    4    4    0    0 -0.38439467443E+01 -0.19845719603E+01 -0.18603164727E+03  0.18608196958E+03  0.10566000000E+00 0. -1.
         14    1    4    4    0    0 -0.78635810026E+01 -0.19739678286E+01 -0.35910304161E+03  0.35919455306E+03  0.00000000000E+00 0. -1.
<mgrwt>
<rscale>  0 0.80353726E+02</rscale>
<asrwt>0</asrwt>
<pdfrwt beam="1">  1        2 0.18241395E+00 0.80353726E+02</pdfrwt>
<pdfrwt beam="2">  1       -1 0.20944369E-03 0.80353726E+02</pdfrwt>
<totfact> 0.34682382E+05</totfact>
</mgrwt>
</event>
<event>
 8    1  0.1226832E-020  0.7932495E+02  0.7818608E-02  0.1330978E+00
         -1   -1    0    0    0  501 -0.00000000000E+00  0.00000000000E+00  0.53016390493E+01  0.53016414449E+01  0.50400000000E-02 0.  1.
          2   -1    0    0  501    0  0.00000000000E+00 -0.00000000000E+00 -0.29672176333E+03  0.29672176334E+03  0.25500000000E-02 0. -1.
         24    2    1    2    0    0  0.88817841970E-15  0.00000000000E+00 -0.29142012428E+03  0.30202340478E+03  0.79324953215E+02 0.  0.
         66    2    3    3    0    0  0.57691904758E+01 -0.39041194411E+02 -0.15984798181E+03  0.16465987885E+03  0.19999983950E+01 0.  0.
        -13    1    3    3    0    0 -0.57691904758E+01  0.39041194411E+02 -0.13157214247E+03  0.13736352593E+03  0.10566000000E+00 0.  1.
         13    1    4    4    0    0  0.40510425412E+01 -0.23363703710E+02 -0.94991304153E+02  0.97906244057E+02  0.10566000000E+00 0. -1.
        -13    1    4    4    0    0  0.16960551601E+00 -0.54272583459E+01 -0.21670214802E+02  0.22340395538E+02  0.10566000000E+00 0.  1.
         14    1    4    4    0    0  0.15485424186E+01 -0.10250232355E+02 -0.43186462856E+02  0.44413239253E+02  0.00000000000E+00 0. -1.
<mgrwt>
<rscale>  0 0.79324953E+02</rscale>
<asrwt>0</asrwt>
<pdfrwt beam="1">  1        2 0.45649489E-01 0.79324953E+02</pdfrwt>
<pdfrwt beam="2">  1       -1 0.81563720E-03 0.79324953E+02</pdfrwt>
<totfact> 0.25963566E+05</totfact>
</mgrwt>
</event>
<event>
 8    1  0.1226832E-020  0.7998038E+02  0.7818608E-02  0.1329107E+00
          2   -1    0    0  501    0  0.00000000000E+00  0.00000000000E+00  0.10332789395E+03  0.10332789399E+03  0.25500000000E-02 0. -1.
         -1   -1    0    0    0  501 -0.00000000000E+00 -0.00000000000E+00 -0.15477090469E+02  0.15477091290E+02  0.50400000000E-02 0.  1.
         24    2    1    2    0    0 -0.35527136788E-14  0.00000000000E+00  0.87850803485E+02  0.11880498528E+03  0.79980377927E+02 0.  0.
         66    2    3    3    0    0 -0.18382209818E+02 -0.47962507846E+01  0.96181977247E+02  0.98060605804E+02  0.20000010067E+01 0.  0.
        -13    1    3    3    0    0  0.18382209818E+02  0.47962507846E+01 -0.83311737625E+01  0.20744379472E+02  0.10566000000E+00 0.  1.
         13    1    4    4    0    0 -0.25275595993E+01 -0.87003961866E+00  0.15595971376E+02  0.15823748408E+02  0.10566000000E+00 0. -1.
        -13    1    4    4    0    0 -0.13947966593E+01  0.17662803366E-01  0.61909664126E+01  0.63470464669E+01  0.10566000000E+00 0.  1.
         14    1    4    4    0    0 -0.14459853559E+02 -0.39438739693E+01  0.74395039458E+02  0.75889810929E+02  0.00000000000E+00 0. -1.
<mgrwt>
<rscale>  0 0.79980378E+02</rscale>
<asrwt>0</asrwt>
<pdfrwt beam="1">  1        2 0.15896599E-01 0.79980378E+02</pdfrwt>
<pdfrwt beam="2">  1       -1 0.23810909E-02 0.79980378E+02</pdfrwt>
<totfact> 0.17901775E+05</totfact>
</mgrwt>
</event>
<event>
 8    1  0.1226832E-020  0.7860733E+02  0.7818608E-02  0.1333051E+00
          2   -1    0    0  501    0  0.00000000000E+00  0.00000000000E+00  0.41376499075E+02  0.41376499153E+02  0.25500000000E-02 0. -1.
         -1   -1    0    0    0  501 -0.00000000000E+00 -0.00000000000E+00 -0.37334668768E+02  0.37334669108E+02  0.50400000000E-02 0.  1.
         24    2    1    2    0    0  0.00000000000E+00  0.00000000000E+00  0.40418303070E+01  0.78711168261E+02  0.78607325465E+02 0.  0.
         66    2    3    3    0    0  0.15734578560E+02  0.29862377380E+02  0.22134429632E+02  0.40413755037E+02  0.20000189561E+01 0.  0.
        -13    1    3    3    0    0 -0.15734578560E+02 -0.29862377380E+02 -0.18092599325E+02  0.38297413224E+02  0.10566000000E+00 0.  1.
         13    1    4    4    0    0  0.69115565590E+01  0.13367707019E+02  0.11031022827E+02  0.18659041607E+02  0.10566000000E+00 0. -1.
        -13    1    4    4    0    0  0.61115895787E+01  0.11633744410E+02  0.77959405989E+01  0.15280163286E+02  0.10566000000E+00 0.  1.
         14    1    4    4    0    0  0.27114324227E+01  0.48609259498E+01  0.33074662061E+01  0.64745501447E+01  0.00000000000E+00 0. -1.
<mgrwt>
<rscale>  0 0.78607325E+02</rscale>
<asrwt>0</asrwt>
<pdfrwt beam="1">  1        2 0.63656153E-02 0.78607325E+02</pdfrwt>
<pdfrwt beam="2">  1       -1 0.57437952E-02 0.78607325E+02</pdfrwt>
<totfact> 0.15067092E+05</totfact>
</mgrwt>
</event>
<event>
 8    1  0.1226832E-020  0.7938722E+02  0.7818608E-02  0.1330799E+00
          2   -1    0    0  501    0  0.00000000000E+00  0.00000000000E+00  0.18911044287E+02  0.18911044459E+02  0.25500000000E-02 0. -1.
         -1   -1    0    0    0  501 -0.00000000000E+00 -0.00000000000E+00 -0.83315470655E+02  0.83315470808E+02  0.50400000000E-02 0.  1.
         24    2    1    2    0    0  0.00000000000E+00  0.00000000000E+00 -0.64404426368E+02  0.10222651527E+03  0.79387217408E+02 0.  0.
         66    2    3    3    0    0 -0.52350051439E+01  0.38864738057E+02 -0.24528203620E+02  0.46298012267E+02  0.20000059872E+01 0.  0.
        -13    1    3    3    0    0  0.52350051439E+01 -0.38864738057E+02 -0.39876222748E+02  0.55928503000E+02  0.10566000000E+00 0.  1.
         13    1    4    4    0    0 -0.25219875480E+01  0.15342882638E+02 -0.96259705681E+01  0.18287562502E+02  0.10566000000E+00 0. -1.
        -13    1    4    4    0    0 -0.11941499452E+01  0.56420415717E+01 -0.33783792041E+01  0.66845521369E+01  0.10566000000E+00 0.  1.
         14    1    4    4    0    0 -0.15188676507E+01  0.17879813848E+02 -0.11523853848E+02  0.21325897629E+02  0.00000000000E+00 0. -1.
<mgrwt>
<rscale>  0 0.79387217E+02</rscale>
<asrwt>0</asrwt>
<pdfrwt beam="1">  1        2 0.29093915E-02 0.79387217E+02</pdfrwt>
<pdfrwt beam="2">  1       -1 0.12817765E-01 0.79387217E+02</pdfrwt>
<totfact> 0.12550108E+05</totfact>
</mgrwt>
</event>
<event>
 8    1  0.1226832E-020  0.7691734E+02  0.7818608E-02  0.1338034E+00
          2   -1    0    0  501    0  0.00000000000E+00  0.00000000000E+00  0.11794372109E+04  0.11794372109E+04  0.25500000000E-02 0. -1.
         -1   -1    0    0    0  501 -0.00000000000E+00 -0.00000000000E+00 -0.12540415406E+01  0.12540516684E+01  0.50400000000E-02 0.  1.
         24    2    1    2    0    0  0.35527136788E-14  0.00000000000E+00  0.11781831694E+04  0.11806912626E+04  0.76917338424E+02 0.  0.
         66    2    3    3    0    0 -0.23877903202E+02  0.94196744542E+01  0.10285615017E+04  0.10288836899E+04  0.20000000107E+01 0.  0.
        -13    1    3    3    0    0  0.23877903202E+02 -0.94196744542E+01  0.14962166764E+03  0.15180757267E+03  0.10566000000E+00 0.  1.
         13    1    4    4    0    0 -0.18085009377E+02  0.67945487642E+01  0.74860419928E+03  0.74885345148E+03  0.10566000000E+00 0. -1.
        -13    1    4    4    0    0 -0.27665946246E+00  0.40541953020E-01  0.12580134163E+02  0.12583684822E+02  0.10566000000E+00 0.  1.
         14    1    4    4    0    0 -0.55162343628E+01  0.25845837370E+01  0.26737716830E+03  0.26744655362E+03  0.00000000000E+00 0. -1.
<mgrwt>
<rscale>  0 0.76917338E+02</rscale>
<asrwt>0</asrwt>
<pdfrwt beam="1">  1        2 0.18145177E+00 0.76917338E+02</pdfrwt>
<pdfrwt beam="2">  1       -1 0.19293037E-03 0.76917338E+02</pdfrwt>
<totfact> 0.38861529E+05</totfact>
</mgrwt>
</event>
<event>
 8    1  0.1226832E-020  0.8016324E+02  0.7818608E-02  0.1328589E+00
          2   -1    0    0  501    0  0.00000000000E+00  0.00000000000E+00  0.45949102183E+03  0.45949102184E+03  0.25500000000E-02 0. -1.
         -1   -1    0    0    0  501 -0.00000000000E+00 -0.00000000000E+00 -0.34963366967E+01  0.34963403293E+01  0.50400000000E-02 0.  1.
         24    2    1    2    0    0  0.00000000000E+00  0.00000000000E+00  0.45599468514E+03  0.46298736217E+03  0.80163237560E+02 0.  0.
         66    2    3    3    0    0 -0.20638360667E+01 -0.28483734751E+02  0.39036404080E+03  0.39141240003E+03  0.19999965120E+01 0.  0.
        -13    1    3    3    0    0  0.20638360667E+01  0.28483734751E+02  0.65630644341E+02  0.71574962140E+02  0.10566000000E+00 0.  1.
         13    1    4    4    0    0 -0.21907639156E+01 -0.20217086860E+02  0.27872850702E+03  0.27946935760E+03  0.10566000000E+00 0. -1.
        -13    1    4    4    0    0  0.23582066189E+00 -0.22860476748E+01  0.28665813748E+02  0.28757984408E+02  0.10566000000E+00 0. -1.
         14    1    4    4    0    0 -0.10889281301E+00 -0.59806002166E+01  0.82969720032E+02  0.83185058026E+02  0.00000000000E+00 0. -1.
<mgrwt>
<rscale>  0 0.80163238E+02</rscale>
<asrwt>0</asrwt>
<pdfrwt beam="1">  1        2 0.70690924E-01 0.80163238E+02</pdfrwt>
<pdfrwt beam="2">  1       -1 0.53789826E-03 0.80163238E+02</pdfrwt>
<totfact> 0.29467277E+05</totfact>
</mgrwt>
</event>
<event>
 8    1  0.1226832E-020  0.7766380E+02  0.7818608E-02  0.1335815E+00
         -1   -1    0    0    0  501 -0.00000000000E+00  0.00000000000E+00  0.16475774209E+02  0.16475774980E+02  0.50400000000E-02 0.  1.
          2   -1    0    0  501    0  0.00000000000E+00 -0.00000000000E+00 -0.91523245829E+02  0.91523245865E+02  0.25500000000E-02 0. -1.
         24    2    1    2    0    0 -0.71054273576E-14  0.88817841970E-15 -0.75047471620E+02  0.10799902084E+03  0.77663797916E+02 0.  0.
         66    2    3    3    0    0 -0.34063951327E+02  0.68366596511E+01 -0.61586926767E+02  0.70739255320E+02  0.19999998526E+01 0.  0.
        -13    1    3    3    0    0  0.34063951327E+02 -0.68366596511E+01 -0.13460544853E+02  0.37259765525E+02  0.10566000000E+00 0.  1.
         13    1    4    4    0    0 -0.41178122052E+01  0.28401839952E+00 -0.70642902268E+01  0.81824448823E+01  0.10566000000E+00 0.  1.
        -13    1    4    4    0    0 -0.15754902466E+02  0.29661682354E+01 -0.28352970296E+02  0.32571723847E+02  0.10566000000E+00 0. -1.
        -14    1    4    4    0    0 -0.14191236656E+02  0.35864730161E+01 -0.26169666245E+02  0.29985086591E+02  0.00000000000E+00 0.  1.
<mgrwt>
<rscale>  0 0.77663798E+02</rscale>
<asrwt>0</asrwt>
<pdfrwt beam="1">  1        2 0.14080499E-01 0.77663798E+02</pdfrwt>
<pdfrwt beam="2">  1       -1 0.25347346E-02 0.77663798E+02</pdfrwt>
<totfact> 0.18729131E+05</totfact>
</mgrwt>
</event>
<event>
 8    1  0.1226832E-020  0.8111514E+02  0.7818608E-02  0.1325916E+00
         -1   -1    0    0    0  501 -0.00000000000E+00  0.00000000000E+00  0.92512137124E+01  0.92512150853E+01  0.50400000000E-02 0.  1.
          2   -1    0    0  501    0  0.00000000000E+00 -0.00000000000E+00 -0.17780547577E+03  0.17780547578E+03  0.25500000000E-02 0. -1.
         24    2    1    2    0    0  0.00000000000E+00  0.17763568394E-14 -0.16855426205E+03  0.18705669087E+03  0.81115142499E+02 0.  0.
         66    2    3    3    0    0  0.38121774390E+02 -0.10100358689E+02 -0.62741608661E+02  0.74133638704E+02  0.20000004633E+01 0.  0.
        -13    1    3    3    0    0 -0.38121774390E+02  0.10100358689E+02 -0.10581265339E+03  0.11292305217E+03  0.10566000000E+00 0.  1.
         13    1    4    4    0    0  0.19498902405E+02 -0.51736231286E+01 -0.30758494984E+02  0.36784096414E+02  0.10566000000E+00 0. -1.
        -13    1    4    4    0    0  0.47241227502E+01 -0.87867196811E+00 -0.83975480645E+01  0.96757107086E+01  0.10566000000E+00 0.  1.
        -14    1    4    4    0    0  0.13898749235E+02 -0.40480635920E+01 -0.23585565612E+02  0.27673831582E+02  0.00000000000E+00 0.  1.
<mgrwt>
<rscale>  0 0.81115142E+02</rscale>
<asrwt>0</asrwt>
<pdfrwt beam="1">  1        2 0.27354686E-01 0.81115142E+02</pdfrwt>
<pdfrwt beam="2">  1       -1 0.14232639E-02 0.81115142E+02</pdfrwt>
<totfact> 0.20424014E+05</totfact>
</mgrwt>
</event>
<event>
 8    1  0.1226832E-020  0.7931352E+02  0.7818608E-02  0.1331011E+00
         -1   -1    0    0    0  501 -0.00000000000E+00  0.00000000000E+00  0.30204246414E+02  0.30204246835E+02  0.50400000000E-02 0.  1.
          2   -1    0    0  501    0  0.00000000000E+00 -0.00000000000E+00 -0.52067460399E+02  0.52067460461E+02  0.25500000000E-02 0. -1.
         24    2    1    2    0    0 -0.17763568394E-14  0.71054273576E-14 -0.21863213984E+02  0.82271707296E+02  0.79313515214E+02 0.  0.
         66    2    3    3    0    0  0.10646020508E+02  0.37937826704E+02 -0.65331339021E+01  0.39991227556E+02  0.19999988027E+01 0.  0.
        -13    1    3    3    0    0 -0.10646020508E+02 -0.37937826704E+02 -0.15330080082E+02  0.42280479740E+02  0.10566000000E+00 0.  1.
         13    1    4    4    0    0  0.10457509278E+01  0.39044049903E+01 -0.10595031279E+01  0.41799143825E+01  0.10566000000E+00 0.  1.
        -13    1    4    4    0    0  0.54066226337E+01  0.16924019252E+02 -0.23748632589E+01  0.17924986345E+02  0.10566000000E+00 0. -1.
         14    1    4    4    0    0  0.41936469463E+01  0.17109402461E+02 -0.30987675153E+01  0.17886326828E+02  0.00000000000E+00 0. -1.
<mgrwt>
<rscale>  0 0.79313515E+02</rscale>
<asrwt>0</asrwt>
<pdfrwt beam="1">  1        2 0.80103786E-02 0.79313515E+02</pdfrwt>
<pdfrwt beam="2">  1       -1 0.46468072E-02 0.79313515E+02</pdfrwt>
<totfact> 0.15435556E+05</totfact>
</mgrwt>
</event>
<event>
 8    1  0.1226832E-020  0.7950607E+02  0.7818608E-02  0.1330459E+00
         -1   -1    0    0    0  501 -0.00000000000E+00  0.00000000000E+00  0.26870821162E+01  0.26870868428E+01  0.50400000000E-02 0.  1.
          2   -1    0    0  501    0  0.00000000000E+00 -0.00000000000E+00 -0.58811096822E+03  0.58811096823E+03  0.25500000000E-02 0. -1.
         24    2    1    2    0    0  0.35527136788E-14 -0.17763568394E-14 -0.58542388610E+03  0.59079805507E+03  0.79506071791E+02 0.  0.
         66    2    3    3    0    0 -0.19744234382E+02  0.12274512206E+02 -0.53228096654E+03  0.53279219757E+03  0.20000002326E+01 0.  0.
        -13    1    3    3    0    0  0.19744234382E+02 -0.12274512206E+02 -0.53142919561E+02  0.58005857504E+02  0.10566000000E+00 0.  1.
         13    1    4    4    0    0 -0.83861354478E+01  0.61838132140E+01 -0.22948772952E+03  0.22972417370E+03  0.10566000000E+00 0. -1.
        -13    1    4    4    0    0 -0.99606350478E+01  0.51261316385E+01 -0.26110266284E+03  0.26134288432E+03  0.10566000000E+00 0.  1.
        -14    1    4    4    0    0 -0.13974638864E+01  0.96456735299E+00 -0.41690574176E+02  0.41725139552E+02  0.00000000000E+00 0.  1.
<mgrwt>
<rscale>  0 0.79506072E+02</rscale>
<asrwt>0</asrwt>
<pdfrwt beam="1">  1        2 0.90478508E-01 0.79506072E+02</pdfrwt>
<pdfrwt beam="2">  1       -1 0.41339808E-03 0.79506072E+02</pdfrwt>
<totfact> 0.32502646E+05</totfact>
</mgrwt>
</event>
<event>
 8    1  0.1226832E-020  0.7999953E+02  0.7818608E-02  0.1329053E+00
         -1   -1    0    0    0  501 -0.00000000000E+00  0.00000000000E+00  0.76382345470E+02  0.76382345637E+02  0.50400000000E-02 0.  1.
          2   -1    0    0  501    0  0.00000000000E+00 -0.00000000000E+00 -0.20947002190E+02  0.20947002346E+02  0.25500000000E-02 0. -1.
         24    2    1    2    0    0  0.00000000000E+00  0.35527136788E-14  0.55435343280E+02  0.97329347982E+02  0.79999529337E+02 0.  0.
         66    2    3    3    0    0  0.25735746385E+02  0.28662555187E+02  0.14738947456E+02  0.41292944556E+02  0.19999965361E+01 0.  0.
        -13    1    3    3    0    0 -0.25735746385E+02 -0.28662555187E+02  0.40696395824E+02  0.56036403426E+02  0.10566000000E+00 0.  1.
         13    1    4    4    0    0  0.12370610858E+02  0.12789394241E+02  0.69053986602E+01  0.19086547953E+02  0.10566000000E+00 0. -1.
        -13    1    4    4    0    0  0.89104568044E+01  0.10567345361E+02  0.57572535006E+01  0.14974049564E+02  0.10566000000E+00 0.  1.
        -14    1    4    4    0    0  0.44546787218E+01  0.53058155850E+01  0.20762952951E+01  0.72323470387E+01  0.00000000000E+00 0.  1.
<mgrwt>
<rscale>  0 0.79999529E+02</rscale>
<asrwt>0</asrwt>
<pdfrwt beam="1">  1        2 0.32226158E-02 0.79999529E+02</pdfrwt>
<pdfrwt beam="2">  1       -1 0.11751130E-01 0.79999529E+02</pdfrwt>
<totfact> 0.12532231E+05</totfact>
</mgrwt>
</event>
<event>
 8    1  0.1226832E-020  0.7917432E+02  0.7818608E-02  0.1331411E+00
          2   -1    0    0  501    0  0.00000000000E+00  0.00000000000E+00  0.15628813089E+02  0.15628813297E+02  0.25500000000E-02 0. -1.
         -1   -1    0    0    0  501 -0.00000000000E+00 -0.00000000000E+00 -0.10027270452E+03  0.10027270465E+03  0.50400000000E-02 0.  1.
         24    2    1    2    0    0  0.00000000000E+00  0.00000000000E+00 -0.84643891435E+02  0.11590151795E+03  0.79174323523E+02 0.  0.
         66    2    3    3    0    0  0.34511765411E+02  0.41338236227E+01 -0.14690189309E+02  0.37788253679E+02  0.20000011564E+01 0.  0.
        -13    1    3    3    0    0 -0.34511765411E+02 -0.41338236227E+01 -0.69953702126E+02  0.78113264269E+02  0.10566000000E+00 0.  1.
         13    1    4    4    0    0  0.22248671834E+02  0.30594186618E+01 -0.10021092361E+02  0.24592618752E+02  0.10566000000E+00 0. -1.
        -13    1    4    4    0    0  0.11932183408E+02  0.11662921161E+01 -0.44523150038E+01  0.12789507853E+02  0.10566000000E+00 0.  1.
         14    1    4    4    0    0  0.33091016899E+00 -0.91887155229E-01 -0.21678194409E+00  0.40612707435E+00  0.00000000000E+00 0. -1.
<mgrwt>
<rscale>  0 0.79174324E+02</rscale>
<asrwt>0</asrwt>
<pdfrwt beam="1">  1        2 0.24044329E-02 0.79174324E+02</pdfrwt>
<pdfrwt beam="2">  1       -1 0.15426570E-01 0.79174324E+02</pdfrwt>
<totfact> 0.12156452E+05</totfact>
</mgrwt>
</event>
<event>
 8    1  0.1226832E-020  0.8123408E+02  0.7818608E-02  0.1325585E+00
         -1   -1    0    0    0  501 -0.00000000000E+00  0.00000000000E+00  0.13676358124E+02  0.13676359053E+02  0.50400000000E-02 0.  1.
          2   -1    0    0  501    0  0.00000000000E+00 -0.00000000000E+00 -0.12062743996E+03  0.12062743998E+03  0.25500000000E-02 0. -1.
         24    2    1    2    0    0 -0.35527136788E-14 -0.35527136788E-14 -0.10695108183E+03  0.13430379904E+03  0.81234084783E+02 0.  0.
         66    2    3    3    0    0 -0.16923672538E+02  0.17853424654E+02 -0.10689117127E+03  0.10970359137E+03  0.19999997262E+01 0.  0.
        -13    1    3    3    0    0  0.16923672538E+02 -0.17853424654E+02 -0.59910559835E-01  0.24600207669E+02  0.10566000000E+00 0.  1.
         13    1    4    4    0    0 -0.98003123458E+00  0.15048936119E+01 -0.92207637869E+01  0.93946162696E+01  0.10566000000E+00 0. -1.
        -13    1    4    4    0    0 -0.21740594915E+01  0.26601762932E+01 -0.15250880257E+02  0.15633412463E+02  0.10566000000E+00 0.  1.
         14    1    4    4    0    0 -0.13769581812E+02  0.13688354749E+02 -0.82419527230E+02  0.84675562636E+02  0.00000000000E+00 0. -1.
<mgrwt>
<rscale>  0 0.81234085E+02</rscale>
<asrwt>0</asrwt>
<pdfrwt beam="1">  1        2 0.18558067E-01 0.81234085E+02</pdfrwt>
<pdfrwt beam="2">  1       -1 0.21040553E-02 0.81234085E+02</pdfrwt>
<totfact> 0.17966512E+05</totfact>
</mgrwt>
</event>
<event>
 8    1  0.1226832E-020  0.8225584E+02  0.7818608E-02  0.1322769E+00
          2   -1    0    0  501    0  0.00000000000E+00  0.00000000000E+00  0.44149420045E+03  0.44149420046E+03  0.25500000000E-02 0. -1.
         -1   -1    0    0    0  501 -0.00000000000E+00 -0.00000000000E+00 -0.38313184442E+01  0.38313217592E+01  0.50400000000E-02 0.  1.
         24    2    1    2    0    0  0.00000000000E+00  0.00000000000E+00  0.43766288201E+03  0.44532552222E+03  0.82255835366E+02 0.  0.
         66    2    3    3    0    0  0.82426979930E+01 -0.26840373149E+02  0.38148168625E+03  0.38251878992E+03  0.19999995771E+01 0.  0.
        -13    1    3    3    0    0 -0.82426979930E+01  0.26840373149E+02  0.56181195760E+02  0.62806732298E+02  0.10566000000E+00 0.  1.
         13    1    4    4    0    0  0.44360266742E+01 -0.13266077463E+02  0.18511250018E+03  0.18564028666E+03  0.10566000000E+00 0. -1.
        -13    1    4    4    0    0  0.19219346697E+01 -0.47907266639E+01  0.68963610088E+02  0.69156601820E+02  0.10566000000E+00 0.  1.
         14    1    4    4    0    0  0.18847366490E+01 -0.87835690219E+01  0.12740557598E+03  0.12772190144E+03  0.00000000000E+00 0. -1.
<mgrwt>
<rscale>  0 0.82255835E+02</rscale>
<asrwt>0</asrwt>
<pdfrwt beam="1">  1        2 0.67922159E-01 0.82255835E+02</pdfrwt>
<pdfrwt beam="2">  1       -1 0.58943409E-03 0.82255835E+02</pdfrwt>
<totfact> 0.27181395E+05</totfact>
</mgrwt>
</event>
<event>
 8    1  0.1226832E-020  0.7782619E+02  0.7818608E-02  0.1335336E+00
          2   -1    0    0  501    0  0.00000000000E+00  0.00000000000E+00  0.29151405221E+03  0.29151405222E+03  0.25500000000E-02 0. -1.
         -1   -1    0    0    0  501 -0.00000000000E+00 -0.00000000000E+00 -0.51943589804E+01  0.51943614255E+01  0.50400000000E-02 0.  1.
         24    2    1    2    0    0  0.00000000000E+00 -0.17763568394E-14  0.28631969323E+03  0.29670841364E+03  0.77826190949E+02 0.  0.
         66    2    3    3    0    0 -0.33848788089E+02 -0.88339538593E+01  0.20800348926E+03  0.21093418579E+03  0.19999988427E+01 0.  0.
        -13    1    3    3    0    0  0.33848788089E+02  0.88339538593E+01  0.78316203966E+02  0.85774227851E+02  0.10566000000E+00 0.  1.
         13    1    4    4    0    0 -0.18203168560E+02 -0.45540140180E+01  0.11028963889E+03  0.11187452793E+03  0.10566000000E+00 0. -1.
        -13    1    4    4    0    0 -0.24874151937E+01 -0.99147667971E+00  0.18499414150E+02  0.18692505137E+02  0.10566000000E+00 0.  1.
        -14    1    4    4    0    0 -0.13158204335E+02 -0.32884631616E+01  0.79214436220E+02  0.80367152724E+02  0.00000000000E+00 0.  1.
<mgrwt>
<rscale>  0 0.77826191E+02</rscale>
<asrwt>0</asrwt>
<pdfrwt beam="1">  1        2 0.44848319E-01 0.77826191E+02</pdfrwt>
<pdfrwt beam="2">  1       -1 0.79913228E-03 0.77826191E+02</pdfrwt>
<totfact> 0.27118763E+05</totfact>
</mgrwt>
</event>
<event>
 8    1  0.1226832E-020  0.8043789E+02  0.7818608E-02  0.1327813E+00
         -1   -1    0    0    0  501 -0.00000000000E+00  0.00000000000E+00  0.21593229722E+02  0.21593230310E+02  0.50400000000E-02 0.  1.
          2   -1    0    0  501    0  0.00000000000E+00 -0.00000000000E+00 -0.74910670492E+02  0.74910670535E+02  0.25500000000E-02 0. -1.
         24    2    1    2    0    0  0.00000000000E+00  0.00000000000E+00 -0.53317440770E+02  0.96503900845E+02  0.80437885279E+02 0.  0.
         66    2    3    3    0    0  0.25545928728E+02 -0.86772295223E+01 -0.62419710197E+02  0.68030206679E+02  0.20000032288E+01 0.  0.
        -13    1    3    3    0    0 -0.25545928728E+02  0.86772295223E+01  0.91022694270E+01  0.28473694167E+02  0.10566000000E+00 0.  1.
         13    1    4    4    0    0  0.56839734792E+01 -0.16123494070E+01 -0.14173849816E+02  0.15356314914E+02  0.10566000000E+00 0. -1.
        -13    1    4    4    0    0  0.12799614346E+02 -0.37709513017E+01 -0.30047281878E+02  0.32877051471E+02  0.10566000000E+00 0.  1.
        -14    1    4    4    0    0  0.70623409022E+01 -0.32939288135E+01 -0.18198578503E+02  0.19796840293E+02  0.00000000000E+00 0.  1.
<mgrwt>
<rscale>  0 0.80437885E+02</rscale>
<asrwt>0</asrwt>
<pdfrwt beam="1">  1        2 0.11524718E-01 0.80437885E+02</pdfrwt>
<pdfrwt beam="2">  1       -1 0.33220354E-02 0.80437885E+02</pdfrwt>
<totfact> 0.16179157E+05</totfact>
</mgrwt>
</event>
<event>
 8    1  0.1226832E-020  0.8108731E+02  0.7818608E-02  0.1325994E+00
          2   -1    0    0  501    0  0.00000000000E+00  0.00000000000E+00  0.12933966966E+03  0.12933966969E+03  0.25500000000E-02 0. -1.
         -1   -1    0    0    0  501 -0.00000000000E+00 -0.00000000000E+00 -0.12709076377E+02  0.12709077377E+02  0.50400000000E-02 0.  1.
         24    2    1    2    0    0  0.00000000000E+00  0.00000000000E+00  0.11663059329E+03  0.14204874707E+03  0.81087306359E+02 0.  0.
         66    2    3    3    0    0  0.10511397442E+02  0.37637703853E+02  0.77111839829E+02  0.86471510121E+02  0.19999983258E+01 0.  0.
        -13    1    3    3    0    0 -0.10511397442E+02 -0.37637703853E+02  0.39518753457E+02  0.55577236944E+02  0.10566000000E+00 0.  1.
         13    1    4    4    0    0  0.34763670616E+01  0.15132910781E+02  0.30053968136E+02  0.33828128553E+02  0.10566000000E+00 0. -1.
        -13    1    4    4    0    0  0.64485905233E+00  0.30136808460E+01  0.64249553328E+01  0.71266633499E+01  0.10566000000E+00 0.  1.
         14    1    4    4    0    0  0.63901713278E+01  0.19491112227E+02  0.40632916360E+02  0.45516718218E+02  0.00000000000E+00 0. -1.
<mgrwt>
<rscale>  0 0.81087306E+02</rscale>
<asrwt>0</asrwt>
<pdfrwt beam="1">  1        2 0.19898409E-01 0.81087306E+02</pdfrwt>
<pdfrwt beam="2">  1       -1 0.19552427E-02 0.81087306E+02</pdfrwt>
<totfact> 0.18441282E+05</totfact>
</mgrwt>
</event>
<event>
 8    1  0.1226832E-020  0.7901769E+02  0.7818608E-02  0.1331862E+00
          2   -1    0    0  501    0  0.00000000000E+00  0.00000000000E+00  0.46602218863E+01  0.46602225840E+01  0.25500000000E-02 0. -1.
         -1   -1    0    0    0  501 -0.00000000000E+00 -0.00000000000E+00 -0.33495159606E+03  0.33495159610E+03  0.50400000000E-02 0.  1.
         24    2    1    2    0    0  0.35527136788E-14  0.35527136788E-14 -0.33029137418E+03  0.33961181869E+03  0.79017691279E+02 0.  0.
         66    2    3    3    0    0 -0.30278393394E+02 -0.24390672272E+02 -0.19479700098E+03  0.19864933314E+03  0.19999909389E+01 0.  0.
        -13    1    3    3    0    0  0.30278393394E+02  0.24390672272E+02 -0.13549437320E+03  0.14096248555E+03  0.10566000000E+00 0.  1.
         13    1    4    4    0    0 -0.24897545299E+02 -0.20872681342E+02 -0.16102087096E+03  0.16426590832E+03  0.10566000000E+00 0. -1.
        -13    1    4    4    0    0 -0.40417268869E+01 -0.27094055310E+01 -0.25148019712E+02  0.25614653892E+02  0.10566000000E+00 0. -1.
         14    1    4    4    0    0 -0.13391212082E+01 -0.80858539972E+00 -0.86281103108E+01  0.87687709226E+01  0.00000000000E+00 0. -1.
<mgrwt>
<rscale>  0 0.79017691E+02</rscale>
<asrwt>0</asrwt>
<pdfrwt beam="1">  1        2 0.71695753E-03 0.79017691E+02</pdfrwt>
<pdfrwt beam="2">  1       -1 0.51530996E-01 0.79017691E+02</pdfrwt>
<totfact> 0.85149910E+04</totfact>
</mgrwt>
</event>
<event>
 8    1  0.1226832E-020  0.8063260E+02  0.7818608E-02  0.1327266E+00
         -1   -1    0    0    0  501 -0.00000000000E+00  0.00000000000E+00  0.18268228172E+01  0.18268297696E+01  0.50400000000E-02 0.  1.
          2   -1    0    0  501    0  0.00000000000E+00 -0.00000000000E+00 -0.88974194160E+03  0.88974194160E+03  0.25500000000E-02 0. -1.
         24    2    1    2    0    0  0.35527136788E-14 -0.11102230246E-15 -0.88791511878E+03  0.89156877137E+03  0.80632598402E+02 0.  0.
         66    2    3    3    0    0 -0.22271811732E+02  0.57479011597E+00 -0.81543415094E+03  0.81574090153E+03  0.19999820579E+01 0.  0.
        -13    1    3    3    0    0  0.22271811732E+02 -0.57479011597E+00 -0.72480967839E+02  0.75827869840E+02  0.10566000000E+00 0.  1.
         13    1    4    4    0    0 -0.10769448071E+01  0.21217346876E+00 -0.36039706521E+02  0.36056572742E+02  0.10566000000E+00 0. -1.
        -13    1    4    4    0    0 -0.20519762954E+01  0.46342064102E+00 -0.84589182193E+02  0.84615402106E+02  0.10566000000E+00 0.  1.
         14    1    4    4    0    0 -0.19142890629E+02 -0.10080399382E+00 -0.69480526223E+03  0.69506892668E+03  0.00000000000E+00 0. -1.
<mgrwt>
<rscale>  0 0.80632598E+02</rscale>
<asrwt>0</asrwt>
<pdfrwt beam="1">  1        2 0.13688303E+00 0.80632598E+02</pdfrwt>
<pdfrwt beam="2">  1       -1 0.28105091E-03 0.80632598E+02</pdfrwt>
<totfact> 0.34194325E+05</totfact>
</mgrwt>
</event>
<event>
 8    1  0.1226832E-020  0.7973153E+02  0.7818608E-02  0.1329815E+00
          2   -1    0    0  501    0  0.00000000000E+00  0.00000000000E+00  0.51592693826E+03  0.51592693826E+03  0.25500000000E-02 0. -1.
         -1   -1    0    0    0  501 -0.00000000000E+00 -0.00000000000E+00 -0.30804322598E+01  0.30804363828E+01  0.50400000000E-02 0.  1.
         24    2    1    2    0    0 -0.44408920985E-15  0.71054273576E-14  0.51284650600E+03  0.51900737464E+03  0.79731525907E+02 0.  0.
         66    2    3    3    0    0  0.37496061083E+01  0.28701250403E+02  0.43478738605E+03  0.43575439457E+03  0.19999994641E+01 0.  0.
        -13    1    3    3    0    0 -0.37496061083E+01 -0.28701250403E+02  0.78059119948E+02  0.83252980077E+02  0.10566000000E+00 0.  1.
         13    1    4    4    0    0  0.28493285839E+01  0.16303214302E+02  0.25233716769E+03  0.25287936023E+03  0.10566000000E+00 0. -1.
        -13    1    4    4    0    0 -0.16001841941E-01  0.51871262315E+01  0.76910666951E+02  0.77085461596E+02  0.10566000000E+00 0.  1.
        -14    1    4    4    0    0  0.91627936637E+00  0.72109098696E+01  0.10553955141E+03  0.10578957274E+03  0.00000000000E+00 0.  1.
<mgrwt>
<rscale>  0 0.79731526E+02</rscale>
<asrwt>0</asrwt>
<pdfrwt beam="1">  1        2 0.79373464E-01 0.79731526E+02</pdfrwt>
<pdfrwt beam="2">  1       -1 0.47391244E-03 0.79731526E+02</pdfrwt>
<totfact> 0.31024817E+05</totfact>
</mgrwt>
</event>
<event>
 8    1  0.1226832E-020  0.8075744E+02  0.7818608E-02  0.1326916E+00
         -1   -1    0    0    0  501 -0.00000000000E+00  0.00000000000E+00  0.36979066568E+01  0.36979100914E+01  0.50400000000E-02 0.  1.
          2   -1    0    0  501    0  0.00000000000E+00 -0.00000000000E+00 -0.44090893262E+03  0.44090893263E+03  0.25500000000E-02 0. -1.
         24    2    1    2    0    0  0.35527136788E-14  0.00000000000E+00 -0.43721102597E+03  0.44460684272E+03  0.80757435377E+02 0.  0.
         66    2    3    3    0    0 -0.24603621489E+02 -0.20896125306E+02 -0.35206341451E+03  0.35354580196E+03  0.20000016865E+01 0.  0.
        -13    1    3    3    0    0  0.24603621489E+02  0.20896125306E+02 -0.85147611457E+02  0.91061040759E+02  0.10566000000E+00 0.  1.
         13    1    4    4    0    0 -0.11229713150E+02 -0.99768186015E+01 -0.16840132588E+03  0.16906998873E+03  0.10566000000E+00 0. -1.
        -13    1    4    4    0    0 -0.66136032207E+01 -0.50333921279E+01 -0.82732461178E+02  0.83148939142E+02  0.10566000000E+00 0.  1.
        -14    1    4    4    0    0 -0.67603051181E+01 -0.58859145761E+01 -0.10092962745E+03  0.10132687409E+03  0.00000000000E+00 0.  1.
<mgrwt>
<rscale>  0 0.80757435E+02</rscale>
<asrwt>0</asrwt>
<pdfrwt beam="1">  1        2 0.67832102E-01 0.80757435E+02</pdfrwt>
<pdfrwt beam="2">  1       -1 0.56890933E-03 0.80757435E+02</pdfrwt>
<totfact> 0.28506820E+05</totfact>
</mgrwt>
</event>
<event>
 8    1  0.1226832E-020  0.7992412E+02  0.7818608E-02  0.1329267E+00
          2   -1    0    0  501    0  0.00000000000E+00  0.00000000000E+00  0.64175485751E+03  0.64175485752E+03  0.25500000000E-02 0. -1.
         -1   -1    0    0    0  501 -0.00000000000E+00 -0.00000000000E+00 -0.24884338536E+01  0.24884389575E+01  0.50400000000E-02 0.  1.
         24    2    1    2    0    0 -0.35527136788E-14  0.35527136788E-14  0.63926642366E+03  0.64424329648E+03  0.79924117984E+02 0.  0.
         66    2    3    3    0    0  0.24025049191E+02  0.30026277632E+02  0.40671671384E+03  0.40853551333E+03  0.19999982664E+01 0.  0.
        -13    1    3    3    0    0 -0.24025049191E+02 -0.30026277632E+02  0.23254970982E+03  0.23570778315E+03  0.10566000000E+00 0.  1.
         13    1    4    4    0    0  0.59336739145E+01  0.70665521060E+01  0.93718062952E+02  0.94171286135E+02  0.10566000000E+00 0. -1.
        -13    1    4    4    0    0  0.42751242191E+01  0.64167732287E+01  0.79986224737E+02  0.80357071733E+02  0.10566000000E+00 0.  1.
         14    1    4    4    0    0  0.13816251058E+02  0.16542952297E+02  0.23301242615E+03  0.23400715546E+03  0.00000000000E+00 0. -1.
<mgrwt>
<rscale>  0 0.79924118E+02</rscale>
<asrwt>0</asrwt>
<pdfrwt beam="1">  1        2 0.98731534E-01 0.79924118E+02</pdfrwt>
<pdfrwt beam="2">  1       -1 0.38283630E-03 0.79924118E+02</pdfrwt>
<totfact> 0.32830896E+05</totfact>
</mgrwt>
</event>
<event>
 8    1  0.1226832E-020  0.8120552E+02  0.7818608E-02  0.1325665E+00
          2   -1    0    0  501    0  0.00000000000E+00  0.00000000000E+00  0.55599213973E+03  0.55599213974E+03  0.25500000000E-02 0. -1.
         -1   -1    0    0    0  501 -0.00000000000E+00 -0.00000000000E+00 -0.29651188138E+01  0.29651230972E+01  0.50400000000E-02 0.  1.
         24    2    1    2    0    0  0.00000000000E+00 -0.88817841970E-15  0.55302702092E+03  0.55895726284E+03  0.81205515887E+02 0.  0.
         66    2    3    3    0    0 -0.14315388745E+02  0.74210574429E+01  0.53299044227E+03  0.53323804635E+03  0.20000198289E+01 0.  0.
        -13    1    3    3    0    0  0.14315388745E+02 -0.74210574429E+01  0.20036578652E+02  0.25719216485E+02  0.10566000000E+00 0.  1.
         13    1    4    4    0    0 -0.69711795566E+01  0.40338133181E+01  0.28454833638E+03  0.28466231906E+03  0.10566000000E+00 0. -1.
        -13    1    4    4    0    0 -0.27013720192E+01  0.14286480570E+01  0.10789051776E+03  0.10793383822E+03  0.10566000000E+00 0.  1.
         14    1    4    4    0    0 -0.46428371697E+01  0.19585960678E+01  0.14055158813E+03  0.14064188907E+03  0.00000000000E+00 0. -1.
<mgrwt>
<rscale>  0 0.81205516E+02</rscale>
<asrwt>0</asrwt>
<pdfrwt beam="1">  1        2 0.85537224E-01 0.81205516E+02</pdfrwt>
<pdfrwt beam="2">  1       -1 0.45617261E-03 0.81205516E+02</pdfrwt>
<totfact> 0.30262225E+05</totfact>
</mgrwt>
</event>
<event>
 8    1  0.1226832E-020  0.8355846E+02  0.7818608E-02  0.1319246E+00
          2   -1    0    0  501    0  0.00000000000E+00  0.00000000000E+00  0.24640711711E+03  0.24640711713E+03  0.25500000000E-02 0. -1.
         -1   -1    0    0    0  501 -0.00000000000E+00 -0.00000000000E+00 -0.70838213572E+01  0.70838231501E+01  0.50400000000E-02 0.  1.
         24    2    1    2    0    0  0.00000000000E+00  0.00000000000E+00  0.23932329576E+03  0.25349094028E+03  0.83558464028E+02 0.  0.
         66    2    3    3    0    0 -0.40909035375E+02 -0.20010249688E+01  0.95094247875E+02  0.10355901341E+03  0.20000009936E+01 0.  0.
        -13    1    3    3    0    0  0.40909035375E+02  0.20010249688E+01  0.14422904788E+03  0.14993192686E+03  0.10566000000E+00 0.  1.
         13    1    4    4    0    0 -0.25053466164E+02 -0.13384309511E+01  0.60153498164E+02  0.65176085105E+02  0.10566000000E+00 0. -1.
        -13    1    4    4    0    0 -0.14954465917E+01  0.94948042285E-01  0.30420163597E+01  0.33926985141E+01  0.10566000000E+00 0.  1.
        -14    1    4    4    0    0 -0.14360122619E+02 -0.75754205999E+00  0.31898733352E+02  0.34990229794E+02  0.00000000000E+00 0.  1.
<mgrwt>
<rscale>  0 0.83558464E+02</rscale>
<asrwt>0</asrwt>
<pdfrwt beam="1">  1        2 0.37908784E-01 0.83558464E+02</pdfrwt>
<pdfrwt beam="2">  1       -1 0.10898189E-02 0.83558464E+02</pdfrwt>
<totfact> 0.21172031E+05</totfact>
</mgrwt>
</event>
<event>
 8    1  0.1226832E-020  0.7967869E+02  0.7818608E-02  0.1329966E+00
          2   -1    0    0  501    0  0.00000000000E+00  0.00000000000E+00  0.17619595722E+03  0.17619595723E+03  0.25500000000E-02 0. -1.
         -1   -1    0    0    0  501 -0.00000000000E+00 -0.00000000000E+00 -0.90080014993E+01  0.90080029092E+01  0.50400000000E-02 0.  1.
         24    2    1    2    0    0  0.71054273576E-14  0.00000000000E+00  0.16718795572E+03  0.18520396014E+03  0.79678694242E+02 0.  0.
         66    2    3    3    0    0  0.39713871112E+02 -0.20791518679E+01  0.88089779235E+02  0.96671214123E+02  0.20000007880E+01 0.  0.
        -13    1    3    3    0    0 -0.39713871112E+02  0.20791518679E+01  0.79098176482E+02  0.88532746021E+02  0.10566000000E+00 0.  1.
         13    1    4    4    0    0  0.25456783262E+02 -0.15260278620E+01  0.58411982165E+02  0.63736546812E+02  0.10566000000E+00 0. -1.
        -13    1    4    4    0    0  0.17582946064E+01 -0.11170649834E+00  0.33095154052E+01  0.37507511938E+01  0.10566000000E+00 0.  1.
         14    1    4    4    0    0  0.12498793244E+02 -0.44141750761E+00  0.26368281665E+02  0.29183916118E+02  0.00000000000E+00 0. -1.
<mgrwt>
<rscale>  0 0.79678694E+02</rscale>
<asrwt>0</asrwt>
<pdfrwt beam="1">  1        2 0.27107070E-01 0.79678694E+02</pdfrwt>
<pdfrwt beam="2">  1       -1 0.13858465E-02 0.79678694E+02</pdfrwt>
<totfact> 0.21347132E+05</totfact>
</mgrwt>
</event>
<event>
 8    1  0.1226832E-020  0.7507685E+02  0.7818608E-02  0.1343633E+00
         -1   -1    0    0    0  501 -0.00000000000E+00  0.00000000000E+00  0.97828058097E+02  0.97828058227E+02  0.50400000000E-02 0.  1.
          2   -1    0    0  501    0  0.00000000000E+00 -0.00000000000E+00 -0.14404183308E+02  0.14404183534E+02  0.25500000000E-02 0. -1.
         24    2    1    2    0    0  0.00000000000E+00  0.00000000000E+00  0.83423874789E+02  0.11223224176E+03  0.75076848667E+02 0.  0.
         66    2    3    3    0    0  0.46423958687E+00  0.37166604049E+02  0.34184239709E+02  0.50538443030E+02  0.20000011422E+01 0.  0.
        -13    1    3    3    0    0 -0.46423958687E+00 -0.37166604049E+02  0.49239635080E+02  0.61693798730E+02  0.10566000000E+00 0.  1.
         13    1    4    4    0    0  0.37572217271E+00  0.58977698927E+01  0.54835213852E+01  0.80625695455E+01  0.10566000000E+00 0. -1.
        -13    1    4    4    0    0 -0.26820238829E+00  0.14673091557E+02  0.14499107955E+02  0.20630241004E+02  0.10566000000E+00 0.  1.
         14    1    4    4    0    0  0.35671980245E+00  0.16595742598E+02  0.14201610369E+02  0.21845632481E+02  0.00000000000E+00 0. -1.
<mgrwt>
<rscale>  0 0.75076849E+02</rscale>
<asrwt>0</asrwt>
<pdfrwt beam="1">  1        2 0.22160282E-02 0.75076849E+02</pdfrwt>
<pdfrwt beam="2">  1       -1 0.15050470E-01 0.75076849E+02</pdfrwt>
<totfact> 0.13949296E+05</totfact>
</mgrwt>
</event>
<event>
 8    1  0.1226832E-020  0.8009210E+02  0.7818608E-02  0.1328790E+00
          2   -1    0    0  501    0  0.00000000000E+00  0.00000000000E+00  0.16046582342E+03  0.16046582344E+03  0.25500000000E-02 0. -1.
         -1   -1    0    0    0  501 -0.00000000000E+00 -0.00000000000E+00 -0.99939410079E+01  0.99939422787E+01  0.50400000000E-02 0.  1.
         24    2    1    2    0    0  0.35527136788E-14  0.35527136788E-14  0.15047188241E+03  0.17045976572E+03  0.80092099062E+02 0.  0.
         66    2    3    3    0    0  0.18037466461E+02  0.26604974358E+02  0.12602849380E+03  0.13007826911E+03  0.19999975141E+01 0.  0.
        -13    1    3    3    0    0 -0.18037466461E+02 -0.26604974358E+02  0.24443388612E+02  0.40381496602E+02  0.10566000000E+00 0.  1.
         13    1    4    4    0    0  0.70405302681E+01  0.11014734509E+02  0.51511488973E+02  0.53144502096E+02  0.10566000000E+00 0. -1.
        -13    1    4    4    0    0  0.86480105517E+01  0.11181732008E+02  0.54874599263E+02  0.56666145321E+02  0.10566000000E+00 0.  1.
         14    1    4    4    0    0  0.23489256412E+01  0.44085078410E+01  0.19642405561E+02  0.20267621698E+02  0.00000000000E+00 0. -1.
<mgrwt>
<rscale>  0 0.80092099E+02</rscale>
<asrwt>0</asrwt>
<pdfrwt beam="1">  1        2 0.24687050E-01 0.80092099E+02</pdfrwt>
<pdfrwt beam="2">  1       -1 0.15375295E-02 0.80092099E+02</pdfrwt>
<totfact> 0.20412071E+05</totfact>
</mgrwt>
</event>
<event>
 8    1  0.1226832E-020  0.7830722E+02  0.7818608E-02  0.1333925E+00
          2   -1    0    0  501    0  0.00000000000E+00  0.00000000000E+00  0.42202810794E+02  0.42202810871E+02  0.25500000000E-02 0. -1.
         -1   -1    0    0    0  501 -0.00000000000E+00 -0.00000000000E+00 -0.36324715677E+02  0.36324716026E+02  0.50400000000E-02 0.  1.
         24    2    1    2    0    0  0.00000000000E+00  0.00000000000E+00  0.58780951172E+01  0.78527526897E+02  0.78307218558E+02 0.  0.
         66    2    3    3    0    0  0.18428171140E+02 -0.22378349827E+02  0.29294394466E+02  0.41261962742E+02  0.19999974023E+01 0.  0.
        -13    1    3    3    0    0 -0.18428171140E+02  0.22378349827E+02 -0.23416299349E+02  0.37265564155E+02  0.10566000000E+00 0.  1.
         13    1    4    4    0    0  0.57977616614E+01 -0.80806031302E+01  0.10921832267E+02  0.14771857409E+02  0.10566000000E+00 0. -1.
        -13    1    4    4    0    0  0.35110141179E+01 -0.36911849405E+01  0.49145072403E+01  0.70792380841E+01  0.10566000000E+00 0.  1.
         14    1    4    4    0    0  0.91193953611E+01 -0.10606561756E+02  0.13458054959E+02  0.19410867248E+02  0.00000000000E+00 0. -1.
<mgrwt>
<rscale>  0 0.78307219E+02</rscale>
<asrwt>0</asrwt>
<pdfrwt beam="1">  1        2 0.64927401E-02 0.78307219E+02</pdfrwt>
<pdfrwt beam="2">  1       -1 0.55884178E-02 0.78307219E+02</pdfrwt>
<totfact> 0.15288387E+05</totfact>
</mgrwt>
</event>
<event>
 8    1  0.1226832E-020  0.7865572E+02  0.7818608E-02  0.1332910E+00
         -1   -1    0    0    0  501 -0.00000000000E+00  0.00000000000E+00  0.90801991816E+01  0.90802005804E+01  0.50400000000E-02 0.  1.
          2   -1    0    0  501    0  0.00000000000E+00 -0.00000000000E+00 -0.17033550526E+03  0.17033550528E+03  0.25500000000E-02 0. -1.
         24    2    1    2    0    0  0.00000000000E+00  0.00000000000E+00 -0.16125530608E+03  0.17941570586E+03  0.78655716707E+02 0.  0.
         66    2    3    3    0    0 -0.17729618772E+02 -0.21241795522E+02 -0.14434936105E+03  0.14699078643E+03  0.20000001035E+01 0.  0.
        -13    1    3    3    0    0  0.17729618772E+02  0.21241795522E+02 -0.16905945029E+02  0.32424919432E+02  0.10566000000E+00 0.  1.
         13    1    4    4    0    0 -0.53794664090E+01 -0.72282436359E+01 -0.45019423998E+02  0.45912371601E+02  0.10566000000E+00 0. -1.
        -13    1    4    4    0    0 -0.72250866137E+01 -0.76143798757E+01 -0.58267633555E+02  0.59205649575E+02  0.10566000000E+00 0.  1.
        -14    1    4    4    0    0 -0.51250657494E+01 -0.63991720105E+01 -0.41062303496E+02  0.41872765251E+02  0.00000000000E+00 0.  1.
<mgrwt>
<rscale>  0 0.78655717E+02</rscale>
<asrwt>0</asrwt>
<pdfrwt beam="1">  1        2 0.26205460E-01 0.78655717E+02</pdfrwt>
<pdfrwt beam="2">  1       -1 0.13969540E-02 0.78655717E+02</pdfrwt>
<totfact> 0.21840164E+05</totfact>
</mgrwt>
</event>
<event>
 8    1  0.1226832E-020  0.8149080E+02  0.7818608E-02  0.1324873E+00
          2   -1    0    0  501    0  0.00000000000E+00  0.00000000000E+00  0.12298937496E+04  0.12298937496E+04  0.25500000000E-02 0. -1.
         -1   -1    0    0    0  501 -0.00000000000E+00 -0.00000000000E+00 -0.13498579862E+01  0.13498673951E+01  0.50400000000E-02 0.  1.
         24    2    1    2    0    0  0.22204460493E-15  0.00000000000E+00  0.12285438916E+04  0.12312436170E+04  0.81490801787E+02 0.  0.
         66    2    3    3    0    0  0.11312128847E+01 -0.28175029015E+02  0.10585137987E+04  0.10588912002E+04  0.20000001435E+01 0.  0.
        -13    1    3    3    0    0 -0.11312128847E+01  0.28175029015E+02  0.17003009290E+03  0.17235241675E+03  0.10566000000E+00 0.  1.
         13    1    4    4    0    0  0.38129299559E+00 -0.23175211571E+01  0.93551900959E+02  0.93581438468E+02  0.10566000000E+00 0. -1.
        -13    1    4    4    0    0  0.12044204295E+01 -0.19833161518E+02  0.74408527153E+03  0.74435052723E+03  0.10566000000E+00 0.  1.
         14    1    4    4    0    0 -0.45450054037E+00 -0.60243463391E+01  0.22087662618E+03  0.22095923450E+03  0.00000000000E+00 0. -1.
<mgrwt>
<rscale>  0 0.81490802E+02</rscale>
<asrwt>0</asrwt>
<pdfrwt beam="1">  1        2 0.18921318E+00 0.81490802E+02</pdfrwt>
<pdfrwt beam="2">  1       -1 0.20767255E-03 0.81490802E+02</pdfrwt>
<totfact> 0.33296021E+05</totfact>
</mgrwt>
</event>
<event>
 8    1  0.1226832E-020  0.8443818E+02  0.7818608E-02  0.1316908E+00
          2   -1    0    0  501    0  0.00000000000E+00  0.00000000000E+00  0.39903754003E+02  0.39903754085E+02  0.25500000000E-02 0. -1.
         -1   -1    0    0    0  501 -0.00000000000E+00 -0.00000000000E+00 -0.44668767719E+02  0.44668768003E+02  0.50400000000E-02 0.  1.
         24    2    1    2    0    0  0.00000000000E+00  0.00000000000E+00 -0.47650137156E+01  0.84572522088E+02  0.84438179377E+02 0.  0.
         66    2    3    3    0    0 -0.95171795154E+01  0.78482163971E+01  0.38032254160E+02  0.40032781314E+02  0.20000041705E+01 0.  0.
        -13    1    3    3    0    0  0.95171795154E+01 -0.78482163971E+01 -0.42797267876E+02  0.44539740774E+02  0.10566000000E+00 0.  1.
         13    1    4    4    0    0 -0.22252810730E+01  0.13998732557E+01  0.99228607650E+01  0.10265761091E+02  0.10566000000E+00 0. -1.
        -13    1    4    4    0    0 -0.23767901113E+01  0.19551855138E+01  0.74682033022E+01  0.80781870631E+01  0.10566000000E+00 0.  1.
         14    1    4    4    0    0 -0.49151083311E+01  0.44931576276E+01  0.20641190093E+02  0.21688833160E+02  0.00000000000E+00 0. -1.
<mgrwt>
<rscale>  0 0.84438179E+02</rscale>
<asrwt>0</asrwt>
<pdfrwt beam="1">  1        2 0.61390391E-02 0.84438179E+02</pdfrwt>
<pdfrwt beam="2">  1       -1 0.68721181E-02 0.84438179E+02</pdfrwt>
<totfact> 0.12264546E+05</totfact>
</mgrwt>
</event>
<event>
 8    1  0.1226832E-020  0.8054785E+02  0.7818608E-02  0.1327504E+00
          2   -1    0    0  501    0  0.00000000000E+00  0.00000000000E+00  0.15745911780E+03  0.15745911782E+03  0.25500000000E-02 0. -1.
         -1   -1    0    0    0  501 -0.00000000000E+00 -0.00000000000E+00 -0.10301015947E+02  0.10301017180E+02  0.50400000000E-02 0.  1.
         24    2    1    2    0    0  0.35527136788E-14 -0.17763568394E-14  0.14715810186E+03  0.16776013500E+03  0.80547848851E+02 0.  0.
         66    2    3    3    0    0 -0.22046753526E+02  0.67046735486E+01  0.14235378762E+03  0.14422070876E+03  0.19999995987E+01 0.  0.
        -13    1    3    3    0    0  0.22046753526E+02 -0.67046735486E+01  0.48043142381E+01  0.23539426241E+02  0.10566000000E+00 0.  1.
         13    1    4    4    0    0 -0.42988807140E+01  0.90610934133E+00  0.26055639756E+02  0.26423643516E+02  0.10566000000E+00 0. -1.
        -13    1    4    4    0    0 -0.61875669477E+01  0.13413517870E+01  0.41181131679E+02  0.41665117061E+02  0.10566000000E+00 0.  1.
         14    1    4    4    0    0 -0.11560305864E+02  0.44572124202E+01  0.75117016182E+02  0.76131948184E+02  0.00000000000E+00 0. -1.
<mgrwt>
<rscale>  0 0.80547849E+02</rscale>
<asrwt>0</asrwt>
<pdfrwt beam="1">  1        2 0.24224480E-01 0.80547849E+02</pdfrwt>
<pdfrwt beam="2">  1       -1 0.15847718E-02 0.80547849E+02</pdfrwt>
<totfact> 0.19982980E+05</totfact>
</mgrwt>
</event>
<event>
 8    1  0.1226832E-020  0.8090188E+02  0.7818608E-02  0.1326511E+00
          2   -1    0    0  501    0  0.00000000000E+00  0.00000000000E+00  0.75437793876E+02  0.75437793919E+02  0.25500000000E-02 0. -1.
         -1   -1    0    0    0  501 -0.00000000000E+00 -0.00000000000E+00 -0.21690433900E+02  0.21690434486E+02  0.50400000000E-02 0.  1.
         24    2    1    2    0    0  0.00000000000E+00  0.00000000000E+00  0.53747359976E+02  0.97128228405E+02  0.80901879142E+02 0.  0.
         66    2    3    3    0    0  0.93115840734E+01 -0.23777943624E+02  0.64515517309E+02  0.69414322557E+02  0.20000003772E+01 0.  0.
        -13    1    3    3    0    0 -0.93115840734E+01  0.23777943624E+02 -0.10768157333E+02  0.27713905848E+02  0.10566000000E+00 0.  1.
         13    1    4    4    0    0  0.83945911253E+01 -0.21413906320E+02  0.58516065719E+02  0.62874205008E+02  0.10566000000E+00 0. -1.
        -13    1    4    4    0    0 -0.40113891336E-01 -0.13575295925E+00  0.47606355184E+00  0.50777803341E+00  0.10566000000E+00 0.  1.
         14    1    4    4    0    0  0.95710683943E+00 -0.22282843452E+01  0.55233880378E+01  0.60323395164E+01  0.00000000000E+00 0. -1.
<mgrwt>
<rscale>  0 0.80901879E+02</rscale>
<asrwt>0</asrwt>
<pdfrwt beam="1">  1        2 0.11605814E-01 0.80901879E+02</pdfrwt>
<pdfrwt beam="2">  1       -1 0.33369899E-02 0.80901879E+02</pdfrwt>
<totfact> 0.15957615E+05</totfact>
</mgrwt>
</event>
<event>
 8    1  0.1226832E-020  0.8054794E+02  0.7818608E-02  0.1327504E+00
          2   -1    0    0  501    0  0.00000000000E+00  0.00000000000E+00  0.27592503257E+02  0.27592503375E+02  0.25500000000E-02 0. -1.
         -1   -1    0    0    0  501 -0.00000000000E+00 -0.00000000000E+00 -0.58783813120E+02  0.58783813336E+02  0.50400000000E-02 0.  1.
         24    2    1    2    0    0  0.00000000000E+00 -0.35527136788E-14 -0.31191309863E+02  0.86376316711E+02  0.80547937761E+02 0.  0.
         66    2    3    3    0    0  0.27037631528E+02 -0.22063555539E+02  0.58995978061E+01  0.35449107899E+02  0.19999987159E+01 0.  0.
        -13    1    3    3    0    0 -0.27037631528E+02  0.22063555539E+02 -0.37090907669E+02  0.50927208812E+02  0.10566000000E+00 0.  1.
         13    1    4    4    0    0  0.54078218626E+01 -0.50182418057E+01  0.63524134207E+00  0.74055373685E+01  0.10566000000E+00 0. -1.
        -13    1    4    4    0    0  0.20974856058E+02 -0.16647998392E+02  0.51099643110E+01  0.27262122742E+02  0.10566000000E+00 0.  1.
         14    1    4    4    0    0  0.65495360725E+00 -0.39731534128E+00  0.15439215303E+00  0.78144778775E+00  0.00000000000E+00 0. -1.
<mgrwt>
<rscale>  0 0.80547938E+02</rscale>
<asrwt>0</asrwt>
<pdfrwt beam="1">  1        2 0.42450005E-02 0.80547938E+02</pdfrwt>
<pdfrwt beam="2">  1       -1 0.90436636E-02 0.80547938E+02</pdfrwt>
<totfact> 0.12983189E+05</totfact>
</mgrwt>
</event>
<event>
 8    1  0.1226832E-020  0.7946436E+02  0.7818608E-02  0.1330578E+00
          2   -1    0    0  501    0  0.00000000000E+00  0.00000000000E+00  0.28964661305E+02  0.28964661417E+02  0.25500000000E-02 0. -1.
         -1   -1    0    0    0  501 -0.00000000000E+00 -0.00000000000E+00 -0.54502484185E+02  0.54502484418E+02  0.50400000000E-02 0.  1.
         24    2    1    2    0    0  0.17763568394E-14  0.00000000000E+00 -0.25537822880E+02  0.83467145835E+02  0.79464357018E+02 0.  0.
         66    2    3    3    0    0  0.10182868991E+02 -0.34540771218E+02  0.47955116605E+01  0.36383411429E+02  0.19999994694E+01 0.  0.
        -13    1    3    3    0    0 -0.10182868991E+02  0.34540771218E+02 -0.30333334541E+02  0.47083734406E+02  0.10566000000E+00 0.  1.
         13    1    4    4    0    0  0.32849349123E+01 -0.99140416113E+01  0.21068493255E+01  0.10654998666E+02  0.10566000000E+00 0. -1.
        -13    1    4    4    0    0  0.13324630313E+00 -0.41404621329E+00  0.51753642146E-01  0.45058996783E+00  0.10566000000E+00 0. -1.
        -14    1    4    4    0    0  0.67646877760E+01 -0.24212683393E+02  0.26369086929E+01  0.25277822795E+02  0.00000000000E+00 0.  1.
<mgrwt>
<rscale>  0 0.79464357E+02</rscale>
<asrwt>0</asrwt>
<pdfrwt beam="1">  1        2 0.44561018E-02 0.79464357E+02</pdfrwt>
<pdfrwt beam="2">  1       -1 0.83849976E-02 0.79464357E+02</pdfrwt>
<totfact> 0.13616677E+05</totfact>
</mgrwt>
</event>
<event>
 8    1  0.1226832E-020  0.7965528E+02  0.7818608E-02  0.1330033E+00
          2   -1    0    0  501    0  0.00000000000E+00  0.00000000000E+00  0.24022604037E+02  0.24022604172E+02  0.25500000000E-02 0. -1.
         -1   -1    0    0    0  501 -0.00000000000E+00 -0.00000000000E+00 -0.66031174022E+02  0.66031174214E+02  0.50400000000E-02 0.  1.
         24    2    1    2    0    0  0.00000000000E+00  0.00000000000E+00 -0.42008569985E+02  0.90053778387E+02  0.79655276344E+02 0.  0.
         66    2    3    3    0    0  0.11056014434E+02 -0.24094315720E+02  0.12547750259E+02  0.29397577155E+02  0.20000002099E+01 0.  0.
        -13    1    3    3    0    0 -0.11056014434E+02  0.24094315720E+02 -0.54556320244E+02  0.60656201231E+02  0.10566000000E+00 0.  1.
         13    1    4    4    0    0  0.82491078307E+01 -0.17872275818E+02  0.88900382122E+01  0.21598841783E+02  0.10566000000E+00 0. -1.
        -13    1    4    4    0    0  0.14771614132E+01 -0.42362933394E+01  0.25873824481E+01  0.51801446955E+01  0.10566000000E+00 0.  1.
        -14    1    4    4    0    0  0.13297451896E+01 -0.19857465632E+01  0.10703295988E+01  0.26185906768E+01  0.00000000000E+00 0.  1.
<mgrwt>
<rscale>  0 0.79655276E+02</rscale>
<asrwt>0</asrwt>
<pdfrwt beam="1">  1        2 0.36957853E-02 0.79655276E+02</pdfrwt>
<pdfrwt beam="2">  1       -1 0.10158642E-01 0.79655276E+02</pdfrwt>
<totfact> 0.13037282E+05</totfact>
</mgrwt>
</event>
<event>
 8    1  0.1226832E-020  0.8772038E+02  0.7818608E-02  0.1308468E+00
          2   -1    0    0  501    0  0.00000000000E+00  0.00000000000E+00  0.21223709990E+03  0.21223709991E+03  0.25500000000E-02 0. -1.
         -1   -1    0    0    0  501 -0.00000000000E+00 -0.00000000000E+00 -0.90639957254E+01  0.90639971266E+01  0.50400000000E-02 0.  1.
         24    2    1    2    0    0  0.35527136788E-14 -0.17763568394E-14  0.20317310417E+03  0.22130109704E+03  0.87720381280E+02 0.  0.
         66    2    3    3    0    0  0.25634750600E+02 -0.12051765664E+02  0.18604287737E+03  0.18819760284E+03  0.19999999865E+01 0.  0.
        -13    1    3    3    0    0 -0.25634750600E+02  0.12051765664E+02  0.17130226799E+02  0.33103494198E+02  0.10566000000E+00 0.  1.
         13    1    4    4    0    0  0.58662997604E+01 -0.21801242003E+01  0.38396528561E+02  0.38903354406E+02  0.10566000000E+00 0.  1.
        -13    1    4    4    0    0  0.14438447993E+02 -0.67310106216E+01  0.10754818972E+03  0.10872166095E+03  0.10566000000E+00 0. -1.
        -14    1    4    4    0    0  0.53300028463E+01 -0.31406308418E+01  0.40098159093E+02  0.40572587483E+02  0.00000000000E+00 0.  1.
<mgrwt>
<rscale>  0 0.87720381E+02</rscale>
<asrwt>0</asrwt>
<pdfrwt beam="1">  1        2 0.32651857E-01 0.87720381E+02</pdfrwt>
<pdfrwt beam="2">  1       -1 0.13944612E-02 0.87720381E+02</pdfrwt>
<totfact> 0.17644685E+05</totfact>
</mgrwt>
</event>
<event>
 8    1  0.1226832E-020  0.7962330E+02  0.7818608E-02  0.1330124E+00
          2   -1    0    0  501    0  0.00000000000E+00  0.00000000000E+00  0.44911003504E+03  0.44911003504E+03  0.25500000000E-02 0. -1.
         -1   -1    0    0    0  501 -0.00000000000E+00 -0.00000000000E+00 -0.35291276547E+01  0.35291312535E+01  0.50400000000E-02 0.  1.
         24    2    1    2    0    0  0.00000000000E+00 -0.35527136788E-14  0.44558090738E+03  0.45263916630E+03  0.79623299625E+02 0.  0.
         66    2    3    3    0    0 -0.22132693765E+02  0.21210197999E+02  0.36710776829E+03  0.36839088230E+03  0.19999988113E+01 0.  0.
        -13    1    3    3    0    0  0.22132693765E+02 -0.21210197999E+02  0.78473139095E+02  0.84248283994E+02  0.10566000000E+00 0.  1.
         13    1    4    4    0    0 -0.39371669306E+01  0.39739906304E+01  0.69789198983E+02  0.70013122654E+02  0.10566000000E+00 0. -1.
        -13    1    4    4    0    0 -0.31308315823E+01  0.30219577856E+01  0.44621414250E+02  0.44833203198E+02  0.10566000000E+00 0.  1.
         14    1    4    4    0    0 -0.15064695252E+02  0.14214249583E+02  0.25269715505E+03  0.25354455645E+03  0.00000000000E+00 0. -1.
<mgrwt>
<rscale>  0 0.79623300E+02</rscale>
<asrwt>0</asrwt>
<pdfrwt beam="1">  1        2 0.69093856E-01 0.79623300E+02</pdfrwt>
<pdfrwt beam="2">  1       -1 0.54294296E-03 0.79623300E+02</pdfrwt>
<totfact> 0.29763121E+05</totfact>
</mgrwt>
</event>
<event>
 8    1  0.1226832E-020  0.8268671E+02  0.7818608E-02  0.1321595E+00
         -1   -1    0    0    0  501 -0.00000000000E+00  0.00000000000E+00  0.70473707436E+02  0.70473707616E+02  0.50400000000E-02 0.  1.
          2   -1    0    0  501    0  0.00000000000E+00 -0.00000000000E+00 -0.24254053521E+02  0.24254053655E+02  0.25500000000E-02 0. -1.
         24    2    1    2    0    0  0.27755575616E-16 -0.35527136788E-14  0.46219653915E+02  0.94727761271E+02  0.82686712037E+02 0.  0.
         66    2    3    3    0    0  0.15916903602E+00 -0.31951641959E+02 -0.68897112002E+01  0.32747533895E+02  0.20000242857E+01 0.  0.
        -13    1    3    3    0    0 -0.15916903602E+00  0.31951641959E+02  0.53109365115E+02  0.61980227376E+02  0.10566000000E+00 0.  1.
         13    1    4    4    0    0  0.25872633324E+00 -0.52356394959E+01 -0.17832357798E+01  0.55380460569E+01  0.10566000000E+00 0. -1.
        -13    1    4    4    0    0 -0.29935497417E+00 -0.14860737523E+02 -0.25804728539E+01  0.15086455426E+02  0.10566000000E+00 0.  1.
         14    1    4    4    0    0  0.19979767695E+00 -0.11855264940E+02 -0.25260025664E+01  0.12123032412E+02  0.00000000000E+00 0. -1.
<mgrwt>
<rscale>  0 0.82686712E+02</rscale>
<asrwt>0</asrwt>
<pdfrwt beam="1">  1        2 0.37313929E-02 0.82686712E+02</pdfrwt>
<pdfrwt beam="2">  1       -1 0.10842109E-01 0.82686712E+02</pdfrwt>
<totfact> 0.11745365E+05</totfact>
</mgrwt>
</event>
<event>
 8    1  0.1557462E-020  0.7878737E+02  0.7818608E-02  0.1332528E+00
          2   -1    0    0  501    0  0.00000000000E+00  0.00000000000E+00  0.76098664275E+02  0.76098664318E+02  0.25500000000E-02 0. -1.
         -1   -1    0    0    0  501 -0.00000000000E+00 -0.00000000000E+00 -0.20392766197E+02  0.20392766819E+02  0.50400000000E-02 0.  1.
         24    2    1    2    0    0  0.00000000000E+00  0.00000000000E+00  0.55705898078E+02  0.96491431137E+02  0.78787367021E+02 0.  0.
         66    2    3    3    0    0  0.66223789502E+01 -0.18727840637E+02  0.69497721494E+02  0.72308514128E+02  0.20000011687E+01 0.  0.
        -13    1    3    3    0    0 -0.66223789502E+01  0.18727840637E+02 -0.13791823416E+02  0.24182917009E+02  0.10566000000E+00 0.  1.
         13    1    4    4    0    0  0.31174273892E+01 -0.82198934294E+01  0.30675897107E+02  0.31910920214E+02  0.10566000000E+00 0. -1.
        -13    1    4    4    0    0  0.32538996754E+01 -0.79170229789E+01  0.30455293946E+02  0.31635473907E+02  0.10566000000E+00 0.  1.
        -14    1    4    4    0    0  0.25105188558E+00 -0.25909242288E+01  0.83665304408E+01  0.87621200075E+01  0.00000000000E+00 0.  1.
<mgrwt>
<rscale>  0 0.78787367E+02</rscale>
<asrwt>0</asrwt>
<pdfrwt beam="1">  1        2 0.11707487E-01 0.78787367E+02</pdfrwt>
<pdfrwt beam="2">  1       -1 0.31373488E-02 0.78787367E+02</pdfrwt>
<totfact> 0.17177935E+05</totfact>
</mgrwt>
</event>
<event>
 8    1  0.1226832E-020  0.8119884E+02  0.7818608E-02  0.1325683E+00
          2   -1    0    0  501    0  0.00000000000E+00  0.00000000000E+00  0.11248841408E+03  0.11248841411E+03  0.25500000000E-02 0. -1.
         -1   -1    0    0    0  501 -0.00000000000E+00 -0.00000000000E+00 -0.14653179569E+02  0.14653180436E+02  0.50400000000E-02 0.  1.
         24    2    1    2    0    0  0.35527136788E-14 -0.44408920985E-15  0.97835234512E+02  0.12714159455E+03  0.81198842059E+02 0.  0.
         66    2    3    3    0    0 -0.18297418294E+02  0.24491691350E+01  0.10552273712E+03  0.10714402454E+03  0.20000001051E+01 0.  0.
        -13    1    3    3    0    0  0.18297418294E+02 -0.24491691350E+01 -0.76875026070E+01  0.19997570004E+02  0.10566000000E+00 0.  1.
         13    1    4    4    0    0 -0.10105907422E+02  0.83420185145E+00  0.60062413546E+02  0.60912477724E+02  0.10566000000E+00 0. -1.
        -13    1    4    4    0    0 -0.33332148678E+01  0.30428251460E+00  0.16333290334E+02  0.16673045504E+02  0.10566000000E+00 0.  1.
        -14    1    4    4    0    0 -0.48582960040E+01  0.13106847689E+01  0.29127033239E+02  0.29558501314E+02  0.00000000000E+00 0.  1.
<mgrwt>
<rscale>  0 0.81198842E+02</rscale>
<asrwt>0</asrwt>
<pdfrwt beam="1">  1        2 0.17305909E-01 0.81198842E+02</pdfrwt>
<pdfrwt beam="2">  1       -1 0.22543355E-02 0.81198842E+02</pdfrwt>
<totfact> 0.17618103E+05</totfact>
</mgrwt>
</event>
<event>
 8    1  0.1226832E-020  0.7867695E+02  0.7818608E-02  0.1332849E+00
         -1   -1    0    0    0  501 -0.00000000000E+00  0.00000000000E+00  0.27054140325E+03  0.27054140330E+03  0.50400000000E-02 0.  1.
          2   -1    0    0  501    0  0.00000000000E+00 -0.00000000000E+00 -0.57200690516E+01  0.57200696200E+01  0.25500000000E-02 0. -1.
         24    2    1    2    0    0  0.00000000000E+00  0.17763568394E-14  0.26482133420E+03  0.27626147292E+03  0.78676949431E+02 0.  0.
         66    2    3    3    0    0  0.33732418611E+02 -0.87144755482E+01  0.68545978355E+02  0.76917938723E+02  0.19999998305E+01 0.  0.
        -13    1    3    3    0    0 -0.33732418611E+02  0.87144755482E+01  0.19627535585E+03  0.19934353420E+03  0.10566000000E+00 0.  1.
         13    1    4    4    0    0  0.61614591421E+01 -0.14627018706E+01  0.11848316460E+02  0.13434911331E+02  0.10566000000E+00 0. -1.
        -13    1    4    4    0    0  0.11037798225E+02 -0.37345292326E+01  0.23291655781E+02  0.26044041378E+02  0.10566000000E+00 0.  1.
        -14    1    4    4    0    0  0.16533161244E+02 -0.35172444450E+01  0.33406006115E+02  0.37438986014E+02  0.00000000000E+00 0.  1.
<mgrwt>
<rscale>  0 0.78676949E+02</rscale>
<asrwt>0</asrwt>
<pdfrwt beam="1">  1        2 0.88001049E-03 0.78676949E+02</pdfrwt>
<pdfrwt beam="2">  1       -1 0.41621763E-01 0.78676949E+02</pdfrwt>
<totfact> 0.93908754E+04</totfact>
</mgrwt>
</event>
<event>
 8    1  0.1226832E-020  0.8231234E+02  0.7818608E-02  0.1322615E+00
         -1   -1    0    0    0  501 -0.00000000000E+00  0.00000000000E+00  0.83729018701E+01  0.83729033869E+01  0.50400000000E-02 0.  1.
          2   -1    0    0  501    0  0.00000000000E+00 -0.00000000000E+00 -0.20229908022E+03  0.20229908024E+03  0.25500000000E-02 0. -1.
         24    2    1    2    0    0  0.00000000000E+00  0.71054273576E-14 -0.19392617835E+03  0.21067198363E+03  0.82312344362E+02 0.  0.
         66    2    3    3    0    0 -0.15252888215E+02 -0.34749061405E+02 -0.13762373634E+03  0.14277408964E+03  0.20000000424E+01 0.  0.
        -13    1    3    3    0    0  0.15252888215E+02  0.34749061405E+02 -0.56302442012E+02  0.67897893988E+02  0.10566000000E+00 0.  1.
         13    1    4    4    0    0 -0.12003994034E+01 -0.26305615134E+01 -0.11552326747E+02  0.11909165794E+02  0.10566000000E+00 0. -1.
        -13    1    4    4    0    0 -0.30296074807E+01 -0.64792372710E+01 -0.28074531172E+02  0.28971529157E+02  0.10566000000E+00 0.  1.
        -14    1    4    4    0    0 -0.11022881330E+02 -0.25639262621E+02 -0.97996878422E+02  0.10189339469E+03  0.00000000000E+00 0.  1.
<mgrwt>
<rscale>  0 0.82312344E+02</rscale>
<asrwt>0</asrwt>
<pdfrwt beam="1">  1        2 0.31122932E-01 0.82312344E+02</pdfrwt>
<pdfrwt beam="2">  1       -1 0.12881390E-02 0.82312344E+02</pdfrwt>
<totfact> 0.20540342E+05</totfact>
</mgrwt>
</event>
<event>
 8    1  0.1226832E-020  0.7946542E+02  0.7818608E-02  0.1330575E+00
         -1   -1    0    0    0  501 -0.00000000000E+00  0.00000000000E+00  0.18968146200E+01  0.18968213159E+01  0.50400000000E-02 0.  1.
          2   -1    0    0  501    0  0.00000000000E+00 -0.00000000000E+00 -0.83228239257E+03  0.83228239257E+03  0.25500000000E-02 0. -1.
         24    2    1    2    0    0  0.00000000000E+00 -0.35527136788E-14 -0.83038557795E+03  0.83417921389E+03  0.79465419010E+02 0.  0.
         66    2    3    3    0    0  0.21315473512E+02  0.19405600767E+02 -0.70212337921E+03  0.70271770035E+03  0.20000004493E+01 0.  0.
        -13    1    3    3    0    0 -0.21315473512E+02 -0.19405600767E+02 -0.12826219874E+03  0.13146151354E+03  0.10566000000E+00 0.  1.
         13    1    4    4    0    0  0.15288666624E+01  0.14229747756E+01 -0.55515471404E+02  0.55554846950E+02  0.10566000000E+00 0. -1.
        -13    1    4    4    0    0  0.33626515705E+01  0.27233773409E+01 -0.91137345262E+02  0.91240073844E+02  0.10566000000E+00 0.  1.
         14    1    4    4    0    0  0.16423955279E+02  0.15259248650E+02 -0.55547056254E+03  0.55592277955E+03  0.00000000000E+00 0. -1.
<mgrwt>
<rscale>  0 0.79465419E+02</rscale>
<asrwt>0</asrwt>
<pdfrwt beam="1">  1        2 0.12804315E+00 0.79465419E+02</pdfrwt>
<pdfrwt beam="2">  1       -1 0.29181882E-03 0.79465419E+02</pdfrwt>
<totfact> 0.35195040E+05</totfact>
</mgrwt>
</event>
<event>
 8    1  0.1226832E-020  0.7883003E+02  0.7818608E-02  0.1332405E+00
         -1   -1    0    0    0  501 -0.00000000000E+00  0.00000000000E+00  0.13611383421E+03  0.13611383431E+03  0.50400000000E-02 0.  1.
          2   -1    0    0  501    0  0.00000000000E+00 -0.00000000000E+00 -0.11413559925E+02  0.11413560210E+02  0.25500000000E-02 0. -1.
         24    2    1    2    0    0 -0.17763568394E-14 -0.71054273576E-14  0.12470027429E+03  0.14752739452E+03  0.78830030605E+02 0.  0.
         66    2    3    3    0    0 -0.97791127942E+01 -0.29232866973E+02  0.16497467970E+02  0.35019394722E+02  0.19999997010E+01 0.  0.
        -13    1    3    3    0    0  0.97791127942E+01  0.29232866973E+02  0.10820280632E+03  0.11250799979E+03  0.10566000000E+00 0.  1.
         13    1    4    4    0    0 -0.22554863976E-01 -0.10036535805E+00  0.68973420066E-01  0.16279832696E+00  0.10566000000E+00 0. -1.
        -13    1    4    4    0    0 -0.42996125362E+01 -0.12185256365E+02  0.63533204225E+01  0.14399409191E+02  0.10566000000E+00 0. -1.
         14    1    4    4    0    0 -0.54569453940E+01 -0.16947245250E+02  0.10075174128E+02  0.20457187204E+02  0.00000000000E+00 0. -1.
<mgrwt>
<rscale>  0 0.78830031E+02</rscale>
<asrwt>0</asrwt>
<pdfrwt beam="1">  1        2 0.17559323E-02 0.78830031E+02</pdfrwt>
<pdfrwt beam="2">  1       -1 0.20940590E-01 0.78830031E+02</pdfrwt>
<totfact> 0.11469045E+05</totfact>
</mgrwt>
</event>
<event>
 8    1  0.1639621E-020  0.8007079E+02  0.7818608E-02  0.1328851E+00
         -1   -1    0    0    0  501 -0.00000000000E+00  0.00000000000E+00  0.13254427049E+03  0.13254427058E+03  0.50400000000E-02 0.  1.
          2   -1    0    0  501    0  0.00000000000E+00 -0.00000000000E+00 -0.12092810236E+02  0.12092810505E+02  0.25500000000E-02 0. -1.
         24    2    1    2    0    0  0.17763568394E-14  0.35527136788E-14  0.12045146025E+03  0.14463708109E+03  0.80070787115E+02 0.  0.
         66    2    3    3    0    0 -0.13751826505E+02 -0.21098478042E+02  0.41038537998E+01  0.25594923854E+02  0.20000007971E+01 0.  0.
        -13    1    3    3    0    0  0.13751826505E+02  0.21098478042E+02  0.11634760645E+03  0.11904215724E+03  0.10566000000E+00 0.  1.
         13    1    4    4    0    0 -0.79546868684E+01 -0.12508099617E+02  0.23114355834E+01  0.15002782999E+02  0.10566000000E+00 0. -1.
        -13    1    4    4    0    0 -0.57507391913E+01 -0.85660407531E+01  0.16611112226E+01  0.10450765999E+02  0.10566000000E+00 0.  1.
        -14    1    4    4    0    0 -0.46400444781E-01 -0.24337671820E-01  0.13130699391E+00  0.14137485701E+00  0.00000000000E+00 0.  1.
<mgrwt>
<rscale>  0 0.80070787E+02</rscale>
<asrwt>0</asrwt>
<pdfrwt beam="1">  1        2 0.18604323E-02 0.80070787E+02</pdfrwt>
<pdfrwt beam="2">  1       -1 0.20391427E-01 0.80070787E+02</pdfrwt>
<totfact> 0.11097432E+05</totfact>
</mgrwt>
</event>
<event>
 8    1  0.1226832E-020  0.8013683E+02  0.7818608E-02  0.1328664E+00
         -1   -1    0    0    0  501 -0.00000000000E+00  0.00000000000E+00  0.52887618456E+02  0.52887618696E+02  0.50400000000E-02 0.  1.
          2   -1    0    0  501    0  0.00000000000E+00 -0.00000000000E+00 -0.30356399462E+02  0.30356399569E+02  0.25500000000E-02 0. -1.
         24    2    1    2    0    0  0.00000000000E+00 -0.17763568394E-14  0.22531218994E+02  0.83244018265E+02  0.80136825166E+02 0.  0.
         66    2    3    3    0    0 -0.36285185602E+02  0.15464236629E+02  0.18448075628E+02  0.43590007970E+02  0.19999979303E+01 0.  0.
        -13    1    3    3    0    0  0.36285185602E+02 -0.15464236629E+02  0.40831433656E+01  0.39654010295E+02  0.10566000000E+00 0.  1.
         13    1    4    4    0    0 -0.96101808732E+01  0.46872971131E+01  0.54788991814E+01  0.12014817140E+02  0.10566000000E+00 0. -1.
        -13    1    4    4    0    0 -0.69799564642E+01  0.28040025559E+01  0.38892815230E+01  0.84687600850E+01  0.10566000000E+00 0.  1.
        -14    1    4    4    0    0 -0.19695048265E+02  0.79729369604E+01  0.90798949236E+01  0.23106430745E+02  0.00000000000E+00 0.  1.
<mgrwt>
<rscale>  0 0.80136825E+02</rscale>
<asrwt>0</asrwt>
<pdfrwt beam="1">  1        2 0.46702153E-02 0.80136825E+02</pdfrwt>
<pdfrwt beam="2">  1       -1 0.81365567E-02 0.80136825E+02</pdfrwt>
<totfact> 0.13422227E+05</totfact>
</mgrwt>
</event>
<event>
 8    1  0.1226832E-020  0.7508031E+02  0.7818608E-02  0.1343623E+00
         -1   -1    0    0    0  501 -0.00000000000E+00  0.00000000000E+00  0.16482720732E+03  0.16482720740E+03  0.50400000000E-02 0.  1.
          2   -1    0    0  501    0  0.00000000000E+00 -0.00000000000E+00 -0.85499432085E+01  0.85499435887E+01  0.25500000000E-02 0. -1.
         24    2    1    2    0    0  0.00000000000E+00 -0.35527136788E-14  0.15627726412E+03  0.17337715099E+03  0.75080311706E+02 0.  0.
         66    2    3    3    0    0 -0.27209172417E+02 -0.24330870830E+02  0.58205061361E+02  0.68732521619E+02  0.20000052717E+01 0.  0.
        -13    1    3    3    0    0  0.27209172417E+02  0.24330870830E+02  0.98072202755E+02  0.10464462937E+03  0.10566000000E+00 0.  1.
         13    1    4    4    0    0 -0.12584613754E+02 -0.11164172647E+02  0.26929752947E+02  0.31752700862E+02  0.10566000000E+00 0. -1.
        -13    1    4    4    0    0 -0.44578328210E+01 -0.48711257491E+01  0.10019860843E+02  0.12000371447E+02  0.10566000000E+00 0.  1.
        -14    1    4    4    0    0 -0.10166725842E+02 -0.82955724343E+01  0.21255447571E+02  0.24979449309E+02  0.00000000000E+00 0.  1.
<mgrwt>
<rscale>  0 0.75080312E+02</rscale>
<asrwt>0</asrwt>
<pdfrwt beam="1">  1        2 0.13153759E-02 0.75080312E+02</pdfrwt>
<pdfrwt beam="2">  1       -1 0.25358031E-01 0.75080312E+02</pdfrwt>
<totfact> 0.12358708E+05</totfact>
</mgrwt>
</event>
<event>
 8    1  0.1226832E-020  0.8453888E+02  0.7818608E-02  0.1316643E+00
         -1   -1    0    0    0  501 -0.00000000000E+00  0.00000000000E+00  0.15185796279E+02  0.15185797115E+02  0.50400000000E-02 0.  1.
          2   -1    0    0  501    0  0.00000000000E+00 -0.00000000000E+00 -0.11765635044E+03  0.11765635047E+03  0.25500000000E-02 0. -1.
         24    2    1    2    0    0  0.00000000000E+00  0.00000000000E+00 -0.10247055416E+03  0.13284214758E+03  0.84538876881E+02 0.  0.
         66    2    3    3    0    0 -0.31420801211E+02  0.25881339064E+02 -0.69013434584E+02  0.80149638865E+02  0.19999991387E+01 0.  0.
        -13    1    3    3    0    0  0.31420801211E+02 -0.25881339064E+02 -0.33457119575E+02  0.52692508716E+02  0.10566000000E+00 0.  1.
         13    1    4    4    0    0 -0.10672785045E+02  0.89416641025E+01 -0.21889588680E+02  0.25942763040E+02  0.10566000000E+00 0.  1.
        -13    1    4    4    0    0 -0.88439923654E+01  0.73099898906E+01 -0.19687251188E+02  0.22787083546E+02  0.10566000000E+00 0. -1.
        -14    1    4    4    0    0 -0.11904023801E+02  0.96296850710E+01 -0.27436594716E+02  0.31419792278E+02  0.00000000000E+00 0.  1.
<mgrwt>
<rscale>  0 0.84538877E+02</rscale>
<asrwt>0</asrwt>
<pdfrwt beam="1">  1        2 0.18100976E-01 0.84538877E+02</pdfrwt>
<pdfrwt beam="2">  1       -1 0.23362765E-02 0.84538877E+02</pdfrwt>
<totfact> 0.16026113E+05</totfact>
</mgrwt>
</event>
<event>
 8    1  0.1226832E-020  0.7997222E+02  0.7818608E-02  0.1329130E+00
          2   -1    0    0  501    0  0.00000000000E+00  0.00000000000E+00  0.29033910805E+03  0.29033910806E+03  0.25500000000E-02 0. -1.
         -1   -1    0    0    0  501 -0.00000000000E+00 -0.00000000000E+00 -0.55069694410E+01  0.55069717473E+01  0.50400000000E-02 0.  1.
         24    2    1    2    0    0  0.35527136788E-14  0.17763568394E-14  0.28483213861E+03  0.29584607981E+03  0.79972218635E+02 0.  0.
         66    2    3    3    0    0 -0.31978351178E+02 -0.83909277319E+01  0.22554391065E+03  0.22796288785E+03  0.19999980736E+01 0.  0.
        -13    1    3    3    0    0  0.31978351178E+02  0.83909277319E+01  0.59288227963E+02  0.67883191964E+02  0.10566000000E+00 0.  1.
         13    1    4    4    0    0 -0.13801060529E+02 -0.43463909154E+01  0.10055886925E+03  0.10159457532E+03  0.10566000000E+00 0.  1.
        -13    1    4    4    0    0 -0.81434794249E+01 -0.22890487705E+01  0.57159620632E+02  0.57782258491E+02  0.10566000000E+00 0. -1.
        -14    1    4    4    0    0 -0.10033811224E+02 -0.17554880460E+01  0.67825420768E+02  0.68586054037E+02  0.00000000000E+00 0.  1.
<mgrwt>
<rscale>  0 0.79972219E+02</rscale>
<asrwt>0</asrwt>
<pdfrwt beam="1">  1        2 0.44667563E-01 0.79972219E+02</pdfrwt>
<pdfrwt beam="2">  1       -1 0.84722611E-03 0.79972219E+02</pdfrwt>
<totfact> 0.25216977E+05</totfact>
</mgrwt>
</event>
<event>
 8    1  0.1226832E-020  0.7967724E+02  0.7818608E-02  0.1329970E+00
          2   -1    0    0  501    0  0.00000000000E+00  0.00000000000E+00  0.11181534680E+02  0.11181534971E+02  0.25500000000E-02 0. -1.
         -1   -1    0    0    0  501 -0.00000000000E+00 -0.00000000000E+00 -0.14194075252E+03  0.14194075261E+03  0.50400000000E-02 0.  1.
         24    2    1    2    0    0 -0.35527136788E-14  0.00000000000E+00 -0.13075921784E+03  0.15312228758E+03  0.79677235795E+02 0.  0.
         66    2    3    3    0    0  0.30704260587E+02 -0.25234533000E+01 -0.16955526806E+02  0.35222284647E+02  0.20000029399E+01 0.  0.
        -13    1    3    3    0    0 -0.30704260587E+02  0.25234533000E+01 -0.11380369103E+03  0.11790000293E+03  0.10566000000E+00 0.  1.
         13    1    4    4    0    0  0.19890770456E+02 -0.15668006344E+01 -0.11736508473E+02  0.23148529299E+02  0.10566000000E+00 0.  1.
        -13    1    4    4    0    0  0.84346494816E+01 -0.10869118367E+01 -0.40898071391E+01  0.94372864579E+01  0.10566000000E+00 0. -1.
        -14    1    4    4    0    0  0.23788406493E+01  0.13025917112E+00 -0.11292111939E+01  0.26364688898E+01  0.00000000000E+00 0.  1.
<mgrwt>
<rscale>  0 0.79677236E+02</rscale>
<asrwt>0</asrwt>
<pdfrwt beam="1">  1        2 0.17202362E-02 0.79677236E+02</pdfrwt>
<pdfrwt beam="2">  1       -1 0.21837038E-01 0.79677236E+02</pdfrwt>
<totfact> 0.11050177E+05</totfact>
</mgrwt>
</event>
<event>
 8    1  0.1226832E-020  0.7927482E+02  0.7818608E-02  0.1331122E+00
         -1   -1    0    0    0  501 -0.00000000000E+00  0.00000000000E+00  0.51183071331E+01  0.51183096146E+01  0.50400000000E-02 0.  1.
          2   -1    0    0  501    0  0.00000000000E+00 -0.00000000000E+00 -0.30696162096E+03  0.30696162097E+03  0.25500000000E-02 0. -1.
         24    2    1    2    0    0  0.00000000000E+00  0.00000000000E+00 -0.30184331383E+03  0.31207993058E+03  0.79274819281E+02 0.  0.
         66    2    3    3    0    0 -0.38141747126E+02  0.64243797958E+01 -0.11737001935E+03  0.12359525463E+03  0.19999989959E+01 0.  0.
        -13    1    3    3    0    0  0.38141747126E+02 -0.64243797958E+01 -0.18447329448E+03  0.18848467595E+03  0.10566000000E+00 0.  1.
         13    1    4    4    0    0 -0.98087994210E+01  0.15504246592E+01 -0.29659455167E+02  0.31277960412E+02  0.10566000000E+00 0. -1.
        -13    1    4    4    0    0 -0.15346396384E+02  0.28754588318E+01 -0.50187840793E+02  0.52560542929E+02  0.10566000000E+00 0.  1.
        -14    1    4    4    0    0 -0.12986551321E+02  0.19984963048E+01 -0.37522723386E+02  0.39756751289E+02  0.00000000000E+00 0.  1.
<mgrwt>
<rscale>  0 0.79274819E+02</rscale>
<asrwt>0</asrwt>
<pdfrwt beam="1">  1        2 0.47224850E-01 0.79274819E+02</pdfrwt>
<pdfrwt beam="2">  1       -1 0.78743230E-03 0.79274819E+02</pdfrwt>
<totfact> 0.26327657E+05</totfact>
</mgrwt>
</event>
<event>
 8    1  0.1226832E-020  0.7727632E+02  0.7818608E-02  0.1336963E+00
          2   -1    0    0  501    0  0.00000000000E+00  0.00000000000E+00  0.37027328174E+03  0.37027328175E+03  0.25500000000E-02 0. -1.
         -1   -1    0    0    0  501 -0.00000000000E+00 -0.00000000000E+00 -0.40319052190E+01  0.40319083691E+01  0.50400000000E-02 0.  1.
         24    2    1    2    0    0  0.00000000000E+00  0.00000000000E+00  0.36624137652E+03  0.37430519012E+03  0.77276318968E+02 0.  0.
         66    2    3    3    0    0  0.37572574203E+01  0.17321995569E+02  0.34939997576E+03  0.34985498649E+03  0.19999993993E+01 0.  0.
        -13    1    3    3    0    0 -0.37572574203E+01 -0.17321995569E+02  0.16841400764E+02  0.24450203630E+02  0.10566000000E+00 0.  1.
         13    1    4    4    0    0  0.19904758839E+01  0.74995052916E+01  0.14043199396E+03  0.14064622521E+03  0.10566000000E+00 0. -1.
        -13    1    4    4    0    0  0.35040650982E+00  0.47866711210E+01  0.97667129741E+02  0.97785041806E+02  0.10566000000E+00 0.  1.
        -14    1    4    4    0    0  0.14163750265E+01  0.50358191565E+01  0.11130085206E+03  0.11142371948E+03  0.00000000000E+00 0.  1.
<mgrwt>
<rscale>  0 0.77276319E+02</rscale>
<asrwt>0</asrwt>
<pdfrwt beam="1">  1        2 0.56965129E-01 0.77276319E+02</pdfrwt>
<pdfrwt beam="2">  1       -1 0.62029326E-03 0.77276319E+02</pdfrwt>
<totfact> 0.30096022E+05</totfact>
</mgrwt>
</event>
<event>
 8    1  0.1226832E-020  0.8135209E+02  0.7818608E-02  0.1325258E+00
          2   -1    0    0  501    0  0.00000000000E+00  0.00000000000E+00  0.47876618271E+03  0.47876618272E+03  0.25500000000E-02 0. -1.
         -1   -1    0    0    0  501 -0.00000000000E+00 -0.00000000000E+00 -0.34558407321E+01  0.34558444073E+01  0.50400000000E-02 0.  1.
         24    2    1    2    0    0  0.00000000000E+00  0.00000000000E+00  0.47531034198E+03  0.48222202713E+03  0.81352088188E+02 0.  0.
         66    2    3    3    0    0 -0.78123081679E+01 -0.33525771579E+02  0.36596689376E+03  0.36758778115E+03  0.20000000612E+01 0.  0.
        -13    1    3    3    0    0  0.78123081679E+01  0.33525771579E+02  0.10934344822E+03  0.11463424598E+03  0.10566000000E+00 0.  1.
         13    1    4    4    0    0 -0.25277465032E+01 -0.13457676718E+02  0.15216993229E+03  0.15278480952E+03  0.10566000000E+00 0. -1.
        -13    1    4    4    0    0 -0.41336214780E+01 -0.15156473802E+02  0.15896360082E+03  0.15973804517E+03  0.10566000000E+00 0.  1.
        -14    1    4    4    0    0 -0.11509401867E+01 -0.49116210585E+01  0.54833360657E+02  0.55064926456E+02  0.00000000000E+00 0.  1.
<mgrwt>
<rscale>  0 0.81352088E+02</rscale>
<asrwt>0</asrwt>
<pdfrwt beam="1">  1        2 0.73656337E-01 0.81352088E+02</pdfrwt>
<pdfrwt beam="2">  1       -1 0.53166808E-03 0.81352088E+02</pdfrwt>
<totfact> 0.28743224E+05</totfact>
</mgrwt>
</event>
<event>
 8    1  0.1226832E-020  0.7985081E+02  0.7818608E-02  0.1329475E+00
          2   -1    0    0  501    0  0.00000000000E+00  0.00000000000E+00  0.84499537200E+02  0.84499537239E+02  0.25500000000E-02 0. -1.
         -1   -1    0    0    0  501 -0.00000000000E+00 -0.00000000000E+00 -0.18864456487E+02  0.18864457160E+02  0.50400000000E-02 0.  1.
         24    2    1    2    0    0  0.00000000000E+00  0.00000000000E+00  0.65635080713E+02  0.10336399440E+03  0.79850807872E+02 0.  0.
         66    2    3    3    0    0  0.26629912306E+02  0.24534159209E+02  0.54535531331E+02  0.65491994742E+02  0.20000000425E+01 0.  0.
        -13    1    3    3    0    0 -0.26629912306E+02 -0.24534159209E+02  0.11099549382E+02  0.37871999657E+02  0.10566000000E+00 0.  1.
         13    1    4    4    0    0  0.64167640024E+01  0.59147221066E+01  0.12526929440E+02  0.15267413766E+02  0.10566000000E+00 0. -1.
        -13    1    4    4    0    0  0.17147458342E+02  0.15696728653E+02  0.34448324659E+02  0.41558643551E+02  0.10566000000E+00 0.  1.
         14    1    4    4    0    0  0.30656899623E+01  0.29227084491E+01  0.75602772321E+01  0.86659374247E+01  0.00000000000E+00 0. -1.
<mgrwt>
<rscale>  0 0.79850808E+02</rscale>
<asrwt>0</asrwt>
<pdfrwt beam="1">  1        2 0.12999928E-01 0.79850808E+02</pdfrwt>
<pdfrwt beam="2">  1       -1 0.29022242E-02 0.79850808E+02</pdfrwt>
<totfact> 0.17019814E+05</totfact>
</mgrwt>
</event>
<event>
 8    1  0.1226832E-020  0.8286750E+02  0.7818608E-02  0.1321105E+00
         -1   -1    0    0    0  501 -0.00000000000E+00  0.00000000000E+00  0.92583323582E+00  0.92584695396E+00  0.50400000000E-02 0.  1.
          2   -1    0    0  501    0  0.00000000000E+00 -0.00000000000E+00 -0.18542678134E+04  0.18542678134E+04  0.25500000000E-02 0. -1.
         24    2    1    2    0    0 -0.17763568394E-14 -0.17763568394E-14 -0.18533419802E+04  0.18551936604E+04  0.82867496555E+02 0.  0.
         66    2    3    3    0    0  0.15613364032E+02  0.13324188445E+02 -0.17323616214E+04  0.17324843718E+04  0.20000000367E+01 0.  0.
        -13    1    3    3    0    0 -0.15613364032E+02 -0.13324188445E+02 -0.12098035880E+03  0.12270928862E+03  0.10566000000E+00 0.  1.
         13    1    4    4    0    0  0.56402134911E+01  0.45513265936E+01 -0.59999362159E+03  0.60003740191E+03  0.10566000000E+00 0. -1.
        -13    1    4    4    0    0  0.37850093981E+01  0.31428883759E+01 -0.35908155724E+03  0.35911527392E+03  0.10566000000E+00 0. -1.
         14    1    4    4    0    0  0.61881411428E+01  0.56299734753E+01 -0.77328644258E+03  0.77333169596E+03  0.00000000000E+00 0. -1.
<mgrwt>
<rscale>  0 0.82867497E+02</rscale>
<asrwt>0</asrwt>
<pdfrwt beam="1">  1        2 0.28526900E+00 0.82867497E+02</pdfrwt>
<pdfrwt beam="2">  1       -1 0.14243842E-03 0.82867497E+02</pdfrwt>
<totfact> 0.26981113E+05</totfact>
</mgrwt>
</event>
<event>
 8    1  0.1226832E-020  0.7996710E+02  0.7818608E-02  0.1329145E+00
         -1   -1    0    0    0  501 -0.00000000000E+00  0.00000000000E+00  0.15856001540E+02  0.15856002341E+02  0.50400000000E-02 0.  1.
          2   -1    0    0  501    0  0.00000000000E+00 -0.00000000000E+00 -0.10082517678E+03  0.10082517681E+03  0.25500000000E-02 0. -1.
         24    2    1    2    0    0 -0.17763568394E-14  0.71054273576E-14 -0.84969175238E+02  0.11668117915E+03  0.79967098407E+02 0.  0.
         66    2    3    3    0    0  0.15149730748E+02 -0.28865115211E+02 -0.76228009537E+02  0.82930203466E+02  0.19999977559E+01 0.  0.
        -13    1    3    3    0    0 -0.15149730748E+02  0.28865115211E+02 -0.87411657008E+01  0.33750975686E+02  0.10566000000E+00 0.  1.
         13    1    4    4    0    0  0.54548911336E+01 -0.93042074547E+01 -0.26180426123E+02  0.28315190087E+02  0.10566000000E+00 0. -1.
        -13    1    4    4    0    0  0.40354670217E+01 -0.86984421066E+01 -0.23312035798E+02  0.25207341515E+02  0.10566000000E+00 0.  1.
         14    1    4    4    0    0  0.56593725926E+01 -0.10862465650E+02 -0.26735547616E+02  0.29407671864E+02  0.00000000000E+00 0. -1.
<mgrwt>
<rscale>  0 0.79967098E+02</rscale>
<asrwt>0</asrwt>
<pdfrwt beam="1">  1        2 0.15511565E-01 0.79967098E+02</pdfrwt>
<pdfrwt beam="2">  1       -1 0.24393850E-02 0.79967098E+02</pdfrwt>
<totfact> 0.17786317E+05</totfact>
</mgrwt>
</event>
<event>
 8    1  0.1226832E-020  0.8598702E+02  0.7818608E-02  0.1312871E+00
          2   -1    0    0  501    0  0.00000000000E+00  0.00000000000E+00  0.11864034186E+04  0.11864034186E+04  0.25500000000E-02 0. -1.
         -1   -1    0    0    0  501 -0.00000000000E+00 -0.00000000000E+00 -0.15580172283E+01  0.15580253801E+01  0.50400000000E-02 0.  1.
         24    2    1    2    0    0  0.00000000000E+00 -0.35527136788E-14  0.11848454013E+04  0.11879614440E+04  0.85987017845E+02 0.  0.
         66    2    3    3    0    0 -0.56954497524E+01 -0.28018261234E+02  0.10359139930E+04  0.10363104081E+04  0.20000005066E+01 0.  0.
        -13    1    3    3    0    0  0.56954497524E+01  0.28018261234E+02  0.14893140835E+03  0.15165103583E+03  0.10566000000E+00 0.  1.
         13    1    4    4    0    0 -0.29519074678E+01 -0.17644246596E+02  0.66544715213E+03  0.66568758185E+03  0.10566000000E+00 0. -1.
        -13    1    4    4    0    0 -0.94603229625E+00 -0.28408526387E+01  0.96001418932E+02  0.96048159908E+02  0.10566000000E+00 0.  1.
         14    1    4    4    0    0 -0.17975099884E+01 -0.75331619997E+01  0.27446542194E+03  0.27457466637E+03  0.00000000000E+00 0. -1.
<mgrwt>
<rscale>  0 0.85987018E+02</rscale>
<asrwt>0</asrwt>
<pdfrwt beam="1">  1        2 0.18252329E+00 0.85987018E+02</pdfrwt>
<pdfrwt beam="2">  1       -1 0.23969600E-03 0.85987018E+02</pdfrwt>
<totfact> 0.29065471E+05</totfact>
</mgrwt>
</event>
<event>
 8    1  0.1226832E-020  0.8018715E+02  0.7818608E-02  0.1328521E+00
         -1   -1    0    0    0  501 -0.00000000000E+00  0.00000000000E+00  0.63276821310E+01  0.63276841381E+01  0.50400000000E-02 0.  1.
          2   -1    0    0  501    0  0.00000000000E+00 -0.00000000000E+00 -0.25404157709E+03  0.25404157710E+03  0.25500000000E-02 0. -1.
         24    2    1    2    0    0  0.17763568394E-14  0.00000000000E+00 -0.24771389496E+03  0.26036926124E+03  0.80187146373E+02 0.  0.
         66    2    3    3    0    0 -0.12124451263E+02 -0.16699731527E+02 -0.23545397016E+03  0.23636508928E+03  0.20000037315E+01 0.  0.
        -13    1    3    3    0    0  0.12124451263E+02  0.16699731527E+02 -0.12259924803E+02  0.24004171965E+02  0.10566000000E+00 0.  1.
         13    1    4    4    0    0 -0.77948577138E+01 -0.10259297126E+02 -0.13750159926E+03  0.13810399686E+03  0.10566000000E+00 0.  1.
        -13    1    4    4    0    0 -0.76148456164E+00 -0.15329748450E+01 -0.22081748151E+02  0.22148242279E+02  0.10566000000E+00 0. -1.
         14    1    4    4    0    0 -0.35681089878E+01 -0.49074595558E+01 -0.75870622745E+02  0.76112850143E+02  0.00000000000E+00 0. -1.
<mgrwt>
<rscale>  0 0.80187146E+02</rscale>
<asrwt>0</asrwt>
<pdfrwt beam="1">  1        2 0.39083312E-01 0.80187146E+02</pdfrwt>
<pdfrwt beam="2">  1       -1 0.97348991E-03 0.80187146E+02</pdfrwt>
<totfact> 0.23858969E+05</totfact>
</mgrwt>
</event>
<event>
 8    1  0.1226832E-020  0.7578096E+02  0.7818608E-02  0.1341470E+00
          2   -1    0    0  501    0  0.00000000000E+00  0.00000000000E+00  0.17476239628E+03  0.17476239630E+03  0.25500000000E-02 0. -1.
         -1   -1    0    0    0  501 -0.00000000000E+00 -0.00000000000E+00 -0.82150863186E+01  0.82150878646E+01  0.50400000000E-02 0.  1.
         24    2    1    2    0    0  0.00000000000E+00 -0.35527136788E-14  0.16654730996E+03  0.18297748416E+03  0.75780955756E+02 0.  0.
         66    2    3    3    0    0 -0.14778970061E+02 -0.19785251222E+02  0.15263431771E+03  0.15463217345E+03  0.20000002050E+01 0.  0.
        -13    1    3    3    0    0  0.14778970061E+02  0.19785251222E+02  0.13912992250E+02  0.28345310713E+02  0.10566000000E+00 0.  1.
         13    1    4    4    0    0 -0.77675820699E+01 -0.10783916249E+02  0.77698372804E+02  0.78826876643E+02  0.10566000000E+00 0. -1.
        -13    1    4    4    0    0 -0.10618631538E+01 -0.99960185438E+00  0.83885433307E+01  0.85150208732E+01  0.10566000000E+00 0.  1.
         14    1    4    4    0    0 -0.59495248378E+01 -0.80017331186E+01  0.66547401577E+02  0.67290275935E+02  0.00000000000E+00 0. -1.
<mgrwt>
<rscale>  0 0.75780956E+02</rscale>
<asrwt>0</asrwt>
<pdfrwt beam="1">  1        2 0.26886522E-01 0.75780956E+02</pdfrwt>
<pdfrwt beam="2">  1       -1 0.12638596E-02 0.75780956E+02</pdfrwt>
<totfact> 0.24298996E+05</totfact>
</mgrwt>
</event>
<event>
 8    1  0.1226832E-020  0.7558111E+02  0.7818608E-02  0.1342081E+00
         -1   -1    0    0    0  501 -0.00000000000E+00  0.00000000000E+00  0.55808099893E+01  0.55808122651E+01  0.50400000000E-02 0.  1.
          2   -1    0    0  501    0  0.00000000000E+00 -0.00000000000E+00 -0.25589933762E+03  0.25589933763E+03  0.25500000000E-02 0. -1.
         24    2    1    2    0    0  0.35527136788E-14  0.35527136788E-14 -0.25031852763E+03  0.26148014989E+03  0.75581105544E+02 0.  0.
         66    2    3    3    0    0  0.23844777522E+02  0.27046333538E+02 -0.16408722482E+03  0.16801397248E+03  0.20000064640E+01 0.  0.
        -13    1    3    3    0    0 -0.23844777522E+02 -0.27046333538E+02 -0.86231302806E+02  0.93466177415E+02  0.10566000000E+00 0.  1.
         13    1    4    4    0    0  0.29267420847E+01  0.28628630561E+01 -0.16744550340E+02  0.17238124441E+02  0.10566000000E+00 0. -1.
        -13    1    4    4    0    0  0.93014478732E+01  0.10306840615E+02 -0.65947353682E+02  0.67392970833E+02  0.10566000000E+00 0.  1.
         14    1    4    4    0    0  0.11616587564E+02  0.13876629867E+02 -0.81395320799E+02  0.83382877206E+02  0.00000000000E+00 0. -1.
<mgrwt>
<rscale>  0 0.75581106E+02</rscale>
<asrwt>0</asrwt>
<pdfrwt beam="1">  1        2 0.39369120E-01 0.75581106E+02</pdfrwt>
<pdfrwt beam="2">  1       -1 0.85858653E-03 0.75581106E+02</pdfrwt>
<totfact> 0.27932848E+05</totfact>
</mgrwt>
</event>
<event>
 8    1  0.1226832E-020  0.8121890E+02  0.7818608E-02  0.1325628E+00
          2   -1    0    0  501    0  0.00000000000E+00  0.00000000000E+00  0.12726326644E+02  0.12726326899E+02  0.25500000000E-02 0. -1.
         -1   -1    0    0    0  501 -0.00000000000E+00 -0.00000000000E+00 -0.12958391386E+03  0.12958391396E+03  0.50400000000E-02 0.  1.
         24    2    1    2    0    0  0.00000000000E+00  0.00000000000E+00 -0.11685758721E+03  0.14231024086E+03  0.81218895356E+02 0.  0.
         66    2    3    3    0    0 -0.35246378408E+02 -0.93371337664E+01 -0.27236289222E+02  0.45555512415E+02  0.20000007403E+01 0.  0.
        -13    1    3    3    0    0  0.35246378408E+02  0.93371337664E+01 -0.89621297992E+02  0.96754728441E+02  0.10566000000E+00 0.  1.
         13    1    4    4    0    0 -0.19874875931E+02 -0.53837852265E+01 -0.15166797217E+02  0.25574181091E+02  0.10566000000E+00 0. -1.
        -13    1    4    4    0    0 -0.13600433212E+02 -0.32166894079E+01 -0.10996107610E+02  0.17783262381E+02  0.10566000000E+00 0.  1.
        -14    1    4    4    0    0 -0.17710692650E+01 -0.73665913207E+00 -0.10733843958E+01  0.21980689433E+01  0.00000000000E+00 0.  1.
<mgrwt>
<rscale>  0 0.81218895E+02</rscale>
<asrwt>0</asrwt>
<pdfrwt beam="1">  1        2 0.19578965E-02 0.81218895E+02</pdfrwt>
<pdfrwt beam="2">  1       -1 0.19935986E-01 0.81218895E+02</pdfrwt>
<totfact> 0.10764765E+05</totfact>
</mgrwt>
</event>
<event>
 8    1  0.1226832E-020  0.8043895E+02  0.7818608E-02  0.1327810E+00
         -1   -1    0    0    0  501 -0.00000000000E+00  0.00000000000E+00  0.90270842583E+02  0.90270842724E+02  0.50400000000E-02 0.  1.
          2   -1    0    0  501    0  0.00000000000E+00 -0.00000000000E+00 -0.17919473656E+02  0.17919473838E+02  0.25500000000E-02 0. -1.
         24    2    1    2    0    0  0.35527136788E-14  0.00000000000E+00  0.72351368927E+02  0.10819031656E+03  0.80438945866E+02 0.  0.
         66    2    3    3    0    0  0.18304613308E+02 -0.35545901727E+02  0.30647351854E+02  0.50416566449E+02  0.19999997363E+01 0.  0.
        -13    1    3    3    0    0 -0.18304613308E+02  0.35545901727E+02  0.41704017073E+02  0.57773750112E+02  0.10566000000E+00 0.  1.
         13    1    4    4    0    0  0.99574883349E+00 -0.19672943733E+01  0.17218525257E+01  0.27995897997E+01  0.10566000000E+00 0. -1.
        -13    1    4    4    0    0  0.10056020541E+02 -0.18473409093E+02  0.17113053003E+02  0.27115643819E+02  0.10566000000E+00 0.  1.
        -14    1    4    4    0    0  0.72528439340E+01 -0.15105198261E+02  0.11812446325E+02  0.20501332830E+02  0.00000000000E+00 0.  1.
<mgrwt>
<rscale>  0 0.80438946E+02</rscale>
<asrwt>0</asrwt>
<pdfrwt beam="1">  1        2 0.27568421E-02 0.80438946E+02</pdfrwt>
<pdfrwt beam="2">  1       -1 0.13887822E-01 0.80438946E+02</pdfrwt>
<totfact> 0.11948561E+05</totfact>
</mgrwt>
</event>
<event>
 8    1  0.1226832E-020  0.7836686E+02  0.7818608E-02  0.1333751E+00
         -1   -1    0    0    0  501 -0.00000000000E+00  0.00000000000E+00  0.57174475828E+03  0.57174475830E+03  0.50400000000E-02 0.  1.
          2   -1    0    0  501    0  0.00000000000E+00 -0.00000000000E+00 -0.26853607561E+01  0.26853619669E+01  0.25500000000E-02 0. -1.
         24    2    1    2    0    0  0.00000000000E+00  0.00000000000E+00  0.56905939752E+03  0.57443012027E+03  0.78366862653E+02 0.  0.
         66    2    3    3    0    0  0.13579379427E+02 -0.35377964918E+02  0.35703183481E+03  0.35904279830E+03  0.20000003283E+01 0.  0.
        -13    1    3    3    0    0 -0.13579379427E+02  0.35377964918E+02  0.21202756272E+03  0.21538732196E+03  0.10566000000E+00 0.  1.
         13    1    4    4    0    0  0.99045378782E+01 -0.24359074815E+02  0.24826592747E+03  0.24965465407E+03  0.10566000000E+00 0. -1.
        -13    1    4    4    0    0  0.78349896866E+00 -0.33702278070E+01  0.30101852260E+02  0.30300247188E+02  0.10566000000E+00 0.  1.
        -14    1    4    4    0    0  0.28913425800E+01 -0.76486622965E+01  0.78664055080E+02  0.79087897042E+02  0.00000000000E+00 0.  1.
<mgrwt>
<rscale>  0 0.78366863E+02</rscale>
<asrwt>0</asrwt>
<pdfrwt beam="1">  1        2 0.41313238E-03 0.78366863E+02</pdfrwt>
<pdfrwt beam="2">  1       -1 0.87960761E-01 0.78366863E+02</pdfrwt>
<totfact> 0.64443029E+04</totfact>
</mgrwt>
</event>
<event>
 8    1  0.1226832E-020  0.8029030E+02  0.7818608E-02  0.1328230E+00
          2   -1    0    0  501    0  0.00000000000E+00  0.00000000000E+00  0.14305398474E+03  0.14305398476E+03  0.25500000000E-02 0. -1.
         -1   -1    0    0    0  501 -0.00000000000E+00 -0.00000000000E+00 -0.11265908860E+02  0.11265909988E+02  0.50400000000E-02 0.  1.
         24    2    1    2    0    0  0.00000000000E+00  0.00000000000E+00  0.13178807588E+03  0.15431989475E+03  0.80290304343E+02 0.  0.
         66    2    3    3    0    0  0.27450924815E+02  0.12742585350E+02  0.11655749091E+03  0.12043909433E+03  0.20000002652E+01 0.  0.
        -13    1    3    3    0    0 -0.27450924815E+02 -0.12742585350E+02  0.15230584971E+02  0.33880800422E+02  0.10566000000E+00 0.  1.
         13    1    4    4    0    0  0.31158577444E+01  0.15666074211E+01  0.15772564140E+02  0.16153877920E+02  0.10566000000E+00 0. -1.
        -13    1    4    4    0    0  0.18244890719E+01  0.67169154373E+00  0.68708362427E+01  0.71413923441E+01  0.10566000000E+00 0.  1.
         14    1    4    4    0    0  0.22510577999E+02  0.10504286385E+02  0.93914090524E+02  0.97143824062E+02  0.00000000000E+00 0. -1.
<mgrwt>
<rscale>  0 0.80290304E+02</rscale>
<asrwt>0</asrwt>
<pdfrwt beam="1">  1        2 0.22008306E-01 0.80290304E+02</pdfrwt>
<pdfrwt beam="2">  1       -1 0.17332168E-02 0.80290304E+02</pdfrwt>
<totfact> 0.19539526E+05</totfact>
</mgrwt>
</event>
<event>
 8    1  0.1226832E-020  0.7753884E+02  0.7818608E-02  0.1336185E+00
         -1   -1    0    0    0  501 -0.00000000000E+00  0.00000000000E+00  0.58912445452E+01  0.58912467011E+01  0.50400000000E-02 0.  1.
          2   -1    0    0  501    0  0.00000000000E+00 -0.00000000000E+00 -0.25513582060E+03  0.25513582061E+03  0.25500000000E-02 0. -1.
         24    2    1    2    0    0  0.00000000000E+00 -0.17763568394E-14 -0.24924457606E+03  0.26102706732E+03  0.77538836577E+02 0.  0.
         66    2    3    3    0    0 -0.16984917165E+02  0.96240551959E+01 -0.23736403995E+03  0.23817388041E+03  0.19999998891E+01 0.  0.
        -13    1    3    3    0    0  0.16984917165E+02 -0.96240551959E+01 -0.11880536110E+02  0.22853186907E+02  0.10566000000E+00 0.  1.
         13    1    4    4    0    0 -0.94404207502E+01  0.60375378149E+01 -0.14075454233E+03  0.14119994957E+03  0.10566000000E+00 0. -1.
        -13    1    4    4    0    0 -0.23916896003E+00  0.77635457260E-02 -0.34845398301E+01  0.34943445633E+01  0.10566000000E+00 0.  1.
         14    1    4    4    0    0 -0.73053274547E+01  0.35787538353E+01 -0.93124957783E+02  0.93479586276E+02  0.00000000000E+00 0. -1.
<mgrwt>
<rscale>  0 0.77538837E+02</rscale>
<asrwt>0</asrwt>
<pdfrwt beam="1">  1        2 0.39251656E-01 0.77538837E+02</pdfrwt>
<pdfrwt beam="2">  1       -1 0.90634568E-03 0.77538837E+02</pdfrwt>
<totfact> 0.26097334E+05</totfact>
</mgrwt>
</event>
<event>
 8    1  0.1226832E-020  0.8348625E+02  0.7818608E-02  0.1319439E+00
         -1   -1    0    0    0  501 -0.00000000000E+00  0.00000000000E+00  0.53909339053E+01  0.53909362613E+01  0.50400000000E-02 0.  1.
          2   -1    0    0  501    0  0.00000000000E+00 -0.00000000000E+00 -0.32322568045E+03  0.32322568046E+03  0.25500000000E-02 0. -1.
         24    2    1    2    0    0  0.00000000000E+00  0.00000000000E+00 -0.31783474654E+03  0.32861661672E+03  0.83486254403E+02 0.  0.
         66    2    3    3    0    0 -0.54130336653E+01 -0.20187734767E+02 -0.30112762137E+03  0.30185872510E+03  0.19999993931E+01 0.  0.
        -13    1    3    3    0    0  0.54130336653E+01  0.20187734767E+02 -0.16707125175E+02  0.26757891623E+02  0.10566000000E+00 0.  1.
         13    1    4    4    0    0 -0.80256119445E+00 -0.51413175673E+01 -0.69839043765E+02  0.70032709850E+02  0.10566000000E+00 0. -1.
        -13    1    4    4    0    0 -0.25521545265E+01 -0.79847889489E+01 -0.11518935957E+03  0.11549402612E+03  0.10566000000E+00 0.  1.
        -14    1    4    4    0    0 -0.20583179444E+01 -0.70616282504E+01 -0.11609921803E+03  0.11633198913E+03  0.00000000000E+00 0.  1.
<mgrwt>
<rscale>  0 0.83486254E+02</rscale>
<asrwt>0</asrwt>
<pdfrwt beam="1">  1        2 0.49727013E-01 0.83486254E+02</pdfrwt>
<pdfrwt beam="2">  1       -1 0.82937488E-03 0.83486254E+02</pdfrwt>
<totfact> 0.23416725E+05</totfact>
</mgrwt>
</event>
<event>
 8    1  0.1226832E-020  0.8165211E+02  0.7818608E-02  0.1324427E+00
          2   -1    0    0  501    0  0.00000000000E+00  0.00000000000E+00  0.60474181758E+02  0.60474181811E+02  0.25500000000E-02 0. -1.
         -1   -1    0    0    0  501 -0.00000000000E+00 -0.00000000000E+00 -0.27561622485E+02  0.27561622945E+02  0.50400000000E-02 0.  1.
         24    2    1    2    0    0  0.88817841970E-15  0.35527136788E-14  0.32912559273E+02  0.88035804757E+02  0.81652105676E+02 0.  0.
         66    2    3    3    0    0  0.75015490845E+01 -0.20684296237E+02  0.53513054364E+02  0.57894389536E+02  0.20000007366E+01 0.  0.
        -13    1    3    3    0    0 -0.75015490845E+01  0.20684296237E+02 -0.20600495091E+02  0.30141415221E+02  0.10566000000E+00 0.  1.
         13    1    4    4    0    0  0.45210657371E+01 -0.13093097610E+02  0.32232371460E+02  0.35082847296E+02  0.10566000000E+00 0. -1.
        -13    1    4    4    0    0  0.25441894166E+00 -0.17271559507E+01  0.44912985834E+01  0.48198261044E+01  0.10566000000E+00 0.  1.
        -14    1    4    4    0    0  0.27260644057E+01 -0.58640426757E+01  0.16789384321E+02  0.17991716136E+02  0.00000000000E+00 0.  1.
<mgrwt>
<rscale>  0 0.81652106E+02</rscale>
<asrwt>0</asrwt>
<pdfrwt beam="1">  1        2 0.93037202E-02 0.81652106E+02</pdfrwt>
<pdfrwt beam="2">  1       -1 0.42402497E-02 0.81652106E+02</pdfrwt>
<totfact> 0.14750045E+05</totfact>
</mgrwt>
</event>
<event>
 8    1  0.1226832E-020  0.7807534E+02  0.7818608E-02  0.1334604E+00
         -1   -1    0    0    0  501 -0.00000000000E+00  0.00000000000E+00  0.92724710883E+01  0.92724724581E+01  0.50400000000E-02 0.  1.
          2   -1    0    0  501    0  0.00000000000E+00 -0.00000000000E+00 -0.16435095041E+03  0.16435095043E+03  0.25500000000E-02 0. -1.
         24    2    1    2    0    0  0.00000000000E+00  0.00000000000E+00 -0.15507847932E+03  0.17362342289E+03  0.78075336865E+02 0.  0.
         66    2    3    3    0    0 -0.13521238341E+02 -0.29627608756E+02 -0.12535318661E+03  0.12953007557E+03  0.19999991598E+01 0.  0.
        -13    1    3    3    0    0  0.13521238341E+02  0.29627608756E+02 -0.29725292708E+02  0.44093347315E+02  0.10566000000E+00 0.  1.
         13    1    4    4    0    0 -0.26256629549E+01 -0.51434817727E+01 -0.24398940251E+02  0.25073271827E+02  0.10566000000E+00 0. -1.
        -13    1    4    4    0    0 -0.71147010252E+01 -0.14841528385E+02 -0.63068125022E+02  0.65180437965E+02  0.10566000000E+00 0.  1.
        -14    1    4    4    0    0 -0.37808743613E+01 -0.96425985980E+01 -0.37886121340E+02  0.39276365780E+02  0.00000000000E+00 0.  1.
<mgrwt>
<rscale>  0 0.78075337E+02</rscale>
<asrwt>0</asrwt>
<pdfrwt beam="1">  1        2 0.25284760E-01 0.78075337E+02</pdfrwt>
<pdfrwt beam="2">  1       -1 0.14265342E-02 0.78075337E+02</pdfrwt>
<totfact> 0.22009508E+05</totfact>
</mgrwt>
</event>
<event>
 8    1  0.1226832E-020  0.8027495E+02  0.7818608E-02  0.1328273E+00
         -1   -1    0    0    0  501 -0.00000000000E+00  0.00000000000E+00  0.10019362790E+02  0.10019364058E+02  0.50400000000E-02 0.  1.
          2   -1    0    0  501    0  0.00000000000E+00 -0.00000000000E+00 -0.16079033277E+03  0.16079033279E+03  0.25500000000E-02 0. -1.
         24    2    1    2    0    0  0.00000000000E+00  0.35527136788E-14 -0.15077096998E+03  0.17080969685E+03  0.80274947204E+02 0.  0.
         66    2    3    3    0    0 -0.29975219346E+02 -0.25768823349E+02 -0.89936528080E+02  0.98260496184E+02  0.19999989016E+01 0.  0.
        -13    1    3    3    0    0  0.29975219346E+02  0.25768823349E+02 -0.60834441901E+02  0.72549200665E+02  0.10566000000E+00 0.  1.
         13    1    4    4    0    0 -0.11858474370E+02 -0.97680859899E+01 -0.34355809589E+02  0.37634714492E+02  0.10566000000E+00 0. -1.
        -13    1    4    4    0    0 -0.25496204244E+00 -0.40994108677E+00 -0.14017462597E+01  0.14863088340E+01  0.10566000000E+00 0.  1.
         14    1    4    4    0    0 -0.17861782934E+02 -0.15590796272E+02 -0.54178972230E+02  0.59139472858E+02  0.00000000000E+00 0. -1.
<mgrwt>
<rscale>  0 0.80274947E+02</rscale>
<asrwt>0</asrwt>
<pdfrwt beam="1">  1        2 0.24736972E-01 0.80274947E+02</pdfrwt>
<pdfrwt beam="2">  1       -1 0.15414407E-02 0.80274947E+02</pdfrwt>
<totfact> 0.20302547E+05</totfact>
</mgrwt>
</event>
<event>
 8    1  0.1226832E-020  0.7726670E+02  0.7818608E-02  0.1336992E+00
          2   -1    0    0  501    0  0.00000000000E+00  0.00000000000E+00  0.14355333607E+03  0.14355333609E+03  0.25500000000E-02 0. -1.
         -1   -1    0    0    0  501 -0.00000000000E+00 -0.00000000000E+00 -0.10397080621E+02  0.10397081842E+02  0.50400000000E-02 0.  1.
         24    2    1    2    0    0  0.35527136788E-14  0.35527136788E-14  0.13315625545E+03  0.15395041794E+03  0.77266699277E+02 0.  0.
         66    2    3    3    0    0  0.27364619736E+02  0.17598344179E+02  0.10803532898E+03  0.11284571940E+03  0.19999868270E+01 0.  0.
        -13    1    3    3    0    0 -0.27364619736E+02 -0.17598344179E+02  0.25120926469E+02  0.41104698538E+02  0.10566000000E+00 0.  1.
         13    1    4    4    0    0  0.15037913815E+02  0.90078845861E+01  0.56656561840E+02  0.59306475196E+02  0.10566000000E+00 0. -1.
        -13    1    4    4    0    0  0.75737368296E+01  0.49885576047E+01  0.32410651975E+02  0.33655738323E+02  0.10566000000E+00 0.  1.
         14    1    4    4    0    0  0.47529690921E+01  0.36019019886E+01  0.18968115165E+02  0.19883505879E+02  0.00000000000E+00 0. -1.
<mgrwt>
<rscale>  0 0.77266699E+02</rscale>
<asrwt>0</asrwt>
<pdfrwt beam="1">  1        2 0.22085127E-01 0.77266699E+02</pdfrwt>
<pdfrwt beam="2">  1       -1 0.15995511E-02 0.77266699E+02</pdfrwt>
<totfact> 0.21656883E+05</totfact>
</mgrwt>
</event>
<event>
 8    1  0.1226832E-020  0.7878799E+02  0.7818608E-02  0.1332527E+00
          2   -1    0    0  501    0  0.00000000000E+00  0.00000000000E+00  0.68292387848E+02  0.68292387895E+02  0.25500000000E-02 0. -1.
         -1   -1    0    0    0  501 -0.00000000000E+00 -0.00000000000E+00 -0.22724154635E+02  0.22724155194E+02  0.50400000000E-02 0.  1.
         24    2    1    2    0    0 -0.22204460493E-15  0.71054273576E-14  0.45568233212E+02  0.91016543090E+02  0.78787989173E+02 0.  0.
         66    2    3    3    0    0  0.19315405182E+01  0.34729097221E+02  0.44101025600E+02  0.56202682275E+02  0.19999983427E+01 0.  0.
        -13    1    3    3    0    0 -0.19315405182E+01 -0.34729097221E+02  0.14672076118E+01  0.34813860814E+02  0.10566000000E+00 0.  1.
         13    1    4    4    0    0  0.34521208396E+00  0.23838665640E+01  0.37039520153E+01  0.44195492694E+01  0.10566000000E+00 0. -1.
        -13    1    4    4    0    0  0.92684687766E-01  0.41861320285E+01  0.48042043119E+01  0.63736829947E+01  0.10566000000E+00 0.  1.
         14    1    4    4    0    0  0.14936437465E+01  0.28159098629E+02  0.35592869273E+02  0.45409450011E+02  0.00000000000E+00 0. -1.
<mgrwt>
<rscale>  0 0.78787989E+02</rscale>
<asrwt>0</asrwt>
<pdfrwt beam="1">  1        2 0.10506521E-01 0.78787989E+02</pdfrwt>
<pdfrwt beam="2">  1       -1 0.34960239E-02 0.78787989E+02</pdfrwt>
<totfact> 0.16726842E+05</totfact>
</mgrwt>
</event>
<event>
 8    1  0.1226832E-020  0.7998314E+02  0.7818608E-02  0.1329099E+00
         -1   -1    0    0    0  501 -0.00000000000E+00  0.00000000000E+00  0.21134521011E+01  0.21134581106E+01  0.50400000000E-02 0.  1.
          2   -1    0    0  501    0  0.00000000000E+00 -0.00000000000E+00 -0.75673511409E+03  0.75673511409E+03  0.25500000000E-02 0. -1.
         24    2    1    2    0    0  0.00000000000E+00  0.00000000000E+00 -0.75462166199E+03  0.75884857220E+03  0.79983140689E+02 0.  0.
         66    2    3    3    0    0  0.24104719592E+01  0.33426113583E+02 -0.58415063399E+03  0.58511458591E+03  0.20000011367E+01 0.  0.
        -13    1    3    3    0    0 -0.24104719592E+01 -0.33426113583E+02 -0.17047102800E+03  0.17373398630E+03  0.10566000000E+00 0.  1.
         13    1    4    4    0    0  0.85194383832E+00  0.12806722466E+02 -0.23573636377E+03  0.23608554026E+03  0.10566000000E+00 0. -1.
        -13    1    4    4    0    0 -0.65355423240E-01  0.14808189567E+01 -0.28463532631E+02  0.28502297276E+02  0.10566000000E+00 0.  1.
         14    1    4    4    0    0  0.16238835441E+01  0.19138572160E+02 -0.31995073759E+03  0.32052674838E+03  0.00000000000E+00 0. -1.
<mgrwt>
<rscale>  0 0.79983141E+02</rscale>
<asrwt>0</asrwt>
<pdfrwt beam="1">  1        2 0.11642057E+00 0.79983141E+02</pdfrwt>
<pdfrwt beam="2">  1       -1 0.32514754E-03 0.79983141E+02</pdfrwt>
<totfact> 0.34032044E+05</totfact>
</mgrwt>
</event>
<event>
 8    1  0.1226832E-020  0.7986324E+02  0.7818608E-02  0.1329440E+00
          2   -1    0    0  501    0  0.00000000000E+00  0.00000000000E+00  0.27799490675E+03  0.27799490676E+03  0.25500000000E-02 0. -1.
         -1   -1    0    0    0  501 -0.00000000000E+00 -0.00000000000E+00 -0.57358384322E+01  0.57358406465E+01  0.50400000000E-02 0.  1.
         24    2    1    2    0    0  0.88817841970E-15  0.17763568394E-14  0.27225906832E+03  0.28373074741E+03  0.79863237748E+02 0.  0.
         66    2    3    3    0    0  0.78899620800E+01  0.15130259206E+02  0.26437601006E+03  0.26493367272E+03  0.20000000175E+01 0.  0.
        -13    1    3    3    0    0 -0.78899620800E+01 -0.15130259206E+02  0.78830582545E+01  0.18797074686E+02  0.10566000000E+00 0.  1.
         13    1    4    4    0    0  0.13759369336E+01  0.29565962963E+01  0.54366198823E+02  0.54464019339E+02  0.10566000000E+00 0. -1.
        -13    1    4    4    0    0  0.33706561863E+01  0.76812366209E+01  0.11977584486E+03  0.12006925874E+03  0.10566000000E+00 0.  1.
        -14    1    4    4    0    0  0.31433689602E+01  0.44924262885E+01  0.90233966385E+02  0.90400394645E+02  0.00000000000E+00 0.  1.
<mgrwt>
<rscale>  0 0.79863238E+02</rscale>
<asrwt>0</asrwt>
<pdfrwt beam="1">  1        2 0.42768432E-01 0.79863238E+02</pdfrwt>
<pdfrwt beam="2">  1       -1 0.88243716E-03 0.79863238E+02</pdfrwt>
<totfact> 0.24912137E+05</totfact>
</mgrwt>
</event>
<event>
 8    1  0.1226832E-020  0.7960375E+02  0.7818608E-02  0.1330180E+00
         -1   -1    0    0    0  501 -0.00000000000E+00  0.00000000000E+00  0.92916242853E+01  0.92916256522E+01  0.50400000000E-02 0.  1.
          2   -1    0    0  501    0  0.00000000000E+00 -0.00000000000E+00 -0.17049646021E+03  0.17049646023E+03  0.25500000000E-02 0. -1.
         24    2    1    2    0    0  0.00000000000E+00  0.00000000000E+00 -0.16120483593E+03  0.17978808588E+03  0.79603748023E+02 0.  0.
         66    2    3    3    0    0 -0.20396809361E+01 -0.26245636373E+02 -0.14800116989E+03  0.15033742056E+03  0.20000012306E+01 0.  0.
        -13    1    3    3    0    0  0.20396809361E+01  0.26245636373E+02 -0.13203666032E+02  0.29450665318E+02  0.10566000000E+00 0.  1.
         13    1    4    4    0    0 -0.12724176241E+01 -0.19441672967E+02 -0.11236862362E+03  0.11404523854E+03  0.10566000000E+00 0. -1.
        -13    1    4    4    0    0 -0.59183049878E+00 -0.47030781971E+01 -0.26357798415E+02  0.26780849673E+02  0.10566000000E+00 0.  1.
        -14    1    4    4    0    0 -0.17543281332E+00 -0.21008852092E+01 -0.92747478549E+01  0.95113323518E+01  0.00000000000E+00 0.  1.
<mgrwt>
<rscale>  0 0.79603748E+02</rscale>
<asrwt>0</asrwt>
<pdfrwt beam="1">  1        2 0.26230222E-01 0.79603748E+02</pdfrwt>
<pdfrwt beam="2">  1       -1 0.14294809E-02 0.79603748E+02</pdfrwt>
<totfact> 0.21165916E+05</totfact>
</mgrwt>
</event>
<event>
 8    1  0.1226832E-020  0.7998353E+02  0.7818608E-02  0.1329098E+00
         -1   -1    0    0    0  501 -0.00000000000E+00  0.00000000000E+00  0.12423978928E+03  0.12423978938E+03  0.50400000000E-02 0.  1.
          2   -1    0    0  501    0  0.00000000000E+00 -0.00000000000E+00 -0.12873019776E+02  0.12873020029E+02  0.25500000000E-02 0. -1.
         24    2    1    2    0    0  0.00000000000E+00  0.00000000000E+00  0.11136676950E+03  0.13711280941E+03  0.79983530521E+02 0.  0.
         66    2    3    3    0    0  0.31430642119E+02  0.21262445259E+02  0.77222335247E+02  0.86065474541E+02  0.20000011379E+01 0.  0.
        -13    1    3    3    0    0 -0.31430642119E+02 -0.21262445259E+02  0.34144434253E+02  0.51047334866E+02  0.10566000000E+00 0.  1.
         13    1    4    4    0    0  0.78133139089E+01  0.44889078551E+01  0.17996490793E+02  0.20126674163E+02  0.10566000000E+00 0. -1.
        -13    1    4    4    0    0  0.47107733971E+01  0.38153103379E+01  0.12028027818E+02  0.13469691763E+02  0.10566000000E+00 0.  1.
         14    1    4    4    0    0  0.18906554814E+02  0.12958227066E+02  0.47197816637E+02  0.52469108615E+02  0.00000000000E+00 0. -1.
<mgrwt>
<rscale>  0 0.79983531E+02</rscale>
<asrwt>0</asrwt>
<pdfrwt beam="1">  1        2 0.19804645E-02 0.79983531E+02</pdfrwt>
<pdfrwt beam="2">  1       -1 0.19113815E-01 0.79983531E+02</pdfrwt>
<totfact> 0.11299379E+05</totfact>
</mgrwt>
</event>
<event>
 8    1  0.1226832E-020  0.8106398E+02  0.7818608E-02  0.1326059E+00
         -1   -1    0    0    0  501 -0.00000000000E+00  0.00000000000E+00  0.15551802456E+01  0.15551884123E+01  0.50400000000E-02 0.  1.
          2   -1    0    0  501    0  0.00000000000E+00 -0.00000000000E+00 -0.10563649412E+04  0.10563649412E+04  0.25500000000E-02 0. -1.
         24    2    1    2    0    0  0.00000000000E+00  0.44408920985E-15 -0.10548097610E+04  0.10579201297E+04  0.81063979923E+02 0.  0.
         66    2    3    3    0    0  0.29058840493E+02  0.39570403284E+01 -0.89238199594E+03  0.89286600398E+03  0.20000000521E+01 0.  0.
        -13    1    3    3    0    0 -0.29058840493E+02 -0.39570403284E+01 -0.16242776505E+03  0.16505412567E+03  0.10566000000E+00 0.  1.
         13    1    4    4    0    0  0.20258636158E+02  0.33356972744E+01 -0.63685297579E+03  0.63718385350E+03  0.10566000000E+00 0. -1.
        -13    1    4    4    0    0  0.76662657478E+01  0.59119194529E+00 -0.22844354134E+03  0.22857292902E+03  0.10566000000E+00 0.  1.
        -14    1    4    4    0    0  0.11339385873E+01  0.30151108673E-01 -0.27085478810E+02  0.27109221460E+02  0.00000000000E+00 0.  1.
<mgrwt>
<rscale>  0 0.81063980E+02</rscale>
<asrwt>0</asrwt>
<pdfrwt beam="1">  1        2 0.16251711E+00 0.81063980E+02</pdfrwt>
<pdfrwt beam="2">  1       -1 0.23925997E-03 0.81063980E+02</pdfrwt>
<totfact> 0.34083220E+05</totfact>
</mgrwt>
</event>
<event>
 8    1  0.1226832E-020  0.8062439E+02  0.7818608E-02  0.1327289E+00
         -1   -1    0    0    0  501 -0.00000000000E+00  0.00000000000E+00  0.11505322780E+01  0.11505433170E+01  0.50400000000E-02 0.  1.
          2   -1    0    0  501    0  0.00000000000E+00 -0.00000000000E+00 -0.14124464519E+04  0.14124464519E+04  0.25500000000E-02 0. -1.
         24    2    1    2    0    0  0.00000000000E+00  0.00000000000E+00 -0.14112959197E+04  0.14135969952E+04  0.80624389308E+02 0.  0.
         66    2    3    3    0    0 -0.18606779973E+01  0.23880702086E+02 -0.12740344199E+04  0.12742611401E+04  0.19999994711E+01 0.  0.
        -13    1    3    3    0    0  0.18606779973E+01 -0.23880702086E+02 -0.13726149973E+03  0.13933585513E+03  0.10566000000E+00 0.  1.
         13    1    4    4    0    0 -0.26273760607E+00  0.37089310331E+01 -0.21665302954E+03  0.21668495927E+03  0.10566000000E+00 0.  1.
        -13    1    4    4    0    0 -0.18738883009E+01  0.18820324378E+02 -0.97995734407E+03  0.98013984891E+03  0.10566000000E+00 0. -1.
         14    1    4    4    0    0  0.27594790965E+00  0.13514466747E+01 -0.77424046313E+02  0.77436331930E+02  0.00000000000E+00 0. -1.
<mgrwt>
<rscale>  0 0.80624389E+02</rscale>
<asrwt>0</asrwt>
<pdfrwt beam="1">  1        2 0.21729807E+00 0.80624389E+02</pdfrwt>
<pdfrwt beam="2">  1       -1 0.17700695E-03 0.80624389E+02</pdfrwt>
<totfact> 0.33248497E+05</totfact>
</mgrwt>
</event>
<event>
 8    1  0.1226832E-020  0.7992788E+02  0.7818608E-02  0.1329256E+00
         -1   -1    0    0    0  501 -0.00000000000E+00  0.00000000000E+00  0.17421141765E+01  0.17421214670E+01  0.50400000000E-02 0.  1.
          2   -1    0    0  501    0  0.00000000000E+00 -0.00000000000E+00 -0.91676725675E+03  0.91676725675E+03  0.25500000000E-02 0. -1.
         24    2    1    2    0    0  0.00000000000E+00 -0.88817841970E-15 -0.91502514257E+03  0.91850937822E+03  0.79927882103E+02 0.  0.
         66    2    3    3    0    0 -0.30090155870E+02  0.79748324981E+01 -0.74534323363E+03  0.74599567783E+03  0.19999995331E+01 0.  0.
        -13    1    3    3    0    0  0.30090155870E+02 -0.79748324981E+01 -0.16968190894E+03  0.17251370039E+03  0.10566000000E+00 0.  1.
         13    1    4    4    0    0 -0.40263298837E+01  0.14596676487E+01 -0.10744324891E+03  0.10752862345E+03  0.10566000000E+00 0. -1.
        -13    1    4    4    0    0 -0.11071710348E+02  0.32317929818E+01 -0.26110264395E+03  0.26135728247E+03  0.10566000000E+00 0.  1.
         14    1    4    4    0    0 -0.14992115639E+02  0.32833718676E+01 -0.37679734077E+03  0.37710977191E+03  0.00000000000E+00 0. -1.
<mgrwt>
<rscale>  0 0.79927882E+02</rscale>
<asrwt>0</asrwt>
<pdfrwt beam="1">  1        2 0.14104073E+00 0.79927882E+02</pdfrwt>
<pdfrwt beam="2">  1       -1 0.26801886E-03 0.79927882E+02</pdfrwt>
<totfact> 0.35096129E+05</totfact>
</mgrwt>
</event>
<event>
 8    1  0.1226832E-020  0.8020428E+02  0.7818608E-02  0.1328473E+00
         -1   -1    0    0    0  501 -0.00000000000E+00  0.00000000000E+00  0.88000830070E+01  0.88000844502E+01  0.50400000000E-02 0.  1.
          2   -1    0    0  501    0  0.00000000000E+00 -0.00000000000E+00 -0.18274619238E+03  0.18274619239E+03  0.25500000000E-02 0. -1.
         24    2    1    2    0    0  0.35527136788E-14  0.35527136788E-14 -0.17394610937E+03  0.19154627685E+03  0.80204284226E+02 0.  0.
         66    2    3    3    0    0 -0.25008606480E+02 -0.20072143415E+02 -0.14443675081E+03  0.14796721369E+03  0.20000003346E+01 0.  0.
        -13    1    3    3    0    0  0.25008606480E+02  0.20072143415E+02 -0.29509358556E+02  0.43579063158E+02  0.10566000000E+00 0.  1.
         13    1    4    4    0    0 -0.32015076751E+01 -0.26289385137E+01 -0.17693799514E+02  0.18172580290E+02  0.10566000000E+00 0. -1.
        -13    1    4    4    0    0 -0.17316803077E+01 -0.18941000288E+01 -0.13072691040E+02  0.13322640379E+02  0.10566000000E+00 0.  1.
        -14    1    4    4    0    0 -0.20075418497E+02 -0.15549104872E+02 -0.11367026026E+03  0.11647199302E+03  0.00000000000E+00 0.  1.
<mgrwt>
<rscale>  0 0.80204284E+02</rscale>
<asrwt>0</asrwt>
<pdfrwt beam="1">  1        2 0.28114796E-01 0.80204284E+02</pdfrwt>
<pdfrwt beam="2">  1       -1 0.13538592E-02 0.80204284E+02</pdfrwt>
<totfact> 0.21240611E+05</totfact>
</mgrwt>
</event>
<event>
 8    1  0.1226832E-020  0.7793537E+02  0.7818608E-02  0.1335015E+00
          2   -1    0    0  501    0  0.00000000000E+00  0.00000000000E+00  0.33053013365E+02  0.33053013463E+02  0.25500000000E-02 0. -1.
         -1   -1    0    0    0  501 -0.00000000000E+00 -0.00000000000E+00 -0.45940759560E+02  0.45940759837E+02  0.50400000000E-02 0.  1.
         24    2    1    2    0    0  0.00000000000E+00  0.00000000000E+00 -0.12887746195E+02  0.78993773300E+02  0.77935372060E+02 0.  0.
         66    2    3    3    0    0 -0.32843515924E+02  0.84444681903E+01  0.12955279533E+02  0.36357184270E+02  0.19999997553E+01 0.  0.
        -13    1    3    3    0    0  0.32843515924E+02 -0.84444681903E+01 -0.25843025728E+02  0.42636589030E+02  0.10566000000E+00 0.  1.
         13    1    4    4    0    0 -0.50900064032E+01  0.17814114798E+01  0.21671336402E+01  0.58128499289E+01  0.10566000000E+00 0. -1.
        -13    1    4    4    0    0 -0.78213500757E+01  0.25070293970E+01  0.32103697527E+01  0.88190901679E+01  0.10566000000E+00 0.  1.
         14    1    4    4    0    0 -0.19932159445E+02  0.41560273136E+01  0.75777761402E+01  0.21725244174E+02  0.00000000000E+00 0. -1.
<mgrwt>
<rscale>  0 0.77935372E+02</rscale>
<asrwt>0</asrwt>
<pdfrwt beam="1">  1        2 0.50850790E-02 0.77935372E+02</pdfrwt>
<pdfrwt beam="2">  1       -1 0.70678092E-02 0.77935372E+02</pdfrwt>
<totfact> 0.14751536E+05</totfact>
</mgrwt>
</event>
<event>
 8    1  0.1226832E-020  0.7954623E+02  0.7818608E-02  0.1330344E+00
          2   -1    0    0  501    0  0.00000000000E+00  0.00000000000E+00  0.14871672139E+04  0.14871672139E+04  0.25500000000E-02 0. -1.
         -1   -1    0    0    0  501 -0.00000000000E+00 -0.00000000000E+00 -0.10636947377E+01  0.10637066779E+01  0.50400000000E-02 0.  1.
         24    2    1    2    0    0 -0.17763568394E-14 -0.88817841970E-15  0.14861035191E+04  0.14882309205E+04  0.79546233750E+02 0.  0.
         66    2    3    3    0    0  0.11337418722E+02  0.72941781328E+01  0.14430853273E+04  0.14431496818E+04  0.20000010279E+01 0.  0.
        -13    1    3    3    0    0 -0.11337418722E+02 -0.72941781328E+01  0.43018191790E+02  0.45081238745E+02  0.10566000000E+00 0.  1.
         13    1    4    4    0    0  0.24791549474E+01  0.13881330299E+01  0.28544979135E+03  0.28546395161E+03  0.10566000000E+00 0. -1.
        -13    1    4    4    0    0  0.66478589400E+00  0.49092154981E+00  0.53151362562E+02  0.53157891705E+02  0.10566000000E+00 0.  1.
         14    1    4    4    0    0  0.81934778806E+01  0.54151235531E+01  0.11044841734E+04  0.11045278385E+04  0.00000000000E+00 0. -1.
<mgrwt>
<rscale>  0 0.79546234E+02</rscale>
<asrwt>0</asrwt>
<pdfrwt beam="1">  1        2 0.22879482E+00 0.79546234E+02</pdfrwt>
<pdfrwt beam="2">  1       -1 0.16364636E-03 0.79546234E+02</pdfrwt>
<totfact> 0.33854226E+05</totfact>
</mgrwt>
</event>
<event>
 8    1  0.1226832E-020  0.7892329E+02  0.7818608E-02  0.1332135E+00
          2   -1    0    0  501    0  0.00000000000E+00  0.00000000000E+00  0.32821545960E+03  0.32821545961E+03  0.25500000000E-02 0. -1.
         -1   -1    0    0    0  501 -0.00000000000E+00 -0.00000000000E+00 -0.47445080644E+01  0.47445107414E+01  0.50400000000E-02 0.  1.
         24    2    1    2    0    0  0.00000000000E+00  0.00000000000E+00  0.32347095153E+03  0.33295997035E+03  0.78923287875E+02 0.  0.
         66    2    3    3    0    0  0.10539056098E+02 -0.34975782066E+02  0.22453292053E+03  0.22749375691E+03  0.19999990033E+01 0.  0.
        -13    1    3    3    0    0 -0.10539056098E+02  0.34975782066E+02  0.98938031000E+02  0.10546621344E+03  0.10566000000E+00 0.  1.
         13    1    4    4    0    0  0.78148438365E+01 -0.23474928230E+02  0.15269665319E+03  0.15468814790E+03  0.10566000000E+00 0. -1.
        -13    1    4    4    0    0  0.79039960667E+00 -0.41648594766E+01  0.24093931515E+02  0.24464249138E+02  0.10566000000E+00 0.  1.
         14    1    4    4    0    0  0.19338126553E+01 -0.73359943593E+01  0.47742335824E+02  0.48341359875E+02  0.00000000000E+00 0. -1.
<mgrwt>
<rscale>  0 0.78923288E+02</rscale>
<asrwt>0</asrwt>
<pdfrwt beam="1">  1        2 0.50494700E-01 0.78923288E+02</pdfrwt>
<pdfrwt beam="2">  1       -1 0.72992433E-03 0.78923288E+02</pdfrwt>
<totfact> 0.27286305E+05</totfact>
</mgrwt>
</event>
<event>
 8    1  0.1226832E-020  0.7475985E+02  0.7818608E-02  0.1344616E+00
         -1   -1    0    0    0  501 -0.00000000000E+00  0.00000000000E+00  0.91155718471E+01  0.91155732404E+01  0.50400000000E-02 0.  1.
          2   -1    0    0  501    0  0.00000000000E+00 -0.00000000000E+00 -0.15328259358E+03  0.15328259360E+03  0.25500000000E-02 0. -1.
         24    2    1    2    0    0  0.00000000000E+00  0.00000000000E+00 -0.14416702173E+03  0.16239816684E+03  0.74759845092E+02 0.  0.
         66    2    3    3    0    0 -0.32610217159E+02 -0.17442096413E+02 -0.60722655797E+02  0.71125901827E+02  0.19999983046E+01 0.  0.
        -13    1    3    3    0    0  0.32610217159E+02  0.17442096413E+02 -0.83444365937E+02  0.91272265016E+02  0.10566000000E+00 0.  1.
         13    1    4    4    0    0 -0.37955612550E+01 -0.23791920682E+01 -0.78508513325E+01  0.90395724909E+01  0.10566000000E+00 0. -1.
        -13    1    4    4    0    0 -0.26536086457E+02 -0.13557423288E+02 -0.48962317186E+02  0.57317425613E+02  0.10566000000E+00 0.  1.
        -14    1    4    4    0    0 -0.22785694466E+01 -0.15054810571E+01 -0.39094872786E+01  0.47689037229E+01  0.00000000000E+00 0.  1.
<mgrwt>
<rscale>  0 0.74759845E+02</rscale>
<asrwt>0</asrwt>
<pdfrwt beam="1">  1        2 0.23581936E-01 0.74759845E+02</pdfrwt>
<pdfrwt beam="2">  1       -1 0.14023959E-02 0.74759845E+02</pdfrwt>
<totfact> 0.24124119E+05</totfact>
</mgrwt>
</event>
<event>
 8    1  0.1226832E-020  0.7878163E+02  0.7818608E-02  0.1332545E+00
         -1   -1    0    0    0  501 -0.00000000000E+00  0.00000000000E+00  0.15065035645E+01  0.15065119951E+01  0.50400000000E-02 0.  1.
          2   -1    0    0  501    0  0.00000000000E+00 -0.00000000000E+00 -0.10299557647E+04  0.10299557647E+04  0.25500000000E-02 0. -1.
         24    2    1    2    0    0  0.00000000000E+00  0.35527136788E-14 -0.10284492612E+04  0.10314622767E+04  0.78781631879E+02 0.  0.
         66    2    3    3    0    0 -0.11131977537E+02 -0.16208434554E+02 -0.96105124935E+03  0.96125446067E+03  0.20000027635E+01 0.  0.
        -13    1    3    3    0    0  0.11131977537E+02  0.16208434554E+02 -0.67398011814E+02  0.70207816054E+02  0.10566000000E+00 0.  1.
         13    1    4    4    0    0 -0.39825612990E+01 -0.44219857397E+01 -0.28773268215E+03  0.28779423603E+03  0.10566000000E+00 0. -1.
        -13    1    4    4    0    0 -0.10615587655E+00 -0.34887437470E+00 -0.19398562863E+02  0.19402277897E+02  0.10566000000E+00 0.  1.
         14    1    4    4    0    0 -0.70432603613E+01 -0.11437574440E+02 -0.65392000434E+03  0.65405794674E+03  0.00000000000E+00 0. -1.
<mgrwt>
<rscale>  0 0.78781632E+02</rscale>
<asrwt>0</asrwt>
<pdfrwt beam="1">  1        2 0.15845417E+00 0.78781632E+02</pdfrwt>
<pdfrwt beam="2">  1       -1 0.23177125E-03 0.78781632E+02</pdfrwt>
<totfact> 0.36695889E+05</totfact>
</mgrwt>
</event>
<event>
 8    1  0.1226832E-020  0.7889325E+02  0.7818608E-02  0.1332222E+00
          2   -1    0    0  501    0  0.00000000000E+00  0.00000000000E+00  0.10307488170E+03  0.10307488173E+03  0.25500000000E-02 0. -1.
         -1   -1    0    0    0  501 -0.00000000000E+00 -0.00000000000E+00 -0.15096170878E+02  0.15096171719E+02  0.50400000000E-02 0.  1.
         24    2    1    2    0    0  0.71054273576E-14  0.00000000000E+00  0.87978710822E+02  0.11817105345E+03  0.78893246325E+02 0.  0.
         66    2    3    3    0    0  0.38791521657E+02 -0.61178181896E+01  0.49167506655E+02  0.62957553428E+02  0.19999927553E+01 0.  0.
        -13    1    3    3    0    0 -0.38791521657E+02  0.61178181896E+01  0.38811204167E+02  0.55213500023E+02  0.10566000000E+00 0.  1.
         13    1    4    4    0    0  0.13152442117E+02 -0.19473490143E+01  0.16321526579E+02  0.21051895300E+02  0.10566000000E+00 0. -1.
        -13    1    4    4    0    0  0.18671621685E+01  0.86894950536E-01  0.24708550512E+01  0.31000216153E+01  0.10566000000E+00 0.  1.
        -14    1    4    4    0    0  0.23771917372E+02 -0.42573641259E+01  0.30375125025E+02  0.38805636512E+02  0.00000000000E+00 0.  1.
<mgrwt>
<rscale>  0 0.78893246E+02</rscale>
<asrwt>0</asrwt>
<pdfrwt beam="1">  1        2 0.15857674E-01 0.78893246E+02</pdfrwt>
<pdfrwt beam="2">  1       -1 0.23224880E-02 0.78893246E+02</pdfrwt>
<totfact> 0.18556292E+05</totfact>
</mgrwt>
</event>
<event>
 8    1  0.1226832E-020  0.8027483E+02  0.7818608E-02  0.1328273E+00
         -1   -1    0    0    0  501 -0.00000000000E+00  0.00000000000E+00  0.14306366370E+01  0.14306455146E+01  0.50400000000E-02 0.  1.
          2   -1    0    0  501    0  0.00000000000E+00 -0.00000000000E+00 -0.11260769503E+04  0.11260769503E+04  0.25500000000E-02 0. -1.
         24    2    1    2    0    0  0.17763568394E-14  0.27755575616E-16 -0.11246463136E+04  0.11275075958E+04  0.80274826628E+02 0.  0.
         66    2    3    3    0    0  0.10946313836E+02 -0.24864832255E+00 -0.11046789116E+04  0.11047349824E+04  0.19999996505E+01 0.  0.
        -13    1    3    3    0    0 -0.10946313836E+02  0.24864832255E+00 -0.19967402069E+02  0.22772613420E+02  0.10566000000E+00 0.  1.
         13    1    4    4    0    0  0.62806617681E+01  0.60721695779E+00 -0.64347996721E+03  0.64351091272E+03  0.10566000000E+00 0. -1.
        -13    1    4    4    0    0  0.14519414750E+01 -0.61744925556E+00 -0.16633264442E+03  0.16634016094E+03  0.10566000000E+00 0.  1.
        -14    1    4    4    0    0  0.32137105925E+01 -0.23841602479E+00 -0.29486629994E+03  0.29488390871E+03  0.00000000000E+00 0.  1.
<mgrwt>
<rscale>  0 0.80274827E+02</rscale>
<asrwt>0</asrwt>
<pdfrwt beam="1">  1        2 0.17324190E+00 0.80274827E+02</pdfrwt>
<pdfrwt beam="2">  1       -1 0.22009953E-03 0.80274827E+02</pdfrwt>
<totfact> 0.34905378E+05</totfact>
</mgrwt>
</event>
<event>
 8    1  0.1226832E-020  0.7661396E+02  0.7818608E-02  0.1338945E+00
         -1   -1    0    0    0  501 -0.00000000000E+00  0.00000000000E+00  0.45537019149E+01  0.45537047041E+01  0.50400000000E-02 0.  1.
          2   -1    0    0  501    0  0.00000000000E+00 -0.00000000000E+00 -0.32224867648E+03  0.32224867649E+03  0.25500000000E-02 0. -1.
         24    2    1    2    0    0 -0.71054273576E-14  0.22204460493E-15 -0.31769497456E+03  0.32680238119E+03  0.76613964068E+02 0.  0.
         66    2    3    3    0    0 -0.37601795417E+02  0.17067003193E+01 -0.18869602493E+03  0.19242400490E+03  0.19999981719E+01 0.  0.
        -13    1    3    3    0    0  0.37601795417E+02 -0.17067003193E+01 -0.12899894963E+03  0.13437837629E+03  0.10566000000E+00 0.  1.
         13    1    4    4    0    0 -0.19559925800E+02  0.10232059218E+00 -0.97017788487E+02  0.98970013710E+02  0.10566000000E+00 0. -1.
        -13    1    4    4    0    0 -0.63762688532E+01  0.23886058659E+00 -0.33286003798E+02  0.33892227305E+02  0.10566000000E+00 0.  1.
         14    1    4    4    0    0 -0.11665600763E+02  0.13655191405E+01 -0.58392232645E+02  0.59561763884E+02  0.00000000000E+00 0. -1.
<mgrwt>
<rscale>  0 0.76613964E+02</rscale>
<asrwt>0</asrwt>
<pdfrwt beam="1">  1        2 0.49576701E-01 0.76613964E+02</pdfrwt>
<pdfrwt beam="2">  1       -1 0.70057000E-03 0.76613964E+02</pdfrwt>
<totfact> 0.29293031E+05</totfact>
</mgrwt>
</event>
<event>
 8    1  0.1226832E-020  0.7008079E+02  0.7818608E-02  0.1359819E+00
         -1   -1    0    0    0  501 -0.00000000000E+00  0.00000000000E+00  0.29857059156E+01  0.29857101694E+01  0.50400000000E-02 0.  1.
          2   -1    0    0  501    0  0.00000000000E+00 -0.00000000000E+00 -0.41123559062E+03  0.41123559063E+03  0.25500000000E-02 0. -1.
         24    2    1    2    0    0 -0.88817841970E-15  0.00000000000E+00 -0.40824988470E+03  0.41422130080E+03  0.70080793896E+02 0.  0.
         66    2    3    3    0    0 -0.47955613865E+01  0.10132400441E+02 -0.40033839272E+03  0.40050030167E+03  0.20000001146E+01 0.  0.
        -13    1    3    3    0    0  0.47955613865E+01 -0.10132400441E+02 -0.79114919828E+01  0.13720999131E+02  0.10566000000E+00 0.  1.
         13    1    4    4    0    0 -0.33994790917E+01  0.73766874035E+01 -0.27374832866E+03  0.27386882002E+03  0.10566000000E+00 0. -1.
        -13    1    4    4    0    0 -0.54792562629E+00  0.43262728000E+00 -0.19282219471E+02  0.19295142929E+02  0.10566000000E+00 0.  1.
        -14    1    4    4    0    0 -0.84815666856E+00  0.23230857578E+01 -0.10730784459E+03  0.10733633871E+03  0.00000000000E+00 0.  1.
<mgrwt>
<rscale>  0 0.70080794E+02</rscale>
<asrwt>0</asrwt>
<pdfrwt beam="1">  1        2 0.63266969E-01 0.70080794E+02</pdfrwt>
<pdfrwt beam="2">  1       -1 0.45934003E-03 0.70080794E+02</pdfrwt>
<totfact> 0.40209394E+05</totfact>
</mgrwt>
</event>
<event>
 8    1  0.1226832E-020  0.7767318E+02  0.7818608E-02  0.1335787E+00
         -1   -1    0    0    0  501 -0.00000000000E+00  0.00000000000E+00  0.42582843627E+02  0.42582843926E+02  0.50400000000E-02 0.  1.
          2   -1    0    0  501    0  0.00000000000E+00 -0.00000000000E+00 -0.35419919202E+02  0.35419919294E+02  0.25500000000E-02 0. -1.
         24    2    1    2    0    0  0.44408920985E-15 -0.71054273576E-14  0.71629244254E+01  0.78002763219E+02  0.77673184456E+02 0.  0.
         66    2    3    3    0    0  0.19612575037E+01 -0.37188735746E+02 -0.73908235388E+01  0.38019374904E+02  0.19999995270E+01 0.  0.
        -13    1    3    3    0    0 -0.19612575037E+01  0.37188735746E+02  0.14553747964E+02  0.39983388316E+02  0.10566000000E+00 0.  1.
         13    1    4    4    0    0  0.16401214009E+01 -0.15215113877E+02 -0.34654891683E+01  0.15691095173E+02  0.10566000000E+00 0. -1.
        -13    1    4    4    0    0 -0.76071842632E-01 -0.86772007718E+01 -0.15443756081E+01  0.88145255241E+01  0.10566000000E+00 0.  1.
         14    1    4    4    0    0  0.39720794543E+00 -0.13296421097E+02 -0.23809587624E+01  0.13513754207E+02  0.00000000000E+00 0. -1.
<mgrwt>
<rscale>  0 0.77673184E+02</rscale>
<asrwt>0</asrwt>
<pdfrwt beam="1">  1        2 0.54492184E-02 0.77673184E+02</pdfrwt>
<pdfrwt beam="2">  1       -1 0.65512068E-02 0.77673184E+02</pdfrwt>
<totfact> 0.15093654E+05</totfact>
</mgrwt>
</event>
<event>
 8    1  0.1226832E-020  0.8064379E+02  0.7818608E-02  0.1327234E+00
         -1   -1    0    0    0  501 -0.00000000000E+00  0.00000000000E+00  0.91726634012E+01  0.91726647859E+01  0.50400000000E-02 0.  1.
          2   -1    0    0  501    0  0.00000000000E+00 -0.00000000000E+00 -0.17725006907E+03  0.17725006909E+03  0.25500000000E-02 0. -1.
         24    2    1    2    0    0 -0.88817841970E-15  0.00000000000E+00 -0.16807740567E+03  0.18642273387E+03  0.80643793368E+02 0.  0.
         66    2    3    3    0    0 -0.71327057815E+01  0.96013027988E+01 -0.17304612385E+03  0.17347052049E+03  0.19999976988E+01 0.  0.
        -13    1    3    3    0    0  0.71327057815E+01 -0.96013027988E+01  0.49687181831E+01  0.12952213387E+02  0.10566000000E+00 0.  1.
         13    1    4    4    0    0 -0.61590203553E+00  0.10493221103E+01 -0.19631129928E+02  0.19669083316E+02  0.10566000000E+00 0. -1.
        -13    1    4    4    0    0 -0.28368824502E+01  0.32095917134E+01 -0.72705230721E+02  0.72831388283E+02  0.10566000000E+00 0.  1.
         14    1    4    4    0    0 -0.36799212958E+01  0.53423889751E+01 -0.80709763200E+02  0.80970048886E+02  0.00000000000E+00 0. -1.
<mgrwt>
<rscale>  0 0.80643793E+02</rscale>
<asrwt>0</asrwt>
<pdfrwt beam="1">  1        2 0.27269239E-01 0.80643793E+02</pdfrwt>
<pdfrwt beam="2">  1       -1 0.14111792E-02 0.80643793E+02</pdfrwt>
<totfact> 0.20719617E+05</totfact>
</mgrwt>
</event>
<event>
 8    1  0.1226832E-020  0.7741618E+02  0.7818608E-02  0.1336548E+00
          2   -1    0    0  501    0  0.00000000000E+00  0.00000000000E+00  0.11834095249E+04  0.11834095249E+04  0.25500000000E-02 0. -1.
         -1   -1    0    0    0  501 -0.00000000000E+00 -0.00000000000E+00 -0.12660962826E+01  0.12661063140E+01  0.50400000000E-02 0.  1.
         24    2    1    2    0    0  0.00000000000E+00  0.00000000000E+00  0.11821434286E+04  0.11846756312E+04  0.77416182905E+02 0.  0.
         66    2    3    3    0    0 -0.21487241075E+02 -0.78298755475E+01  0.10688753329E+04  0.10691218293E+04  0.19999977856E+01 0.  0.
        -13    1    3    3    0    0  0.21487241075E+02  0.78298755475E+01  0.11326809569E+03  0.11555380195E+03  0.10566000000E+00 0.  1.
         13    1    4    4    0    0 -0.42473494897E+01 -0.97138643613E+00  0.21774603907E+03  0.21778965142E+03  0.10566000000E+00 0. -1.
        -13    1    4    4    0    0 -0.10694783165E+02 -0.44872870616E+01  0.51018803759E+03  0.51031985949E+03  0.10566000000E+00 0.  1.
         14    1    4    4    0    0 -0.65451084211E+01 -0.23712020497E+01  0.34094125626E+03  0.34101231835E+03  0.00000000000E+00 0. -1.
<mgrwt>
<rscale>  0 0.77416183E+02</rscale>
<asrwt>0</asrwt>
<pdfrwt beam="1">  1        2 0.18206308E+00 0.77416183E+02</pdfrwt>
<pdfrwt beam="2">  1       -1 0.19478474E-03 0.77416183E+02</pdfrwt>
<totfact> 0.38204960E+05</totfact>
</mgrwt>
</event>
<event>
 8    1  0.1226832E-020  0.7955616E+02  0.7818608E-02  0.1330316E+00
         -1   -1    0    0    0  501 -0.00000000000E+00  0.00000000000E+00  0.11676210461E+02  0.11676211549E+02  0.50400000000E-02 0.  1.
          2   -1    0    0  501    0  0.00000000000E+00 -0.00000000000E+00 -0.13551447761E+03  0.13551447764E+03  0.25500000000E-02 0. -1.
         24    2    1    2    0    0  0.00000000000E+00  0.00000000000E+00 -0.12383826715E+03  0.14719068919E+03  0.79556159862E+02 0.  0.
         66    2    3    3    0    0  0.22322664273E+02 -0.26555427881E+02 -0.97871940835E+02  0.10385763764E+03  0.20000006287E+01 0.  0.
        -13    1    3    3    0    0 -0.22322664273E+02  0.26555427881E+02 -0.25966326317E+02  0.43333051550E+02  0.10566000000E+00 0.  1.
         13    1    4    4    0    0  0.14391293442E+02 -0.16209155196E+02 -0.62158271863E+02  0.65829385263E+02  0.10566000000E+00 0. -1.
        -13    1    4    4    0    0  0.52822284871E+00 -0.74759146547E+00 -0.20160008388E+01  0.22166045643E+01  0.10566000000E+00 0. -1.
        -14    1    4    4    0    0  0.74031479821E+01 -0.95986812192E+01 -0.33697668133E+02  0.35811647809E+02  0.00000000000E+00 0.  1.
<mgrwt>
<rscale>  0 0.79556160E+02</rscale>
<asrwt>0</asrwt>
<pdfrwt beam="1">  1        2 0.20848380E-01 0.79556160E+02</pdfrwt>
<pdfrwt beam="2">  1       -1 0.17963403E-02 0.79556160E+02</pdfrwt>
<totfact> 0.19683834E+05</totfact>
</mgrwt>
</event>
<event>
 8    1  0.1226832E-020  0.8043299E+02  0.7818608E-02  0.1327827E+00
          2   -1    0    0  501    0  0.00000000000E+00  0.00000000000E+00  0.41295206614E+02  0.41295206693E+02  0.25500000000E-02 0. -1.
         -1   -1    0    0    0  501 -0.00000000000E+00 -0.00000000000E+00 -0.39165962673E+02  0.39165962997E+02  0.50400000000E-02 0.  1.
         24    2    1    2    0    0  0.35527136788E-14  0.17763568394E-14  0.21292439408E+01  0.80461169690E+02  0.80432991665E+02 0.  0.
         66    2    3    3    0    0 -0.19182104011E+02 -0.13720316151E+02  0.33621439354E+02  0.41116923280E+02  0.20000015577E+01 0.  0.
        -13    1    3    3    0    0  0.19182104011E+02  0.13720316151E+02 -0.31492195413E+02  0.39344246410E+02  0.10566000000E+00 0.  1.
         13    1    4    4    0    0 -0.16427188057E+02 -0.11242729745E+02  0.27877228462E+02  0.34254963295E+02  0.10566000000E+00 0. -1.
        -13    1    4    4    0    0 -0.16168644386E+01 -0.11313937208E+01  0.33379410671E+01  0.38790871307E+01  0.10566000000E+00 0.  1.
         14    1    4    4    0    0 -0.11380515155E+01 -0.13461926848E+01  0.24062698246E+01  0.29828728543E+01  0.00000000000E+00 0. -1.
<mgrwt>
<rscale>  0 0.80432992E+02</rscale>
<asrwt>0</asrwt>
<pdfrwt beam="1">  1        2 0.63531087E-02 0.80432992E+02</pdfrwt>
<pdfrwt beam="2">  1       -1 0.60255328E-02 0.80432992E+02</pdfrwt>
<totfact> 0.14136901E+05</totfact>
</mgrwt>
</event>
<event>
 8    1  0.1226832E-020  0.7771000E+02  0.7818608E-02  0.1335679E+00
          2   -1    0    0  501    0  0.00000000000E+00  0.00000000000E+00  0.35818272934E+01  0.35818282011E+01  0.25500000000E-02 0. -1.
         -1   -1    0    0    0  501 -0.00000000000E+00 -0.00000000000E+00 -0.42149182873E+03  0.42149182876E+03  0.50400000000E-02 0.  1.
         24    2    1    2    0    0  0.00000000000E+00  0.00000000000E+00 -0.41791000144E+03  0.42507365696E+03  0.77710002842E+02 0.  0.
         66    2    3    3    0    0  0.20125795758E+02 -0.33004533214E+02 -0.22908611311E+03  0.23233336840E+03  0.19999962532E+01 0.  0.
        -13    1    3    3    0    0 -0.20125795758E+02  0.33004533214E+02 -0.18882388833E+03  0.19274028856E+03  0.10566000000E+00 0.  1.
         13    1    4    4    0    0  0.55920334582E+01 -0.79661480412E+01 -0.55043478973E+02  0.55897460536E+02  0.10566000000E+00 0.  1.
        -13    1    4    4    0    0  0.11016465734E+02 -0.18368565982E+02 -0.12971027133E+03  0.13146684900E+03  0.10566000000E+00 0. -1.
        -14    1    4    4    0    0  0.35172965658E+01 -0.66698191911E+01 -0.44332362806E+02  0.44969058865E+02  0.00000000000E+00 0.  1.
<mgrwt>
<rscale>  0 0.77710003E+02</rscale>
<asrwt>0</asrwt>
<pdfrwt beam="1">  1        2 0.55105076E-03 0.77710003E+02</pdfrwt>
<pdfrwt beam="2">  1       -1 0.64844858E-01 0.77710003E+02</pdfrwt>
<totfact> 0.79460647E+04</totfact>
</mgrwt>
</event>
<event>
 8    1  0.1226832E-020  0.7886239E+02  0.7818608E-02  0.1332311E+00
          2   -1    0    0  501    0  0.00000000000E+00  0.00000000000E+00  0.28883197192E+03  0.28883197194E+03  0.25500000000E-02 0. -1.
         -1   -1    0    0    0  501 -0.00000000000E+00 -0.00000000000E+00 -0.53831253458E+01  0.53831277052E+01  0.50400000000E-02 0.  1.
         24    2    1    2    0    0 -0.44408920985E-15  0.00000000000E+00  0.28344884658E+03  0.29421509964E+03  0.78862387930E+02 0.  0.
         66    2    3    3    0    0  0.30677083307E+01 -0.31629110931E+02  0.22875058857E+03  0.23095593362E+03  0.20000023598E+01 0.  0.
        -13    1    3    3    0    0 -0.30677083307E+01  0.31629110931E+02  0.54698258006E+02  0.63259166020E+02  0.10566000000E+00 0.  1.
         13    1    4    4    0    0  0.68803967962E+00 -0.93162419937E+01  0.66115478793E+02  0.66772250700E+02  0.10566000000E+00 0. -1.
        -13    1    4    4    0    0  0.75819427022E+00 -0.13775693875E+02  0.97388019698E+02  0.98360470439E+02  0.10566000000E+00 0.  1.
        -14    1    4    4    0    0  0.16214743809E+01 -0.85371750619E+01  0.65247090081E+02  0.65823212480E+02  0.00000000000E+00 0.  1.
<mgrwt>
<rscale>  0 0.78862388E+02</rscale>
<asrwt>0</asrwt>
<pdfrwt beam="1">  1        2 0.44435695E-01 0.78862388E+02</pdfrwt>
<pdfrwt beam="2">  1       -1 0.82817319E-03 0.78862388E+02</pdfrwt>
<totfact> 0.26108570E+05</totfact>
</mgrwt>
</event>
<event>
 8    1  0.1226832E-020  0.7898234E+02  0.7818608E-02  0.1331964E+00
         -1   -1    0    0    0  501 -0.00000000000E+00  0.00000000000E+00  0.60347683924E+01  0.60347704970E+01  0.50400000000E-02 0.  1.
          2   -1    0    0  501    0  0.00000000000E+00 -0.00000000000E+00 -0.25842786409E+03  0.25842786410E+03  0.25500000000E-02 0. -1.
         24    2    1    2    0    0  0.00000000000E+00  0.00000000000E+00 -0.25239309569E+03  0.26446263460E+03  0.78982341973E+02 0.  0.
         66    2    3    3    0    0 -0.36538600579E+02  0.27973211141E+00 -0.17621186174E+03  0.17997157499E+03  0.20000011720E+01 0.  0.
        -13    1    3    3    0    0  0.36538600579E+02 -0.27973211141E+00 -0.76181233950E+02  0.84491059601E+02  0.10566000000E+00 0.  1.
         13    1    4    4    0    0 -0.16491396079E+02 -0.75966537036E+00 -0.79335900642E+02  0.81035421458E+02  0.10566000000E+00 0. -1.
        -13    1    4    4    0    0 -0.66934856848E+01  0.14208504899E+00 -0.31229212482E+02  0.31938970163E+02  0.10566000000E+00 0.  1.
        -14    1    4    4    0    0 -0.13353718815E+02  0.89731243279E+00 -0.65646748620E+02  0.66997183375E+02  0.00000000000E+00 0.  1.
<mgrwt>
<rscale>  0 0.78982342E+02</rscale>
<asrwt>0</asrwt>
<pdfrwt beam="1">  1        2 0.39758124E-01 0.78982342E+02</pdfrwt>
<pdfrwt beam="2">  1       -1 0.92842627E-03 0.78982342E+02</pdfrwt>
<totfact> 0.24980055E+05</totfact>
</mgrwt>
</event>
<event>
 8    1  0.1226832E-020  0.7933465E+02  0.7818608E-02  0.1330950E+00
          2   -1    0    0  501    0  0.00000000000E+00  0.00000000000E+00  0.24690034084E+03  0.24690034086E+03  0.25500000000E-02 0. -1.
         -1   -1    0    0    0  501 -0.00000000000E+00 -0.00000000000E+00 -0.63730023648E+01  0.63730043577E+01  0.50400000000E-02 0.  1.
         24    2    1    2    0    0  0.00000000000E+00  0.00000000000E+00  0.24052733848E+03  0.25327334521E+03  0.79334650944E+02 0.  0.
         66    2    3    3    0    0 -0.10806442765E+02 -0.37723727431E+02  0.13829534115E+03  0.14376877336E+03  0.19999978417E+01 0.  0.
        -13    1    3    3    0    0  0.10806442765E+02  0.37723727431E+02  0.10223199733E+03  0.10950457186E+03  0.10566000000E+00 0.  1.
         13    1    4    4    0    0 -0.83972960670E+01 -0.28445958843E+02  0.10503030314E+03  0.10913781608E+03  0.10566000000E+00 0. -1.
        -13    1    4    4    0    0 -0.56228102327E+00 -0.17660281260E+01  0.77417568728E+01  0.79612171685E+01  0.10566000000E+00 0.  1.
         14    1    4    4    0    0 -0.18468656751E+01 -0.75117404621E+01  0.25523281138E+02  0.26669740112E+02  0.00000000000E+00 0. -1.
<mgrwt>
<rscale>  0 0.79334651E+02</rscale>
<asrwt>0</asrwt>
<pdfrwt beam="1">  1        2 0.37984673E-01 0.79334651E+02</pdfrwt>
<pdfrwt beam="2">  1       -1 0.98046194E-03 0.79334651E+02</pdfrwt>
<totfact> 0.24289376E+05</totfact>
</mgrwt>
</event>
<event>
 8    1  0.1226832E-020  0.8338542E+02  0.7818608E-02  0.1319710E+00
          2   -1    0    0  501    0  0.00000000000E+00  0.00000000000E+00  0.29733041248E+03  0.29733041249E+03  0.25500000000E-02 0. -1.
         -1   -1    0    0    0  501 -0.00000000000E+00 -0.00000000000E+00 -0.58462959185E+01  0.58462980909E+01  0.50400000000E-02 0.  1.
         24    2    1    2    0    0  0.35527136788E-14 -0.88817841970E-15  0.29148411656E+03  0.30317671058E+03  0.83385416180E+02 0.  0.
         66    2    3    3    0    0  0.28310390655E+02 -0.74243966535E+01  0.25366255770E+03  0.25535327110E+03  0.20000001259E+01 0.  0.
        -13    1    3    3    0    0 -0.28310390655E+02  0.74243966535E+01  0.37821558864E+02  0.47823439479E+02  0.10566000000E+00 0.  1.
         13    1    4    4    0    0  0.13036159420E+02 -0.26867533155E+01  0.11446725905E+03  0.11523855541E+03  0.10566000000E+00 0.  1.
        -13    1    4    4    0    0  0.14701220391E+02 -0.46310496632E+01  0.13547563245E+03  0.13634966320E+03  0.10566000000E+00 0. -1.
         14    1    4    4    0    0  0.57301084292E+00 -0.10659367479E+00  0.37196661962E+01  0.37650524895E+01  0.00000000000E+00 0. -1.
<mgrwt>
<rscale>  0 0.83385416E+02</rscale>
<asrwt>0</asrwt>
<pdfrwt beam="1">  1        2 0.45743149E-01 0.83385416E+02</pdfrwt>
<pdfrwt beam="2">  1       -1 0.89943015E-03 0.83385416E+02</pdfrwt>
<totfact> 0.22790041E+05</totfact>
</mgrwt>
</event>
<event>
 8    1  0.1226832E-020  0.7960955E+02  0.7818608E-02  0.1330163E+00
          2   -1    0    0  501    0  0.00000000000E+00  0.00000000000E+00  0.11342489475E+03  0.11342489478E+03  0.25500000000E-02 0. -1.
         -1   -1    0    0    0  501 -0.00000000000E+00 -0.00000000000E+00 -0.13968892896E+02  0.13968893806E+02  0.50400000000E-02 0.  1.
         24    2    1    2    0    0  0.00000000000E+00 -0.35527136788E-14  0.99456001854E+02  0.12739378858E+03  0.79609553856E+02 0.  0.
         66    2    3    3    0    0 -0.16187040838E+01 -0.26789355710E+02  0.96745281697E+02  0.10041881963E+03  0.20000058033E+01 0.  0.
        -13    1    3    3    0    0  0.16187040838E+01  0.26789355710E+02  0.27107201570E+01  0.26974968954E+02  0.10566000000E+00 0.  1.
         13    1    4    4    0    0 -0.13951164192E+01 -0.15571400813E+02  0.55760210065E+02  0.57910509095E+02  0.10566000000E+00 0. -1.
        -13    1    4    4    0    0 -0.42786080683E+00 -0.41377189752E+01  0.16770552990E+02  0.17279073899E+02  0.10566000000E+00 0.  1.
        -14    1    4    4    0    0  0.20427314219E+00 -0.70802359214E+01  0.24214518642E+02  0.25229236637E+02  0.00000000000E+00 0.  1.
<mgrwt>
<rscale>  0 0.79609554E+02</rscale>
<asrwt>0</asrwt>
<pdfrwt beam="1">  1        2 0.17449983E-01 0.79609554E+02</pdfrwt>
<pdfrwt beam="2">  1       -1 0.21490606E-02 0.79609554E+02</pdfrwt>
<totfact> 0.18618928E+05</totfact>
</mgrwt>
</event>
<event>
 8    1  0.1226832E-020  0.8018457E+02  0.7818608E-02  0.1328528E+00
         -1   -1    0    0    0  501 -0.00000000000E+00  0.00000000000E+00  0.23482541909E+03  0.23482541914E+03  0.50400000000E-02 0.  1.
          2   -1    0    0  501    0  0.00000000000E+00 -0.00000000000E+00 -0.68450483136E+01  0.68450487886E+01  0.25500000000E-02 0. -1.
         24    2    1    2    0    0 -0.11102230246E-15  0.71054273576E-14  0.22798037077E+03  0.24167046793E+03  0.80184572153E+02 0.  0.
         66    2    3    3    0    0 -0.68150535251E+00 -0.34868982500E+02  0.54611156516E+02  0.64828148315E+02  0.20000019683E+01 0.  0.
        -13    1    3    3    0    0  0.68150535251E+00  0.34868982500E+02  0.17336921426E+03  0.17684231961E+03  0.10566000000E+00 0.  1.
         13    1    4    4    0    0 -0.11661811507E+00 -0.20173290698E+01  0.28378198643E+01  0.34853410132E+01  0.10566000000E+00 0. -1.
        -13    1    4    4    0    0  0.36353982135E+00 -0.13952707456E+02  0.20895134829E+02  0.25128231734E+02  0.10566000000E+00 0.  1.
         14    1    4    4    0    0 -0.92842705880E+00 -0.18898945975E+02  0.30878201823E+02  0.36214575568E+02  0.00000000000E+00 0. -1.
<mgrwt>
<rscale>  0 0.80184572E+02</rscale>
<asrwt>0</asrwt>
<pdfrwt beam="1">  1        2 0.10530844E-02 0.80184572E+02</pdfrwt>
<pdfrwt beam="2">  1       -1 0.36126988E-01 0.80184572E+02</pdfrwt>
<totfact> 0.94072505E+04</totfact>
</mgrwt>
</event>
<event>
 8    1  0.1226832E-020  0.7963258E+02  0.7818608E-02  0.1330097E+00
          2   -1    0    0  501    0  0.00000000000E+00  0.00000000000E+00  0.23927102388E+02  0.23927102524E+02  0.25500000000E-02 0. -1.
         -1   -1    0    0    0  501 -0.00000000000E+00 -0.00000000000E+00 -0.66256957111E+02  0.66256957302E+02  0.50400000000E-02 0.  1.
         24    2    1    2    0    0  0.00000000000E+00  0.35527136788E-14 -0.42329854723E+02  0.90184059826E+02  0.79632581559E+02 0.  0.
         66    2    3    3    0    0  0.10298695178E+02 -0.21019773148E+02  0.15263662716E+02  0.28015591930E+02  0.20000015338E+01 0.  0.
        -13    1    3    3    0    0 -0.10298695178E+02  0.21019773148E+02 -0.57593517439E+02  0.62168467896E+02  0.10566000000E+00 0.  1.
         13    1    4    4    0    0  0.33200024294E+01 -0.70965897650E+01  0.46165469135E+01  0.90943758370E+01  0.10566000000E+00 0. -1.
        -13    1    4    4    0    0  0.20538190510E+01 -0.40138835965E+01  0.23156728580E+01  0.50698066079E+01  0.10566000000E+00 0. -1.
         14    1    4    4    0    0  0.49248736972E+01 -0.99092997861E+01  0.83314429443E+01  0.13851409485E+02  0.00000000000E+00 0. -1.
<mgrwt>
<rscale>  0 0.79632582E+02</rscale>
<asrwt>0</asrwt>
<pdfrwt beam="1">  1        2 0.36810927E-02 0.79632582E+02</pdfrwt>
<pdfrwt beam="2">  1       -1 0.10193378E-01 0.79632582E+02</pdfrwt>
<totfact> 0.13037586E+05</totfact>
</mgrwt>
</event>
<event>
 8    1  0.1226832E-020  0.7995048E+02  0.7818608E-02  0.1329192E+00
          2   -1    0    0  501    0  0.00000000000E+00  0.00000000000E+00  0.14949727103E+03  0.14949727106E+03  0.25500000000E-02 0. -1.
         -1   -1    0    0    0  501 -0.00000000000E+00 -0.00000000000E+00 -0.10689289701E+02  0.10689290889E+02  0.50400000000E-02 0.  1.
         24    2    1    2    0    0  0.00000000000E+00  0.00000000000E+00  0.13880798133E+03  0.16018656195E+03  0.79950478085E+02 0.  0.
         66    2    3    3    0    0 -0.54602325949E+01  0.25227897790E+02  0.13053995561E+03  0.13308245930E+03  0.19999989527E+01 0.  0.
        -13    1    3    3    0    0  0.54602325949E+01 -0.25227897790E+02  0.82680257265E+01  0.27104102648E+02  0.10566000000E+00 0.  1.
         13    1    4    4    0    0 -0.10420842606E+01  0.52048208487E+01  0.30328171438E+02  0.30789369050E+02  0.10566000000E+00 0. -1.
        -13    1    4    4    0    0 -0.27151053619E+01  0.14414776729E+02  0.71511006012E+02  0.72999950206E+02  0.10566000000E+00 0.  1.
        -14    1    4    4    0    0 -0.17030429725E+01  0.56083002129E+01  0.28700778158E+02  0.29293140042E+02  0.00000000000E+00 0.  1.
<mgrwt>
<rscale>  0 0.79950478E+02</rscale>
<asrwt>0</asrwt>
<pdfrwt beam="1">  1        2 0.22999579E-01 0.79950478E+02</pdfrwt>
<pdfrwt beam="2">  1       -1 0.16445063E-02 0.79950478E+02</pdfrwt>
<totfact> 0.20041271E+05</totfact>
</mgrwt>
</event>
<event>
 8    1  0.1226832E-020  0.7521729E+02  0.7818608E-02  0.1343199E+00
          2   -1    0    0  501    0  0.00000000000E+00  0.00000000000E+00  0.50557723187E+03  0.50557723187E+03  0.25500000000E-02 0. -1.
         -1   -1    0    0    0  501 -0.00000000000E+00 -0.00000000000E+00 -0.27976121408E+01  0.27976166806E+01  0.50400000000E-02 0.  1.
         24    2    1    2    0    0 -0.35527136788E-14  0.00000000000E+00  0.50277961973E+03  0.50837484855E+03  0.75217289437E+02 0.  0.
         66    2    3    3    0    0  0.24417724281E+02 -0.24742667135E+02  0.34809667856E+03  0.34983384980E+03  0.20000002518E+01 0.  0.
        -13    1    3    3    0    0 -0.24417724281E+02  0.24742667135E+02  0.15468294117E+03  0.15854099876E+03  0.10566000000E+00 0.  1.
         13    1    4    4    0    0  0.74856441311E+01 -0.83404109496E+01  0.11303337222E+03  0.11358763895E+03  0.10566000000E+00 0. -1.
        -13    1    4    4    0    0  0.56544690482E+01 -0.52793692666E+01  0.83308350112E+02  0.83666822113E+02  0.10566000000E+00 0.  1.
         14    1    4    4    0    0  0.11277611101E+02 -0.11122886919E+02  0.15175495623E+03  0.15257938874E+03  0.00000000000E+00 0. -1.
<mgrwt>
<rscale>  0 0.75217289E+02</rscale>
<asrwt>0</asrwt>
<pdfrwt beam="1">  1        2 0.77781029E-01 0.75217289E+02</pdfrwt>
<pdfrwt beam="2">  1       -1 0.43040268E-03 0.75217289E+02</pdfrwt>
<totfact> 0.35866345E+05</totfact>
</mgrwt>
</event>
<event>
 8    1  0.1226832E-020  0.7972630E+02  0.7818608E-02  0.1329830E+00
          2   -1    0    0  501    0  0.00000000000E+00  0.00000000000E+00  0.69239039168E+02  0.69239039215E+02  0.25500000000E-02 0. -1.
         -1   -1    0    0    0  501 -0.00000000000E+00 -0.00000000000E+00 -0.22950502349E+02  0.22950502903E+02  0.50400000000E-02 0.  1.
         24    2    1    2    0    0  0.00000000000E+00  0.00000000000E+00  0.46288536819E+02  0.92189542118E+02  0.79726300774E+02 0.  0.
         66    2    3    3    0    0 -0.31584167758E+02  0.20308201927E+02  0.38546310828E+02  0.53849798433E+02  0.19999985807E+01 0.  0.
        -13    1    3    3    0    0  0.31584167758E+02 -0.20308201927E+02  0.77422259911E+01  0.38339743685E+02  0.10566000000E+00 0.  1.
         13    1    4    4    0    0 -0.95381161806E+01  0.60062683083E+01  0.11401327230E+02  0.16032852083E+02  0.10566000000E+00 0. -1.
        -13    1    4    4    0    0 -0.11905772422E+02  0.67852980080E+01  0.14445356191E+02  0.19911483258E+02  0.10566000000E+00 0.  1.
        -14    1    4    4    0    0 -0.10140279156E+02  0.75166356112E+01  0.12699627406E+02  0.17905463092E+02  0.00000000000E+00 0.  1.
<mgrwt>
<rscale>  0 0.79726301E+02</rscale>
<asrwt>0</asrwt>
<pdfrwt beam="1">  1        2 0.10652160E-01 0.79726301E+02</pdfrwt>
<pdfrwt beam="2">  1       -1 0.35308466E-02 0.79726301E+02</pdfrwt>
<totfact> 0.16253652E+05</totfact>
</mgrwt>
</event>
<event>
 8    1  0.1226832E-020  0.7873188E+02  0.7818608E-02  0.1332689E+00
          2   -1    0    0  501    0  0.00000000000E+00  0.00000000000E+00  0.98788032654E+03  0.98788032654E+03  0.25500000000E-02 0. -1.
         -1   -1    0    0    0  501 -0.00000000000E+00 -0.00000000000E+00 -0.15686851210E+01  0.15686932174E+01  0.50400000000E-02 0.  1.
         24    2    1    2    0    0 -0.17763568394E-14 -0.35527136788E-14  0.98631164142E+03  0.98944901976E+03  0.78731878593E+02 0.  0.
         66    2    3    3    0    0 -0.15270762888E+02  0.22516822154E+02  0.85058617378E+03  0.85102352641E+03  0.20000003458E+01 0.  0.
        -13    1    3    3    0    0  0.15270762888E+02 -0.22516822154E+02  0.13572546764E+03  0.13842549335E+03  0.10566000000E+00 0.  1.
         13    1    4    4    0    0 -0.73090562986E+01  0.97216965157E+01  0.36613687326E+03  0.36633885244E+03  0.10566000000E+00 0. -1.
        -13    1    4    4    0    0 -0.17670697114E+01  0.21345779246E+01  0.90457336160E+02  0.90499833080E+02  0.10566000000E+00 0.  1.
        -14    1    4    4    0    0 -0.61946368778E+01  0.10660547714E+02  0.39399196436E+03  0.39418484089E+03  0.00000000000E+00 0.  1.
<mgrwt>
<rscale>  0 0.78731879E+02</rscale>
<asrwt>0</asrwt>
<pdfrwt beam="1">  1        2 0.15198190E+00 0.78731879E+02</pdfrwt>
<pdfrwt beam="2">  1       -1 0.24133630E-03 0.78731879E+02</pdfrwt>
<totfact> 0.36701532E+05</totfact>
</mgrwt>
</event>
<event>
 8    1  0.1226832E-020  0.8022434E+02  0.7818608E-02  0.1328416E+00
          2   -1    0    0  501    0  0.00000000000E+00  0.00000000000E+00  0.81536335824E+03  0.81536335824E+03  0.25500000000E-02 0. -1.
         -1   -1    0    0    0  501 -0.00000000000E+00 -0.00000000000E+00 -0.19733332721E+01  0.19733397083E+01  0.50400000000E-02 0.  1.
         24    2    1    2    0    0  0.17763568394E-14  0.35527136788E-14  0.81339002496E+03  0.81733669795E+03  0.80224342330E+02 0.  0.
         66    2    3    3    0    0  0.15920434011E+02 -0.26272384489E+02  0.66933523260E+03  0.67004279864E+03  0.20000015613E+01 0.  0.
        -13    1    3    3    0    0 -0.15920434011E+02  0.26272384489E+02  0.14405479236E+03  0.14729389930E+03  0.10566000000E+00 0.  1.
         13    1    4    4    0    0  0.10829418527E+01 -0.19148257264E+01  0.51871695965E+02  0.51918429550E+02  0.10566000000E+00 0. -1.
        -13    1    4    4    0    0  0.11796179303E+02 -0.20570889999E+02  0.51660728719E+03  0.51715124645E+03  0.10566000000E+00 0.  1.
         14    1    4    4    0    0  0.30413128553E+01 -0.37866687640E+01  0.10085624945E+03  0.10097312265E+03  0.00000000000E+00 0. -1.
<mgrwt>
<rscale>  0 0.80224342E+02</rscale>
<asrwt>0</asrwt>
<pdfrwt beam="1">  1        2 0.12544043E+00 0.80224342E+02</pdfrwt>
<pdfrwt beam="2">  1       -1 0.30359043E-03 0.80224342E+02</pdfrwt>
<totfact> 0.34225658E+05</totfact>
</mgrwt>
</event>
<event>
 8    1  0.1226832E-020  0.8233947E+02  0.7818608E-02  0.1322540E+00
          2   -1    0    0  501    0  0.00000000000E+00  0.00000000000E+00  0.40784740473E+03  0.40784740473E+03  0.25500000000E-02 0. -1.
         -1   -1    0    0    0  501 -0.00000000000E+00 -0.00000000000E+00 -0.41558346032E+01  0.41558376594E+01  0.50400000000E-02 0.  1.
         24    2    1    2    0    0 -0.35527136788E-14  0.00000000000E+00  0.40369157012E+03  0.41200324239E+03  0.82339467781E+02 0.  0.
         66    2    3    3    0    0 -0.23948084859E+02 -0.65373414853E+01  0.36615155312E+03  0.36699755783E+03  0.20000003804E+01 0.  0.
        -13    1    3    3    0    0  0.23948084859E+02  0.65373414853E+01  0.37540017003E+02  0.45005684560E+02  0.10566000000E+00 0.  1.
         13    1    4    4    0    0 -0.72894532133E+01 -0.16748826416E+01  0.12024837641E+03  0.12048080575E+03  0.10566000000E+00 0. -1.
        -13    1    4    4    0    0 -0.35399319073E+01 -0.73745085317E+00  0.47496198659E+02  0.47633759066E+02  0.10566000000E+00 0.  1.
        -14    1    4    4    0    0 -0.13118699738E+02 -0.41250079905E+01  0.19840697805E+03  0.19888299302E+03  0.00000000000E+00 0.  1.
<mgrwt>
<rscale>  0 0.82339468E+02</rscale>
<asrwt>0</asrwt>
<pdfrwt beam="1">  1        2 0.62745777E-01 0.82339468E+02</pdfrwt>
<pdfrwt beam="2">  1       -1 0.63935918E-03 0.82339468E+02</pdfrwt>
<totfact> 0.26380096E+05</totfact>
</mgrwt>
</event>
<event>
 8    1  0.1226832E-020  0.7952155E+02  0.7818608E-02  0.1330415E+00
         -1   -1    0    0    0  501 -0.00000000000E+00  0.00000000000E+00  0.87369830832E+01  0.87369845369E+01  0.50400000000E-02 0.  1.
          2   -1    0    0  501    0  0.00000000000E+00 -0.00000000000E+00 -0.18094566657E+03  0.18094566659E+03  0.25500000000E-02 0. -1.
         24    2    1    2    0    0  0.00000000000E+00 -0.35527136788E-14 -0.17220868348E+03  0.18968265112E+03  0.79521553490E+02 0.  0.
         66    2    3    3    0    0 -0.60097911792E+01 -0.22465804896E+02 -0.16301134829E+03  0.16467401025E+03  0.20000000039E+01 0.  0.
        -13    1    3    3    0    0  0.60097911792E+01  0.22465804896E+02 -0.91973351927E+01  0.25008640873E+02  0.10566000000E+00 0.  1.
         13    1    4    4    0    0 -0.71476987373E+00 -0.23934906594E+01 -0.17861705426E+02  0.18035835946E+02  0.10566000000E+00 0. -1.
        -13    1    4    4    0    0 -0.53139453645E+01 -0.20040065707E+02 -0.14511012564E+03  0.14658377119E+03  0.10566000000E+00 0.  1.
        -14    1    4    4    0    0  0.18924059050E-01 -0.32248529582E-01 -0.39517226856E-01  0.54403114705E-01  0.00000000000E+00 0.  1.
<mgrwt>
<rscale>  0 0.79521553E+02</rscale>
<asrwt>0</asrwt>
<pdfrwt beam="1">  1        2 0.27837792E-01 0.79521553E+02</pdfrwt>
<pdfrwt beam="2">  1       -1 0.13441515E-02 0.79521553E+02</pdfrwt>
<totfact> 0.21652870E+05</totfact>
</mgrwt>
</event>
<event>
 8    1  0.1226832E-020  0.7943161E+02  0.7818608E-02  0.1330672E+00
         -1   -1    0    0    0  501 -0.00000000000E+00  0.00000000000E+00  0.29085094148E+02  0.29085094585E+02  0.50400000000E-02 0.  1.
          2   -1    0    0  501    0  0.00000000000E+00 -0.00000000000E+00 -0.54232084084E+02  0.54232084144E+02  0.25500000000E-02 0. -1.
         24    2    1    2    0    0  0.35527136788E-14  0.88817841970E-15 -0.25146989936E+02  0.83317178729E+02  0.79431613156E+02 0.  0.
         66    2    3    3    0    0 -0.30308483194E+02 -0.48257159421E+01 -0.38981015831E+02  0.49652907991E+02  0.19999972313E+01 0.  0.
        -13    1    3    3    0    0  0.30308483194E+02  0.48257159421E+01  0.13834025894E+02  0.33664270738E+02  0.10566000000E+00 0.  1.
         13    1    4    4    0    0 -0.11306882421E+02 -0.18956061645E+01 -0.14260158491E+02  0.18297600854E+02  0.10566000000E+00 0. -1.
        -13    1    4    4    0    0 -0.74423893836E+01 -0.18135611586E+01 -0.92391504172E+01  0.12002134322E+02  0.10566000000E+00 0.  1.
        -14    1    4    4    0    0 -0.11559211390E+02 -0.11165486190E+01 -0.15481706923E+02  0.19353172815E+02  0.00000000000E+00 0.  1.
<mgrwt>
<rscale>  0 0.79431613E+02</rscale>
<asrwt>0</asrwt>
<pdfrwt beam="1">  1        2 0.83433975E-02 0.79431613E+02</pdfrwt>
<pdfrwt beam="2">  1       -1 0.44746299E-02 0.79431613E+02</pdfrwt>
<totfact> 0.15512013E+05</totfact>
</mgrwt>
</event>
<event>
 8    1  0.1226832E-020  0.8251751E+02  0.7818608E-02  0.1322055E+00
          2   -1    0    0  501    0  0.00000000000E+00  0.00000000000E+00  0.69143091147E+02  0.69143091194E+02  0.25500000000E-02 0. -1.
         -1   -1    0    0    0  501 -0.00000000000E+00 -0.00000000000E+00 -0.24619737978E+02  0.24619738494E+02  0.50400000000E-02 0.  1.
         24    2    1    2    0    0  0.35527136788E-14  0.17763568394E-14  0.44523353169E+02  0.93762829689E+02  0.82517508771E+02 0.  0.
         66    2    3    3    0    0 -0.23312617307E+02 -0.85295052655E+01  0.59686560335E+02  0.64673921125E+02  0.20000008133E+01 0.  0.
        -13    1    3    3    0    0  0.23312617307E+02  0.85295052655E+01 -0.15163207166E+02  0.29088908563E+02  0.10566000000E+00 0.  1.
         13    1    4    4    0    0 -0.81255852606E+01 -0.31838604314E+01  0.21565264115E+02  0.23264433874E+02  0.10566000000E+00 0. -1.
        -13    1    4    4    0    0 -0.74318465928E+01 -0.30839354015E+01  0.20586016236E+02  0.22102900937E+02  0.10566000000E+00 0.  1.
         14    1    4    4    0    0 -0.77551854542E+01 -0.22617094326E+01  0.17535279985E+02  0.19306586315E+02  0.00000000000E+00 0. -1.
<mgrwt>
<rscale>  0 0.82517509E+02</rscale>
<asrwt>0</asrwt>
<pdfrwt beam="1">  1        2 0.10637399E-01 0.82517509E+02</pdfrwt>
<pdfrwt beam="2">  1       -1 0.37876520E-02 0.82517509E+02</pdfrwt>
<totfact> 0.14800050E+05</totfact>
</mgrwt>
</event>
<event>
 8    1  0.1226832E-020  0.8185971E+02  0.7818608E-02  0.1323855E+00
         -1   -1    0    0    0  501 -0.00000000000E+00  0.00000000000E+00  0.12114087901E+01  0.12114192744E+01  0.50400000000E-02 0.  1.
          2   -1    0    0  501    0  0.00000000000E+00 -0.00000000000E+00 -0.13828904710E+04  0.13828904710E+04  0.25500000000E-02 0. -1.
         24    2    1    2    0    0  0.00000000000E+00  0.00000000000E+00 -0.13816790622E+04  0.13841018903E+04  0.81859707540E+02 0.  0.
         66    2    3    3    0    0  0.20354707239E+02 -0.51574824494E+01 -0.12848073414E+04  0.12849804739E+04  0.19999999703E+01 0.  0.
        -13    1    3    3    0    0 -0.20354707239E+02  0.51574824494E+01 -0.96871720758E+02  0.99121416347E+02  0.10566000000E+00 0.  1.
         13    1    4    4    0    0  0.25795270453E+01 -0.62056949806E+00 -0.17024068459E+03  0.17026138998E+03  0.10566000000E+00 0. -1.
        -13    1    4    4    0    0  0.29180621039E+01 -0.11064534619E+00 -0.16424747835E+03  0.16427346907E+03  0.10566000000E+00 0.  1.
         14    1    4    4    0    0  0.14857118090E+02 -0.44262676051E+01 -0.95031917850E+03  0.95044561487E+03  0.00000000000E+00 0. -1.
<mgrwt>
<rscale>  0 0.81859708E+02</rscale>
<asrwt>0</asrwt>
<pdfrwt beam="1">  1        2 0.21275112E+00 0.81859708E+02</pdfrwt>
<pdfrwt beam="2">  1       -1 0.18637250E-03 0.81859708E+02</pdfrwt>
<totfact> 0.32148770E+05</totfact>
</mgrwt>
</event>
<event>
 8    1  0.1226832E-020  0.8258081E+02  0.7818608E-02  0.1321883E+00
         -1   -1    0    0    0  501 -0.00000000000E+00  0.00000000000E+00  0.10256833220E+02  0.10256834459E+02  0.50400000000E-02 0.  1.
          2   -1    0    0  501    0  0.00000000000E+00 -0.00000000000E+00 -0.16622066404E+03  0.16622066406E+03  0.25500000000E-02 0. -1.
         24    2    1    2    0    0  0.00000000000E+00  0.00000000000E+00 -0.15596383082E+03  0.17647749852E+03  0.82580814717E+02 0.  0.
         66    2    3    3    0    0  0.35569246071E+02 -0.14215731537E+02 -0.11083173736E+03  0.11728142337E+03  0.19999929476E+01 0.  0.
        -13    1    3    3    0    0 -0.35569246071E+02  0.14215731537E+02 -0.45132093465E+02  0.59196075155E+02  0.10566000000E+00 0.  1.
         13    1    4    4    0    0  0.17425567541E+02 -0.69909564718E+01 -0.53884617881E+02  0.57062133545E+02  0.10566000000E+00 0. -1.
        -13    1    4    4    0    0  0.63121201310E+01 -0.24387273720E+01 -0.17736126605E+02  0.18983456027E+02  0.10566000000E+00 0.  1.
        -14    1    4    4    0    0  0.11831558399E+02 -0.47860476933E+01 -0.39210992871E+02  0.41235833793E+02  0.00000000000E+00 0.  1.
<mgrwt>
<rscale>  0 0.82580815E+02</rscale>
<asrwt>0</asrwt>
<pdfrwt beam="1">  1        2 0.25572408E-01 0.82580815E+02</pdfrwt>
<pdfrwt beam="2">  1       -1 0.15779746E-02 0.82580815E+02</pdfrwt>
<totfact> 0.19040811E+05</totfact>
</mgrwt>
</event>
<event>
 8    1  0.1226832E-020  0.8588328E+02  0.7818608E-02  0.1313139E+00
         -1   -1    0    0    0  501 -0.00000000000E+00  0.00000000000E+00  0.26834072046E+02  0.26834072519E+02  0.50400000000E-02 0.  1.
          2   -1    0    0  501    0  0.00000000000E+00 -0.00000000000E+00 -0.68718019777E+02  0.68718019824E+02  0.25500000000E-02 0. -1.
         24    2    1    2    0    0 -0.17763568394E-14  0.71054273576E-14 -0.41883947731E+02  0.95552092344E+02  0.85883277032E+02 0.  0.
         66    2    3    3    0    0 -0.10181287698E+02  0.39662866862E+02 -0.35252350110E+02  0.54069675853E+02  0.20000079148E+01 0.  0.
        -13    1    3    3    0    0  0.10181287698E+02 -0.39662866862E+02 -0.66315976212E+01  0.41482416491E+02  0.10566000000E+00 0.  1.
         13    1    4    4    0    0 -0.20678364385E+01  0.71195783897E+01 -0.64134266623E+01  0.98034458009E+01  0.10566000000E+00 0. -1.
        -13    1    4    4    0    0 -0.27677110717E+01  0.11375343653E+02 -0.90130421599E+01  0.14775139959E+02  0.10566000000E+00 0.  1.
        -14    1    4    4    0    0 -0.53457401880E+01  0.21167944820E+02 -0.19825881288E+02  0.29491090093E+02  0.00000000000E+00 0.  1.
<mgrwt>
<rscale>  0 0.85883277E+02</rscale>
<asrwt>0</asrwt>
<pdfrwt beam="1">  1        2 0.10572003E-01 0.85883277E+02</pdfrwt>
<pdfrwt beam="2">  1       -1 0.41283189E-02 0.85883277E+02</pdfrwt>
<totfact> 0.13251454E+05</totfact>
</mgrwt>
</event>
<event>
 8    1  0.1226832E-020  0.8196428E+02  0.7818608E-02  0.1323568E+00
          2   -1    0    0  501    0  0.00000000000E+00  0.00000000000E+00  0.73569221889E+02  0.73569221933E+02  0.25500000000E-02 0. -1.
         -1   -1    0    0    0  501 -0.00000000000E+00 -0.00000000000E+00 -0.22829323804E+02  0.22829324360E+02  0.50400000000E-02 0.  1.
         24    2    1    2    0    0  0.35527136788E-14  0.35527136788E-14  0.50739898085E+02  0.96398546294E+02  0.81964275571E+02 0.  0.
         66    2    3    3    0    0  0.25107167908E+02  0.21580678242E+02  0.53744376827E+02  0.63154996388E+02  0.19999936141E+01 0.  0.
        -13    1    3    3    0    0 -0.25107167908E+02 -0.21580678242E+02 -0.30044787419E+01  0.33243549905E+02  0.10566000000E+00 0.  1.
         13    1    4    4    0    0  0.24007598097E+02  0.20270785053E+02  0.50772408231E+02  0.59708609887E+02  0.10566000000E+00 0. -1.
        -13    1    4    4    0    0  0.56841321113E+00  0.46265696565E+00  0.11427362270E+01  0.13616736638E+01  0.10566000000E+00 0. -1.
         14    1    4    4    0    0  0.53115660010E+00  0.84723622340E+00  0.18292323695E+01  0.20847128372E+01  0.00000000000E+00 0. -1.
<mgrwt>
<rscale>  0 0.81964276E+02</rscale>
<asrwt>0</asrwt>
<pdfrwt beam="1">  1        2 0.11318342E-01 0.81964276E+02</pdfrwt>
<pdfrwt beam="2">  1       -1 0.35122037E-02 0.81964276E+02</pdfrwt>
<totfact> 0.15306869E+05</totfact>
</mgrwt>
</event>
<event>
 8    1  0.1226832E-020  0.8518014E+02  0.7818608E-02  0.1314962E+00
          2   -1    0    0  501    0  0.00000000000E+00  0.00000000000E+00  0.95669893790E+03  0.95669893791E+03  0.25500000000E-02 0. -1.
         -1   -1    0    0    0  501 -0.00000000000E+00 -0.00000000000E+00 -0.18960099938E+01  0.18960166924E+01  0.50400000000E-02 0.  1.
         24    2    1    2    0    0  0.00000000000E+00  0.00000000000E+00  0.95480292791E+03  0.95859495460E+03  0.85180137581E+02 0.  0.
         66    2    3    3    0    0  0.15848044255E+02 -0.41138951956E+01  0.91984049752E+03  0.91998838336E+03  0.19999976547E+01 0.  0.
        -13    1    3    3    0    0 -0.15848044255E+02  0.41138951956E+01  0.34962430384E+02  0.38606571238E+02  0.10566000000E+00 0.  1.
         13    1    4    4    0    0  0.12085896812E+01 -0.69185582668E+00  0.65138444095E+02  0.65153414467E+02  0.10566000000E+00 0. -1.
        -13    1    4    4    0    0  0.16723917185E+01 -0.53965665447E+00  0.11866760602E+03  0.11868066400E+03  0.10566000000E+00 0.  1.
         14    1    4    4    0    0  0.12967062855E+02 -0.28823827144E+01  0.73603444741E+03  0.73615430490E+03  0.00000000000E+00 0. -1.
<mgrwt>
<rscale>  0 0.85180138E+02</rscale>
<asrwt>0</asrwt>
<pdfrwt beam="1">  1        2 0.14718466E+00 0.85180138E+02</pdfrwt>
<pdfrwt beam="2">  1       -1 0.29169396E-03 0.85180138E+02</pdfrwt>
<totfact> 0.29844116E+05</totfact>
</mgrwt>
</event>
<event>
 8    1  0.1226832E-020  0.8185592E+02  0.7818608E-02  0.1323866E+00
         -1   -1    0    0    0  501 -0.00000000000E+00  0.00000000000E+00  0.98969185405E+01  0.98969198238E+01  0.50400000000E-02 0.  1.
          2   -1    0    0  501    0  0.00000000000E+00 -0.00000000000E+00 -0.16925447549E+03  0.16925447551E+03  0.25500000000E-02 0. -1.
         24    2    1    2    0    0  0.17763568394E-14  0.00000000000E+00 -0.15935755695E+03  0.17915139533E+03  0.81855919106E+02 0.  0.
         66    2    3    3    0    0 -0.14530934517E+02  0.37869739593E+02 -0.68180829475E+02  0.79359251194E+02  0.20000018469E+01 0.  0.
        -13    1    3    3    0    0  0.14530934517E+02 -0.37869739593E+02 -0.91176727472E+02  0.99792144137E+02  0.10566000000E+00 0.  1.
         13    1    4    4    0    0 -0.10863529938E+02  0.28296329187E+02 -0.51079375705E+02  0.59395389674E+02  0.10566000000E+00 0. -1.
        -13    1    4    4    0    0 -0.18819418950E+00  0.17718626802E+00 -0.51886520450E+00  0.58923438680E+00  0.10566000000E+00 0.  1.
        -14    1    4    4    0    0 -0.34792103895E+01  0.93962241385E+01 -0.16582588566E+02  0.19374627133E+02  0.00000000000E+00 0.  1.
<mgrwt>
<rscale>  0 0.81855919E+02</rscale>
<asrwt>0</asrwt>
<pdfrwt beam="1">  1        2 0.26039148E-01 0.81855919E+02</pdfrwt>
<pdfrwt beam="2">  1       -1 0.15226031E-02 0.81855919E+02</pdfrwt>
<totfact> 0.19609871E+05</totfact>
</mgrwt>
</event>
<event>
 8    1  0.1226832E-020  0.7877932E+02  0.7818608E-02  0.1332552E+00
         -1   -1    0    0    0  501 -0.00000000000E+00  0.00000000000E+00  0.92672788490E+01  0.92672802195E+01  0.50400000000E-02 0.  1.
          2   -1    0    0  501    0  0.00000000000E+00 -0.00000000000E+00 -0.16742187226E+03  0.16742187228E+03  0.25500000000E-02 0. -1.
         24    2    1    2    0    0  0.00000000000E+00  0.35527136788E-14 -0.15815459341E+03  0.17668915250E+03  0.78779319582E+02 0.  0.
         66    2    3    3    0    0 -0.23880930734E+02  0.31292809122E+02 -0.79038399408E+02  0.88321046980E+02  0.20000007905E+01 0.  0.
        -13    1    3    3    0    0  0.23880930734E+02 -0.31292809122E+02 -0.79116194006E+02  0.88368105522E+02  0.10566000000E+00 0.  1.
         13    1    4    4    0    0 -0.48681681192E+01  0.59932726181E+01 -0.15223532076E+02  0.17070016708E+02  0.10566000000E+00 0. -1.
        -13    1    4    4    0    0 -0.42264901565E+00  0.73266436322E+00 -0.12592011393E+01  0.15205856781E+01  0.10566000000E+00 0.  1.
        -14    1    4    4    0    0 -0.18590113599E+02  0.24566872141E+02 -0.62555666193E+02  0.69730444594E+02  0.00000000000E+00 0.  1.
<mgrwt>
<rscale>  0 0.78779320E+02</rscale>
<asrwt>0</asrwt>
<pdfrwt beam="1">  1        2 0.25757209E-01 0.78779320E+02</pdfrwt>
<pdfrwt beam="2">  1       -1 0.14257354E-02 0.78779320E+02</pdfrwt>
<totfact> 0.21625448E+05</totfact>
</mgrwt>
</event>
<event>
 8    1  0.1226832E-020  0.7401289E+02  0.7818608E-02  0.1346955E+00
         -1   -1    0    0    0  501 -0.00000000000E+00  0.00000000000E+00  0.56610017603E+02  0.56610017828E+02  0.50400000000E-02 0.  1.
          2   -1    0    0  501    0  0.00000000000E+00 -0.00000000000E+00 -0.24191425759E+02  0.24191425894E+02  0.25500000000E-02 0. -1.
         24    2    1    2    0    0  0.00000000000E+00  0.00000000000E+00  0.32418591844E+02  0.80801443721E+02  0.74012892190E+02 0.  0.
         66    2    3    3    0    0 -0.19063244995E+02  0.26128871589E+02 -0.33492620900E+01  0.32578256567E+02  0.20000010318E+01 0.  0.
        -13    1    3    3    0    0  0.19063244995E+02 -0.26128871589E+02  0.35767853934E+02  0.48223187155E+02  0.10566000000E+00 0.  1.
         13    1    4    4    0    0 -0.12763951465E+02  0.17545104605E+02 -0.14544405783E+01  0.21745705645E+02  0.10566000000E+00 0. -1.
        -13    1    4    4    0    0 -0.32229140354E+00  0.51388337029E+00 -0.15435332238E-01  0.61591407853E+00  0.10566000000E+00 0. -1.
         14    1    4    4    0    0 -0.59770021272E+01  0.80698836138E+01 -0.18793861795E+01  0.10216636843E+02  0.00000000000E+00 0. -1.
<mgrwt>
<rscale>  0 0.74012892E+02</rscale>
<asrwt>0</asrwt>
<pdfrwt beam="1">  1        2 0.37217579E-02 0.74012892E+02</pdfrwt>
<pdfrwt beam="2">  1       -1 0.87092334E-02 0.74012892E+02</pdfrwt>
<totfact> 0.16053984E+05</totfact>
</mgrwt>
</event>
<event>
 8    1  0.1226832E-020  0.7961430E+02  0.7818608E-02  0.1330150E+00
         -1   -1    0    0    0  501 -0.00000000000E+00  0.00000000000E+00  0.55566960418E+02  0.55566960646E+02  0.50400000000E-02 0.  1.
          2   -1    0    0  501    0  0.00000000000E+00 -0.00000000000E+00 -0.28517109220E+02  0.28517109334E+02  0.25500000000E-02 0. -1.
         24    2    1    2    0    0  0.00000000000E+00  0.71054273576E-14  0.27049851197E+02  0.84084069981E+02  0.79614297552E+02 0.  0.
         66    2    3    3    0    0 -0.50259834157E+01  0.35353341274E+02 -0.49862887809E+01  0.36110695311E+02  0.19999978732E+01 0.  0.
        -13    1    3    3    0    0  0.50259834157E+01 -0.35353341274E+02  0.32036139978E+02  0.47973374670E+02  0.10566000000E+00 0.  1.
         13    1    4    4    0    0 -0.34092656543E+01  0.19418641406E+02 -0.24964792793E+01  0.19873356516E+02  0.10566000000E+00 0. -1.
        -13    1    4    4    0    0 -0.30490444368E+00  0.10641857374E+01 -0.27646714964E+00  0.11458866104E+01  0.10566000000E+00 0. -1.
        -14    1    4    4    0    0 -0.13118133178E+01  0.14870514130E+02 -0.22133423519E+01  0.15091452185E+02  0.00000000000E+00 0.  1.
<mgrwt>
<rscale>  0 0.79614298E+02</rscale>
<asrwt>0</asrwt>
<pdfrwt beam="1">  1        2 0.43872476E-02 0.79614298E+02</pdfrwt>
<pdfrwt beam="2">  1       -1 0.85487631E-02 0.79614298E+02</pdfrwt>
<totfact> 0.13503532E+05</totfact>
</mgrwt>
</event>
<event>
 8    1  0.1226832E-020  0.8810092E+02  0.7818608E-02  0.1307517E+00
          2   -1    0    0  501    0  0.00000000000E+00  0.00000000000E+00  0.73251016995E+01  0.73251021434E+01  0.25500000000E-02 0. -1.
         -1   -1    0    0    0  501 -0.00000000000E+00 -0.00000000000E+00 -0.26490319077E+03  0.26490319081E+03  0.50400000000E-02 0.  1.
         24    2    1    2    0    0  0.71054273576E-14  0.35527136788E-14 -0.25757808907E+03  0.27222829296E+03  0.88100916677E+02 0.  0.
         66    2    3    3    0    0  0.34606894192E+02  0.20417088898E+02 -0.73240832099E+02  0.83562636000E+02  0.20000010371E+01 0.  0.
        -13    1    3    3    0    0 -0.34606894192E+02 -0.20417088898E+02 -0.18433725697E+03  0.18866565696E+03  0.10566000000E+00 0.  1.
         13    1    4    4    0    0  0.13357594913E+02  0.71008976666E+01 -0.27888271208E+02  0.31727195346E+02  0.10566000000E+00 0. -1.
        -13    1    4    4    0    0  0.18331020768E+02  0.11188029597E+02 -0.38212856228E+02  0.43834140505E+02  0.10566000000E+00 0.  1.
        -14    1    4    4    0    0  0.29182785107E+01  0.21281616337E+01 -0.71397046628E+01  0.80013001492E+01  0.00000000000E+00 0.  1.
<mgrwt>
<rscale>  0 0.88100917E+02</rscale>
<asrwt>0</asrwt>
<pdfrwt beam="1">  1        2 0.11269390E-02 0.88100917E+02</pdfrwt>
<pdfrwt beam="2">  1       -1 0.40754330E-01 0.88100917E+02</pdfrwt>
<totfact> 0.70817975E+04</totfact>
</mgrwt>
</event>
<event>
 8    1  0.1226832E-020  0.8060388E+02  0.7818608E-02  0.1327346E+00
         -1   -1    0    0    0  501 -0.00000000000E+00  0.00000000000E+00  0.35533639679E+02  0.35533640036E+02  0.50400000000E-02 0.  1.
          2   -1    0    0  501    0  0.00000000000E+00 -0.00000000000E+00 -0.45710099300E+02  0.45710099371E+02  0.25500000000E-02 0. -1.
         24    2    1    2    0    0  0.00000000000E+00  0.35527136788E-14 -0.10176459621E+02  0.81243739407E+02  0.80603876225E+02 0.  0.
         66    2    3    3    0    0 -0.32942277412E+02 -0.23107245519E+02 -0.68668162350E+01  0.40869201144E+02  0.20000001037E+01 0.  0.
        -13    1    3    3    0    0  0.32942277412E+02  0.23107245519E+02 -0.33096433863E+01  0.40374538263E+02  0.10566000000E+00 0.  1.
         13    1    4    4    0    0 -0.16509101604E+02 -0.11570982567E+02 -0.34738511373E+01  0.20457685087E+02  0.10566000000E+00 0. -1.
        -13    1    4    4    0    0 -0.90693394086E+01 -0.64128298853E+01 -0.11708239146E+01  0.11169570140E+02  0.10566000000E+00 0.  1.
        -14    1    4    4    0    0 -0.73638363990E+01 -0.51234330662E+01 -0.22221411831E+01  0.92419459170E+01  0.00000000000E+00 0.  1.
<mgrwt>
<rscale>  0 0.80603876E+02</rscale>
<asrwt>0</asrwt>
<pdfrwt beam="1">  1        2 0.70323230E-02 0.80603876E+02</pdfrwt>
<pdfrwt beam="2">  1       -1 0.54667138E-02 0.80603876E+02</pdfrwt>
<totfact> 0.14357684E+05</totfact>
</mgrwt>
</event>
<event>
 8    1  0.1226832E-020  0.7998553E+02  0.7818608E-02  0.1329093E+00
          2   -1    0    0  501    0  0.00000000000E+00  0.00000000000E+00  0.99344340282E+01  0.99344343555E+01  0.25500000000E-02 0. -1.
         -1   -1    0    0    0  501 -0.00000000000E+00 -0.00000000000E+00 -0.16099771482E+03  0.16099771490E+03  0.50400000000E-02 0.  1.
         24    2    1    2    0    0  0.00000000000E+00  0.00000000000E+00 -0.15106328079E+03  0.17093214925E+03  0.79985528973E+02 0.  0.
         66    2    3    3    0    0 -0.30291521719E+02 -0.21124396028E+02 -0.10824117231E+03  0.11438517290E+03  0.20000002855E+01 0.  0.
        -13    1    3    3    0    0  0.30291521719E+02  0.21124396028E+02 -0.42822108476E+02  0.56546976347E+02  0.10566000000E+00 0.  1.
         13    1    4    4    0    0 -0.64783410593E+01 -0.46277619628E+01 -0.21637404514E+02  0.23055878248E+02  0.10566000000E+00 0. -1.
        -13    1    4    4    0    0 -0.58759486829E+01 -0.46195590711E+01 -0.21358295656E+02  0.22628633549E+02  0.10566000000E+00 0. -1.
         14    1    4    4    0    0 -0.17937231977E+02 -0.11877074994E+02 -0.65245472143E+02  0.68700661107E+02  0.00000000000E+00 0. -1.
<mgrwt>
<rscale>  0 0.79985529E+02</rscale>
<asrwt>0</asrwt>
<pdfrwt beam="1">  1        2 0.15283746E-02 0.79985529E+02</pdfrwt>
<pdfrwt beam="2">  1       -1 0.24768878E-01 0.79985529E+02</pdfrwt>
<totfact> 0.10595636E+05</totfact>
</mgrwt>
</event>
<event>
 8    1  0.1226832E-020  0.8009606E+02  0.7818608E-02  0.1328779E+00
          2   -1    0    0  501    0  0.00000000000E+00  0.00000000000E+00  0.29797971398E+03  0.29797971399E+03  0.25500000000E-02 0. -1.
         -1   -1    0    0    0  501 -0.00000000000E+00 -0.00000000000E+00 -0.53823944592E+01  0.53823968189E+01  0.50400000000E-02 0.  1.
         24    2    1    2    0    0 -0.17763568394E-14  0.00000000000E+00  0.29259731952E+03  0.30336211081E+03  0.80096060354E+02 0.  0.
         66    2    3    3    0    0 -0.10523247856E+02 -0.16232914962E+02  0.27909162311E+03  0.27976844062E+03  0.20000001892E+01 0.  0.
        -13    1    3    3    0    0  0.10523247856E+02  0.16232914962E+02  0.13505696409E+02  0.23593670192E+02  0.10566000000E+00 0.  1.
         13    1    4    4    0    0 -0.65492504774E+00 -0.13056643457E+01  0.15767667244E+02  0.15835535373E+02  0.10566000000E+00 0. -1.
        -13    1    4    4    0    0 -0.21972500565E+01 -0.35193648738E+01  0.66623842688E+02  0.66752988064E+02  0.10566000000E+00 0.  1.
         14    1    4    4    0    0 -0.76710727520E+01 -0.11407885743E+02  0.19670011318E+03  0.19717991718E+03  0.00000000000E+00 0. -1.
<mgrwt>
<rscale>  0 0.80096060E+02</rscale>
<asrwt>0</asrwt>
<pdfrwt beam="1">  1        2 0.45843028E-01 0.80096060E+02</pdfrwt>
<pdfrwt beam="2">  1       -1 0.82806095E-03 0.80096060E+02</pdfrwt>
<totfact> 0.25352286E+05</totfact>
</mgrwt>
</event>
<event>
 8    1  0.1226832E-020  0.7099448E+02  0.7818608E-02  0.1356744E+00
         -1   -1    0    0    0  501 -0.00000000000E+00  0.00000000000E+00  0.32596481263E+02  0.32596481653E+02  0.50400000000E-02 0.  1.
          2   -1    0    0  501    0  0.00000000000E+00 -0.00000000000E+00 -0.38656131351E+02  0.38656131435E+02  0.25500000000E-02 0. -1.
         24    2    1    2    0    0  0.00000000000E+00  0.00000000000E+00 -0.60596500878E+01  0.71252613088E+02  0.70994475226E+02 0.  0.
         66    2    3    3    0    0 -0.92498191660E+01 -0.32594423574E+02  0.74984723075E+01  0.34758922542E+02  0.20000016579E+01 0.  0.
        -13    1    3    3    0    0  0.92498191660E+01  0.32594423574E+02 -0.13558122395E+02  0.36493690546E+02  0.10566000000E+00 0.  1.
         13    1    4    4    0    0 -0.43615825793E+01 -0.15587991828E+02  0.41933167018E+01  0.16721362410E+02  0.10566000000E+00 0. -1.
        -13    1    4    4    0    0 -0.20644328455E+01 -0.53825911553E+01  0.12627264633E+01  0.59025259572E+01  0.10566000000E+00 0.  1.
        -14    1    4    4    0    0 -0.28238037411E+01 -0.11623840590E+02  0.20424291423E+01  0.12135034175E+02  0.00000000000E+00 0.  1.
<mgrwt>
<rscale>  0 0.70994475E+02</rscale>
<asrwt>0</asrwt>
<pdfrwt beam="1">  1        2 0.59470971E-02 0.70994475E+02</pdfrwt>
<pdfrwt beam="2">  1       -1 0.50148433E-02 0.70994475E+02</pdfrwt>
<totfact> 0.19636371E+05</totfact>
</mgrwt>
</event>
<event>
 8    1  0.1226832E-020  0.8092187E+02  0.7818608E-02  0.1326455E+00
          2   -1    0    0  501    0  0.00000000000E+00  0.00000000000E+00  0.36421785931E+03  0.36421785932E+03  0.25500000000E-02 0. -1.
         -1   -1    0    0    0  501 -0.00000000000E+00 -0.00000000000E+00 -0.44948007296E+01  0.44948035553E+01  0.50400000000E-02 0.  1.
         24    2    1    2    0    0  0.00000000000E+00  0.00000000000E+00  0.35972305859E+03  0.36871266288E+03  0.80921869043E+02 0.  0.
         66    2    3    3    0    0  0.23403271565E+02 -0.18267531267E+02  0.30505796164E+03  0.30650575163E+03  0.20000017254E+01 0.  0.
        -13    1    3    3    0    0 -0.23403271565E+02  0.18267531267E+02  0.54665096950E+02  0.62206911249E+02  0.10566000000E+00 0.  1.
         13    1    4    4    0    0  0.10627455980E+02 -0.90604011758E+01  0.14812685657E+03  0.14878377092E+03  0.10566000000E+00 0. -1.
        -13    1    4    4    0    0  0.12286652590E+02 -0.89770177818E+01  0.15274245774E+03  0.15349859361E+03  0.10566000000E+00 0.  1.
        -14    1    4    4    0    0  0.48916299472E+00 -0.23011230915E+00  0.41886473289E+01  0.42233870953E+01  0.00000000000E+00 0.  1.
<mgrwt>
<rscale>  0 0.80921869E+02</rscale>
<asrwt>0</asrwt>
<pdfrwt beam="1">  1        2 0.56033538E-01 0.80921869E+02</pdfrwt>
<pdfrwt beam="2">  1       -1 0.69150776E-03 0.80921869E+02</pdfrwt>
<totfact> 0.26526934E+05</totfact>
</mgrwt>
</event>
<event>
 8    1  0.1226832E-020  0.8076525E+02  0.7818608E-02  0.1326894E+00
         -1   -1    0    0    0  501 -0.00000000000E+00  0.00000000000E+00  0.30428248107E+01  0.30428289847E+01  0.50400000000E-02 0.  1.
          2   -1    0    0  501    0  0.00000000000E+00 -0.00000000000E+00 -0.53593465326E+03  0.53593465327E+03  0.25500000000E-02 0. -1.
         24    2    1    2    0    0  0.88817841970E-15 -0.71054273576E-14 -0.53289182845E+03  0.53897748225E+03  0.80765249615E+02 0.  0.
         66    2    3    3    0    0  0.36944113906E+01 -0.34675720936E+02 -0.40217828569E+03  0.40369224387E+03  0.19999964005E+01 0.  0.
        -13    1    3    3    0    0 -0.36944113906E+01  0.34675720936E+02 -0.13071354276E+03  0.13528523838E+03  0.10566000000E+00 0.  1.
         13    1    4    4    0    0  0.10253539763E+01 -0.97373493597E+01 -0.10381165898E+03  0.10427242698E+03  0.10566000000E+00 0. -1.
        -13    1    4    4    0    0  0.32799698508E-01 -0.17916918313E+01 -0.21174696843E+02  0.21250651422E+02  0.10566000000E+00 0.  1.
         14    1    4    4    0    0  0.26362577158E+01 -0.23146679745E+02 -0.27719192986E+03  0.27816916547E+03  0.00000000000E+00 0. -1.
<mgrwt>
<rscale>  0 0.80765250E+02</rscale>
<asrwt>0</asrwt>
<pdfrwt beam="1">  1        2 0.82451410E-01 0.80765250E+02</pdfrwt>
<pdfrwt beam="2">  1       -1 0.46812764E-03 0.80765250E+02</pdfrwt>
<totfact> 0.30355426E+05</totfact>
</mgrwt>
</event>
<event>
 8    1  0.1226832E-020  0.7884650E+02  0.7818608E-02  0.1332357E+00
          2   -1    0    0  501    0  0.00000000000E+00  0.00000000000E+00  0.56601238758E+03  0.56601238759E+03  0.25500000000E-02 0. -1.
         -1   -1    0    0    0  501 -0.00000000000E+00 -0.00000000000E+00 -0.27458610277E+01  0.27458656532E+01  0.50400000000E-02 0.  1.
         24    2    1    2    0    0 -0.88817841970E-15  0.00000000000E+00  0.56326652655E+03  0.56875825324E+03  0.78846500830E+02 0.  0.
         66    2    3    3    0    0  0.72829894509E+01  0.20615437900E+02  0.51823039632E+03  0.51869526885E+03  0.20000118997E+01 0.  0.
        -13    1    3    3    0    0 -0.72829894509E+01 -0.20615437900E+02  0.45036130238E+02  0.50062984390E+02  0.10566000000E+00 0.  1.
         13    1    4    4    0    0  0.33518033405E+01  0.99360663449E+01  0.22893811741E+03  0.22917816817E+03  0.10566000000E+00 0. -1.
        -13    1    4    4    0    0  0.15301671439E+01  0.31798955323E+01  0.86791065970E+02  0.86862842708E+02  0.10566000000E+00 0.  1.
         14    1    4    4    0    0  0.24010189665E+01  0.74994760224E+01  0.20250121294E+03  0.20265425797E+03  0.00000000000E+00 0. -1.
<mgrwt>
<rscale>  0 0.78846501E+02</rscale>
<asrwt>0</asrwt>
<pdfrwt beam="1">  1        2 0.87078866E-01 0.78846501E+02</pdfrwt>
<pdfrwt beam="2">  1       -1 0.42244034E-03 0.78846501E+02</pdfrwt>
<totfact> 0.32849461E+05</totfact>
</mgrwt>
</event>
<event>
 8    1  0.1226832E-020  0.8001881E+02  0.7818608E-02  0.1328998E+00
         -1   -1    0    0    0  501 -0.00000000000E+00  0.00000000000E+00  0.10023968514E+02  0.10023969781E+02  0.50400000000E-02 0.  1.
          2   -1    0    0  501    0  0.00000000000E+00 -0.00000000000E+00 -0.15969249329E+03  0.15969249331E+03  0.25500000000E-02 0. -1.
         24    2    1    2    0    0  0.17763568394E-14 -0.17763568394E-14 -0.14966852477E+03  0.16971646309E+03  0.80018813636E+02 0.  0.
         66    2    3    3    0    0 -0.13574401792E+02 -0.76430887864E+01 -0.15298471567E+03  0.15378883061E+03  0.20000009724E+01 0.  0.
        -13    1    3    3    0    0  0.13574401792E+02  0.76430887864E+01  0.33161908926E+01  0.15927632476E+02  0.10566000000E+00 0.  1.
         13    1    4    4    0    0 -0.43444082539E+01 -0.16375315295E+01 -0.44553940254E+02  0.44795313915E+02  0.10566000000E+00 0. -1.
        -13    1    4    4    0    0 -0.21120033725E+01 -0.16751428390E+01 -0.23124346161E+02  0.23281177186E+02  0.10566000000E+00 0.  1.
         14    1    4    4    0    0 -0.71179901658E+01 -0.43304144178E+01 -0.85306429251E+02  0.85712339512E+02  0.00000000000E+00 0. -1.
<mgrwt>
<rscale>  0 0.80018814E+02</rscale>
<asrwt>0</asrwt>
<pdfrwt beam="1">  1        2 0.24568074E-01 0.80018814E+02</pdfrwt>
<pdfrwt beam="2">  1       -1 0.15421492E-02 0.80018814E+02</pdfrwt>
<totfact> 0.20429228E+05</totfact>
</mgrwt>
</event>
<event>
 8    1  0.1226832E-020  0.7939129E+02  0.7818608E-02  0.1330788E+00
         -1   -1    0    0    0  501 -0.00000000000E+00  0.00000000000E+00  0.11641893292E+02  0.11641894383E+02  0.50400000000E-02 0.  1.
          2   -1    0    0  501    0  0.00000000000E+00 -0.00000000000E+00 -0.13535119199E+03  0.13535119201E+03  0.25500000000E-02 0. -1.
         24    2    1    2    0    0  0.22204460493E-15  0.00000000000E+00 -0.12370929870E+03  0.14699308640E+03  0.79391289598E+02 0.  0.
         66    2    3    3    0    0 -0.11398665939E+01  0.34755699891E+02 -0.97241535528E+02  0.10329169486E+03  0.20000062386E+01 0.  0.
        -13    1    3    3    0    0  0.11398665939E+01 -0.34755699891E+02 -0.26467763169E+02  0.43701391533E+02  0.10566000000E+00 0.  1.
         13    1    4    4    0    0 -0.59072140912E+00  0.98366115580E+01 -0.26887870781E+02  0.28636980251E+02  0.10566000000E+00 0. -1.
        -13    1    4    4    0    0 -0.39579731705E+00  0.10157438123E+02 -0.26497514069E+02  0.28380620512E+02  0.10566000000E+00 0.  1.
        -14    1    4    4    0    0 -0.15334786769E+00  0.14761650210E+02 -0.43856150678E+02  0.46274094100E+02  0.00000000000E+00 0.  1.
<mgrwt>
<rscale>  0 0.79391290E+02</rscale>
<asrwt>0</asrwt>
<pdfrwt beam="1">  1        2 0.20823259E-01 0.79391290E+02</pdfrwt>
<pdfrwt beam="2">  1       -1 0.17910607E-02 0.79391290E+02</pdfrwt>
<totfact> 0.19785203E+05</totfact>
</mgrwt>
</event>
<event>
 8    1  0.1226832E-020  0.7923776E+02  0.7818608E-02  0.1331229E+00
          2   -1    0    0  501    0  0.00000000000E+00  0.00000000000E+00  0.54922883866E+03  0.54922883867E+03  0.25500000000E-02 0. -1.
         -1   -1    0    0    0  501 -0.00000000000E+00 -0.00000000000E+00 -0.28579243062E+01  0.28579287503E+01  0.50400000000E-02 0.  1.
         24    2    1    2    0    0  0.00000000000E+00  0.00000000000E+00  0.54637091436E+03  0.55208676742E+03  0.79237760597E+02 0.  0.
         66    2    3    3    0    0  0.65313533205E+01  0.38267247451E+02  0.32760242897E+03  0.32990057936E+03  0.19999971445E+01 0.  0.
        -13    1    3    3    0    0 -0.65313533205E+01 -0.38267247451E+02  0.21876848539E+03  0.22218618806E+03  0.10566000000E+00 0.  1.
         13    1    4    4    0    0  0.16736164391E+01  0.11954045159E+02  0.10198301399E+03  0.10269491952E+03  0.10566000000E+00 0. -1.
        -13    1    4    4    0    0  0.47547209186E+01  0.24833387275E+02  0.21545613568E+03  0.21693469538E+03  0.10566000000E+00 0.  1.
        -14    1    4    4    0    0  0.10301596276E+00  0.14798150172E+01  0.10163279297E+02  0.10270964456E+02  0.00000000000E+00 0.  1.
<mgrwt>
<rscale>  0 0.79237761E+02</rscale>
<asrwt>0</asrwt>
<pdfrwt beam="1">  1        2 0.84496769E-01 0.79237761E+02</pdfrwt>
<pdfrwt beam="2">  1       -1 0.43968088E-03 0.79237761E+02</pdfrwt>
<totfact> 0.32140841E+05</totfact>
</mgrwt>
</event>
<event>
 8    1  0.1226832E-020  0.8358902E+02  0.7818608E-02  0.1319164E+00
         -1   -1    0    0    0  501 -0.00000000000E+00  0.00000000000E+00  0.26960022208E+02  0.26960022680E+02  0.50400000000E-02 0.  1.
          2   -1    0    0  501    0  0.00000000000E+00 -0.00000000000E+00 -0.64791522720E+02  0.64791522770E+02  0.25500000000E-02 0. -1.
         24    2    1    2    0    0  0.88817841970E-15  0.71054273576E-14 -0.37831500512E+02  0.91751545450E+02  0.83589016392E+02 0.  0.
         66    2    3    3    0    0  0.68601766508E+01  0.37606879280E+02 -0.37406127728E+02  0.53521563775E+02  0.20000011054E+01 0.  0.
        -13    1    3    3    0    0 -0.68601766508E+01 -0.37606879280E+02 -0.42537278313E+00  0.38229981675E+02  0.10566000000E+00 0.  1.
         13    1    4    4    0    0  0.13871690245E+01  0.50977780465E+01 -0.49738745121E+01  0.72568705798E+01  0.10566000000E+00 0. -1.
        -13    1    4    4    0    0  0.13060945831E+01  0.93980266908E+01 -0.10086577762E+02  0.13848429648E+02  0.10566000000E+00 0.  1.
         14    1    4    4    0    0  0.41669130432E+01  0.23111074542E+02 -0.22345675454E+02  0.32416263547E+02  0.00000000000E+00 0. -1.
<mgrwt>
<rscale>  0 0.83589016E+02</rscale>
<asrwt>0</asrwt>
<pdfrwt beam="1">  1        2 0.99679265E-02 0.83589016E+02</pdfrwt>
<pdfrwt beam="2">  1       -1 0.41476958E-02 0.83589016E+02</pdfrwt>
<totfact> 0.14064458E+05</totfact>
</mgrwt>
</event>
<event>
 8    1  0.1226832E-020  0.7979152E+02  0.7818608E-02  0.1329644E+00
         -1   -1    0    0    0  501 -0.00000000000E+00  0.00000000000E+00  0.46268878110E+01  0.46268905560E+01  0.50400000000E-02 0.  1.
          2   -1    0    0  501    0  0.00000000000E+00 -0.00000000000E+00 -0.34400473713E+03  0.34400473714E+03  0.25500000000E-02 0. -1.
         24    2    1    2    0    0  0.00000000000E+00  0.00000000000E+00 -0.33937784932E+03  0.34863162769E+03  0.79791523492E+02 0.  0.
         66    2    3    3    0    0 -0.14296336195E+02  0.30899751082E+02 -0.26044987994E+03  0.26267340901E+03  0.19999984047E+01 0.  0.
        -13    1    3    3    0    0  0.14296336195E+02 -0.30899751082E+02 -0.78927969378E+02  0.85958218687E+02  0.10566000000E+00 0.  1.
         13    1    4    4    0    0 -0.63889233546E+01  0.15007569164E+02 -0.12567159257E+03  0.12672571095E+03  0.10566000000E+00 0. -1.
        -13    1    4    4    0    0 -0.48136513740E+00  0.11549525640E+01 -0.11946104724E+02  0.12011919494E+02  0.10566000000E+00 0.  1.
        -14    1    4    4    0    0 -0.74260477031E+01  0.14737229355E+02 -0.12283218265E+03  0.12393577856E+03  0.00000000000E+00 0.  1.
<mgrwt>
<rscale>  0 0.79791523E+02</rscale>
<asrwt>0</asrwt>
<pdfrwt beam="1">  1        2 0.52923786E-01 0.79791523E+02</pdfrwt>
<pdfrwt beam="2">  1       -1 0.71182938E-03 0.79791523E+02</pdfrwt>
<totfact> 0.26967139E+05</totfact>
</mgrwt>
</event>
<event>
 8    1  0.1226832E-020  0.7940592E+02  0.7818608E-02  0.1330746E+00
         -1   -1    0    0    0  501 -0.00000000000E+00  0.00000000000E+00  0.20512642544E+01  0.20512704461E+01  0.50400000000E-02 0.  1.
          2   -1    0    0  501    0  0.00000000000E+00 -0.00000000000E+00 -0.76846393984E+03  0.76846393985E+03  0.25500000000E-02 0. -1.
         24    2    1    2    0    0 -0.17763568394E-14  0.00000000000E+00 -0.76641267559E+03  0.77051521029E+03  0.79405919114E+02 0.  0.
         66    2    3    3    0    0  0.12408024636E+02  0.31887512502E+01 -0.74783971801E+03  0.74795211815E+03  0.19999997467E+01 0.  0.
        -13    1    3    3    0    0 -0.12408024636E+02 -0.31887512502E+01 -0.18572957578E+02  0.22563092144E+02  0.10566000000E+00 0.  1.
         13    1    4    4    0    0  0.39821713103E+01  0.84503955588E+00 -0.22005815672E+03  0.22009583204E+03  0.10566000000E+00 0. -1.
        -13    1    4    4    0    0  0.28345623144E+01  0.23499546827E+00 -0.20009965437E+03  0.20011989609E+03  0.10566000000E+00 0.  1.
        -14    1    4    4    0    0  0.55912910109E+01  0.21087162260E+01 -0.32768190692E+03  0.32773639002E+03  0.00000000000E+00 0.  1.
<mgrwt>
<rscale>  0 0.79405919E+02</rscale>
<asrwt>0</asrwt>
<pdfrwt beam="1">  1        2 0.11822499E+00 0.79405919E+02</pdfrwt>
<pdfrwt beam="2">  1       -1 0.31558021E-03 0.79405919E+02</pdfrwt>
<totfact> 0.34782154E+05</totfact>
</mgrwt>
</event>
<event>
 8    1  0.1226832E-020  0.7855316E+02  0.7818608E-02  0.1333208E+00
         -1   -1    0    0    0  501 -0.00000000000E+00  0.00000000000E+00  0.95267031198E+02  0.95267031331E+02  0.50400000000E-02 0.  1.
          2   -1    0    0  501    0  0.00000000000E+00 -0.00000000000E+00 -0.16192903050E+02  0.16192903251E+02  0.25500000000E-02 0. -1.
         24    2    1    2    0    0  0.00000000000E+00  0.00000000000E+00  0.79074128148E+02  0.11145993458E+03  0.78553162093E+02 0.  0.
         66    2    3    3    0    0 -0.13573614376E+02  0.32971538691E+02  0.62846577686E+02  0.72284560572E+02  0.19999998477E+01 0.  0.
        -13    1    3    3    0    0  0.13573614376E+02 -0.32971538691E+02  0.16227550462E+02  0.39175374011E+02  0.10566000000E+00 0.  1.
         13    1    4    4    0    0 -0.95845227695E+01  0.24005079524E+02  0.45461451463E+02  0.52295904742E+02  0.10566000000E+00 0. -1.
        -13    1    4    4    0    0 -0.71323064067E+00  0.26069495862E+01  0.50803999728E+01  0.57555635703E+01  0.10566000000E+00 0.  1.
         14    1    4    4    0    0 -0.32758609654E+01  0.63595095807E+01  0.12304726250E+02  0.14233092259E+02  0.00000000000E+00 0. -1.
<mgrwt>
<rscale>  0 0.78553162E+02</rscale>
<asrwt>0</asrwt>
<pdfrwt beam="1">  1        2 0.24912159E-02 0.78553162E+02</pdfrwt>
<pdfrwt beam="2">  1       -1 0.14656467E-01 0.78553162E+02</pdfrwt>
<totfact> 0.12532141E+05</totfact>
</mgrwt>
</event>
<event>
 8    1  0.1226832E-020  0.7885351E+02  0.7818608E-02  0.1332337E+00
          2   -1    0    0  501    0  0.00000000000E+00  0.00000000000E+00  0.10779864685E+04  0.10779864685E+04  0.25500000000E-02 0. -1.
         -1   -1    0    0    0  501 -0.00000000000E+00 -0.00000000000E+00 -0.14420072553E+01  0.14420160630E+01  0.50400000000E-02 0.  1.
         24    2    1    2    0    0  0.35527136788E-14  0.00000000000E+00  0.10765444612E+04  0.10794284846E+04  0.78853511371E+02 0.  0.
         66    2    3    3    0    0 -0.19445204682E+02 -0.15578142346E+02  0.95645156447E+03  0.95677812980E+03  0.19999961783E+01 0.  0.
        -13    1    3    3    0    0  0.19445204682E+02  0.15578142346E+02  0.12009289676E+03  0.12265035475E+03  0.10566000000E+00 0.  1.
         13    1    4    4    0    0 -0.10646117826E+02 -0.79916775627E+01  0.50393972962E+03  0.50411553139E+03  0.10566000000E+00 0. -1.
        -13    1    4    4    0    0 -0.36484308948E+01 -0.23761912673E+01  0.17009849925E+03  0.17015424751E+03  0.10566000000E+00 0.  1.
         14    1    4    4    0    0 -0.51506559617E+01 -0.52102735160E+01  0.28241333560E+03  0.28250835090E+03  0.00000000000E+00 0. -1.
<mgrwt>
<rscale>  0 0.78853511E+02</rscale>
<asrwt>0</asrwt>
<pdfrwt beam="1">  1        2 0.16584421E+00 0.78853511E+02</pdfrwt>
<pdfrwt beam="2">  1       -1 0.22184776E-03 0.78853511E+02</pdfrwt>
<totfact> 0.36614200E+05</totfact>
</mgrwt>
</event>
<event>
 8    1  0.1226832E-020  0.8002381E+02  0.7818608E-02  0.1328984E+00
          2   -1    0    0  501    0  0.00000000000E+00  0.00000000000E+00  0.43255827261E+03  0.43255827262E+03  0.25500000000E-02 0. -1.
         -1   -1    0    0    0  501 -0.00000000000E+00 -0.00000000000E+00 -0.37011236472E+01  0.37011270788E+01  0.50400000000E-02 0.  1.
         24    2    1    2    0    0  0.00000000000E+00  0.35527136788E-14  0.42885714896E+03  0.43625939970E+03  0.80023806501E+02 0.  0.
         66    2    3    3    0    0  0.20072852536E+02  0.23182147641E+02  0.35446988190E+03  0.35579942180E+03  0.19999999576E+01 0.  0.
        -13    1    3    3    0    0 -0.20072852536E+02 -0.23182147641E+02  0.74387267064E+02  0.80459977898E+02  0.10566000000E+00 0.  1.
         13    1    4    4    0    0  0.83292915524E+01  0.10336166848E+02  0.15560276682E+03  0.15616800457E+03  0.10566000000E+00 0. -1.
        -13    1    4    4    0    0  0.50439877920E+01  0.61326784772E+01  0.85179465585E+02  0.85548840317E+02  0.10566000000E+00 0.  1.
        -14    1    4    4    0    0  0.66995731916E+01  0.67133023165E+01  0.11368764949E+03  0.11408257691E+03  0.00000000000E+00 0.  1.
<mgrwt>
<rscale>  0 0.80023807E+02</rscale>
<asrwt>0</asrwt>
<pdfrwt beam="1">  1        2 0.66547413E-01 0.80023807E+02</pdfrwt>
<pdfrwt beam="2">  1       -1 0.56940402E-03 0.80023807E+02</pdfrwt>
<totfact> 0.29005149E+05</totfact>
</mgrwt>
</event>
<event>
 8    1  0.1226832E-020  0.7987559E+02  0.7818608E-02  0.1329405E+00
         -1   -1    0    0    0  501 -0.00000000000E+00  0.00000000000E+00  0.44325470033E+02  0.44325470320E+02  0.50400000000E-02 0.  1.
          2   -1    0    0  501    0  0.00000000000E+00 -0.00000000000E+00 -0.35984441983E+02  0.35984442073E+02  0.25500000000E-02 0. -1.
         24    2    1    2    0    0 -0.35527136788E-14 -0.17763568394E-14  0.83410280508E+01  0.80309912393E+02  0.79875586255E+02 0.  0.
         66    2    3    3    0    0 -0.31101451073E+02 -0.10794040836E+02 -0.18515279916E+02  0.37823632043E+02  0.19999935346E+01 0.  0.
        -13    1    3    3    0    0  0.31101451073E+02  0.10794040836E+02  0.26856307966E+02  0.42486280350E+02  0.10566000000E+00 0.  1.
         13    1    4    4    0    0 -0.12727863975E+02 -0.49165007885E+01 -0.70896026539E+01  0.15376739940E+02  0.10566000000E+00 0. -1.
        -13    1    4    4    0    0 -0.92901797788E+01 -0.34080210424E+01 -0.54574071154E+01  0.11301172692E+02  0.10566000000E+00 0.  1.
        -14    1    4    4    0    0 -0.90834073191E+01 -0.24695190053E+01 -0.59682701463E+01  0.11145719411E+02  0.00000000000E+00 0.  1.
<mgrwt>
<rscale>  0 0.79875586E+02</rscale>
<asrwt>0</asrwt>
<pdfrwt beam="1">  1        2 0.55360680E-02 0.79875586E+02</pdfrwt>
<pdfrwt beam="2">  1       -1 0.68193031E-02 0.79875586E+02</pdfrwt>
<totfact> 0.14012069E+05</totfact>
</mgrwt>
</event>
<event>
 8    1  0.1226832E-020  0.8249325E+02  0.7818608E-02  0.1322121E+00
          2   -1    0    0  501    0  0.00000000000E+00  0.00000000000E+00  0.51767984980E+03  0.51767984981E+03  0.25500000000E-02 0. -1.
         -1   -1    0    0    0  501 -0.00000000000E+00 -0.00000000000E+00 -0.32863615401E+01  0.32863654048E+01  0.50400000000E-02 0.  1.
         24    2    1    2    0    0 -0.35527136788E-14  0.35527136788E-14  0.51439348826E+03  0.52096621522E+03  0.82493252010E+02 0.  0.
         66    2    3    3    0    0  0.31694933292E+02 -0.25488109148E+02  0.29974290697E+03  0.30249631862E+03  0.19999988933E+01 0.  0.
        -13    1    3    3    0    0 -0.31694933292E+02  0.25488109148E+02  0.21465058129E+03  0.21846989659E+03  0.10566000000E+00 0.  1.
         13    1    4    4    0    0  0.28778055000E+02 -0.22547372881E+02  0.26849310906E+03  0.27097070183E+03  0.10566000000E+00 0. -1.
        -13    1    4    4    0    0  0.16219742559E+01 -0.17549276026E+01  0.19248230890E+02  0.19396291600E+02  0.10566000000E+00 0.  1.
         14    1    4    4    0    0  0.12949040357E+01 -0.11858086643E+01  0.12001567019E+02  0.12129325190E+02  0.00000000000E+00 0. -1.
<mgrwt>
<rscale>  0 0.82493252E+02</rscale>
<asrwt>0</asrwt>
<pdfrwt beam="1">  1        2 0.79642986E-01 0.82493252E+02</pdfrwt>
<pdfrwt beam="2">  1       -1 0.50559481E-03 0.82493252E+02</pdfrwt>
<totfact> 0.28417629E+05</totfact>
</mgrwt>
</event>
<event>
 8    1  0.1226832E-020  0.8042518E+02  0.7818608E-02  0.1327849E+00
         -1   -1    0    0    0  501 -0.00000000000E+00  0.00000000000E+00  0.47454773086E+01  0.47454799850E+01  0.50400000000E-02 0.  1.
          2   -1    0    0  501    0  0.00000000000E+00 -0.00000000000E+00 -0.34075645479E+03  0.34075645480E+03  0.25500000000E-02 0. -1.
         24    2    1    2    0    0  0.35527136788E-14  0.00000000000E+00 -0.33601097748E+03  0.34550193478E+03  0.80425182324E+02 0.  0.
         66    2    3    3    0    0 -0.18722705409E+02 -0.12277309166E+02 -0.31147875655E+03  0.31228878910E+03  0.19999999651E+01 0.  0.
        -13    1    3    3    0    0  0.18722705409E+02  0.12277309166E+02 -0.24532220935E+02  0.33213145684E+02  0.10566000000E+00 0.  1.
         13    1    4    4    0    0 -0.13027122280E+01 -0.50080535818E+00 -0.19554867561E+02  0.19604894147E+02  0.10566000000E+00 0. -1.
        -13    1    4    4    0    0 -0.14212727873E+02 -0.95913259235E+01 -0.22969227342E+03  0.23033138475E+03  0.10566000000E+00 0.  1.
         14    1    4    4    0    0 -0.32072653084E+01 -0.21851778847E+01 -0.62231615563E+02  0.62352510204E+02  0.00000000000E+00 0. -1.
<mgrwt>
<rscale>  0 0.80425182E+02</rscale>
<asrwt>0</asrwt>
<pdfrwt beam="1">  1        2 0.52424051E-01 0.80425182E+02</pdfrwt>
<pdfrwt beam="2">  1       -1 0.73007391E-03 0.80425182E+02</pdfrwt>
<totfact> 0.26324906E+05</totfact>
</mgrwt>
</event>
<event>
 8    1  0.1486528E-020  0.8020801E+02  0.7818608E-02  0.1328462E+00
          2   -1    0    0  501    0  0.00000000000E+00  0.00000000000E+00  0.29854525223E+03  0.29854525224E+03  0.25500000000E-02 0. -1.
         -1   -1    0    0    0  501 -0.00000000000E+00 -0.00000000000E+00 -0.53872259362E+01  0.53872282938E+01  0.50400000000E-02 0.  1.
         24    2    1    2    0    0 -0.35527136788E-14  0.35527136788E-14  0.29315802629E+03  0.30393248054E+03  0.80208006729E+02 0.  0.
         66    2    3    3    0    0 -0.21254206089E+02  0.16260911759E+02  0.25972632998E+03  0.26110902890E+03  0.19999897562E+01 0.  0.
        -13    1    3    3    0    0  0.21254206089E+02 -0.16260911759E+02  0.33431696315E+02  0.42823451639E+02  0.10566000000E+00 0.  1.
         13    1    4    4    0    0 -0.12301952061E+02  0.96477768976E+01  0.14766669650E+03  0.14849202686E+03  0.10566000000E+00 0. -1.
        -13    1    4    4    0    0 -0.47871206653E+01  0.40455556117E+01  0.58873648141E+02  0.59206424093E+02  0.10566000000E+00 0.  1.
        -14    1    4    4    0    0 -0.41651333626E+01  0.25675792498E+01  0.53185985340E+02  0.53410577939E+02  0.00000000000E+00 0.  1.
<mgrwt>
<rscale>  0 0.80208007E+02</rscale>
<asrwt>0</asrwt>
<pdfrwt beam="1">  1        2 0.45930048E-01 0.80208007E+02</pdfrwt>
<pdfrwt beam="2">  1       -1 0.82880401E-03 0.80208007E+02</pdfrwt>
<totfact> 0.25276952E+05</totfact>
</mgrwt>
</event>
<event>
 8    1  0.1226832E-020  0.8028483E+02  0.7818608E-02  0.1328245E+00
         -1   -1    0    0    0  501 -0.00000000000E+00  0.00000000000E+00  0.17223365499E+03  0.17223365506E+03  0.50400000000E-02 0.  1.
          2   -1    0    0  501    0  0.00000000000E+00 -0.00000000000E+00 -0.93559737393E+01  0.93559740868E+01  0.25500000000E-02 0. -1.
         24    2    1    2    0    0  0.88817841970E-15  0.00000000000E+00  0.16287768125E+03  0.18158962915E+03  0.80284832723E+02 0.  0.
         66    2    3    3    0    0 -0.28156247212E+01 -0.37043678843E+02  0.47243295918E+02  0.60133941264E+02  0.19999994689E+01 0.  0.
        -13    1    3    3    0    0  0.28156247212E+01  0.37043678843E+02  0.11563438533E+03  0.12145568788E+03  0.10566000000E+00 0.  1.
         13    1    4    4    0    0  0.12417249371E+00 -0.64080905814E+01  0.78649267491E+01  0.10146293930E+02  0.10566000000E+00 0. -1.
        -13    1    4    4    0    0 -0.11180760674E+01 -0.74551717092E+01  0.97196807185E+01  0.12300936412E+02  0.10566000000E+00 0.  1.
         14    1    4    4    0    0 -0.18217211475E+01 -0.23180416552E+02  0.29658688451E+02  0.37686710922E+02  0.00000000000E+00 0. -1.
<mgrwt>
<rscale>  0 0.80284833E+02</rscale>
<asrwt>0</asrwt>
<pdfrwt beam="1">  1        2 0.14393806E-02 0.80284833E+02</pdfrwt>
<pdfrwt beam="2">  1       -1 0.26497486E-01 0.80284833E+02</pdfrwt>
<totfact> 0.10306302E+05</totfact>
</mgrwt>
</event>
<event>
 8    1  0.1226832E-020  0.7823476E+02  0.7818608E-02  0.1334137E+00
         -1   -1    0    0    0  501 -0.00000000000E+00  0.00000000000E+00  0.10504379975E+01  0.10504500884E+01  0.50400000000E-02 0.  1.
          2   -1    0    0  501    0  0.00000000000E+00 -0.00000000000E+00 -0.14566881785E+04  0.14566881785E+04  0.25500000000E-02 0. -1.
         24    2    1    2    0    0  0.00000000000E+00  0.00000000000E+00 -0.14556377405E+04  0.14577386285E+04  0.78234760242E+02 0.  0.
         66    2    3    3    0    0  0.34755525208E+00 -0.22258053966E+02 -0.13270503868E+04  0.13272385885E+04  0.20000002955E+01 0.  0.
        -13    1    3    3    0    0 -0.34755525208E+00  0.22258053966E+02 -0.12858735368E+03  0.13050004005E+03  0.10566000000E+00 0.  1.
         13    1    4    4    0    0  0.87026774757E-01 -0.17265274143E+02 -0.10429065633E+04  0.10430494754E+04  0.10566000000E+00 0. -1.
        -13    1    4    4    0    0 -0.77808007457E-01 -0.41414891934E+01 -0.22412906545E+03  0.22416736411E+03  0.10566000000E+00 0.  1.
        -14    1    4    4    0    0  0.33833648478E+00 -0.85129062885E+00 -0.60014758048E+02  0.60021748982E+02  0.00000000000E+00 0.  1.
<mgrwt>
<rscale>  0 0.78234760E+02</rscale>
<asrwt>0</asrwt>
<pdfrwt beam="1">  1        2 0.22410426E+00 0.78234760E+02</pdfrwt>
<pdfrwt beam="2">  1       -1 0.16160794E-03 0.78234760E+02</pdfrwt>
<totfact> 0.35603369E+05</totfact>
</mgrwt>
</event>
<event>
 8    1  0.1226832E-020  0.7960240E+02  0.7818608E-02  0.1330184E+00
         -1   -1    0    0    0  501 -0.00000000000E+00  0.00000000000E+00  0.68860601686E+01  0.68860620130E+01  0.50400000000E-02 0.  1.
          2   -1    0    0  501    0  0.00000000000E+00 -0.00000000000E+00 -0.23004959057E+03  0.23004959058E+03  0.25500000000E-02 0. -1.
         24    2    1    2    0    0  0.00000000000E+00  0.00000000000E+00 -0.22316353040E+03  0.23693565259E+03  0.79602400531E+02 0.  0.
         66    2    3    3    0    0 -0.13361383447E+01 -0.37512162422E+02 -0.72481707802E+02  0.81648916456E+02  0.19999993570E+01 0.  0.
        -13    1    3    3    0    0  0.13361383447E+01  0.37512162422E+02 -0.15068182260E+03  0.15528673614E+03  0.10566000000E+00 0.  1.
         13    1    4    4    0    0 -0.11753915044E+01 -0.14720849441E+02 -0.29277041349E+02  0.32790871712E+02  0.10566000000E+00 0. -1.
        -13    1    4    4    0    0 -0.22064904376E+00 -0.16472752651E+02 -0.32132760970E+02  0.36109912177E+02  0.10566000000E+00 0.  1.
         14    1    4    4    0    0  0.59902203473E-01 -0.63185603300E+01 -0.11071905483E+02  0.12748132567E+02  0.00000000000E+00 0. -1.
<mgrwt>
<rscale>  0 0.79602401E+02</rscale>
<asrwt>0</asrwt>
<pdfrwt beam="1">  1        2 0.35392239E-01 0.79602401E+02</pdfrwt>
<pdfrwt beam="2">  1       -1 0.10593942E-02 0.79602401E+02</pdfrwt>
<totfact> 0.23476526E+05</totfact>
</mgrwt>
</event>
<event>
 8    1  0.1226832E-020  0.7952130E+02  0.7818608E-02  0.1330415E+00
          2   -1    0    0  501    0  0.00000000000E+00  0.00000000000E+00  0.98210572252E+01  0.98210575563E+01  0.25500000000E-02 0. -1.
         -1   -1    0    0    0  501 -0.00000000000E+00 -0.00000000000E+00 -0.16097140425E+03  0.16097140433E+03  0.50400000000E-02 0.  1.
         24    2    1    2    0    0  0.00000000000E+00  0.00000000000E+00 -0.15115034702E+03  0.17079246188E+03  0.79521303001E+02 0.  0.
         66    2    3    3    0    0  0.38249329383E+02  0.31243283513E+00 -0.52511175651E+02  0.64996402857E+02  0.20000008900E+01 0.  0.
        -13    1    3    3    0    0 -0.38249329383E+02 -0.31243283513E+00 -0.98639171370E+02  0.10579605902E+03  0.10566000000E+00 0.  1.
         13    1    4    4    0    0  0.12633078898E+02  0.68042062147E+00 -0.18412456545E+02  0.22340263533E+02  0.10566000000E+00 0. -1.
        -13    1    4    4    0    0  0.25146388699E+02 -0.41205672320E+00 -0.33330954901E+02  0.41754932332E+02  0.10566000000E+00 0.  1.
        -14    1    4    4    0    0  0.46986178613E+00  0.44068936858E-01 -0.76776420444E+00  0.90120699225E+00  0.00000000000E+00 0.  1.
<mgrwt>
<rscale>  0 0.79521303E+02</rscale>
<asrwt>0</asrwt>
<pdfrwt beam="1">  1        2 0.15109320E-02 0.79521303E+02</pdfrwt>
<pdfrwt beam="2">  1       -1 0.24764830E-01 0.79521303E+02</pdfrwt>
<totfact> 0.10753430E+05</totfact>
</mgrwt>
</event>
<event>
 8    1  0.1226832E-020  0.7972620E+02  0.7818608E-02  0.1329830E+00
         -1   -1    0    0    0  501 -0.00000000000E+00  0.00000000000E+00  0.31845821329E+01  0.31845861211E+01  0.50400000000E-02 0.  1.
          2   -1    0    0  501    0  0.00000000000E+00 -0.00000000000E+00 -0.49898718626E+03  0.49898718627E+03  0.25500000000E-02 0. -1.
         24    2    1    2    0    0  0.17763568394E-14  0.00000000000E+00 -0.49580260413E+03  0.50217177239E+03  0.79726198478E+02 0.  0.
         66    2    3    3    0    0 -0.88373465428E+01  0.11331735198E+02 -0.48209039217E+03  0.48230866998E+03  0.19999991006E+01 0.  0.
        -13    1    3    3    0    0  0.88373465428E+01 -0.11331735198E+02 -0.13712211954E+02  0.19863102407E+02  0.10566000000E+00 0.  1.
         13    1    4    4    0    0 -0.48881228497E+01  0.50066712004E+01 -0.24852782263E+03  0.24862632661E+03  0.10566000000E+00 0. -1.
        -13    1    4    4    0    0 -0.32710244522E+01  0.52827143642E+01 -0.20098152219E+03  0.20107757234E+03  0.10566000000E+00 0.  1.
        -14    1    4    4    0    0 -0.67819924094E+00  0.10423496338E+01 -0.32581047355E+02  0.32604771027E+02  0.00000000000E+00 0.  1.
<mgrwt>
<rscale>  0 0.79726198E+02</rscale>
<asrwt>0</asrwt>
<pdfrwt beam="1">  1        2 0.76767198E-01 0.79726198E+02</pdfrwt>
<pdfrwt beam="2">  1       -1 0.48993642E-03 0.79726198E+02</pdfrwt>
<totfact> 0.30704741E+05</totfact>
</mgrwt>
</event>
<event>
 8    1  0.1226832E-020  0.8295918E+02  0.7818608E-02  0.1320857E+00
         -1   -1    0    0    0  501 -0.00000000000E+00  0.00000000000E+00  0.94172762605E+00  0.94174111265E+00  0.50400000000E-02 0.  1.
          2   -1    0    0  501    0  0.00000000000E+00 -0.00000000000E+00 -0.18270081662E+04  0.18270081662E+04  0.25500000000E-02 0. -1.
         24    2    1    2    0    0  0.00000000000E+00  0.00000000000E+00 -0.18260664385E+04  0.18279499073E+04  0.82959180110E+02 0.  0.
         66    2    3    3    0    0 -0.15382452568E+01  0.16293522184E+02 -0.17528090009E+04  0.17528865447E+04  0.19999996637E+01 0.  0.
        -13    1    3    3    0    0  0.15382452568E+01 -0.16293522184E+02 -0.73257437638E+02  0.75063362548E+02  0.10566000000E+00 0.  1.
         13    1    4    4    0    0 -0.38632925321E+00  0.12510968045E+01 -0.13402926665E+03  0.13403570411E+03  0.10566000000E+00 0. -1.
        -13    1    4    4    0    0 -0.47985761564E+00  0.10354160793E+02 -0.11808624293E+04  0.11809079248E+04  0.10566000000E+00 0.  1.
        -14    1    4    4    0    0 -0.67205838798E+00  0.46882645864E+01 -0.43791730496E+03  0.43794291577E+03  0.00000000000E+00 0.  1.
<mgrwt>
<rscale>  0 0.82959180E+02</rscale>
<asrwt>0</asrwt>
<pdfrwt beam="1">  1        2 0.28107534E+00 0.82959180E+02</pdfrwt>
<pdfrwt beam="2">  1       -1 0.14488367E-03 0.82959180E+02</pdfrwt>
<totfact> 0.27198916E+05</totfact>
</mgrwt>
</event>
<event>
 8    1  0.1226832E-020  0.8206394E+02  0.7818608E-02  0.1323294E+00
          2   -1    0    0  501    0  0.00000000000E+00  0.00000000000E+00  0.52129466235E+01  0.52129472472E+01  0.25500000000E-02 0. -1.
         -1   -1    0    0    0  501 -0.00000000000E+00 -0.00000000000E+00 -0.32296945269E+03  0.32296945273E+03  0.50400000000E-02 0.  1.
         24    2    1    2    0    0  0.00000000000E+00  0.00000000000E+00 -0.31775650607E+03  0.32818239998E+03  0.82063941575E+02 0.  0.
         66    2    3    3    0    0  0.34891784672E+02  0.21129980313E+02 -0.14214524348E+03  0.14789585190E+03  0.20000149890E+01 0.  0.
        -13    1    3    3    0    0 -0.34891784672E+02 -0.21129980313E+02 -0.17561126259E+03  0.18028654808E+03  0.10566000000E+00 0.  1.
         13    1    4    4    0    0  0.18597059691E+02  0.10546152773E+02 -0.73714509200E+02  0.76752276827E+02  0.10566000000E+00 0. -1.
        -13    1    4    4    0    0  0.99021704176E+01  0.68098842948E+01 -0.43734228913E+02  0.45355500722E+02  0.10566000000E+00 0.  1.
        -14    1    4    4    0    0  0.63925545636E+01  0.37739432444E+01 -0.24696505364E+02  0.25788074349E+02  0.00000000000E+00 0.  1.
<mgrwt>
<rscale>  0 0.82063942E+02</rscale>
<asrwt>0</asrwt>
<pdfrwt beam="1">  1        2 0.80199209E-03 0.82063942E+02</pdfrwt>
<pdfrwt beam="2">  1       -1 0.49687592E-01 0.82063942E+02</pdfrwt>
<totfact> 0.78504443E+04</totfact>
</mgrwt>
</event>
<event>
 8    1  0.1226832E-020  0.8326337E+02  0.7818608E-02  0.1320038E+00
         -1   -1    0    0    0  501 -0.00000000000E+00  0.00000000000E+00  0.62897998855E+01  0.62898019048E+01  0.50400000000E-02 0.  1.
          2   -1    0    0  501    0  0.00000000000E+00 -0.00000000000E+00 -0.27555675435E+03  0.27555675437E+03  0.25500000000E-02 0. -1.
         24    2    1    2    0    0  0.00000000000E+00 -0.35527136788E-14 -0.26926695447E+03  0.28184655627E+03  0.83263368373E+02 0.  0.
         66    2    3    3    0    0  0.32357285240E+02  0.23850184835E+02 -0.98352992272E+02  0.10626916917E+03  0.20000003979E+01 0.  0.
        -13    1    3    3    0    0 -0.32357285240E+02 -0.23850184835E+02 -0.17091396220E+03  0.17557738710E+03  0.10566000000E+00 0.  1.
         13    1    4    4    0    0  0.23939959518E+02  0.17452825284E+02 -0.70900941022E+02  0.76841898558E+02  0.10566000000E+00 0. -1.
        -13    1    4    4    0    0  0.13122824683E+01  0.12626224594E+01 -0.42832199289E+01  0.46554739551E+01  0.10566000000E+00 0.  1.
         14    1    4    4    0    0  0.71050432535E+01  0.51347370920E+01 -0.23168831321E+02  0.24771796653E+02  0.00000000000E+00 0. -1.
<mgrwt>
<rscale>  0 0.83263368E+02</rscale>
<asrwt>0</asrwt>
<pdfrwt beam="1">  1        2 0.42393338E-01 0.83263368E+02</pdfrwt>
<pdfrwt beam="2">  1       -1 0.96766189E-03 0.83263368E+02</pdfrwt>
<totfact> 0.22253788E+05</totfact>
</mgrwt>
</event>
<event>
 8    1  0.1226832E-020  0.8026286E+02  0.7818608E-02  0.1328307E+00
         -1   -1    0    0    0  501 -0.00000000000E+00  0.00000000000E+00  0.17834655131E+03  0.17834655138E+03  0.50400000000E-02 0.  1.
          2   -1    0    0  501    0  0.00000000000E+00 -0.00000000000E+00 -0.90303492563E+01  0.90303496164E+01  0.25500000000E-02 0. -1.
         24    2    1    2    0    0  0.00000000000E+00 -0.88817841970E-15  0.16931620206E+03  0.18737690100E+03  0.80262860338E+02 0.  0.
         66    2    3    3    0    0  0.30840311934E+02 -0.73823705496E+01  0.27388041305E+02  0.41949124378E+02  0.19999985952E+01 0.  0.
        -13    1    3    3    0    0 -0.30840311934E+02  0.73823705496E+01  0.14192816075E+03  0.14542777662E+03  0.10566000000E+00 0.  1.
         13    1    4    4    0    0  0.12255067565E+02 -0.23092740734E+01  0.10379002598E+02  0.16225112842E+02  0.10566000000E+00 0. -1.
        -13    1    4    4    0    0  0.57614668831E+01 -0.17159636064E+01  0.46562950892E+01  0.76046880105E+01  0.10566000000E+00 0.  1.
        -14    1    4    4    0    0  0.12823777487E+02 -0.33571328698E+01  0.12352743618E+02  0.18119323525E+02  0.00000000000E+00 0.  1.
<mgrwt>
<rscale>  0 0.80262860E+02</rscale>
<asrwt>0</asrwt>
<pdfrwt beam="1">  1        2 0.13892845E-02 0.80262860E+02</pdfrwt>
<pdfrwt beam="2">  1       -1 0.27437931E-01 0.80262860E+02</pdfrwt>
<totfact> 0.10213784E+05</totfact>
</mgrwt>
</event>
<event>
 8    1  0.1226832E-020  0.8042129E+02  0.7818608E-02  0.1327860E+00
         -1   -1    0    0    0  501 -0.00000000000E+00  0.00000000000E+00  0.21605383178E+02  0.21605383766E+02  0.50400000000E-02 0.  1.
          2   -1    0    0  501    0  0.00000000000E+00 -0.00000000000E+00 -0.74837636732E+02  0.74837636775E+02  0.25500000000E-02 0. -1.
         24    2    1    2    0    0  0.00000000000E+00  0.00000000000E+00 -0.53232253554E+02  0.96443020541E+02  0.80421286938E+02 0.  0.
         66    2    3    3    0    0 -0.38298061767E+02  0.10351767995E+02 -0.34310399569E+02  0.52489086042E+02  0.19999997980E+01 0.  0.
        -13    1    3    3    0    0  0.38298061767E+02 -0.10351767995E+02 -0.18921853986E+02  0.43953934500E+02  0.10566000000E+00 0.  1.
         13    1    4    4    0    0 -0.19759923950E+02  0.45985264303E+01 -0.18017120225E+02  0.27133536907E+02  0.10566000000E+00 0. -1.
        -13    1    4    4    0    0 -0.23130130368E+01  0.70732416572E+00 -0.17126611594E+01  0.29655874741E+01  0.10566000000E+00 0.  1.
         14    1    4    4    0    0 -0.16225124780E+02  0.50459173993E+01 -0.14580618184E+02  0.22389961660E+02  0.00000000000E+00 0. -1.
<mgrwt>
<rscale>  0 0.80421287E+02</rscale>
<asrwt>0</asrwt>
<pdfrwt beam="1">  1        2 0.11513482E-01 0.80421287E+02</pdfrwt>
<pdfrwt beam="2">  1       -1 0.33239052E-02 0.80421287E+02</pdfrwt>
<totfact> 0.16184223E+05</totfact>
</mgrwt>
</event>
<event>
 8    1  0.1226832E-020  0.8735204E+02  0.7818608E-02  0.1309394E+00
         -1   -1    0    0    0  501 -0.00000000000E+00  0.00000000000E+00  0.10570939672E+03  0.10570939684E+03  0.50400000000E-02 0.  1.
          2   -1    0    0  501    0  0.00000000000E+00 -0.00000000000E+00 -0.18045647453E+02  0.18045647633E+02  0.25500000000E-02 0. -1.
         24    2    1    2    0    0  0.00000000000E+00 -0.71054273576E-14  0.87663749264E+02  0.12375504447E+03  0.87352035447E+02 0.  0.
         66    2    3    3    0    0  0.15660746305E+02  0.39276901268E+02  0.28487542718E+02  0.51024249525E+02  0.20000003497E+01 0.  0.
        -13    1    3    3    0    0 -0.15660746305E+02 -0.39276901268E+02  0.59176206546E+02  0.72730794945E+02  0.10566000000E+00 0.  1.
         13    1    4    4    0    0  0.12973883646E+02  0.33455980231E+02  0.24340519953E+02  0.43360077787E+02  0.10566000000E+00 0. -1.
        -13    1    4    4    0    0  0.15440918760E+01  0.38023019299E+01  0.23532831706E+01  0.47318944836E+01  0.10566000000E+00 0.  1.
         14    1    4    4    0    0  0.11427707830E+01  0.20186191073E+01  0.17937395942E+01  0.29322772541E+01  0.00000000000E+00 0. -1.
<mgrwt>
<rscale>  0 0.87352035E+02</rscale>
<asrwt>0</asrwt>
<pdfrwt beam="1">  1        2 0.27762535E-02 0.87352035E+02</pdfrwt>
<pdfrwt beam="2">  1       -1 0.16262984E-01 0.87352035E+02</pdfrwt>
<totfact> 0.94027174E+04</totfact>
</mgrwt>
</event>
<event>
 8    1  0.1226832E-020  0.8038637E+02  0.7818608E-02  0.1327959E+00
          2   -1    0    0  501    0  0.00000000000E+00  0.00000000000E+00  0.10778587840E+03  0.10778587843E+03  0.25500000000E-02 0. -1.
         -1   -1    0    0    0  501 -0.00000000000E+00 -0.00000000000E+00 -0.14987975842E+02  0.14987976689E+02  0.50400000000E-02 0.  1.
         24    2    1    2    0    0  0.00000000000E+00  0.00000000000E+00  0.92797902559E+02  0.12277385512E+03  0.80386371865E+02 0.  0.
         66    2    3    3    0    0 -0.33993947982E+02 -0.27429380473E+01  0.78839949392E+02  0.85923511442E+02  0.19999974584E+01 0.  0.
        -13    1    3    3    0    0  0.33993947982E+02  0.27429380473E+01  0.13957953167E+02  0.36850343678E+02  0.10566000000E+00 0.  1.
         13    1    4    4    0    0 -0.13899136284E+02 -0.32909773483E+00  0.30925951399E+02  0.33907520238E+02  0.10566000000E+00 0. -1.
        -13    1    4    4    0    0 -0.10909844049E+02 -0.14170134093E+01  0.26640789639E+02  0.28823175758E+02  0.10566000000E+00 0.  1.
         14    1    4    4    0    0 -0.91849676488E+01 -0.99682690318E+00  0.21273208355E+02  0.23192815445E+02  0.00000000000E+00 0. -1.
<mgrwt>
<rscale>  0 0.80386372E+02</rscale>
<asrwt>0</asrwt>
<pdfrwt beam="1">  1        2 0.16582443E-01 0.80386372E+02</pdfrwt>
<pdfrwt beam="2">  1       -1 0.23058425E-02 0.80386372E+02</pdfrwt>
<totfact> 0.17875283E+05</totfact>
</mgrwt>
</event>
<event>
 8    1  0.1226832E-020  0.7982285E+02  0.7818608E-02  0.1329555E+00
          2   -1    0    0  501    0  0.00000000000E+00  0.00000000000E+00  0.10172724707E+03  0.10172724710E+03  0.25500000000E-02 0. -1.
         -1   -1    0    0    0  501 -0.00000000000E+00 -0.00000000000E+00 -0.15658753224E+02  0.15658754035E+02  0.50400000000E-02 0.  1.
         24    2    1    2    0    0  0.00000000000E+00  0.00000000000E+00  0.86068493842E+02  0.11738600113E+03  0.79822851550E+02 0.  0.
         66    2    3    3    0    0  0.23131186093E+01  0.15014838192E+02  0.97295963791E+02  0.98495179840E+02  0.19999994734E+01 0.  0.
        -13    1    3    3    0    0 -0.23131186093E+01 -0.15014838192E+02 -0.11227469949E+02  0.18890821293E+02  0.10566000000E+00 0.  1.
         13    1    4    4    0    0  0.18639274817E+01  0.94524934697E+01  0.57444212137E+02  0.58246652527E+02  0.10566000000E+00 0. -1.
        -13    1    4    4    0    0  0.54446220075E-03  0.89102753521E-01  0.13603754550E+01  0.13673788836E+01  0.10566000000E+00 0. -1.
         14    1    4    4    0    0  0.44864666545E+00  0.54732419687E+01  0.38491376199E+02  0.38881148429E+02  0.00000000000E+00 0. -1.
<mgrwt>
<rscale>  0 0.79822852E+02</rscale>
<asrwt>0</asrwt>
<pdfrwt beam="1">  1        2 0.15650346E-01 0.79822852E+02</pdfrwt>
<pdfrwt beam="2">  1       -1 0.24090390E-02 0.79822852E+02</pdfrwt>
<totfact> 0.17917320E+05</totfact>
</mgrwt>
</event>
<event>
 8    1  0.1226832E-020  0.7920411E+02  0.7818608E-02  0.1331325E+00
         -1   -1    0    0    0  501 -0.00000000000E+00  0.00000000000E+00  0.90294042062E+01  0.90294056128E+01  0.50400000000E-02 0.  1.
          2   -1    0    0  501    0  0.00000000000E+00 -0.00000000000E+00 -0.17369060205E+03  0.17369060207E+03  0.25500000000E-02 0. -1.
         24    2    1    2    0    0  0.00000000000E+00  0.00000000000E+00 -0.16466119784E+03  0.18272000768E+03  0.79204110574E+02 0.  0.
         66    2    3    3    0    0  0.26912305366E+02 -0.26416452000E+02 -0.54678712169E+02  0.66451957747E+02  0.20000018972E+01 0.  0.
        -13    1    3    3    0    0 -0.26912305366E+02  0.26416452000E+02 -0.10998248568E+03  0.11626804994E+03  0.10566000000E+00 0.  1.
         13    1    4    4    0    0  0.10006411717E+02 -0.88722030367E+01 -0.18701626741E+02  0.22991439036E+02  0.10566000000E+00 0. -1.
        -13    1    4    4    0    0  0.13762508748E+02 -0.13875701458E+02 -0.28424956508E+02  0.34495377292E+02  0.10566000000E+00 0.  1.
        -14    1    4    4    0    0  0.31433849010E+01 -0.36685475046E+01 -0.75521289200E+01  0.89651414185E+01  0.00000000000E+00 0.  1.
<mgrwt>
<rscale>  0 0.79204111E+02</rscale>
<asrwt>0</asrwt>
<pdfrwt beam="1">  1        2 0.26721628E-01 0.79204111E+02</pdfrwt>
<pdfrwt beam="2">  1       -1 0.13891394E-02 0.79204111E+02</pdfrwt>
<totfact> 0.21582936E+05</totfact>
</mgrwt>
</event>
<event>
 8    1  0.1226832E-020  0.7845194E+02  0.7818608E-02  0.1333503E+00
          2   -1    0    0  501    0  0.00000000000E+00  0.00000000000E+00  0.65209418286E+03  0.65209418287E+03  0.25500000000E-02 0. -1.
         -1   -1    0    0    0  501 -0.00000000000E+00 -0.00000000000E+00 -0.23595898243E+01  0.23595952069E+01  0.50400000000E-02 0.  1.
         24    2    1    2    0    0  0.35527136788E-14 -0.22204460493E-15  0.64973459304E+03  0.65445377808E+03  0.78451935893E+02 0.  0.
         66    2    3    3    0    0 -0.11613760010E+02  0.19658840183E+01  0.63697946779E+03  0.63709150559E+03  0.19999984429E+01 0.  0.
        -13    1    3    3    0    0  0.11613760010E+02 -0.19658840183E+01  0.12755125252E+02  0.17362272483E+02  0.10566000000E+00 0.  1.
         13    1    4    4    0    0 -0.82138305264E+01  0.15288430513E+01  0.46618894591E+03  0.46626381891E+03  0.10566000000E+00 0. -1.
        -13    1    4    4    0    0 -0.13673954817E+01 -0.25183312927E+00  0.58091722014E+02  0.58108454814E+02  0.10566000000E+00 0.  1.
         14    1    4    4    0    0 -0.20325340022E+01  0.68887409629E+00  0.11269879987E+03  0.11271923187E+03  0.00000000000E+00 0. -1.
<mgrwt>
<rscale>  0 0.78451936E+02</rscale>
<asrwt>0</asrwt>
<pdfrwt beam="1">  1        2 0.10032231E+00 0.78451936E+02</pdfrwt>
<pdfrwt beam="2">  1       -1 0.36301376E-03 0.78451936E+02</pdfrwt>
<totfact> 0.34596769E+05</totfact>
</mgrwt>
</event>
<event>
 8    1  0.1226832E-020  0.8220412E+02  0.7818608E-02  0.1322910E+00
          2   -1    0    0  501    0  0.00000000000E+00  0.00000000000E+00  0.36561792923E+03  0.36561792924E+03  0.25500000000E-02 0. -1.
         -1   -1    0    0    0  501 -0.00000000000E+00 -0.00000000000E+00 -0.46206128728E+01  0.46206156215E+01  0.50400000000E-02 0.  1.
         24    2    1    2    0    0  0.35527136788E-14 -0.10658141036E-13  0.36099731636E+03  0.37023854486E+03  0.82204122057E+02 0.  0.
         66    2    3    3    0    0 -0.29032169307E+02  0.27109324374E+02  0.22775476615E+03  0.23120124529E+03  0.19999989776E+01 0.  0.
        -13    1    3    3    0    0  0.29032169307E+02 -0.27109324374E+02  0.13324255021E+03  0.13903729957E+03  0.10566000000E+00 0.  1.
         13    1    4    4    0    0 -0.13935865452E+02  0.12770117139E+02  0.10508316541E+03  0.10676969164E+03  0.10566000000E+00 0. -1.
        -13    1    4    4    0    0 -0.10435632371E+02  0.10539471448E+02  0.88873990779E+02  0.90103164664E+02  0.10566000000E+00 0.  1.
        -14    1    4    4    0    0 -0.46606714848E+01  0.37997357866E+01  0.33797609964E+02  0.34328388981E+02  0.00000000000E+00 0.  1.
<mgrwt>
<rscale>  0 0.82204122E+02</rscale>
<asrwt>0</asrwt>
<pdfrwt beam="1">  1        2 0.56248929E-01 0.82204122E+02</pdfrwt>
<pdfrwt beam="2">  1       -1 0.71086353E-03 0.82204122E+02</pdfrwt>
<totfact> 0.25491158E+05</totfact>
</mgrwt>
</event>
<event>
 8    1  0.1226832E-020  0.7940117E+02  0.7818608E-02  0.1330759E+00
          2   -1    0    0  501    0  0.00000000000E+00  0.00000000000E+00  0.11798918903E+03  0.11798918906E+03  0.25500000000E-02 0. -1.
         -1   -1    0    0    0  501 -0.00000000000E+00 -0.00000000000E+00 -0.13358312312E+02  0.13358313262E+02  0.50400000000E-02 0.  1.
         24    2    1    2    0    0  0.11102230246E-15  0.35527136788E-14  0.10463087672E+03  0.13134750232E+03  0.79401171293E+02 0.  0.
         66    2    3    3    0    0  0.96389805607E+00  0.26582099720E+02  0.10104561055E+03  0.10450718894E+03  0.20000007615E+01 0.  0.
        -13    1    3    3    0    0 -0.96389805607E+00 -0.26582099720E+02  0.35852661691E+01  0.26840313384E+02  0.10566000000E+00 0.  1.
         13    1    4    4    0    0 -0.50765421946E-01  0.29224373811E+01  0.11133502994E+02  0.11511267103E+02  0.10566000000E+00 0. -1.
        -13    1    4    4    0    0  0.65255654417E+00  0.33551918432E+01  0.11598201487E+02  0.12091839567E+02  0.10566000000E+00 0.  1.
         14    1    4    4    0    0  0.36210693385E+00  0.20304470496E+02  0.78313906067E+02  0.80904082265E+02  0.00000000000E+00 0. -1.
<mgrwt>
<rscale>  0 0.79401171E+02</rscale>
<asrwt>0</asrwt>
<pdfrwt beam="1">  1        2 0.18152182E-01 0.79401171E+02</pdfrwt>
<pdfrwt beam="2">  1       -1 0.20551251E-02 0.79401171E+02</pdfrwt>
<totfact> 0.18968918E+05</totfact>
</mgrwt>
</event>
<event>
 8    1  0.1226832E-020  0.8083283E+02  0.7818608E-02  0.1326704E+00
         -1   -1    0    0    0  501 -0.00000000000E+00  0.00000000000E+00  0.19176896043E+01  0.19176962272E+01  0.50400000000E-02 0.  1.
          2   -1    0    0  501    0  0.00000000000E+00 -0.00000000000E+00 -0.85179773223E+03  0.85179773224E+03  0.25500000000E-02 0. -1.
         24    2    1    2    0    0  0.00000000000E+00  0.00000000000E+00 -0.84988004263E+03  0.85371542847E+03  0.80832827112E+02 0.  0.
         66    2    3    3    0    0 -0.14172778030E+02  0.13416724419E+02 -0.79869505381E+03  0.79893595808E+03  0.20000001639E+01 0.  0.
        -13    1    3    3    0    0  0.14172778030E+02 -0.13416724419E+02 -0.51184988822E+02  0.54779470388E+02  0.10566000000E+00 0.  1.
         13    1    4    4    0    0 -0.88087187221E+01  0.76614080354E+01 -0.45233560988E+03  0.45248624932E+03  0.10566000000E+00 0. -1.
        -13    1    4    4    0    0 -0.28260138019E+01  0.25755539160E+01 -0.17832295525E+03  0.17836397440E+03  0.10566000000E+00 0. -1.
         14    1    4    4    0    0 -0.25380455055E+01  0.31797624681E+01 -0.16803648868E+03  0.16808573435E+03  0.00000000000E+00 0. -1.
<mgrwt>
<rscale>  0 0.80832827E+02</rscale>
<asrwt>0</asrwt>
<pdfrwt beam="1">  1        2 0.13104550E+00 0.80832827E+02</pdfrwt>
<pdfrwt beam="2">  1       -1 0.29503036E-03 0.80832827E+02</pdfrwt>
<totfact> 0.33784161E+05</totfact>
</mgrwt>
</event>
<event>
 8    1  0.1226832E-020  0.8028736E+02  0.7818608E-02  0.1328238E+00
          2   -1    0    0  501    0  0.00000000000E+00  0.00000000000E+00  0.80253595607E+02  0.80253595648E+02  0.25500000000E-02 0. -1.
         -1   -1    0    0    0  501 -0.00000000000E+00 -0.00000000000E+00 -0.20080283103E+02  0.20080283736E+02  0.50400000000E-02 0.  1.
         24    2    1    2    0    0  0.00000000000E+00  0.17763568394E-14  0.60173312504E+02  0.10033387938E+03  0.80287357750E+02 0.  0.
         66    2    3    3    0    0 -0.26162637958E+01  0.11689921608E+02  0.77953852034E+02  0.78894246610E+02  0.19999994586E+01 0.  0.
        -13    1    3    3    0    0  0.26162637958E+01 -0.11689921608E+02 -0.17780539530E+02  0.21439632774E+02  0.10566000000E+00 0.  1.
         13    1    4    4    0    0 -0.42362851896E+00  0.38989723985E+01  0.29344925101E+02  0.29606033846E+02  0.10566000000E+00 0. -1.
        -13    1    4    4    0    0 -0.16968159096E+00  0.42573337467E+00  0.43164188485E+01  0.43419668884E+01  0.10566000000E+00 0.  1.
        -14    1    4    4    0    0 -0.20229536859E+01  0.73652158351E+01  0.44292508084E+02  0.44946245875E+02  0.00000000000E+00 0.  1.
<mgrwt>
<rscale>  0 0.80287358E+02</rscale>
<asrwt>0</asrwt>
<pdfrwt beam="1">  1        2 0.12346707E-01 0.80287358E+02</pdfrwt>
<pdfrwt beam="2">  1       -1 0.30892744E-02 0.80287358E+02</pdfrwt>
<totfact> 0.16548481E+05</totfact>
</mgrwt>
</event>
<event>
 8    1  0.1226832E-020  0.7908248E+02  0.7818608E-02  0.1331676E+00
         -1   -1    0    0    0  501 -0.00000000000E+00  0.00000000000E+00  0.71033623935E+01  0.71033641815E+01  0.50400000000E-02 0.  1.
          2   -1    0    0  501    0  0.00000000000E+00 -0.00000000000E+00 -0.22010835778E+03  0.22010835780E+03  0.25500000000E-02 0. -1.
         24    2    1    2    0    0  0.00000000000E+00  0.17763568394E-14 -0.21300499539E+03  0.22721172198E+03  0.79082479374E+02 0.  0.
         66    2    3    3    0    0 -0.46515959695E+01 -0.15559635751E+02 -0.21007236714E+03  0.21070865916E+03  0.19999999986E+01 0.  0.
        -13    1    3    3    0    0  0.46515959695E+01  0.15559635751E+02 -0.29326282448E+01  0.16503062813E+02  0.10566000000E+00 0.  1.
         13    1    4    4    0    0 -0.20677928563E+01 -0.67868343734E+01 -0.90090345732E+02  0.90369344615E+02  0.10566000000E+00 0. -1.
        -13    1    4    4    0    0 -0.27118915206E+01 -0.83047205693E+01 -0.11582691975E+03  0.11615596946E+03  0.10566000000E+00 0.  1.
         14    1    4    4    0    0  0.12808840734E+00 -0.46808080808E+00 -0.41551016635E+01  0.41833450870E+01  0.00000000000E+00 0. -1.
<mgrwt>
<rscale>  0 0.79082479E+02</rscale>
<asrwt>0</asrwt>
<pdfrwt beam="1">  1        2 0.33862819E-01 0.79082479E+02</pdfrwt>
<pdfrwt beam="2">  1       -1 0.10928253E-02 0.79082479E+02</pdfrwt>
<totfact> 0.23514591E+05</totfact>
</mgrwt>
</event>
<event>
 8    1  0.1226832E-020  0.7998626E+02  0.7818608E-02  0.1329090E+00
         -1   -1    0    0    0  501 -0.00000000000E+00  0.00000000000E+00  0.14643752562E+01  0.14643839294E+01  0.50400000000E-02 0.  1.
          2   -1    0    0  501    0  0.00000000000E+00 -0.00000000000E+00 -0.10922375950E+04  0.10922375950E+04  0.25500000000E-02 0. -1.
         24    2    1    2    0    0 -0.17763568394E-14  0.00000000000E+00 -0.10907732198E+04  0.10937019790E+04  0.79986260136E+02 0.  0.
         66    2    3    3    0    0 -0.13385570009E+02  0.19780346750E+02 -0.98392517609E+03  0.98421704299E+03  0.19999910506E+01 0.  0.
        -13    1    3    3    0    0  0.13385570009E+02 -0.19780346750E+02 -0.10684804368E+03  0.10948493597E+03  0.10566000000E+00 0.  1.
         13    1    4    4    0    0 -0.87188706685E+01  0.12728772787E+02 -0.63481547710E+03  0.63500294605E+03  0.10566000000E+00 0. -1.
        -13    1    4    4    0    0 -0.17070864785E+01  0.22506841114E+01 -0.96209641813E+02  0.96251161370E+02  0.10566000000E+00 0. -1.
        -14    1    4    4    0    0 -0.29596128618E+01  0.48008898513E+01 -0.25290005718E+03  0.25296293557E+03  0.00000000000E+00 0.  1.
<mgrwt>
<rscale>  0 0.79986260E+02</rscale>
<asrwt>0</asrwt>
<pdfrwt beam="1">  1        2 0.16803590E+00 0.79986260E+02</pdfrwt>
<pdfrwt beam="2">  1       -1 0.22529004E-03 0.79986260E+02</pdfrwt>
<totfact> 0.35274787E+05</totfact>
</mgrwt>
</event>
<event>
 8    1  0.1226832E-020  0.8292530E+02  0.7818608E-02  0.1320949E+00
         -1   -1    0    0    0  501 -0.00000000000E+00  0.00000000000E+00  0.26072382431E+01  0.26072431145E+01  0.50400000000E-02 0.  1.
          2   -1    0    0  501    0  0.00000000000E+00 -0.00000000000E+00 -0.65937569682E+03  0.65937569682E+03  0.25500000000E-02 0. -1.
         24    2    1    2    0    0 -0.22204460493E-15  0.00000000000E+00 -0.65676845857E+03  0.66198293994E+03  0.82925295232E+02 0.  0.
         66    2    3    3    0    0  0.15122920401E+01  0.21425502678E+02 -0.61146706727E+03  0.61184745938E+03  0.20000014249E+01 0.  0.
        -13    1    3    3    0    0 -0.15122920401E+01 -0.21425502678E+02 -0.45301391307E+02  0.50135480556E+02  0.10566000000E+00 0.  1.
         13    1    4    4    0    0  0.71776478940E+00  0.16283353611E+02 -0.47415598427E+03  0.47443605615E+03  0.10566000000E+00 0. -1.
        -13    1    4    4    0    0  0.57776791773E+00  0.37433554440E+01 -0.10744993952E+03  0.10751672982E+03  0.10566000000E+00 0.  1.
         14    1    4    4    0    0  0.21675933297E+00  0.13987936228E+01 -0.29861143481E+02  0.29894673409E+02  0.00000000000E+00 0. -1.
<mgrwt>
<rscale>  0 0.82925295E+02</rscale>
<asrwt>0</asrwt>
<pdfrwt beam="1">  1        2 0.10144228E+00 0.82925295E+02</pdfrwt>
<pdfrwt beam="2">  1       -1 0.40111448E-03 0.82925295E+02</pdfrwt>
<totfact> 0.30030901E+05</totfact>
</mgrwt>
</event>
<event>
 8    1  0.1226832E-020  0.7969655E+02  0.7818608E-02  0.1329915E+00
         -1   -1    0    0    0  501 -0.00000000000E+00  0.00000000000E+00  0.10780287451E+01  0.10780405265E+01  0.50400000000E-02 0.  1.
          2   -1    0    0  501    0  0.00000000000E+00 -0.00000000000E+00 -0.14729442502E+04  0.14729442502E+04  0.25500000000E-02 0. -1.
         24    2    1    2    0    0  0.00000000000E+00  0.00000000000E+00 -0.14718662214E+04  0.14740222907E+04  0.79696547635E+02 0.  0.
         66    2    3    3    0    0  0.12747500821E+02  0.46908303894E+01 -0.14287714072E+04  0.14288373724E+04  0.19999984533E+01 0.  0.
        -13    1    3    3    0    0 -0.12747500821E+02 -0.46908303894E+01 -0.43094814237E+02  0.45184918337E+02  0.10566000000E+00 0.  1.
         13    1    4    4    0    0  0.17770238305E+01  0.38138946718E+00 -0.20924525105E+03  0.20925317087E+03  0.10566000000E+00 0. -1.
        -13    1    4    4    0    0  0.16307105778E+01  0.62134411342E+00 -0.24766100629E+03  0.24766717684E+03  0.10566000000E+00 0.  1.
        -14    1    4    4    0    0  0.93397664131E+01  0.36880968088E+01 -0.97186514985E+03  0.97191702464E+03  0.00000000000E+00 0.  1.
<mgrwt>
<rscale>  0 0.79696548E+02</rscale>
<asrwt>0</asrwt>
<pdfrwt beam="1">  1        2 0.22660520E+00 0.79696548E+02</pdfrwt>
<pdfrwt beam="2">  1       -1 0.16585266E-03 0.79696548E+02</pdfrwt>
<totfact> 0.33804524E+05</totfact>
</mgrwt>
</event>
<event>
 8    1  0.1226832E-020  0.8068061E+02  0.7818608E-02  0.1327131E+00
          2   -1    0    0  501    0  0.00000000000E+00  0.00000000000E+00  0.32151849380E+02  0.32151849482E+02  0.25500000000E-02 0. -1.
         -1   -1    0    0    0  501 -0.00000000000E+00 -0.00000000000E+00 -0.50614198887E+02  0.50614199138E+02  0.50400000000E-02 0.  1.
         24    2    1    2    0    0  0.00000000000E+00  0.00000000000E+00 -0.18462349507E+02  0.82766048619E+02  0.80680607675E+02 0.  0.
         66    2    3    3    0    0  0.11292410039E+02  0.68595222348E+01  0.29836584657E+02  0.32692405101E+02  0.19999993808E+01 0.  0.
        -13    1    3    3    0    0 -0.11292410039E+02 -0.68595222348E+01 -0.48298934164E+02  0.50073643518E+02  0.10566000000E+00 0.  1.
         13    1    4    4    0    0  0.25076129117E+01  0.19589163057E+01  0.72038489720E+01  0.78760446707E+01  0.10566000000E+00 0. -1.
        -13    1    4    4    0    0  0.47200821596E+01  0.33239073634E+01  0.11725129938E+02  0.13069712003E+02  0.10566000000E+00 0.  1.
        -14    1    4    4    0    0  0.40647149674E+01  0.15766985657E+01  0.10907605748E+02  0.11746648427E+02  0.00000000000E+00 0.  1.
<mgrwt>
<rscale>  0 0.80680608E+02</rscale>
<asrwt>0</asrwt>
<pdfrwt beam="1">  1        2 0.49464384E-02 0.80680608E+02</pdfrwt>
<pdfrwt beam="2">  1       -1 0.77867999E-02 0.80680608E+02</pdfrwt>
<totfact> 0.13321785E+05</totfact>
</mgrwt>
</event>
<event>
 8    1  0.1226832E-020  0.7707186E+02  0.7818608E-02  0.1337573E+00
         -1   -1    0    0    0  501 -0.00000000000E+00  0.00000000000E+00  0.59285591217E+01  0.59285612640E+01  0.50400000000E-02 0.  1.
          2   -1    0    0  501    0  0.00000000000E+00 -0.00000000000E+00 -0.25048544212E+03  0.25048544213E+03  0.25500000000E-02 0. -1.
         24    2    1    2    0    0  0.00000000000E+00  0.17763568394E-14 -0.24455688300E+03  0.25641400340E+03  0.77071863324E+02 0.  0.
         66    2    3    3    0    0  0.17107277949E+02  0.10019557739E+02 -0.23219831692E+03  0.23305173006E+03  0.20000010955E+01 0.  0.
        -13    1    3    3    0    0 -0.17107277949E+02 -0.10019557739E+02 -0.12358566073E+02  0.23362273338E+02  0.10566000000E+00 0.  1.
         13    1    4    4    0    0  0.11800577197E+02  0.74935124996E+01 -0.16015473937E+03  0.16076367145E+03  0.10566000000E+00 0. -1.
        -13    1    4    4    0    0  0.51747702984E+01  0.22748365718E+01 -0.68096630417E+02  0.68330925409E+02  0.10566000000E+00 0.  1.
        -14    1    4    4    0    0  0.13193045387E+00  0.25120866774E+00 -0.39469471363E+01  0.39571331967E+01  0.00000000000E+00 0.  1.
<mgrwt>
<rscale>  0 0.77071863E+02</rscale>
<asrwt>0</asrwt>
<pdfrwt beam="1">  1        2 0.38536214E-01 0.77071863E+02</pdfrwt>
<pdfrwt beam="2">  1       -1 0.91208638E-03 0.77071863E+02</pdfrwt>
<totfact> 0.26339953E+05</totfact>
</mgrwt>
</event>
<event>
 8    1  0.1226832E-020  0.7814036E+02  0.7818608E-02  0.1334413E+00
         -1   -1    0    0    0  501 -0.00000000000E+00  0.00000000000E+00  0.49267730691E+02  0.49267730949E+02  0.50400000000E-02 0.  1.
          2   -1    0    0  501    0  0.00000000000E+00 -0.00000000000E+00 -0.30983341795E+02  0.30983341900E+02  0.25500000000E-02 0. -1.
         24    2    1    2    0    0  0.22204460493E-15  0.17763568394E-14  0.18284388896E+02  0.80251072848E+02  0.78140359712E+02 0.  0.
         66    2    3    3    0    0  0.62735549762E+00  0.14964198287E+02 -0.27883452871E+02  0.31714472403E+02  0.20000026264E+01 0.  0.
        -13    1    3    3    0    0 -0.62735549762E+00 -0.14964198287E+02  0.46167841767E+02  0.48536600445E+02  0.10566000000E+00 0.  1.
         13    1    4    4    0    0  0.11390566257E+01  0.11523297931E+02 -0.21395256614E+02  0.24328008854E+02  0.10566000000E+00 0. -1.
        -13    1    4    4    0    0 -0.43887049467E+00  0.20148529084E+01 -0.32942710570E+01  0.38878818637E+01  0.10566000000E+00 0.  1.
         14    1    4    4    0    0 -0.72830633424E-01  0.14260474482E+01 -0.31939252002E+01  0.34985816855E+01  0.00000000000E+00 0. -1.
<mgrwt>
<rscale>  0 0.78140360E+02</rscale>
<asrwt>0</asrwt>
<pdfrwt beam="1">  1        2 0.47666680E-02 0.78140360E+02</pdfrwt>
<pdfrwt beam="2">  1       -1 0.75796509E-02 0.78140360E+02</pdfrwt>
<totfact> 0.14460558E+05</totfact>
</mgrwt>
</event>
<event>
 8    1  0.1226832E-020  0.7944640E+02  0.7818608E-02  0.1330630E+00
          2   -1    0    0  501    0  0.00000000000E+00  0.00000000000E+00  0.25102143785E+02  0.25102143915E+02  0.25500000000E-02 0. -1.
         -1   -1    0    0    0  501 -0.00000000000E+00 -0.00000000000E+00 -0.62860466657E+02  0.62860466859E+02  0.50400000000E-02 0.  1.
         24    2    1    2    0    0  0.17763568394E-14  0.00000000000E+00 -0.37758322872E+02  0.87962610774E+02  0.79446396697E+02 0.  0.
         66    2    3    3    0    0 -0.95770098360E+01  0.38132715261E+02 -0.12816191286E+02  0.41401423261E+02  0.19999995966E+01 0.  0.
        -13    1    3    3    0    0  0.95770098360E+01 -0.38132715261E+02 -0.24942131586E+02  0.46561187513E+02  0.10566000000E+00 0.  1.
         13    1    4    4    0    0 -0.90886926841E+01  0.35440008774E+02 -0.11895253269E+02  0.38472155788E+02  0.10566000000E+00 0. -1.
        -13    1    4    4    0    0 -0.47582402251E+00  0.22263308422E+01 -0.58081787748E+00  0.23519079407E+01  0.10566000000E+00 0.  1.
         14    1    4    4    0    0 -0.12493129386E-01  0.46637564430E+00 -0.34012013900E+00  0.57735953169E+00  0.00000000000E+00 0. -1.
<mgrwt>
<rscale>  0 0.79446397E+02</rscale>
<asrwt>0</asrwt>
<pdfrwt beam="1">  1        2 0.38618683E-02 0.79446397E+02</pdfrwt>
<pdfrwt beam="2">  1       -1 0.96708410E-02 0.79446397E+02</pdfrwt>
<totfact> 0.13248575E+05</totfact>
</mgrwt>
</event>
<event>
 8    1  0.1226832E-020  0.8430368E+02  0.7818608E-02  0.1317264E+00
          2   -1    0    0  501    0  0.00000000000E+00  0.00000000000E+00  0.13847794111E+02  0.13847794345E+02  0.25500000000E-02 0. -1.
         -1   -1    0    0    0  501 -0.00000000000E+00 -0.00000000000E+00 -0.12830763944E+03  0.12830763954E+03  0.50400000000E-02 0.  1.
         24    2    1    2    0    0  0.00000000000E+00  0.35527136788E-14 -0.11445984533E+03  0.14215543388E+03  0.84303684320E+02 0.  0.
         66    2    3    3    0    0 -0.22464464703E+02  0.24887196007E+02 -0.14246703005E+02  0.36482780099E+02  0.19999994420E+01 0.  0.
        -13    1    3    3    0    0  0.22464464703E+02 -0.24887196007E+02 -0.10021314232E+03  0.10567265378E+03  0.10566000000E+00 0.  1.
         13    1    4    4    0    0 -0.26006111554E+01  0.33192220990E+01 -0.19361073225E+01  0.46411301774E+01  0.10566000000E+00 0.  1.
        -13    1    4    4    0    0 -0.57096806922E+01  0.52914747706E+01 -0.36391095406E+01  0.85938606655E+01  0.10566000000E+00 0.  1.
         14    1    4    4    0    0 -0.14154172855E+02  0.16276499137E+02 -0.86714861417E+01  0.23247789256E+02  0.00000000000E+00 0. -1.
<mgrwt>
<rscale>  0 0.84303684E+02</rscale>
<asrwt>0</asrwt>
<pdfrwt beam="1">  1        2 0.21304300E-02 0.84303684E+02</pdfrwt>
<pdfrwt beam="2">  1       -1 0.19739636E-01 0.84303684E+02</pdfrwt>
<totfact> 0.98240005E+04</totfact>
</mgrwt>
</event>
<event>
 8    1  0.1226832E-020  0.7918410E+02  0.7818608E-02  0.1331383E+00
          2   -1    0    0  501    0  0.00000000000E+00  0.00000000000E+00  0.98898073943E+01  0.98898077231E+01  0.25500000000E-02 0. -1.
         -1   -1    0    0    0  501 -0.00000000000E+00 -0.00000000000E+00 -0.15849960079E+03  0.15849960087E+03  0.50400000000E-02 0.  1.
         24    2    1    2    0    0 -0.35527136788E-14 -0.71054273576E-14 -0.14860979340E+03  0.16838940860E+03  0.79184103414E+02 0.  0.
         66    2    3    3    0    0  0.20583328964E+02  0.33275767187E+02 -0.61847821160E+02  0.73212724982E+02  0.20000009533E+01 0.  0.
        -13    1    3    3    0    0 -0.20583328964E+02 -0.33275767187E+02 -0.86761972239E+02  0.95176683615E+02  0.10566000000E+00 0.  1.
         13    1    4    4    0    0  0.54124047945E+01  0.75437681042E+01 -0.15288262353E+02  0.17886997866E+02  0.10566000000E+00 0. -1.
        -13    1    4    4    0    0  0.92607278680E+01  0.14845388816E+02 -0.27446730800E+02  0.32549667362E+02  0.10566000000E+00 0.  1.
        -14    1    4    4    0    0  0.59101963014E+01  0.10886610267E+02 -0.19112828008E+02  0.22776059754E+02  0.00000000000E+00 0.  1.
<mgrwt>
<rscale>  0 0.79184103E+02</rscale>
<asrwt>0</asrwt>
<pdfrwt beam="1">  1        2 0.15215090E-02 0.79184103E+02</pdfrwt>
<pdfrwt beam="2">  1       -1 0.24384552E-01 0.79184103E+02</pdfrwt>
<totfact> 0.10914076E+05</totfact>
</mgrwt>
</event>
<event>
 8    1  0.1226832E-020  0.7795602E+02  0.7818608E-02  0.1334954E+00
         -1   -1    0    0    0  501 -0.00000000000E+00  0.00000000000E+00  0.20475867163E+01  0.20475929191E+01  0.50400000000E-02 0.  1.
          2   -1    0    0  501    0  0.00000000000E+00 -0.00000000000E+00 -0.74198703543E+03  0.74198703544E+03  0.25500000000E-02 0. -1.
         24    2    1    2    0    0  0.17763568394E-14  0.71054273576E-14 -0.73993944872E+03  0.74403462835E+03  0.77956015973E+02 0.  0.
         66    2    3    3    0    0  0.97839246564E+01  0.24226057611E+02 -0.64595049939E+03  0.64648176674E+03  0.20000055920E+01 0.  0.
        -13    1    3    3    0    0 -0.97839246564E+01 -0.24226057611E+02 -0.93988949327E+02  0.97552861612E+02  0.10566000000E+00 0.  1.
         13    1    4    4    0    0  0.18574260226E+01  0.50063863812E+01 -0.13403824267E+03  0.13414460704E+03  0.10566000000E+00 0. -1.
        -13    1    4    4    0    0  0.95603610474E+00  0.16254903736E+01 -0.37376448827E+02  0.37424140804E+02  0.10566000000E+00 0.  1.
        -14    1    4    4    0    0  0.69704625291E+01  0.17594180856E+02 -0.47453580789E+03  0.47491301890E+03  0.00000000000E+00 0.  1.
<mgrwt>
<rscale>  0 0.77956016E+02</rscale>
<asrwt>0</asrwt>
<pdfrwt beam="1">  1        2 0.11415164E+00 0.77956016E+02</pdfrwt>
<pdfrwt beam="2">  1       -1 0.31501441E-03 0.77956016E+02</pdfrwt>
<totfact> 0.36232329E+05</totfact>
</mgrwt>
</event>
<event>
 8    1  0.1226832E-020  0.8010182E+02  0.7818608E-02  0.1328763E+00
          2   -1    0    0  501    0  0.00000000000E+00  0.00000000000E+00  0.14303325774E+03  0.14303325777E+03  0.25500000000E-02 0. -1.
         -1   -1    0    0    0  501 -0.00000000000E+00 -0.00000000000E+00 -0.11214701981E+02  0.11214703113E+02  0.50400000000E-02 0.  1.
         24    2    1    2    0    0  0.00000000000E+00  0.00000000000E+00  0.13181855576E+03  0.15424796088E+03  0.80101821402E+02 0.  0.
         66    2    3    3    0    0 -0.15449738883E+02 -0.12807475176E+02  0.13263845843E+03  0.13416291031E+03  0.19999991551E+01 0.  0.
        -13    1    3    3    0    0  0.15449738883E+02  0.12807475176E+02 -0.81990266635E+00  0.20085050569E+02  0.10566000000E+00 0.  1.
         13    1    4    4    0    0 -0.13852104771E+02 -0.11676054583E+02  0.12101387623E+03  0.12236249614E+03  0.10566000000E+00 0. -1.
        -13    1    4    4    0    0 -0.68660944351E-01 -0.39288799256E-01  0.12598173672E+01  0.12667129783E+01  0.10566000000E+00 0.  1.
        -14    1    4    4    0    0 -0.15289731670E+01 -0.10921317934E+01  0.10364764835E+02  0.10533701196E+02  0.00000000000E+00 0.  1.
<mgrwt>
<rscale>  0 0.80101821E+02</rscale>
<asrwt>0</asrwt>
<pdfrwt beam="1">  1        2 0.22005116E-01 0.80101821E+02</pdfrwt>
<pdfrwt beam="2">  1       -1 0.17253389E-02 0.80101821E+02</pdfrwt>
<totfact> 0.19661011E+05</totfact>
</mgrwt>
</event>
<event>
 8    1  0.1226832E-020  0.7436431E+02  0.7818608E-02  0.1345851E+00
         -1   -1    0    0    0  501 -0.00000000000E+00  0.00000000000E+00  0.50393209641E+01  0.50393234845E+01  0.50400000000E-02 0.  1.
          2   -1    0    0  501    0  0.00000000000E+00 -0.00000000000E+00 -0.27434495942E+03  0.27434495943E+03  0.25500000000E-02 0. -1.
         24    2    1    2    0    0 -0.71054273576E-14  0.00000000000E+00 -0.26930563846E+03  0.27938428292E+03  0.74364310234E+02 0.  0.
         66    2    3    3    0    0  0.32460634664E+02 -0.90257957766E+01 -0.19359777438E+03  0.19651782626E+03  0.20000000354E+01 0.  0.
        -13    1    3    3    0    0 -0.32460634664E+02  0.90257957766E+01 -0.75707864079E+02  0.82866456661E+02  0.10566000000E+00 0.  1.
         13    1    4    4    0    0  0.13486643637E+02 -0.28796611607E+01 -0.80569794268E+02  0.81741573985E+02  0.10566000000E+00 0.  1.
        -13    1    4    4    0    0  0.16865677987E+01 -0.66121123182E+00 -0.95482876753E+01  0.97191909539E+01  0.10566000000E+00 0. -1.
         14    1    4    4    0    0  0.17287423228E+02 -0.54849233840E+01 -0.10347969244E+03  0.10505706132E+03  0.00000000000E+00 0. -1.
<mgrwt>
<rscale>  0 0.74364310E+02</rscale>
<asrwt>0</asrwt>
<pdfrwt beam="1">  1        2 0.42206905E-01 0.74364310E+02</pdfrwt>
<pdfrwt beam="2">  1       -1 0.77528056E-03 0.74364310E+02</pdfrwt>
<totfact> 0.29877012E+05</totfact>
</mgrwt>
</event>
<event>
 8    1  0.1226832E-020  0.8013980E+02  0.7818608E-02  0.1328655E+00
          2   -1    0    0  501    0  0.00000000000E+00  0.00000000000E+00  0.64166374296E+02  0.64166374347E+02  0.25500000000E-02 0. -1.
         -1   -1    0    0    0  501 -0.00000000000E+00 -0.00000000000E+00 -0.25022399687E+02  0.25022400195E+02  0.50400000000E-02 0.  1.
         24    2    1    2    0    0  0.35527136788E-14 -0.88817841970E-15  0.39143974609E+02  0.89188774542E+02  0.80139795084E+02 0.  0.
         66    2    3    3    0    0  0.20333644757E+02 -0.66102449892E+01  0.57266451352E+02  0.61160435753E+02  0.20000007771E+01 0.  0.
        -13    1    3    3    0    0 -0.20333644757E+02  0.66102449892E+01 -0.18122476743E+02  0.28028338789E+02  0.10566000000E+00 0.  1.
         13    1    4    4    0    0  0.13187352126E+01 -0.62365872834E+00  0.52902528531E+01  0.54887113293E+01  0.10566000000E+00 0. -1.
        -13    1    4    4    0    0  0.18043719694E+01 -0.62272196202E+00  0.45765562737E+01  0.49597955813E+01  0.10566000000E+00 0. -1.
         14    1    4    4    0    0  0.17210537575E+02 -0.53638642989E+01  0.47399642226E+02  0.50711928843E+02  0.00000000000E+00 0. -1.
<mgrwt>
<rscale>  0 0.80139795E+02</rscale>
<asrwt>0</asrwt>
<pdfrwt beam="1">  1        2 0.98717500E-02 0.80139795E+02</pdfrwt>
<pdfrwt beam="2">  1       -1 0.38496000E-02 0.80139795E+02</pdfrwt>
<totfact> 0.15737582E+05</totfact>
</mgrwt>
</event>
<event>
 8    1  0.1226832E-020  0.8026685E+02  0.7818608E-02  0.1328296E+00
          2   -1    0    0  501    0  0.00000000000E+00  0.00000000000E+00  0.63635248364E+01  0.63635253473E+01  0.25500000000E-02 0. -1.
         -1   -1    0    0    0  501 -0.00000000000E+00 -0.00000000000E+00 -0.25311312499E+03  0.25311312504E+03  0.50400000000E-02 0.  1.
         24    2    1    2    0    0  0.35527136788E-14  0.00000000000E+00 -0.24674960015E+03  0.25947665038E+03  0.80266848202E+02 0.  0.
         66    2    3    3    0    0 -0.31358063039E+02 -0.10105863017E+02 -0.49506243380E+02  0.59500627975E+02  0.20000027152E+01 0.  0.
        -13    1    3    3    0    0  0.31358063039E+02  0.10105863017E+02 -0.19724335677E+03  0.19997602241E+03  0.10566000000E+00 0.  1.
         13    1    4    4    0    0 -0.25092934233E+02 -0.88143557183E+01 -0.39959062589E+02  0.48000896473E+02  0.10566000000E+00 0. -1.
        -13    1    4    4    0    0 -0.26089909543E+01 -0.72460347073E+00 -0.41325907347E+01  0.49417966577E+01  0.10566000000E+00 0.  1.
         14    1    4    4    0    0 -0.36561378513E+01 -0.56690382798E+00 -0.54145900571E+01  0.65579348444E+01  0.00000000000E+00 0. -1.
<mgrwt>
<rscale>  0 0.80266848E+02</rscale>
<asrwt>0</asrwt>
<pdfrwt beam="1">  1        2 0.97900405E-03 0.80266848E+02</pdfrwt>
<pdfrwt beam="2">  1       -1 0.38940473E-01 0.80266848E+02</pdfrwt>
<totfact> 0.91420802E+04</totfact>
</mgrwt>
</event>
<event>
 8    1  0.1226832E-020  0.8002341E+02  0.7818608E-02  0.1328985E+00
          2   -1    0    0  501    0  0.00000000000E+00  0.00000000000E+00  0.11705805739E+03  0.11705805741E+03  0.25500000000E-02 0. -1.
         -1   -1    0    0    0  501 -0.00000000000E+00 -0.00000000000E+00 -0.13676431579E+02  0.13676432507E+02  0.50400000000E-02 0.  1.
         24    2    1    2    0    0  0.00000000000E+00  0.00000000000E+00  0.10338162581E+03  0.13073448992E+03  0.80023410952E+02 0.  0.
         66    2    3    3    0    0  0.64146031967E+01  0.35834406391E+02  0.78749801957E+02  0.86780084843E+02  0.20000003679E+01 0.  0.
        -13    1    3    3    0    0 -0.64146031967E+01 -0.35834406391E+02  0.24631823850E+02  0.43954405078E+02  0.10566000000E+00 0.  1.
         13    1    4    4    0    0  0.24855686311E+01  0.11988517246E+02  0.26826668024E+02  0.29488707644E+02  0.10566000000E+00 0. -1.
        -13    1    4    4    0    0  0.34297662912E+01  0.22767488662E+02  0.49299032841E+02  0.54410730926E+02  0.10566000000E+00 0.  1.
        -14    1    4    4    0    0  0.49926827438E+00  0.10784004836E+01  0.26241010918E+01  0.28806462734E+01  0.00000000000E+00 0.  1.
<mgrwt>
<rscale>  0 0.80023411E+02</rscale>
<asrwt>0</asrwt>
<pdfrwt beam="1">  1        2 0.18008932E-01 0.80023411E+02</pdfrwt>
<pdfrwt beam="2">  1       -1 0.21040664E-02 0.80023411E+02</pdfrwt>
<totfact> 0.18534461E+05</totfact>
</mgrwt>
</event>
<event>
 8    1  0.1226832E-020  0.8004395E+02  0.7818608E-02  0.1328927E+00
          2   -1    0    0  501    0  0.00000000000E+00  0.00000000000E+00  0.72765897418E+02  0.72765897463E+02  0.25500000000E-02 0. -1.
         -1   -1    0    0    0  501 -0.00000000000E+00 -0.00000000000E+00 -0.22012487251E+02  0.22012487828E+02  0.50400000000E-02 0.  1.
         24    2    1    2    0    0  0.00000000000E+00  0.00000000000E+00  0.50753410167E+02  0.94778385290E+02  0.80043948395E+02 0.  0.
         66    2    3    3    0    0 -0.11156020187E+02 -0.28147786351E+02  0.56337524069E+02  0.63989618589E+02  0.20000015084E+01 0.  0.
        -13    1    3    3    0    0  0.11156020187E+02  0.28147786351E+02 -0.55841139023E+01  0.30788766701E+02  0.10566000000E+00 0.  1.
         13    1    4    4    0    0 -0.27232976047E+01 -0.69104797446E+01  0.13319897884E+02  0.15251292529E+02  0.10566000000E+00 0. -1.
        -13    1    4    4    0    0 -0.80253950247E+01 -0.19964944972E+02  0.39594771039E+02  0.45063988402E+02  0.10566000000E+00 0.  1.
        -14    1    4    4    0    0 -0.40732755780E+00 -0.12723616340E+01  0.34228551467E+01  0.36743376576E+01  0.00000000000E+00 0.  1.
<mgrwt>
<rscale>  0 0.80043948E+02</rscale>
<asrwt>0</asrwt>
<pdfrwt beam="1">  1        2 0.11194754E-01 0.80043948E+02</pdfrwt>
<pdfrwt beam="2">  1       -1 0.33865365E-02 0.80043948E+02</pdfrwt>
<totfact> 0.16276973E+05</totfact>
</mgrwt>
</event>
<event>
 8    1  0.1226832E-020  0.7933940E+02  0.7818608E-02  0.1330937E+00
         -1   -1    0    0    0  501 -0.00000000000E+00  0.00000000000E+00  0.84355750882E+01  0.84355765938E+01  0.50400000000E-02 0.  1.
          2   -1    0    0  501    0  0.00000000000E+00 -0.00000000000E+00 -0.18655335640E+03  0.18655335641E+03  0.25500000000E-02 0. -1.
         24    2    1    2    0    0 -0.35527136788E-14 -0.35527136788E-14 -0.17811778131E+03  0.19498893301E+03  0.79339397384E+02 0.  0.
         66    2    3    3    0    0  0.16826159359E+02  0.30817598303E+02 -0.13435462400E+03  0.13888127662E+03  0.20000002564E+01 0.  0.
        -13    1    3    3    0    0 -0.16826159359E+02 -0.30817598303E+02 -0.43763157308E+02  0.56107656390E+02  0.10566000000E+00 0.  1.
         13    1    4    4    0    0  0.13942034759E+00  0.16290272148E+00 -0.12810110551E+01  0.13031226684E+01  0.10566000000E+00 0. -1.
        -13    1    4    4    0    0  0.26080845631E+01  0.53216416589E+01 -0.21584586501E+02  0.22383643884E+02  0.10566000000E+00 0.  1.
         14    1    4    4    0    0  0.14078654448E+02  0.25333053922E+02 -0.11148902644E+03  0.11519451007E+03  0.00000000000E+00 0. -1.
<mgrwt>
<rscale>  0 0.79339397E+02</rscale>
<asrwt>0</asrwt>
<pdfrwt beam="1">  1        2 0.28700513E-01 0.79339397E+02</pdfrwt>
<pdfrwt beam="2">  1       -1 0.12977810E-02 0.79339397E+02</pdfrwt>
<totfact> 0.22012171E+05</totfact>
</mgrwt>
</event>
<event>
 8    1  0.1226832E-020  0.8063072E+02  0.7818608E-02  0.1327271E+00
         -1   -1    0    0    0  501 -0.00000000000E+00  0.00000000000E+00  0.62742244442E+01  0.62742264685E+01  0.50400000000E-02 0.  1.
          2   -1    0    0  501    0  0.00000000000E+00 -0.00000000000E+00 -0.25904841557E+03  0.25904841559E+03  0.25500000000E-02 0. -1.
         24    2    1    2    0    0  0.00000000000E+00  0.71054273576E-14 -0.25277419113E+03  0.26532264205E+03  0.80630718003E+02 0.  0.
         66    2    3    3    0    0  0.20145832677E+02  0.33137369868E+02 -0.16241851190E+03  0.16699614619E+03  0.19999945880E+01 0.  0.
        -13    1    3    3    0    0 -0.20145832677E+02 -0.33137369868E+02 -0.90355679226E+02  0.98326495861E+02  0.10566000000E+00 0.  1.
         13    1    4    4    0    0  0.10820864390E+02  0.18595139835E+02 -0.89874352082E+02  0.92413638917E+02  0.10566000000E+00 0. -1.
        -13    1    4    4    0    0  0.55960849545E+01  0.86748814756E+01 -0.45853628056E+02  0.47001447907E+02  0.10566000000E+00 0.  1.
        -14    1    4    4    0    0  0.37288833318E+01  0.58673485580E+01 -0.26690531765E+02  0.27581059369E+02  0.00000000000E+00 0.  1.
<mgrwt>
<rscale>  0 0.80630718E+02</rscale>
<asrwt>0</asrwt>
<pdfrwt beam="1">  1        2 0.39853594E-01 0.80630718E+02</pdfrwt>
<pdfrwt beam="2">  1       -1 0.96526566E-03 0.80630718E+02</pdfrwt>
<totfact> 0.23681310E+05</totfact>
</mgrwt>
</event>
<event>
 8    1  0.1226832E-020  0.7933662E+02  0.7818608E-02  0.1330945E+00
          2   -1    0    0  501    0  0.00000000000E+00  0.00000000000E+00  0.34496105173E+03  0.34496105173E+03  0.25500000000E-02 0. -1.
         -1   -1    0    0    0  501 -0.00000000000E+00 -0.00000000000E+00 -0.45616005381E+01  0.45616033224E+01  0.50400000000E-02 0.  1.
         24    2    1    2    0    0  0.00000000000E+00  0.00000000000E+00  0.34039945119E+03  0.34952265506E+03  0.79336624768E+02 0.  0.
         66    2    3    3    0    0 -0.27080062664E+02 -0.22917570953E+02  0.24825312341E+03  0.25078308984E+03  0.20000037626E+01 0.  0.
        -13    1    3    3    0    0  0.27080062664E+02  0.22917570953E+02  0.92146327781E+02  0.98739565220E+02  0.10566000000E+00 0.  1.
         13    1    4    4    0    0 -0.57588539997E+01 -0.46294411811E+01  0.48269785174E+02  0.48832155900E+02  0.10566000000E+00 0. -1.
        -13    1    4    4    0    0 -0.10363506253E+02 -0.87161315235E+01  0.10109389749E+03  0.10199686508E+03  0.10566000000E+00 0.  1.
        -14    1    4    4    0    0 -0.10957702411E+02 -0.95719982486E+01  0.98889440738E+02  0.99954068862E+02  0.00000000000E+00 0.  1.
<mgrwt>
<rscale>  0 0.79336625E+02</rscale>
<asrwt>0</asrwt>
<pdfrwt beam="1">  1        2 0.53070938E-01 0.79336625E+02</pdfrwt>
<pdfrwt beam="2">  1       -1 0.70178483E-03 0.79336625E+02</pdfrwt>
<totfact> 0.27400648E+05</totfact>
</mgrwt>
</event>
<event>
 8    1  0.1226832E-020  0.7817787E+02  0.7818608E-02  0.1334303E+00
          2   -1    0    0  501    0  0.00000000000E+00  0.00000000000E+00  0.56610319736E+02  0.56610319794E+02  0.25500000000E-02 0. -1.
         -1   -1    0    0    0  501 -0.00000000000E+00 -0.00000000000E+00 -0.26990572959E+02  0.26990573430E+02  0.50400000000E-02 0.  1.
         24    2    1    2    0    0 -0.17763568394E-14 -0.17763568394E-14  0.29619746777E+02  0.83600893224E+02  0.78177873779E+02 0.  0.
         66    2    3    3    0    0 -0.10248354540E+02 -0.10099256937E+02  0.53655645185E+02  0.55587336902E+02  0.20000005602E+01 0.  0.
        -13    1    3    3    0    0  0.10248354540E+02  0.10099256937E+02 -0.24035898408E+02  0.28013556321E+02  0.10566000000E+00 0.  1.
         13    1    4    4    0    0 -0.51299134325E+01 -0.49144153914E+01  0.28204128591E+02  0.29085245814E+02  0.10566000000E+00 0. -1.
        -13    1    4    4    0    0 -0.36645529799E+01 -0.34995793748E+01  0.15615743314E+02  0.16417631000E+02  0.10566000000E+00 0.  1.
        -14    1    4    4    0    0 -0.14538881281E+01 -0.16852621710E+01  0.98357732796E+01  0.10084460089E+02  0.00000000000E+00 0.  1.
<mgrwt>
<rscale>  0 0.78177874E+02</rscale>
<asrwt>0</asrwt>
<pdfrwt beam="1">  1        2 0.87092799E-02 0.78177874E+02</pdfrwt>
<pdfrwt beam="2">  1       -1 0.41523959E-02 0.78177874E+02</pdfrwt>
<totfact> 0.16354808E+05</totfact>
</mgrwt>
</event>
<event>
 8    1  0.1226832E-020  0.8054480E+02  0.7818608E-02  0.1327512E+00
         -1   -1    0    0    0  501 -0.00000000000E+00  0.00000000000E+00  0.20604794818E+01  0.20604856458E+01  0.50400000000E-02 0.  1.
          2   -1    0    0  501    0  0.00000000000E+00 -0.00000000000E+00 -0.78712934086E+03  0.78712934086E+03  0.25500000000E-02 0. -1.
         24    2    1    2    0    0  0.00000000000E+00  0.00000000000E+00 -0.78506886137E+03  0.78918982651E+03  0.80544802198E+02 0.  0.
         66    2    3    3    0    0 -0.72916705095E+01 -0.74794809315E+01 -0.77361379665E+03  0.77368689886E+03  0.20000003874E+01 0.  0.
        -13    1    3    3    0    0  0.72916705095E+01  0.74794809315E+01 -0.11455064724E+02  0.15502927649E+02  0.10566000000E+00 0.  1.
         13    1    4    4    0    0 -0.19616593194E+01 -0.22496863166E+01 -0.24293730749E+03  0.24295566618E+03  0.10566000000E+00 0. -1.
        -13    1    4    4    0    0 -0.36119413494E+01 -0.44499777262E+01 -0.39211080644E+03  0.39215270509E+03  0.10566000000E+00 0.  1.
        -14    1    4    4    0    0 -0.17180698406E+01 -0.77981688861E+00 -0.13856568272E+03  0.13857852758E+03  0.00000000000E+00 0.  1.
<mgrwt>
<rscale>  0 0.80544802E+02</rscale>
<asrwt>0</asrwt>
<pdfrwt beam="1">  1        2 0.12109658E+00 0.80544802E+02</pdfrwt>
<pdfrwt beam="2">  1       -1 0.31699795E-03 0.80544802E+02</pdfrwt>
<totfact> 0.33668422E+05</totfact>
</mgrwt>
</event>
<event>
 8    1  0.1226832E-020  0.7955713E+02  0.7818608E-02  0.1330313E+00
         -1   -1    0    0    0  501 -0.00000000000E+00  0.00000000000E+00  0.20646401222E+02  0.20646401837E+02  0.50400000000E-02 0.  1.
          2   -1    0    0  501    0  0.00000000000E+00 -0.00000000000E+00 -0.76639711964E+02  0.76639712007E+02  0.25500000000E-02 0. -1.
         24    2    1    2    0    0  0.00000000000E+00 -0.44408920985E-15 -0.55993310742E+02  0.97286113844E+02  0.79557131038E+02 0.  0.
         66    2    3    3    0    0 -0.24223324071E+02 -0.27826784296E+01 -0.66408868928E+02  0.70771820630E+02  0.19999986882E+01 0.  0.
        -13    1    3    3    0    0  0.24223324071E+02  0.27826784296E+01  0.10415558185E+02  0.26514293214E+02  0.10566000000E+00 0.  1.
         13    1    4    4    0    0 -0.78571620276E+01 -0.17845837990E+01 -0.21182198617E+02  0.22663107394E+02  0.10566000000E+00 0. -1.
        -13    1    4    4    0    0 -0.76727946053E+01 -0.40150839184E+00 -0.20713510091E+02  0.22092841609E+02  0.10566000000E+00 0.  1.
         14    1    4    4    0    0 -0.86933674383E+01 -0.59658623872E+00 -0.24513160219E+02  0.26015871627E+02  0.00000000000E+00 0. -1.
<mgrwt>
<rscale>  0 0.79557131E+02</rscale>
<asrwt>0</asrwt>
<pdfrwt beam="1">  1        2 0.11790725E-01 0.79557131E+02</pdfrwt>
<pdfrwt beam="2">  1       -1 0.31763695E-02 0.79557131E+02</pdfrwt>
<totfact> 0.16763345E+05</totfact>
</mgrwt>
</event>
<event>
 8    1  0.1226832E-020  0.7918306E+02  0.7818608E-02  0.1331386E+00
          2   -1    0    0  501    0  0.00000000000E+00  0.00000000000E+00  0.95647852523E+02  0.95647852557E+02  0.25500000000E-02 0. -1.
         -1   -1    0    0    0  501 -0.00000000000E+00 -0.00000000000E+00 -0.16388125688E+02  0.16388126463E+02  0.50400000000E-02 0.  1.
         24    2    1    2    0    0  0.00000000000E+00  0.00000000000E+00  0.79259726835E+02  0.11203597902E+03  0.79183055617E+02 0.  0.
         66    2    3    3    0    0 -0.36201176611E+02  0.15870299587E+02  0.37166893649E+02  0.54293365927E+02  0.20000008141E+01 0.  0.
        -13    1    3    3    0    0  0.36201176611E+02 -0.15870299587E+02  0.42092833186E+02  0.57742613092E+02  0.10566000000E+00 0.  1.
         13    1    4    4    0    0 -0.11175741201E+02  0.56759929934E+01  0.12494034901E+02  0.17698196518E+02  0.10566000000E+00 0. -1.
        -13    1    4    4    0    0 -0.60388022891E+01  0.24868973469E+01  0.56994427276E+01  0.86687140305E+01  0.10566000000E+00 0.  1.
         14    1    4    4    0    0 -0.18986633121E+02  0.77074092465E+01  0.18973416020E+02  0.27926455379E+02  0.00000000000E+00 0. -1.
<mgrwt>
<rscale>  0 0.79183056E+02</rscale>
<asrwt>0</asrwt>
<pdfrwt beam="1">  1        2 0.14715054E-01 0.79183056E+02</pdfrwt>
<pdfrwt beam="2">  1       -1 0.25212501E-02 0.79183056E+02</pdfrwt>
<totfact> 0.17996638E+05</totfact>
</mgrwt>
</event>
<event>
 8    1  0.1226832E-020  0.7798622E+02  0.7818608E-02  0.1334865E+00
          2   -1    0    0  501    0  0.00000000000E+00  0.00000000000E+00  0.94236195352E+02  0.94236195386E+02  0.25500000000E-02 0. -1.
         -1   -1    0    0    0  501 -0.00000000000E+00 -0.00000000000E+00 -0.16134593685E+02  0.16134594472E+02  0.50400000000E-02 0.  1.
         24    2    1    2    0    0  0.00000000000E+00  0.00000000000E+00  0.78101601667E+02  0.11037078986E+03  0.77986223597E+02 0.  0.
         66    2    3    3    0    0 -0.30325637225E+02 -0.16085299260E+02  0.12977362219E+02  0.36753136723E+02  0.20000008676E+01 0.  0.
        -13    1    3    3    0    0  0.30325637225E+02  0.16085299260E+02  0.65124239448E+02  0.73617653135E+02  0.10566000000E+00 0.  1.
         13    1    4    4    0    0 -0.19752612000E+02 -0.11091137995E+02  0.79772517878E+01  0.24017217428E+02  0.10566000000E+00 0. -1.
        -13    1    4    4    0    0 -0.91799714435E+01 -0.44573684144E+01  0.41419015702E+01  0.11013923985E+02  0.10566000000E+00 0. -1.
         14    1    4    4    0    0 -0.13930537815E+01 -0.53679285019E+00  0.85820886144E+00  0.17219953113E+01  0.00000000000E+00 0. -1.
<mgrwt>
<rscale>  0 0.77986224E+02</rscale>
<asrwt>0</asrwt>
<pdfrwt beam="1">  1        2 0.14497876E-01 0.77986224E+02</pdfrwt>
<pdfrwt beam="2">  1       -1 0.24822453E-02 0.77986224E+02</pdfrwt>
<totfact> 0.18669487E+05</totfact>
</mgrwt>
</event>
<event>
 8    1  0.1226832E-020  0.7024401E+02  0.7818608E-02  0.1359265E+00
          2   -1    0    0  501    0  0.00000000000E+00  0.00000000000E+00  0.32019895500E+03  0.32019895501E+03  0.25500000000E-02 0. -1.
         -1   -1    0    0    0  501 -0.00000000000E+00 -0.00000000000E+00 -0.38524634514E+01  0.38524667482E+01  0.50400000000E-02 0.  1.
         24    2    1    2    0    0  0.00000000000E+00  0.00000000000E+00  0.31634649155E+03  0.32405142176E+03  0.70244012048E+02 0.  0.
         66    2    3    3    0    0  0.75912704080E+01  0.27160992232E+02  0.25465056968E+03  0.25621526013E+03  0.19999998109E+01 0.  0.
        -13    1    3    3    0    0 -0.75912704080E+01 -0.27160992232E+02  0.61695921875E+02  0.67836161636E+02  0.10566000000E+00 0.  1.
         13    1    4    4    0    0  0.33977449745E+01  0.95113002555E+01  0.86077855100E+02  0.86668436043E+02  0.10566000000E+00 0. -1.
        -13    1    4    4    0    0  0.23583977619E+01  0.89700753614E+01  0.87216374915E+02  0.87708218026E+02  0.10566000000E+00 0.  1.
         14    1    4    4    0    0  0.18351276716E+01  0.86796166147E+01  0.81356339662E+02  0.81838606057E+02  0.00000000000E+00 0. -1.
<mgrwt>
<rscale>  0 0.70244012E+02</rscale>
<asrwt>0</asrwt>
<pdfrwt beam="1">  1        2 0.49261404E-01 0.70244012E+02</pdfrwt>
<pdfrwt beam="2">  1       -1 0.59268663E-03 0.70244012E+02</pdfrwt>
<totfact> 0.36607095E+05</totfact>
</mgrwt>
</event>
<event>
 8    1  0.1226832E-020  0.8174513E+02  0.7818608E-02  0.1324171E+00
         -1   -1    0    0    0  501 -0.00000000000E+00  0.00000000000E+00  0.97570171894E+00  0.97571473595E+00  0.50400000000E-02 0.  1.
          2   -1    0    0  501    0  0.00000000000E+00 -0.00000000000E+00 -0.17121577079E+04  0.17121577079E+04  0.25500000000E-02 0. -1.
         24    2    1    2    0    0  0.35527136788E-14  0.00000000000E+00 -0.17111820061E+04  0.17131334226E+04  0.81745125120E+02 0.  0.
         66    2    3    3    0    0  0.19513353007E+02 -0.60636593282E+01 -0.15973469079E+04  0.15974788522E+04  0.19999939782E+01 0.  0.
        -13    1    3    3    0    0 -0.19513353007E+02  0.60636593282E+01 -0.11383509822E+03  0.11565457043E+03  0.10566000000E+00 0.  1.
         13    1    4    4    0    0  0.17631740778E+01  0.33668346671E-02 -0.13769428486E+03  0.13770561369E+03  0.10566000000E+00 0. -1.
        -13    1    4    4    0    0  0.25545815260E+01 -0.97311438560E+00 -0.22173149935E+03  0.22174837498E+03  0.10566000000E+00 0.  1.
         14    1    4    4    0    0  0.15195597404E+02 -0.50939117772E+01 -0.12379211237E+04  0.12380248635E+04  0.00000000000E+00 0. -1.
<mgrwt>
<rscale>  0 0.81745125E+02</rscale>
<asrwt>0</asrwt>
<pdfrwt beam="1">  1        2 0.26340647E+00 0.81745125E+02</pdfrwt>
<pdfrwt beam="2">  1       -1 0.15011033E-03 0.81745125E+02</pdfrwt>
<totfact> 0.29498069E+05</totfact>
</mgrwt>
</event>
<event>
 8    1  0.1226832E-020  0.8147107E+02  0.7818608E-02  0.1324928E+00
          2   -1    0    0  501    0  0.00000000000E+00  0.00000000000E+00  0.13663966411E+03  0.13663966413E+03  0.25500000000E-02 0. -1.
         -1   -1    0    0    0  501 -0.00000000000E+00 -0.00000000000E+00 -0.12144232990E+02  0.12144234035E+02  0.50400000000E-02 0.  1.
         24    2    1    2    0    0 -0.71054273576E-14  0.00000000000E+00  0.12449543112E+03  0.14878389817E+03  0.81471074527E+02 0.  0.
         66    2    3    3    0    0 -0.39669113951E+02 -0.84319461920E+01  0.68778528451E+02  0.79870033633E+02  0.19999945948E+01 0.  0.
        -13    1    3    3    0    0  0.39669113951E+02  0.84319461920E+01  0.55716902669E+02  0.68913864536E+02  0.10566000000E+00 0.  1.
         13    1    4    4    0    0 -0.28330514246E+02 -0.64778350470E+01  0.48596286572E+02  0.56623233897E+02  0.10566000000E+00 0. -1.
        -13    1    4    4    0    0 -0.71278926201E+01 -0.10602346870E+01  0.13362822052E+02  0.15182461198E+02  0.10566000000E+00 0.  1.
        -14    1    4    4    0    0 -0.42107070848E+01 -0.89387645806E+00  0.68194198277E+01  0.80643385384E+01  0.00000000000E+00 0.  1.
<mgrwt>
<rscale>  0 0.81471075E+02</rscale>
<asrwt>0</asrwt>
<pdfrwt beam="1">  1        2 0.21021485E-01 0.81471075E+02</pdfrwt>
<pdfrwt beam="2">  1       -1 0.18683437E-02 0.81471075E+02</pdfrwt>
<totfact> 0.18524599E+05</totfact>
</mgrwt>
</event>
<event>
 8    1  0.1226832E-020  0.7612500E+02  0.7818608E-02  0.1340422E+00
          2   -1    0    0  501    0  0.00000000000E+00  0.00000000000E+00  0.18304721349E+03  0.18304721351E+03  0.25500000000E-02 0. -1.
         -1   -1    0    0    0  501 -0.00000000000E+00 -0.00000000000E+00 -0.79146458192E+01  0.79146474240E+01  0.50400000000E-02 0.  1.
         24    2    1    2    0    0  0.00000000000E+00 -0.17763568394E-14  0.17513256767E+03  0.19096186093E+03  0.76125002933E+02 0.  0.
         66    2    3    3    0    0 -0.66044197024E+00 -0.13266712893E+02  0.17703400735E+03  0.17754290078E+03  0.20000011139E+01 0.  0.
        -13    1    3    3    0    0  0.66044197024E+00  0.13266712893E+02 -0.19014396822E+01  0.13418960149E+02  0.10566000000E+00 0.  1.
         13    1    4    4    0    0 -0.81054642959E+00 -0.69935091689E+01  0.98034343973E+02  0.98286875615E+02  0.10566000000E+00 0. -1.
        -13    1    4    4    0    0  0.30380375934E+00 -0.47064704838E+01  0.53382904744E+02  0.53590939944E+02  0.10566000000E+00 0.  1.
         14    1    4    4    0    0 -0.15369929999E+00 -0.15667332399E+01  0.25616758634E+02  0.25665085221E+02  0.00000000000E+00 0. -1.
<mgrwt>
<rscale>  0 0.76125003E+02</rscale>
<asrwt>0</asrwt>
<pdfrwt beam="1">  1        2 0.28161110E-01 0.76125003E+02</pdfrwt>
<pdfrwt beam="2">  1       -1 0.12176379E-02 0.76125003E+02</pdfrwt>
<totfact> 0.24388073E+05</totfact>
</mgrwt>
</event>
<event>
 8    1  0.1226832E-020  0.8015222E+02  0.7818608E-02  0.1328620E+00
         -1   -1    0    0    0  501 -0.00000000000E+00  0.00000000000E+00  0.34864983019E+02  0.34864983383E+02  0.50400000000E-02 0.  1.
          2   -1    0    0  501    0  0.00000000000E+00 -0.00000000000E+00 -0.46066121178E+02  0.46066121249E+02  0.25500000000E-02 0. -1.
         24    2    1    2    0    0  0.71054273576E-14 -0.44408920985E-15 -0.11201138159E+02  0.80931104632E+02  0.80152218939E+02 0.  0.
         66    2    3    3    0    0 -0.34620492083E+02  0.27185163421E+01 -0.25750905394E+02  0.43279070240E+02  0.19999972699E+01 0.  0.
        -13    1    3    3    0    0  0.34620492083E+02 -0.27185163421E+01  0.14549767235E+02  0.37652034391E+02  0.10566000000E+00 0.  1.
         13    1    4    4    0    0 -0.19725668549E+01  0.15762379732E-01 -0.10632421910E+01  0.22434162436E+01  0.10566000000E+00 0. -1.
        -13    1    4    4    0    0 -0.10898831624E+01  0.23446023312E+00 -0.72331075461E+00  0.13331014185E+01  0.10566000000E+00 0.  1.
         14    1    4    4    0    0 -0.31558042066E+02  0.24682937292E+01 -0.23964352448E+02  0.39702552578E+02  0.00000000000E+00 0. -1.
<mgrwt>
<rscale>  0 0.80152219E+02</rscale>
<asrwt>0</asrwt>
<pdfrwt beam="1">  1        2 0.70870956E-02 0.80152219E+02</pdfrwt>
<pdfrwt beam="2">  1       -1 0.53638436E-02 0.80152219E+02</pdfrwt>
<totfact> 0.14605412E+05</totfact>
</mgrwt>
</event>
<event>
 8    1  0.1226832E-020  0.7967926E+02  0.7818608E-02  0.1329964E+00
          2   -1    0    0  501    0  0.00000000000E+00  0.00000000000E+00  0.96332524375E+01  0.96332527750E+01  0.25500000000E-02 0. -1.
         -1   -1    0    0    0  501 -0.00000000000E+00 -0.00000000000E+00 -0.16476222115E+03  0.16476222123E+03  0.50400000000E-02 0.  1.
         24    2    1    2    0    0  0.00000000000E+00  0.35527136788E-14 -0.15512896872E+03  0.17439547401E+03  0.79679259653E+02 0.  0.
         66    2    3    3    0    0 -0.33557411041E+02 -0.20994201216E+02 -0.68241300974E+02  0.78915977306E+02  0.19999987428E+01 0.  0.
        -13    1    3    3    0    0  0.33557411041E+02  0.20994201216E+02 -0.86887667742E+02  0.95479496701E+02  0.10566000000E+00 0.  1.
         13    1    4    4    0    0 -0.52383973398E+01 -0.36370360717E+01 -0.11739648282E+02  0.13360364662E+02  0.10566000000E+00 0. -1.
        -13    1    4    4    0    0 -0.21096616003E+02 -0.13085200939E+02 -0.43341914233E+02  0.49948197003E+02  0.10566000000E+00 0.  1.
        -14    1    4    4    0    0 -0.72223976978E+01 -0.42719642053E+01 -0.13159738459E+02  0.15607415641E+02  0.00000000000E+00 0.  1.
<mgrwt>
<rscale>  0 0.79679260E+02</rscale>
<asrwt>0</asrwt>
<pdfrwt beam="1">  1        2 0.14820390E-02 0.79679260E+02</pdfrwt>
<pdfrwt beam="2">  1       -1 0.25348032E-01 0.79679260E+02</pdfrwt>
<totfact> 0.10633424E+05</totfact>
</mgrwt>
</event>
<event>
 8    1  0.1226832E-020  0.7937142E+02  0.7818608E-02  0.1330845E+00
         -1   -1    0    0    0  501 -0.00000000000E+00  0.00000000000E+00  0.16834095971E+01  0.16834171418E+01  0.50400000000E-02 0.  1.
          2   -1    0    0  501    0  0.00000000000E+00 -0.00000000000E+00 -0.93557274515E+03  0.93557274515E+03  0.25500000000E-02 0. -1.
         24    2    1    2    0    0  0.00000000000E+00  0.00000000000E+00 -0.93388933555E+03  0.93725616229E+03  0.79371422445E+02 0.  0.
         66    2    3    3    0    0  0.24842085392E+02  0.14369030002E+02 -0.79048934344E+03  0.79101264233E+03  0.20000009294E+01 0.  0.
        -13    1    3    3    0    0 -0.24842085392E+02 -0.14369030002E+02 -0.14339999211E+03  0.14624351996E+03  0.10566000000E+00 0.  1.
         13    1    4    4    0    0  0.15917414665E+02  0.96015340111E+01 -0.52204537831E+03  0.52237624537E+03  0.10566000000E+00 0. -1.
        -13    1    4    4    0    0  0.29984649198E+00  0.35912984909E+00 -0.12159518355E+02  0.12168974189E+02  0.10566000000E+00 0.  1.
        -14    1    4    4    0    0  0.86248242348E+01  0.44083661422E+01 -0.25628444677E+03  0.25646742277E+03  0.00000000000E+00 0.  1.
<mgrwt>
<rscale>  0 0.79371422E+02</rscale>
<asrwt>0</asrwt>
<pdfrwt beam="1">  1        2 0.14393385E+00 0.79371422E+02</pdfrwt>
<pdfrwt beam="2">  1       -1 0.25898742E-03 0.79371422E+02</pdfrwt>
<totfact> 0.35805619E+05</totfact>
</mgrwt>
</event>
<event>
 8    1  0.1226832E-020  0.7979683E+02  0.7818608E-02  0.1329629E+00
          2   -1    0    0  501    0  0.00000000000E+00  0.00000000000E+00  0.10153736252E+04  0.10153736252E+04  0.25500000000E-02 0. -1.
         -1   -1    0    0    0  501 -0.00000000000E+00 -0.00000000000E+00 -0.15677768196E+01  0.15677849208E+01  0.50400000000E-02 0.  1.
         24    2    1    2    0    0  0.22204460493E-15  0.35527136788E-14  0.10138058483E+04  0.10169414101E+04  0.79796825842E+02 0.  0.
         66    2    3    3    0    0  0.11548682853E+01 -0.27192194101E+02  0.87858225636E+03  0.87900598993E+03  0.20000006560E+01 0.  0.
        -13    1    3    3    0    0 -0.11548682853E+01  0.27192194101E+02  0.13522359199E+03  0.13793542016E+03  0.10566000000E+00 0.  1.
         13    1    4    4    0    0  0.13036083151E+01 -0.10773366003E+02  0.33529941112E+03  0.33547499321E+03  0.10566000000E+00 0. -1.
        -13    1    4    4    0    0 -0.13597402427E+00 -0.96329085028E+01  0.31457824041E+03  0.31472574079E+03  0.10566000000E+00 0.  1.
         14    1    4    4    0    0 -0.12766005539E-01 -0.67859195956E+01  0.22870460484E+03  0.22880525593E+03  0.00000000000E+00 0. -1.
<mgrwt>
<rscale>  0 0.79796826E+02</rscale>
<asrwt>0</asrwt>
<pdfrwt beam="1">  1        2 0.15621120E+00 0.79796826E+02</pdfrwt>
<pdfrwt beam="2">  1       -1 0.24119726E-03 0.79796826E+02</pdfrwt>
<totfact> 0.35484220E+05</totfact>
</mgrwt>
</event>
<event>
 8    1  0.1226832E-020  0.7813157E+02  0.7818608E-02  0.1334439E+00
         -1   -1    0    0    0  501 -0.00000000000E+00  0.00000000000E+00  0.37007267671E+01  0.37007301990E+01  0.50400000000E-02 0.  1.
          2   -1    0    0  501    0  0.00000000000E+00 -0.00000000000E+00 -0.41238784315E+03  0.41238784316E+03  0.25500000000E-02 0. -1.
         24    2    1    2    0    0  0.00000000000E+00  0.71054273576E-14 -0.40868711638E+03  0.41608857336E+03  0.78131567121E+02 0.  0.
         66    2    3    3    0    0 -0.15614249975E+02 -0.34355706825E+02 -0.25773490224E+03  0.26049068934E+03  0.20000008251E+01 0.  0.
        -13    1    3    3    0    0  0.15614249975E+02  0.34355706825E+02 -0.15095221414E+03  0.15559788402E+03  0.10566000000E+00 0.  1.
         13    1    4    4    0    0 -0.24562140685E+00 -0.80913200531E+00 -0.69390376649E+01  0.69911681590E+01  0.10566000000E+00 0. -1.
        -13    1    4    4    0    0 -0.65943603982E+01 -0.15268438379E+02 -0.11694700521E+03  0.11812376557E+03  0.10566000000E+00 0.  1.
         14    1    4    4    0    0 -0.87742681702E+01 -0.18278136441E+02 -0.13384885936E+03  0.13537575561E+03  0.00000000000E+00 0. -1.
<mgrwt>
<rscale>  0 0.78131567E+02</rscale>
<asrwt>0</asrwt>
<pdfrwt beam="1">  1        2 0.63444247E-01 0.78131567E+02</pdfrwt>
<pdfrwt beam="2">  1       -1 0.56934317E-03 0.78131567E+02</pdfrwt>
<totfact> 0.30370620E+05</totfact>
</mgrwt>
</event>
<event>
 8    1  0.1226832E-020  0.7985433E+02  0.7818608E-02  0.1329465E+00
          2   -1    0    0  501    0  0.00000000000E+00  0.00000000000E+00  0.54821067441E+03  0.54821067441E+03  0.25500000000E-02 0. -1.
         -1   -1    0    0    0  501 -0.00000000000E+00 -0.00000000000E+00 -0.29079646932E+01  0.29079690608E+01  0.50400000000E-02 0.  1.
         24    2    1    2    0    0  0.71054273576E-14  0.00000000000E+00  0.54530270971E+03  0.55111864347E+03  0.79854329645E+02 0.  0.
         66    2    3    3    0    0  0.35748927944E+02 -0.54210364045E+01  0.38929260208E+03  0.39097327722E+03  0.19999951426E+01 0.  0.
        -13    1    3    3    0    0 -0.35748927944E+02  0.54210364045E+01  0.15601010764E+03  0.16014536626E+03  0.10566000000E+00 0.  1.
         13    1    4    4    0    0  0.24503021317E+02 -0.41071657713E+01  0.26777497275E+03  0.26892510865E+03  0.10566000000E+00 0. -1.
        -13    1    4    4    0    0  0.64284311402E+01 -0.25572686423E+00  0.68046078067E+02  0.68349616147E+02  0.10566000000E+00 0.  1.
        -14    1    4    4    0    0  0.48174754869E+01 -0.10581437690E+01  0.53471551259E+02  0.53698552423E+02  0.00000000000E+00 0.  1.
<mgrwt>
<rscale>  0 0.79854330E+02</rscale>
<asrwt>0</asrwt>
<pdfrwt beam="1">  1        2 0.84340080E-01 0.79854330E+02</pdfrwt>
<pdfrwt beam="2">  1       -1 0.44737965E-03 0.79854330E+02</pdfrwt>
<totfact> 0.31481401E+05</totfact>
</mgrwt>
</event>
<event>
 8    1  0.1226832E-020  0.7858890E+02  0.7818608E-02  0.1333104E+00
         -1   -1    0    0    0  501 -0.00000000000E+00  0.00000000000E+00  0.12534616732E+03  0.12534616742E+03  0.50400000000E-02 0.  1.
          2   -1    0    0  501    0  0.00000000000E+00 -0.00000000000E+00 -0.12318316296E+02  0.12318316560E+02  0.25500000000E-02 0. -1.
         24    2    1    2    0    0  0.00000000000E+00  0.35527136788E-14  0.11302785102E+03  0.13766448398E+03  0.78588898977E+02 0.  0.
         66    2    3    3    0    0  0.20764800544E+02  0.16579899769E+02  0.59028864303E+01  0.27293114408E+02  0.20000019785E+01 0.  0.
        -13    1    3    3    0    0 -0.20764800544E+02 -0.16579899769E+02  0.10712496459E+03  0.11037136957E+03  0.10566000000E+00 0.  1.
         13    1    4    4    0    0  0.10691498320E+02  0.92729928888E+01  0.25615480367E+01  0.14382949135E+02  0.10566000000E+00 0. -1.
        -13    1    4    4    0    0  0.32247877288E+01  0.20464744975E+01  0.74586000957E+00  0.38929147119E+01  0.10566000000E+00 0.  1.
         14    1    4    4    0    0  0.68485144953E+01  0.52604323830E+01  0.25954783840E+01  0.90172505616E+01  0.00000000000E+00 0. -1.
<mgrwt>
<rscale>  0 0.78588899E+02</rscale>
<asrwt>0</asrwt>
<pdfrwt beam="1">  1        2 0.18951256E-02 0.78588899E+02</pdfrwt>
<pdfrwt beam="2">  1       -1 0.19284026E-01 0.78588899E+02</pdfrwt>
<totfact> 0.11785682E+05</totfact>
</mgrwt>
</event>
<event>
 8    1  0.1226832E-020  0.7796681E+02  0.7818608E-02  0.1334922E+00
         -1   -1    0    0    0  501 -0.00000000000E+00  0.00000000000E+00  0.29914853971E+02  0.29914854395E+02  0.50400000000E-02 0.  1.
          2   -1    0    0  501    0  0.00000000000E+00 -0.00000000000E+00 -0.50801043935E+02  0.50801043999E+02  0.25500000000E-02 0. -1.
         24    2    1    2    0    0  0.00000000000E+00  0.00000000000E+00 -0.20886189964E+02  0.80715898394E+02  0.77966809107E+02 0.  0.
         66    2    3    3    0    0  0.37314706891E+02 -0.10698935574E+02 -0.70404460633E+01  0.39502182704E+02  0.19999962105E+01 0.  0.
        -13    1    3    3    0    0 -0.37314706891E+02  0.10698935574E+02 -0.13845743901E+02  0.41213715690E+02  0.10566000000E+00 0.  1.
         13    1    4    4    0    0  0.13583907741E+02 -0.40627300337E+01 -0.26626172038E+01  0.14426677346E+02  0.10566000000E+00 0. -1.
        -13    1    4    4    0    0  0.20921239020E+02 -0.62945480491E+01 -0.36223681811E+01  0.22146157512E+02  0.10566000000E+00 0.  1.
        -14    1    4    4    0    0  0.28095601308E+01 -0.34165749148E+00 -0.75546067842E+00  0.29293478467E+01  0.00000000000E+00 0.  1.
<mgrwt>
<rscale>  0 0.77966809E+02</rscale>
<asrwt>0</asrwt>
<pdfrwt beam="1">  1        2 0.78155452E-02 0.77966809E+02</pdfrwt>
<pdfrwt beam="2">  1       -1 0.46022853E-02 0.77966809E+02</pdfrwt>
<totfact> 0.16087744E+05</totfact>
</mgrwt>
</event>
<event>
 8    1  0.1226832E-020  0.7964068E+02  0.7818608E-02  0.1330074E+00
         -1   -1    0    0    0  501 -0.00000000000E+00  0.00000000000E+00  0.15953080956E+02  0.15953081752E+02  0.50400000000E-02 0.  1.
          2   -1    0    0  501    0  0.00000000000E+00 -0.00000000000E+00 -0.99395185672E+02  0.99395185704E+02  0.25500000000E-02 0. -1.
         24    2    1    2    0    0  0.71054273576E-14 -0.17763568394E-14 -0.83442104716E+02  0.11534826746E+03  0.79640680344E+02 0.  0.
         66    2    3    3    0    0 -0.33358404601E+02  0.83504754797E+01 -0.70755745950E+02  0.78694912070E+02  0.20000006137E+01 0.  0.
        -13    1    3    3    0    0  0.33358404601E+02 -0.83504754797E+01 -0.12686358766E+02  0.36653355386E+02  0.10566000000E+00 0.  1.
         13    1    4    4    0    0 -0.15987052033E+02  0.38247189613E+01 -0.32353442861E+02  0.36290091442E+02  0.10566000000E+00 0. -1.
        -13    1    4    4    0    0 -0.15942637336E+02  0.38506079604E+01 -0.35227300732E+02  0.38858316327E+02  0.10566000000E+00 0.  1.
         14    1    4    4    0    0 -0.14287152331E+01  0.67514855802E+00 -0.31750023571E+01  0.35465043015E+01  0.00000000000E+00 0. -1.
<mgrwt>
<rscale>  0 0.79640680E+02</rscale>
<asrwt>0</asrwt>
<pdfrwt beam="1">  1        2 0.15291567E-01 0.79640680E+02</pdfrwt>
<pdfrwt beam="2">  1       -1 0.24543203E-02 0.79640680E+02</pdfrwt>
<totfact> 0.17910478E+05</totfact>
</mgrwt>
</event>
<event>
 8    1  0.1226832E-020  0.8029855E+02  0.7818608E-02  0.1328206E+00
         -1   -1    0    0    0  501 -0.00000000000E+00  0.00000000000E+00  0.33600494839E+02  0.33600495217E+02  0.50400000000E-02 0.  1.
          2   -1    0    0  501    0  0.00000000000E+00 -0.00000000000E+00 -0.47974424274E+02  0.47974424342E+02  0.25500000000E-02 0. -1.
         24    2    1    2    0    0 -0.17763568394E-14  0.00000000000E+00 -0.14373929435E+02  0.81574919559E+02  0.80298553248E+02 0.  0.
         66    2    3    3    0    0 -0.93460262397E+01  0.29259640741E+02 -0.33418132963E+02  0.45433978304E+02  0.19999977507E+01 0.  0.
        -13    1    3    3    0    0  0.93460262397E+01 -0.29259640741E+02  0.19044203528E+02  0.36140941255E+02  0.10566000000E+00 0.  1.
         13    1    4    4    0    0 -0.61679005650E+00  0.27416505689E+01 -0.24274715597E+01  0.37149508778E+01  0.10566000000E+00 0. -1.
        -13    1    4    4    0    0 -0.59596269926E+00  0.23653859231E+01 -0.25500805649E+01  0.35304811325E+01  0.10566000000E+00 0.  1.
        -14    1    4    4    0    0 -0.81332734840E+01  0.24152604249E+02 -0.28440580839E+02  0.38188546293E+02  0.00000000000E+00 0.  1.
<mgrwt>
<rscale>  0 0.80298553E+02</rscale>
<asrwt>0</asrwt>
<pdfrwt beam="1">  1        2 0.73806807E-02 0.80298553E+02</pdfrwt>
<pdfrwt beam="2">  1       -1 0.51693069E-02 0.80298553E+02</pdfrwt>
<totfact> 0.14659271E+05</totfact>
</mgrwt>
</event>
<event>
 8    1  0.1226832E-020  0.8052499E+02  0.7818608E-02  0.1327568E+00
         -1   -1    0    0    0  501 -0.00000000000E+00  0.00000000000E+00  0.52729606262E+01  0.52729630349E+01  0.50400000000E-02 0.  1.
          2   -1    0    0  501    0  0.00000000000E+00 -0.00000000000E+00 -0.30743035941E+03  0.30743035942E+03  0.25500000000E-02 0. -1.
         24    2    1    2    0    0  0.35527136788E-14  0.00000000000E+00 -0.30215739878E+03  0.31270332246E+03  0.80524991369E+02 0.  0.
         66    2    3    3    0    0 -0.11656400975E+02 -0.84773530680E+01 -0.29705828226E+03  0.29741445879E+03  0.20000102702E+01 0.  0.
        -13    1    3    3    0    0  0.11656400975E+02  0.84773530680E+01 -0.50991165234E+01  0.15288863662E+02  0.10566000000E+00 0.  1.
         13    1    4    4    0    0 -0.28961588045E+01 -0.15219310946E+01 -0.79525525968E+02  0.79592866858E+02  0.10566000000E+00 0. -1.
        -13    1    4    4    0    0 -0.36933146803E+00 -0.20824522613E+00 -0.69082710023E+01  0.69220765731E+01  0.10566000000E+00 0. -1.
        -14    1    4    4    0    0 -0.83909107024E+01 -0.67471767472E+01 -0.21062448529E+03  0.21089951536E+03  0.00000000000E+00 0.  1.
<mgrwt>
<rscale>  0 0.80524991E+02</rscale>
<asrwt>0</asrwt>
<pdfrwt beam="1">  1        2 0.47296964E-01 0.80524991E+02</pdfrwt>
<pdfrwt beam="2">  1       -1 0.81122514E-03 0.80524991E+02</pdfrwt>
<totfact> 0.25283878E+05</totfact>
</mgrwt>
</event>
<event>
 8    1  0.1226832E-020  0.7828253E+02  0.7818608E-02  0.1333997E+00
          2   -1    0    0  501    0  0.00000000000E+00  0.00000000000E+00  0.21660876544E+03  0.21660876545E+03  0.25500000000E-02 0. -1.
         -1   -1    0    0    0  501 -0.00000000000E+00 -0.00000000000E+00 -0.70728372422E+01  0.70728390379E+01  0.50400000000E-02 0.  1.
         24    2    1    2    0    0  0.00000000000E+00  0.00000000000E+00  0.20953592819E+03  0.22368160449E+03  0.78282533063E+02 0.  0.
         66    2    3    3    0    0  0.24426805788E+02 -0.43297676612E+01  0.19125039310E+03  0.19286297884E+03  0.20000044012E+01 0.  0.
        -13    1    3    3    0    0 -0.24426805788E+02  0.43297676612E+01  0.18285535090E+02  0.30818625644E+02  0.10566000000E+00 0.  1.
         13    1    4    4    0    0  0.19161497315E+02 -0.36076078601E+01  0.15232950225E+03  0.15357234853E+03  0.10566000000E+00 0. -1.
        -13    1    4    4    0    0  0.29549068517E+01 -0.61264146626E+00  0.19483586739E+02  0.19716189295E+02  0.10566000000E+00 0.  1.
         14    1    4    4    0    0  0.23104016212E+01 -0.10951833490E+00  0.19437304114E+02  0.19574441018E+02  0.00000000000E+00 0. -1.
<mgrwt>
<rscale>  0 0.78282533E+02</rscale>
<asrwt>0</asrwt>
<pdfrwt beam="1">  1        2 0.33324424E-01 0.78282533E+02</pdfrwt>
<pdfrwt beam="2">  1       -1 0.10881290E-02 0.78282533E+02</pdfrwt>
<totfact> 0.24016105E+05</totfact>
</mgrwt>
</event>
<event>
 8    1  0.1226832E-020  0.7823028E+02  0.7818608E-02  0.1334150E+00
          2   -1    0    0  501    0  0.00000000000E+00  0.00000000000E+00  0.94983637838E+03  0.94983637838E+03  0.25500000000E-02 0. -1.
         -1   -1    0    0    0  501 -0.00000000000E+00 -0.00000000000E+00 -0.16107937034E+01  0.16108015882E+01  0.50400000000E-02 0.  1.
         24    2    1    2    0    0 -0.35527136788E-14  0.35527136788E-14  0.94822558468E+03  0.95144717997E+03  0.78230280842E+02 0.  0.
         66    2    3    3    0    0  0.24292584323E+02 -0.16077530514E+02  0.79142513379E+03  0.79196360965E+03  0.19999934008E+01 0.  0.
        -13    1    3    3    0    0 -0.24292584323E+02  0.16077530514E+02  0.15680045089E+03  0.15948357032E+03  0.10566000000E+00 0.  1.
         13    1    4    4    0    0  0.12799191174E+02 -0.88616940422E+01  0.43017325955E+03  0.43045486791E+03  0.10566000000E+00 0. -1.
        -13    1    4    4    0    0  0.93699854960E+00 -0.99485780839E+00  0.34675107889E+02  0.34702189838E+02  0.10566000000E+00 0.  1.
        -14    1    4    4    0    0  0.10556394599E+02 -0.62209786629E+01  0.32657676635E+03  0.32680655190E+03  0.00000000000E+00 0.  1.
<mgrwt>
<rscale>  0 0.78230281E+02</rscale>
<asrwt>0</asrwt>
<pdfrwt beam="1">  1        2 0.14612835E+00 0.78230281E+02</pdfrwt>
<pdfrwt beam="2">  1       -1 0.24781557E-03 0.78230281E+02</pdfrwt>
<totfact> 0.37221247E+05</totfact>
</mgrwt>
</event>
<event>
 8    1  0.1226832E-020  0.8052381E+02  0.7818608E-02  0.1327571E+00
         -1   -1    0    0    0  501 -0.00000000000E+00  0.00000000000E+00  0.41640086285E+01  0.41640116787E+01  0.50400000000E-02 0.  1.
          2   -1    0    0  501    0  0.00000000000E+00 -0.00000000000E+00 -0.38929323706E+03  0.38929323706E+03  0.25500000000E-02 0. -1.
         24    2    1    2    0    0  0.17763568394E-14 -0.35527136788E-14 -0.38512922843E+03  0.39345724874E+03  0.80523810139E+02 0.  0.
         66    2    3    3    0    0 -0.13489171375E+02  0.21600401259E+02 -0.34490133112E+03  0.34584601094E+03  0.19999997095E+01 0.  0.
        -13    1    3    3    0    0  0.13489171375E+02 -0.21600401259E+02 -0.40227897308E+02  0.47611237800E+02  0.10566000000E+00 0.  1.
         13    1    4    4    0    0 -0.45031482313E+01  0.66861253773E+01 -0.10781573410E+03  0.10811672535E+03  0.10566000000E+00 0. -1.
        -13    1    4    4    0    0 -0.40030345477E+01  0.61501712556E+01 -0.10987039291E+03  0.11011522735E+03  0.10566000000E+00 0.  1.
         14    1    4    4    0    0 -0.49829885956E+01  0.87641046260E+01 -0.12721520411E+03  0.12761405824E+03  0.00000000000E+00 0. -1.
<mgrwt>
<rscale>  0 0.80523810E+02</rscale>
<asrwt>0</asrwt>
<pdfrwt beam="1">  1        2 0.59891239E-01 0.80523810E+02</pdfrwt>
<pdfrwt beam="2">  1       -1 0.64061726E-03 0.80523810E+02</pdfrwt>
<totfact> 0.27512628E+05</totfact>
</mgrwt>
</event>
<event>
 8    1  0.1226832E-020  0.8120938E+02  0.7818608E-02  0.1325654E+00
         -1   -1    0    0    0  501 -0.00000000000E+00  0.00000000000E+00  0.42455891494E+01  0.42455921409E+01  0.50400000000E-02 0.  1.
          2   -1    0    0  501    0  0.00000000000E+00 -0.00000000000E+00 -0.38834193183E+03  0.38834193184E+03  0.25500000000E-02 0. -1.
         24    2    1    2    0    0  0.35527136788E-14  0.17763568394E-14 -0.38409634268E+03  0.39258752398E+03  0.81209380761E+02 0.  0.
         66    2    3    3    0    0 -0.26278995148E+02  0.15687307460E+02 -0.32098258596E+03  0.32244456530E+03  0.19999994944E+01 0.  0.
        -13    1    3    3    0    0  0.26278995148E+02 -0.15687307460E+02 -0.63113756716E+02  0.70142958679E+02  0.10566000000E+00 0.  1.
         13    1    4    4    0    0 -0.17187808297E+02  0.11220591955E+02 -0.21249488435E+03  0.21348397944E+03  0.10566000000E+00 0. -1.
        -13    1    4    4    0    0 -0.13917946167E+01  0.74543046007E+00 -0.18404884601E+02  0.18472782682E+02  0.10566000000E+00 0. -1.
         14    1    4    4    0    0 -0.76993922352E+01  0.37212850455E+01 -0.90082817010E+02  0.90487803176E+02  0.00000000000E+00 0. -1.
<mgrwt>
<rscale>  0 0.81209381E+02</rscale>
<asrwt>0</asrwt>
<pdfrwt beam="1">  1        2 0.59744884E-01 0.81209381E+02</pdfrwt>
<pdfrwt beam="2">  1       -1 0.65316810E-03 0.81209381E+02</pdfrwt>
<totfact> 0.26886019E+05</totfact>
</mgrwt>
</event>
<event>
 8    1  0.1226832E-020  0.8017210E+02  0.7818608E-02  0.1328564E+00
          2   -1    0    0  501    0  0.00000000000E+00  0.00000000000E+00  0.43024429808E+02  0.43024429884E+02  0.25500000000E-02 0. -1.
         -1   -1    0    0    0  501 -0.00000000000E+00 -0.00000000000E+00 -0.37348349535E+02  0.37348349875E+02  0.50400000000E-02 0.  1.
         24    2    1    2    0    0  0.00000000000E+00  0.00000000000E+00  0.56760802737E+01  0.80372779759E+02  0.80172101375E+02 0.  0.
         66    2    3    3    0    0  0.36238883414E+02  0.13773169106E+02  0.12961093622E+02  0.40926113970E+02  0.19999996176E+01 0.  0.
        -13    1    3    3    0    0 -0.36238883414E+02 -0.13773169106E+02 -0.72850133479E+01  0.39446665789E+02  0.10566000000E+00 0.  1.
         13    1    4    4    0    0  0.46995526538E+01  0.22940112348E+01  0.20791050039E+01  0.56286876218E+01  0.10566000000E+00 0. -1.
        -13    1    4    4    0    0  0.44832326716E+01  0.18403510971E+01  0.12867505494E+01  0.50152924501E+01  0.10566000000E+00 0.  1.
         14    1    4    4    0    0  0.27056098089E+02  0.96388067738E+01  0.95952380684E+01  0.30282133898E+02  0.00000000000E+00 0. -1.
<mgrwt>
<rscale>  0 0.80172101E+02</rscale>
<asrwt>0</asrwt>
<pdfrwt beam="1">  1        2 0.66191431E-02 0.80172101E+02</pdfrwt>
<pdfrwt beam="2">  1       -1 0.57459000E-02 0.80172101E+02</pdfrwt>
<totfact> 0.14386635E+05</totfact>
</mgrwt>
</event>
<event>
 8    1  0.1226832E-020  0.7992996E+02  0.7818608E-02  0.1329250E+00
          2   -1    0    0  501    0  0.00000000000E+00  0.00000000000E+00  0.13250820966E+03  0.13250820969E+03  0.25500000000E-02 0. -1.
         -1   -1    0    0    0  501 -0.00000000000E+00 -0.00000000000E+00 -0.12053588171E+02  0.12053589225E+02  0.50400000000E-02 0.  1.
         24    2    1    2    0    0  0.00000000000E+00  0.00000000000E+00  0.12045462149E+03  0.14456179891E+03  0.79929956000E+02 0.  0.
         66    2    3    3    0    0  0.16050661429E+02  0.27094505476E+02  0.10469403158E+03  0.10934613028E+03  0.19999994254E+01 0.  0.
        -13    1    3    3    0    0 -0.16050661429E+02 -0.27094505476E+02  0.15760589908E+02  0.35215668637E+02  0.10566000000E+00 0.  1.
         13    1    4    4    0    0  0.26345437550E+01  0.49080461708E+01  0.16507821774E+02  0.17422660009E+02  0.10566000000E+00 0.  1.
        -13    1    4    4    0    0  0.36637732598E+01  0.55386479121E+01  0.21546809770E+02  0.22547195624E+02  0.10566000000E+00 0. -1.
         14    1    4    4    0    0  0.97523444140E+01  0.16647811393E+02  0.66639400039E+02  0.69376274643E+02  0.00000000000E+00 0. -1.
<mgrwt>
<rscale>  0 0.79929956E+02</rscale>
<asrwt>0</asrwt>
<pdfrwt beam="1">  1        2 0.20385879E-01 0.79929956E+02</pdfrwt>
<pdfrwt beam="2">  1       -1 0.18543982E-02 0.79929956E+02</pdfrwt>
<totfact> 0.19304881E+05</totfact>
</mgrwt>
</event>
<event>
 8    1  0.1226832E-020  0.8451364E+02  0.7818608E-02  0.1316709E+00
          2   -1    0    0  501    0  0.00000000000E+00  0.00000000000E+00  0.32430733191E+03  0.32430733192E+03  0.25500000000E-02 0. -1.
         -1   -1    0    0    0  501 -0.00000000000E+00 -0.00000000000E+00 -0.55060068958E+01  0.55060092025E+01  0.50400000000E-02 0.  1.
         24    2    1    2    0    0  0.00000000000E+00  0.00000000000E+00  0.31880132501E+03  0.32981334112E+03  0.84513638850E+02 0.  0.
         66    2    3    3    0    0 -0.15925371419E+02 -0.24385497634E+02  0.27884223087E+03  0.28036629552E+03  0.19999997047E+01 0.  0.
        -13    1    3    3    0    0  0.15925371419E+02  0.24385497634E+02  0.39959094145E+02  0.49447045601E+02  0.10566000000E+00 0.  1.
         13    1    4    4    0    0 -0.39638651955E+01 -0.54188573087E+01  0.62742852823E+02  0.63101133002E+02  0.10566000000E+00 0. -1.
        -13    1    4    4    0    0 -0.52285554715E+01 -0.97173685120E+01  0.10493796763E+03  0.10551660181E+03  0.10566000000E+00 0.  1.
        -14    1    4    4    0    0 -0.67329507522E+01 -0.92492718137E+01  0.11116141042E+03  0.11174856071E+03  0.00000000000E+00 0.  1.
<mgrwt>
<rscale>  0 0.84513639E+02</rscale>
<asrwt>0</asrwt>
<pdfrwt beam="1">  1        2 0.49893428E-01 0.84513639E+02</pdfrwt>
<pdfrwt beam="2">  1       -1 0.84707829E-03 0.84513639E+02</pdfrwt>
<totfact> 0.22702423E+05</totfact>
</mgrwt>
</event>
<event>
 8    1  0.1226832E-020  0.7607517E+02  0.7818608E-02  0.1340574E+00
         -1   -1    0    0    0  501 -0.00000000000E+00  0.00000000000E+00  0.42115953396E+01  0.42115983552E+01  0.50400000000E-02 0.  1.
          2   -1    0    0  501    0  0.00000000000E+00 -0.00000000000E+00 -0.34354142496E+03  0.34354142497E+03  0.25500000000E-02 0. -1.
         24    2    1    2    0    0  0.17763568394E-14 -0.35527136788E-14 -0.33932982962E+03  0.34775302332E+03  0.76075173093E+02 0.  0.
         66    2    3    3    0    0 -0.89065803159E+01  0.26869837506E+02 -0.28574366063E+03  0.28714935997E+03  0.20000004791E+01 0.  0.
        -13    1    3    3    0    0  0.89065803159E+01 -0.26869837506E+02 -0.53586168984E+02  0.60603663346E+02  0.10566000000E+00 0.  1.
         13    1    4    4    0    0 -0.40385506745E+01  0.11276369747E+02 -0.12051050458E+03  0.12110433223E+03  0.10566000000E+00 0. -1.
        -13    1    4    4    0    0 -0.42427562549E+01  0.14351564456E+02 -0.15421359137E+03  0.15493808863E+03  0.10566000000E+00 0.  1.
         14    1    4    4    0    0 -0.62527338648E+00  0.12419033024E+01 -0.11019564685E+02  0.11106939113E+02  0.00000000000E+00 0. -1.
<mgrwt>
<rscale>  0 0.76075173E+02</rscale>
<asrwt>0</asrwt>
<pdfrwt beam="1">  1        2 0.52852505E-01 0.76075173E+02</pdfrwt>
<pdfrwt beam="2">  1       -1 0.64793825E-03 0.76075173E+02</pdfrwt>
<totfact> 0.30527628E+05</totfact>
</mgrwt>
</event>
<event>
 8    1  0.1226832E-020  0.7679801E+02  0.7818608E-02  0.1338392E+00
          2   -1    0    0  501    0  0.00000000000E+00  0.00000000000E+00  0.25894719612E+02  0.25894719738E+02  0.25500000000E-02 0. -1.
         -1   -1    0    0    0  501 -0.00000000000E+00 -0.00000000000E+00 -0.56941479165E+02  0.56941479388E+02  0.50400000000E-02 0.  1.
         24    2    1    2    0    0  0.00000000000E+00  0.11102230246E-15 -0.31046759553E+02  0.82836199126E+02  0.76798011738E+02 0.  0.
         66    2    3    3    0    0 -0.37892005407E+02 -0.71028464632E+00 -0.90468553500E+01  0.39014794231E+02  0.19999997832E+01 0.  0.
        -13    1    3    3    0    0  0.37892005407E+02  0.71028464632E+00 -0.21999904203E+02  0.43821404895E+02  0.10566000000E+00 0.  1.
         13    1    4    4    0    0 -0.18135367658E+02 -0.56882471356E+00 -0.39110264936E+01  0.18561314984E+02  0.10566000000E+00 0. -1.
        -13    1    4    4    0    0 -0.26311646305E+01  0.37308118339E+00 -0.52817384661E+00  0.27115214419E+01  0.10566000000E+00 0.  1.
         14    1    4    4    0    0 -0.17125473118E+02 -0.51454111614E+00 -0.46076550098E+01  0.17741957805E+02  0.00000000000E+00 0. -1.
<mgrwt>
<rscale>  0 0.76798012E+02</rscale>
<asrwt>0</asrwt>
<pdfrwt beam="1">  1        2 0.39838031E-02 0.76798012E+02</pdfrwt>
<pdfrwt beam="2">  1       -1 0.87602276E-02 0.76798012E+02</pdfrwt>
<totfact> 0.14663769E+05</totfact>
</mgrwt>
</event>
<event>
 8    1  0.1226832E-020  0.8065775E+02  0.7818608E-02  0.1327195E+00
         -1   -1    0    0    0  501 -0.00000000000E+00  0.00000000000E+00  0.46772310561E+02  0.46772310833E+02  0.50400000000E-02 0.  1.
          2   -1    0    0  501    0  0.00000000000E+00 -0.00000000000E+00 -0.34773101654E+02  0.34773101748E+02  0.25500000000E-02 0. -1.
         24    2    1    2    0    0  0.35527136788E-14  0.00000000000E+00  0.11999208907E+02  0.81545412580E+02  0.80657754113E+02 0.  0.
         66    2    3    3    0    0  0.24475052019E+02  0.31808420652E+02  0.97329967174E+01  0.41346523572E+02  0.19999976645E+01 0.  0.
        -13    1    3    3    0    0 -0.24475052019E+02 -0.31808420652E+02  0.22662121898E+01  0.40198889008E+02  0.10566000000E+00 0.  1.
         13    1    4    4    0    0  0.21109349482E+02  0.26550910549E+02  0.83709126712E+01  0.34937642014E+02  0.10566000000E+00 0. -1.
        -13    1    4    4    0    0  0.27397876468E+01  0.45828461912E+01  0.12153092844E+01  0.54769568425E+01  0.10566000000E+00 0.  1.
         14    1    4    4    0    0  0.62591489066E+00  0.67466391250E+00  0.14677476180E+00  0.93192471578E+00  0.00000000000E+00 0. -1.
<mgrwt>
<rscale>  0 0.80657754E+02</rscale>
<asrwt>0</asrwt>
<pdfrwt beam="1">  1        2 0.53497080E-02 0.80657754E+02</pdfrwt>
<pdfrwt beam="2">  1       -1 0.71957401E-02 0.80657754E+02</pdfrwt>
<totfact> 0.13543602E+05</totfact>
</mgrwt>
</event>
<event>
 8    1  0.1226832E-020  0.8033997E+02  0.7818608E-02  0.1328089E+00
          2   -1    0    0  501    0  0.00000000000E+00  0.00000000000E+00  0.53456438287E+02  0.53456438348E+02  0.25500000000E-02 0. -1.
         -1   -1    0    0    0  501 -0.00000000000E+00 -0.00000000000E+00 -0.30185844143E+02  0.30185844564E+02  0.50400000000E-02 0.  1.
         24    2    1    2    0    0  0.00000000000E+00 -0.13877787808E-15  0.23270594143E+02  0.83642282912E+02  0.80339970991E+02 0.  0.
         66    2    3    3    0    0  0.39682410430E+02 -0.21756553274E+00  0.17965148706E+02  0.43606049976E+02  0.19999985434E+01 0.  0.
        -13    1    3    3    0    0 -0.39682410430E+02  0.21756553274E+00  0.53054454375E+01  0.40036232935E+02  0.10566000000E+00 0.  1.
         13    1    4    4    0    0  0.11529870178E+02 -0.53202024106E+00  0.47992312219E+01  0.12500589435E+02  0.10566000000E+00 0. -1.
        -13    1    4    4    0    0  0.18171223506E+02 -0.38640553384E+00  0.84396006103E+01  0.20039478422E+02  0.10566000000E+00 0.  1.
        -14    1    4    4    0    0  0.99813167467E+01  0.70086024216E+00  0.47263168737E+01  0.11065982119E+02  0.00000000000E+00 0.  1.
<mgrwt>
<rscale>  0 0.80339971E+02</rscale>
<asrwt>0</asrwt>
<pdfrwt beam="1">  1        2 0.82240674E-02 0.80339971E+02</pdfrwt>
<pdfrwt beam="2">  1       -1 0.46439761E-02 0.80339971E+02</pdfrwt>
<totfact> 0.14989542E+05</totfact>
</mgrwt>
</event>
<event>
 8    1  0.1226832E-020  0.8129939E+02  0.7818608E-02  0.1325404E+00
          2   -1    0    0  501    0  0.00000000000E+00  0.00000000000E+00  0.18102393133E+03  0.18102393135E+03  0.25500000000E-02 0. -1.
         -1   -1    0    0    0  501 -0.00000000000E+00 -0.00000000000E+00 -0.91280610828E+01  0.91280624742E+01  0.50400000000E-02 0.  1.
         24    2    1    2    0    0  0.22204460493E-15  0.00000000000E+00  0.17189587025E+03  0.19015199382E+03  0.81299388353E+02 0.  0.
         66    2    3    3    0    0 -0.15568523997E+01 -0.39721248894E+02  0.10559524759E+03  0.11284749762E+03  0.20000010579E+01 0.  0.
        -13    1    3    3    0    0  0.15568523997E+01  0.39721248894E+02  0.66300622663E+02  0.77304496200E+02  0.10566000000E+00 0.  1.
         13    1    4    4    0    0 -0.13825274886E-01 -0.37430924810E+01  0.11018497071E+02  0.11637412693E+02  0.10566000000E+00 0. -1.
        -13    1    4    4    0    0  0.23272939252E+00 -0.47631352888E+01  0.12908777640E+02  0.13761879412E+02  0.10566000000E+00 0.  1.
        -14    1    4    4    0    0 -0.17757565174E+01 -0.31215021125E+02  0.81667972875E+02  0.87448205520E+02  0.00000000000E+00 0.  1.
<mgrwt>
<rscale>  0 0.81299388E+02</rscale>
<asrwt>0</asrwt>
<pdfrwt beam="1">  1        2 0.27849834E-01 0.81299388E+02</pdfrwt>
<pdfrwt beam="2">  1       -1 0.14043173E-02 0.81299388E+02</pdfrwt>
<totfact> 0.20425922E+05</totfact>
</mgrwt>
</event>
<event>
 8    1  0.1226832E-020  0.8960753E+02  0.7818608E-02  0.1303805E+00
         -1   -1    0    0    0  501 -0.00000000000E+00  0.00000000000E+00  0.84338467498E+01  0.84338482558E+01  0.50400000000E-02 0.  1.
          2   -1    0    0  501    0  0.00000000000E+00 -0.00000000000E+00 -0.23801440843E+03  0.23801440844E+03  0.25500000000E-02 0. -1.
         24    2    1    2    0    0  0.00000000000E+00  0.00000000000E+00 -0.22958056168E+03  0.24644825670E+03  0.89607527188E+02 0.  0.
         66    2    3    3    0    0  0.41670499006E+02 -0.14002220916E+02 -0.13832653460E+03  0.14515757944E+03  0.20000038562E+01 0.  0.
        -13    1    3    3    0    0 -0.41670499006E+02  0.14002220916E+02 -0.91254027078E+02  0.10129067726E+03  0.10566000000E+00 0.  1.
         13    1    4    4    0    0  0.11323305388E+02 -0.40068332872E+01 -0.37029545878E+02  0.38929043012E+02  0.10566000000E+00 0. -1.
        -13    1    4    4    0    0  0.28946880168E+02 -0.92734144088E+01 -0.95449928024E+02  0.10017294051E+03  0.10566000000E+00 0.  1.
        -14    1    4    4    0    0  0.14003134505E+01 -0.72197321956E+00 -0.58470606973E+01  0.60555959151E+01  0.00000000000E+00 0.  1.
<mgrwt>
<rscale>  0 0.89607527E+02</rscale>
<asrwt>0</asrwt>
<pdfrwt beam="1">  1        2 0.36617596E-01 0.89607527E+02</pdfrwt>
<pdfrwt beam="2">  1       -1 0.12975152E-02 0.89607527E+02</pdfrwt>
<totfact> 0.17372454E+05</totfact>
</mgrwt>
</event>
<event>
 8    1  0.1226832E-020  0.8129631E+02  0.7818608E-02  0.1325412E+00
         -1   -1    0    0    0  501 -0.00000000000E+00  0.00000000000E+00  0.35891138057E+01  0.35891173444E+01  0.50400000000E-02 0.  1.
          2   -1    0    0  501    0  0.00000000000E+00 -0.00000000000E+00 -0.46035642659E+03  0.46035642659E+03  0.25500000000E-02 0. -1.
         24    2    1    2    0    0 -0.71054273576E-14  0.00000000000E+00 -0.45676731278E+03  0.46394554394E+03  0.81296308126E+02 0.  0.
         66    2    3    3    0    0 -0.34774865995E+02  0.20165748171E+02 -0.26195345993E+03  0.26502747756E+03  0.19999972848E+01 0.  0.
        -13    1    3    3    0    0  0.34774865995E+02 -0.20165748171E+02 -0.19481385285E+03  0.19891806637E+03  0.10566000000E+00 0.  1.
         13    1    4    4    0    0 -0.21617874719E+02  0.12089127197E+02 -0.16535189830E+03  0.16719671330E+03  0.10566000000E+00 0. -1.
        -13    1    4    4    0    0 -0.82177304859E+01  0.45908965156E+01 -0.58481805521E+02  0.59234619659E+02  0.10566000000E+00 0.  1.
        -14    1    4    4    0    0 -0.49392607904E+01  0.34857244578E+01 -0.38119756114E+02  0.38596144605E+02  0.00000000000E+00 0.  1.
<mgrwt>
<rscale>  0 0.81296308E+02</rscale>
<asrwt>0</asrwt>
<pdfrwt beam="1">  1        2 0.70824019E-01 0.81296308E+02</pdfrwt>
<pdfrwt beam="2">  1       -1 0.55217199E-03 0.81296308E+02</pdfrwt>
<totfact> 0.28424864E+05</totfact>
</mgrwt>
</event>
<event>
 8    1  0.1226832E-020  0.7826354E+02  0.7818608E-02  0.1334053E+00
          2   -1    0    0  501    0  0.00000000000E+00  0.00000000000E+00  0.83602072524E+03  0.83602072524E+03  0.25500000000E-02 0. -1.
         -1   -1    0    0    0  501 -0.00000000000E+00 -0.00000000000E+00 -0.18316442181E+01  0.18316511522E+01  0.50400000000E-02 0.  1.
         24    2    1    2    0    0  0.00000000000E+00  0.00000000000E+00  0.83418908102E+03  0.83785237640E+03  0.78263540276E+02 0.  0.
         66    2    3    3    0    0 -0.18783277843E+02  0.21695761640E+02  0.70177330773E+03  0.70236265066E+03  0.19999998183E+01 0.  0.
        -13    1    3    3    0    0  0.18783277843E+02 -0.21695761640E+02  0.13241577329E+03  0.13548972573E+03  0.10566000000E+00 0.  1.
         13    1    4    4    0    0 -0.74880536613E+01  0.89325988896E+01  0.30057575346E+03  0.30080169049E+03  0.10566000000E+00 0. -1.
        -13    1    4    4    0    0 -0.11119865746E+02  0.12461693380E+02  0.38894117528E+03  0.38929962010E+03  0.10566000000E+00 0.  1.
         14    1    4    4    0    0 -0.17535843573E+00  0.30146937125E+00  0.12256378994E+02  0.12261340074E+02  0.00000000000E+00 0. -1.
<mgrwt>
<rscale>  0 0.78263540E+02</rscale>
<asrwt>0</asrwt>
<pdfrwt beam="1">  1        2 0.12861851E+00 0.78263540E+02</pdfrwt>
<pdfrwt beam="2">  1       -1 0.28179209E-03 0.78263540E+02</pdfrwt>
<totfact> 0.36638864E+05</totfact>
</mgrwt>
</event>
<event>
 8    1  0.1226832E-020  0.7941942E+02  0.7818608E-02  0.1330707E+00
          2   -1    0    0  501    0  0.00000000000E+00  0.00000000000E+00  0.18518242372E+03  0.18518242373E+03  0.25500000000E-02 0. -1.
         -1   -1    0    0    0  501 -0.00000000000E+00 -0.00000000000E+00 -0.85151749491E+01  0.85151764406E+01  0.50400000000E-02 0.  1.
         24    2    1    2    0    0  0.00000000000E+00  0.71054273576E-14  0.17666724877E+03  0.19369760017E+03  0.79419415299E+02 0.  0.
         66    2    3    3    0    0  0.12337307800E+02  0.32717313860E+02  0.13416224837E+03  0.13865835951E+03  0.19999961884E+01 0.  0.
        -13    1    3    3    0    0 -0.12337307800E+02 -0.32717313860E+02  0.42505000396E+02  0.55039240662E+02  0.10566000000E+00 0.  1.
         13    1    4    4    0    0  0.75513985629E+01  0.18786184248E+02  0.74343972007E+02  0.77051811638E+02  0.10566000000E+00 0. -1.
        -13    1    4    4    0    0  0.70420027125E+00  0.21108427368E+01  0.86230354219E+01  0.89061472593E+01  0.10566000000E+00 0.  1.
         14    1    4    4    0    0  0.40817089654E+01  0.11820286875E+02  0.51195240942E+02  0.52700400615E+02  0.00000000000E+00 0. -1.
<mgrwt>
<rscale>  0 0.79419415E+02</rscale>
<asrwt>0</asrwt>
<pdfrwt beam="1">  1        2 0.28489603E-01 0.79419415E+02</pdfrwt>
<pdfrwt beam="2">  1       -1 0.13100271E-02 0.79419415E+02</pdfrwt>
<totfact> 0.21898413E+05</totfact>
</mgrwt>
</event>
<event>
 8    1  0.1226832E-020  0.8005342E+02  0.7818608E-02  0.1328900E+00
          2   -1    0    0  501    0  0.00000000000E+00  0.00000000000E+00  0.15066125556E+03  0.15066125558E+03  0.25500000000E-02 0. -1.
         -1   -1    0    0    0  501 -0.00000000000E+00 -0.00000000000E+00 -0.10634038475E+02  0.10634039670E+02  0.50400000000E-02 0.  1.
         24    2    1    2    0    0  0.00000000000E+00  0.35527136788E-14  0.14002721708E+03  0.16129529525E+03  0.80053424323E+02 0.  0.
         66    2    3    3    0    0 -0.21883846970E+02  0.31001877736E+02  0.95552233869E+02  0.10283116542E+03  0.20000005471E+01 0.  0.
        -13    1    3    3    0    0  0.21883846970E+02 -0.31001877736E+02  0.44474983216E+02  0.58464129835E+02  0.10566000000E+00 0.  1.
         13    1    4    4    0    0 -0.24475573474E+01  0.40035974991E+01  0.11220707500E+02  0.12162843859E+02  0.10566000000E+00 0. -1.
        -13    1    4    4    0    0 -0.78135333497E+01  0.11949306807E+02  0.37179349083E+02  0.39826528833E+02  0.10566000000E+00 0.  1.
         14    1    4    4    0    0 -0.11622756272E+02  0.15048973430E+02  0.47152177286E+02  0.50841792725E+02  0.00000000000E+00 0. -1.
<mgrwt>
<rscale>  0 0.80053424E+02</rscale>
<asrwt>0</asrwt>
<pdfrwt beam="1">  1        2 0.23178653E-01 0.80053424E+02</pdfrwt>
<pdfrwt beam="2">  1       -1 0.16360062E-02 0.80053424E+02</pdfrwt>
<totfact> 0.20022940E+05</totfact>
</mgrwt>
</event>
<event>
 8    1  0.1226832E-020  0.8023569E+02  0.7818608E-02  0.1328384E+00
         -1   -1    0    0    0  501 -0.00000000000E+00  0.00000000000E+00  0.27447933994E+01  0.27447980266E+01  0.50400000000E-02 0.  1.
          2   -1    0    0  501    0  0.00000000000E+00 -0.00000000000E+00 -0.58636116040E+03  0.58636116041E+03  0.25500000000E-02 0. -1.
         24    2    1    2    0    0  0.00000000000E+00  0.00000000000E+00 -0.58361636700E+03  0.58910595844E+03  0.80235692988E+02 0.  0.
         66    2    3    3    0    0  0.22509769749E+02 -0.15858467339E+02 -0.50595515101E+03  0.50670780097E+03  0.20000017257E+01 0.  0.
        -13    1    3    3    0    0 -0.22509769749E+02  0.15858467339E+02 -0.77661215995E+02  0.82398157469E+02  0.10566000000E+00 0.  1.
         13    1    4    4    0    0  0.16144211780E+02 -0.10312012722E+02 -0.35392664664E+03  0.35444471438E+03  0.10566000000E+00 0. -1.
        -13    1    4    4    0    0  0.40669970073E+01 -0.33719736804E+01 -0.95892336920E+02  0.96037816068E+02  0.10566000000E+00 0.  1.
         14    1    4    4    0    0  0.22985609615E+01 -0.21744809371E+01 -0.56136167446E+02  0.56225270523E+02  0.00000000000E+00 0. -1.
<mgrwt>
<rscale>  0 0.80235693E+02</rscale>
<asrwt>0</asrwt>
<pdfrwt beam="1">  1        2 0.90209310E-01 0.80235693E+02</pdfrwt>
<pdfrwt beam="2">  1       -1 0.42227673E-03 0.80235693E+02</pdfrwt>
<totfact> 0.31712283E+05</totfact>
</mgrwt>
</event>
<event>
 8    1  0.1226832E-020  0.7991678E+02  0.7818608E-02  0.1329288E+00
          2   -1    0    0  501    0  0.00000000000E+00  0.00000000000E+00  0.16631641607E+02  0.16631641803E+02  0.25500000000E-02 0. -1.
         -1   -1    0    0    0  501 -0.00000000000E+00 -0.00000000000E+00 -0.96002121257E+02  0.96002121390E+02  0.50400000000E-02 0.  1.
         24    2    1    2    0    0 -0.35527136788E-14  0.00000000000E+00 -0.79370479650E+02  0.11263376319E+03  0.79916779033E+02 0.  0.
         66    2    3    3    0    0 -0.29078577300E+02 -0.76726813204E+01 -0.26821434235E+01  0.30259338923E+02  0.20000005776E+01 0.  0.
        -13    1    3    3    0    0  0.29078577300E+02  0.76726813204E+01 -0.76688336227E+02  0.82374424269E+02  0.10566000000E+00 0.  1.
         13    1    4    4    0    0 -0.18589707435E+02 -0.50071072823E+01 -0.80386651724E+00  0.19269294520E+02  0.10566000000E+00 0. -1.
        -13    1    4    4    0    0 -0.41964108247E+01 -0.10828350038E+01 -0.91172701480E+00  0.44299893499E+01  0.10566000000E+00 0.  1.
         14    1    4    4    0    0 -0.62924590394E+01 -0.15827390343E+01 -0.96654989146E+00  0.65600550536E+01  0.00000000000E+00 0. -1.
<mgrwt>
<rscale>  0 0.79916779E+02</rscale>
<asrwt>0</asrwt>
<pdfrwt beam="1">  1        2 0.25587142E-02 0.79916779E+02</pdfrwt>
<pdfrwt beam="2">  1       -1 0.14769557E-01 0.79916779E+02</pdfrwt>
<totfact> 0.11987440E+05</totfact>
</mgrwt>
</event>
<event>
 8    1  0.1226832E-020  0.7742456E+02  0.7818608E-02  0.1336523E+00
         -1   -1    0    0    0  501 -0.00000000000E+00  0.00000000000E+00  0.32455622024E+01  0.32455661157E+01  0.50400000000E-02 0.  1.
          2   -1    0    0  501    0  0.00000000000E+00 -0.00000000000E+00 -0.46175039990E+03  0.46175039991E+03  0.25500000000E-02 0. -1.
         24    2    1    2    0    0  0.00000000000E+00  0.11102230246E-15 -0.45850483770E+03  0.46499596602E+03  0.77424558283E+02 0.  0.
         66    2    3    3    0    0 -0.27489685437E+02  0.58686025214E+00 -0.39284738197E+03  0.39381352530E+03  0.19999948738E+01 0.  0.
        -13    1    3    3    0    0  0.27489685437E+02 -0.58686025214E+00 -0.65657455730E+02  0.71182440723E+02  0.10566000000E+00 0.  1.
         13    1    4    4    0    0 -0.10874212336E+02 -0.27637002836E-01 -0.15818396260E+03  0.15855732858E+03  0.10566000000E+00 0. -1.
        -13    1    4    4    0    0 -0.11007641632E+01 -0.30685788653E+00 -0.15730537072E+02  0.15772343013E+02  0.10566000000E+00 0.  1.
        -14    1    4    4    0    0 -0.15514708937E+02  0.92135514151E+00 -0.21893288230E+03  0.21948385371E+03  0.00000000000E+00 0.  1.
<mgrwt>
<rscale>  0 0.77424558E+02</rscale>
<asrwt>0</asrwt>
<pdfrwt beam="1">  1        2 0.71038471E-01 0.77424558E+02</pdfrwt>
<pdfrwt beam="2">  1       -1 0.49931793E-03 0.77424558E+02</pdfrwt>
<totfact> 0.32311965E+05</totfact>
</mgrwt>
</event>
<event>
 8    1  0.1226832E-020  0.8206598E+02  0.7818608E-02  0.1323289E+00
         -1   -1    0    0    0  501 -0.00000000000E+00  0.00000000000E+00  0.73695041268E+02  0.73695041440E+02  0.50400000000E-02 0.  1.
          2   -1    0    0  501    0  0.00000000000E+00 -0.00000000000E+00 -0.22846942407E+02  0.22846942550E+02  0.25500000000E-02 0. -1.
         24    2    1    2    0    0  0.00000000000E+00  0.00000000000E+00  0.50848098860E+02  0.96541983990E+02  0.82065982691E+02 0.  0.
         66    2    3    3    0    0  0.12767813607E+01 -0.12271032580E+02 -0.20568196509E+02  0.24067803625E+02  0.20000131164E+01 0.  0.
        -13    1    3    3    0    0 -0.12767813607E+01  0.12271032580E+02  0.71416295369E+02  0.72474180365E+02  0.10566000000E+00 0.  1.
         13    1    4    4    0    0  0.46117695589E+00 -0.12730153510E+01 -0.16591031106E+01  0.21440707628E+01  0.10566000000E+00 0. -1.
        -13    1    4    4    0    0  0.10410939603E+01 -0.84756312117E+01 -0.13977650219E+02  0.16380051000E+02  0.10566000000E+00 0.  1.
        -14    1    4    4    0    0 -0.22548955552E+00 -0.25223860177E+01 -0.49314431789E+01  0.55436818621E+01  0.00000000000E+00 0.  1.
<mgrwt>
<rscale>  0 0.82065983E+02</rscale>
<asrwt>0</asrwt>
<pdfrwt beam="1">  1        2 0.35149142E-02 0.82065983E+02</pdfrwt>
<pdfrwt beam="2">  1       -1 0.11337699E-01 0.82065983E+02</pdfrwt>
<totfact> 0.11856103E+05</totfact>
</mgrwt>
</event>
<event>
 8    1  0.1226832E-020  0.8031977E+02  0.7818608E-02  0.1328146E+00
         -1   -1    0    0    0  501 -0.00000000000E+00  0.00000000000E+00  0.46430897099E+01  0.46430924453E+01  0.50400000000E-02 0.  1.
          2   -1    0    0  501    0  0.00000000000E+00 -0.00000000000E+00 -0.34735831378E+03  0.34735831379E+03  0.25500000000E-02 0. -1.
         24    2    1    2    0    0 -0.35527136788E-14  0.35527136788E-14 -0.34271522407E+03  0.35200140623E+03  0.80319768312E+02 0.  0.
         66    2    3    3    0    0 -0.24217030940E+02 -0.28842451926E+02 -0.23226192210E+03  0.23530395682E+03  0.20000037199E+01 0.  0.
        -13    1    3    3    0    0  0.24217030940E+02  0.28842451926E+02 -0.11045330196E+03  0.11669744941E+03  0.10566000000E+00 0.  1.
         13    1    4    4    0    0 -0.21030155372E+01 -0.27102424355E+01 -0.21645345531E+02  0.21915753138E+02  0.10566000000E+00 0.  1.
        -13    1    4    4    0    0 -0.22707322854E+01 -0.33149742939E+01 -0.27318318578E+02  0.27612442370E+02  0.10566000000E+00 0.  1.
         14    1    4    4    0    0 -0.19843283118E+02 -0.22817235197E+02 -0.18329825800E+03  0.18577576131E+03  0.00000000000E+00 0. -1.
<mgrwt>
<rscale>  0 0.80319768E+02</rscale>
<asrwt>0</asrwt>
<pdfrwt beam="1">  1        2 0.53439720E-01 0.80319768E+02</pdfrwt>
<pdfrwt beam="2">  1       -1 0.71432198E-03 0.80319768E+02</pdfrwt>
<totfact> 0.26597589E+05</totfact>
</mgrwt>
</event>
<event>
 8    1  0.1226832E-020  0.8013623E+02  0.7818608E-02  0.1328665E+00
          2   -1    0    0  501    0  0.00000000000E+00  0.00000000000E+00  0.24886075950E+02  0.24886076080E+02  0.25500000000E-02 0. -1.
         -1   -1    0    0    0  501 -0.00000000000E+00 -0.00000000000E+00 -0.64512139386E+02  0.64512139583E+02  0.50400000000E-02 0.  1.
         24    2    1    2    0    0  0.71054273576E-14  0.00000000000E+00 -0.39626063436E+02  0.89398215663E+02  0.80136234378E+02 0.  0.
         66    2    3    3    0    0 -0.33639735965E+02  0.14530081574E+02 -0.18131951040E+01  0.36742928351E+02  0.20000002533E+01 0.  0.
        -13    1    3    3    0    0  0.33639735965E+02 -0.14530081574E+02 -0.37812868332E+02  0.52655287312E+02  0.10566000000E+00 0.  1.
         13    1    4    4    0    0 -0.14429381657E+02  0.66675626228E+01 -0.20233672433E+00  0.15897029613E+02  0.10566000000E+00 0. -1.
        -13    1    4    4    0    0 -0.19366055778E+01  0.10177901065E+01  0.54311041028E-01  0.21909932883E+01  0.10566000000E+00 0.  1.
        -14    1    4    4    0    0 -0.17273748730E+02  0.68447288450E+01 -0.16651694207E+01  0.18654905450E+02  0.00000000000E+00 0.  1.
<mgrwt>
<rscale>  0 0.80136234E+02</rscale>
<asrwt>0</asrwt>
<pdfrwt beam="1">  1        2 0.38286271E-02 0.80136234E+02</pdfrwt>
<pdfrwt beam="2">  1       -1 0.99249445E-02 0.80136234E+02</pdfrwt>
<totfact> 0.12906325E+05</totfact>
</mgrwt>
</event>
<event>
 8    1  0.1226832E-020  0.7809968E+02  0.7818608E-02  0.1334532E+00
          2   -1    0    0  501    0  0.00000000000E+00  0.00000000000E+00  0.32411789657E+03  0.32411789658E+03  0.25500000000E-02 0. -1.
         -1   -1    0    0    0  501 -0.00000000000E+00 -0.00000000000E+00 -0.47047375865E+01  0.47047402860E+01  0.50400000000E-02 0.  1.
         24    2    1    2    0    0  0.00000000000E+00  0.00000000000E+00  0.31941315898E+03  0.32882263687E+03  0.78099682353E+02 0.  0.
         66    2    3    3    0    0  0.64032432910E+01 -0.15867351034E+02  0.30747839641E+03  0.30796061215E+03  0.20000063313E+01 0.  0.
        -13    1    3    3    0    0 -0.64032432910E+01  0.15867351034E+02  0.11934762577E+02  0.20862024717E+02  0.10566000000E+00 0.  1.
         13    1    4    4    0    0  0.49531275194E+01 -0.13595747918E+02  0.25670595757E+03  0.25711347232E+03  0.10566000000E+00 0. -1.
        -13    1    4    4    0    0  0.25269681520E+00 -0.79047979609E+00  0.13236352023E+02  0.13262763396E+02  0.10566000000E+00 0.  1.
        -14    1    4    4    0    0  0.11974189564E+01 -0.14811233200E+01  0.37536086814E+02  0.37584376432E+02  0.00000000000E+00 0.  1.
<mgrwt>
<rscale>  0 0.78099682E+02</rscale>
<asrwt>0</asrwt>
<pdfrwt beam="1">  1        2 0.49864272E-01 0.78099682E+02</pdfrwt>
<pdfrwt beam="2">  1       -1 0.72380629E-03 0.78099682E+02</pdfrwt>
<totfact> 0.27918517E+05</totfact>
</mgrwt>
</event>
<event>
 8    1  0.1226832E-020  0.8133762E+02  0.7818608E-02  0.1325298E+00
          2   -1    0    0  501    0  0.00000000000E+00  0.00000000000E+00  0.16672313712E+03  0.16672313714E+03  0.25500000000E-02 0. -1.
         -1   -1    0    0    0  501 -0.00000000000E+00 -0.00000000000E+00 -0.99203513821E+01  0.99203526624E+01  0.50400000000E-02 0.  1.
         24    2    1    2    0    0 -0.71054273576E-14  0.17763568394E-14  0.15680278573E+03  0.17664348980E+03  0.81337622747E+02 0.  0.
         66    2    3    3    0    0  0.39992323849E+02 -0.51794054077E+01  0.89465793786E+02  0.98154676227E+02  0.20000000420E+01 0.  0.
        -13    1    3    3    0    0 -0.39992323849E+02  0.51794054077E+01  0.67336991949E+02  0.78488813572E+02  0.10566000000E+00 0.  1.
         13    1    4    4    0    0  0.11422240170E+02 -0.14488012143E+01  0.25557797391E+02  0.28031745699E+02  0.10566000000E+00 0. -1.
        -13    1    4    4    0    0  0.14636343038E+02 -0.27222577501E+01  0.32407095676E+02  0.35663205674E+02  0.10566000000E+00 0.  1.
        -14    1    4    4    0    0  0.13933740641E+02 -0.10083464433E+01  0.31500900719E+02  0.34459724853E+02  0.00000000000E+00 0.  1.
<mgrwt>
<rscale>  0 0.81337623E+02</rscale>
<asrwt>0</asrwt>
<pdfrwt beam="1">  1        2 0.25649712E-01 0.81337623E+02</pdfrwt>
<pdfrwt beam="2">  1       -1 0.15262081E-02 0.81337623E+02</pdfrwt>
<totfact> 0.19843159E+05</totfact>
</mgrwt>
</event>
<event>
 8    1  0.1347213E-020  0.7948630E+02  0.7818608E-02  0.1330516E+00
          2   -1    0    0  501    0  0.00000000000E+00  0.00000000000E+00  0.10555866326E+04  0.10555866326E+04  0.25500000000E-02 0. -1.
         -1   -1    0    0    0  501 -0.00000000000E+00 -0.00000000000E+00 -0.14963373204E+01  0.14963458083E+01  0.50400000000E-02 0.  1.
         24    2    1    2    0    0  0.17763568394E-14  0.17763568394E-14  0.10540902953E+04  0.10570829784E+04  0.79486304761E+02 0.  0.
         66    2    3    3    0    0  0.11372467085E+02  0.14131649248E+02  0.99727956414E+03  0.99744652266E+03  0.19999986512E+01 0.  0.
        -13    1    3    3    0    0 -0.11372467085E+02 -0.14131649248E+02  0.56810731133E+02  0.59636455746E+02  0.10566000000E+00 0.  1.
         13    1    4    4    0    0  0.42298262204E+01  0.50076439911E+01  0.36480717416E+03  0.36486607600E+03  0.10566000000E+00 0. -1.
        -13    1    4    4    0    0  0.41637477456E+01  0.43817076674E+01  0.35625153261E+03  0.35630282319E+03  0.10566000000E+00 0.  1.
        -14    1    4    4    0    0  0.29788931189E+01  0.47422975893E+01  0.27622085736E+03  0.27627762347E+03  0.00000000000E+00 0.  1.
<mgrwt>
<rscale>  0 0.79486305E+02</rscale>
<asrwt>0</asrwt>
<pdfrwt beam="1">  1        2 0.16239894E+00 0.79486305E+02</pdfrwt>
<pdfrwt beam="2">  1       -1 0.23020499E-03 0.79486305E+02</pdfrwt>
<totfact> 0.35868024E+05</totfact>
</mgrwt>
</event>
<event>
 8    1  0.1226832E-020  0.7793323E+02  0.7818608E-02  0.1335021E+00
          2   -1    0    0  501    0  0.00000000000E+00  0.00000000000E+00  0.96995047414E+02  0.96995047447E+02  0.25500000000E-02 0. -1.
         -1   -1    0    0    0  501 -0.00000000000E+00 -0.00000000000E+00 -0.15654378294E+02  0.15654379106E+02  0.50400000000E-02 0.  1.
         24    2    1    2    0    0  0.17763568394E-14 -0.11102230246E-15  0.81340669119E+02  0.11264942655E+03  0.77933233283E+02 0.  0.
         66    2    3    3    0    0  0.10864970394E+02  0.43325154945E+00  0.94745621442E+02  0.95388511184E+02  0.19999987639E+01 0.  0.
        -13    1    3    3    0    0 -0.10864970394E+02 -0.43325154945E+00 -0.13404952322E+02  0.17260915369E+02  0.10566000000E+00 0.  1.
         13    1    4    4    0    0  0.42328720000E+01  0.33051085218E+00  0.36273630645E+02  0.36521416826E+02  0.10566000000E+00 0. -1.
        -13    1    4    4    0    0  0.50487736932E+01 -0.39002479964E+00  0.47711125975E+02  0.47979213635E+02  0.10566000000E+00 0.  1.
        -14    1    4    4    0    0  0.15833247008E+01  0.49276549691E+00  0.10760864821E+02  0.10887880723E+02  0.00000000000E+00 0.  1.
<mgrwt>
<rscale>  0 0.77933233E+02</rscale>
<asrwt>0</asrwt>
<pdfrwt beam="1">  1        2 0.14922315E-01 0.77933233E+02</pdfrwt>
<pdfrwt beam="2">  1       -1 0.24083659E-02 0.77933233E+02</pdfrwt>
<totfact> 0.18851582E+05</totfact>
</mgrwt>
</event>
<event>
 8    1  0.1226832E-020  0.8066582E+02  0.7818608E-02  0.1327172E+00
         -1   -1    0    0    0  501 -0.00000000000E+00  0.00000000000E+00  0.26378071380E+02  0.26378071861E+02  0.50400000000E-02 0.  1.
          2   -1    0    0  501    0  0.00000000000E+00 -0.00000000000E+00 -0.61670297144E+02  0.61670297197E+02  0.25500000000E-02 0. -1.
         24    2    1    2    0    0  0.00000000000E+00  0.00000000000E+00 -0.35292225764E+02  0.88048369058E+02  0.80665817385E+02 0.  0.
         66    2    3    3    0    0  0.82473019481E+01 -0.33116035424E+02 -0.41068671085E+02  0.53435246168E+02  0.19999991782E+01 0.  0.
        -13    1    3    3    0    0 -0.82473019481E+01  0.33116035424E+02  0.57764453208E+01  0.34613122890E+02  0.10566000000E+00 0.  1.
         13    1    4    4    0    0  0.95957067703E+00 -0.35021288247E+01 -0.37289127358E+01  0.52059232050E+01  0.10566000000E+00 0. -1.
        -13    1    4    4    0    0  0.37831005384E+01 -0.17269260530E+02 -0.22353323633E+02  0.28499499126E+02  0.10566000000E+00 0.  1.
         14    1    4    4    0    0  0.35046307326E+01 -0.12344646069E+02 -0.14986434716E+02  0.19729823837E+02  0.00000000000E+00 0. -1.
<mgrwt>
<rscale>  0 0.80665817E+02</rscale>
<asrwt>0</asrwt>
<pdfrwt beam="1">  1        2 0.94877380E-02 0.80665817E+02</pdfrwt>
<pdfrwt beam="2">  1       -1 0.40581649E-02 0.80665817E+02</pdfrwt>
<totfact> 0.15316527E+05</totfact>
</mgrwt>
</event>
<event>
 8    1  0.1226832E-020  0.8094754E+02  0.7818608E-02  0.1326384E+00
          2   -1    0    0  501    0  0.00000000000E+00  0.00000000000E+00  0.62276428739E+02  0.62276428791E+02  0.25500000000E-02 0. -1.
         -1   -1    0    0    0  501 -0.00000000000E+00 -0.00000000000E+00 -0.26304106891E+02  0.26304107374E+02  0.50400000000E-02 0.  1.
         24    2    1    2    0    0  0.00000000000E+00 -0.17763568394E-14  0.35972321847E+02  0.88580536165E+02  0.80947535158E+02 0.  0.
         66    2    3    3    0    0  0.17197833235E+01  0.11161963626E+02  0.60499950573E+02  0.61577521119E+02  0.20000002897E+01 0.  0.
        -13    1    3    3    0    0 -0.17197833235E+01 -0.11161963626E+02 -0.24527628725E+02  0.27003015046E+02  0.10566000000E+00 0.  1.
         13    1    4    4    0    0  0.12672284861E+01  0.59761675448E+01  0.33312795356E+02  0.33868480111E+02  0.10566000000E+00 0. -1.
        -13    1    4    4    0    0 -0.41156447784E+00  0.13191138055E+01  0.65529397914E+01  0.66978825383E+01  0.10566000000E+00 0.  1.
        -14    1    4    4    0    0  0.86411931530E+00  0.38666822756E+01  0.20634215425E+02  0.21011158469E+02  0.00000000000E+00 0.  1.
<mgrwt>
<rscale>  0 0.80947535E+02</rscale>
<asrwt>0</asrwt>
<pdfrwt beam="1">  1        2 0.95809890E-02 0.80947535E+02</pdfrwt>
<pdfrwt beam="2">  1       -1 0.40467857E-02 0.80947535E+02</pdfrwt>
<totfact> 0.15206740E+05</totfact>
</mgrwt>
</event>
<event>
 8    1  0.1226832E-020  0.7948412E+02  0.7818608E-02  0.1330522E+00
          2   -1    0    0  501    0  0.00000000000E+00  0.00000000000E+00  0.21868067092E+03  0.21868067094E+03  0.25500000000E-02 0. -1.
         -1   -1    0    0    0  501 -0.00000000000E+00 -0.00000000000E+00 -0.72225458798E+01  0.72225476383E+01  0.50400000000E-02 0.  1.
         24    2    1    2    0    0 -0.71054273576E-14  0.00000000000E+00  0.21145812504E+03  0.22590321857E+03  0.79484121158E+02 0.  0.
         66    2    3    3    0    0 -0.27332333967E+02 -0.23740690147E+02  0.15221461740E+03  0.15647353321E+03  0.19999986837E+01 0.  0.
        -13    1    3    3    0    0  0.27332333967E+02  0.23740690147E+02  0.59243507637E+02  0.69429685365E+02  0.10566000000E+00 0.  1.
         13    1    4    4    0    0 -0.26529926532E+01 -0.22159914497E+01  0.15263696914E+02  0.15650578124E+02  0.10566000000E+00 0. -1.
        -13    1    4    4    0    0 -0.10770039756E+02 -0.90275687610E+01  0.62365240591E+02  0.63929063438E+02  0.10566000000E+00 0.  1.
         14    1    4    4    0    0 -0.13909301557E+02 -0.12497129936E+02  0.74585679900E+02  0.76893891646E+02  0.00000000000E+00 0. -1.
<mgrwt>
<rscale>  0 0.79484121E+02</rscale>
<asrwt>0</asrwt>
<pdfrwt beam="1">  1        2 0.33643180E-01 0.79484121E+02</pdfrwt>
<pdfrwt beam="2">  1       -1 0.11111611E-02 0.79484121E+02</pdfrwt>
<totfact> 0.23149992E+05</totfact>
</mgrwt>
</event>
<event>
 8    1  0.1299739E-020  0.8305827E+02  0.7818608E-02  0.1320590E+00
         -1   -1    0    0    0  501 -0.00000000000E+00  0.00000000000E+00  0.44554375711E+01  0.44554404217E+01  0.50400000000E-02 0.  1.
          2   -1    0    0  501    0  0.00000000000E+00 -0.00000000000E+00 -0.38709291797E+03  0.38709291798E+03  0.25500000000E-02 0. -1.
         24    2    1    2    0    0  0.00000000000E+00  0.17763568394E-14 -0.38263748040E+03  0.39154835840E+03  0.83058266053E+02 0.  0.
         66    2    3    3    0    0  0.38352556647E+02 -0.80296773856E+01 -0.25594071285E+03  0.25893057531E+03  0.20000040101E+01 0.  0.
        -13    1    3    3    0    0 -0.38352556647E+02  0.80296773856E+01 -0.12669676754E+03  0.13261778308E+03  0.10566000000E+00 0.  1.
         13    1    4    4    0    0  0.25524044849E+02 -0.56806569173E+01 -0.16824302295E+03  0.17026295153E+03  0.10566000000E+00 0. -1.
        -13    1    4    4    0    0  0.10602635881E+02 -0.21898411104E+01 -0.70745417354E+02  0.71569103196E+02  0.10566000000E+00 0.  1.
        -14    1    4    4    0    0  0.22258759175E+01 -0.15917935792E+00 -0.16952272549E+02  0.17098520586E+02  0.00000000000E+00 0.  1.
<mgrwt>
<rscale>  0 0.83058266E+02</rscale>
<asrwt>0</asrwt>
<pdfrwt beam="1">  1        2 0.59552730E-01 0.83058266E+02</pdfrwt>
<pdfrwt beam="2">  1       -1 0.68545246E-03 0.83058266E+02</pdfrwt>
<totfact> 0.25317311E+05</totfact>
</mgrwt>
</event>
<event>
 8    1  0.1226832E-020  0.7441702E+02  0.7818608E-02  0.1345686E+00
          2   -1    0    0  501    0  0.00000000000E+00  0.00000000000E+00  0.12702125301E+03  0.12702125304E+03  0.25500000000E-02 0. -1.
         -1   -1    0    0    0  501 -0.00000000000E+00 -0.00000000000E+00 -0.10899540031E+02  0.10899541197E+02  0.50400000000E-02 0.  1.
         24    2    1    2    0    0  0.00000000000E+00  0.00000000000E+00  0.11612171298E+03  0.13792079423E+03  0.74417022627E+02 0.  0.
         66    2    3    3    0    0 -0.23193711089E+02 -0.21419229378E+02  0.94502813077E+02  0.99656978189E+02  0.20000002879E+01 0.  0.
        -13    1    3    3    0    0  0.23193711089E+02  0.21419229378E+02  0.21618899904E+02  0.38263816045E+02  0.10566000000E+00 0.  1.
         13    1    4    4    0    0 -0.72780377784E+01 -0.71493754957E+01  0.29790804392E+02  0.31489467989E+02  0.10566000000E+00 0. -1.
        -13    1    4    4    0    0 -0.93984327928E+01 -0.89342933081E+01  0.41179709016E+02  0.43173275699E+02  0.10566000000E+00 0.  1.
        -14    1    4    4    0    0 -0.65172405180E+01 -0.53355605742E+01  0.23532299669E+02  0.24994234502E+02  0.00000000000E+00 0.  1.
<mgrwt>
<rscale>  0 0.74417023E+02</rscale>
<asrwt>0</asrwt>
<pdfrwt beam="1">  1        2 0.19541730E-01 0.74417023E+02</pdfrwt>
<pdfrwt beam="2">  1       -1 0.16768525E-02 0.74417023E+02</pdfrwt>
<totfact> 0.23030281E+05</totfact>
</mgrwt>
</event>
<event>
 8    1  0.1226832E-020  0.7878230E+02  0.7818608E-02  0.1332543E+00
         -1   -1    0    0    0  501 -0.00000000000E+00  0.00000000000E+00  0.12373894853E+03  0.12373894864E+03  0.50400000000E-02 0.  1.
          2   -1    0    0  501    0  0.00000000000E+00 -0.00000000000E+00 -0.12539806587E+02  0.12539806846E+02  0.25500000000E-02 0. -1.
         24    2    1    2    0    0  0.00000000000E+00  0.00000000000E+00  0.11119914195E+03  0.13627875548E+03  0.78782295131E+02 0.  0.
         66    2    3    3    0    0  0.30076511882E+02 -0.24284701494E+02  0.42770056156E+02  0.57685535420E+02  0.19999998705E+01 0.  0.
        -13    1    3    3    0    0 -0.30076511882E+02  0.24284701494E+02  0.68429085791E+02  0.78593220063E+02  0.10566000000E+00 0.  1.
         13    1    4    4    0    0  0.27655749778E+00 -0.38535522792E+00  0.61707274417E+00  0.78544605700E+00  0.10566000000E+00 0. -1.
        -13    1    4    4    0    0  0.77682570314E+00 -0.56852018873E+00  0.84588299734E+00  0.12858287051E+01  0.10566000000E+00 0. -1.
         14    1    4    4    0    0  0.29023128681E+02 -0.23330826077E+02  0.41307100414E+02  0.55614260658E+02  0.00000000000E+00 0. -1.
<mgrwt>
<rscale>  0 0.78782295E+02</rscale>
<asrwt>0</asrwt>
<pdfrwt beam="1">  1        2 0.19292012E-02 0.78782295E+02</pdfrwt>
<pdfrwt beam="2">  1       -1 0.19036760E-01 0.78782295E+02</pdfrwt>
<totfact> 0.11748218E+05</totfact>
</mgrwt>
</event>
<event>
 8    1  0.1226832E-020  0.8206989E+02  0.7818608E-02  0.1323278E+00
          2   -1    0    0  501    0  0.00000000000E+00  0.00000000000E+00  0.51505950164E+03  0.51505950164E+03  0.25500000000E-02 0. -1.
         -1   -1    0    0    0  501 -0.00000000000E+00 -0.00000000000E+00 -0.32692647242E+01  0.32692686091E+01  0.50400000000E-02 0.  1.
         24    2    1    2    0    0  0.00000000000E+00  0.00000000000E+00  0.51179023691E+03  0.51832877025E+03  0.82069893823E+02 0.  0.
         66    2    3    3    0    0  0.24620540674E+02 -0.72388581048E+00  0.46313678098E+03  0.46379561546E+03  0.19999964954E+01 0.  0.
        -13    1    3    3    0    0 -0.24620540674E+02  0.72388581048E+00  0.48653455930E+02  0.54533154794E+02  0.10566000000E+00 0.  1.
         13    1    4    4    0    0  0.69185684837E+01 -0.53967859183E-01  0.13712816885E+03  0.13730264148E+03  0.10566000000E+00 0. -1.
        -13    1    4    4    0    0  0.54058951258E+01 -0.85714123510E+00  0.96627101040E+02  0.96782055221E+02  0.10566000000E+00 0.  1.
        -14    1    4    4    0    0  0.12296077065E+02  0.18722328381E+00  0.22938151109E+03  0.22971091876E+03  0.00000000000E+00 0.  1.
<mgrwt>
<rscale>  0 0.82069894E+02</rscale>
<asrwt>0</asrwt>
<pdfrwt beam="1">  1        2 0.79239932E-01 0.82069894E+02</pdfrwt>
<pdfrwt beam="2">  1       -1 0.50296405E-03 0.82069894E+02</pdfrwt>
<totfact> 0.28756483E+05</totfact>
</mgrwt>
</event>
<event>
 8    1  0.1659516E-020  0.7769382E+02  0.7818608E-02  0.1335726E+00
          2   -1    0    0  501    0  0.00000000000E+00  0.00000000000E+00  0.22778951713E+03  0.22778951714E+03  0.25500000000E-02 0. -1.
         -1   -1    0    0    0  501 -0.00000000000E+00 -0.00000000000E+00 -0.66248982644E+01  0.66249001816E+01  0.50400000000E-02 0.  1.
         24    2    1    2    0    0 -0.35527136788E-14  0.35527136788E-14  0.22116461886E+03  0.23441441732E+03  0.77693824801E+02 0.  0.
         66    2    3    3    0    0 -0.27554673234E+02  0.19742375929E+02  0.16774714519E+03  0.17114942636E+03  0.19999996452E+01 0.  0.
        -13    1    3    3    0    0  0.27554673234E+02 -0.19742375929E+02  0.53417473673E+02  0.63264990967E+02  0.10566000000E+00 0.  1.
         13    1    4    4    0    0 -0.16167440535E+02  0.11883030846E+02  0.10117291758E+03  0.10314340973E+03  0.10566000000E+00 0. -1.
        -13    1    4    4    0    0 -0.65423371712E+01  0.43949437088E+01  0.40540519736E+02  0.41299668405E+02  0.10566000000E+00 0.  1.
        -14    1    4    4    0    0 -0.48448955279E+01  0.34644013741E+01  0.26033707877E+02  0.26706348222E+02  0.00000000000E+00 0.  1.
<mgrwt>
<rscale>  0 0.77693825E+02</rscale>
<asrwt>0</asrwt>
<pdfrwt beam="1">  1        2 0.35044541E-01 0.77693825E+02</pdfrwt>
<pdfrwt beam="2">  1       -1 0.10192153E-02 0.77693825E+02</pdfrwt>
<totfact> 0.24935306E+05</totfact>
</mgrwt>
</event>
<event>
 8    1  0.1226832E-020  0.7813135E+02  0.7818608E-02  0.1334440E+00
         -1   -1    0    0    0  501 -0.00000000000E+00  0.00000000000E+00  0.27694826682E+02  0.27694827140E+02  0.50400000000E-02 0.  1.
          2   -1    0    0  501    0  0.00000000000E+00 -0.00000000000E+00 -0.55105132607E+02  0.55105132666E+02  0.25500000000E-02 0. -1.
         24    2    1    2    0    0  0.00000000000E+00  0.00000000000E+00 -0.27410305925E+02  0.82799959806E+02  0.78131353968E+02 0.  0.
         66    2    3    3    0    0 -0.20408071792E+02 -0.29582953816E+02  0.24443196627E+01  0.36077905231E+02  0.19999991243E+01 0.  0.
        -13    1    3    3    0    0  0.20408071792E+02  0.29582953816E+02 -0.29854625588E+02  0.46722054575E+02  0.10566000000E+00 0.  1.
         13    1    4    4    0    0 -0.78005722121E+01 -0.11978212270E+02  0.22212082184E+00  0.14296398068E+02  0.10566000000E+00 0. -1.
        -13    1    4    4    0    0 -0.68256818072E+01 -0.10189269954E+02  0.12329253270E+01  0.12326492739E+02  0.10566000000E+00 0.  1.
         14    1    4    4    0    0 -0.57818177722E+01 -0.74154715912E+01  0.98927351383E+00  0.94550144238E+01  0.00000000000E+00 0. -1.
<mgrwt>
<rscale>  0 0.78131354E+02</rscale>
<asrwt>0</asrwt>
<pdfrwt beam="1">  1        2 0.84777127E-02 0.78131354E+02</pdfrwt>
<pdfrwt beam="2">  1       -1 0.42607426E-02 0.78131354E+02</pdfrwt>
<totfact> 0.16283145E+05</totfact>
</mgrwt>
</event>
<event>
 8    1  0.1226832E-020  0.8118311E+02  0.7818608E-02  0.1325727E+00
          2   -1    0    0  501    0  0.00000000000E+00  0.00000000000E+00  0.60458395615E+02  0.60458395669E+02  0.25500000000E-02 0. -1.
         -1   -1    0    0    0  501 -0.00000000000E+00 -0.00000000000E+00 -0.27253028187E+02  0.27253028653E+02  0.50400000000E-02 0.  1.
         24    2    1    2    0    0  0.00000000000E+00  0.00000000000E+00  0.33205367428E+02  0.87711424322E+02  0.81183111117E+02 0.  0.
         66    2    3    3    0    0 -0.21720051613E+02  0.74274935869E+01  0.52749996127E+02  0.57562925552E+02  0.20000009131E+01 0.  0.
        -13    1    3    3    0    0  0.21720051613E+02 -0.74274935869E+01 -0.19544628699E+02  0.30148498770E+02  0.10566000000E+00 0.  1.
         13    1    4    4    0    0 -0.36084516537E+01  0.18773361878E+01  0.10282036044E+02  0.11057881522E+02  0.10566000000E+00 0. -1.
        -13    1    4    4    0    0 -0.48103824289E+01  0.13253187164E+01  0.11688193275E+02  0.12709102048E+02  0.10566000000E+00 0.  1.
         14    1    4    4    0    0 -0.13301217530E+02  0.42248386826E+01  0.30779766808E+02  0.33795941982E+02  0.00000000000E+00 0. -1.
<mgrwt>
<rscale>  0 0.81183111E+02</rscale>
<asrwt>0</asrwt>
<pdfrwt beam="1">  1        2 0.93012915E-02 0.81183111E+02</pdfrwt>
<pdfrwt beam="2">  1       -1 0.41927737E-02 0.81183111E+02</pdfrwt>
<totfact> 0.14982625E+05</totfact>
</mgrwt>
</event>
<event>
 8    1  0.1226832E-020  0.8257749E+02  0.7818608E-02  0.1321892E+00
         -1   -1    0    0    0  501 -0.00000000000E+00  0.00000000000E+00  0.11061872904E+03  0.11061872916E+03  0.50400000000E-02 0.  1.
          2   -1    0    0  501    0  0.00000000000E+00 -0.00000000000E+00 -0.15411135898E+02  0.15411136109E+02  0.25500000000E-02 0. -1.
         24    2    1    2    0    0  0.00000000000E+00 -0.17763568394E-14  0.95207593144E+02  0.12602986527E+03  0.82577485712E+02 0.  0.
         66    2    3    3    0    0  0.11784641431E+02  0.13539833089E+02 -0.90755247541E+01  0.20213114718E+02  0.20000008264E+01 0.  0.
        -13    1    3    3    0    0 -0.11784641431E+02 -0.13539833089E+02  0.10428311790E+03  0.10581675055E+03  0.10566000000E+00 0.  1.
         13    1    4    4    0    0  0.26496644293E+01  0.36578519459E+01 -0.19656250973E+01  0.49270121276E+01  0.10566000000E+00 0. -1.
        -13    1    4    4    0    0  0.13265403416E+01  0.22093573007E+01 -0.11845126156E+01  0.28381689753E+01  0.10566000000E+00 0.  1.
        -14    1    4    4    0    0  0.78084366599E+01  0.76726238429E+01 -0.59253870411E+01  0.12447933615E+02  0.00000000000E+00 0.  1.
<mgrwt>
<rscale>  0 0.82577486E+02</rscale>
<asrwt>0</asrwt>
<pdfrwt beam="1">  1        2 0.23709440E-02 0.82577486E+02</pdfrwt>
<pdfrwt beam="2">  1       -1 0.17018266E-01 0.82577486E+02</pdfrwt>
<totfact> 0.10710579E+05</totfact>
</mgrwt>
</event>
<event>
 8    1  0.1226832E-020  0.7877294E+02  0.7818608E-02  0.1332570E+00
          2   -1    0    0  501    0  0.00000000000E+00  0.00000000000E+00  0.45595518149E+02  0.45595518220E+02  0.25500000000E-02 0. -1.
         -1   -1    0    0    0  501 -0.00000000000E+00 -0.00000000000E+00 -0.34022949583E+02  0.34022949956E+02  0.50400000000E-02 0.  1.
         24    2    1    2    0    0 -0.35527136788E-14  0.00000000000E+00  0.11572568566E+02  0.79618468176E+02  0.78772940351E+02 0.  0.
         66    2    3    3    0    0  0.30491284480E+02 -0.17738442054E+02  0.23439346323E+02  0.42400161739E+02  0.20000009158E+01 0.  0.
        -13    1    3    3    0    0 -0.30491284480E+02  0.17738442054E+02 -0.11866777756E+02  0.37218306438E+02  0.10566000000E+00 0.  1.
         13    1    4    4    0    0  0.67049281300E+01 -0.40810914875E+01  0.45267678718E+01  0.90616863970E+01  0.10566000000E+00 0.  1.
        -13    1    4    4    0    0  0.13863602858E+01 -0.10234744358E+01  0.96524423312E+00  0.19779674487E+01  0.10566000000E+00 0.  1.
         14    1    4    4    0    0  0.22399996064E+02 -0.12633876131E+02  0.17947334218E+02  0.31360507893E+02  0.00000000000E+00 0. -1.
<mgrwt>
<rscale>  0 0.78772940E+02</rscale>
<asrwt>0</asrwt>
<pdfrwt beam="1">  1        2 0.70146951E-02 0.78772940E+02</pdfrwt>
<pdfrwt beam="2">  1       -1 0.52343000E-02 0.78772940E+02</pdfrwt>
<totfact> 0.15285166E+05</totfact>
</mgrwt>
</event>
<event>
 8    1  0.1226832E-020  0.8447068E+02  0.7818608E-02  0.1316823E+00
         -1   -1    0    0    0  501 -0.00000000000E+00  0.00000000000E+00  0.17719306426E+01  0.17719378104E+01  0.50400000000E-02 0.  1.
          2   -1    0    0  501    0  0.00000000000E+00 -0.00000000000E+00 -0.10067101119E+04  0.10067101119E+04  0.25500000000E-02 0. -1.
         24    2    1    2    0    0  0.17763568394E-14 -0.17763568394E-14 -0.10049381813E+04  0.10084820497E+04  0.84470683942E+02 0.  0.
         66    2    3    3    0    0  0.13981877443E+02 -0.94299424642E+01 -0.96473875729E+03  0.96488822489E+03  0.19999987413E+01 0.  0.
        -13    1    3    3    0    0 -0.13981877443E+02  0.94299424642E+01 -0.40199423962E+02  0.43593824822E+02  0.10566000000E+00 0.  1.
         13    1    4    4    0    0  0.61073523009E+01 -0.38251034082E+01 -0.38665075267E+03  0.38671791641E+03  0.10566000000E+00 0. -1.
        -13    1    4    4    0    0  0.55612883066E+01 -0.32086724018E+01 -0.38766085544E+03  0.38771403574E+03  0.10566000000E+00 0.  1.
         14    1    4    4    0    0  0.23132368350E+01 -0.23961666542E+01 -0.19042714918E+03  0.19045627274E+03  0.00000000000E+00 0. -1.
<mgrwt>
<rscale>  0 0.84470684E+02</rscale>
<asrwt>0</asrwt>
<pdfrwt beam="1">  1        2 0.15487802E+00 0.84470684E+02</pdfrwt>
<pdfrwt beam="2">  1       -1 0.27260607E-03 0.84470684E+02</pdfrwt>
<totfact> 0.30588691E+05</totfact>
</mgrwt>
</event>
<event>
 8    1  0.1277348E-020  0.8088609E+02  0.7818608E-02  0.1326555E+00
          2   -1    0    0  501    0  0.00000000000E+00  0.00000000000E+00  0.20604733462E+03  0.20604733464E+03  0.25500000000E-02 0. -1.
         -1   -1    0    0    0  501 -0.00000000000E+00 -0.00000000000E+00 -0.79381739194E+01  0.79381755194E+01  0.50400000000E-02 0.  1.
         24    2    1    2    0    0 -0.17763568394E-14  0.00000000000E+00  0.19810916070E+03  0.21398551016E+03  0.80886086584E+02 0.  0.
         66    2    3    3    0    0 -0.11811548459E+02  0.16927015420E+02  0.19104804501E+03  0.19217021628E+03  0.19999988445E+01 0.  0.
        -13    1    3    3    0    0  0.11811548459E+02 -0.16927015420E+02  0.70611156929E+01  0.21815293876E+02  0.10566000000E+00 0.  1.
         13    1    4    4    0    0 -0.82186372173E+01  0.12534199494E+02  0.13776421120E+03  0.13857720305E+03  0.10566000000E+00 0. -1.
        -13    1    4    4    0    0 -0.32550178474E+01  0.39921730666E+01  0.45309595231E+02  0.45601569831E+02  0.10566000000E+00 0.  1.
        -14    1    4    4    0    0 -0.33789339438E+00  0.40064285945E+00  0.79742385785E+01  0.79914433961E+01  0.00000000000E+00 0.  1.
<mgrwt>
<rscale>  0 0.80886087E+02</rscale>
<asrwt>0</asrwt>
<pdfrwt beam="1">  1        2 0.31699589E-01 0.80886087E+02</pdfrwt>
<pdfrwt beam="2">  1       -1 0.12212577E-02 0.80886087E+02</pdfrwt>
<totfact> 0.21650034E+05</totfact>
</mgrwt>
</event>
<event>
 8    1  0.1226832E-020  0.7973070E+02  0.7818608E-02  0.1329817E+00
         -1   -1    0    0    0  501 -0.00000000000E+00  0.00000000000E+00  0.39880411187E+03  0.39880411190E+03  0.50400000000E-02 0.  1.
          2   -1    0    0  501    0  0.00000000000E+00 -0.00000000000E+00 -0.39850285450E+01  0.39850293609E+01  0.25500000000E-02 0. -1.
         24    2    1    2    0    0 -0.35527136788E-14  0.35527136788E-14  0.39481908332E+03  0.40278914126E+03  0.79730695228E+02 0.  0.
         66    2    3    3    0    0  0.27621086625E+02 -0.28083800298E+02  0.16738397483E+03  0.17196807636E+03  0.19999973412E+01 0.  0.
        -13    1    3    3    0    0 -0.27621086625E+02  0.28083800298E+02  0.22743510849E+03  0.23082106491E+03  0.10566000000E+00 0.  1.
         13    1    4    4    0    0  0.12845881519E+02 -0.13940135159E+02  0.81875348510E+02  0.84041227371E+02  0.10566000000E+00 0. -1.
        -13    1    4    4    0    0  0.70949697380E+01 -0.66176341932E+01  0.38454131356E+02  0.39659337618E+02  0.10566000000E+00 0. -1.
        -14    1    4    4    0    0  0.76802353679E+01 -0.75260309461E+01  0.47054494965E+02  0.48267511366E+02  0.00000000000E+00 0.  1.
<mgrwt>
<rscale>  0 0.79730695E+02</rscale>
<asrwt>0</asrwt>
<pdfrwt beam="1">  1        2 0.61308127E-03 0.79730695E+02</pdfrwt>
<pdfrwt beam="2">  1       -1 0.61354490E-01 0.79730695E+02</pdfrwt>
<totfact> 0.76576494E+04</totfact>
</mgrwt>
</event>
<event>
 8    1  0.1226832E-020  0.8131843E+02  0.7818608E-02  0.1325351E+00
          2   -1    0    0  501    0  0.00000000000E+00  0.00000000000E+00  0.47016609466E+03  0.47016609466E+03  0.25500000000E-02 0. -1.
         -1   -1    0    0    0  501 -0.00000000000E+00 -0.00000000000E+00 -0.35161425351E+01  0.35161461473E+01  0.50400000000E-02 0.  1.
         24    2    1    2    0    0  0.00000000000E+00  0.00000000000E+00  0.46664995212E+03  0.47368224081E+03  0.81318432379E+02 0.  0.
         66    2    3    3    0    0  0.82663505617E+01  0.28384631298E+02  0.39585213829E+03  0.39695961408E+03  0.19999935713E+01 0.  0.
        -13    1    3    3    0    0 -0.82663505617E+01 -0.28384631298E+02  0.70797813834E+02  0.76722626735E+02  0.10566000000E+00 0.  1.
         13    1    4    4    0    0  0.84662331529E+00  0.32918533149E+01  0.48878913294E+02  0.48997065199E+02  0.10566000000E+00 0. -1.
        -13    1    4    4    0    0  0.19557628875E+01  0.43802917876E+01  0.64811392552E+02  0.64988766207E+02  0.10566000000E+00 0.  1.
        -14    1    4    4    0    0  0.54639643589E+01  0.20712486195E+02  0.28216183244E+03  0.28297378267E+03  0.00000000000E+00 0.  1.
<mgrwt>
<rscale>  0 0.81318432E+02</rscale>
<asrwt>0</asrwt>
<pdfrwt beam="1">  1        2 0.72333211E-01 0.81318432E+02</pdfrwt>
<pdfrwt beam="2">  1       -1 0.54094554E-03 0.81318432E+02</pdfrwt>
<totfact> 0.28603695E+05</totfact>
</mgrwt>
</event>
<event>
 8    1  0.1226832E-020  0.7364425E+02  0.7818608E-02  0.1348121E+00
         -1   -1    0    0    0  501 -0.00000000000E+00  0.00000000000E+00  0.26296994816E+01  0.26297043113E+01  0.50400000000E-02 0.  1.
          2   -1    0    0  501    0  0.00000000000E+00 -0.00000000000E+00 -0.51559794480E+03  0.51559794480E+03  0.25500000000E-02 0. -1.
         24    2    1    2    0    0  0.00000000000E+00  0.35527136788E-14 -0.51296824531E+03  0.51822764911E+03  0.73644250318E+02 0.  0.
         66    2    3    3    0    0  0.17858409169E+02 -0.28450091453E+02 -0.36235142822E+03  0.36391054948E+03  0.20000031658E+01 0.  0.
        -13    1    3    3    0    0 -0.17858409169E+02  0.28450091453E+02 -0.15061681710E+03  0.15431709963E+03  0.10566000000E+00 0.  1.
         13    1    4    4    0    0  0.11269250128E+01 -0.14530430111E+01 -0.21364106697E+02  0.21443355916E+02  0.10566000000E+00 0. -1.
        -13    1    4    4    0    0  0.39026037730E+00 -0.31276058840E+00 -0.58978293249E+01  0.59199389464E+01  0.10566000000E+00 0. -1.
         14    1    4    4    0    0  0.16341223779E+02 -0.26684287853E+02 -0.33508949219E+03  0.33654725462E+03  0.00000000000E+00 0. -1.
<mgrwt>
<rscale>  0 0.73644250E+02</rscale>
<asrwt>0</asrwt>
<pdfrwt beam="1">  1        2 0.79322680E-01 0.73644250E+02</pdfrwt>
<pdfrwt beam="2">  1       -1 0.40456993E-03 0.73644250E+02</pdfrwt>
<totfact> 0.38113758E+05</totfact>
</mgrwt>
</event>
<event>
 8    1  0.1226832E-020  0.7980972E+02  0.7818608E-02  0.1329592E+00
         -1   -1    0    0    0  501 -0.00000000000E+00  0.00000000000E+00  0.34974725358E+02  0.34974725722E+02  0.50400000000E-02 0.  1.
          2   -1    0    0  501    0  0.00000000000E+00 -0.00000000000E+00 -0.45529958686E+02  0.45529958757E+02  0.25500000000E-02 0. -1.
         24    2    1    2    0    0  0.35527136788E-14  0.71054273576E-14 -0.10555233327E+02  0.80504684479E+02  0.79809719160E+02 0.  0.
         66    2    3    3    0    0  0.16020030888E+02  0.34511784298E+02  0.67683119964E+01  0.38697734916E+02  0.19999988196E+01 0.  0.
        -13    1    3    3    0    0 -0.16020030888E+02 -0.34511784298E+02 -0.17323545324E+02  0.41806949562E+02  0.10566000000E+00 0.  1.
         13    1    4    4    0    0  0.96525838847E+01  0.19304975133E+02  0.35508831796E+01  0.21874057143E+02  0.10566000000E+00 0. -1.
        -13    1    4    4    0    0  0.34276470393E+01  0.92474827463E+01  0.17129917280E+01  0.10010504786E+02  0.10566000000E+00 0.  1.
         14    1    4    4    0    0  0.29397999639E+01  0.59593264193E+01  0.15044370889E+01  0.68131729872E+01  0.00000000000E+00 0. -1.
<mgrwt>
<rscale>  0 0.79809719E+02</rscale>
<asrwt>0</asrwt>
<pdfrwt beam="1">  1        2 0.70046090E-02 0.79809719E+02</pdfrwt>
<pdfrwt beam="2">  1       -1 0.53807270E-02 0.79809719E+02</pdfrwt>
<totfact> 0.14741659E+05</totfact>
</mgrwt>
</event>
<event>
 8    1  0.1226832E-020  0.7980650E+02  0.7818608E-02  0.1329601E+00
         -1   -1    0    0    0  501 -0.00000000000E+00  0.00000000000E+00  0.17293130946E+02  0.17293131681E+02  0.50400000000E-02 0.  1.
          2   -1    0    0  501    0  0.00000000000E+00 -0.00000000000E+00 -0.92075250704E+02  0.92075250740E+02  0.25500000000E-02 0. -1.
         24    2    1    2    0    0  0.00000000000E+00  0.00000000000E+00 -0.74782119758E+02  0.10936838242E+03  0.79806501225E+02 0.  0.
         66    2    3    3    0    0  0.15525889711E+02 -0.32495811830E+02 -0.60881621640E+02  0.70764418248E+02  0.19999996824E+01 0.  0.
        -13    1    3    3    0    0 -0.15525889711E+02  0.32495811830E+02 -0.13900498118E+02  0.38603964172E+02  0.10566000000E+00 0.  1.
         13    1    4    4    0    0  0.31995224635E+01 -0.63947220530E+01 -0.11676205380E+02  0.13692127308E+02  0.10566000000E+00 0. -1.
        -13    1    4    4    0    0  0.10631077728E+02 -0.21185045252E+02 -0.39716484597E+02  0.46251878543E+02  0.10566000000E+00 0.  1.
        -14    1    4    4    0    0  0.16952895193E+01 -0.49160445249E+01 -0.94889316636E+01  0.10820412397E+02  0.00000000000E+00 0.  1.
<mgrwt>
<rscale>  0 0.79806501E+02</rscale>
<asrwt>0</asrwt>
<pdfrwt beam="1">  1        2 0.14165423E-01 0.79806501E+02</pdfrwt>
<pdfrwt beam="2">  1       -1 0.26604818E-02 0.79806501E+02</pdfrwt>
<totfact> 0.17440082E+05</totfact>
</mgrwt>
</event>
<event>
 8    1  0.1226832E-020  0.7767121E+02  0.7818608E-02  0.1335793E+00
         -1   -1    0    0    0  501 -0.00000000000E+00  0.00000000000E+00  0.93903311335E+01  0.93903324860E+01  0.50400000000E-02 0.  1.
          2   -1    0    0  501    0  0.00000000000E+00 -0.00000000000E+00 -0.16061246901E+03  0.16061246903E+03  0.25500000000E-02 0. -1.
         24    2    1    2    0    0 -0.71054273576E-14  0.00000000000E+00 -0.15122213787E+03  0.17000280151E+03  0.77671214355E+02 0.  0.
         66    2    3    3    0    0 -0.33802649195E+02 -0.19002989634E+02 -0.79098684052E+02  0.88115461449E+02  0.20000049960E+01 0.  0.
        -13    1    3    3    0    0  0.33802649195E+02  0.19002989634E+02 -0.72123453822E+02  0.81887340065E+02  0.10566000000E+00 0.  1.
         13    1    4    4    0    0 -0.12123139599E+02 -0.72305206659E+01 -0.28001336416E+02  0.31358203838E+02  0.10566000000E+00 0. -1.
        -13    1    4    4    0    0 -0.90885208022E+01 -0.50192561067E+01 -0.23041189912E+02  0.25272549116E+02  0.10566000000E+00 0.  1.
         14    1    4    4    0    0 -0.12590988794E+02 -0.67532128612E+01 -0.28056157724E+02  0.31484708494E+02  0.00000000000E+00 0. -1.
<mgrwt>
<rscale>  0 0.77671214E+02</rscale>
<asrwt>0</asrwt>
<pdfrwt beam="1">  1        2 0.24709609E-01 0.77671214E+02</pdfrwt>
<pdfrwt beam="2">  1       -1 0.14446666E-02 0.77671214E+02</pdfrwt>
<totfact> 0.22145449E+05</totfact>
</mgrwt>
</event>
<event>
 8    1  0.1226832E-020  0.8041431E+02  0.7818608E-02  0.1327880E+00
          2   -1    0    0  501    0  0.00000000000E+00  0.00000000000E+00  0.45430331868E+02  0.45430331939E+02  0.25500000000E-02 0. -1.
         -1   -1    0    0    0  501 -0.00000000000E+00 -0.00000000000E+00 -0.35584490967E+02  0.35584491324E+02  0.50400000000E-02 0.  1.
         24    2    1    2    0    0  0.35527136788E-14 -0.17763568394E-14  0.98458409005E+01  0.81014823264E+02  0.80414308462E+02 0.  0.
         66    2    3    3    0    0  0.20665248154E+02 -0.14475005355E+02  0.36433003722E+02  0.44361492552E+02  0.19999999831E+01 0.  0.
        -13    1    3    3    0    0 -0.20665248154E+02  0.14475005355E+02 -0.26587162821E+02  0.36653330712E+02  0.10566000000E+00 0.  1.
         13    1    4    4    0    0  0.33637401945E+01 -0.18686196075E+01  0.55525991546E+01  0.67564050160E+01  0.10566000000E+00 0. -1.
        -13    1    4    4    0    0  0.56067418239E+01 -0.32351165588E+01  0.93203472466E+01  0.11348196767E+02  0.10566000000E+00 0.  1.
        -14    1    4    4    0    0  0.11694766136E+02 -0.93712691891E+01  0.21560057321E+02  0.26256890769E+02  0.00000000000E+00 0.  1.
<mgrwt>
<rscale>  0 0.80414308E+02</rscale>
<asrwt>0</asrwt>
<pdfrwt beam="1">  1        2 0.69892819E-02 0.80414308E+02</pdfrwt>
<pdfrwt beam="2">  1       -1 0.54745371E-02 0.80414308E+02</pdfrwt>
<totfact> 0.14432158E+05</totfact>
</mgrwt>
</event>
<event>
 8    1  0.1226832E-020  0.7889806E+02  0.7818608E-02  0.1332208E+00
         -1   -1    0    0    0  501 -0.00000000000E+00  0.00000000000E+00  0.79763356538E+01  0.79763372461E+01  0.50400000000E-02 0.  1.
          2   -1    0    0  501    0  0.00000000000E+00 -0.00000000000E+00 -0.19510537521E+03  0.19510537523E+03  0.25500000000E-02 0. -1.
         24    2    1    2    0    0  0.00000000000E+00 -0.35527136788E-14 -0.18712903956E+03  0.20308171248E+03  0.78898063955E+02 0.  0.
         66    2    3    3    0    0 -0.16598284452E+02 -0.26373451423E+02 -0.15578261819E+03  0.15888135859E+03  0.19999979978E+01 0.  0.
        -13    1    3    3    0    0  0.16598284452E+02  0.26373451423E+02 -0.31346421375E+02  0.44200353887E+02  0.10566000000E+00 0.  1.
         13    1    4    4    0    0 -0.27769731949E+01 -0.51281110121E+01 -0.30370546351E+02  0.30925561472E+02  0.10566000000E+00 0. -1.
        -13    1    4    4    0    0 -0.65105775598E+01 -0.95163261740E+01 -0.60416268386E+02  0.61506786079E+02  0.10566000000E+00 0.  1.
        -14    1    4    4    0    0 -0.73107336972E+01 -0.11729014237E+02 -0.64995803449E+02  0.66449011039E+02  0.00000000000E+00 0.  1.
<mgrwt>
<rscale>  0 0.78898064E+02</rscale>
<asrwt>0</asrwt>
<pdfrwt beam="1">  1        2 0.30016208E-01 0.78898064E+02</pdfrwt>
<pdfrwt beam="2">  1       -1 0.12271288E-02 0.78898064E+02</pdfrwt>
<totfact> 0.22685015E+05</totfact>
</mgrwt>
</event>
<event>
 8    1  0.1546138E-020  0.8227933E+02  0.7818608E-02  0.1322705E+00
         -1   -1    0    0    0  501 -0.00000000000E+00  0.00000000000E+00  0.30765588317E+01  0.30765629600E+01  0.50400000000E-02 0.  1.
          2   -1    0    0  501    0  0.00000000000E+00 -0.00000000000E+00 -0.55011820101E+03  0.55011820102E+03  0.25500000000E-02 0. -1.
         24    2    1    2    0    0  0.17763568394E-14  0.00000000000E+00 -0.54704164218E+03  0.55319476398E+03  0.82279332844E+02 0.  0.
         66    2    3    3    0    0  0.98364649639E+01  0.23259632965E+02 -0.49182420226E+03  0.49247620500E+03  0.19999989301E+01 0.  0.
        -13    1    3    3    0    0 -0.98364649639E+01 -0.23259632965E+02 -0.55217439915E+02  0.60718558971E+02  0.10566000000E+00 0.  1.
         13    1    4    4    0    0  0.70960606922E+01  0.16962416073E+02 -0.35482134463E+03  0.35529744639E+03  0.10566000000E+00 0. -1.
        -13    1    4    4    0    0  0.18647403043E+01  0.49508444923E+01 -0.11137104299E+03  0.11149667484E+03  0.10566000000E+00 0.  1.
        -14    1    4    4    0    0  0.87566396736E+00  0.13463724006E+01 -0.25631814634E+02  0.25682083783E+02  0.00000000000E+00 0.  1.
<mgrwt>
<rscale>  0 0.82279333E+02</rscale>
<asrwt>0</asrwt>
<pdfrwt beam="1">  1        2 0.84633491E-01 0.82279333E+02</pdfrwt>
<pdfrwt beam="2">  1       -1 0.47331750E-03 0.82279333E+02</pdfrwt>
<totfact> 0.29149548E+05</totfact>
</mgrwt>
</event>
<event>
 8    1  0.1226832E-020  0.8354395E+02  0.7818608E-02  0.1319285E+00
          2   -1    0    0  501    0  0.00000000000E+00  0.00000000000E+00  0.14355528392E+04  0.14355528392E+04  0.25500000000E-02 0. -1.
         -1   -1    0    0    0  501 -0.00000000000E+00 -0.00000000000E+00 -0.12154833173E+01  0.12154937664E+01  0.50400000000E-02 0.  1.
         24    2    1    2    0    0  0.00000000000E+00 -0.17763568394E-14  0.14343373559E+04  0.14367683330E+04  0.83543953348E+02 0.  0.
         66    2    3    3    0    0  0.19221172024E+02 -0.14219514270E+02  0.13061451175E+04  0.13063654604E+04  0.20000003164E+01 0.  0.
        -13    1    3    3    0    0 -0.19221172024E+02  0.14219514270E+02  0.12819223837E+03  0.13040287260E+03  0.10566000000E+00 0.  1.
         13    1    4    4    0    0  0.13570058219E+02 -0.99800563005E+01  0.91730146380E+03  0.91745612138E+03  0.10566000000E+00 0. -1.
        -13    1    4    4    0    0  0.43544401041E+01 -0.28797064784E+01  0.26506779341E+03  0.26511921870E+03  0.10566000000E+00 0.  1.
         14    1    4    4    0    0  0.12966737014E+01 -0.13597514911E+01  0.12377586031E+03  0.12379012029E+03  0.00000000000E+00 0. -1.
<mgrwt>
<rscale>  0 0.83543953E+02</rscale>
<asrwt>0</asrwt>
<pdfrwt beam="1">  1        2 0.22085431E+00 0.83543953E+02</pdfrwt>
<pdfrwt beam="2">  1       -1 0.18699821E-03 0.83543953E+02</pdfrwt>
<totfact> 0.30156036E+05</totfact>
</mgrwt>
</event>
<event>
 8    1  0.1226832E-020  0.6983987E+02  0.7818608E-02  0.1360638E+00
         -1   -1    0    0    0  501 -0.00000000000E+00  0.00000000000E+00  0.10120332729E+02  0.10120333984E+02  0.50400000000E-02 0.  1.
          2   -1    0    0  501    0  0.00000000000E+00 -0.00000000000E+00 -0.12049029310E+03  0.12049029312E+03  0.25500000000E-02 0. -1.
         24    2    1    2    0    0  0.00000000000E+00  0.00000000000E+00 -0.11036996037E+03  0.13061062711E+03  0.69839872293E+02 0.  0.
         66    2    3    3    0    0 -0.26725541155E+02 -0.59880961228E+01 -0.95656610407E+02  0.99520344441E+02  0.19999994575E+01 0.  0.
        -13    1    3    3    0    0  0.26725541155E+02  0.59880961228E+01 -0.14713349960E+02  0.31090282667E+02  0.10566000000E+00 0.  1.
         13    1    4    4    0    0 -0.23705404830E+02 -0.58759362987E+01 -0.84875428350E+02  0.88319433576E+02  0.10566000000E+00 0. -1.
        -13    1    4    4    0    0 -0.15720090421E+01 -0.98692363954E-01 -0.60901816249E+01  0.62914568162E+01  0.10566000000E+00 0.  1.
         14    1    4    4    0    0 -0.14481272834E+01 -0.13467460088E-01 -0.46910004318E+01  0.49094540483E+01  0.00000000000E+00 0. -1.
<mgrwt>
<rscale>  0 0.69839872E+02</rscale>
<asrwt>0</asrwt>
<pdfrwt beam="1">  1        2 0.18536967E-01 0.69839872E+02</pdfrwt>
<pdfrwt beam="2">  1       -1 0.15569745E-02 0.69839872E+02</pdfrwt>
<totfact> 0.26789453E+05</totfact>
</mgrwt>
</event>
<event>
 8    1  0.1226832E-020  0.8084504E+02  0.7818608E-02  0.1326670E+00
          2   -1    0    0  501    0  0.00000000000E+00  0.00000000000E+00  0.38959822548E+02  0.38959822632E+02  0.25500000000E-02 0. -1.
         -1   -1    0    0    0  501 -0.00000000000E+00 -0.00000000000E+00 -0.41940131590E+02  0.41940131893E+02  0.50400000000E-02 0.  1.
         24    2    1    2    0    0 -0.17763568394E-14  0.00000000000E+00 -0.29803090414E+01  0.80899954525E+02  0.80845039428E+02 0.  0.
         66    2    3    3    0    0 -0.92174536824E+01  0.12422768816E+02  0.35853027145E+02  0.39098928211E+02  0.19999985929E+01 0.  0.
        -13    1    3    3    0    0  0.92174536824E+01 -0.12422768816E+02 -0.38833336186E+02  0.41801026313E+02  0.10566000000E+00 0.  1.
         13    1    4    4    0    0 -0.32615336931E+01  0.35339657680E+01  0.10716207728E+02  0.11746266989E+02  0.10566000000E+00 0. -1.
        -13    1    4    4    0    0 -0.22818659163E+01  0.35526997386E+01  0.11609588245E+02  0.12354039451E+02  0.10566000000E+00 0.  1.
        -14    1    4    4    0    0 -0.36740540730E+01  0.53361033090E+01  0.13527231172E+02  0.14998621771E+02  0.00000000000E+00 0.  1.
<mgrwt>
<rscale>  0 0.80845039E+02</rscale>
<asrwt>0</asrwt>
<pdfrwt beam="1">  1        2 0.59938189E-02 0.80845039E+02</pdfrwt>
<pdfrwt beam="2">  1       -1 0.64523280E-02 0.80845039E+02</pdfrwt>
<totfact> 0.13771686E+05</totfact>
</mgrwt>
</event>
<event>
 8    1  0.1226832E-020  0.7910365E+02  0.7818608E-02  0.1331615E+00
         -1   -1    0    0    0  501 -0.00000000000E+00  0.00000000000E+00  0.58970425160E+01  0.58970446698E+01  0.50400000000E-02 0.  1.
          2   -1    0    0  501    0  0.00000000000E+00 -0.00000000000E+00 -0.26527646142E+03  0.26527646143E+03  0.25500000000E-02 0. -1.
         24    2    1    2    0    0  0.00000000000E+00  0.00000000000E+00 -0.25937941890E+03  0.27117350610E+03  0.79103650110E+02 0.  0.
         66    2    3    3    0    0 -0.11549727707E+02  0.36058657079E+02 -0.90879330379E+02  0.98471699634E+02  0.19999945539E+01 0.  0.
        -13    1    3    3    0    0  0.11549727707E+02 -0.36058657079E+02 -0.16850008852E+03  0.17270180647E+03  0.10566000000E+00 0.  1.
         13    1    4    4    0    0 -0.71466923010E+01  0.20858251394E+02 -0.53198325301E+02  0.57586585599E+02  0.10566000000E+00 0. -1.
        -13    1    4    4    0    0 -0.41216108322E+01  0.13850132973E+02 -0.35108036726E+02  0.37965764394E+02  0.10566000000E+00 0.  1.
        -14    1    4    4    0    0 -0.28142457339E+00  0.13502727118E+01 -0.25729683514E+01  0.29193496406E+01  0.00000000000E+00 0.  1.
<mgrwt>
<rscale>  0 0.79103650E+02</rscale>
<asrwt>0</asrwt>
<pdfrwt beam="1">  1        2 0.40811754E-01 0.79103650E+02</pdfrwt>
<pdfrwt beam="2">  1       -1 0.90723769E-03 0.79103650E+02</pdfrwt>
<totfact> 0.25115622E+05</totfact>
</mgrwt>
</event>
<event>
 8    1  0.1226832E-020  0.8065708E+02  0.7818608E-02  0.1327197E+00
          2   -1    0    0  501    0  0.00000000000E+00  0.00000000000E+00  0.10685718352E+04  0.10685718352E+04  0.25500000000E-02 0. -1.
         -1   -1    0    0    0  501 -0.00000000000E+00 -0.00000000000E+00 -0.15220190700E+01  0.15220274147E+01  0.50400000000E-02 0.  1.
         24    2    1    2    0    0  0.00000000000E+00  0.00000000000E+00  0.10670498161E+04  0.10700938626E+04  0.80657080958E+02 0.  0.
         66    2    3    3    0    0  0.19788998665E+02  0.22307474099E+02  0.89357636836E+03  0.89407603365E+03  0.19999969582E+01 0.  0.
        -13    1    3    3    0    0 -0.19788998665E+02 -0.22307474099E+02  0.17347344772E+03  0.17601782892E+03  0.10566000000E+00 0.  1.
         13    1    4    4    0    0  0.81890094486E+01  0.84357579622E+01  0.34345287444E+03  0.34365405573E+03  0.10566000000E+00 0. -1.
        -13    1    4    4    0    0  0.78902959630E+01  0.92355091317E+01  0.38609758208E+03  0.38628862972E+03  0.10566000000E+00 0.  1.
         14    1    4    4    0    0  0.37096932537E+01  0.46362070053E+01  0.16402591184E+03  0.16413334821E+03  0.00000000000E+00 0. -1.
<mgrwt>
<rscale>  0 0.80657081E+02</rscale>
<asrwt>0</asrwt>
<pdfrwt beam="1">  1        2 0.16439521E+00 0.80657081E+02</pdfrwt>
<pdfrwt beam="2">  1       -1 0.23415807E-03 0.80657081E+02</pdfrwt>
<totfact> 0.34530555E+05</totfact>
</mgrwt>
</event>
<event>
 8    1  0.1226832E-020  0.8133425E+02  0.7818608E-02  0.1325307E+00
          2   -1    0    0  501    0  0.00000000000E+00  0.00000000000E+00  0.22349865169E+02  0.22349865314E+02  0.25500000000E-02 0. -1.
         -1   -1    0    0    0  501 -0.00000000000E+00 -0.00000000000E+00 -0.73996653075E+02  0.73996653247E+02  0.50400000000E-02 0.  1.
         24    2    1    2    0    0 -0.71054273576E-14  0.00000000000E+00 -0.51646787907E+02  0.96346518561E+02  0.81334254394E+02 0.  0.
         66    2    3    3    0    0 -0.39745311332E+02  0.78413018122E+01 -0.29701925979E+02  0.50273056394E+02  0.20000013351E+01 0.  0.
        -13    1    3    3    0    0  0.39745311332E+02 -0.78413018122E+01 -0.21944861928E+02  0.46073462167E+02  0.10566000000E+00 0.  1.
         13    1    4    4    0    0 -0.15233944658E+02  0.34175554525E+01 -0.11607659937E+02  0.19455119850E+02  0.10566000000E+00 0. -1.
        -13    1    4    4    0    0 -0.50366950519E+01  0.10170078204E+01 -0.30697900206E+01  0.59864327240E+01  0.10566000000E+00 0.  1.
         14    1    4    4    0    0 -0.19474671622E+02  0.34067385394E+01 -0.15024476021E+02  0.24831503820E+02  0.00000000000E+00 0. -1.
<mgrwt>
<rscale>  0 0.81334254E+02</rscale>
<asrwt>0</asrwt>
<pdfrwt beam="1">  1        2 0.34384408E-02 0.81334254E+02</pdfrwt>
<pdfrwt beam="2">  1       -1 0.11384100E-01 0.81334254E+02</pdfrwt>
<totfact> 0.12109707E+05</totfact>
</mgrwt>
</event>
<event>
 8    1  0.1226832E-020  0.8105792E+02  0.7818608E-02  0.1326076E+00
          2   -1    0    0  501    0  0.00000000000E+00  0.00000000000E+00  0.12153990630E+02  0.12153990897E+02  0.25500000000E-02 0. -1.
         -1   -1    0    0    0  501 -0.00000000000E+00 -0.00000000000E+00 -0.13514875192E+03  0.13514875201E+03  0.50400000000E-02 0.  1.
         24    2    1    2    0    0  0.00000000000E+00  0.00000000000E+00 -0.12299476129E+03  0.14730274291E+03  0.81057922279E+02 0.  0.
         66    2    3    3    0    0  0.23666924136E+02 -0.30898966988E+02 -0.81910833408E+02  0.90709724319E+02  0.19999993644E+01 0.  0.
        -13    1    3    3    0    0 -0.23666924136E+02  0.30898966988E+02 -0.41083927878E+02  0.56593018589E+02  0.10566000000E+00 0.  1.
         13    1    4    4    0    0  0.19503241553E+02 -0.26178413536E+02 -0.67521374960E+02  0.74998886704E+02  0.10566000000E+00 0. -1.
        -13    1    4    4    0    0  0.10501322554E+01 -0.10474510664E+01 -0.36528493305E+01  0.39439071689E+01  0.10566000000E+00 0.  1.
         14    1    4    4    0    0  0.31135503279E+01 -0.36731023854E+01 -0.10736609118E+02  0.11766930446E+02  0.00000000000E+00 0. -1.
<mgrwt>
<rscale>  0 0.81057922E+02</rscale>
<asrwt>0</asrwt>
<pdfrwt beam="1">  1        2 0.18698448E-02 0.81057922E+02</pdfrwt>
<pdfrwt beam="2">  1       -1 0.20792115E-01 0.81057922E+02</pdfrwt>
<totfact> 0.10709698E+05</totfact>
</mgrwt>
</event>
<event>
 8    1  0.1226832E-020  0.8054456E+02  0.7818608E-02  0.1327513E+00
         -1   -1    0    0    0  501 -0.00000000000E+00  0.00000000000E+00  0.33241820111E+02  0.33241820493E+02  0.50400000000E-02 0.  1.
          2   -1    0    0  501    0  0.00000000000E+00 -0.00000000000E+00 -0.48789642209E+02  0.48789642275E+02  0.25500000000E-02 0. -1.
         24    2    1    2    0    0  0.00000000000E+00  0.00000000000E+00 -0.15547822097E+02  0.82031462769E+02  0.80544559791E+02 0.  0.
         66    2    3    3    0    0 -0.47153312045E+01 -0.12412119028E+02 -0.46474251175E+02  0.48375107846E+02  0.19999974207E+01 0.  0.
        -13    1    3    3    0    0  0.47153312045E+01  0.12412119028E+02  0.30926429078E+02  0.33656354923E+02  0.10566000000E+00 0.  1.
         13    1    4    4    0    0 -0.26698244468E+00 -0.82774241384E+00 -0.23598496673E+01  0.25172388876E+01  0.10566000000E+00 0. -1.
        -13    1    4    4    0    0 -0.21500159542E+01 -0.57534640509E+01 -0.18752998098E+02  0.19733499915E+02  0.10566000000E+00 0.  1.
         14    1    4    4    0    0 -0.22983328057E+01 -0.58309125633E+01 -0.25361403410E+02  0.26124369044E+02  0.00000000000E+00 0. -1.
<mgrwt>
<rscale>  0 0.80544560E+02</rscale>
<asrwt>0</asrwt>
<pdfrwt beam="1">  1        2 0.75060988E-02 0.80544560E+02</pdfrwt>
<pdfrwt beam="2">  1       -1 0.51141262E-02 0.80544560E+02</pdfrwt>
<totfact> 0.14589739E+05</totfact>
</mgrwt>
</event>
<event>
 8    1  0.1226832E-020  0.7607131E+02  0.7818608E-02  0.1340585E+00
          2   -1    0    0  501    0  0.00000000000E+00  0.00000000000E+00  0.10189980699E+03  0.10189980703E+03  0.25500000000E-02 0. -1.
         -1   -1    0    0    0  501 -0.00000000000E+00 -0.00000000000E+00 -0.14197387398E+02  0.14197388293E+02  0.50400000000E-02 0.  1.
         24    2    1    2    0    0  0.17763568394E-14  0.00000000000E+00  0.87702419596E+02  0.11609719532E+03  0.76071311004E+02 0.  0.
         66    2    3    3    0    0  0.91261724420E+01 -0.36153678956E+02  0.32632191773E+02  0.49590679232E+02  0.20000003176E+01 0.  0.
        -13    1    3    3    0    0 -0.91261724420E+01  0.36153678956E+02  0.55070227823E+02  0.66506516087E+02  0.10566000000E+00 0.  1.
         13    1    4    4    0    0  0.41961088844E+01 -0.18627992749E+02  0.17203655492E+02  0.25701874833E+02  0.10566000000E+00 0. -1.
        -13    1    4    4    0    0  0.16651607642E+01 -0.54378310536E+01  0.42020872819E+01  0.70718787106E+01  0.10566000000E+00 0.  1.
        -14    1    4    4    0    0  0.32649027934E+01 -0.12087855154E+02  0.11226448999E+02  0.16816925688E+02  0.00000000000E+00 0.  1.
<mgrwt>
<rscale>  0 0.76071311E+02</rscale>
<asrwt>0</asrwt>
<pdfrwt beam="1">  1        2 0.15676894E-01 0.76071311E+02</pdfrwt>
<pdfrwt beam="2">  1       -1 0.21842135E-02 0.76071311E+02</pdfrwt>
<totfact> 0.20383854E+05</totfact>
</mgrwt>
</event>
<event>
 8    1  0.1226832E-020  0.8024590E+02  0.7818608E-02  0.1328355E+00
          2   -1    0    0  501    0  0.00000000000E+00  0.00000000000E+00  0.96345367533E+02  0.96345367567E+02  0.25500000000E-02 0. -1.
         -1   -1    0    0    0  501 -0.00000000000E+00 -0.00000000000E+00 -0.16709170319E+02  0.16709171079E+02  0.50400000000E-02 0.  1.
         24    2    1    2    0    0 -0.17763568394E-14  0.00000000000E+00  0.79636197215E+02  0.11305453865E+03  0.80245902086E+02 0.  0.
         66    2    3    3    0    0  0.85216948994E+01 -0.74539878255E+01  0.94036218844E+02  0.94736432701E+02  0.20000020231E+01 0.  0.
        -13    1    3    3    0    0 -0.85216948994E+01  0.74539878255E+01 -0.14400021629E+02  0.18318105945E+02  0.10566000000E+00 0.  1.
         13    1    4    4    0    0  0.84521877350E+01 -0.71080469861E+01  0.89538881690E+02  0.90217439044E+02  0.10566000000E+00 0. -1.
        -13    1    4    4    0    0  0.19233120629E-01 -0.15404402347E+00  0.32996648937E+01  0.33050040726E+01  0.10566000000E+00 0.  1.
         14    1    4    4    0    0  0.50274043812E-01 -0.19189681588E+00  0.11976722604E+01  0.12139895843E+01  0.00000000000E+00 0. -1.
<mgrwt>
<rscale>  0 0.80245902E+02</rscale>
<asrwt>0</asrwt>
<pdfrwt beam="1">  1        2 0.14822364E-01 0.80245902E+02</pdfrwt>
<pdfrwt beam="2">  1       -1 0.25706417E-02 0.80245902E+02</pdfrwt>
<totfact> 0.17399557E+05</totfact>
</mgrwt>
</event>
<event>
 8    1  0.1226832E-020  0.7897351E+02  0.7818608E-02  0.1331990E+00
          2   -1    0    0  501    0  0.00000000000E+00  0.00000000000E+00  0.68602769530E+02  0.68602769578E+02  0.25500000000E-02 0. -1.
         -1   -1    0    0    0  501 -0.00000000000E+00 -0.00000000000E+00 -0.22728002561E+02  0.22728003120E+02  0.50400000000E-02 0.  1.
         24    2    1    2    0    0  0.17763568394E-14  0.00000000000E+00  0.45874766970E+02  0.91330772698E+02  0.78973513263E+02 0.  0.
         66    2    3    3    0    0  0.99683860377E+01  0.37911719034E+02  0.28192275038E+02  0.48326716549E+02  0.20000000743E+01 0.  0.
        -13    1    3    3    0    0 -0.99683860377E+01 -0.37911719034E+02  0.17682491931E+02  0.43004056148E+02  0.10566000000E+00 0.  1.
         13    1    4    4    0    0  0.65427608558E+01  0.23708885965E+02  0.16640677438E+02  0.29695829723E+02  0.10566000000E+00 0. -1.
        -13    1    4    4    0    0  0.20427475496E+01  0.79017222105E+01  0.62294425359E+01  0.10267772387E+02  0.10566000000E+00 0.  1.
        -14    1    4    4    0    0  0.13828776323E+01  0.63011108585E+01  0.53221550641E+01  0.83631144392E+01  0.00000000000E+00 0.  1.
<mgrwt>
<rscale>  0 0.78973513E+02</rscale>
<asrwt>0</asrwt>
<pdfrwt beam="1">  1        2 0.10554272E-01 0.78973513E+02</pdfrwt>
<pdfrwt beam="2">  1       -1 0.34966159E-02 0.78973513E+02</pdfrwt>
<totfact> 0.16638980E+05</totfact>
</mgrwt>
</event>
<event>
 8    1  0.1226832E-020  0.7933841E+02  0.7818608E-02  0.1330939E+00
         -1   -1    0    0    0  501 -0.00000000000E+00  0.00000000000E+00  0.40043482162E+01  0.40043513880E+01  0.50400000000E-02 0.  1.
          2   -1    0    0  501    0  0.00000000000E+00 -0.00000000000E+00 -0.39298414627E+03  0.39298414628E+03  0.25500000000E-02 0. -1.
         24    2    1    2    0    0  0.00000000000E+00  0.00000000000E+00 -0.38897979805E+03  0.39698849766E+03  0.79338414311E+02 0.  0.
         66    2    3    3    0    0  0.10876363697E+01  0.12418874842E+02 -0.38291788386E+03  0.38312598083E+03  0.20000005896E+01 0.  0.
        -13    1    3    3    0    0 -0.10876363697E+01 -0.12418874842E+02 -0.60619141889E+01  0.13862516831E+02  0.10566000000E+00 0.  1.
         13    1    4    4    0    0  0.29350440985E+00  0.42826007326E+01 -0.15323228986E+03  0.15329244154E+03  0.10566000000E+00 0. -1.
        -13    1    4    4    0    0  0.96923211175E+00  0.49522160181E+01 -0.14595041704E+03  0.14603766382E+03  0.10566000000E+00 0.  1.
        -14    1    4    4    0    0 -0.17510015186E+00  0.31840580913E+01 -0.83735176960E+02  0.83795875474E+02  0.00000000000E+00 0.  1.
<mgrwt>
<rscale>  0 0.79338414E+02</rscale>
<asrwt>0</asrwt>
<pdfrwt beam="1">  1        2 0.60459069E-01 0.79338414E+02</pdfrwt>
<pdfrwt beam="2">  1       -1 0.61605413E-03 0.79338414E+02</pdfrwt>
<totfact> 0.28694609E+05</totfact>
</mgrwt>
</event>
<event>
 8    1  0.1226832E-020  0.7970043E+02  0.7818608E-02  0.1329904E+00
         -1   -1    0    0    0  501 -0.00000000000E+00  0.00000000000E+00  0.40096521979E+01  0.40096553655E+01  0.50400000000E-02 0.  1.
          2   -1    0    0  501    0  0.00000000000E+00 -0.00000000000E+00 -0.39605408733E+03  0.39605408734E+03  0.25500000000E-02 0. -1.
         24    2    1    2    0    0 -0.35527136788E-14 -0.17763568394E-14 -0.39204443513E+03  0.40006374270E+03  0.79700433550E+02 0.  0.
         66    2    3    3    0    0 -0.18932916046E+02 -0.14040809419E+02 -0.35727621568E+03  0.35805850628E+03  0.19999975289E+01 0.  0.
        -13    1    3    3    0    0  0.18932916046E+02  0.14040809419E+02 -0.34768219457E+02  0.42005236428E+02  0.10566000000E+00 0.  1.
         13    1    4    4    0    0 -0.65149825678E+01 -0.52811748354E+01 -0.12425001010E+03  0.12453277472E+03  0.10566000000E+00 0. -1.
        -13    1    4    4    0    0 -0.34808107435E+01 -0.17069988577E+01 -0.57174667307E+02  0.57306052335E+02  0.10566000000E+00 0.  1.
        -14    1    4    4    0    0 -0.89371227344E+01 -0.70526357259E+01 -0.17585153827E+03  0.17621967922E+03  0.00000000000E+00 0.  1.
<mgrwt>
<rscale>  0 0.79700434E+02</rscale>
<asrwt>0</asrwt>
<pdfrwt beam="1">  1        2 0.60931367E-01 0.79700434E+02</pdfrwt>
<pdfrwt beam="2">  1       -1 0.61687013E-03 0.79700434E+02</pdfrwt>
<totfact> 0.28433006E+05</totfact>
</mgrwt>
</event>
<event>
 8    1  0.1226832E-020  0.8060939E+02  0.7818608E-02  0.1327331E+00
         -1   -1    0    0    0  501 -0.00000000000E+00  0.00000000000E+00  0.29887251524E+02  0.29887251949E+02  0.50400000000E-02 0.  1.
          2   -1    0    0  501    0  0.00000000000E+00 -0.00000000000E+00 -0.54353219438E+02  0.54353219498E+02  0.25500000000E-02 0. -1.
         24    2    1    2    0    0  0.35527136788E-14  0.17763568394E-14 -0.24465967914E+02  0.84240471447E+02  0.80609388062E+02 0.  0.
         66    2    3    3    0    0  0.20051594129E+02  0.11959065251E+02 -0.46542471057E+02  0.52108418543E+02  0.20000005333E+01 0.  0.
        -13    1    3    3    0    0 -0.20051594129E+02 -0.11959065251E+02  0.22076503143E+02  0.32132052905E+02  0.10566000000E+00 0.  1.
         13    1    4    4    0    0  0.31403933371E+00  0.14792086036E+00 -0.77202861056E+00  0.85304952680E+00  0.10566000000E+00 0. -1.
        -13    1    4    4    0    0  0.94990296181E+01  0.54139109741E+01 -0.23636960221E+02  0.26043407002E+02  0.10566000000E+00 0.  1.
         14    1    4    4    0    0  0.10238525177E+02  0.63972334163E+01 -0.22133482225E+02  0.25211962014E+02  0.00000000000E+00 0. -1.
<mgrwt>
<rscale>  0 0.80609388E+02</rscale>
<asrwt>0</asrwt>
<pdfrwt beam="1">  1        2 0.83620338E-02 0.80609388E+02</pdfrwt>
<pdfrwt beam="2">  1       -1 0.45980388E-02 0.80609388E+02</pdfrwt>
<totfact> 0.14908290E+05</totfact>
</mgrwt>
</event>
<event>
 8    1  0.1226832E-020  0.7912879E+02  0.7818608E-02  0.1331542E+00
          2   -1    0    0  501    0  0.00000000000E+00  0.00000000000E+00  0.37375751747E+03  0.37375751748E+03  0.25500000000E-02 0. -1.
         -1   -1    0    0    0  501 -0.00000000000E+00 -0.00000000000E+00 -0.41881180786E+01  0.41881211111E+01  0.50400000000E-02 0.  1.
         24    2    1    2    0    0  0.00000000000E+00  0.00000000000E+00  0.36956939939E+03  0.37794563859E+03  0.79128785929E+02 0.  0.
         66    2    3    3    0    0 -0.13498275446E+02  0.31373769925E+01  0.36177456077E+03  0.36204541068E+03  0.20000001730E+01 0.  0.
        -13    1    3    3    0    0  0.13498275446E+02 -0.31373769925E+01  0.77948386232E+01  0.15900227910E+02  0.10566000000E+00 0.  1.
         13    1    4    4    0    0 -0.97165729517E+01  0.24014297954E+01  0.26634796855E+03  0.26653598288E+03  0.10566000000E+00 0. -1.
        -13    1    4    4    0    0 -0.82552566826E+00  0.37584230942E+00  0.31904506256E+02  0.31917572489E+02  0.10566000000E+00 0.  1.
        -14    1    4    4    0    0 -0.29561768257E+01  0.36010488765E+00  0.63522085963E+02  0.63591855312E+02  0.00000000000E+00 0.  1.
<mgrwt>
<rscale>  0 0.79128786E+02</rscale>
<asrwt>0</asrwt>
<pdfrwt beam="1">  1        2 0.57501142E-01 0.79128786E+02</pdfrwt>
<pdfrwt beam="2">  1       -1 0.64432625E-03 0.79128786E+02</pdfrwt>
<totfact> 0.28386458E+05</totfact>
</mgrwt>
</event>
<event>
 8    1  0.1226832E-020  0.7950561E+02  0.7818608E-02  0.1330460E+00
         -1   -1    0    0    0  501 -0.00000000000E+00  0.00000000000E+00  0.10975640191E+01  0.10975755908E+01  0.50400000000E-02 0.  1.
          2   -1    0    0  501    0  0.00000000000E+00 -0.00000000000E+00 -0.14398041792E+04  0.14398041792E+04  0.25500000000E-02 0. -1.
         24    2    1    2    0    0  0.88817841970E-15  0.00000000000E+00 -0.14387066152E+04  0.14409017548E+04  0.79505612384E+02 0.  0.
         66    2    3    3    0    0  0.63751766922E+01  0.19926859224E+02 -0.13318690493E+04  0.13320348671E+04  0.19999988812E+01 0.  0.
        -13    1    3    3    0    0 -0.63751766922E+01 -0.19926859224E+02 -0.10683756590E+03  0.10886688775E+03  0.10566000000E+00 0.  1.
         13    1    4    4    0    0  0.18013794300E+01  0.73817920520E+01 -0.47693655272E+03  0.47699708837E+03  0.10566000000E+00 0. -1.
        -13    1    4    4    0    0  0.17411984000E+01  0.46775658297E+01 -0.28045193922E+03  0.28049636855E+03  0.10566000000E+00 0.  1.
         14    1    4    4    0    0  0.28325988623E+01  0.78675013427E+01 -0.57448055737E+03  0.57454141017E+03  0.00000000000E+00 0. -1.
<mgrwt>
<rscale>  0 0.79505612E+02</rscale>
<asrwt>0</asrwt>
<pdfrwt beam="1">  1        2 0.22150682E+00 0.79505612E+02</pdfrwt>
<pdfrwt beam="2">  1       -1 0.16885805E-03 0.79505612E+02</pdfrwt>
<totfact> 0.34275851E+05</totfact>
</mgrwt>
</event>
<event>
 8    1  0.1226832E-020  0.8323574E+02  0.7818608E-02  0.1320112E+00
          2   -1    0    0  501    0  0.00000000000E+00  0.00000000000E+00  0.49549044535E+03  0.49549044536E+03  0.25500000000E-02 0. -1.
         -1   -1    0    0    0  501 -0.00000000000E+00 -0.00000000000E+00 -0.34956195643E+01  0.34956231976E+01  0.50400000000E-02 0.  1.
         24    2    1    2    0    0  0.35527136788E-14  0.00000000000E+00  0.49199482579E+03  0.49898606855E+03  0.83235737584E+02 0.  0.
         66    2    3    3    0    0  0.23272237102E+02  0.30040483141E+02  0.34752376114E+03  0.34960090420E+03  0.20000022893E+01 0.  0.
        -13    1    3    3    0    0 -0.23272237102E+02 -0.30040483141E+02  0.14447106464E+03  0.14938516436E+03  0.10566000000E+00 0.  1.
         13    1    4    4    0    0  0.10924619540E+01  0.16111815480E+01  0.18204132727E+02  0.18308221964E+02  0.10566000000E+00 0. -1.
        -13    1    4    4    0    0  0.18612124624E+02  0.23556775994E+02  0.26797929897E+03  0.26965579674E+03  0.10566000000E+00 0.  1.
        -14    1    4    4    0    0  0.35676505237E+01  0.48725255985E+01  0.61340329447E+02  0.61636885488E+02  0.00000000000E+00 0.  1.
<mgrwt>
<rscale>  0 0.83235738E+02</rscale>
<asrwt>0</asrwt>
<pdfrwt beam="1">  1        2 0.76229373E-01 0.83235738E+02</pdfrwt>
<pdfrwt beam="2">  1       -1 0.53778739E-03 0.83235738E+02</pdfrwt>
<totfact> 0.27376615E+05</totfact>
</mgrwt>
</event>
<event>
 8    1  0.1226832E-020  0.8068085E+02  0.7818608E-02  0.1327130E+00
          2   -1    0    0  501    0  0.00000000000E+00  0.00000000000E+00  0.16755433505E+04  0.16755433505E+04  0.25500000000E-02 0. -1.
         -1   -1    0    0    0  501 -0.00000000000E+00 -0.00000000000E+00 -0.97123064980E+00  0.97124372673E+00  0.50400000000E-02 0.  1.
         24    2    1    2    0    0  0.00000000000E+00  0.00000000000E+00  0.16745721198E+04  0.16765145942E+04  0.80680853256E+02 0.  0.
         66    2    3    3    0    0  0.10434565016E+02 -0.10248059322E+02  0.16184707717E+04  0.16185380878E+04  0.20000037111E+01 0.  0.
        -13    1    3    3    0    0 -0.10434565016E+02  0.10248059322E+02  0.56101348172E+02  0.57976506428E+02  0.10566000000E+00 0.  1.
         13    1    4    4    0    0  0.35639975792E+01 -0.29776092635E+01  0.48984838273E+03  0.48987040885E+03  0.10566000000E+00 0.  1.
        -13    1    4    4    0    0  0.66557216100E+01 -0.64733935611E+01  0.10339443779E+04  0.10339860692E+04  0.10566000000E+00 0. -1.
         14    1    4    4    0    0  0.21484582702E+00 -0.79705649766E+00  0.94678010990E+02  0.94681609739E+02  0.00000000000E+00 0. -1.
<mgrwt>
<rscale>  0 0.80680853E+02</rscale>
<asrwt>0</asrwt>
<pdfrwt beam="1">  1        2 0.25777427E+00 0.80680853E+02</pdfrwt>
<pdfrwt beam="2">  1       -1 0.14942205E-03 0.80680853E+02</pdfrwt>
<totfact> 0.30904140E+05</totfact>
</mgrwt>
</event>
<event>
 8    1  0.1226832E-020  0.7479035E+02  0.7818608E-02  0.1344521E+00
         -1   -1    0    0    0  501 -0.00000000000E+00  0.00000000000E+00  0.10590588178E+03  0.10590588190E+03  0.50400000000E-02 0.  1.
          2   -1    0    0  501    0  0.00000000000E+00 -0.00000000000E+00 -0.13204169668E+02  0.13204169914E+02  0.25500000000E-02 0. -1.
         24    2    1    2    0    0  0.35527136788E-14  0.00000000000E+00  0.92701712110E+02  0.11911005181E+03  0.74790353754E+02 0.  0.
         66    2    3    3    0    0 -0.31832312654E+02 -0.19348898210E+02  0.41681493547E+02  0.55937669737E+02  0.20000001218E+01 0.  0.
        -13    1    3    3    0    0  0.31832312654E+02  0.19348898210E+02  0.51020218563E+02  0.63172382075E+02  0.10566000000E+00 0.  1.
         13    1    4    4    0    0 -0.11861191714E+02 -0.69024977202E+01  0.15037956529E+02  0.20358871389E+02  0.10566000000E+00 0. -1.
        -13    1    4    4    0    0 -0.32044137906E+01 -0.17023766268E+01  0.34321584869E+01  0.49957211527E+01  0.10566000000E+00 0.  1.
        -14    1    4    4    0    0 -0.16766707150E+02 -0.10744023862E+02  0.23211378531E+02  0.30583077195E+02  0.00000000000E+00 0.  1.
<mgrwt>
<rscale>  0 0.74790354E+02</rscale>
<asrwt>0</asrwt>
<pdfrwt beam="1">  1        2 0.20314108E-02 0.74790354E+02</pdfrwt>
<pdfrwt beam="2">  1       -1 0.16293212E-01 0.74790354E+02</pdfrwt>
<totfact> 0.13850767E+05</totfact>
</mgrwt>
</event>
<event>
 8    1  0.1818883E-020  0.7750769E+02  0.7818608E-02  0.1336277E+00
          2   -1    0    0  501    0  0.00000000000E+00  0.00000000000E+00  0.16917927255E+03  0.16917927257E+03  0.25500000000E-02 0. -1.
         -1   -1    0    0    0  501 -0.00000000000E+00 -0.00000000000E+00 -0.88773316432E+01  0.88773330739E+01  0.50400000000E-02 0.  1.
         24    2    1    2    0    0 -0.35527136788E-14  0.00000000000E+00  0.16030194091E+03  0.17805660564E+03  0.77507693519E+02 0.  0.
         66    2    3    3    0    0  0.24799295185E+02  0.21377908556E+01  0.14836328571E+03  0.15045012373E+03  0.19999986055E+01 0.  0.
        -13    1    3    3    0    0 -0.24799295185E+02 -0.21377908556E+01  0.11938655202E+02  0.27606481911E+02  0.10566000000E+00 0.  1.
         13    1    4    4    0    0  0.10893088647E+02  0.96131644459E+00  0.65139565954E+02  0.66051175056E+02  0.10566000000E+00 0. -1.
        -13    1    4    4    0    0  0.13766573463E+02  0.99154949185E+00  0.81706525301E+02  0.82864160866E+02  0.10566000000E+00 0.  1.
        -14    1    4    4    0    0  0.13963307500E+00  0.18492491918E+00  0.15171944501E+01  0.15347878097E+01  0.00000000000E+00 0.  1.
<mgrwt>
<rscale>  0 0.77507694E+02</rscale>
<asrwt>0</asrwt>
<pdfrwt beam="1">  1        2 0.26027579E-01 0.77507694E+02</pdfrwt>
<pdfrwt beam="2">  1       -1 0.13657435E-02 0.77507694E+02</pdfrwt>
<totfact> 0.22653261E+05</totfact>
</mgrwt>
</event>
<event>
 8    1  0.1226832E-020  0.8034208E+02  0.7818608E-02  0.1328083E+00
          2   -1    0    0  501    0  0.00000000000E+00  0.00000000000E+00  0.74175328484E+02  0.74175328528E+02  0.25500000000E-02 0. -1.
         -1   -1    0    0    0  501 -0.00000000000E+00 -0.00000000000E+00 -0.21755382057E+02  0.21755382641E+02  0.50400000000E-02 0.  1.
         24    2    1    2    0    0  0.00000000000E+00  0.00000000000E+00  0.52419946427E+02  0.95930711169E+02  0.80342084626E+02 0.  0.
         66    2    3    3    0    0 -0.33546431780E+02 -0.70009615187E+01  0.51196240186E+02  0.61639529090E+02  0.19999974779E+01 0.  0.
        -13    1    3    3    0    0  0.33546431780E+02  0.70009615187E+01  0.12237062411E+01  0.34291182079E+02  0.10566000000E+00 0.  1.
         13    1    4    4    0    0 -0.23281138784E+02 -0.45547221650E+01  0.34632951026E+02  0.41978677658E+02  0.10566000000E+00 0.  1.
        -13    1    4    4    0    0 -0.13350930832E+01 -0.40711670199E-01  0.22886072981E+01  0.26519838577E+01  0.10566000000E+00 0. -1.
        -14    1    4    4    0    0 -0.89301999134E+01 -0.24055276835E+01  0.14274681861E+02  0.17008867575E+02  0.00000000000E+00 0.  1.
<mgrwt>
<rscale>  0 0.80342085E+02</rscale>
<asrwt>0</asrwt>
<pdfrwt beam="1">  1        2 0.11411589E-01 0.80342085E+02</pdfrwt>
<pdfrwt beam="2">  1       -1 0.33469819E-02 0.80342085E+02</pdfrwt>
<totfact> 0.16191309E+05</totfact>
</mgrwt>
</event>
<event>
 8    1  0.1226832E-020  0.8149216E+02  0.7818608E-02  0.1324869E+00
         -1   -1    0    0    0  501 -0.00000000000E+00  0.00000000000E+00  0.25034308502E+01  0.25034359236E+01  0.50400000000E-02 0.  1.
          2   -1    0    0  501    0  0.00000000000E+00 -0.00000000000E+00 -0.66318649089E+03  0.66318649090E+03  0.25500000000E-02 0. -1.
         24    2    1    2    0    0  0.00000000000E+00  0.35527136788E-14 -0.66068306004E+03  0.66568992682E+03  0.81492164311E+02 0.  0.
         66    2    3    3    0    0  0.32682433496E+02  0.17749731029E+02 -0.46601429765E+03  0.46750028878E+03  0.19999964424E+01 0.  0.
        -13    1    3    3    0    0 -0.32682433496E+02 -0.17749731029E+02 -0.19466876239E+03  0.19818963804E+03  0.10566000000E+00 0.  1.
         13    1    4    4    0    0  0.11629124298E+02  0.67162724194E+01 -0.16139677526E+03  0.16195454632E+03  0.10566000000E+00 0. -1.
        -13    1    4    4    0    0  0.46057586631E+01  0.21055084945E+01 -0.69983186339E+02  0.70166257654E+02  0.10566000000E+00 0.  1.
         14    1    4    4    0    0  0.16447550535E+02  0.89279501152E+01 -0.23463433605E+03  0.23537948480E+03  0.00000000000E+00 0. -1.
<mgrwt>
<rscale>  0 0.81492164E+02</rscale>
<asrwt>0</asrwt>
<pdfrwt beam="1">  1        2 0.10202855E+00 0.81492164E+02</pdfrwt>
<pdfrwt beam="2">  1       -1 0.38514413E-03 0.81492164E+02</pdfrwt>
<totfact> 0.31472647E+05</totfact>
</mgrwt>
</event>
<event>
 8    1  0.1226832E-020  0.8031515E+02  0.7818608E-02  0.1328159E+00
         -1   -1    0    0    0  501 -0.00000000000E+00  0.00000000000E+00  0.16399708160E+02  0.16399708934E+02  0.50400000000E-02 0.  1.
          2   -1    0    0  501    0  0.00000000000E+00 -0.00000000000E+00 -0.98332885875E+02  0.98332885908E+02  0.25500000000E-02 0. -1.
         24    2    1    2    0    0  0.00000000000E+00  0.88817841970E-15 -0.81933177715E+02  0.11473259484E+03  0.80315146198E+02 0.  0.
         66    2    3    3    0    0 -0.37277868022E+02 -0.57571336076E+01 -0.21413154301E+02  0.43420124476E+02  0.20000001877E+01 0.  0.
        -13    1    3    3    0    0  0.37277868022E+02  0.57571336076E+01 -0.60520023414E+02  0.71312470367E+02  0.10566000000E+00 0.  1.
         13    1    4    4    0    0 -0.24897509139E+02 -0.35795185126E+01 -0.14256276861E+02  0.28912826013E+02  0.10566000000E+00 0. -1.
        -13    1    4    4    0    0 -0.78947009269E+01 -0.12989851214E+01 -0.39482496345E+01  0.89226399839E+01  0.10566000000E+00 0.  1.
        -14    1    4    4    0    0 -0.44856579567E+01 -0.87862997367E+00 -0.32086278053E+01  0.55846584791E+01  0.00000000000E+00 0.  1.
<mgrwt>
<rscale>  0 0.80315146E+02</rscale>
<asrwt>0</asrwt>
<pdfrwt beam="1">  1        2 0.15128136E-01 0.80315146E+02</pdfrwt>
<pdfrwt beam="2">  1       -1 0.25230322E-02 0.80315146E+02</pdfrwt>
<totfact> 0.17457932E+05</totfact>
</mgrwt>
</event>
<event>
 8    1  0.1226832E-020  0.8115223E+02  0.7818608E-02  0.1325813E+00
         -1   -1    0    0    0  501 -0.00000000000E+00  0.00000000000E+00  0.86523342526E+02  0.86523342673E+02  0.50400000000E-02 0.  1.
          2   -1    0    0  501    0  0.00000000000E+00 -0.00000000000E+00 -0.19028633565E+02  0.19028633736E+02  0.25500000000E-02 0. -1.
         24    2    1    2    0    0  0.00000000000E+00 -0.71054273576E-14  0.67494708961E+02  0.10555197641E+03  0.81152227241E+02 0.  0.
         66    2    3    3    0    0 -0.19070293029E+02  0.32002345804E+02  0.54602417099E+02  0.66130553723E+02  0.19999923565E+01 0.  0.
        -13    1    3    3    0    0  0.19070293029E+02 -0.32002345804E+02  0.12892291861E+02  0.39421422686E+02  0.10566000000E+00 0.  1.
         13    1    4    4    0    0 -0.64548275474E+01  0.10020436074E+02  0.18251024297E+02  0.21798738260E+02  0.10566000000E+00 0. -1.
        -13    1    4    4    0    0 -0.51061522236E+01  0.87151714184E+01  0.15532882168E+02  0.18528588610E+02  0.10566000000E+00 0.  1.
         14    1    4    4    0    0 -0.75093132578E+01  0.13266738311E+02  0.20818510634E+02  0.25803226853E+02  0.00000000000E+00 0. -1.
<mgrwt>
<rscale>  0 0.81152227E+02</rscale>
<asrwt>0</asrwt>
<pdfrwt beam="1">  1        2 0.29274822E-02 0.81152227E+02</pdfrwt>
<pdfrwt beam="2">  1       -1 0.13311283E-01 0.81152227E+02</pdfrwt>
<totfact> 0.11793596E+05</totfact>
</mgrwt>
</event>
<event>
 8    1  0.1226832E-020  0.8079371E+02  0.7818608E-02  0.1326814E+00
          2   -1    0    0  501    0  0.00000000000E+00  0.00000000000E+00  0.16157071258E+02  0.16157071459E+02  0.25500000000E-02 0. -1.
         -1   -1    0    0    0  501 -0.00000000000E+00 -0.00000000000E+00 -0.10100258430E+03  0.10100258443E+03  0.50400000000E-02 0.  1.
         24    2    1    2    0    0  0.00000000000E+00  0.00000000000E+00 -0.84845513046E+02  0.11715965589E+03  0.80793711909E+02 0.  0.
         66    2    3    3    0    0 -0.18605603372E+02  0.35409191169E+02 -0.34516479725E+02  0.52871227264E+02  0.20000009445E+01 0.  0.
        -13    1    3    3    0    0  0.18605603372E+02 -0.35409191169E+02 -0.50329033321E+02  0.64288428625E+02  0.10566000000E+00 0.  1.
         13    1    4    4    0    0 -0.93196269690E+01  0.18570010922E+02 -0.18779191097E+02  0.28006605199E+02  0.10566000000E+00 0. -1.
        -13    1    4    4    0    0 -0.89595600081E+01  0.16180902402E+02 -0.14903924749E+02  0.23753598781E+02  0.10566000000E+00 0.  1.
         14    1    4    4    0    0 -0.32641639448E+00  0.65827784464E+00 -0.83336387909E+00  0.11110232843E+01  0.00000000000E+00 0. -1.
<mgrwt>
<rscale>  0 0.80793712E+02</rscale>
<asrwt>0</asrwt>
<pdfrwt beam="1">  1        2 0.24857033E-02 0.80793712E+02</pdfrwt>
<pdfrwt beam="2">  1       -1 0.15538859E-01 0.80793712E+02</pdfrwt>
<totfact> 0.11540038E+05</totfact>
</mgrwt>
</event>
<event>
 8    1  0.1226832E-020  0.7928277E+02  0.7818608E-02  0.1331099E+00
          2   -1    0    0  501    0  0.00000000000E+00  0.00000000000E+00  0.75335090902E+03  0.75335090902E+03  0.25500000000E-02 0. -1.
         -1   -1    0    0    0  501 -0.00000000000E+00 -0.00000000000E+00 -0.20859295923E+01  0.20859356811E+01  0.50400000000E-02 0.  1.
         24    2    1    2    0    0 -0.17763568394E-14 -0.17763568394E-14  0.75126497943E+03  0.75543684470E+03  0.79282766248E+02 0.  0.
         66    2    3    3    0    0  0.15466332326E+02  0.11764000392E+02  0.70481902293E+03  0.70508967815E+03  0.20000030546E+01 0.  0.
        -13    1    3    3    0    0 -0.15466332326E+02 -0.11764000392E+02  0.46445956494E+02  0.50347166549E+02  0.10566000000E+00 0.  1.
         13    1    4    4    0    0  0.36403151561E+01  0.21286417089E+01  0.14689508120E+03  0.14695563634E+03  0.10566000000E+00 0. -1.
        -13    1    4    4    0    0  0.11213235910E+01  0.11975439237E+01  0.48838947123E+02  0.48866608212E+02  0.10566000000E+00 0.  1.
         14    1    4    4    0    0  0.10704693579E+02  0.84378147598E+01  0.50908499461E+03  0.50926743360E+03  0.00000000000E+00 0. -1.
<mgrwt>
<rscale>  0 0.79282766E+02</rscale>
<asrwt>0</asrwt>
<pdfrwt beam="1">  1        2 0.11590037E+00 0.79282766E+02</pdfrwt>
<pdfrwt beam="2">  1       -1 0.32091209E-03 0.79282766E+02</pdfrwt>
<totfact> 0.34787424E+05</totfact>
</mgrwt>
</event>
<event>
 8    1  0.1226832E-020  0.8006094E+02  0.7818608E-02  0.1328879E+00
         -1   -1    0    0    0  501 -0.00000000000E+00  0.00000000000E+00  0.11497760521E+02  0.11497761626E+02  0.50400000000E-02 0.  1.
          2   -1    0    0  501    0  0.00000000000E+00 -0.00000000000E+00 -0.13936961242E+03  0.13936961244E+03  0.25500000000E-02 0. -1.
         24    2    1    2    0    0  0.17763568394E-14 -0.88817841970E-15 -0.12787185190E+03  0.15086737407E+03  0.80060939606E+02 0.  0.
         66    2    3    3    0    0 -0.12514641746E+02  0.78494426875E+01 -0.13403418387E+03  0.13486064086E+03  0.19999998050E+01 0.  0.
        -13    1    3    3    0    0  0.12514641746E+02 -0.78494426875E+01  0.61623319740E+01  0.16006733206E+02  0.10566000000E+00 0.  1.
         13    1    4    4    0    0 -0.13945990101E+01  0.23826018360E+00 -0.13527227206E+02  0.13601423243E+02  0.10566000000E+00 0.  1.
        -13    1    4    4    0    0 -0.46961354122E+01  0.29119071308E+01 -0.49239294930E+02  0.49548483531E+02  0.10566000000E+00 0. -1.
        -14    1    4    4    0    0 -0.64239073233E+01  0.46992753731E+01 -0.71267661735E+02  0.71710734089E+02  0.00000000000E+00 0.  1.
<mgrwt>
<rscale>  0 0.80060940E+02</rscale>
<asrwt>0</asrwt>
<pdfrwt beam="1">  1        2 0.21441478E-01 0.80060940E+02</pdfrwt>
<pdfrwt beam="2">  1       -1 0.17688864E-02 0.80060940E+02</pdfrwt>
<totfact> 0.19526716E+05</totfact>
</mgrwt>
</event>
<event>
 8    1  0.1226832E-020  0.7888123E+02  0.7818608E-02  0.1332257E+00
         -1   -1    0    0    0  501 -0.00000000000E+00  0.00000000000E+00  0.18734315533E+02  0.18734316211E+02  0.50400000000E-02 0.  1.
          2   -1    0    0  501    0  0.00000000000E+00 -0.00000000000E+00 -0.83032772268E+02  0.83032772307E+02  0.25500000000E-02 0. -1.
         24    2    1    2    0    0  0.00000000000E+00  0.35527136788E-14 -0.64298456735E+02  0.10176708852E+03  0.78881232032E+02 0.  0.
         66    2    3    3    0    0 -0.91617710944E+01  0.30700187632E+02 -0.61790001768E+02  0.69630768246E+02  0.19999994351E+01 0.  0.
        -13    1    3    3    0    0  0.91617710944E+01 -0.30700187632E+02 -0.25084549668E+01  0.32136320272E+02  0.10566000000E+00 0.  1.
         13    1    4    4    0    0 -0.10312309914E+00  0.48245421662E+00 -0.63749640259E+00  0.81299578328E+00  0.10566000000E+00 0. -1.
        -13    1    4    4    0    0 -0.35131059462E+01  0.10600593126E+02 -0.22459590022E+02  0.25083038811E+02  0.10566000000E+00 0.  1.
         14    1    4    4    0    0 -0.55455420490E+01  0.19617140290E+02 -0.38692915344E+02  0.43734733652E+02  0.00000000000E+00 0. -1.
<mgrwt>
<rscale>  0 0.78881232E+02</rscale>
<asrwt>0</asrwt>
<pdfrwt beam="1">  1        2 0.12774272E-01 0.78881232E+02</pdfrwt>
<pdfrwt beam="2">  1       -1 0.28822025E-02 0.78881232E+02</pdfrwt>
<totfact> 0.17508118E+05</totfact>
</mgrwt>
</event>
<event>
 8    1  0.1226832E-020  0.7942772E+02  0.7818608E-02  0.1330683E+00
          2   -1    0    0  501    0  0.00000000000E+00  0.00000000000E+00  0.15071567709E+02  0.15071567924E+02  0.25500000000E-02 0. -1.
         -1   -1    0    0    0  501 -0.00000000000E+00 -0.00000000000E+00 -0.10464676282E+03  0.10464676294E+03  0.50400000000E-02 0.  1.
         24    2    1    2    0    0  0.00000000000E+00 -0.88817841970E-15 -0.89575195114E+02  0.11971833087E+03  0.79427722907E+02 0.  0.
         66    2    3    3    0    0 -0.32864572226E+02  0.71148982391E+01 -0.13038646090E+02  0.36120744868E+02  0.20000083508E+01 0.  0.
        -13    1    3    3    0    0  0.32864572226E+02 -0.71148982391E+01 -0.76536549024E+02  0.83597586001E+02  0.10566000000E+00 0.  1.
         13    1    4    4    0    0 -0.16660957906E+02  0.29012923233E+01 -0.65341329793E+01  0.18130390876E+02  0.10566000000E+00 0. -1.
        -13    1    4    4    0    0 -0.51927340335E+00  0.57777275292E-01 -0.79339416121E-01  0.53892658082E+00  0.10566000000E+00 0. -1.
         14    1    4    4    0    0 -0.15684340917E+02  0.41558286405E+01 -0.64251736942E+01  0.17451427411E+02  0.00000000000E+00 0. -1.
<mgrwt>
<rscale>  0 0.79427723E+02</rscale>
<asrwt>0</asrwt>
<pdfrwt beam="1">  1        2 0.23187028E-02 0.79427723E+02</pdfrwt>
<pdfrwt beam="2">  1       -1 0.16099502E-01 0.79427723E+02</pdfrwt>
<totfact> 0.11949682E+05</totfact>
</mgrwt>
</event>
<event>
 8    1  0.1226832E-020  0.7090081E+02  0.7818608E-02  0.1357056E+00
         -1   -1    0    0    0  501 -0.00000000000E+00  0.00000000000E+00  0.29511305814E+02  0.29511306245E+02  0.50400000000E-02 0.  1.
          2   -1    0    0  501    0  0.00000000000E+00 -0.00000000000E+00 -0.42584742890E+02  0.42584742967E+02  0.25500000000E-02 0. -1.
         24    2    1    2    0    0 -0.35527136788E-14  0.00000000000E+00 -0.13073437076E+02  0.72096049212E+02  0.70900814910E+02 0.  0.
         66    2    3    3    0    0 -0.24567692000E+02  0.82750488860E+01 -0.31087570324E+02  0.40527582588E+02  0.19999993784E+01 0.  0.
        -13    1    3    3    0    0  0.24567692000E+02 -0.82750488860E+01  0.18014133248E+02  0.31568466624E+02  0.10566000000E+00 0.  1.
         13    1    4    4    0    0 -0.17327495705E+02  0.59268504990E+01 -0.21544607826E+02  0.28276332058E+02  0.10566000000E+00 0. -1.
        -13    1    4    4    0    0 -0.16827272156E+01  0.10080462797E+01 -0.23325623893E+01  0.30495474287E+01  0.10566000000E+00 0.  1.
         14    1    4    4    0    0 -0.55574690794E+01  0.13401521074E+01 -0.72104001084E+01  0.92017031012E+01  0.00000000000E+00 0. -1.
<mgrwt>
<rscale>  0 0.70900815E+02</rscale>
<asrwt>0</asrwt>
<pdfrwt beam="1">  1        2 0.65514989E-02 0.70900815E+02</pdfrwt>
<pdfrwt beam="2">  1       -1 0.45402010E-02 0.70900815E+02</pdfrwt>
<totfact> 0.20078060E+05</totfact>
</mgrwt>
</event>
<event>
 8    1  0.1226832E-020  0.7876375E+02  0.7818608E-02  0.1332597E+00
         -1   -1    0    0    0  501 -0.00000000000E+00  0.00000000000E+00  0.85725270057E+02  0.85725270205E+02  0.50400000000E-02 0.  1.
          2   -1    0    0  501    0  0.00000000000E+00 -0.00000000000E+00 -0.18091887653E+02  0.18091887833E+02  0.25500000000E-02 0. -1.
         24    2    1    2    0    0  0.00000000000E+00 -0.71054273576E-14  0.67633382404E+02  0.10381715804E+03  0.78763747293E+02 0.  0.
         66    2    3    3    0    0 -0.16144756846E+02  0.35710279680E+02  0.29076927450E+02  0.48839993404E+02  0.19999993349E+01 0.  0.
        -13    1    3    3    0    0  0.16144756846E+02 -0.35710279680E+02  0.38556454954E+02  0.54977164633E+02  0.10566000000E+00 0.  1.
         13    1    4    4    0    0 -0.10276690401E+02  0.21977196335E+02  0.18196651467E+02  0.30327162956E+02  0.10566000000E+00 0. -1.
        -13    1    4    4    0    0 -0.35453331593E+01  0.79663500133E+01  0.70209917565E+01  0.11195428041E+02  0.10566000000E+00 0.  1.
        -14    1    4    4    0    0 -0.23227332853E+01  0.57667333323E+01  0.38592842265E+01  0.73174024067E+01  0.00000000000E+00 0.  1.
<mgrwt>
<rscale>  0 0.78763747E+02</rscale>
<asrwt>0</asrwt>
<pdfrwt beam="1">  1        2 0.27833674E-02 0.78763747E+02</pdfrwt>
<pdfrwt beam="2">  1       -1 0.13188503E-01 0.78763747E+02</pdfrwt>
<totfact> 0.12723299E+05</totfact>
</mgrwt>
</event>
<event>
 8    1  0.1226832E-020  0.7972413E+02  0.7818608E-02  0.1329836E+00
         -1   -1    0    0    0  501 -0.00000000000E+00  0.00000000000E+00  0.13275791844E+03  0.13275791853E+03  0.50400000000E-02 0.  1.
          2   -1    0    0  501    0  0.00000000000E+00 -0.00000000000E+00 -0.11969035138E+02  0.11969035409E+02  0.25500000000E-02 0. -1.
         24    2    1    2    0    0  0.00000000000E+00 -0.35527136788E-14  0.12078888330E+03  0.14472695394E+03  0.79724129777E+02 0.  0.
         66    2    3    3    0    0  0.30446398233E+01  0.25674079994E+02  0.11545116509E+03  0.11832751048E+03  0.20000004584E+01 0.  0.
        -13    1    3    3    0    0 -0.30446398233E+01 -0.25674079994E+02  0.53377182117E+01  0.26399443459E+02  0.10566000000E+00 0.  1.
         13    1    4    4    0    0  0.89178423235E+00  0.35314807390E+01  0.15056839772E+02  0.15491488737E+02  0.10566000000E+00 0. -1.
        -13    1    4    4    0    0  0.20985536763E+00  0.62655575086E+01  0.26858700941E+02  0.27580830851E+02  0.10566000000E+00 0.  1.
         14    1    4    4    0    0  0.19430002234E+01  0.15877041747E+02  0.73535624375E+02  0.75255190896E+02  0.00000000000E+00 0. -1.
<mgrwt>
<rscale>  0 0.79724130E+02</rscale>
<asrwt>0</asrwt>
<pdfrwt beam="1">  1        2 0.18413901E-02 0.79724130E+02</pdfrwt>
<pdfrwt beam="2">  1       -1 0.20424295E-01 0.79724130E+02</pdfrwt>
<totfact> 0.11215006E+05</totfact>
</mgrwt>
</event>
<event>
 8    1  0.1226832E-020  0.7926990E+02  0.7818608E-02  0.1331136E+00
         -1   -1    0    0    0  501 -0.00000000000E+00  0.00000000000E+00  0.19384637031E+03  0.19384637037E+03  0.50400000000E-02 0.  1.
          2   -1    0    0  501    0  0.00000000000E+00 -0.00000000000E+00 -0.81039914392E+01  0.81039918404E+01  0.25500000000E-02 0. -1.
         24    2    1    2    0    0  0.00000000000E+00  0.71054273576E-14  0.18574237887E+03  0.20195036221E+03  0.79269902803E+02 0.  0.
         66    2    3    3    0    0 -0.23097585931E+02 -0.32123934501E+02  0.88178431974E+02  0.96668927281E+02  0.19999981826E+01 0.  0.
        -13    1    3    3    0    0  0.23097585931E+02  0.32123934501E+02  0.97563946892E+02  0.10528143493E+03  0.10566000000E+00 0.  1.
         13    1    4    4    0    0 -0.16946465270E+02 -0.22949250564E+02  0.62869087220E+02  0.69039004038E+02  0.10566000000E+00 0. -1.
        -13    1    4    4    0    0 -0.84061969374E+00 -0.79778869463E+00  0.25136341898E+01  0.27699511091E+01  0.10566000000E+00 0.  1.
         14    1    4    4    0    0 -0.53105009666E+01 -0.83768952420E+01  0.22795710563E+02  0.24859972134E+02  0.00000000000E+00 0. -1.
<mgrwt>
<rscale>  0 0.79269903E+02</rscale>
<asrwt>0</asrwt>
<pdfrwt beam="1">  1        2 0.12467680E-02 0.79269903E+02</pdfrwt>
<pdfrwt beam="2">  1       -1 0.29822518E-01 0.79269903E+02</pdfrwt>
<totfact> 0.10291255E+05</totfact>
</mgrwt>
</event>
<event>
 8    1  0.1226832E-020  0.8318117E+02  0.7818608E-02  0.1320259E+00
          2   -1    0    0  501    0  0.00000000000E+00  0.00000000000E+00  0.16636979065E+04  0.16636979065E+04  0.25500000000E-02 0. -1.
         -1   -1    0    0    0  501 -0.00000000000E+00 -0.00000000000E+00 -0.10397119950E+01  0.10397242106E+01  0.50400000000E-02 0.  1.
         24    2    1    2    0    0  0.00000000000E+00  0.00000000000E+00  0.16626581945E+04  0.16647376307E+04  0.83181171882E+02 0.  0.
         66    2    3    3    0    0  0.20353813261E+01 -0.11308825012E+02  0.16312776050E+04  0.16313192995E+04  0.19999972356E+01 0.  0.
        -13    1    3    3    0    0 -0.20353813261E+01  0.11308825012E+02  0.31380589455E+02  0.33418331180E+02  0.10566000000E+00 0.  1.
         13    1    4    4    0    0  0.30919777844E+00 -0.55032647391E+01  0.69775945953E+03  0.69778123796E+03  0.10566000000E+00 0. -1.
        -13    1    4    4    0    0  0.59060557432E+00 -0.21121212468E+01  0.28971425378E+03  0.28972257398E+03  0.10566000000E+00 0. -1.
         14    1    4    4    0    0  0.11355779733E+01 -0.36934390258E+01  0.64380389172E+03  0.64381548756E+03  0.00000000000E+00 0. -1.
<mgrwt>
<rscale>  0 0.83181172E+02</rscale>
<asrwt>0</asrwt>
<pdfrwt beam="1">  1        2 0.25595296E+00 0.83181172E+02</pdfrwt>
<pdfrwt beam="2">  1       -1 0.15995698E-03 0.83181172E+02</pdfrwt>
<totfact> 0.28650438E+05</totfact>
</mgrwt>
</event>
<event>
 8    1  0.1226832E-020  0.7950489E+02  0.7818608E-02  0.1330462E+00
          2   -1    0    0  501    0  0.00000000000E+00  0.00000000000E+00  0.59060291265E+02  0.59060291320E+02  0.25500000000E-02 0. -1.
         -1   -1    0    0    0  501 -0.00000000000E+00 -0.00000000000E+00 -0.26756675165E+02  0.26756675639E+02  0.50400000000E-02 0.  1.
         24    2    1    2    0    0  0.00000000000E+00  0.00000000000E+00  0.32303616100E+02  0.85816966959E+02  0.79504894220E+02 0.  0.
         66    2    3    3    0    0 -0.17560643175E+02  0.33149326704E+02  0.30276805306E+02  0.48248720052E+02  0.19999993871E+01 0.  0.
        -13    1    3    3    0    0  0.17560643175E+02 -0.33149326704E+02  0.20268107942E+01  0.37568246907E+02  0.10566000000E+00 0.  1.
         13    1    4    4    0    0 -0.74029357447E+01  0.14176554680E+02  0.12059990023E+02  0.20030793385E+02  0.10566000000E+00 0. -1.
        -13    1    4    4    0    0 -0.42239506276E+00  0.13175466183E+01  0.11117682979E+01  0.17780718389E+01  0.10566000000E+00 0.  1.
         14    1    4    4    0    0 -0.97353123672E+01  0.17655225405E+02  0.17105046985E+02  0.26439854828E+02  0.00000000000E+00 0. -1.
<mgrwt>
<rscale>  0 0.79504894E+02</rscale>
<asrwt>0</asrwt>
<pdfrwt beam="1">  1        2 0.90861985E-02 0.79504894E+02</pdfrwt>
<pdfrwt beam="2">  1       -1 0.41164117E-02 0.79504894E+02</pdfrwt>
<totfact> 0.15773922E+05</totfact>
</mgrwt>
</event>
<event>
 8    1  0.1226832E-020  0.8040495E+02  0.7818608E-02  0.1327906E+00
          2   -1    0    0  501    0  0.00000000000E+00  0.00000000000E+00  0.10883924906E+02  0.10883925204E+02  0.25500000000E-02 0. -1.
         -1   -1    0    0    0  501 -0.00000000000E+00 -0.00000000000E+00 -0.14849779863E+03  0.14849779872E+03  0.50400000000E-02 0.  1.
         24    2    1    2    0    0  0.00000000000E+00  0.44408920985E-15 -0.13761387373E+03  0.15938172392E+03  0.80404948097E+02 0.  0.
         66    2    3    3    0    0 -0.32095996367E+02  0.22318862682E+01 -0.21147850510E+02  0.38553415869E+02  0.19999987163E+01 0.  0.
        -13    1    3    3    0    0  0.32095996367E+02 -0.22318862682E+01 -0.11646602322E+03  0.12082830805E+03  0.10566000000E+00 0.  1.
         13    1    4    4    0    0 -0.25228494798E+02  0.15900172372E+01 -0.16834812714E+02  0.30371486427E+02  0.10566000000E+00 0. -1.
        -13    1    4    4    0    0 -0.51804444578E+01  0.18726477946E+00 -0.34936425028E+01  0.62521016347E+01  0.10566000000E+00 0.  1.
        -14    1    4    4    0    0 -0.16870571111E+01  0.45460425163E+00 -0.81939529335E+00  0.19298278080E+01  0.00000000000E+00 0.  1.
<mgrwt>
<rscale>  0 0.80404948E+02</rscale>
<asrwt>0</asrwt>
<pdfrwt beam="1">  1        2 0.16744501E-02 0.80404948E+02</pdfrwt>
<pdfrwt beam="2">  1       -1 0.22845814E-01 0.80404948E+02</pdfrwt>
<totfact> 0.10677797E+05</totfact>
</mgrwt>
</event>
<event>
 8    1  0.1226832E-020  0.8082680E+02  0.7818608E-02  0.1326721E+00
          2   -1    0    0  501    0  0.00000000000E+00  0.00000000000E+00  0.31118849577E+02  0.31118849681E+02  0.25500000000E-02 0. -1.
         -1   -1    0    0    0  501 -0.00000000000E+00 -0.00000000000E+00 -0.52484038312E+02  0.52484038554E+02  0.50400000000E-02 0.  1.
         24    2    1    2    0    0 -0.35527136788E-14  0.00000000000E+00 -0.21365188736E+02  0.83602888235E+02  0.80826800206E+02 0.  0.
         66    2    3    3    0    0 -0.27172538203E+02 -0.40836002304E+01  0.19928494942E+02  0.34002463853E+02  0.20000035542E+01 0.  0.
        -13    1    3    3    0    0  0.27172538203E+02  0.40836002304E+01 -0.41293683677E+02  0.49600424382E+02  0.10566000000E+00 0.  1.
         13    1    4    4    0    0 -0.16365367149E+02 -0.18477027161E+01  0.12347602952E+02  0.20584307371E+02  0.10566000000E+00 0. -1.
        -13    1    4    4    0    0 -0.20752430295E+01 -0.68780352017E+00  0.17808991785E+01  0.28217854691E+01  0.10566000000E+00 0.  1.
         14    1    4    4    0    0 -0.87319280243E+01 -0.15480939941E+01  0.57999928115E+01  0.10596371013E+02  0.00000000000E+00 0. -1.
<mgrwt>
<rscale>  0 0.80826800E+02</rscale>
<asrwt>0</asrwt>
<pdfrwt beam="1">  1        2 0.47875153E-02 0.80826800E+02</pdfrwt>
<pdfrwt beam="2">  1       -1 0.80744675E-02 0.80826800E+02</pdfrwt>
<totfact> 0.13168337E+05</totfact>
</mgrwt>
</event>
<event>
 8    1  0.1226832E-020  0.8071311E+02  0.7818608E-02  0.1327040E+00
          2   -1    0    0  501    0  0.00000000000E+00  0.00000000000E+00  0.39540552283E+03  0.39540552283E+03  0.25500000000E-02 0. -1.
         -1   -1    0    0    0  501 -0.00000000000E+00 -0.00000000000E+00 -0.41189377982E+01  0.41189408818E+01  0.50400000000E-02 0.  1.
         24    2    1    2    0    0  0.00000000000E+00  0.00000000000E+00  0.39128658503E+03  0.39952446372E+03  0.80713106029E+02 0.  0.
         66    2    3    3    0    0  0.33188983471E+02  0.30101706636E+01  0.30821229666E+03  0.31001514407E+03  0.19999976554E+01 0.  0.
        -13    1    3    3    0    0 -0.33188983471E+02 -0.30101706636E+01  0.83074288372E+02  0.89509319648E+02  0.10566000000E+00 0.  1.
         13    1    4    4    0    0  0.62182882514E+01  0.10777287767E+01  0.56803012339E+02  0.57152620088E+02  0.10566000000E+00 0. -1.
        -13    1    4    4    0    0  0.92114266915E+01  0.11125662927E+01  0.90067408452E+02  0.90544118609E+02  0.10566000000E+00 0.  1.
        -14    1    4    4    0    0  0.17759268528E+02  0.81987559412E+00  0.16134187586E+03  0.16231840537E+03  0.00000000000E+00 0.  1.
<mgrwt>
<rscale>  0 0.80713106E+02</rscale>
<asrwt>0</asrwt>
<pdfrwt beam="1">  1        2 0.60831605E-01 0.80713106E+02</pdfrwt>
<pdfrwt beam="2">  1       -1 0.63368312E-03 0.80713106E+02</pdfrwt>
<totfact> 0.27494398E+05</totfact>
</mgrwt>
</event>
<event>
 8    1  0.1226832E-020  0.8093223E+02  0.7818608E-02  0.1326427E+00
          2   -1    0    0  501    0  0.00000000000E+00  0.00000000000E+00  0.15623765852E+04  0.15623765852E+04  0.25500000000E-02 0. -1.
         -1   -1    0    0    0  501 -0.00000000000E+00 -0.00000000000E+00 -0.10480808570E+01  0.10480929750E+01  0.50400000000E-02 0.  1.
         24    2    1    2    0    0 -0.17763568394E-14  0.00000000000E+00  0.15613285043E+04  0.15634246782E+04  0.80932230039E+02 0.  0.
         66    2    3    3    0    0  0.10849677111E+02  0.17650162196E+02  0.14520670447E+04  0.14522162188E+04  0.19999999371E+01 0.  0.
        -13    1    3    3    0    0 -0.10849677111E+02 -0.17650162196E+02  0.10926145961E+03  0.11120845939E+03  0.10566000000E+00 0.  1.
         13    1    4    4    0    0  0.97831552794E+00  0.17897863244E+01  0.17142957021E+03  0.17144173687E+03  0.10566000000E+00 0.  1.
        -13    1    4    4    0    0  0.12296886561E+01  0.26768399144E+01  0.18008233950E+03  0.18010646232E+03  0.10566000000E+00 0. -1.
         14    1    4    4    0    0  0.86416729274E+01  0.13183535958E+02  0.11005551350E+04  0.11006680196E+04  0.00000000000E+00 0. -1.
<mgrwt>
<rscale>  0 0.80932230E+02</rscale>
<asrwt>0</asrwt>
<pdfrwt beam="1">  1        2 0.24036574E+00 0.80932230E+02</pdfrwt>
<pdfrwt beam="2">  1       -1 0.16124407E-03 0.80932230E+02</pdfrwt>
<totfact> 0.31734125E+05</totfact>
</mgrwt>
</event>
<event>
 8    1  0.1226832E-020  0.7974310E+02  0.7818608E-02  0.1329782E+00
          2   -1    0    0  501    0  0.00000000000E+00  0.00000000000E+00  0.40341793139E+03  0.40341793140E+03  0.25500000000E-02 0. -1.
         -1   -1    0    0    0  501 -0.00000000000E+00 -0.00000000000E+00 -0.39406770619E+01  0.39406802849E+01  0.50400000000E-02 0.  1.
         24    2    1    2    0    0  0.17763568394E-14  0.35527136788E-14  0.39947725433E+03  0.40735861168E+03  0.79743098678E+02 0.  0.
         66    2    3    3    0    0  0.13053590423E+02  0.31809043864E+02  0.30273470818E+03  0.30468756955E+03  0.20000009417E+01 0.  0.
        -13    1    3    3    0    0 -0.13053590423E+02 -0.31809043864E+02  0.96742546144E+02  0.10267104213E+03  0.10566000000E+00 0.  1.
         13    1    4    4    0    0  0.63674009649E+00  0.22369753047E+01  0.19934572377E+02  0.20070073153E+02  0.10566000000E+00 0. -1.
        -13    1    4    4    0    0  0.44527666352E+01  0.89637908798E+01  0.91384954107E+02  0.91931483611E+02  0.10566000000E+00 0.  1.
         14    1    4    4    0    0  0.79640836918E+01  0.20608277679E+02  0.19141518170E+03  0.19268601278E+03  0.00000000000E+00 0. -1.
<mgrwt>
<rscale>  0 0.79743099E+02</rscale>
<asrwt>0</asrwt>
<pdfrwt beam="1">  1        2 0.62064265E-01 0.79743099E+02</pdfrwt>
<pdfrwt beam="2">  1       -1 0.60625857E-03 0.79743099E+02</pdfrwt>
<totfact> 0.28576697E+05</totfact>
</mgrwt>
</event>
<event>
 8    1  0.1226832E-020  0.8031164E+02  0.7818608E-02  0.1328169E+00
          2   -1    0    0  501    0  0.00000000000E+00  0.00000000000E+00  0.89649250640E+03  0.89649250640E+03  0.25500000000E-02 0. -1.
         -1   -1    0    0    0  501 -0.00000000000E+00 -0.00000000000E+00 -0.17986615948E+01  0.17986686561E+01  0.50400000000E-02 0.  1.
         24    2    1    2    0    0 -0.35527136788E-14  0.88817841970E-15  0.89469384480E+03  0.89829117506E+03  0.80311638371E+02 0.  0.
         66    2    3    3    0    0 -0.30258875221E+02  0.45809482094E+01  0.73798334892E+03  0.73862034084E+03  0.20000004034E+01 0.  0.
        -13    1    3    3    0    0  0.30258875221E+02 -0.45809482094E+01  0.15671049589E+03  0.15967083422E+03  0.10566000000E+00 0.  1.
         13    1    4    4    0    0 -0.19995608469E+02  0.37466443382E+01  0.49247099632E+03  0.49289101745E+03  0.10566000000E+00 0. -1.
        -13    1    4    4    0    0 -0.97459473648E+01  0.81876712074E+00  0.23644493626E+03  0.23664714855E+03  0.10566000000E+00 0.  1.
        -14    1    4    4    0    0 -0.51731938716E+00  0.15536750464E-01  0.90674163425E+01  0.90821748424E+01  0.00000000000E+00 0.  1.
<mgrwt>
<rscale>  0 0.80311638E+02</rscale>
<asrwt>0</asrwt>
<pdfrwt beam="1">  1        2 0.13792198E+00 0.80311638E+02</pdfrwt>
<pdfrwt beam="2">  1       -1 0.27671759E-03 0.80311638E+02</pdfrwt>
<totfact> 0.34580456E+05</totfact>
</mgrwt>
</event>
<event>
 8    1  0.1226832E-020  0.7941960E+02  0.7818608E-02  0.1330707E+00
         -1   -1    0    0    0  501 -0.00000000000E+00  0.00000000000E+00  0.16395061578E+01  0.16395139045E+01  0.50400000000E-02 0.  1.
          2   -1    0    0  501    0  0.00000000000E+00 -0.00000000000E+00 -0.96179231537E+03  0.96179231538E+03  0.25500000000E-02 0. -1.
         24    2    1    2    0    0  0.35527136788E-14  0.00000000000E+00 -0.96015280921E+03  0.96343182928E+03  0.79419598510E+02 0.  0.
         66    2    3    3    0    0 -0.16601593497E+02 -0.19392040651E+02 -0.84896782366E+03  0.84935388959E+03  0.20000009051E+01 0.  0.
        -13    1    3    3    0    0  0.16601593497E+02  0.19392040651E+02 -0.11118498555E+03  0.11407793969E+03  0.10566000000E+00 0.  1.
         13    1    4    4    0    0 -0.11947682124E+02 -0.14121401430E+02 -0.61788876598E+03  0.61816559220E+03  0.10566000000E+00 0. -1.
        -13    1    4    4    0    0 -0.42601218866E+01 -0.42796071739E+01 -0.19720950775E+03  0.19730196346E+03  0.10566000000E+00 0.  1.
         14    1    4    4    0    0 -0.39378948661E+00 -0.99103204702E+00 -0.33869549930E+02  0.33886333929E+02  0.00000000000E+00 0. -1.
<mgrwt>
<rscale>  0 0.79419599E+02</rscale>
<asrwt>0</asrwt>
<pdfrwt beam="1">  1        2 0.14796760E+00 0.79419599E+02</pdfrwt>
<pdfrwt beam="2">  1       -1 0.25223308E-03 0.79419599E+02</pdfrwt>
<totfact> 0.35825966E+05</totfact>
</mgrwt>
</event>
<event>
 8    1  0.1226832E-020  0.8259408E+02  0.7818608E-02  0.1321847E+00
          2   -1    0    0  501    0  0.00000000000E+00  0.00000000000E+00  0.70125582372E+02  0.70125582419E+02  0.25500000000E-02 0. -1.
         -1   -1    0    0    0  501 -0.00000000000E+00 -0.00000000000E+00 -0.24319878737E+02  0.24319879260E+02  0.50400000000E-02 0.  1.
         24    2    1    2    0    0  0.00000000000E+00  0.00000000000E+00  0.45805703635E+02  0.94445461678E+02  0.82594084208E+02 0.  0.
         66    2    3    3    0    0  0.21941704430E+02 -0.33074666443E+02  0.35856822704E+02  0.53526476482E+02  0.19999991429E+01 0.  0.
        -13    1    3    3    0    0 -0.21941704430E+02  0.33074666443E+02  0.99488809313E+01  0.40918985196E+02  0.10566000000E+00 0.  1.
         13    1    4    4    0    0  0.41819964570E+01 -0.63268899614E+01  0.59914387763E+01  0.96657712365E+01  0.10566000000E+00 0. -1.
        -13    1    4    4    0    0  0.37130397669E+01 -0.59055146854E+01  0.69798493891E+01  0.98686994857E+01  0.10566000000E+00 0.  1.
         14    1    4    4    0    0  0.14046668206E+02 -0.20842261797E+02  0.22885534538E+02  0.33992005760E+02  0.00000000000E+00 0. -1.
<mgrwt>
<rscale>  0 0.82594084E+02</rscale>
<asrwt>0</asrwt>
<pdfrwt beam="1">  1        2 0.10788551E-01 0.82594084E+02</pdfrwt>
<pdfrwt beam="2">  1       -1 0.37415200E-02 0.82594084E+02</pdfrwt>
<totfact> 0.14814208E+05</totfact>
</mgrwt>
</event>
<event>
 8    1  0.1226832E-020  0.7932846E+02  0.7818608E-02  0.1330968E+00
         -1   -1    0    0    0  501 -0.00000000000E+00  0.00000000000E+00  0.88228116254E+02  0.88228116398E+02  0.50400000000E-02 0.  1.
          2   -1    0    0  501    0  0.00000000000E+00 -0.00000000000E+00 -0.17831630489E+02  0.17831630672E+02  0.25500000000E-02 0. -1.
         24    2    1    2    0    0  0.00000000000E+00  0.00000000000E+00  0.70396485765E+02  0.10605974707E+03  0.79328461100E+02 0.  0.
         66    2    3    3    0    0 -0.18419583078E+02 -0.34887500024E+02  0.30072345227E+02  0.49646396053E+02  0.19999987293E+01 0.  0.
        -13    1    3    3    0    0  0.18419583078E+02  0.34887500024E+02  0.40324140538E+02  0.56413351016E+02  0.10566000000E+00 0.  1.
         13    1    4    4    0    0 -0.34451158144E+01 -0.63241491087E+01  0.58146587868E+01  0.92566249663E+01  0.10566000000E+00 0. -1.
        -13    1    4    4    0    0 -0.14771550927E+02 -0.28296212892E+02  0.23771662765E+02  0.39799214759E+02  0.10566000000E+00 0.  1.
        -14    1    4    4    0    0 -0.20291633685E+00 -0.26713802355E+00  0.48602367484E+00  0.59055632746E+00  0.00000000000E+00 0.  1.
<mgrwt>
<rscale>  0 0.79328461E+02</rscale>
<asrwt>0</asrwt>
<pdfrwt beam="1">  1        2 0.27433278E-02 0.79328461E+02</pdfrwt>
<pdfrwt beam="2">  1       -1 0.13573556E-01 0.79328461E+02</pdfrwt>
<totfact> 0.12426574E+05</totfact>
</mgrwt>
</event>
<event>
 8    1  0.1226832E-020  0.7915750E+02  0.7818608E-02  0.1331459E+00
         -1   -1    0    0    0  501 -0.00000000000E+00  0.00000000000E+00  0.36229168404E+01  0.36229203461E+01  0.50400000000E-02 0.  1.
          2   -1    0    0  501    0  0.00000000000E+00 -0.00000000000E+00 -0.43238001734E+03  0.43238001735E+03  0.25500000000E-02 0. -1.
         24    2    1    2    0    0  0.00000000000E+00  0.00000000000E+00 -0.42875710050E+03  0.43600293770E+03  0.79157504058E+02 0.  0.
         66    2    3    3    0    0  0.38093023669E+02 -0.28342705731E+01 -0.27105264157E+03  0.27373828020E+03  0.20000004382E+01 0.  0.
        -13    1    3    3    0    0 -0.38093023669E+02  0.28342705731E+01 -0.15770445894E+03  0.16226465750E+03  0.10566000000E+00 0.  1.
         13    1    4    4    0    0  0.21724062672E+02 -0.17134798747E+01 -0.15910742062E+03  0.16059281856E+03  0.10566000000E+00 0. -1.
        -13    1    4    4    0    0  0.58747997844E+01 -0.51213267697E+00 -0.43386842118E+02  0.43785897106E+02  0.10566000000E+00 0. -1.
         14    1    4    4    0    0  0.10494161212E+02 -0.60865802145E+00 -0.68558378827E+02  0.69359564528E+02  0.00000000000E+00 0. -1.
<mgrwt>
<rscale>  0 0.79157504E+02</rscale>
<asrwt>0</asrwt>
<pdfrwt beam="1">  1        2 0.66519962E-01 0.79157504E+02</pdfrwt>
<pdfrwt beam="2">  1       -1 0.55737244E-03 0.79157504E+02</pdfrwt>
<totfact> 0.29836336E+05</totfact>
</mgrwt>
</event>
<event>
 8    1  0.1226832E-020  0.8035175E+02  0.7818608E-02  0.1328056E+00
         -1   -1    0    0    0  501 -0.00000000000E+00  0.00000000000E+00  0.57501242207E+02  0.57501242428E+02  0.50400000000E-02 0.  1.
          2   -1    0    0  501    0  0.00000000000E+00 -0.00000000000E+00 -0.28070715915E+02  0.28070716030E+02  0.25500000000E-02 0. -1.
         24    2    1    2    0    0  0.00000000000E+00  0.00000000000E+00  0.29430526293E+02  0.85571958459E+02  0.80351752915E+02 0.  0.
         66    2    3    3    0    0  0.38332777625E+02 -0.57469757652E+01  0.25876877612E+02  0.46648069215E+02  0.19999989009E+01 0.  0.
        -13    1    3    3    0    0 -0.38332777625E+02  0.57469757652E+01  0.35536486807E+01  0.38923889244E+02  0.10566000000E+00 0.  1.
         13    1    4    4    0    0  0.13820783094E+02 -0.20366816546E+01  0.85516000793E+01  0.16379961704E+02  0.10566000000E+00 0. -1.
        -13    1    4    4    0    0  0.95914501306E+01 -0.18129707843E+01  0.62797942871E+01  0.11607314892E+02  0.10566000000E+00 0.  1.
        -14    1    4    4    0    0  0.14920544401E+02 -0.18973233263E+01  0.11045483246E+02  0.18660792618E+02  0.00000000000E+00 0.  1.
<mgrwt>
<rscale>  0 0.80351753E+02</rscale>
<asrwt>0</asrwt>
<pdfrwt beam="1">  1        2 0.43185717E-02 0.80351753E+02</pdfrwt>
<pdfrwt beam="2">  1       -1 0.88463450E-02 0.80351753E+02</pdfrwt>
<totfact> 0.13117189E+05</totfact>
</mgrwt>
</event>
<event>
 8    1  0.1226832E-020  0.7992982E+02  0.7818608E-02  0.1329251E+00
          2   -1    0    0  501    0  0.00000000000E+00  0.00000000000E+00  0.29713443631E+03  0.29713443633E+03  0.25500000000E-02 0. -1.
         -1   -1    0    0    0  501 -0.00000000000E+00 -0.00000000000E+00 -0.53753232072E+01  0.53753255700E+01  0.50400000000E-02 0.  1.
         24    2    1    2    0    0  0.00000000000E+00  0.00000000000E+00  0.29175911311E+03  0.30250976190E+03  0.79929818972E+02 0.  0.
         66    2    3    3    0    0 -0.28881666142E+01  0.12800636572E+02  0.28873889957E+03  0.28904385469E+03  0.20000011391E+01 0.  0.
        -13    1    3    3    0    0  0.28881666142E+01 -0.12800636572E+02  0.30202135352E+01  0.13465907206E+02  0.10566000000E+00 0.  1.
         13    1    4    4    0    0 -0.14725812367E+01  0.64193482579E+01  0.16099868941E+03  0.16113337855E+03  0.10566000000E+00 0. -1.
        -13    1    4    4    0    0 -0.25520799599E-01  0.16922714761E+01  0.36243128839E+02  0.36282778093E+02  0.10566000000E+00 0.  1.
         14    1    4    4    0    0 -0.13900645779E+01  0.46890168383E+01  0.91497081324E+02  0.91627698046E+02  0.00000000000E+00 0. -1.
<mgrwt>
<rscale>  0 0.79929819E+02</rscale>
<asrwt>0</asrwt>
<pdfrwt beam="1">  1        2 0.45713000E-01 0.79929819E+02</pdfrwt>
<pdfrwt beam="2">  1       -1 0.82697280E-03 0.79929819E+02</pdfrwt>
<totfact> 0.25464574E+05</totfact>
</mgrwt>
</event>
<event>
 8    1  0.1226832E-020  0.7872670E+02  0.7818608E-02  0.1332704E+00
          2   -1    0    0  501    0  0.00000000000E+00  0.00000000000E+00  0.53038820777E+02  0.53038820838E+02  0.25500000000E-02 0. -1.
         -1   -1    0    0    0  501 -0.00000000000E+00 -0.00000000000E+00 -0.29213948880E+02  0.29213949314E+02  0.50400000000E-02 0.  1.
         24    2    1    2    0    0  0.35527136788E-14  0.35527136788E-14  0.23824871897E+02  0.82252770153E+02  0.78726702439E+02 0.  0.
         66    2    3    3    0    0  0.28273667064E+02  0.26817390478E+02  0.63038606861E+01  0.39526084356E+02  0.20000009103E+01 0.  0.
        -13    1    3    3    0    0 -0.28273667064E+02 -0.26817390478E+02  0.17521011211E+02  0.42726685797E+02  0.10566000000E+00 0.  1.
         13    1    4    4    0    0  0.22681596913E+02  0.20821509516E+02  0.47131021985E+01  0.31148267904E+02  0.10566000000E+00 0. -1.
        -13    1    4    4    0    0  0.36362556978E+01  0.35252822481E+01  0.79320839982E+00  0.51274081201E+01  0.10566000000E+00 0.  1.
        -14    1    4    4    0    0  0.19558144540E+01  0.24705987132E+01  0.79755008771E+00  0.32504083317E+01  0.00000000000E+00 0.  1.
<mgrwt>
<rscale>  0 0.78726702E+02</rscale>
<asrwt>0</asrwt>
<pdfrwt beam="1">  1        2 0.81598185E-02 0.78726702E+02</pdfrwt>
<pdfrwt beam="2">  1       -1 0.44944538E-02 0.78726702E+02</pdfrwt>
<totfact> 0.15815733E+05</totfact>
</mgrwt>
</event>
<event>
 8    1  0.1226832E-020  0.8357113E+02  0.7818608E-02  0.1319212E+00
          2   -1    0    0  501    0  0.00000000000E+00  0.00000000000E+00  0.94059466546E+02  0.94059466580E+02  0.25500000000E-02 0. -1.
         -1   -1    0    0    0  501 -0.00000000000E+00 -0.00000000000E+00 -0.18563078220E+02  0.18563078905E+02  0.50400000000E-02 0.  1.
         24    2    1    2    0    0  0.00000000000E+00  0.00000000000E+00  0.75496388325E+02  0.11262254548E+03  0.83571126002E+02 0.  0.
         66    2    3    3    0    0  0.18248594226E+02 -0.26719017399E+02  0.73350913809E+02  0.80195222023E+02  0.19999991790E+01 0.  0.
        -13    1    3    3    0    0 -0.18248594226E+02  0.26719017399E+02  0.21454745165E+01  0.32427323462E+02  0.10566000000E+00 0.  1.
         13    1    4    4    0    0  0.71569451128E+01 -0.93049606149E+01  0.25685173619E+02  0.28240812015E+02  0.10566000000E+00 0. -1.
        -13    1    4    4    0    0  0.48608548388E+00 -0.69920930415E+00  0.24248506833E+01  0.25722048170E+01  0.10566000000E+00 0.  1.
         14    1    4    4    0    0  0.10605563629E+02 -0.16714847480E+02  0.45240889506E+02  0.49382205191E+02  0.00000000000E+00 0. -1.
<mgrwt>
<rscale>  0 0.83571126E+02</rscale>
<asrwt>0</asrwt>
<pdfrwt beam="1">  1        2 0.14470687E-01 0.83571126E+02</pdfrwt>
<pdfrwt beam="2">  1       -1 0.28558582E-02 0.83571126E+02</pdfrwt>
<totfact> 0.15496144E+05</totfact>
</mgrwt>
</event>
<event>
 8    1  0.1226832E-020  0.8317471E+02  0.7818608E-02  0.1320276E+00
          2   -1    0    0  501    0  0.00000000000E+00  0.00000000000E+00  0.34160648855E+03  0.34160648856E+03  0.25500000000E-02 0. -1.
         -1   -1    0    0    0  501 -0.00000000000E+00 -0.00000000000E+00 -0.50628648469E+01  0.50628673555E+01  0.50400000000E-02 0.  1.
         24    2    1    2    0    0 -0.71054273576E-14  0.00000000000E+00  0.33654362370E+03  0.34666935591E+03  0.83174705742E+02 0.  0.
         66    2    3    3    0    0 -0.35449929626E+02  0.73361420430E+01  0.25347972588E+03  0.25605953980E+03  0.20000000850E+01 0.  0.
        -13    1    3    3    0    0  0.35449929626E+02 -0.73361420430E+01  0.83063897820E+02  0.90609816111E+02  0.10566000000E+00 0.  1.
         13    1    4    4    0    0 -0.13538729421E+02  0.27310580402E+01  0.99384198125E+02  0.10033935356E+03  0.10566000000E+00 0. -1.
        -13    1    4    4    0    0 -0.13014194528E+02  0.24336512952E+01  0.95437383778E+02  0.96351426063E+02  0.10566000000E+00 0.  1.
        -14    1    4    4    0    0 -0.88970056764E+01  0.21714327076E+01  0.58658143979E+02  0.59368760178E+02  0.00000000000E+00 0.  1.
<mgrwt>
<rscale>  0 0.83174706E+02</rscale>
<asrwt>0</asrwt>
<pdfrwt beam="1">  1        2 0.52554833E-01 0.83174706E+02</pdfrwt>
<pdfrwt beam="2">  1       -1 0.77890265E-03 0.83174706E+02</pdfrwt>
<totfact> 0.24124644E+05</totfact>
</mgrwt>
</event>
<event>
 8    1  0.1226832E-020  0.7628595E+02  0.7818608E-02  0.1339934E+00
          2   -1    0    0  501    0  0.00000000000E+00  0.00000000000E+00  0.46161550403E+02  0.46161550473E+02  0.25500000000E-02 0. -1.
         -1   -1    0    0    0  501 -0.00000000000E+00 -0.00000000000E+00 -0.31517276399E+02  0.31517276802E+02  0.50400000000E-02 0.  1.
         24    2    1    2    0    0 -0.88817841970E-15  0.00000000000E+00  0.14644274004E+02  0.77678827275E+02  0.76285945270E+02 0.  0.
         66    2    3    3    0    0  0.40747225592E+01  0.16509624117E+02  0.42063218222E+02  0.45414594470E+02  0.20000028040E+01 0.  0.
        -13    1    3    3    0    0 -0.40747225592E+01 -0.16509624117E+02 -0.27418944218E+02  0.32264232805E+02  0.10566000000E+00 0.  1.
         13    1    4    4    0    0  0.33617506918E+01  0.99528661707E+01  0.24971828227E+02  0.27091775168E+02  0.10566000000E+00 0. -1.
        -13    1    4    4    0    0  0.50440049228E+00  0.48515815294E+01  0.13002989556E+02  0.13888166352E+02  0.10566000000E+00 0.  1.
         14    1    4    4    0    0  0.20857137505E+00  0.17051764164E+01  0.40884004399E+01  0.44346529499E+01  0.00000000000E+00 0. -1.
<mgrwt>
<rscale>  0 0.76285945E+02</rscale>
<asrwt>0</asrwt>
<pdfrwt beam="1">  1        2 0.71017770E-02 0.76285945E+02</pdfrwt>
<pdfrwt beam="2">  1       -1 0.48488118E-02 0.76285945E+02</pdfrwt>
<totfact> 0.16730483E+05</totfact>
</mgrwt>
</event>
<event>
 8    1  0.1226832E-020  0.8078208E+02  0.7818608E-02  0.1326847E+00
          2   -1    0    0  501    0  0.00000000000E+00  0.00000000000E+00  0.30601164074E+03  0.30601164076E+03  0.25500000000E-02 0. -1.
         -1   -1    0    0    0  501 -0.00000000000E+00 -0.00000000000E+00 -0.53312865578E+01  0.53312889401E+01  0.50400000000E-02 0.  1.
         24    2    1    2    0    0  0.00000000000E+00  0.71054273576E-14  0.30068035419E+03  0.31134292970E+03  0.80782080175E+02 0.  0.
         66    2    3    3    0    0 -0.72529443202E+01  0.33420869345E+02  0.23308194554E+03  0.23558597804E+03  0.20000003403E+01 0.  0.
        -13    1    3    3    0    0  0.72529443202E+01 -0.33420869345E+02  0.67598408646E+02  0.75756951658E+02  0.10566000000E+00 0.  1.
         13    1    4    4    0    0 -0.10148410234E+01  0.61505920438E+01  0.45903011006E+02  0.46324478068E+02  0.10566000000E+00 0. -1.
        -13    1    4    4    0    0 -0.31409860957E-01  0.75385327207E+00  0.56623038851E+01  0.57133292097E+01  0.10566000000E+00 0.  1.
         14    1    4    4    0    0 -0.62066934358E+01  0.26516424029E+02  0.18151663065E+03  0.18354817076E+03  0.00000000000E+00 0. -1.
<mgrwt>
<rscale>  0 0.80782080E+02</rscale>
<asrwt>0</asrwt>
<pdfrwt beam="1">  1        2 0.47078725E-01 0.80782080E+02</pdfrwt>
<pdfrwt beam="2">  1       -1 0.82019792E-03 0.80782080E+02</pdfrwt>
<totfact> 0.25031408E+05</totfact>
</mgrwt>
</event>
<event>
 8    1  0.1226832E-020  0.8018195E+02  0.7818608E-02  0.1328536E+00
         -1   -1    0    0    0  501 -0.00000000000E+00  0.00000000000E+00  0.16069003516E+02  0.16069004307E+02  0.50400000000E-02 0.  1.
          2   -1    0    0  501    0  0.00000000000E+00 -0.00000000000E+00 -0.10002401459E+03  0.10002401462E+03  0.25500000000E-02 0. -1.
         24    2    1    2    0    0  0.00000000000E+00  0.00000000000E+00 -0.83955011075E+02  0.11609301893E+03  0.80181950337E+02 0.  0.
         66    2    3    3    0    0 -0.23792522422E+00  0.23925926789E+02 -0.88533468312E+02  0.91731573657E+02  0.20000032541E+01 0.  0.
        -13    1    3    3    0    0  0.23792522422E+00 -0.23925926789E+02  0.45784572370E+01  0.24361445274E+02  0.10566000000E+00 0.  1.
         13    1    4    4    0    0 -0.37375222755E+00  0.60788010119E+01 -0.21461620462E+02  0.22309276756E+02  0.10566000000E+00 0. -1.
        -13    1    4    4    0    0  0.39542832059E+00  0.35481351220E+01 -0.15311357179E+02  0.15722418679E+02  0.10566000000E+00 0.  1.
        -14    1    4    4    0    0 -0.25960131726E+00  0.14298990655E+02 -0.51760490671E+02  0.53699878222E+02  0.00000000000E+00 0.  1.
<mgrwt>
<rscale>  0 0.80181950E+02</rscale>
<asrwt>0</asrwt>
<pdfrwt beam="1">  1        2 0.15388310E-01 0.80181950E+02</pdfrwt>
<pdfrwt beam="2">  1       -1 0.24721545E-02 0.80181950E+02</pdfrwt>
<totfact> 0.17619472E+05</totfact>
</mgrwt>
</event>
<event>
 8    1  0.1226832E-020  0.8106100E+02  0.7818608E-02  0.1326067E+00
         -1   -1    0    0    0  501 -0.00000000000E+00  0.00000000000E+00  0.98500823126E+01  0.98500836020E+01  0.50400000000E-02 0.  1.
          2   -1    0    0  501    0  0.00000000000E+00 -0.00000000000E+00 -0.16677232526E+03  0.16677232528E+03  0.25500000000E-02 0. -1.
         24    2    1    2    0    0  0.17763568394E-14  0.00000000000E+00 -0.15692224295E+03  0.17662240889E+03  0.81060995476E+02 0.  0.
         66    2    3    3    0    0  0.12946437112E+02 -0.11397683168E+02 -0.15836410290E+03  0.15931323387E+03  0.19999964060E+01 0.  0.
        -13    1    3    3    0    0 -0.12946437112E+02  0.11397683168E+02  0.14418599441E+01  0.17309175013E+02  0.10566000000E+00 0.  1.
         13    1    4    4    0    0  0.39866425754E+01 -0.29391309213E+01 -0.49932355988E+02  0.50177516361E+02  0.10566000000E+00 0. -1.
        -13    1    4    4    0    0  0.82410549937E-01 -0.23311535873E+00 -0.19581241670E+01  0.19764990660E+01  0.10566000000E+00 0. -1.
        -14    1    4    4    0    0  0.88773839865E+01 -0.82254368878E+01 -0.10647362274E+03  0.10715921845E+03  0.00000000000E+00 0.  1.
<mgrwt>
<rscale>  0 0.81060995E+02</rscale>
<asrwt>0</asrwt>
<pdfrwt beam="1">  1        2 0.25657279E-01 0.81060995E+02</pdfrwt>
<pdfrwt beam="2">  1       -1 0.15153975E-02 0.81060995E+02</pdfrwt>
<totfact> 0.20025218E+05</totfact>
</mgrwt>
</event>
<event>
 8    1  0.1226832E-020  0.7677641E+02  0.7818608E-02  0.1338457E+00
         -1   -1    0    0    0  501 -0.00000000000E+00  0.00000000000E+00  0.30703380959E+02  0.30703381373E+02  0.50400000000E-02 0.  1.
          2   -1    0    0  501    0  0.00000000000E+00 -0.00000000000E+00 -0.47996483796E+02  0.47996483864E+02  0.25500000000E-02 0. -1.
         24    2    1    2    0    0  0.35527136788E-14  0.35527136788E-14 -0.17293102837E+02  0.78699865237E+02  0.76776411629E+02 0.  0.
         66    2    3    3    0    0 -0.25407139208E+02 -0.19700756175E+02 -0.30105334843E+02  0.44090517228E+02  0.20000016885E+01 0.  0.
        -13    1    3    3    0    0  0.25407139208E+02  0.19700756175E+02  0.12812232006E+02  0.34609348010E+02  0.10566000000E+00 0.  1.
         13    1    4    4    0    0 -0.16190002107E+02 -0.13656663041E+02 -0.19427309408E+02  0.28741122603E+02  0.10566000000E+00 0. -1.
        -13    1    4    4    0    0 -0.54316636916E+01 -0.37256802815E+01 -0.63894652441E+01  0.91771506558E+01  0.10566000000E+00 0.  1.
         14    1    4    4    0    0 -0.37854734099E+01 -0.23184128527E+01 -0.42885601916E+01  0.61722439687E+01  0.00000000000E+00 0. -1.
<mgrwt>
<rscale>  0 0.76776412E+02</rscale>
<asrwt>0</asrwt>
<pdfrwt beam="1">  1        2 0.73840744E-02 0.76776412E+02</pdfrwt>
<pdfrwt beam="2">  1       -1 0.47235971E-02 0.76776412E+02</pdfrwt>
<totfact> 0.16575131E+05</totfact>
</mgrwt>
</event>
<event>
 8    1  0.1226832E-020  0.7926815E+02  0.7818608E-02  0.1331141E+00
          2   -1    0    0  501    0  0.00000000000E+00  0.00000000000E+00  0.49619553888E+02  0.49619553954E+02  0.25500000000E-02 0. -1.
         -1   -1    0    0    0  501 -0.00000000000E+00 -0.00000000000E+00 -0.31658078673E+02  0.31658079074E+02  0.50400000000E-02 0.  1.
         24    2    1    2    0    0  0.71054273576E-14  0.00000000000E+00  0.17961475215E+02  0.81277633028E+02  0.79268146432E+02 0.  0.
         66    2    3    3    0    0  0.38865872106E+02  0.52924414667E+01  0.33433898684E+01  0.39417562143E+02  0.19999995517E+01 0.  0.
        -13    1    3    3    0    0 -0.38865872106E+02 -0.52924414667E+01  0.14618085347E+02  0.41860070885E+02  0.10566000000E+00 0.  1.
         13    1    4    4    0    0  0.44170307222E+01  0.84586708814E+00  0.27302591636E+00  0.45068124787E+01  0.10566000000E+00 0.  1.
        -13    1    4    4    0    0  0.19624120958E+02  0.26272035519E+01  0.92044158084E+00  0.19820865234E+02  0.10566000000E+00 0. -1.
         14    1    4    4    0    0  0.14824720426E+02  0.18193708266E+01  0.21499223712E+01  0.15089884430E+02  0.00000000000E+00 0. -1.
<mgrwt>
<rscale>  0 0.79268146E+02</rscale>
<asrwt>0</asrwt>
<pdfrwt beam="1">  1        2 0.76337775E-02 0.79268146E+02</pdfrwt>
<pdfrwt beam="2">  1       -1 0.48704737E-02 0.79268146E+02</pdfrwt>
<totfact> 0.15298389E+05</totfact>
</mgrwt>
</event>
<event>
 8    1  0.1226832E-020  0.7703033E+02  0.7818608E-02  0.1337697E+00
          2   -1    0    0  501    0  0.00000000000E+00  0.00000000000E+00  0.21736233375E+03  0.21736233377E+03  0.25500000000E-02 0. -1.
         -1   -1    0    0    0  501 -0.00000000000E+00 -0.00000000000E+00 -0.68246309683E+01  0.68246328293E+01  0.50400000000E-02 0.  1.
         24    2    1    2    0    0  0.00000000000E+00 -0.11102230246E-15  0.21053770278E+03  0.22418696660E+03  0.77030329729E+02 0.  0.
         66    2    3    3    0    0  0.17977220803E+02 -0.65181089850E+00  0.20436962597E+03  0.20516956244E+03  0.20000014014E+01 0.  0.
        -13    1    3    3    0    0 -0.17977220803E+02  0.65181089850E+00  0.61680768083E+01  0.19017404155E+02  0.10566000000E+00 0.  1.
         13    1    4    4    0    0  0.67770459155E+01 -0.42888932087E-01  0.73790879854E+02  0.74101520257E+02  0.10566000000E+00 0. -1.
        -13    1    4    4    0    0  0.17469837084E+01 -0.97187801099E-01  0.14956003578E+02  0.15058373239E+02  0.10566000000E+00 0.  1.
         14    1    4    4    0    0  0.94531911795E+01 -0.51173416531E+00  0.11562274254E+03  0.11600966894E+03  0.00000000000E+00 0. -1.
<mgrwt>
<rscale>  0 0.77030330E+02</rscale>
<asrwt>0</asrwt>
<pdfrwt beam="1">  1        2 0.33440361E-01 0.77030330E+02</pdfrwt>
<pdfrwt beam="2">  1       -1 0.10499433E-02 0.77030330E+02</pdfrwt>
<totfact> 0.25085841E+05</totfact>
</mgrwt>
</event>
<event>
 8    1  0.1226832E-020  0.7978216E+02  0.7818608E-02  0.1329671E+00
          2   -1    0    0  501    0  0.00000000000E+00  0.00000000000E+00  0.21857867646E+03  0.21857867648E+03  0.25500000000E-02 0. -1.
         -1   -1    0    0    0  501 -0.00000000000E+00 -0.00000000000E+00 -0.72802073791E+01  0.72802091237E+01  0.50400000000E-02 0.  1.
         24    2    1    2    0    0  0.00000000000E+00  0.00000000000E+00  0.21129846908E+03  0.22585888560E+03  0.79782160713E+02 0.  0.
         66    2    3    3    0    0 -0.26732773988E+02  0.36457967355E+01  0.18880066825E+03  0.19072919381E+03  0.20000000923E+01 0.  0.
        -13    1    3    3    0    0  0.26732773988E+02 -0.36457967355E+01  0.22497800828E+02  0.35129691787E+02  0.10566000000E+00 0.  1.
         13    1    4    4    0    0 -0.69151207986E+01  0.11342285550E+01  0.46752230277E+02  0.47274597512E+02  0.10566000000E+00 0. -1.
        -13    1    4    4    0    0 -0.23789170714E+01  0.24570070378E+00  0.13794180239E+02  0.14000363844E+02  0.10566000000E+00 0.  1.
        -14    1    4    4    0    0 -0.17438736118E+02  0.22658674767E+01  0.12825425774E+03  0.12945423246E+03  0.00000000000E+00 0.  1.
<mgrwt>
<rscale>  0 0.79782161E+02</rscale>
<asrwt>0</asrwt>
<pdfrwt beam="1">  1        2 0.33627487E-01 0.79782161E+02</pdfrwt>
<pdfrwt beam="2">  1       -1 0.11200321E-02 0.79782161E+02</pdfrwt>
<totfact> 0.22919178E+05</totfact>
</mgrwt>
</event>
<event>
 8    1  0.1226832E-020  0.7899993E+02  0.7818608E-02  0.1331914E+00
         -1   -1    0    0    0  501 -0.00000000000E+00  0.00000000000E+00  0.66218642794E+02  0.66218642986E+02  0.50400000000E-02 0.  1.
          2   -1    0    0  501    0  0.00000000000E+00 -0.00000000000E+00 -0.23562053848E+02  0.23562053986E+02  0.25500000000E-02 0. -1.
         24    2    1    2    0    0  0.35527136788E-14  0.00000000000E+00  0.42656588947E+02  0.89780696972E+02  0.78999930178E+02 0.  0.
         66    2    3    3    0    0 -0.30449585475E+02  0.54312444156E+01 -0.65319993136E+01  0.31675584885E+02  0.19999978323E+01 0.  0.
        -13    1    3    3    0    0  0.30449585475E+02 -0.54312444156E+01  0.49188588260E+02  0.58105112086E+02  0.10566000000E+00 0.  1.
         13    1    4    4    0    0 -0.94315381243E+01  0.24491719730E+01 -0.16647073683E+01  0.98860896922E+01  0.10566000000E+00 0. -1.
        -13    1    4    4    0    0 -0.48098735450E+01  0.93752243148E+00 -0.12015169586E+01  0.50466462988E+01  0.10566000000E+00 0.  1.
         14    1    4    4    0    0 -0.16208173805E+02  0.20445500111E+01 -0.36657749867E+01  0.16742848894E+02  0.00000000000E+00 0. -1.
<mgrwt>
<rscale>  0 0.78999930E+02</rscale>
<asrwt>0</asrwt>
<pdfrwt beam="1">  1        2 0.36249315E-02 0.78999930E+02</pdfrwt>
<pdfrwt beam="2">  1       -1 0.10187483E-01 0.78999930E+02</pdfrwt>
<totfact> 0.13295635E+05</totfact>
</mgrwt>
</event>
<event>
 8    1  0.1226832E-020  0.8039998E+02  0.7818608E-02  0.1327920E+00
         -1   -1    0    0    0  501 -0.00000000000E+00  0.00000000000E+00  0.13761405428E+03  0.13761405437E+03  0.50400000000E-02 0.  1.
          2   -1    0    0  501    0  0.00000000000E+00 -0.00000000000E+00 -0.11743272279E+02  0.11743272556E+02  0.25500000000E-02 0. -1.
         24    2    1    2    0    0 -0.17763568394E-14  0.00000000000E+00  0.12587078200E+03  0.14935732692E+03  0.80399983491E+02 0.  0.
         66    2    3    3    0    0  0.11449112410E+02  0.20213384506E+02  0.20839751885E+01  0.23409529039E+02  0.20000022732E+01 0.  0.
        -13    1    3    3    0    0 -0.11449112410E+02 -0.20213384506E+02  0.12378680681E+03  0.12594779788E+03  0.10566000000E+00 0.  1.
         13    1    4    4    0    0  0.56572102454E+01  0.11303109691E+02  0.16801162502E+01  0.12751402711E+02  0.10566000000E+00 0. -1.
        -13    1    4    4    0    0  0.31440840212E+01  0.52036089533E+01 -0.45234444416E-01  0.60807911214E+01  0.10566000000E+00 0.  1.
         14    1    4    4    0    0  0.26478181435E+01  0.37066658618E+01  0.44909338274E+00  0.45773352071E+01  0.00000000000E+00 0. -1.
<mgrwt>
<rscale>  0 0.80399983E+02</rscale>
<asrwt>0</asrwt>
<pdfrwt beam="1">  1        2 0.18066572E-02 0.80399983E+02</pdfrwt>
<pdfrwt beam="2">  1       -1 0.21171394E-01 0.80399983E+02</pdfrwt>
<totfact> 0.10883916E+05</totfact>
</mgrwt>
</event>
<event>
 8    1  0.1248807E-020  0.8072625E+02  0.7818608E-02  0.1327003E+00
         -1   -1    0    0    0  501 -0.00000000000E+00  0.00000000000E+00  0.51359338973E+02  0.51359339220E+02  0.50400000000E-02 0.  1.
          2   -1    0    0  501    0  0.00000000000E+00 -0.00000000000E+00 -0.31721235563E+02  0.31721235666E+02  0.25500000000E-02 0. -1.
         24    2    1    2    0    0  0.35527136788E-14  0.17763568394E-14  0.19638103409E+02  0.83080574886E+02  0.80726246152E+02 0.  0.
         66    2    3    3    0    0 -0.30201720644E+02 -0.15047496785E+02 -0.12924025288E+02  0.36188416920E+02  0.20000000426E+01 0.  0.
        -13    1    3    3    0    0  0.30201720644E+02  0.15047496785E+02  0.32562128697E+02  0.46892157966E+02  0.10566000000E+00 0.  1.
         13    1    4    4    0    0 -0.12358041264E+02 -0.65269690476E+01 -0.53777847475E+01  0.14975120756E+02  0.10566000000E+00 0. -1.
        -13    1    4    4    0    0 -0.79050613049E+01 -0.45041595117E+01 -0.31762692927E+01  0.96372868483E+01  0.10566000000E+00 0.  1.
        -14    1    4    4    0    0 -0.99386180752E+01 -0.40163682254E+01 -0.43699712482E+01  0.11576009316E+02  0.00000000000E+00 0.  1.
<mgrwt>
<rscale>  0 0.80726246E+02</rscale>
<asrwt>0</asrwt>
<pdfrwt beam="1">  1        2 0.48801901E-02 0.80726246E+02</pdfrwt>
<pdfrwt beam="2">  1       -1 0.79014368E-02 0.80726246E+02</pdfrwt>
<totfact> 0.13264966E+05</totfact>
</mgrwt>
</event>
<event>
 8    1  0.1226832E-020  0.7843360E+02  0.7818608E-02  0.1333556E+00
         -1   -1    0    0    0  501 -0.00000000000E+00  0.00000000000E+00  0.32429872969E+02  0.32429873361E+02  0.50400000000E-02 0.  1.
          2   -1    0    0  501    0  0.00000000000E+00 -0.00000000000E+00 -0.47424097096E+02  0.47424097165E+02  0.25500000000E-02 0. -1.
         24    2    1    2    0    0  0.00000000000E+00 -0.17763568394E-14 -0.14994224127E+02  0.79853970526E+02  0.78433601547E+02 0.  0.
         66    2    3    3    0    0  0.23016752374E+02 -0.13363195008E+02 -0.36791094657E+02  0.45452508354E+02  0.19999997525E+01 0.  0.
        -13    1    3    3    0    0 -0.23016752374E+02  0.13363195008E+02  0.21796870530E+02  0.34401462172E+02  0.10566000000E+00 0.  1.
         13    1    4    4    0    0  0.88438796528E+01 -0.52362009768E+01 -0.13429437645E+02  0.16911326603E+02  0.10566000000E+00 0. -1.
        -13    1    4    4    0    0  0.37649826182E+01 -0.28338127103E+01 -0.63703057434E+01  0.79244903869E+01  0.10566000000E+00 0.  1.
        -14    1    4    4    0    0  0.10407890103E+02 -0.52931813206E+01 -0.16991351268E+02  0.20616691364E+02  0.00000000000E+00 0.  1.
<mgrwt>
<rscale>  0 0.78433602E+02</rscale>
<asrwt>0</asrwt>
<pdfrwt beam="1">  1        2 0.72960150E-02 0.78433602E+02</pdfrwt>
<pdfrwt beam="2">  1       -1 0.49892113E-02 0.78433602E+02</pdfrwt>
<totfact> 0.15596073E+05</totfact>
</mgrwt>
</event>
<event>
 8    1  0.1226832E-020  0.7876230E+02  0.7818608E-02  0.1332601E+00
         -1   -1    0    0    0  501 -0.00000000000E+00  0.00000000000E+00  0.37230466617E+02  0.37230466958E+02  0.50400000000E-02 0.  1.
          2   -1    0    0  501    0  0.00000000000E+00 -0.00000000000E+00 -0.41656069260E+02  0.41656069338E+02  0.25500000000E-02 0. -1.
         24    2    1    2    0    0  0.35527136788E-14  0.35527136788E-14 -0.44256026435E+01  0.78886536296E+02  0.78762298405E+02 0.  0.
         66    2    3    3    0    0 -0.25553967979E+02 -0.17093607504E+02 -0.26822743360E+02  0.40849189211E+02  0.20000002142E+01 0.  0.
        -13    1    3    3    0    0  0.25553967979E+02  0.17093607504E+02  0.22397140716E+02  0.38037347085E+02  0.10566000000E+00 0.  1.
         13    1    4    4    0    0 -0.68132839781E+01 -0.42334141735E+01 -0.78792972048E+01  0.11244426291E+02  0.10566000000E+00 0. -1.
        -13    1    4    4    0    0 -0.17386766375E+02 -0.11656869204E+02 -0.17616392210E+02  0.27359288791E+02  0.10566000000E+00 0.  1.
        -14    1    4    4    0    0 -0.13539176263E+01 -0.12033241263E+01 -0.13270539448E+01  0.22454741290E+01  0.00000000000E+00 0.  1.
<mgrwt>
<rscale>  0 0.78762298E+02</rscale>
<asrwt>0</asrwt>
<pdfrwt beam="1">  1        2 0.64086261E-02 0.78762298E+02</pdfrwt>
<pdfrwt beam="2">  1       -1 0.57277641E-02 0.78762298E+02</pdfrwt>
<totfact> 0.15006340E+05</totfact>
</mgrwt>
</event>
<event>
 8    1  0.1226832E-020  0.7867972E+02  0.7818608E-02  0.1332841E+00
          2   -1    0    0  501    0  0.00000000000E+00  0.00000000000E+00  0.41241485701E+03  0.41241485702E+03  0.25500000000E-02 0. -1.
         -1   -1    0    0    0  501 -0.00000000000E+00 -0.00000000000E+00 -0.37525899023E+01  0.37525932868E+01  0.50400000000E-02 0.  1.
         24    2    1    2    0    0  0.27755575616E-16  0.00000000000E+00  0.40866226711E+03  0.41616745031E+03  0.78679718705E+02 0.  0.
         66    2    3    3    0    0  0.21675444217E+00 -0.37704586212E+02  0.26334789652E+03  0.26604096940E+03  0.19999992088E+01 0.  0.
        -13    1    3    3    0    0 -0.21675444217E+00  0.37704586212E+02  0.14531437059E+03  0.15012648090E+03  0.10566000000E+00 0.  1.
         13    1    4    4    0    0  0.52131028019E+00 -0.17668615369E+02  0.12286705319E+03  0.12413208956E+03  0.10566000000E+00 0. -1.
        -13    1    4    4    0    0  0.32487959120E+00 -0.13226107633E+02  0.94908206196E+02  0.95825958056E+02  0.10566000000E+00 0.  1.
        -14    1    4    4    0    0 -0.62943542922E+00 -0.68098632091E+01  0.45572637125E+02  0.46082921787E+02  0.00000000000E+00 0.  1.
<mgrwt>
<rscale>  0 0.78679719E+02</rscale>
<asrwt>0</asrwt>
<pdfrwt beam="1">  1        2 0.63448420E-01 0.78679719E+02</pdfrwt>
<pdfrwt beam="2">  1       -1 0.57732197E-03 0.78679719E+02</pdfrwt>
<totfact> 0.29822951E+05</totfact>
</mgrwt>
</event>
<event>
 8    1  0.1226832E-020  0.8722638E+02  0.7818608E-02  0.1309711E+00
          2   -1    0    0  501    0  0.00000000000E+00  0.00000000000E+00  0.76553580783E+01  0.76553585030E+01  0.25500000000E-02 0. -1.
         -1   -1    0    0    0  501 -0.00000000000E+00 -0.00000000000E+00 -0.24846784629E+03  0.24846784634E+03  0.50400000000E-02 0.  1.
         24    2    1    2    0    0 -0.71054273576E-14 -0.35527136788E-14 -0.24081248821E+03  0.25612320484E+03  0.87226381221E+02 0.  0.
         66    2    3    3    0    0 -0.25599423108E+02 -0.27576535706E+02 -0.55850017777E+02  0.67372251421E+02  0.19999976912E+01 0.  0.
        -13    1    3    3    0    0  0.25599423108E+02  0.27576535706E+02 -0.18496247043E+03  0.18875095342E+03  0.10566000000E+00 0.  1.
         13    1    4    4    0    0 -0.87613100903E+01 -0.90853236337E+01 -0.18392842848E+02  0.22307207179E+02  0.10566000000E+00 0. -1.
        -13    1    4    4    0    0 -0.22955795119E+01 -0.20218639563E+01 -0.39547961711E+01  0.50009195098E+01  0.10566000000E+00 0.  1.
         14    1    4    4    0    0 -0.14542533506E+02 -0.16469348116E+02 -0.33502378758E+02  0.40064124732E+02  0.00000000000E+00 0. -1.
<mgrwt>
<rscale>  0 0.87226381E+02</rscale>
<asrwt>0</asrwt>
<pdfrwt beam="1">  1        2 0.11777476E-02 0.87226381E+02</pdfrwt>
<pdfrwt beam="2">  1       -1 0.38225816E-01 0.87226381E+02</pdfrwt>
<totfact> 0.74370209E+04</totfact>
</mgrwt>
</event>
<event>
 8    1  0.1226832E-020  0.7915332E+02  0.7818608E-02  0.1331472E+00
          2   -1    0    0  501    0  0.00000000000E+00  0.00000000000E+00  0.32008398383E+02  0.32008398485E+02  0.25500000000E-02 0. -1.
         -1   -1    0    0    0  501 -0.00000000000E+00 -0.00000000000E+00 -0.48934404229E+02  0.48934404489E+02  0.50400000000E-02 0.  1.
         24    2    1    2    0    0  0.00000000000E+00  0.00000000000E+00 -0.16926005846E+02  0.80942802974E+02  0.79153317551E+02 0.  0.
         66    2    3    3    0    0 -0.23007726973E+02 -0.15418329428E+02  0.20405146844E+02  0.34459402625E+02  0.20000071749E+01 0.  0.
        -13    1    3    3    0    0  0.23007726973E+02  0.15418329428E+02 -0.37331152690E+02  0.46483400349E+02  0.10566000000E+00 0.  1.
         13    1    4    4    0    0 -0.80091870844E+00 -0.42493248740E+00  0.58596136294E+00  0.10846903479E+01  0.10566000000E+00 0.  1.
        -13    1    4    4    0    0 -0.20157456225E+00 -0.79807896382E-02  0.13320087704E+00  0.26382286936E+00  0.10566000000E+00 0.  1.
         14    1    4    4    0    0 -0.22005233703E+02 -0.14985416151E+02  0.19685984604E+02  0.33110889407E+02  0.00000000000E+00 0. -1.
<mgrwt>
<rscale>  0 0.79153318E+02</rscale>
<asrwt>0</asrwt>
<pdfrwt beam="1">  1        2 0.49243690E-02 0.79153318E+02</pdfrwt>
<pdfrwt beam="2">  1       -1 0.75283700E-02 0.79153318E+02</pdfrwt>
<totfact> 0.14039689E+05</totfact>
</mgrwt>
</event>
<event>
 8    1  0.1226832E-020  0.8315134E+02  0.7818608E-02  0.1320339E+00
         -1   -1    0    0    0  501 -0.00000000000E+00  0.00000000000E+00  0.21351970606E+01  0.21352030089E+01  0.50400000000E-02 0.  1.
          2   -1    0    0  501    0  0.00000000000E+00 -0.00000000000E+00 -0.80954312065E+03  0.80954312065E+03  0.25500000000E-02 0. -1.
         24    2    1    2    0    0  0.00000000000E+00  0.00000000000E+00 -0.80740792359E+03  0.81167832366E+03  0.83151344121E+02 0.  0.
         66    2    3    3    0    0 -0.19616582385E+02  0.75931431234E+01 -0.75372754873E+03  0.75402366266E+03  0.20000001342E+01 0.  0.
        -13    1    3    3    0    0  0.19616582385E+02 -0.75931431234E+01 -0.53680374856E+02  0.57654661006E+02  0.10566000000E+00 0.  1.
         13    1    4    4    0    0 -0.55859707058E+01  0.26268650167E+01 -0.20474348396E+03  0.20483654185E+03  0.10566000000E+00 0. -1.
        -13    1    4    4    0    0 -0.75536475111E+01  0.24661583789E+01 -0.27202659177E+03  0.27214264150E+03  0.10566000000E+00 0.  1.
        -14    1    4    4    0    0 -0.64769641677E+01  0.25001197278E+01 -0.27695747301E+03  0.27704447931E+03  0.00000000000E+00 0.  1.
<mgrwt>
<rscale>  0 0.83151344E+02</rscale>
<asrwt>0</asrwt>
<pdfrwt beam="1">  1        2 0.12454485E+00 0.83151344E+02</pdfrwt>
<pdfrwt beam="2">  1       -1 0.32849296E-03 0.83151344E+02</pdfrwt>
<totfact> 0.31140631E+05</totfact>
</mgrwt>
</event>
<event>
 8    1  0.1226832E-020  0.7980396E+02  0.7818608E-02  0.1329609E+00
          2   -1    0    0  501    0  0.00000000000E+00  0.00000000000E+00  0.12425527094E+04  0.12425527095E+04  0.25500000000E-02 0. -1.
         -1   -1    0    0    0  501 -0.00000000000E+00 -0.00000000000E+00 -0.12813634854E+01  0.12813733973E+01  0.50400000000E-02 0.  1.
         24    2    1    2    0    0  0.00000000000E+00  0.00000000000E+00  0.12412713460E+04  0.12438340828E+04  0.79803955705E+02 0.  0.
         66    2    3    3    0    0  0.12248895336E+02 -0.24105484018E+02  0.10778474665E+04  0.10781884208E+04  0.20000037044E+01 0.  0.
        -13    1    3    3    0    0 -0.12248895336E+02  0.24105484018E+02  0.16342387950E+03  0.16564566203E+03  0.10566000000E+00 0.  1.
         13    1    4    4    0    0  0.76015406513E+01 -0.16301485984E+02  0.71111857465E+03  0.71134602005E+03  0.10566000000E+00 0. -1.
        -13    1    4    4    0    0  0.12106121449E+01 -0.19206356034E+01  0.77872733044E+02  0.77905892837E+02  0.10566000000E+00 0.  1.
        -14    1    4    4    0    0  0.34367425397E+01 -0.58833624303E+01  0.28885615877E+03  0.28893650792E+03  0.00000000000E+00 0.  1.
<mgrwt>
<rscale>  0 0.79803956E+02</rscale>
<asrwt>0</asrwt>
<pdfrwt beam="1">  1        2 0.19116305E+00 0.79803956E+02</pdfrwt>
<pdfrwt beam="2">  1       -1 0.19713248E-03 0.79803956E+02</pdfrwt>
<totfact> 0.35105511E+05</totfact>
</mgrwt>
</event>
<event>
 8    1  0.1226832E-020  0.7966292E+02  0.7818608E-02  0.1330011E+00
          2   -1    0    0  501    0  0.00000000000E+00  0.00000000000E+00  0.36772988907E+03  0.36772988907E+03  0.25500000000E-02 0. -1.
         -1   -1    0    0    0  501 -0.00000000000E+00 -0.00000000000E+00 -0.43144292501E+01  0.43144321939E+01  0.50400000000E-02 0.  1.
         24    2    1    2    0    0  0.00000000000E+00  0.35527136788E-14  0.36341545982E+03  0.37204432127E+03  0.79662918319E+02 0.  0.
         66    2    3    3    0    0  0.21779444034E+02  0.21234024578E+02  0.30173984345E+03  0.30327571796E+03  0.19999999671E+01 0.  0.
        -13    1    3    3    0    0 -0.21779444034E+02 -0.21234024578E+02  0.61675616367E+02  0.68768603304E+02  0.10566000000E+00 0.  1.
         13    1    4    4    0    0  0.55159267208E+01  0.57735367974E+01  0.82981863718E+02  0.83365220835E+02  0.10566000000E+00 0. -1.
        -13    1    4    4    0    0  0.31988067628E+01  0.37033394602E+01  0.50954926599E+02  0.51189479355E+02  0.10566000000E+00 0.  1.
        -14    1    4    4    0    0  0.13064710550E+02  0.11757148320E+02  0.16780305313E+03  0.16872101777E+03  0.00000000000E+00 0.  1.
<mgrwt>
<rscale>  0 0.79662918E+02</rscale>
<asrwt>0</asrwt>
<pdfrwt beam="1">  1        2 0.56573838E-01 0.79662918E+02</pdfrwt>
<pdfrwt beam="2">  1       -1 0.66375847E-03 0.79662918E+02</pdfrwt>
<totfact> 0.27731846E+05</totfact>
</mgrwt>
</event>
<event>
 8    1  0.1226832E-020  0.7901392E+02  0.7818608E-02  0.1331873E+00
         -1   -1    0    0    0  501 -0.00000000000E+00  0.00000000000E+00  0.35350849629E+01  0.35350885557E+01  0.50400000000E-02 0.  1.
          2   -1    0    0  501    0  0.00000000000E+00 -0.00000000000E+00 -0.44151666652E+03  0.44151666653E+03  0.25500000000E-02 0. -1.
         24    2    1    2    0    0  0.17763568394E-14  0.00000000000E+00 -0.43798158156E+03  0.44505175509E+03  0.79013915985E+02 0.  0.
         66    2    3    3    0    0 -0.97877813601E+01 -0.87172862952E+01 -0.42890179764E+03  0.42910668110E+03  0.20000007549E+01 0.  0.
        -13    1    3    3    0    0  0.97877813601E+01  0.87172862952E+01 -0.90797839209E+01  0.15945073985E+02  0.10566000000E+00 0.  1.
         13    1    4    4    0    0 -0.18901656880E+01 -0.16279848532E+01 -0.97139212542E+02  0.97171296371E+02  0.10566000000E+00 0.  1.
        -13    1    4    4    0    0 -0.28290676942E+01 -0.30476449004E+01 -0.14819520436E+03  0.14825357170E+03  0.10566000000E+00 0. -1.
         14    1    4    4    0    0 -0.50685479779E+01 -0.40416565416E+01 -0.18356738074E+03  0.18368181303E+03  0.00000000000E+00 0. -1.
<mgrwt>
<rscale>  0 0.79013916E+02</rscale>
<asrwt>0</asrwt>
<pdfrwt beam="1">  1        2 0.67925597E-01 0.79013916E+02</pdfrwt>
<pdfrwt beam="2">  1       -1 0.54385985E-03 0.79013916E+02</pdfrwt>
<totfact> 0.30191326E+05</totfact>
</mgrwt>
</event>
<event>
 8    1  0.1226832E-020  0.7492546E+02  0.7818608E-02  0.1344102E+00
          2   -1    0    0  501    0  0.00000000000E+00  0.00000000000E+00  0.22810920890E+03  0.22810920891E+03  0.25500000000E-02 0. -1.
         -1   -1    0    0    0  501 -0.00000000000E+00 -0.00000000000E+00 -0.61525615419E+01  0.61525636062E+01  0.50400000000E-02 0.  1.
         24    2    1    2    0    0  0.00000000000E+00  0.00000000000E+00  0.22195664736E+03  0.23426177252E+03  0.74925461346E+02 0.  0.
         66    2    3    3    0    0  0.28552628306E+02 -0.22183900031E+02  0.14138248561E+03  0.14594651501E+03  0.20000006017E+01 0.  0.
        -13    1    3    3    0    0 -0.28552628306E+02  0.22183900031E+02  0.80574161742E+02  0.88315257505E+02  0.10566000000E+00 0.  1.
         13    1    4    4    0    0  0.10253156553E+02 -0.80982876367E+01  0.53393464878E+02  0.54968925200E+02  0.10566000000E+00 0. -1.
        -13    1    4    4    0    0  0.10048911691E+02 -0.85137578152E+01  0.49964914273E+02  0.51671738123E+02  0.10566000000E+00 0.  1.
         14    1    4    4    0    0  0.82505600616E+01 -0.55718545788E+01  0.38024106463E+02  0.39305851690E+02  0.00000000000E+00 0. -1.
<mgrwt>
<rscale>  0 0.74925461E+02</rscale>
<asrwt>0</asrwt>
<pdfrwt beam="1">  1        2 0.35093722E-01 0.74925461E+02</pdfrwt>
<pdfrwt beam="2">  1       -1 0.94654817E-03 0.74925461E+02</pdfrwt>
<totfact> 0.27434853E+05</totfact>
</mgrwt>
</event>
<event>
 8    1  0.1226832E-020  0.8008443E+02  0.7818608E-02  0.1328812E+00
         -1   -1    0    0    0  501 -0.00000000000E+00  0.00000000000E+00  0.13522171148E+02  0.13522172087E+02  0.50400000000E-02 0.  1.
          2   -1    0    0  501    0  0.00000000000E+00 -0.00000000000E+00 -0.11857406790E+03  0.11857406793E+03  0.25500000000E-02 0. -1.
         24    2    1    2    0    0  0.00000000000E+00 -0.35527136788E-14 -0.10505189675E+03  0.13209624001E+03  0.80084428043E+02 0.  0.
         66    2    3    3    0    0 -0.20537690191E+02  0.23223067692E+02 -0.94295759467E+02  0.99281407321E+02  0.19999987011E+01 0.  0.
        -13    1    3    3    0    0  0.20537690191E+02 -0.23223067692E+02 -0.10756137285E+02  0.32814832694E+02  0.10566000000E+00 0.  1.
         13    1    4    4    0    0 -0.55647792270E+01  0.63715999633E+01 -0.24591945295E+02  0.26006518247E+02  0.10566000000E+00 0. -1.
        -13    1    4    4    0    0 -0.10478485218E+01  0.17431218079E+01 -0.56097769259E+01  0.59680165345E+01  0.10566000000E+00 0.  1.
         14    1    4    4    0    0 -0.13925062442E+02  0.15108345921E+02 -0.64094037246E+02  0.67306872539E+02  0.00000000000E+00 0. -1.
<mgrwt>
<rscale>  0 0.80084428E+02</rscale>
<asrwt>0</asrwt>
<pdfrwt beam="1">  1        2 0.18242164E-01 0.80084428E+02</pdfrwt>
<pdfrwt beam="2">  1       -1 0.20803342E-02 0.80084428E+02</pdfrwt>
<totfact> 0.18567678E+05</totfact>
</mgrwt>
</event>
<event>
 8    1  0.1226832E-020  0.8121355E+02  0.7818608E-02  0.1325642E+00
         -1   -1    0    0    0  501 -0.00000000000E+00  0.00000000000E+00  0.21554230197E+03  0.21554230203E+03  0.50400000000E-02 0.  1.
          2   -1    0    0  501    0  0.00000000000E+00 -0.00000000000E+00 -0.76500537307E+01  0.76500541557E+01  0.25500000000E-02 0. -1.
         24    2    1    2    0    0  0.00000000000E+00  0.00000000000E+00  0.20789224824E+03  0.22319235618E+03  0.81213551709E+02 0.  0.
         66    2    3    3    0    0 -0.99755340864E+01  0.31732998366E+02  0.40121939291E+02  0.52156154770E+02  0.20000005721E+01 0.  0.
        -13    1    3    3    0    0  0.99755340864E+01 -0.31732998366E+02  0.16777030895E+03  0.17103620141E+03  0.10566000000E+00 0.  1.
         13    1    4    4    0    0 -0.34959710432E+01  0.12808159245E+02  0.15616329734E+02  0.20497601694E+02  0.10566000000E+00 0.  1.
        -13    1    4    4    0    0 -0.14000062627E+01  0.50716532949E+01  0.57482391130E+01  0.77932728436E+01  0.10566000000E+00 0. -1.
        -14    1    4    4    0    0 -0.50795567805E+01  0.13853185827E+02  0.18757370443E+02  0.23865280233E+02  0.00000000000E+00 0.  1.
<mgrwt>
<rscale>  0 0.81213552E+02</rscale>
<asrwt>0</asrwt>
<pdfrwt beam="1">  1        2 0.11769312E-02 0.81213552E+02</pdfrwt>
<pdfrwt beam="2">  1       -1 0.33160358E-01 0.81213552E+02</pdfrwt>
<totfact> 0.93653323E+04</totfact>
</mgrwt>
</event>
<event>
 8    1  0.1226832E-020  0.7903593E+02  0.7818608E-02  0.1331810E+00
         -1   -1    0    0    0  501 -0.00000000000E+00  0.00000000000E+00  0.82576493670E+01  0.82576509051E+01  0.50400000000E-02 0.  1.
          2   -1    0    0  501    0  0.00000000000E+00 -0.00000000000E+00 -0.18911789238E+03  0.18911789240E+03  0.25500000000E-02 0. -1.
         24    2    1    2    0    0  0.00000000000E+00  0.00000000000E+00 -0.18086024301E+03  0.19737554330E+03  0.79035925952E+02 0.  0.
         66    2    3    3    0    0 -0.37534494224E+02 -0.74643519683E+01 -0.11484247034E+03  0.12106753403E+03  0.19999986136E+01 0.  0.
        -13    1    3    3    0    0  0.37534494224E+02  0.74643519683E+01 -0.66017772674E+02  0.76308009277E+02  0.10566000000E+00 0.  1.
         13    1    4    4    0    0 -0.13878640382E+02 -0.31182677482E+01 -0.40948313329E+02  0.43348769084E+02  0.10566000000E+00 0. -1.
        -13    1    4    4    0    0 -0.22534375459E+02 -0.42529768809E+01 -0.69662785579E+02  0.73340307801E+02  0.10566000000E+00 0.  1.
        -14    1    4    4    0    0 -0.11214783830E+01 -0.93107339200E-01 -0.42313714308E+01  0.43784571399E+01  0.00000000000E+00 0.  1.
<mgrwt>
<rscale>  0 0.79035926E+02</rscale>
<asrwt>0</asrwt>
<pdfrwt beam="1">  1        2 0.29095057E-01 0.79035926E+02</pdfrwt>
<pdfrwt beam="2">  1       -1 0.12704079E-02 0.79035926E+02</pdfrwt>
<totfact> 0.22340085E+05</totfact>
</mgrwt>
</event>
<event>
 8    1  0.1226832E-020  0.7663875E+02  0.7818608E-02  0.1338870E+00
         -1   -1    0    0    0  501 -0.00000000000E+00  0.00000000000E+00  0.12871540723E+02  0.12871541710E+02  0.50400000000E-02 0.  1.
          2   -1    0    0  501    0  0.00000000000E+00 -0.00000000000E+00 -0.11407915173E+03  0.11407915176E+03  0.25500000000E-02 0. -1.
         24    2    1    2    0    0  0.00000000000E+00  0.00000000000E+00 -0.10120761101E+03  0.12695069347E+03  0.76638750293E+02 0.  0.
         66    2    3    3    0    0 -0.26818633727E+02  0.21335817694E+02 -0.78939945873E+02  0.86081190093E+02  0.20000004409E+01 0.  0.
        -13    1    3    3    0    0  0.26818633727E+02 -0.21335817694E+02 -0.22267665135E+02  0.40869503377E+02  0.10566000000E+00 0.  1.
         13    1    4    4    0    0 -0.15354550477E+02  0.12294316122E+02 -0.44857775511E+02  0.48981053654E+02  0.10566000000E+00 0. -1.
        -13    1    4    4    0    0 -0.83937221513E+01  0.65358216332E+01 -0.23341858164E+02  0.25651998803E+02  0.10566000000E+00 0.  1.
         14    1    4    4    0    0 -0.30703610986E+01  0.25056799396E+01 -0.10740312198E+02  0.11448137636E+02  0.00000000000E+00 0. -1.
<mgrwt>
<rscale>  0 0.76638750E+02</rscale>
<asrwt>0</asrwt>
<pdfrwt beam="1">  1        2 0.17550638E-01 0.76638750E+02</pdfrwt>
<pdfrwt beam="2">  1       -1 0.19802372E-02 0.76638750E+02</pdfrwt>
<totfact> 0.20637932E+05</totfact>
</mgrwt>
</event>
<event>
 8    1  0.1226832E-020  0.7942674E+02  0.7818608E-02  0.1330686E+00
         -1   -1    0    0    0  501 -0.00000000000E+00  0.00000000000E+00  0.10271158375E+02  0.10271159611E+02  0.50400000000E-02 0.  1.
          2   -1    0    0  501    0  0.00000000000E+00 -0.00000000000E+00 -0.15355148143E+03  0.15355148145E+03  0.25500000000E-02 0. -1.
         24    2    1    2    0    0  0.17763568394E-14  0.00000000000E+00 -0.14328032306E+03  0.16382264106E+03  0.79426738255E+02 0.  0.
         66    2    3    3    0    0 -0.13829179294E+02 -0.36845062222E+02 -0.82271435287E+02  0.91221674397E+02  0.20000013472E+01 0.  0.
        -13    1    3    3    0    0  0.13829179294E+02  0.36845062222E+02 -0.61008887768E+02  0.72600966666E+02  0.10566000000E+00 0.  1.
         13    1    4    4    0    0 -0.30420345576E+01 -0.78861309852E+01 -0.18231406986E+02  0.20095780674E+02  0.10566000000E+00 0. -1.
        -13    1    4    4    0    0 -0.21519806835E+01 -0.40991860463E+01 -0.96500117809E+01  0.10703655381E+02  0.10566000000E+00 0.  1.
         14    1    4    4    0    0 -0.86351640533E+01 -0.24859745190E+02 -0.54390016520E+02  0.60422238342E+02  0.00000000000E+00 0. -1.
<mgrwt>
<rscale>  0 0.79426738E+02</rscale>
<asrwt>0</asrwt>
<pdfrwt beam="1">  1        2 0.23623303E-01 0.79426738E+02</pdfrwt>
<pdfrwt beam="2">  1       -1 0.15801784E-02 0.79426738E+02</pdfrwt>
<totfact> 0.20570613E+05</totfact>
</mgrwt>
</event>
<event>
 8    1  0.1226832E-020  0.7943744E+02  0.7818608E-02  0.1330656E+00
          2   -1    0    0  501    0  0.00000000000E+00  0.00000000000E+00  0.68705938677E+02  0.68705938724E+02  0.25500000000E-02 0. -1.
         -1   -1    0    0    0  501 -0.00000000000E+00 -0.00000000000E+00 -0.22961287023E+02  0.22961287577E+02  0.50400000000E-02 0.  1.
         24    2    1    2    0    0 -0.55511151231E-16  0.00000000000E+00  0.45744651654E+02  0.91667226301E+02  0.79437442197E+02 0.  0.
         66    2    3    3    0    0  0.28790539979E+00  0.39641888542E+02  0.25197471944E+02  0.47015686856E+02  0.20000003731E+01 0.  0.
        -13    1    3    3    0    0 -0.28790539979E+00 -0.39641888542E+02  0.20547179710E+02  0.44651539445E+02  0.10566000000E+00 0.  1.
         13    1    4    4    0    0  0.17478325350E+00  0.25074982226E+02  0.16644426018E+02  0.30097065709E+02  0.10566000000E+00 0. -1.
        -13    1    4    4    0    0  0.27389086151E+00  0.13757410585E+02  0.79068953395E+01  0.15870460616E+02  0.10566000000E+00 0.  1.
         14    1    4    4    0    0 -0.16076871522E+00  0.80949573157E+00  0.64615058649E+00  0.10481605314E+01  0.00000000000E+00 0. -1.
<mgrwt>
<rscale>  0 0.79437442E+02</rscale>
<asrwt>0</asrwt>
<pdfrwt beam="1">  1        2 0.10570144E-01 0.79437442E+02</pdfrwt>
<pdfrwt beam="2">  1       -1 0.35325057E-02 0.79437442E+02</pdfrwt>
<totfact> 0.16383373E+05</totfact>
</mgrwt>
</event>
<event>
 8    1  0.1226832E-020  0.7945273E+02  0.7818608E-02  0.1330612E+00
         -1   -1    0    0    0  501 -0.00000000000E+00  0.00000000000E+00  0.20600850408E+03  0.20600850415E+03  0.50400000000E-02 0.  1.
          2   -1    0    0  501    0  0.00000000000E+00 -0.00000000000E+00 -0.76607708879E+01  0.76607713123E+01  0.25500000000E-02 0. -1.
         24    2    1    2    0    0  0.00000000000E+00  0.00000000000E+00  0.19834773320E+03  0.21366927546E+03  0.79452728151E+02 0.  0.
         66    2    3    3    0    0  0.34853785716E+02  0.14748734000E+02  0.13149283831E+03  0.13684545319E+03  0.19999997476E+01 0.  0.
        -13    1    3    3    0    0 -0.34853785716E+02 -0.14748734000E+02  0.66854894888E+02  0.76823822268E+02  0.10566000000E+00 0.  1.
         13    1    4    4    0    0  0.17638806280E+02  0.80025277552E+01  0.68269201064E+02  0.70963814126E+02  0.10566000000E+00 0. -1.
        -13    1    4    4    0    0  0.54868852409E+01  0.26686860125E+01  0.21598750921E+02  0.22444264302E+02  0.10566000000E+00 0.  1.
        -14    1    4    4    0    0  0.11728094195E+02  0.40775202328E+01  0.41624886323E+02  0.43437374761E+02  0.00000000000E+00 0.  1.
<mgrwt>
<rscale>  0 0.79452728E+02</rscale>
<asrwt>0</asrwt>
<pdfrwt beam="1">  1        2 0.11785805E-02 0.79452728E+02</pdfrwt>
<pdfrwt beam="2">  1       -1 0.31693607E-01 0.79452728E+02</pdfrwt>
<totfact> 0.10044792E+05</totfact>
</mgrwt>
</event>
<event>
 8    1  0.1226832E-020  0.8508150E+02  0.7818608E-02  0.1315220E+00
         -1   -1    0    0    0  501 -0.00000000000E+00  0.00000000000E+00  0.58772982937E+01  0.58773004547E+01  0.50400000000E-02 0.  1.
          2   -1    0    0  501    0  0.00000000000E+00 -0.00000000000E+00 -0.30791616825E+03  0.30791616827E+03  0.25500000000E-02 0. -1.
         24    2    1    2    0    0  0.00000000000E+00 -0.88817841970E-15 -0.30203886996E+03  0.31379346872E+03  0.85081502361E+02 0.  0.
         66    2    3    3    0    0 -0.41365992765E+02 -0.58703234526E+01 -0.12203767286E+03  0.12900697522E+03  0.20000014171E+01 0.  0.
        -13    1    3    3    0    0  0.41365992765E+02  0.58703234526E+01 -0.18000119711E+03  0.18478649350E+03  0.10566000000E+00 0.  1.
         13    1    4    4    0    0 -0.49816016048E+01 -0.10855660043E+01 -0.13988982610E+02  0.14889513310E+02  0.10566000000E+00 0. -1.
        -13    1    4    4    0    0 -0.14115278772E+02 -0.21564896336E+01 -0.40417571365E+02  0.42865869657E+02  0.10566000000E+00 0.  1.
         14    1    4    4    0    0 -0.22269112389E+02 -0.26282678148E+01 -0.67631118880E+02  0.71251592258E+02  0.00000000000E+00 0. -1.
<mgrwt>
<rscale>  0 0.85081502E+02</rscale>
<asrwt>0</asrwt>
<pdfrwt beam="1">  1        2 0.47371706E-01 0.85081502E+02</pdfrwt>
<pdfrwt beam="2">  1       -1 0.90420015E-03 0.85081502E+02</pdfrwt>
<totfact> 0.21889209E+05</totfact>
</mgrwt>
</event>
<event>
 8    1  0.1226832E-020  0.7573111E+02  0.7818608E-02  0.1341622E+00
          2   -1    0    0  501    0  0.00000000000E+00  0.00000000000E+00  0.51648319818E+02  0.51648319881E+02  0.25500000000E-02 0. -1.
         -1   -1    0    0    0  501 -0.00000000000E+00 -0.00000000000E+00 -0.27760831146E+02  0.27760831603E+02  0.50400000000E-02 0.  1.
         24    2    1    2    0    0  0.00000000000E+00  0.00000000000E+00  0.23887488673E+02  0.79409151484E+02  0.75731111337E+02 0.  0.
         66    2    3    3    0    0 -0.89593992816E+01  0.35353358614E+02  0.22524634906E+02  0.42912585410E+02  0.20000020434E+01 0.  0.
        -13    1    3    3    0    0  0.89593992816E+01 -0.35353358614E+02  0.13628537661E+01  0.36496566074E+02  0.10566000000E+00 0.  1.
         13    1    4    4    0    0 -0.10538016017E+01  0.56173180491E+01  0.32500216272E+01  0.65756037360E+01  0.10566000000E+00 0. -1.
        -13    1    4    4    0    0 -0.77738289163E+01  0.29615669745E+02  0.19104043129E+02  0.36090108595E+02  0.10566000000E+00 0.  1.
        -14    1    4    4    0    0 -0.13176876361E+00  0.12037081969E+00  0.17057015060E+00  0.24687307988E+00  0.00000000000E+00 0.  1.
<mgrwt>
<rscale>  0 0.75731111E+02</rscale>
<asrwt>0</asrwt>
<pdfrwt beam="1">  1        2 0.79458954E-02 0.75731111E+02</pdfrwt>
<pdfrwt beam="2">  1       -1 0.42708971E-02 0.75731111E+02</pdfrwt>
<totfact> 0.17475340E+05</totfact>
</mgrwt>
</event>
<event>
 8    1  0.1226832E-020  0.7939358E+02  0.7818608E-02  0.1330781E+00
         -1   -1    0    0    0  501 -0.00000000000E+00  0.00000000000E+00  0.29780817780E+01  0.29780860428E+01  0.50400000000E-02 0.  1.
          2   -1    0    0  501    0  0.00000000000E+00 -0.00000000000E+00 -0.52914390565E+03  0.52914390565E+03  0.25500000000E-02 0. -1.
         24    2    1    2    0    0 -0.22204460493E-15 -0.35527136788E-14 -0.52616582387E+03  0.53212199170E+03  0.79393575550E+02 0.  0.
         66    2    3    3    0    0 -0.12888118676E+01  0.22027027598E+02 -0.48422097841E+03  0.48472755948E+03  0.20000004338E+01 0.  0.
        -13    1    3    3    0    0  0.12888118676E+01 -0.22027027598E+02 -0.41944845454E+02  0.47394432216E+02  0.10566000000E+00 0.  1.
         13    1    4    4    0    0 -0.95881363176E+00  0.90511638876E+01 -0.19436354965E+03  0.19457657487E+03  0.10566000000E+00 0. -1.
        -13    1    4    4    0    0 -0.35224401815E+00  0.74983071131E+01 -0.15322643948E+03  0.15341023957E+03  0.10566000000E+00 0.  1.
        -14    1    4    4    0    0  0.22245782333E-01  0.54775565976E+01 -0.13663098929E+03  0.13674074504E+03  0.00000000000E+00 0.  1.
<mgrwt>
<rscale>  0 0.79393576E+02</rscale>
<asrwt>0</asrwt>
<pdfrwt beam="1">  1        2 0.81406680E-01 0.79393576E+02</pdfrwt>
<pdfrwt beam="2">  1       -1 0.45816718E-03 0.79393576E+02</pdfrwt>
<totfact> 0.31616854E+05</totfact>
</mgrwt>
</event>
<event>
 8    1  0.1226832E-020  0.8093374E+02  0.7818608E-02  0.1326422E+00
         -1   -1    0    0    0  501 -0.00000000000E+00  0.00000000000E+00  0.35118455619E+02  0.35118455981E+02  0.50400000000E-02 0.  1.
          2   -1    0    0  501    0  0.00000000000E+00 -0.00000000000E+00 -0.46629827964E+02  0.46629828034E+02  0.25500000000E-02 0. -1.
         24    2    1    2    0    0  0.44408920985E-15 -0.35527136788E-14 -0.11511372345E+02  0.81748284015E+02  0.80933739850E+02 0.  0.
         66    2    3    3    0    0  0.30033702955E+01  0.26579774608E+02 -0.36396923956E+02  0.45213280328E+02  0.19999982981E+01 0.  0.
        -13    1    3    3    0    0 -0.30033702955E+01 -0.26579774608E+02  0.24885551611E+02  0.36535003687E+02  0.10566000000E+00 0.  1.
         13    1    4    4    0    0  0.23792360084E+01  0.22061529905E+02 -0.29656395307E+02  0.37038963436E+02  0.10566000000E+00 0. -1.
        -13    1    4    4    0    0  0.58281557436E+00  0.45384551804E+01 -0.66917014568E+01  0.81072363874E+01  0.10566000000E+00 0.  1.
        -14    1    4    4    0    0  0.41318712824E-01 -0.20210477510E-01 -0.48827192034E-01  0.67080504713E-01  0.00000000000E+00 0.  1.
<mgrwt>
<rscale>  0 0.80933740E+02</rscale>
<asrwt>0</asrwt>
<pdfrwt beam="1">  1        2 0.71738197E-02 0.80933740E+02</pdfrwt>
<pdfrwt beam="2">  1       -1 0.54028394E-02 0.80933740E+02</pdfrwt>
<totfact> 0.14257835E+05</totfact>
</mgrwt>
</event>
<event>
 8    1  0.1226832E-020  0.8281465E+02  0.7818608E-02  0.1321248E+00
          2   -1    0    0  501    0  0.00000000000E+00  0.00000000000E+00  0.62642433248E+02  0.62642433300E+02  0.25500000000E-02 0. -1.
         -1   -1    0    0    0  501 -0.00000000000E+00 -0.00000000000E+00 -0.27370689151E+02  0.27370689615E+02  0.50400000000E-02 0.  1.
         24    2    1    2    0    0  0.00000000000E+00  0.00000000000E+00  0.35271744097E+02  0.90013122915E+02  0.82814650668E+02 0.  0.
         66    2    3    3    0    0  0.56528167594E+00  0.40701997411E+02  0.25750043980E+02  0.48208265855E+02  0.19999987820E+01 0.  0.
        -13    1    3    3    0    0 -0.56528167594E+00 -0.40701997411E+02  0.95217001173E+01  0.41804857060E+02  0.10566000000E+00 0.  1.
         13    1    4    4    0    0  0.28803399594E+00  0.27585482483E+02  0.17213801426E+02  0.32517194390E+02  0.10566000000E+00 0. -1.
        -13    1    4    4    0    0 -0.25443347873E+00  0.11248014516E+01  0.63834577199E+00  0.13223328102E+01  0.10566000000E+00 0.  1.
        -14    1    4    4    0    0  0.53168115873E+00  0.11991713476E+02  0.78978967813E+01  0.14368738655E+02  0.00000000000E+00 0.  1.
<mgrwt>
<rscale>  0 0.82814651E+02</rscale>
<asrwt>0</asrwt>
<pdfrwt beam="1">  1        2 0.96372974E-02 0.82814651E+02</pdfrwt>
<pdfrwt beam="2">  1       -1 0.42108753E-02 0.82814651E+02</pdfrwt>
<totfact> 0.14310218E+05</totfact>
</mgrwt>
</event>
<event>
 8    1  0.1226832E-020  0.7939739E+02  0.7818608E-02  0.1330770E+00
         -1   -1    0    0    0  501 -0.00000000000E+00  0.00000000000E+00  0.29232589788E+01  0.29232633236E+01  0.50400000000E-02 0.  1.
          2   -1    0    0  501    0  0.00000000000E+00 -0.00000000000E+00 -0.53911927799E+03  0.53911927799E+03  0.25500000000E-02 0. -1.
         24    2    1    2    0    0  0.17763568394E-14  0.35527136788E-14 -0.53619601901E+03  0.54204254132E+03  0.79397391624E+02 0.  0.
         66    2    3    3    0    0 -0.12535015058E+02 -0.17821099229E+02 -0.49461634921E+03  0.49510004155E+03  0.20000129971E+01 0.  0.
        -13    1    3    3    0    0  0.12535015058E+02  0.17821099229E+02 -0.41579669796E+02  0.46942499770E+02  0.10566000000E+00 0.  1.
         13    1    4    4    0    0 -0.68101933144E+01 -0.87713698176E+01 -0.26554470663E+03  0.26577681999E+03  0.10566000000E+00 0. -1.
        -13    1    4    4    0    0 -0.48654952459E+01 -0.72597595681E+01 -0.18206333714E+03  0.18227300142E+03  0.10566000000E+00 0.  1.
         14    1    4    4    0    0 -0.85932649722E+00 -0.17899698430E+01 -0.47008305450E+02  0.47050220141E+02  0.00000000000E+00 0. -1.
<mgrwt>
<rscale>  0 0.79397392E+02</rscale>
<asrwt>0</asrwt>
<pdfrwt beam="1">  1        2 0.82941348E-01 0.79397392E+02</pdfrwt>
<pdfrwt beam="2">  1       -1 0.44973292E-03 0.79397392E+02</pdfrwt>
<totfact> 0.31793797E+05</totfact>
</mgrwt>
</event>
<event>
 8    1  0.1226832E-020  0.7945368E+02  0.7818608E-02  0.1330609E+00
         -1   -1    0    0    0  501 -0.00000000000E+00  0.00000000000E+00  0.52606853426E+02  0.52606853667E+02  0.50400000000E-02 0.  1.
          2   -1    0    0  501    0  0.00000000000E+00 -0.00000000000E+00 -0.30000309206E+02  0.30000309314E+02  0.25500000000E-02 0. -1.
         24    2    1    2    0    0  0.00000000000E+00  0.00000000000E+00  0.22606544220E+02  0.82607162981E+02  0.79453681691E+02 0.  0.
         66    2    3    3    0    0 -0.25754440055E+02  0.29894781939E+02  0.15869397881E+02  0.42577305693E+02  0.20000003099E+01 0.  0.
        -13    1    3    3    0    0  0.25754440055E+02 -0.29894781939E+02  0.67371463390E+01  0.40029857289E+02  0.10566000000E+00 0.  1.
         13    1    4    4    0    0 -0.61563854130E+01  0.72240283316E+01  0.40550664947E+01  0.10321937560E+02  0.10566000000E+00 0. -1.
        -13    1    4    4    0    0 -0.18701915706E+02  0.21137617725E+02  0.10873782425E+02  0.30245840084E+02  0.10566000000E+00 0.  1.
        -14    1    4    4    0    0 -0.89613893574E+00  0.15331358826E+01  0.94054896140E+00  0.20095280480E+01  0.00000000000E+00 0.  1.
<mgrwt>
<rscale>  0 0.79453682E+02</rscale>
<asrwt>0</asrwt>
<pdfrwt beam="1">  1        2 0.46154323E-02 0.79453682E+02</pdfrwt>
<pdfrwt beam="2">  1       -1 0.80933620E-02 0.79453682E+02</pdfrwt>
<totfact> 0.13716019E+05</totfact>
</mgrwt>
</event>
<event>
 8    1  0.1226832E-020  0.7934433E+02  0.7818608E-02  0.1330922E+00
          2   -1    0    0  501    0  0.00000000000E+00  0.00000000000E+00  0.24183264680E+03  0.24183264681E+03  0.25500000000E-02 0. -1.
         -1   -1    0    0    0  501 -0.00000000000E+00 -0.00000000000E+00 -0.65081390542E+01  0.65081410057E+01  0.50400000000E-02 0.  1.
         24    2    1    2    0    0  0.00000000000E+00  0.00000000000E+00  0.23532450775E+03  0.24834078782E+03  0.79344331548E+02 0.  0.
         66    2    3    3    0    0 -0.32495235023E+02 -0.62837123099E+01  0.18605572866E+03  0.18898719403E+03  0.19999996384E+01 0.  0.
        -13    1    3    3    0    0  0.32495235023E+02  0.62837123099E+01  0.49268779083E+02  0.59353593792E+02  0.10566000000E+00 0.  1.
         13    1    4    4    0    0 -0.23830182122E+02 -0.47181148951E+01  0.13346935422E+03  0.13566214604E+03  0.10566000000E+00 0.  1.
        -13    1    4    4    0    0 -0.48337314106E+01 -0.11862037213E+01  0.28018175080E+02  0.28457008583E+02  0.10566000000E+00 0. -1.
         14    1    4    4    0    0 -0.38313214910E+01 -0.37939369344E+00  0.24568199359E+02  0.24868039402E+02  0.00000000000E+00 0. -1.
<mgrwt>
<rscale>  0 0.79344332E+02</rscale>
<asrwt>0</asrwt>
<pdfrwt beam="1">  1        2 0.37205025E-01 0.79344332E+02</pdfrwt>
<pdfrwt beam="2">  1       -1 0.10012523E-02 0.79344332E+02</pdfrwt>
<totfact> 0.24102433E+05</totfact>
</mgrwt>
</event>
<event>
 8    1  0.1226832E-020  0.8137561E+02  0.7818608E-02  0.1325192E+00
          2   -1    0    0  501    0  0.00000000000E+00  0.00000000000E+00  0.33358155128E+04  0.33358155128E+04  0.25500000000E-02 0. -1.
         -1   -1    0    0    0  501 -0.00000000000E+00 -0.00000000000E+00 -0.49626685048E+00  0.49629244251E+00  0.50400000000E-02 0.  1.
         24    2    1    2    0    0  0.00000000000E+00  0.00000000000E+00  0.33353192460E+04  0.33363118052E+04  0.81375606946E+02 0.  0.
         66    2    3    3    0    0 -0.18921635194E+01  0.11006738546E+02  0.32716976116E+04  0.32717172846E+04  0.20000016112E+01 0.  0.
        -13    1    3    3    0    0  0.18921635194E+01 -0.11006738546E+02  0.63621634356E+02  0.64594520652E+02  0.10566000000E+00 0.  1.
         13    1    4    4    0    0 -0.61936749650E+00  0.89325418666E+00  0.23620601888E+03  0.23620854354E+03  0.10566000000E+00 0. -1.
        -13    1    4    4    0    0 -0.57161092934E+00  0.31205746955E+01  0.92408922695E+03  0.92409467873E+03  0.10566000000E+00 0. -1.
         14    1    4    4    0    0 -0.70118509357E+00  0.69929096637E+01  0.21114023658E+04  0.21114140623E+04  0.00000000000E+00 0. -1.
<mgrwt>
<rscale>  0 0.81375607E+02</rscale>
<asrwt>0</asrwt>
<pdfrwt beam="1">  1        2 0.51318018E+00 0.81375607E+02</pdfrwt>
<pdfrwt beam="2">  1       -1 0.76354019E-04 0.81375607E+02</pdfrwt>
<totfact> 0.10129515E+05</totfact>
</mgrwt>
</event>
<event>
 8    1  0.1226832E-020  0.7949866E+02  0.7818608E-02  0.1330480E+00
          2   -1    0    0  501    0  0.00000000000E+00  0.00000000000E+00  0.59435573395E+03  0.59435573396E+03  0.25500000000E-02 0. -1.
         -1   -1    0    0    0  501 -0.00000000000E+00 -0.00000000000E+00 -0.26583538514E+01  0.26583586291E+01  0.50400000000E-02 0.  1.
         24    2    1    2    0    0  0.00000000000E+00 -0.17763568394E-14  0.59169738010E+03  0.59701409259E+03  0.79498661178E+02 0.  0.
         66    2    3    3    0    0 -0.13549387500E+02 -0.11104886743E+02  0.56377624730E+03  0.56405191377E+03  0.20000003654E+01 0.  0.
        -13    1    3    3    0    0  0.13549387500E+02  0.11104886743E+02  0.27921132804E+02  0.32962178816E+02  0.10566000000E+00 0.  1.
         13    1    4    4    0    0 -0.42211088741E+01 -0.28833312664E+01  0.17207637771E+03  0.17215232292E+03  0.10566000000E+00 0. -1.
        -13    1    4    4    0    0 -0.34416148332E+01 -0.28797045316E+01  0.16219614702E+03  0.16225824689E+03  0.10566000000E+00 0.  1.
        -14    1    4    4    0    0 -0.58866637927E+01 -0.53418509445E+01  0.22950372257E+03  0.22964134396E+03  0.00000000000E+00 0.  1.
<mgrwt>
<rscale>  0 0.79498661E+02</rscale>
<asrwt>0</asrwt>
<pdfrwt beam="1">  1        2 0.91439472E-01 0.79498661E+02</pdfrwt>
<pdfrwt beam="2">  1       -1 0.40897731E-03 0.79498661E+02</pdfrwt>
<totfact> 0.32607594E+05</totfact>
</mgrwt>
</event>
<event>
 8    1  0.1226832E-020  0.7838385E+02  0.7818608E-02  0.1333701E+00
         -1   -1    0    0    0  501 -0.00000000000E+00  0.00000000000E+00  0.11824988368E+03  0.11824988379E+03  0.50400000000E-02 0.  1.
          2   -1    0    0  501    0  0.00000000000E+00 -0.00000000000E+00 -0.12989500319E+02  0.12989500570E+02  0.25500000000E-02 0. -1.
         24    2    1    2    0    0 -0.71054273576E-14  0.00000000000E+00  0.10526038336E+03  0.13123938436E+03  0.78383848472E+02 0.  0.
         66    2    3    3    0    0 -0.35601293819E+02 -0.64447098247E+01  0.27548740464E+02  0.45518342530E+02  0.19999997867E+01 0.  0.
        -13    1    3    3    0    0  0.35601293819E+02  0.64447098247E+01  0.77711642895E+02  0.85721041827E+02  0.10566000000E+00 0.  1.
         13    1    4    4    0    0 -0.22057680696E+02 -0.46996678411E+01  0.17454591205E+02  0.28518451460E+02  0.10566000000E+00 0. -1.
        -13    1    4    4    0    0 -0.25160013069E+01 -0.87665912538E-01  0.20808551789E+01  0.32678846674E+01  0.10566000000E+00 0.  1.
         14    1    4    4    0    0 -0.11027611816E+02 -0.16573760711E+01  0.80132940802E+01  0.13732006402E+02  0.00000000000E+00 0. -1.
<mgrwt>
<rscale>  0 0.78383848E+02</rscale>
<asrwt>0</asrwt>
<pdfrwt beam="1">  1        2 0.19983848E-02 0.78383848E+02</pdfrwt>
<pdfrwt beam="2">  1       -1 0.18192289E-01 0.78383848E+02</pdfrwt>
<totfact> 0.12022712E+05</totfact>
</mgrwt>
</event>
<event>
 8    1  0.1226832E-020  0.7999730E+02  0.7818608E-02  0.1329059E+00
          2   -1    0    0  501    0  0.00000000000E+00  0.00000000000E+00  0.20842994091E+03  0.20842994092E+03  0.25500000000E-02 0. -1.
         -1   -1    0    0    0  501 -0.00000000000E+00 -0.00000000000E+00 -0.76759217334E+01  0.76759233881E+01  0.50400000000E-02 0.  1.
         24    2    1    2    0    0  0.00000000000E+00  0.00000000000E+00  0.20075401917E+03  0.21610586431E+03  0.79997302299E+02 0.  0.
         66    2    3    3    0    0  0.11909570064E+02  0.37051870177E+02  0.12508147774E+03  0.13101165984E+03  0.19999996946E+01 0.  0.
        -13    1    3    3    0    0 -0.11909570064E+02 -0.37051870177E+02  0.75672541433E+02  0.85094204466E+02  0.10566000000E+00 0.  1.
         13    1    4    4    0    0  0.31403479533E+01  0.12187607080E+02  0.40917810906E+02  0.42809788191E+02  0.10566000000E+00 0. -1.
        -13    1    4    4    0    0  0.14951555953E+00  0.62155310256E+00  0.18109584302E+01  0.19233870212E+01  0.10566000000E+00 0. -1.
         14    1    4    4    0    0  0.86197065515E+01  0.24242709994E+02  0.82352708403E+02  0.86278484631E+02  0.00000000000E+00 0. -1.
<mgrwt>
<rscale>  0 0.79997302E+02</rscale>
<asrwt>0</asrwt>
<pdfrwt beam="1">  1        2 0.32066148E-01 0.79997302E+02</pdfrwt>
<pdfrwt beam="2">  1       -1 0.11809111E-02 0.79997302E+02</pdfrwt>
<totfact> 0.22380306E+05</totfact>
</mgrwt>
</event>
<event>
 8    1  0.1226832E-020  0.7981136E+02  0.7818608E-02  0.1329588E+00
          2   -1    0    0  501    0  0.00000000000E+00  0.00000000000E+00  0.17371484371E+02  0.17371484558E+02  0.25500000000E-02 0. -1.
         -1   -1    0    0    0  501 -0.00000000000E+00 -0.00000000000E+00 -0.91671113734E+02  0.91671113873E+02  0.50400000000E-02 0.  1.
         24    2    1    2    0    0 -0.88817841970E-15  0.00000000000E+00 -0.74299629364E+02  0.10904259843E+03  0.79811361027E+02 0.  0.
         66    2    3    3    0    0 -0.56479081672E+01  0.38842497793E+02 -0.46816536381E+02  0.61126316591E+02  0.19999999352E+01 0.  0.
        -13    1    3    3    0    0  0.56479081672E+01 -0.38842497793E+02 -0.27483092983E+02  0.47916281840E+02  0.10566000000E+00 0.  1.
         13    1    4    4    0    0 -0.44161657575E+01  0.27899252815E+02 -0.33409814259E+02  0.43750402061E+02  0.10566000000E+00 0. -1.
        -13    1    4    4    0    0 -0.10513238183E+01  0.83306149671E+01 -0.10804545738E+02  0.13684071036E+02  0.10566000000E+00 0.  1.
         14    1    4    4    0    0 -0.18041859136E+00  0.26126300107E+01 -0.26021763847E+01  0.36918434932E+01  0.00000000000E+00 0. -1.
<mgrwt>
<rscale>  0 0.79811361E+02</rscale>
<asrwt>0</asrwt>
<pdfrwt beam="1">  1        2 0.26725361E-02 0.79811361E+02</pdfrwt>
<pdfrwt beam="2">  1       -1 0.14103248E-01 0.79811361E+02</pdfrwt>
<totfact> 0.12144064E+05</totfact>
</mgrwt>
</event>
<event>
 8    1  0.1226832E-020  0.7669024E+02  0.7818608E-02  0.1338715E+00
         -1   -1    0    0    0  501 -0.00000000000E+00  0.00000000000E+00  0.12086737231E+01  0.12086842311E+01  0.50400000000E-02 0.  1.
          2   -1    0    0  501    0  0.00000000000E+00 -0.00000000000E+00 -0.12164917832E+04  0.12164917832E+04  0.25500000000E-02 0. -1.
         24    2    1    2    0    0  0.00000000000E+00  0.00000000000E+00 -0.12152831095E+04  0.12177004674E+04  0.76690235420E+02 0.  0.
         66    2    3    3    0    0 -0.31636023000E+00  0.24799139527E+02 -0.10718608441E+04  0.10721496008E+04  0.19999993437E+01 0.  0.
        -13    1    3    3    0    0  0.31636023000E+00 -0.24799139527E+02 -0.14342226538E+03  0.14555086663E+03  0.10566000000E+00 0.  1.
         13    1    4    4    0    0  0.23642825977E+00  0.44202100134E+01 -0.16950802462E+03  0.16956584482E+03  0.10566000000E+00 0. -1.
        -13    1    4    4    0    0  0.37365427632E-01  0.12648603698E+02 -0.57574913371E+03  0.57588806612E+03  0.10566000000E+00 0.  1.
         14    1    4    4    0    0 -0.59015391740E+00  0.77303258153E+01 -0.32660368577E+03  0.32669568987E+03  0.00000000000E+00 0. -1.
<mgrwt>
<rscale>  0 0.76690235E+02</rscale>
<asrwt>0</asrwt>
<pdfrwt beam="1">  1        2 0.18715160E+00 0.76690235E+02</pdfrwt>
<pdfrwt beam="2">  1       -1 0.18595159E-03 0.76690235E+02</pdfrwt>
<totfact> 0.39028775E+05</totfact>
</mgrwt>
</event>
<event>
 8    1  0.1226832E-020  0.7991214E+02  0.7818608E-02  0.1329301E+00
         -1   -1    0    0    0  501 -0.00000000000E+00  0.00000000000E+00  0.20841741790E+02  0.20841742400E+02  0.50400000000E-02 0.  1.
          2   -1    0    0  501    0  0.00000000000E+00 -0.00000000000E+00 -0.76600485698E+02  0.76600485740E+02  0.25500000000E-02 0. -1.
         24    2    1    2    0    0  0.00000000000E+00  0.00000000000E+00 -0.55758743908E+02  0.97442228140E+02  0.79912141148E+02 0.  0.
         66    2    3    3    0    0  0.14655081818E+02 -0.12540909845E+02 -0.70529957711E+02  0.73147254091E+02  0.20000008869E+01 0.  0.
        -13    1    3    3    0    0 -0.14655081818E+02  0.12540909845E+02  0.14771213803E+02  0.24294974050E+02  0.10566000000E+00 0.  1.
         13    1    4    4    0    0  0.82982303930E+01 -0.65286263008E+01 -0.39267910615E+02  0.40662803114E+02  0.10566000000E+00 0. -1.
        -13    1    4    4    0    0  0.36168479203E+01 -0.27351939997E+01 -0.17188716354E+02  0.17777120380E+02  0.10566000000E+00 0. -1.
         14    1    4    4    0    0  0.27400035043E+01 -0.32770895443E+01 -0.14073330742E+02  0.14707330596E+02  0.00000000000E+00 0. -1.
<mgrwt>
<rscale>  0 0.79912141E+02</rscale>
<asrwt>0</asrwt>
<pdfrwt beam="1">  1        2 0.11784690E-01 0.79912141E+02</pdfrwt>
<pdfrwt beam="2">  1       -1 0.32064219E-02 0.79912141E+02</pdfrwt>
<totfact> 0.16561022E+05</totfact>
</mgrwt>
</event>
<event>
 8    1  0.1226832E-020  0.8173993E+02  0.7818608E-02  0.1324185E+00
          2   -1    0    0  501    0  0.00000000000E+00  0.00000000000E+00  0.33454438929E+02  0.33454439026E+02  0.25500000000E-02 0. -1.
         -1   -1    0    0    0  501 -0.00000000000E+00 -0.00000000000E+00 -0.49929216144E+02  0.49929216398E+02  0.50400000000E-02 0.  1.
         24    2    1    2    0    0  0.00000000000E+00  0.00000000000E+00 -0.16474777215E+02  0.83383655424E+02  0.81739927255E+02 0.  0.
         66    2    3    3    0    0  0.26207156012E+02 -0.57532402581E+01  0.23173649253E+02  0.35509615641E+02  0.19999958869E+01 0.  0.
        -13    1    3    3    0    0 -0.26207156012E+02  0.57532402581E+01 -0.39648426468E+02  0.47874039783E+02  0.10566000000E+00 0.  1.
         13    1    4    4    0    0  0.86514465655E+01 -0.15255219264E+01  0.76610447061E+01  0.11656651099E+02  0.10566000000E+00 0. -1.
        -13    1    4    4    0    0  0.89874378525E+01 -0.14216789427E+01  0.80375515283E+01  0.12141194701E+02  0.10566000000E+00 0.  1.
         14    1    4    4    0    0  0.85682715940E+01 -0.28060393890E+01  0.74750530191E+01  0.11711769841E+02  0.00000000000E+00 0. -1.
<mgrwt>
<rscale>  0 0.81739927E+02</rscale>
<asrwt>0</asrwt>
<pdfrwt beam="1">  1        2 0.51468368E-02 0.81739927E+02</pdfrwt>
<pdfrwt beam="2">  1       -1 0.76814179E-02 0.81739927E+02</pdfrwt>
<totfact> 0.12947449E+05</totfact>
</mgrwt>
</event>
<event>
 8    1  0.1226832E-020  0.7747733E+02  0.7818608E-02  0.1336367E+00
          2   -1    0    0  501    0  0.00000000000E+00  0.00000000000E+00  0.39846863289E+02  0.39846863371E+02  0.25500000000E-02 0. -1.
         -1   -1    0    0    0  501 -0.00000000000E+00 -0.00000000000E+00 -0.37661287250E+02  0.37661287587E+02  0.50400000000E-02 0.  1.
         24    2    1    2    0    0 -0.88817841970E-15 -0.35527136788E-14  0.21855760396E+01  0.77508150958E+02  0.77477330377E+02 0.  0.
         66    2    3    3    0    0 -0.58630557230E+01 -0.19996824449E+02  0.33732109187E+02  0.39700171269E+02  0.19999995314E+01 0.  0.
        -13    1    3    3    0    0  0.58630557230E+01  0.19996824449E+02 -0.31546533148E+02  0.37807979689E+02  0.10566000000E+00 0.  1.
         13    1    4    4    0    0 -0.10293647813E+01 -0.48130545500E+01  0.78889564947E+01  0.92990260009E+01  0.10566000000E+00 0. -1.
        -13    1    4    4    0    0 -0.41065034483E+01 -0.12172829799E+02  0.19659437862E+02  0.23485012603E+02  0.10566000000E+00 0.  1.
        -14    1    4    4    0    0 -0.72718749336E+00 -0.30109401004E+01  0.61837148302E+01  0.69161326650E+01  0.00000000000E+00 0.  1.
<mgrwt>
<rscale>  0 0.77477330E+02</rscale>
<asrwt>0</asrwt>
<pdfrwt beam="1">  1        2 0.61302867E-02 0.77477330E+02</pdfrwt>
<pdfrwt beam="2">  1       -1 0.57940442E-02 0.77477330E+02</pdfrwt>
<totfact> 0.15560071E+05</totfact>
</mgrwt>
</event>
<event>
 8    1  0.1226832E-020  0.8101367E+02  0.7818608E-02  0.1326199E+00
         -1   -1    0    0    0  501 -0.00000000000E+00  0.00000000000E+00  0.37089784499E+01  0.37089818742E+01  0.50400000000E-02 0.  1.
          2   -1    0    0  501    0  0.00000000000E+00 -0.00000000000E+00 -0.44238673869E+03  0.44238673869E+03  0.25500000000E-02 0. -1.
         24    2    1    2    0    0  0.00000000000E+00  0.00000000000E+00 -0.43867776024E+03  0.44609572057E+03  0.81013669112E+02 0.  0.
         66    2    3    3    0    0  0.18644660229E+02  0.33539393615E+02 -0.29047825878E+03  0.29300875941E+03  0.19999977176E+01 0.  0.
        -13    1    3    3    0    0 -0.18644660229E+02 -0.33539393615E+02 -0.14819950146E+03  0.15308696116E+03  0.10566000000E+00 0.  1.
         13    1    4    4    0    0  0.22400254763E+01  0.36580913119E+01 -0.35242289320E+02  0.35502527611E+02  0.10566000000E+00 0. -1.
        -13    1    4    4    0    0  0.57866259758E+01  0.91748117932E+01 -0.81738312789E+02  0.82454988650E+02  0.10566000000E+00 0.  1.
         14    1    4    4    0    0  0.10618008777E+02  0.20706490510E+02 -0.17349765667E+03  0.17505124315E+03  0.00000000000E+00 0. -1.
<mgrwt>
<rscale>  0 0.81013669E+02</rscale>
<asrwt>0</asrwt>
<pdfrwt beam="1">  1        2 0.68059456E-01 0.81013669E+02</pdfrwt>
<pdfrwt beam="2">  1       -1 0.57061269E-03 0.81013669E+02</pdfrwt>
<totfact> 0.28303935E+05</totfact>
</mgrwt>
</event>
<event>
 8    1  0.1226832E-020  0.7883464E+02  0.7818608E-02  0.1332391E+00
          2   -1    0    0  501    0  0.00000000000E+00  0.00000000000E+00  0.11617635240E+04  0.11617635240E+04  0.25500000000E-02 0. -1.
         -1   -1    0    0    0  501 -0.00000000000E+00 -0.00000000000E+00 -0.13373804072E+01  0.13373899040E+01  0.50400000000E-02 0.  1.
         24    2    1    2    0    0 -0.88817841970E-15  0.35527136788E-14  0.11604261436E+04  0.11631009139E+04  0.78834644651E+02 0.  0.
         66    2    3    3    0    0  0.70036966293E+01  0.21891050533E+02  0.10525764477E+04  0.10528292588E+04  0.19999983039E+01 0.  0.
        -13    1    3    3    0    0 -0.70036966293E+01 -0.21891050533E+02  0.10784969585E+03  0.11027165510E+03  0.10566000000E+00 0.  1.
         13    1    4    4    0    0  0.39523663721E+01  0.13429344701E+02  0.60935242145E+03  0.60951321002E+03  0.10566000000E+00 0. -1.
        -13    1    4    4    0    0  0.10482674586E+01  0.19576872387E+01  0.11461164321E+03  0.11463320342E+03  0.10566000000E+00 0.  1.
        -14    1    4    4    0    0  0.20030627986E+01  0.65040185936E+01  0.32861238309E+03  0.32868284536E+03  0.00000000000E+00 0.  1.
<mgrwt>
<rscale>  0 0.78834645E+02</rscale>
<asrwt>0</asrwt>
<pdfrwt beam="1">  1        2 0.17873309E+00 0.78834645E+02</pdfrwt>
<pdfrwt beam="2">  1       -1 0.20575129E-03 0.78834645E+02</pdfrwt>
<totfact> 0.36509427E+05</totfact>
</mgrwt>
</event>
<event>
 8    1  0.1226832E-020  0.8094096E+02  0.7818608E-02  0.1326402E+00
          2   -1    0    0  501    0  0.00000000000E+00  0.00000000000E+00  0.44282847312E+02  0.44282847386E+02  0.25500000000E-02 0. -1.
         -1   -1    0    0    0  501 -0.00000000000E+00 -0.00000000000E+00 -0.36986327399E+02  0.36986327742E+02  0.50400000000E-02 0.  1.
         24    2    1    2    0    0  0.00000000000E+00  0.00000000000E+00  0.72965199138E+01  0.81269175128E+02  0.80940963814E+02 0.  0.
         66    2    3    3    0    0 -0.10991182526E+01 -0.39003884245E+02  0.14339960019E+02  0.41619052055E+02  0.19999983692E+01 0.  0.
        -13    1    3    3    0    0  0.10991182526E+01  0.39003884245E+02 -0.70434401057E+01  0.39650123073E+02  0.10566000000E+00 0.  1.
         13    1    4    4    0    0 -0.58523914516E-01 -0.11284619611E+02  0.36684169452E+01  0.11866529052E+02  0.10566000000E+00 0. -1.
        -13    1    4    4    0    0 -0.55819688083E+00 -0.36317725434E+01  0.15971871311E+01  0.40079329251E+01  0.10566000000E+00 0.  1.
        -14    1    4    4    0    0 -0.48239745730E+00 -0.24087492090E+02  0.90743559431E+01  0.25744590078E+02  0.00000000000E+00 0.  1.
<mgrwt>
<rscale>  0 0.80940964E+02</rscale>
<asrwt>0</asrwt>
<pdfrwt beam="1">  1        2 0.68127457E-02 0.80940964E+02</pdfrwt>
<pdfrwt beam="2">  1       -1 0.56902043E-02 0.80940964E+02</pdfrwt>
<totfact> 0.14098282E+05</totfact>
</mgrwt>
</event>
<event>
 8    1  0.1226832E-020  0.7914874E+02  0.7818608E-02  0.1331485E+00
          2   -1    0    0  501    0  0.00000000000E+00  0.00000000000E+00  0.11070390931E+03  0.11070390934E+03  0.25500000000E-02 0. -1.
         -1   -1    0    0    0  501 -0.00000000000E+00 -0.00000000000E+00 -0.14147021667E+02  0.14147022565E+02  0.50400000000E-02 0.  1.
         24    2    1    2    0    0  0.00000000000E+00 -0.71054273576E-14  0.96556887648E+02  0.12485093191E+03  0.79148737490E+02 0.  0.
         66    2    3    3    0    0  0.18211697949E+02 -0.30102059129E+02  0.76804502312E+02  0.84502848974E+02  0.20000008542E+01 0.  0.
        -13    1    3    3    0    0 -0.18211697949E+02  0.30102059129E+02  0.19752385336E+02  0.40348082935E+02  0.10566000000E+00 0.  1.
         13    1    4    4    0    0  0.58251702585E+01 -0.95695275938E+01  0.25115703819E+02  0.27501240141E+02  0.10566000000E+00 0. -1.
        -13    1    4    4    0    0  0.82001067961E+01 -0.14883392560E+02  0.37123558838E+02  0.40828016244E+02  0.10566000000E+00 0.  1.
         14    1    4    4    0    0  0.41864208946E+01 -0.56491389755E+01  0.14565239655E+02  0.16173592590E+02  0.00000000000E+00 0. -1.
<mgrwt>
<rscale>  0 0.79148737E+02</rscale>
<asrwt>0</asrwt>
<pdfrwt beam="1">  1        2 0.17031370E-01 0.79148737E+02</pdfrwt>
<pdfrwt beam="2">  1       -1 0.21764650E-02 0.79148737E+02</pdfrwt>
<totfact> 0.18776330E+05</totfact>
</mgrwt>
</event>
<event>
 8    1  0.1226832E-020  0.8011143E+02  0.7818608E-02  0.1328736E+00
         -1   -1    0    0    0  501 -0.00000000000E+00  0.00000000000E+00  0.13032783248E+01  0.13032880700E+01  0.50400000000E-02 0.  1.
          2   -1    0    0  501    0  0.00000000000E+00 -0.00000000000E+00 -0.12310909230E+04  0.12310909230E+04  0.25500000000E-02 0. -1.
         24    2    1    2    0    0  0.00000000000E+00  0.00000000000E+00 -0.12297876447E+04  0.12323942111E+04  0.80111425464E+02 0.  0.
         66    2    3    3    0    0 -0.16496266271E+02 -0.11928818079E+02 -0.11455119767E+04  0.11456945982E+04  0.19999998079E+01 0.  0.
        -13    1    3    3    0    0  0.16496266271E+02  0.11928818079E+02 -0.84275667973E+02  0.86699612905E+02  0.10566000000E+00 0.  1.
         13    1    4    4    0    0 -0.63213521534E+01 -0.43471545566E+01 -0.47516486491E+03  0.47522680612E+03  0.10566000000E+00 0. -1.
        -13    1    4    4    0    0 -0.30996034575E+01 -0.21039324968E+01 -0.17931715866E+03  0.17935631750E+03  0.10566000000E+00 0.  1.
         14    1    4    4    0    0 -0.70753106604E+01 -0.54777310258E+01 -0.49102995318E+03  0.49111147459E+03  0.00000000000E+00 0. -1.
<mgrwt>
<rscale>  0 0.80111425E+02</rscale>
<asrwt>0</asrwt>
<pdfrwt beam="1">  1        2 0.18939767E+00 0.80111425E+02</pdfrwt>
<pdfrwt beam="2">  1       -1 0.20050609E-03 0.80111425E+02</pdfrwt>
<totfact> 0.34802094E+05</totfact>
</mgrwt>
</event>
<event>
 8    1  0.1226832E-020  0.7977041E+02  0.7818608E-02  0.1329704E+00
         -1   -1    0    0    0  501 -0.00000000000E+00  0.00000000000E+00  0.95176357877E+01  0.95176371221E+01  0.50400000000E-02 0.  1.
          2   -1    0    0  501    0  0.00000000000E+00 -0.00000000000E+00 -0.16714543344E+03  0.16714543346E+03  0.25500000000E-02 0. -1.
         24    2    1    2    0    0 -0.71054273576E-14 -0.88817841970E-15 -0.15762779765E+03  0.17666307058E+03  0.79770407512E+02 0.  0.
         66    2    3    3    0    0  0.35338184639E+02  0.48819394390E+01 -0.11824437894E+03  0.12352470911E+03  0.19999958913E+01 0.  0.
        -13    1    3    3    0    0 -0.35338184639E+02 -0.48819394390E+01 -0.39383418707E+02  0.53138361467E+02  0.10566000000E+00 0.  1.
         13    1    4    4    0    0  0.27551592037E+02  0.42969599482E+01 -0.92371227135E+02  0.96488387151E+02  0.10566000000E+00 0. -1.
        -13    1    4    4    0    0  0.42808118023E+00  0.15499073694E+00 -0.13006685189E+01  0.13820919858E+01  0.10566000000E+00 0.  1.
         14    1    4    4    0    0  0.73585114216E+01  0.42998875394E+00 -0.24572483291E+02  0.25654229978E+02  0.00000000000E+00 0. -1.
<mgrwt>
<rscale>  0 0.79770408E+02</rscale>
<asrwt>0</asrwt>
<pdfrwt beam="1">  1        2 0.25714680E-01 0.79770408E+02</pdfrwt>
<pdfrwt beam="2">  1       -1 0.14642519E-02 0.79770408E+02</pdfrwt>
<totfact> 0.20910540E+05</totfact>
</mgrwt>
</event>
<event>
 8    1  0.1226832E-020  0.7932090E+02  0.7818608E-02  0.1330990E+00
          2   -1    0    0  501    0  0.00000000000E+00  0.00000000000E+00  0.24489434202E+03  0.24489434203E+03  0.25500000000E-02 0. -1.
         -1   -1    0    0    0  501 -0.00000000000E+00 -0.00000000000E+00 -0.64229779839E+01  0.64229799613E+01  0.50400000000E-02 0.  1.
         24    2    1    2    0    0  0.00000000000E+00  0.00000000000E+00  0.23847136404E+03  0.25131732200E+03  0.79320898062E+02 0.  0.
         66    2    3    3    0    0  0.14920132714E+02  0.26203627776E+02  0.20081308769E+03  0.20307421461E+03  0.19999957527E+01 0.  0.
        -13    1    3    3    0    0 -0.14920132714E+02 -0.26203627776E+02  0.37658276350E+02  0.48243107389E+02  0.10566000000E+00 0.  1.
         13    1    4    4    0    0  0.79642951581E+01  0.13549392809E+02  0.10647752114E+03  0.10763126737E+03  0.10566000000E+00 0. -1.
        -13    1    4    4    0    0  0.30866820941E+01  0.45582184844E+01  0.33610288840E+02  0.34058297697E+02  0.10566000000E+00 0.  1.
         14    1    4    4    0    0  0.38691554615E+01  0.80960164823E+01  0.60725277709E+02  0.61384649544E+02  0.00000000000E+00 0. -1.
<mgrwt>
<rscale>  0 0.79320898E+02</rscale>
<asrwt>0</asrwt>
<pdfrwt beam="1">  1        2 0.37676046E-01 0.79320898E+02</pdfrwt>
<pdfrwt beam="2">  1       -1 0.98815079E-03 0.79320898E+02</pdfrwt>
<totfact> 0.24229711E+05</totfact>
</mgrwt>
</event>
<event>
 8    1  0.1226832E-020  0.7692169E+02  0.7818608E-02  0.1338021E+00
          2   -1    0    0  501    0  0.00000000000E+00  0.00000000000E+00  0.62366519988E+02  0.62366520040E+02  0.25500000000E-02 0. -1.
         -1   -1    0    0    0  501 -0.00000000000E+00 -0.00000000000E+00 -0.23718441379E+02  0.23718441914E+02  0.50400000000E-02 0.  1.
         24    2    1    2    0    0  0.00000000000E+00  0.35527136788E-14  0.38648078609E+02  0.86084961954E+02  0.76921691963E+02 0.  0.
         66    2    3    3    0    0  0.96404692846E+01  0.24523680116E+02  0.50650210824E+02  0.57129619162E+02  0.19999986330E+01 0.  0.
        -13    1    3    3    0    0 -0.96404692846E+01 -0.24523680116E+02 -0.12002132216E+02  0.28955342792E+02  0.10566000000E+00 0.  1.
         13    1    4    4    0    0  0.31683310751E+01  0.89045486405E+01  0.17610135982E+02  0.19986429437E+02  0.10566000000E+00 0. -1.
        -13    1    4    4    0    0  0.15430752906E+01  0.24064835029E+01  0.59774494745E+01  0.66267118888E+01  0.10566000000E+00 0.  1.
         14    1    4    4    0    0  0.49290629189E+01  0.13212647973E+02  0.27062625368E+02  0.30516477836E+02  0.00000000000E+00 0. -1.
<mgrwt>
<rscale>  0 0.76921692E+02</rscale>
<asrwt>0</asrwt>
<pdfrwt beam="1">  1        2 0.95948492E-02 0.76921692E+02</pdfrwt>
<pdfrwt beam="2">  1       -1 0.36489911E-02 0.76921692E+02</pdfrwt>
<totfact> 0.17469094E+05</totfact>
</mgrwt>
</event>
<event>
 8    1  0.1226832E-020  0.7871127E+02  0.7818608E-02  0.1332749E+00
         -1   -1    0    0    0  501 -0.00000000000E+00  0.00000000000E+00  0.82995107212E+01  0.82995122515E+01  0.50400000000E-02 0.  1.
          2   -1    0    0  501    0  0.00000000000E+00 -0.00000000000E+00 -0.18662136312E+03  0.18662136313E+03  0.25500000000E-02 0. -1.
         24    2    1    2    0    0  0.00000000000E+00  0.00000000000E+00 -0.17832185239E+03  0.19492087538E+03  0.78711273775E+02 0.  0.
         66    2    3    3    0    0  0.17919216646E+02 -0.22252142537E+02 -0.15615479153E+03  0.15875948818E+03  0.19999997366E+01 0.  0.
        -13    1    3    3    0    0 -0.17919216646E+02  0.22252142537E+02 -0.22167060867E+02  0.36161387200E+02  0.10566000000E+00 0.  1.
         13    1    4    4    0    0  0.44320721015E+01 -0.62885616688E+01 -0.40982604527E+02  0.41698612793E+02  0.10566000000E+00 0. -1.
        -13    1    4    4    0    0  0.58572677518E+00 -0.96663913469E+00 -0.76830477528E+01  0.77664569708E+01  0.10566000000E+00 0. -1.
         14    1    4    4    0    0  0.12901417769E+02 -0.14996941734E+02 -0.10748913925E+03  0.10929441842E+03  0.00000000000E+00 0. -1.
<mgrwt>
<rscale>  0 0.78711274E+02</rscale>
<asrwt>0</asrwt>
<pdfrwt beam="1">  1        2 0.28710976E-01 0.78711274E+02</pdfrwt>
<pdfrwt beam="2">  1       -1 0.12768481E-02 0.78711274E+02</pdfrwt>
<totfact> 0.22481493E+05</totfact>
</mgrwt>
</event>
<event>
 8    1  0.1226832E-020  0.8129034E+02  0.7818608E-02  0.1325429E+00
          2   -1    0    0  501    0  0.00000000000E+00  0.00000000000E+00  0.29808341289E+03  0.29808341290E+03  0.25500000000E-02 0. -1.
         -1   -1    0    0    0  501 -0.00000000000E+00 -0.00000000000E+00 -0.55421719766E+01  0.55421742682E+01  0.50400000000E-02 0.  1.
         24    2    1    2    0    0  0.00000000000E+00  0.00000000000E+00  0.29254124091E+03  0.30362558717E+03  0.81290341053E+02 0.  0.
         66    2    3    3    0    0  0.66261836742E+01  0.38929135428E+02  0.11079891086E+03  0.11764260517E+03  0.20000021474E+01 0.  0.
        -13    1    3    3    0    0 -0.66261836742E+01 -0.38929135428E+02  0.18174233005E+03  0.18598298200E+03  0.10566000000E+00 0.  1.
         13    1    4    4    0    0  0.14729759487E+01  0.11119924269E+02  0.32603979948E+02  0.34479748351E+02  0.10566000000E+00 0. -1.
        -13    1    4    4    0    0  0.25312479965E+00  0.30657383098E+01  0.78121068516E+01  0.83966065196E+01  0.10566000000E+00 0. -1.
        -14    1    4    4    0    0  0.49000829258E+01  0.24743472850E+02  0.70382824060E+02  0.74766250300E+02  0.00000000000E+00 0.  1.
<mgrwt>
<rscale>  0 0.81290341E+02</rscale>
<asrwt>0</asrwt>
<pdfrwt beam="1">  1        2 0.45858989E-01 0.81290341E+02</pdfrwt>
<pdfrwt beam="2">  1       -1 0.85264198E-03 0.81290341E+02</pdfrwt>
<totfact> 0.24389542E+05</totfact>
</mgrwt>
</event>
<event>
 8    1  0.1226832E-020  0.7997823E+02  0.7818608E-02  0.1329113E+00
          2   -1    0    0  501    0  0.00000000000E+00  0.00000000000E+00  0.32962616532E+03  0.32962616533E+03  0.25500000000E-02 0. -1.
         -1   -1    0    0    0  501 -0.00000000000E+00 -0.00000000000E+00 -0.48513412670E+01  0.48513438850E+01  0.50400000000E-02 0.  1.
         24    2    1    2    0    0 -0.71054273576E-14 -0.17763568394E-14  0.32477482405E+03  0.33447750921E+03  0.79978233488E+02 0.  0.
         66    2    3    3    0    0  0.38731902959E+02  0.98435555792E+01  0.16358411586E+03  0.16840670665E+03  0.19999972889E+01 0.  0.
        -13    1    3    3    0    0 -0.38731902959E+02 -0.98435555792E+01  0.16119070819E+03  0.16607080256E+03  0.10566000000E+00 0.  1.
         13    1    4    4    0    0  0.46170779509E+00  0.19719511042E+00  0.20786305562E+01  0.21410112154E+01  0.10566000000E+00 0.  1.
        -13    1    4    4    0    0  0.15197824748E+02  0.32520358301E+01  0.65888213180E+02  0.67696509616E+02  0.10566000000E+00 0.  1.
         14    1    4    4    0    0  0.23072370416E+02  0.63943246387E+01  0.95617272125E+02  0.98569185818E+02  0.00000000000E+00 0. -1.
<mgrwt>
<rscale>  0 0.79978233E+02</rscale>
<asrwt>0</asrwt>
<pdfrwt beam="1">  1        2 0.50711709E-01 0.79978233E+02</pdfrwt>
<pdfrwt beam="2">  1       -1 0.74636052E-03 0.79978233E+02</pdfrwt>
<totfact> 0.26395168E+05</totfact>
</mgrwt>
</event>
<event>
 8    1  0.1226832E-020  0.7847125E+02  0.7818608E-02  0.1333447E+00
          2   -1    0    0  501    0  0.00000000000E+00  0.00000000000E+00  0.14255377109E+02  0.14255377337E+02  0.25500000000E-02 0. -1.
         -1   -1    0    0    0  501 -0.00000000000E+00 -0.00000000000E+00 -0.10798971561E+03  0.10798971573E+03  0.50400000000E-02 0.  1.
         24    2    1    2    0    0 -0.17763568394E-14  0.71054273576E-14 -0.93734338500E+02  0.12224509306E+03  0.78471246734E+02 0.  0.
         66    2    3    3    0    0 -0.85033723543E+01  0.30685681173E+02 -0.11253751609E+02  0.33831424728E+02  0.20000008609E+01 0.  0.
        -13    1    3    3    0    0  0.85033723543E+01 -0.30685681173E+02 -0.82480586891E+02  0.88413668335E+02  0.10566000000E+00 0.  1.
         13    1    4    4    0    0 -0.11177398219E+01  0.47255929322E+01 -0.20788251044E+01  0.52832990376E+01  0.10566000000E+00 0. -1.
        -13    1    4    4    0    0 -0.11575934108E+01  0.25664908042E+01 -0.11669912404E+01  0.30495786829E+01  0.10566000000E+00 0.  1.
        -14    1    4    4    0    0 -0.62280391216E+01  0.23393597437E+02 -0.80079352638E+01  0.25498547008E+02  0.00000000000E+00 0.  1.
<mgrwt>
<rscale>  0 0.78471247E+02</rscale>
<asrwt>0</asrwt>
<pdfrwt beam="1">  1        2 0.21931350E-02 0.78471247E+02</pdfrwt>
<pdfrwt beam="2">  1       -1 0.16613802E-01 0.78471247E+02</pdfrwt>
<totfact> 0.12233053E+05</totfact>
</mgrwt>
</event>
<event>
 8    1  0.1226832E-020  0.7745794E+02  0.7818608E-02  0.1336424E+00
          2   -1    0    0  501    0  0.00000000000E+00  0.00000000000E+00  0.19658534908E+03  0.19658534910E+03  0.25500000000E-02 0. -1.
         -1   -1    0    0    0  501 -0.00000000000E+00 -0.00000000000E+00 -0.76299328668E+01  0.76299345314E+01  0.50400000000E-02 0.  1.
         24    2    1    2    0    0  0.88817841970E-15  0.71054273576E-14  0.18895541621E+03  0.20421528363E+03  0.77457941820E+02 0.  0.
         66    2    3    3    0    0  0.49339235607E+01  0.35672210735E+02  0.13192614288E+03  0.13676753050E+03  0.20000012046E+01 0.  0.
        -13    1    3    3    0    0 -0.49339235607E+01 -0.35672210735E+02  0.57029273337E+02  0.67447753126E+02  0.10566000000E+00 0.  1.
         13    1    4    4    0    0  0.16045820433E+01  0.12073001581E+02  0.45344389757E+02  0.46951644244E+02  0.10566000000E+00 0. -1.
        -13    1    4    4    0    0  0.72041375649E+00  0.93892041025E+01  0.32381227111E+02  0.33722858462E+02  0.10566000000E+00 0.  1.
        -14    1    4    4    0    0  0.26089277609E+01  0.14210005052E+02  0.54200526010E+02  0.56093027797E+02  0.00000000000E+00 0.  1.
<mgrwt>
<rscale>  0 0.77457942E+02</rscale>
<asrwt>0</asrwt>
<pdfrwt beam="1">  1        2 0.30243900E-01 0.77457942E+02</pdfrwt>
<pdfrwt beam="2">  1       -1 0.11738360E-02 0.77457942E+02</pdfrwt>
<totfact> 0.23874720E+05</totfact>
</mgrwt>
</event>
<event>
 8    1  0.1226832E-020  0.8099907E+02  0.7818608E-02  0.1326240E+00
          2   -1    0    0  501    0  0.00000000000E+00  0.00000000000E+00  0.38946436248E+02  0.38946436331E+02  0.25500000000E-02 0. -1.
         -1   -1    0    0    0  501 -0.00000000000E+00 -0.00000000000E+00 -0.42114567892E+02  0.42114568193E+02  0.50400000000E-02 0.  1.
         24    2    1    2    0    0 -0.35527136788E-14 -0.88817841970E-15 -0.31681316439E+01  0.81061004524E+02  0.80999070343E+02 0.  0.
         66    2    3    3    0    0 -0.21063377538E+02 -0.65291796354E+01  0.32380741395E+02  0.39227649431E+02  0.20000016436E+01 0.  0.
        -13    1    3    3    0    0  0.21063377538E+02  0.65291796354E+01 -0.35548873039E+02  0.41833355093E+02  0.10566000000E+00 0.  1.
         13    1    4    4    0    0 -0.19969150521E+01 -0.73667007179E+00  0.36642417184E+01  0.42388894685E+01  0.10566000000E+00 0. -1.
        -13    1    4    4    0    0 -0.74968607762E+00 -0.17506095546E+00  0.68747544751E+00  0.10375269055E+01  0.10566000000E+00 0.  1.
         14    1    4    4    0    0 -0.18316776409E+02 -0.56174486082E+01  0.28029024229E+02  0.33951233057E+02  0.00000000000E+00 0. -1.
<mgrwt>
<rscale>  0 0.80999070E+02</rscale>
<asrwt>0</asrwt>
<pdfrwt beam="1">  1        2 0.59917594E-02 0.80999070E+02</pdfrwt>
<pdfrwt beam="2">  1       -1 0.64791644E-02 0.80999070E+02</pdfrwt>
<totfact> 0.13698222E+05</totfact>
</mgrwt>
</event>
<event>
 8    1  0.1226832E-020  0.8115136E+02  0.7818608E-02  0.1325815E+00
         -1   -1    0    0    0  501 -0.00000000000E+00  0.00000000000E+00  0.66621769146E+01  0.66621788210E+01  0.50400000000E-02 0.  1.
          2   -1    0    0  501    0  0.00000000000E+00 -0.00000000000E+00 -0.24712428755E+03  0.24712428757E+03  0.25500000000E-02 0. -1.
         24    2    1    2    0    0  0.35527136788E-14 -0.44408920985E-15 -0.24046211064E+03  0.25378646639E+03  0.81151363936E+02 0.  0.
         66    2    3    3    0    0 -0.17973819687E+02  0.27597643652E+01 -0.23365395299E+03  0.23436903432E+03  0.20000014366E+01 0.  0.
        -13    1    3    3    0    0  0.17973819687E+02 -0.27597643652E+01 -0.68081576452E+01  0.19417432066E+02  0.10566000000E+00 0.  1.
         13    1    4    4    0    0 -0.35241785804E+01  0.20046215543E+00 -0.39793971896E+02  0.39950361488E+02  0.10566000000E+00 0. -1.
        -13    1    4    4    0    0 -0.43217284819E+01  0.79576787720E+00 -0.65859499927E+02  0.66006026075E+02  0.10566000000E+00 0.  1.
         14    1    4    4    0    0 -0.10127912625E+02  0.17635343325E+01 -0.12800048117E+03  0.12841264676E+03  0.00000000000E+00 0. -1.
<mgrwt>
<rscale>  0 0.81151364E+02</rscale>
<asrwt>0</asrwt>
<pdfrwt beam="1">  1        2 0.38019114E-01 0.81151364E+02</pdfrwt>
<pdfrwt beam="2">  1       -1 0.10249506E-02 0.81151364E+02</pdfrwt>
<totfact> 0.22892544E+05</totfact>
</mgrwt>
</event>
<event>
 8    1  0.1226832E-020  0.7814280E+02  0.7818608E-02  0.1334406E+00
         -1   -1    0    0    0  501 -0.00000000000E+00  0.00000000000E+00  0.19884097929E+02  0.19884098568E+02  0.50400000000E-02 0.  1.
          2   -1    0    0  501    0  0.00000000000E+00 -0.00000000000E+00 -0.76773632485E+02  0.76773632528E+02  0.25500000000E-02 0. -1.
         24    2    1    2    0    0 -0.35527136788E-14  0.00000000000E+00 -0.56889534556E+02  0.96657731096E+02  0.78142804138E+02 0.  0.
         66    2    3    3    0    0 -0.22499994589E+02 -0.44449413319E+01 -0.67550604084E+02  0.71365897878E+02  0.20000019650E+01 0.  0.
        -13    1    3    3    0    0  0.22499994589E+02  0.44449413319E+01  0.10661069528E+02  0.25291833217E+02  0.10566000000E+00 0.  1.
         13    1    4    4    0    0 -0.15048931792E+02 -0.24556664280E+01 -0.43003577922E+02  0.45626960492E+02  0.10566000000E+00 0. -1.
        -13    1    4    4    0    0 -0.71331370861E+01 -0.19162604546E+01 -0.23880616683E+02  0.24996974137E+02  0.10566000000E+00 0.  1.
         14    1    4    4    0    0 -0.31792571177E+00 -0.73014449344E-01 -0.66640947985E+00  0.74196324899E+00  0.00000000000E+00 0. -1.
<mgrwt>
<rscale>  0 0.78142804E+02</rscale>
<asrwt>0</asrwt>
<pdfrwt beam="1">  1        2 0.11811328E-01 0.78142804E+02</pdfrwt>
<pdfrwt beam="2">  1       -1 0.30590921E-02 0.78142804E+02</pdfrwt>
<totfact> 0.17601125E+05</totfact>
</mgrwt>
</event>
<event>
 8    1  0.1226832E-020  0.7973943E+02  0.7818608E-02  0.1329793E+00
          2   -1    0    0  501    0  0.00000000000E+00  0.00000000000E+00  0.13896057258E+03  0.13896057260E+03  0.25500000000E-02 0. -1.
         -1   -1    0    0    0  501 -0.00000000000E+00 -0.00000000000E+00 -0.11439172082E+02  0.11439173192E+02  0.50400000000E-02 0.  1.
         24    2    1    2    0    0 -0.44408920985E-15  0.00000000000E+00  0.12752140050E+03  0.15039974579E+03  0.79739425319E+02 0.  0.
         66    2    3    3    0    0 -0.32034895703E+01 -0.30438814219E+02  0.11191780943E+03  0.11604473197E+03  0.19999987042E+01 0.  0.
        -13    1    3    3    0    0  0.32034895703E+01  0.30438814219E+02  0.15603591070E+02  0.34355013823E+02  0.10566000000E+00 0.  1.
         13    1    4    4    0    0 -0.13893300467E+01 -0.96907109939E+01  0.36815728167E+02  0.38095263774E+02  0.10566000000E+00 0. -1.
        -13    1    4    4    0    0 -0.15040818436E+01 -0.99938126248E+01  0.37589325610E+02  0.38924376897E+02  0.10566000000E+00 0.  1.
         14    1    4    4    0    0 -0.31007768002E+00 -0.10754290600E+02  0.37512755651E+02  0.39025091300E+02  0.00000000000E+00 0. -1.
<mgrwt>
<rscale>  0 0.79739425E+02</rscale>
<asrwt>0</asrwt>
<pdfrwt beam="1">  1        2 0.21378550E-01 0.79739425E+02</pdfrwt>
<pdfrwt beam="2">  1       -1 0.17598727E-02 0.79739425E+02</pdfrwt>
<totfact> 0.19718376E+05</totfact>
</mgrwt>
</event>
<event>
 8    1  0.1226832E-020  0.8016117E+02  0.7818608E-02  0.1328595E+00
         -1   -1    0    0    0  501 -0.00000000000E+00  0.00000000000E+00  0.10862080752E+02  0.10862081921E+02  0.50400000000E-02 0.  1.
          2   -1    0    0  501    0  0.00000000000E+00 -0.00000000000E+00 -0.14789554112E+03  0.14789554115E+03  0.25500000000E-02 0. -1.
         24    2    1    2    0    0  0.00000000000E+00  0.00000000000E+00 -0.13703346037E+03  0.15875762307E+03  0.80161172774E+02 0.  0.
         66    2    3    3    0    0  0.19739136526E+02  0.19759810282E+02 -0.12542232552E+03  0.12851009044E+03  0.19999985781E+01 0.  0.
        -13    1    3    3    0    0 -0.19739136526E+02 -0.19759810282E+02 -0.11611134854E+02  0.30247532623E+02  0.10566000000E+00 0.  1.
         13    1    4    4    0    0  0.81850185650E+01  0.85152002341E+01 -0.50333846364E+02  0.51701164568E+02  0.10566000000E+00 0.  1.
        -13    1    4    4    0    0  0.71726199989E+01  0.70179177422E+01 -0.49385954485E+02  0.50395250883E+02  0.10566000000E+00 0. -1.
        -14    1    4    4    0    0  0.43814979617E+01  0.42266923060E+01 -0.25702524670E+02  0.26413674993E+02  0.00000000000E+00 0.  1.
<mgrwt>
<rscale>  0 0.80161173E+02</rscale>
<asrwt>0</asrwt>
<pdfrwt beam="1">  1        2 0.22753159E-01 0.80161173E+02</pdfrwt>
<pdfrwt beam="2">  1       -1 0.16710895E-02 0.80161173E+02</pdfrwt>
<totfact> 0.19832977E+05</totfact>
</mgrwt>
</event>
<event>
 8    1  0.1226832E-020  0.7810997E+02  0.7818608E-02  0.1334502E+00
         -1   -1    0    0    0  501 -0.00000000000E+00  0.00000000000E+00  0.43843877482E+03  0.43843877485E+03  0.50400000000E-02 0.  1.
          2   -1    0    0  501    0  0.00000000000E+00 -0.00000000000E+00 -0.34789156493E+01  0.34789165839E+01  0.25500000000E-02 0. -1.
         24    2    1    2    0    0  0.00000000000E+00  0.35527136788E-14  0.43495985917E+03  0.44191769143E+03  0.78109966788E+02 0.  0.
         66    2    3    3    0    0 -0.32241186740E+02  0.17760247010E+02  0.29103334764E+03  0.29335870523E+03  0.19999997844E+01 0.  0.
        -13    1    3    3    0    0  0.32241186740E+02 -0.17760247010E+02  0.14392651153E+03  0.14855898620E+03  0.10566000000E+00 0.  1.
         13    1    4    4    0    0 -0.23480658319E+02  0.13690283343E+02  0.21816417267E+03  0.21985081891E+03  0.10566000000E+00 0. -1.
        -13    1    4    4    0    0 -0.71146944078E+01  0.34655054105E+01  0.60113977402E+02  0.60632747318E+02  0.10566000000E+00 0.  1.
        -14    1    4    4    0    0 -0.16458340137E+01  0.60445825683E+00  0.12755197571E+02  0.12875139008E+02  0.00000000000E+00 0.  1.
<mgrwt>
<rscale>  0 0.78109967E+02</rscale>
<asrwt>0</asrwt>
<pdfrwt beam="1">  1        2 0.53521830E-03 0.78109967E+02</pdfrwt>
<pdfrwt beam="2">  1       -1 0.67452065E-01 0.78109967E+02</pdfrwt>
<totfact> 0.76748545E+04</totfact>
</mgrwt>
</event>
<event>
 8    1  0.1226832E-020  0.8198529E+02  0.7818608E-02  0.1323510E+00
          2   -1    0    0  501    0  0.00000000000E+00  0.00000000000E+00  0.15221878104E+03  0.15221878106E+03  0.25500000000E-02 0. -1.
         -1   -1    0    0    0  501 -0.00000000000E+00 -0.00000000000E+00 -0.11039352175E+02  0.11039353325E+02  0.50400000000E-02 0.  1.
         24    2    1    2    0    0  0.00000000000E+00 -0.17763568394E-14  0.14117942886E+03  0.16325813438E+03  0.81985287147E+02 0.  0.
         66    2    3    3    0    0 -0.16212265816E+02 -0.87083419134E+01  0.14351788314E+03  0.14470679173E+03  0.20000022005E+01 0.  0.
        -13    1    3    3    0    0  0.16212265816E+02  0.87083419134E+01 -0.23384542822E+01  0.18551342654E+02  0.10566000000E+00 0.  1.
         13    1    4    4    0    0 -0.12171835300E+02 -0.59333162655E+01  0.10611157676E+03  0.10697212582E+03  0.10566000000E+00 0. -1.
        -13    1    4    4    0    0 -0.37258307775E+01 -0.26747524890E+01  0.33209281726E+02  0.33524672596E+02  0.10566000000E+00 0.  1.
         14    1    4    4    0    0 -0.31459973840E+00 -0.10027315887E+00  0.41970246566E+01  0.42099933099E+01  0.00000000000E+00 0. -1.
<mgrwt>
<rscale>  0 0.81985287E+02</rscale>
<asrwt>0</asrwt>
<pdfrwt beam="1">  1        2 0.23418273E-01 0.81985287E+02</pdfrwt>
<pdfrwt beam="2">  1       -1 0.16983620E-02 0.81985287E+02</pdfrwt>
<totfact> 0.18856567E+05</totfact>
</mgrwt>
</event>
<event>
 8    1  0.1226832E-020  0.8000877E+02  0.7818608E-02  0.1329027E+00
         -1   -1    0    0    0  501 -0.00000000000E+00  0.00000000000E+00  0.96541950822E+02  0.96541950954E+02  0.50400000000E-02 0.  1.
          2   -1    0    0  501    0  0.00000000000E+00 -0.00000000000E+00 -0.16576740227E+02  0.16576740423E+02  0.25500000000E-02 0. -1.
         24    2    1    2    0    0 -0.88817841970E-15  0.00000000000E+00  0.79965210596E+02  0.11311869138E+03  0.80008770977E+02 0.  0.
         66    2    3    3    0    0  0.63902330032E+01 -0.34226126342E+02  0.12227204193E+02  0.36956289382E+02  0.20000000612E+01 0.  0.
        -13    1    3    3    0    0 -0.63902330032E+01  0.34226126342E+02  0.67738006403E+02  0.76162401995E+02  0.10566000000E+00 0.  1.
         13    1    4    4    0    0  0.24074136967E+01 -0.14951818521E+02  0.58283867817E+01  0.16227562180E+02  0.10566000000E+00 0.  1.
        -13    1    4    4    0    0  0.80656454846E+00 -0.25180531154E+01  0.11440650430E+01  0.28829128882E+01  0.10566000000E+00 0. -1.
        -14    1    4    4    0    0  0.31762547581E+01 -0.16756254706E+02  0.52547523682E+01  0.17845814313E+02  0.00000000000E+00 0.  1.
<mgrwt>
<rscale>  0 0.80008771E+02</rscale>
<asrwt>0</asrwt>
<pdfrwt beam="1">  1        2 0.25502678E-02 0.80008771E+02</pdfrwt>
<pdfrwt beam="2">  1       -1 0.14852608E-01 0.80008771E+02</pdfrwt>
<totfact> 0.11938983E+05</totfact>
</mgrwt>
</event>
<event>
 8    1  0.1226832E-020  0.8052127E+02  0.7818608E-02  0.1327579E+00
          2   -1    0    0  501    0  0.00000000000E+00  0.00000000000E+00  0.10613808911E+04  0.10613808911E+04  0.25500000000E-02 0. -1.
         -1   -1    0    0    0  501 -0.00000000000E+00 -0.00000000000E+00 -0.15271749656E+01  0.15271832821E+01  0.50400000000E-02 0.  1.
         24    2    1    2    0    0  0.00000000000E+00  0.00000000000E+00  0.10598537161E+04  0.10629080743E+04  0.80521270414E+02 0.  0.
         66    2    3    3    0    0 -0.80393724194E+01  0.80859452360E+01  0.10396046433E+04  0.10396690956E+04  0.20000007081E+01 0.  0.
        -13    1    3    3    0    0  0.80393724194E+01 -0.80859452360E+01  0.20249072838E+02  0.23238978766E+02  0.10566000000E+00 0.  1.
         13    1    4    4    0    0 -0.10325840403E+01  0.61689514452E+00  0.80491037640E+02  0.80500093750E+02  0.10566000000E+00 0. -1.
        -13    1    4    4    0    0 -0.22779964712E-01  0.20447423538E+00  0.21304717820E+02  0.21305973202E+02  0.10566000000E+00 0.  1.
         14    1    4    4    0    0 -0.69840084144E+01  0.72645758561E+01  0.93780888779E+03  0.93786302863E+03  0.00000000000E+00 0. -1.
<mgrwt>
<rscale>  0 0.80521270E+02</rscale>
<asrwt>0</asrwt>
<pdfrwt beam="1">  1        2 0.16328833E+00 0.80521270E+02</pdfrwt>
<pdfrwt beam="2">  1       -1 0.23495212E-03 0.80521270E+02</pdfrwt>
<totfact> 0.34683306E+05</totfact>
</mgrwt>
</event>
<event>
 8    1  0.1226832E-020  0.7634493E+02  0.7818608E-02  0.1339756E+00
         -1   -1    0    0    0  501 -0.00000000000E+00  0.00000000000E+00  0.31642173067E+02  0.31642173469E+02  0.50400000000E-02 0.  1.
          2   -1    0    0  501    0  0.00000000000E+00 -0.00000000000E+00 -0.46050476053E+02  0.46050476124E+02  0.25500000000E-02 0. -1.
         24    2    1    2    0    0  0.00000000000E+00 -0.17763568394E-14 -0.14408302986E+02  0.77692649592E+02  0.76344931762E+02 0.  0.
         66    2    3    3    0    0  0.21586372116E+02 -0.12785127972E+02 -0.36451359850E+02  0.44295965949E+02  0.20000015084E+01 0.  0.
        -13    1    3    3    0    0 -0.21586372116E+02  0.12785127972E+02  0.22043056865E+02  0.33396683643E+02  0.10566000000E+00 0.  1.
         13    1    4    4    0    0  0.10521524766E+02 -0.60519073712E+01 -0.17737502781E+02  0.21493213701E+02  0.10566000000E+00 0. -1.
        -13    1    4    4    0    0  0.18256574229E+01 -0.17496042044E+01 -0.37253520582E+01  0.45037264449E+01  0.10566000000E+00 0.  1.
         14    1    4    4    0    0  0.92391899269E+01 -0.49836163964E+01 -0.14988505011E+02  0.18299025803E+02  0.00000000000E+00 0. -1.
<mgrwt>
<rscale>  0 0.76344932E+02</rscale>
<asrwt>0</asrwt>
<pdfrwt beam="1">  1        2 0.70846886E-02 0.76344932E+02</pdfrwt>
<pdfrwt beam="2">  1       -1 0.48680267E-02 0.76344932E+02</pdfrwt>
<totfact> 0.16686878E+05</totfact>
</mgrwt>
</event>
<event>
 8    1  0.1226832E-020  0.8067062E+02  0.7818608E-02  0.1327159E+00
          2   -1    0    0  501    0  0.00000000000E+00  0.00000000000E+00  0.18882223850E+04  0.18882223850E+04  0.25500000000E-02 0. -1.
         -1   -1    0    0    0  501 -0.00000000000E+00 -0.00000000000E+00 -0.86161628959E+00  0.86163103013E+00  0.50400000000E-02 0.  1.
         24    2    1    2    0    0  0.00000000000E+00  0.00000000000E+00  0.18873607687E+04  0.18890840160E+04  0.80670616459E+02 0.  0.
         66    2    3    3    0    0 -0.26681404725E+01 -0.14663337855E+02  0.18213277274E+04  0.18213898053E+04  0.20000006501E+01 0.  0.
        -13    1    3    3    0    0  0.26681404725E+01  0.14663337855E+02  0.66033041348E+02  0.67694210715E+02  0.10566000000E+00 0.  1.
         13    1    4    4    0    0 -0.19769116617E+01 -0.60422455916E+01  0.79790776644E+03  0.79793309984E+03  0.10566000000E+00 0. -1.
        -13    1    4    4    0    0 -0.22547023517E+00 -0.57898931399E+01  0.70483320174E+03  0.70485702603E+03  0.10566000000E+00 0.  1.
         14    1    4    4    0    0 -0.46575857557E+00 -0.28311991231E+01  0.31858675920E+03  0.31859967947E+03  0.00000000000E+00 0. -1.
<mgrwt>
<rscale>  0 0.80670616E+02</rscale>
<asrwt>0</asrwt>
<pdfrwt beam="1">  1        2 0.29049891E+00 0.80670616E+02</pdfrwt>
<pdfrwt beam="2">  1       -1 0.13255605E-03 0.80670616E+02</pdfrwt>
<totfact> 0.28538603E+05</totfact>
</mgrwt>
</event>
<event>
 8    1  0.1226832E-020  0.7802001E+02  0.7818608E-02  0.1334766E+00
         -1   -1    0    0    0  501 -0.00000000000E+00  0.00000000000E+00  0.18173754685E+02  0.18173755384E+02  0.50400000000E-02 0.  1.
          2   -1    0    0  501    0  0.00000000000E+00 -0.00000000000E+00 -0.83735069888E+02  0.83735069927E+02  0.25500000000E-02 0. -1.
         24    2    1    2    0    0  0.00000000000E+00  0.35527136788E-14 -0.65561315203E+02  0.10190882531E+03  0.78020014261E+02 0.  0.
         66    2    3    3    0    0  0.19954121342E+01 -0.27278464082E+02 -0.69086897124E+02  0.74330987032E+02  0.20000016359E+01 0.  0.
        -13    1    3    3    0    0 -0.19954121342E+01  0.27278464082E+02  0.35255819216E+01  0.27577838280E+02  0.10566000000E+00 0.  1.
         13    1    4    4    0    0  0.98486128049E+00 -0.68640162378E+01 -0.16618755683E+02  0.18007744866E+02  0.10566000000E+00 0. -1.
        -13    1    4    4    0    0  0.16453020327E+00 -0.60811018354E+00 -0.20674214410E+01  0.21638538845E+01  0.10566000000E+00 0.  1.
         14    1    4    4    0    0  0.84602065040E+00 -0.19806337661E+02 -0.50400720000E+02  0.54159388281E+02  0.00000000000E+00 0. -1.
<mgrwt>
<rscale>  0 0.78020014E+02</rscale>
<asrwt>0</asrwt>
<pdfrwt beam="1">  1        2 0.12882318E-01 0.78020014E+02</pdfrwt>
<pdfrwt beam="2">  1       -1 0.27959624E-02 0.78020014E+02</pdfrwt>
<totfact> 0.18071413E+05</totfact>
</mgrwt>
</event>
<event>
 8    1  0.1226832E-020  0.7818014E+02  0.7818608E-02  0.1334297E+00
          2   -1    0    0  501    0  0.00000000000E+00  0.00000000000E+00  0.32312317230E+03  0.32312317231E+03  0.25500000000E-02 0. -1.
         -1   -1    0    0    0  501 -0.00000000000E+00 -0.00000000000E+00 -0.47289491941E+01  0.47289518799E+01  0.50400000000E-02 0.  1.
         24    2    1    2    0    0 -0.17763568394E-14  0.00000000000E+00  0.31839422311E+03  0.32785212419E+03  0.78180138326E+02 0.  0.
         66    2    3    3    0    0  0.13762539762E+02 -0.47359640382E+01  0.31132457638E+03  0.31167102642E+03  0.19999996141E+01 0.  0.
        -13    1    3    3    0    0 -0.13762539762E+02  0.47359640382E+01  0.70696467287E+01  0.16181097768E+02  0.10566000000E+00 0.  1.
         13    1    4    4    0    0  0.27920520925E+01 -0.27176905781E+00  0.64445508014E+02  0.64506620440E+02  0.10566000000E+00 0. -1.
        -13    1    4    4    0    0  0.67676203368E+01 -0.28822635879E+01  0.14527763250E+03  0.14546377486E+03  0.10566000000E+00 0.  1.
         14    1    4    4    0    0  0.42028673327E+01 -0.15819313926E+01  0.10160143586E+03  0.10170063112E+03  0.00000000000E+00 0. -1.
<mgrwt>
<rscale>  0 0.78180138E+02</rscale>
<asrwt>0</asrwt>
<pdfrwt beam="1">  1        2 0.49711275E-01 0.78180138E+02</pdfrwt>
<pdfrwt beam="2">  1       -1 0.72753060E-03 0.78180138E+02</pdfrwt>
<totfact> 0.27812755E+05</totfact>
</mgrwt>
</event>
<event>
 8    1  0.1226832E-020  0.7894532E+02  0.7818608E-02  0.1332071E+00
         -1   -1    0    0    0  501 -0.00000000000E+00  0.00000000000E+00  0.25684426432E+03  0.25684426437E+03  0.50400000000E-02 0.  1.
          2   -1    0    0  501    0  0.00000000000E+00 -0.00000000000E+00 -0.60662860505E+01  0.60662865864E+01  0.25500000000E-02 0. -1.
         24    2    1    2    0    0  0.44408920985E-15  0.00000000000E+00  0.25077797827E+03  0.26291055096E+03  0.78945319171E+02 0.  0.
         66    2    3    3    0    0  0.31413057177E+01 -0.38982229838E+02  0.14264650613E+03  0.14792399316E+03  0.19999984743E+01 0.  0.
        -13    1    3    3    0    0 -0.31413057177E+01  0.38982229838E+02  0.10813147214E+03  0.11498655780E+03  0.10566000000E+00 0.  1.
         13    1    4    4    0    0  0.61614477784E+00 -0.11119123270E+02  0.41780071418E+02  0.43238872192E+02  0.10566000000E+00 0. -1.
        -13    1    4    4    0    0  0.81047945179E-01 -0.35947745605E+00  0.97467544656E+00  0.10473533657E+01  0.10566000000E+00 0.  1.
         14    1    4    4    0    0  0.24441129946E+01 -0.27503629112E+02  0.99891759269E+02  0.10363776760E+03  0.00000000000E+00 0. -1.
<mgrwt>
<rscale>  0 0.78945319E+02</rscale>
<asrwt>0</asrwt>
<pdfrwt beam="1">  1        2 0.93327462E-03 0.78945319E+02</pdfrwt>
<pdfrwt beam="2">  1       -1 0.39514511E-01 0.78945319E+02</pdfrwt>
<totfact> 0.94886899E+04</totfact>
</mgrwt>
</event>
<event>
 8    1  0.1226832E-020  0.8063895E+02  0.7818608E-02  0.1327248E+00
          2   -1    0    0  501    0  0.00000000000E+00  0.00000000000E+00  0.12572273149E+02  0.12572273408E+02  0.25500000000E-02 0. -1.
         -1   -1    0    0    0  501 -0.00000000000E+00 -0.00000000000E+00 -0.12930519519E+03  0.12930519528E+03  0.50400000000E-02 0.  1.
         24    2    1    2    0    0  0.00000000000E+00  0.00000000000E+00 -0.11673292204E+03  0.14187746869E+03  0.80638954825E+02 0.  0.
         66    2    3    3    0    0 -0.87600171983E+01 -0.39300630558E+02 -0.55689210960E+02  0.68750023163E+02  0.20000009954E+01 0.  0.
        -13    1    3    3    0    0  0.87600171983E+01  0.39300630558E+02 -0.61043711077E+02  0.73127445529E+02  0.10566000000E+00 0.  1.
         13    1    4    4    0    0 -0.51862670965E+01 -0.22531272653E+02 -0.30927551243E+02  0.38614507685E+02  0.10566000000E+00 0. -1.
        -13    1    4    4    0    0 -0.24133644584E+01 -0.89575592266E+01 -0.13516473326E+02  0.16394157816E+02  0.10566000000E+00 0.  1.
         14    1    4    4    0    0 -0.11603856434E+01 -0.78117986784E+01 -0.11245186391E+02  0.13741357662E+02  0.00000000000E+00 0. -1.
<mgrwt>
<rscale>  0 0.80638955E+02</rscale>
<asrwt>0</asrwt>
<pdfrwt beam="1">  1        2 0.19341960E-02 0.80638955E+02</pdfrwt>
<pdfrwt beam="2">  1       -1 0.19893106E-01 0.80638955E+02</pdfrwt>
<totfact> 0.10966267E+05</totfact>
</mgrwt>
</event>
<event>
 8    1  0.1226832E-020  0.7993793E+02  0.7818608E-02  0.1329228E+00
         -1   -1    0    0    0  501 -0.00000000000E+00  0.00000000000E+00  0.43939452590E+02  0.43939452879E+02  0.50400000000E-02 0.  1.
          2   -1    0    0  501    0  0.00000000000E+00 -0.00000000000E+00 -0.36357261599E+02  0.36357261689E+02  0.25500000000E-02 0. -1.
         24    2    1    2    0    0  0.00000000000E+00  0.00000000000E+00  0.75821909911E+01  0.80296714568E+02  0.79937930610E+02 0.  0.
         66    2    3    3    0    0  0.16202465645E+01 -0.39584056269E+02 -0.13275093645E+01  0.39689860047E+02  0.19999999399E+01 0.  0.
        -13    1    3    3    0    0 -0.16202465645E+01  0.39584056269E+02  0.89097003556E+01  0.40606854521E+02  0.10566000000E+00 0.  1.
         13    1    4    4    0    0  0.11669772737E+01 -0.12679159586E+02 -0.42302861027E+00  0.12740213538E+02  0.10566000000E+00 0. -1.
        -13    1    4    4    0    0  0.66064962016E+00 -0.19198451155E+02 -0.10534986394E+01  0.19238971077E+02  0.10566000000E+00 0.  1.
         14    1    4    4    0    0 -0.20738032945E+00 -0.77064455287E+01  0.14901788511E+00  0.77106754320E+01  0.00000000000E+00 0. -1.
<mgrwt>
<rscale>  0 0.79937931E+02</rscale>
<asrwt>0</asrwt>
<pdfrwt beam="1">  1        2 0.55934249E-02 0.79937931E+02</pdfrwt>
<pdfrwt beam="2">  1       -1 0.67599158E-02 0.79937931E+02</pdfrwt>
<totfact> 0.14010829E+05</totfact>
</mgrwt>
</event>
<event>
 8    1  0.1226832E-020  0.7606931E+02  0.7818608E-02  0.1340591E+00
          2   -1    0    0  501    0  0.00000000000E+00  0.00000000000E+00  0.22762686903E+03  0.22762686904E+03  0.25500000000E-02 0. -1.
         -1   -1    0    0    0  501 -0.00000000000E+00 -0.00000000000E+00 -0.63552894211E+01  0.63552914196E+01  0.50400000000E-02 0.  1.
         24    2    1    2    0    0  0.00000000000E+00  0.00000000000E+00  0.22127157961E+03  0.23398216046E+03  0.76069307034E+02 0.  0.
         66    2    3    3    0    0  0.25884694075E+02 -0.95221140463E+01  0.19115406194E+03  0.19314389314E+03  0.20000046087E+01 0.  0.
        -13    1    3    3    0    0 -0.25884694075E+02  0.95221140463E+01  0.30117517666E+02  0.40838267320E+02  0.10566000000E+00 0.  1.
         13    1    4    4    0    0  0.97010696731E+01 -0.35815612558E+01  0.70422503043E+02  0.71177794520E+02  0.10566000000E+00 0. -1.
        -13    1    4    4    0    0  0.92501603940E+00  0.90192694623E-02  0.67897476825E+01  0.68532892576E+01  0.10566000000E+00 0.  1.
        -14    1    4    4    0    0  0.15258608362E+02 -0.59495720600E+01  0.11394181121E+03  0.11511280936E+03  0.00000000000E+00 0.  1.
<mgrwt>
<rscale>  0 0.76069307E+02</rscale>
<asrwt>0</asrwt>
<pdfrwt beam="1">  1        2 0.35019515E-01 0.76069307E+02</pdfrwt>
<pdfrwt beam="2">  1       -1 0.97773709E-03 0.76069307E+02</pdfrwt>
<totfact> 0.26349311E+05</totfact>
</mgrwt>
</event>
<event>
 8    1  0.1226832E-020  0.8027657E+02  0.7818608E-02  0.1328268E+00
         -1   -1    0    0    0  501 -0.00000000000E+00  0.00000000000E+00  0.24581257658E+02  0.24581258174E+02  0.50400000000E-02 0.  1.
          2   -1    0    0  501    0  0.00000000000E+00 -0.00000000000E+00 -0.65541069676E+02  0.65541069726E+02  0.25500000000E-02 0. -1.
         24    2    1    2    0    0  0.71054273576E-14 -0.17763568394E-14 -0.40959812018E+02  0.90122327900E+02  0.80276570589E+02 0.  0.
         66    2    3    3    0    0  0.24536561877E+02 -0.87915830505E+01 -0.54723997883E+02  0.60646935148E+02  0.19999993181E+01 0.  0.
        -13    1    3    3    0    0 -0.24536561877E+02  0.87915830505E+01  0.13764185865E+02  0.29475392752E+02  0.10566000000E+00 0.  1.
         13    1    4    4    0    0  0.21773356359E+01 -0.67046596762E+00 -0.38365683693E+01  0.44632651694E+01  0.10566000000E+00 0. -1.
        -13    1    4    4    0    0  0.53291822015E+01 -0.23739640712E+01 -0.12955871817E+02  0.14209210637E+02  0.10566000000E+00 0.  1.
         14    1    4    4    0    0  0.17030044040E+02 -0.57471530117E+01 -0.37931557697E+02  0.41974459342E+02  0.00000000000E+00 0. -1.
<mgrwt>
<rscale>  0 0.80276571E+02</rscale>
<asrwt>0</asrwt>
<pdfrwt beam="1">  1        2 0.10083241E-01 0.80276571E+02</pdfrwt>
<pdfrwt beam="2">  1       -1 0.37817320E-02 0.80276571E+02</pdfrwt>
<totfact> 0.15744021E+05</totfact>
</mgrwt>
</event>
<event>
 8    1  0.1226832E-020  0.8144482E+02  0.7818608E-02  0.1325001E+00
          2   -1    0    0  501    0  0.00000000000E+00  0.00000000000E+00  0.26600279169E+02  0.26600279291E+02  0.25500000000E-02 0. -1.
         -1   -1    0    0    0  501 -0.00000000000E+00 -0.00000000000E+00 -0.62342008125E+02  0.62342008329E+02  0.50400000000E-02 0.  1.
         24    2    1    2    0    0  0.00000000000E+00 -0.22204460493E-15 -0.35741728956E+02  0.88942287620E+02  0.81444823889E+02 0.  0.
         66    2    3    3    0    0 -0.33073129552E+02 -0.11611155084E+01  0.79871996867E+01  0.34102425732E+02  0.19999985943E+01 0.  0.
        -13    1    3    3    0    0  0.33073129552E+02  0.11611155084E+01 -0.43728928642E+02  0.54839861888E+02  0.10566000000E+00 0.  1.
         13    1    4    4    0    0 -0.52257389869E+01 -0.60543464833E+00  0.12597853189E+01  0.54104641351E+01  0.10566000000E+00 0. -1.
        -13    1    4    4    0    0 -0.82082384011E+01  0.30938795248E+00  0.14994906035E+01  0.83504811035E+01  0.10566000000E+00 0.  1.
        -14    1    4    4    0    0 -0.19639152164E+02 -0.86506881250E+00  0.52279237643E+01  0.20341480494E+02  0.00000000000E+00 0.  1.
<mgrwt>
<rscale>  0 0.81444824E+02</rscale>
<asrwt>0</asrwt>
<pdfrwt beam="1">  1        2 0.40923507E-02 0.81444824E+02</pdfrwt>
<pdfrwt beam="2">  1       -1 0.95910782E-02 0.81444824E+02</pdfrwt>
<totfact> 0.12491977E+05</totfact>
</mgrwt>
</event>
<event>
 8    1  0.1226832E-020  0.8069727E+02  0.7818608E-02  0.1327084E+00
          2   -1    0    0  501    0  0.00000000000E+00  0.00000000000E+00  0.21141317585E+04  0.21141317585E+04  0.25500000000E-02 0. -1.
         -1   -1    0    0    0  501 -0.00000000000E+00 -0.00000000000E+00 -0.77005359675E+00  0.77007008997E+00  0.50400000000E-02 0.  1.
         24    2    1    2    0    0  0.22204460493E-15  0.17763568394E-14  0.21133617049E+04  0.21149018286E+04  0.80697266547E+02 0.  0.
         66    2    3    3    0    0  0.19895298627E+01 -0.13836060383E+02  0.20485990714E+04  0.20486477370E+04  0.20000005260E+01 0.  0.
        -13    1    3    3    0    0 -0.19895298627E+01  0.13836060383E+02  0.64762633498E+02  0.66254091630E+02  0.10566000000E+00 0.  1.
         13    1    4    4    0    0  0.94721323207E+00 -0.28870161405E+01  0.37172798170E+03  0.37174041429E+03  0.10566000000E+00 0. -1.
        -13    1    4    4    0    0 -0.44224969506E-01 -0.26684062940E+01  0.39668646045E+03  0.39669545172E+03  0.10566000000E+00 0.  1.
         14    1    4    4    0    0  0.10865416002E+01 -0.82806379481E+01  0.12801846293E+04  0.12802118710E+04  0.00000000000E+00 0. -1.
<mgrwt>
<rscale>  0 0.80697267E+02</rscale>
<asrwt>0</asrwt>
<pdfrwt beam="1">  1        2 0.32524754E+00 0.80697267E+02</pdfrwt>
<pdfrwt beam="2">  1       -1 0.11847233E-03 0.80697267E+02</pdfrwt>
<totfact> 0.25674857E+05</totfact>
</mgrwt>
</event>
<event>
 8    1  0.1226832E-020  0.7998863E+02  0.7818608E-02  0.1329084E+00
         -1   -1    0    0    0  501 -0.00000000000E+00  0.00000000000E+00  0.25244063989E+03  0.25244063994E+03  0.50400000000E-02 0.  1.
          2   -1    0    0  501    0  0.00000000000E+00 -0.00000000000E+00 -0.63363211843E+01  0.63363216974E+01  0.25500000000E-02 0. -1.
         24    2    1    2    0    0  0.00000000000E+00 -0.35527136788E-14  0.24610431870E+03  0.25877696164E+03  0.79988625371E+02 0.  0.
         66    2    3    3    0    0 -0.18235981809E+02  0.30134840197E+02  0.62012333318E+02  0.71345561188E+02  0.19999978947E+01 0.  0.
        -13    1    3    3    0    0  0.18235981809E+02 -0.30134840197E+02  0.18409198539E+03  0.18743140045E+03  0.10566000000E+00 0.  1.
         13    1    4    4    0    0 -0.15183256971E+02  0.24326850514E+02  0.51093250819E+02  0.58590599856E+02  0.10566000000E+00 0. -1.
        -13    1    4    4    0    0 -0.12816566603E+01  0.31081547335E+01  0.55904038301E+01  0.65243427762E+01  0.10566000000E+00 0.  1.
         14    1    4    4    0    0 -0.17710681777E+01  0.26998349488E+01  0.53286786683E+01  0.62306185561E+01  0.00000000000E+00 0. -1.
<mgrwt>
<rscale>  0 0.79988625E+02</rscale>
<asrwt>0</asrwt>
<pdfrwt beam="1">  1        2 0.97481860E-03 0.79988625E+02</pdfrwt>
<pdfrwt beam="2">  1       -1 0.38837025E-01 0.79988625E+02</pdfrwt>
<totfact> 0.92323392E+04</totfact>
</mgrwt>
</event>
<event>
 8    1  0.1226832E-020  0.7922350E+02  0.7818608E-02  0.1331270E+00
          2   -1    0    0  501    0  0.00000000000E+00  0.00000000000E+00  0.28246188766E+03  0.28246188767E+03  0.25500000000E-02 0. -1.
         -1   -1    0    0    0  501 -0.00000000000E+00 -0.00000000000E+00 -0.55550513740E+01  0.55550536603E+01  0.50400000000E-02 0.  1.
         24    2    1    2    0    0  0.00000000000E+00  0.00000000000E+00  0.27690683628E+03  0.28801694133E+03  0.79223497223E+02 0.  0.
         66    2    3    3    0    0  0.35979866849E+02 -0.16491268221E+02  0.14129319869E+03  0.14674563281E+03  0.20000015195E+01 0.  0.
        -13    1    3    3    0    0 -0.35979866849E+02  0.16491268221E+02  0.13561363759E+03  0.14127130852E+03  0.10566000000E+00 0.  1.
         13    1    4    4    0    0  0.10349038520E+02 -0.42004205353E+01  0.41108814633E+02  0.42599201113E+02  0.10566000000E+00 0. -1.
        -13    1    4    4    0    0  0.24778417509E+02 -0.12077642842E+02  0.96609663234E+02  0.10046530558E+03  0.10566000000E+00 0.  1.
        -14    1    4    4    0    0  0.85241082015E+00 -0.21320484354E+00  0.35747208272E+01  0.36811261190E+01  0.00000000000E+00 0.  1.
<mgrwt>
<rscale>  0 0.79223497E+02</rscale>
<asrwt>0</asrwt>
<pdfrwt beam="1">  1        2 0.43455687E-01 0.79223497E+02</pdfrwt>
<pdfrwt beam="2">  1       -1 0.85462323E-03 0.79223497E+02</pdfrwt>
<totfact> 0.25590507E+05</totfact>
</mgrwt>
</event>
<event>
 8    1  0.1226832E-020  0.7869437E+02  0.7818608E-02  0.1332798E+00
         -1   -1    0    0    0  501 -0.00000000000E+00  0.00000000000E+00  0.56010624495E+01  0.56010647171E+01  0.50400000000E-02 0.  1.
          2   -1    0    0  501    0  0.00000000000E+00 -0.00000000000E+00 -0.27641198104E+03  0.27641198105E+03  0.25500000000E-02 0. -1.
         24    2    1    2    0    0  0.00000000000E+00  0.35527136788E-14 -0.27081091859E+03  0.28201304577E+03  0.78694373090E+02 0.  0.
         66    2    3    3    0    0 -0.12950706174E+02 -0.31506055431E+02 -0.20588597090E+03  0.20869447844E+03  0.19999991935E+01 0.  0.
        -13    1    3    3    0    0  0.12950706174E+02  0.31506055431E+02 -0.64924947691E+02  0.73318567334E+02  0.10566000000E+00 0.  1.
         13    1    4    4    0    0 -0.28849575312E+01 -0.52128753648E+01 -0.35629051064E+02  0.36123918576E+02  0.10566000000E+00 0. -1.
        -13    1    4    4    0    0 -0.77621617276E+01 -0.19717539508E+02 -0.12956032715E+03  0.13128184205E+03  0.10566000000E+00 0.  1.
        -14    1    4    4    0    0 -0.23035869150E+01 -0.65756405575E+01 -0.40696592691E+02  0.41288717806E+02  0.00000000000E+00 0.  1.
<mgrwt>
<rscale>  0 0.78694373E+02</rscale>
<asrwt>0</asrwt>
<pdfrwt beam="1">  1        2 0.42524910E-01 0.78694373E+02</pdfrwt>
<pdfrwt beam="2">  1       -1 0.86170231E-03 0.78694373E+02</pdfrwt>
<totfact> 0.25840740E+05</totfact>
</mgrwt>
</event>
<event>
 8    1  0.1226832E-020  0.7654742E+02  0.7818608E-02  0.1339145E+00
          2   -1    0    0  501    0  0.00000000000E+00  0.00000000000E+00  0.12967340168E+03  0.12967340171E+03  0.25500000000E-02 0. -1.
         -1   -1    0    0    0  501 -0.00000000000E+00 -0.00000000000E+00 -0.11296663809E+02  0.11296664934E+02  0.50400000000E-02 0.  1.
         24    2    1    2    0    0  0.00000000000E+00  0.00000000000E+00  0.11837673787E+03  0.14097006664E+03  0.76547420723E+02 0.  0.
         66    2    3    3    0    0 -0.97477292640E+01 -0.19790942733E+02  0.11676730176E+03  0.11884991545E+03  0.20000006039E+01 0.  0.
        -13    1    3    3    0    0  0.97477292640E+01  0.19790942733E+02  0.16094361136E+01  0.22120151190E+02  0.10566000000E+00 0.  1.
         13    1    4    4    0    0 -0.15967869457E+01 -0.37367540537E+01  0.19590641153E+02  0.20007934532E+02  0.10566000000E+00 0.  1.
        -13    1    4    4    0    0 -0.19783940326E+01 -0.53945731869E+01  0.31733214402E+02  0.32249395702E+02  0.10566000000E+00 0. -1.
        -14    1    4    4    0    0 -0.61725482858E+01 -0.10659615492E+02  0.65443446204E+02  0.66592585217E+02  0.00000000000E+00 0.  1.
<mgrwt>
<rscale>  0 0.76547421E+02</rscale>
<asrwt>0</asrwt>
<pdfrwt beam="1">  1        2 0.19949755E-01 0.76547421E+02</pdfrwt>
<pdfrwt beam="2">  1       -1 0.17379483E-02 0.76547421E+02</pdfrwt>
<totfact> 0.21509321E+05</totfact>
</mgrwt>
</event>
<event>
 8    1  0.1226832E-020  0.7994998E+02  0.7818608E-02  0.1329193E+00
          2   -1    0    0  501    0  0.00000000000E+00  0.00000000000E+00  0.94769987007E+03  0.94769987007E+03  0.25500000000E-02 0. -1.
         -1   -1    0    0    0  501 -0.00000000000E+00 -0.00000000000E+00 -0.16861838987E+01  0.16861914309E+01  0.50400000000E-02 0.  1.
         24    2    1    2    0    0  0.17763568394E-14  0.00000000000E+00  0.94601368617E+03  0.94938606151E+03  0.79949980333E+02 0.  0.
         66    2    3    3    0    0 -0.11976218151E+02  0.54075514915E+01  0.92130024264E+03  0.92139611921E+03  0.19999988255E+01 0.  0.
        -13    1    3    3    0    0  0.11976218151E+02 -0.54075514915E+01  0.24713443531E+02  0.27989942292E+02  0.10566000000E+00 0.  1.
         13    1    4    4    0    0 -0.73082115768E+01  0.30112000302E+01  0.49298821532E+03  0.49305158847E+03  0.10566000000E+00 0. -1.
        -13    1    4    4    0    0 -0.46104460059E+01  0.24075543322E+01  0.41857965623E+03  0.41861198299E+03  0.10566000000E+00 0.  1.
         14    1    4    4    0    0 -0.57560568415E-01 -0.11202870962E-01  0.97323710946E+01  0.97325477572E+01  0.00000000000E+00 0. -1.
<mgrwt>
<rscale>  0 0.79949980E+02</rscale>
<asrwt>0</asrwt>
<pdfrwt beam="1">  1        2 0.14579980E+00 0.79949980E+02</pdfrwt>
<pdfrwt beam="2">  1       -1 0.25941380E-03 0.79949980E+02</pdfrwt>
<totfact> 0.35174306E+05</totfact>
</mgrwt>
</event>
<event>
 8    1  0.1226832E-020  0.7939543E+02  0.7818608E-02  0.1330776E+00
         -1   -1    0    0    0  501 -0.00000000000E+00  0.00000000000E+00  0.48777575418E+01  0.48777601456E+01  0.50400000000E-02 0.  1.
          2   -1    0    0  501    0  0.00000000000E+00 -0.00000000000E+00 -0.32308042165E+03  0.32308042166E+03  0.25500000000E-02 0. -1.
         24    2    1    2    0    0  0.00000000000E+00 -0.44408920985E-15 -0.31820266410E+03  0.32795818180E+03  0.79395425357E+02 0.  0.
         66    2    3    3    0    0 -0.32498700282E+02  0.26767315157E+01 -0.25253859773E+03  0.25464303201E+03  0.19999994899E+01 0.  0.
        -13    1    3    3    0    0  0.32498700282E+02 -0.26767315157E+01 -0.65664066372E+02  0.73315149786E+02  0.10566000000E+00 0.  1.
         13    1    4    4    0    0 -0.12989518552E+02  0.70232361350E+00 -0.10338097108E+03  0.10419624368E+03  0.10566000000E+00 0. -1.
        -13    1    4    4    0    0 -0.13424916479E+02  0.18192671146E+01 -0.99834927375E+02  0.10074999754E+03  0.10566000000E+00 0.  1.
        -14    1    4    4    0    0 -0.60842652510E+01  0.15514078767E+00 -0.49322699275E+02  0.49696790802E+02  0.00000000000E+00 0.  1.
<mgrwt>
<rscale>  0 0.79395425E+02</rscale>
<asrwt>0</asrwt>
<pdfrwt beam="1">  1        2 0.49704664E-01 0.79395425E+02</pdfrwt>
<pdfrwt beam="2">  1       -1 0.75042469E-03 0.79395425E+02</pdfrwt>
<totfact> 0.26711841E+05</totfact>
</mgrwt>
</event>
<event>
 8    1  0.1226832E-020  0.7924825E+02  0.7818608E-02  0.1331198E+00
         -1   -1    0    0    0  501 -0.00000000000E+00  0.00000000000E+00  0.46817735200E+01  0.46817762329E+01  0.50400000000E-02 0.  1.
          2   -1    0    0  501    0  0.00000000000E+00 -0.00000000000E+00 -0.33535812974E+03  0.33535812975E+03  0.25500000000E-02 0. -1.
         24    2    1    2    0    0  0.00000000000E+00  0.00000000000E+00 -0.33067635622E+03  0.34003990598E+03  0.79248249809E+02 0.  0.
         66    2    3    3    0    0 -0.19592019184E+02 -0.20812265072E+02 -0.28303580528E+03  0.28448245058E+03  0.20000057195E+01 0.  0.
        -13    1    3    3    0    0  0.19592019184E+02  0.20812265072E+02 -0.47640550938E+02  0.55557455404E+02  0.10566000000E+00 0.  1.
         13    1    4    4    0    0 -0.12142619743E+02 -0.12044278182E+02 -0.16395048929E+03  0.16484017093E+03  0.10566000000E+00 0. -1.
        -13    1    4    4    0    0 -0.73628511482E+01 -0.87484111015E+01 -0.11771523878E+03  0.11826933195E+03  0.10566000000E+00 0.  1.
         14    1    4    4    0    0 -0.86548293201E-01 -0.19575788666E-01 -0.13700772108E+01  0.13729476982E+01  0.00000000000E+00 0. -1.
<mgrwt>
<rscale>  0 0.79248250E+02</rscale>
<asrwt>0</asrwt>
<pdfrwt beam="1">  1        2 0.51593540E-01 0.79248250E+02</pdfrwt>
<pdfrwt beam="2">  1       -1 0.72027332E-03 0.79248250E+02</pdfrwt>
<totfact> 0.27204151E+05</totfact>
</mgrwt>
</event>
<event>
 8    1  0.1226832E-020  0.7976704E+02  0.7818608E-02  0.1329714E+00
          2   -1    0    0  501    0  0.00000000000E+00  0.00000000000E+00  0.68760884795E+02  0.68760884842E+02  0.25500000000E-02 0. -1.
         -1   -1    0    0    0  501 -0.00000000000E+00 -0.00000000000E+00 -0.23133722099E+02  0.23133722648E+02  0.50400000000E-02 0.  1.
         24    2    1    2    0    0  0.00000000000E+00 -0.71054273576E-14  0.45627162695E+02  0.91894607491E+02  0.79767041504E+02 0.  0.
         66    2    3    3    0    0  0.10023128033E+02  0.38483583427E+02  0.25927908795E+02  0.47515321137E+02  0.19999998292E+01 0.  0.
        -13    1    3    3    0    0 -0.10023128033E+02 -0.38483583427E+02  0.19699253900E+02  0.44379286353E+02  0.10566000000E+00 0.  1.
         13    1    4    4    0    0  0.18340374728E+01  0.81422951208E+01  0.53115719536E+01  0.98936658494E+01  0.10566000000E+00 0. -1.
        -13    1    4    4    0    0  0.71193075115E+01  0.26842203956E+02  0.17583031629E+02  0.32868870044E+02  0.10566000000E+00 0.  1.
        -14    1    4    4    0    0  0.10697830492E+01  0.34990843505E+01  0.30333052124E+01  0.47527852440E+01  0.00000000000E+00 0.  1.
<mgrwt>
<rscale>  0 0.79767042E+02</rscale>
<asrwt>0</asrwt>
<pdfrwt beam="1">  1        2 0.10578598E-01 0.79767042E+02</pdfrwt>
<pdfrwt beam="2">  1       -1 0.35590343E-02 0.79767042E+02</pdfrwt>
<totfact> 0.16203922E+05</totfact>
</mgrwt>
</event>
<event>
 8    1  0.1226832E-020  0.7953235E+02  0.7818608E-02  0.1330384E+00
         -1   -1    0    0    0  501 -0.00000000000E+00  0.00000000000E+00  0.45410935238E+02  0.45410935517E+02  0.50400000000E-02 0.  1.
          2   -1    0    0  501    0  0.00000000000E+00 -0.00000000000E+00 -0.34823083282E+02  0.34823083375E+02  0.25500000000E-02 0. -1.
         24    2    1    2    0    0  0.00000000000E+00  0.00000000000E+00  0.10587851956E+02  0.80234018892E+02  0.79532353031E+02 0.  0.
         66    2    3    3    0    0 -0.14648856922E+02 -0.36035272282E+02 -0.29117225724E+01  0.39059032140E+02  0.20000014559E+01 0.  0.
        -13    1    3    3    0    0  0.14648856922E+02  0.36035272282E+02  0.13499574528E+02  0.41174986752E+02  0.10566000000E+00 0.  1.
         13    1    4    4    0    0 -0.31916807159E+01 -0.64791955356E+01 -0.26348646707E-01  0.72234796924E+01  0.10566000000E+00 0. -1.
        -13    1    4    4    0    0 -0.34126711777E+01 -0.95257357134E+01 -0.91911724895E+00  0.10160802429E+02  0.10566000000E+00 0.  1.
         14    1    4    4    0    0 -0.80445050283E+01 -0.20030341033E+02 -0.19662566767E+01  0.21674750019E+02  0.00000000000E+00 0. -1.
<mgrwt>
<rscale>  0 0.79532353E+02</rscale>
<asrwt>0</asrwt>
<pdfrwt beam="1">  1        2 0.53573975E-02 0.79532353E+02</pdfrwt>
<pdfrwt beam="2">  1       -1 0.69862978E-02 0.79532353E+02</pdfrwt>
<totfact> 0.14087724E+05</totfact>
</mgrwt>
</event>
<event>
 8    1  0.1226832E-020  0.8015407E+02  0.7818608E-02  0.1328615E+00
         -1   -1    0    0    0  501 -0.00000000000E+00  0.00000000000E+00  0.22714557535E+01  0.22714613450E+01  0.50400000000E-02 0.  1.
          2   -1    0    0  501    0  0.00000000000E+00 -0.00000000000E+00 -0.70710892590E+03  0.70710892590E+03  0.25500000000E-02 0. -1.
         24    2    1    2    0    0  0.00000000000E+00  0.00000000000E+00 -0.70483747014E+03  0.70938038725E+03  0.80154067220E+02 0.  0.
         66    2    3    3    0    0 -0.25585665800E+02  0.15482583417E+02 -0.58842997099E+03  0.58919281007E+03  0.19999996358E+01 0.  0.
        -13    1    3    3    0    0  0.25585665800E+02 -0.15482583417E+02 -0.11640749916E+03  0.12018757718E+03  0.10566000000E+00 0.  1.
         13    1    4    4    0    0 -0.14233349714E+02  0.78504963506E+01 -0.32168729258E+03  0.32209772416E+03  0.10566000000E+00 0. -1.
        -13    1    4    4    0    0 -0.74940743560E+01  0.49085646788E+01 -0.16550239851E+03  0.16574471404E+03  0.10566000000E+00 0.  1.
        -14    1    4    4    0    0 -0.38582417300E+01  0.27235223878E+01 -0.10124027990E+03  0.10135037187E+03  0.00000000000E+00 0.  1.
<mgrwt>
<rscale>  0 0.80154067E+02</rscale>
<asrwt>0</asrwt>
<pdfrwt beam="1">  1        2 0.10878581E+00 0.80154067E+02</pdfrwt>
<pdfrwt beam="2">  1       -1 0.34945573E-03 0.80154067E+02</pdfrwt>
<totfact> 0.33361214E+05</totfact>
</mgrwt>
</event>
<event>
 8    1  0.1226832E-020  0.8075097E+02  0.7818608E-02  0.1326934E+00
         -1   -1    0    0    0  501 -0.00000000000E+00  0.00000000000E+00  0.33079168415E+01  0.33079206810E+01  0.50400000000E-02 0.  1.
          2   -1    0    0  501    0  0.00000000000E+00 -0.00000000000E+00 -0.49281135084E+03  0.49281135085E+03  0.25500000000E-02 0. -1.
         24    2    1    2    0    0 -0.35527136788E-14  0.17763568394E-14 -0.48950343400E+03  0.49611927153E+03  0.80750973275E+02 0.  0.
         66    2    3    3    0    0  0.17187244634E+02 -0.14813320134E+02 -0.44990058814E+03  0.45047683080E+03  0.20000117081E+01 0.  0.
        -13    1    3    3    0    0 -0.17187244634E+02  0.14813320134E+02 -0.39602845859E+02  0.45642440728E+02  0.10566000000E+00 0.  1.
         13    1    4    4    0    0  0.50292087847E+01 -0.49210984401E+01 -0.14258713670E+03  0.14276068390E+03  0.10566000000E+00 0. -1.
        -13    1    4    4    0    0  0.96470070860E+00 -0.10829575764E+01 -0.35420639554E+02  0.35450476937E+02  0.10566000000E+00 0.  1.
         14    1    4    4    0    0  0.11193335141E+02 -0.88092641174E+01 -0.27189281189E+03  0.27226566996E+03  0.00000000000E+00 0. -1.
<mgrwt>
<rscale>  0 0.80750973E+02</rscale>
<asrwt>0</asrwt>
<pdfrwt beam="1">  1        2 0.75817073E-01 0.80750973E+02</pdfrwt>
<pdfrwt beam="2">  1       -1 0.50891097E-03 0.80750973E+02</pdfrwt>
<totfact> 0.29580960E+05</totfact>
</mgrwt>
</event>
<event>
 8    1  0.1226832E-020  0.8689154E+02  0.7818608E-02  0.1310559E+00
          2   -1    0    0  501    0  0.00000000000E+00  0.00000000000E+00  0.12411790080E+02  0.12411790342E+02  0.25500000000E-02 0. -1.
         -1   -1    0    0    0  501 -0.00000000000E+00 -0.00000000000E+00 -0.15207595146E+03  0.15207595155E+03  0.50400000000E-02 0.  1.
         24    2    1    2    0    0  0.00000000000E+00  0.88817841970E-15 -0.13966416138E+03  0.16448774189E+03  0.86891537313E+02 0.  0.
         66    2    3    3    0    0  0.41290160455E+02 -0.76162631343E+01 -0.48904648348E+02  0.64486815968E+02  0.19999972671E+01 0.  0.
        -13    1    3    3    0    0 -0.41290160455E+02  0.76162631343E+01 -0.90759513036E+02  0.10000092592E+03  0.10566000000E+00 0.  1.
         13    1    4    4    0    0  0.10179338199E+02 -0.19990624667E+01 -0.13084692956E+02  0.16698369103E+02  0.10566000000E+00 0. -1.
        -13    1    4    4    0    0  0.50843617698E+01 -0.51651101040E+00 -0.57398119617E+01  0.76859692702E+01  0.10566000000E+00 0. -1.
         14    1    4    4    0    0  0.26026460487E+02 -0.51006896571E+01 -0.30080143431E+02  0.40102477595E+02  0.00000000000E+00 0. -1.
<mgrwt>
<rscale>  0 0.86891537E+02</rscale>
<asrwt>0</asrwt>
<pdfrwt beam="1">  1        2 0.19095063E-02 0.86891537E+02</pdfrwt>
<pdfrwt beam="2">  1       -1 0.23396299E-01 0.86891537E+02</pdfrwt>
<totfact> 0.87211845E+04</totfact>
</mgrwt>
</event>
<event>
 8    1  0.1226832E-020  0.8090398E+02  0.7818608E-02  0.1326505E+00
          2   -1    0    0  501    0  0.00000000000E+00  0.00000000000E+00  0.48412435437E+03  0.48412435438E+03  0.25500000000E-02 0. -1.
         -1   -1    0    0    0  501 -0.00000000000E+00 -0.00000000000E+00 -0.33800455985E+01  0.33800493561E+01  0.50400000000E-02 0.  1.
         24    2    1    2    0    0  0.00000000000E+00  0.00000000000E+00  0.48074430877E+03  0.48750440373E+03  0.80903975444E+02 0.  0.
         66    2    3    3    0    0 -0.15012970003E+02  0.36781515564E+02  0.28564686113E+03  0.28840318727E+03  0.20000001007E+01 0.  0.
        -13    1    3    3    0    0  0.15012970003E+02 -0.36781515564E+02  0.19509744765E+03  0.19910121647E+03  0.10566000000E+00 0.  1.
         13    1    4    4    0    0 -0.88776871974E+01  0.22977446015E+02  0.17297888065E+03  0.17472401287E+03  0.10566000000E+00 0. -1.
        -13    1    4    4    0    0 -0.39779733671E+01  0.87906849731E+01  0.74832741188E+02  0.75452307666E+02  0.10566000000E+00 0.  1.
         14    1    4    4    0    0 -0.21573094388E+01  0.50133845758E+01  0.37835239282E+02  0.38226866736E+02  0.00000000000E+00 0. -1.
<mgrwt>
<rscale>  0 0.80903975E+02</rscale>
<asrwt>0</asrwt>
<pdfrwt beam="1">  1        2 0.74480732E-01 0.80903975E+02</pdfrwt>
<pdfrwt beam="2">  1       -1 0.52000687E-03 0.80903975E+02</pdfrwt>
<totfact> 0.29266591E+05</totfact>
</mgrwt>
</event>
<event>
 8    1  0.1226832E-020  0.8392057E+02  0.7818608E-02  0.1318280E+00
         -1   -1    0    0    0  501 -0.00000000000E+00  0.00000000000E+00  0.11665170699E+02  0.11665171788E+02  0.50400000000E-02 0.  1.
          2   -1    0    0  501    0  0.00000000000E+00 -0.00000000000E+00 -0.15093354689E+03  0.15093354691E+03  0.25500000000E-02 0. -1.
         24    2    1    2    0    0  0.00000000000E+00  0.00000000000E+00 -0.13926837619E+03  0.16259871870E+03  0.83920573854E+02 0.  0.
         66    2    3    3    0    0  0.38825430582E+02  0.61274453969E+01 -0.97997456214E+02  0.10560521340E+03  0.20000063210E+01 0.  0.
        -13    1    3    3    0    0 -0.38825430582E+02 -0.61274453969E+01 -0.41270919979E+02  0.56993505305E+02  0.10566000000E+00 0.  1.
         13    1    4    4    0    0  0.10729545794E+02  0.21273870166E+01 -0.27523507543E+02  0.29617622456E+02  0.10566000000E+00 0. -1.
        -13    1    4    4    0    0  0.22248017885E+02  0.35379623143E+01 -0.57125747514E+02  0.61407277013E+02  0.10566000000E+00 0.  1.
        -14    1    4    4    0    0  0.58478669037E+01  0.46209606606E+00 -0.13348201157E+02  0.14580313928E+02  0.00000000000E+00 0.  1.
<mgrwt>
<rscale>  0 0.83920574E+02</rscale>
<asrwt>0</asrwt>
<pdfrwt beam="1">  1        2 0.23220544E-01 0.83920574E+02</pdfrwt>
<pdfrwt beam="2">  1       -1 0.17946418E-02 0.83920574E+02</pdfrwt>
<totfact> 0.17671717E+05</totfact>
</mgrwt>
</event>
<event>
 8    1  0.1226832E-020  0.7734576E+02  0.7818608E-02  0.1336757E+00
         -1   -1    0    0    0  501 -0.00000000000E+00  0.00000000000E+00  0.93081447797E+01  0.93081461442E+01  0.50400000000E-02 0.  1.
          2   -1    0    0  501    0  0.00000000000E+00 -0.00000000000E+00 -0.16067556161E+03  0.16067556163E+03  0.25500000000E-02 0. -1.
         24    2    1    2    0    0  0.00000000000E+00  0.00000000000E+00 -0.15136741683E+03  0.16998370778E+03  0.77345756387E+02 0.  0.
         66    2    3    3    0    0  0.83379024544E+01  0.23150844982E+02 -0.14122836630E+03  0.14336991905E+03  0.19999999452E+01 0.  0.
        -13    1    3    3    0    0 -0.83379024544E+01 -0.23150844982E+02 -0.10139050533E+02  0.26613788728E+02  0.10566000000E+00 0.  1.
         13    1    4    4    0    0  0.33114490316E+01  0.10462012296E+02 -0.58446723673E+02  0.59468059226E+02  0.10566000000E+00 0. -1.
        -13    1    4    4    0    0  0.33411997228E+00  0.91190818081E+00 -0.51317041082E+01  0.52238648314E+01  0.10566000000E+00 0. -1.
         14    1    4    4    0    0  0.46923334505E+01  0.11776924505E+02 -0.77649938519E+02  0.78677994993E+02  0.00000000000E+00 0. -1.
<mgrwt>
<rscale>  0 0.77345756E+02</rscale>
<asrwt>0</asrwt>
<pdfrwt beam="1">  1        2 0.24719315E-01 0.77345756E+02</pdfrwt>
<pdfrwt beam="2">  1       -1 0.14320225E-02 0.77345756E+02</pdfrwt>
<totfact> 0.22395258E+05</totfact>
</mgrwt>
</event>
<event>
 8    1  0.1226832E-020  0.7965756E+02  0.7818608E-02  0.1330026E+00
         -1   -1    0    0    0  501 -0.00000000000E+00  0.00000000000E+00  0.18330369408E+02  0.18330370101E+02  0.50400000000E-02 0.  1.
          2   -1    0    0  501    0  0.00000000000E+00 -0.00000000000E+00 -0.86541169935E+02  0.86541169972E+02  0.25500000000E-02 0. -1.
         24    2    1    2    0    0  0.00000000000E+00  0.00000000000E+00 -0.68210800526E+02  0.10487154007E+03  0.79657558391E+02 0.  0.
         66    2    3    3    0    0  0.20523438128E+02 -0.13477105572E+02 -0.75371905909E+02  0.79295448082E+02  0.19999997519E+01 0.  0.
        -13    1    3    3    0    0 -0.20523438128E+02  0.13477105572E+02  0.71611053826E+01  0.25576091991E+02  0.10566000000E+00 0.  1.
         13    1    4    4    0    0  0.18066580350E+02 -0.12043196689E+02 -0.65559051463E+02  0.69061134546E+02  0.10566000000E+00 0. -1.
        -13    1    4    4    0    0  0.20236322369E+01 -0.97173554507E+00 -0.70392030626E+01  0.73892422610E+01  0.10566000000E+00 0.  1.
         14    1    4    4    0    0  0.43322554154E+00 -0.46217333712E+00 -0.27736513836E+01  0.28450712752E+01  0.00000000000E+00 0. -1.
<mgrwt>
<rscale>  0 0.79657558E+02</rscale>
<asrwt>0</asrwt>
<pdfrwt beam="1">  1        2 0.13314026E-01 0.79657558E+02</pdfrwt>
<pdfrwt beam="2">  1       -1 0.28200570E-02 0.79657558E+02</pdfrwt>
<totfact> 0.17239185E+05</totfact>
</mgrwt>
</event>
<event>
 8    1  0.1226832E-020  0.7873806E+02  0.7818608E-02  0.1332671E+00
          2   -1    0    0  501    0  0.00000000000E+00  0.00000000000E+00  0.28134851288E+02  0.28134851404E+02  0.25500000000E-02 0. -1.
         -1   -1    0    0    0  501 -0.00000000000E+00 -0.00000000000E+00 -0.55088986224E+02  0.55088986455E+02  0.50400000000E-02 0.  1.
         24    2    1    2    0    0 -0.44408920985E-15 -0.35527136788E-14 -0.26954134936E+02  0.83223837858E+02  0.78738058127E+02 0.  0.
         66    2    3    3    0    0  0.22612617778E+01  0.17721120715E+02  0.23565036188E+02  0.29638865718E+02  0.20000015665E+01 0.  0.
        -13    1    3    3    0    0 -0.22612617778E+01 -0.17721120715E+02 -0.50519171124E+02  0.53584972141E+02  0.10566000000E+00 0.  1.
         13    1    4    4    0    0  0.23615423737E+00  0.51134365224E+01  0.69492868662E+01  0.86317294835E+01  0.10566000000E+00 0.  1.
        -13    1    4    4    0    0  0.12741125461E+01  0.40904811929E+01  0.60764450197E+01  0.74357075845E+01  0.10566000000E+00 0.  1.
         14    1    4    4    0    0  0.75099499434E+00  0.85172029997E+01  0.10539304302E+02  0.13571428650E+02  0.00000000000E+00 0. -1.
<mgrwt>
<rscale>  0 0.78738058E+02</rscale>
<asrwt>0</asrwt>
<pdfrwt beam="1">  1        2 0.43284387E-02 0.78738058E+02</pdfrwt>
<pdfrwt beam="2">  1       -1 0.84752287E-02 0.78738058E+02</pdfrwt>
<totfact> 0.13892841E+05</totfact>
</mgrwt>
</event>
<event>
 8    1  0.1226832E-020  0.7991206E+02  0.7818608E-02  0.1329301E+00
         -1   -1    0    0    0  501 -0.00000000000E+00  0.00000000000E+00  0.41154469778E+01  0.41154500639E+01  0.50400000000E-02 0.  1.
          2   -1    0    0  501    0  0.00000000000E+00 -0.00000000000E+00 -0.38792473413E+03  0.38792473414E+03  0.25500000000E-02 0. -1.
         24    2    1    2    0    0  0.00000000000E+00  0.35527136788E-14 -0.38380928715E+03  0.39204018420E+03  0.79912058697E+02 0.  0.
         66    2    3    3    0    0 -0.20177608767E+02  0.31788299403E+02 -0.25726507035E+03  0.26001336176E+03  0.19999990578E+01 0.  0.
        -13    1    3    3    0    0  0.20177608767E+02 -0.31788299403E+02 -0.12654421680E+03  0.13202682244E+03  0.10566000000E+00 0.  1.
         13    1    4    4    0    0 -0.10447490247E+02  0.14927216253E+02 -0.12729184243E+03  0.12858925364E+03  0.10566000000E+00 0. -1.
        -13    1    4    4    0    0 -0.52021472686E+01  0.85567883867E+01 -0.66061919151E+02  0.66816684216E+02  0.10566000000E+00 0.  1.
         14    1    4    4    0    0 -0.45279712518E+01  0.83042947634E+01 -0.63911308767E+02  0.64607423904E+02  0.00000000000E+00 0. -1.
<mgrwt>
<rscale>  0 0.79912059E+02</rscale>
<asrwt>0</asrwt>
<pdfrwt beam="1">  1        2 0.59680699E-01 0.79912059E+02</pdfrwt>
<pdfrwt beam="2">  1       -1 0.63314624E-03 0.79912059E+02</pdfrwt>
<totfact> 0.28031747E+05</totfact>
</mgrwt>
</event>
<event>
 8    1  0.1226832E-020  0.7802680E+02  0.7818608E-02  0.1334746E+00
         -1   -1    0    0    0  501 -0.00000000000E+00  0.00000000000E+00  0.72117481835E+02  0.72117482011E+02  0.50400000000E-02 0.  1.
          2   -1    0    0  501    0  0.00000000000E+00 -0.00000000000E+00 -0.21105080392E+02  0.21105080546E+02  0.25500000000E-02 0. -1.
         24    2    1    2    0    0 -0.17763568394E-14  0.00000000000E+00  0.51012401443E+02  0.93222562557E+02  0.78026797119E+02 0.  0.
         66    2    3    3    0    0  0.11970641105E+02 -0.20431189994E+02 -0.11481786713E+02  0.26392445914E+02  0.20000005425E+01 0.  0.
        -13    1    3    3    0    0 -0.11970641105E+02  0.20431189994E+02  0.62494188156E+02  0.66830116642E+02  0.10566000000E+00 0.  1.
         13    1    4    4    0    0  0.17719584234E+01 -0.29956032388E+01 -0.21469030647E+01  0.40907007008E+01  0.10566000000E+00 0. -1.
        -13    1    4    4    0    0  0.10225153059E+01 -0.14061756098E+01 -0.12258967646E+01  0.21299892745E+01  0.10566000000E+00 0. -1.
         14    1    4    4    0    0  0.91761673761E+01 -0.16029411146E+02 -0.81089868837E+01  0.20171755939E+02  0.00000000000E+00 0. -1.
<mgrwt>
<rscale>  0 0.78026797E+02</rscale>
<asrwt>0</asrwt>
<pdfrwt beam="1">  1        2 0.32469355E-02 0.78026797E+02</pdfrwt>
<pdfrwt beam="2">  1       -1 0.11094997E-01 0.78026797E+02</pdfrwt>
<totfact> 0.13478433E+05</totfact>
</mgrwt>
</event>
<event>
 8    1  0.1226832E-020  0.8225489E+02  0.7818608E-02  0.1322771E+00
         -1   -1    0    0    0  501 -0.00000000000E+00  0.00000000000E+00  0.38631334551E+02  0.38631334880E+02  0.50400000000E-02 0.  1.
          2   -1    0    0  501    0  0.00000000000E+00 -0.00000000000E+00 -0.43784841083E+02  0.43784841157E+02  0.25500000000E-02 0. -1.
         24    2    1    2    0    0  0.00000000000E+00 -0.71054273576E-14 -0.51535065317E+01  0.82416176037E+02  0.82254893125E+02 0.  0.
         66    2    3    3    0    0  0.22255296149E+02  0.33988413388E+02 -0.88316167118E+01  0.41623405724E+02  0.19999997422E+01 0.  0.
        -13    1    3    3    0    0 -0.22255296149E+02 -0.33988413388E+02  0.36781101801E+01  0.40792770313E+02  0.10566000000E+00 0.  1.
         13    1    4    4    0    0  0.65762671832E+01  0.10611471784E+02 -0.24655839105E+01  0.12725599850E+02  0.10566000000E+00 0. -1.
        -13    1    4    4    0    0  0.64224321187E+01  0.96080134679E+01 -0.33659912656E+01  0.12037550347E+02  0.10566000000E+00 0.  1.
        -14    1    4    4    0    0  0.92565968469E+01  0.13768928136E+02 -0.30000415357E+01  0.16860255527E+02  0.00000000000E+00 0.  1.
<mgrwt>
<rscale>  0 0.82254893E+02</rscale>
<asrwt>0</asrwt>
<pdfrwt beam="1">  1        2 0.67361294E-02 0.82254893E+02</pdfrwt>
<pdfrwt beam="2">  1       -1 0.59432823E-02 0.82254893E+02</pdfrwt>
<totfact> 0.13452802E+05</totfact>
</mgrwt>
</event>
<event>
 8    1  0.1226832E-020  0.7629879E+02  0.7818608E-02  0.1339896E+00
          2   -1    0    0  501    0  0.00000000000E+00  0.00000000000E+00  0.48938085138E+03  0.48938085139E+03  0.25500000000E-02 0. -1.
         -1   -1    0    0    0  501 -0.00000000000E+00 -0.00000000000E+00 -0.29739116894E+01  0.29739159602E+01  0.50400000000E-02 0.  1.
         24    2    1    2    0    0 -0.88817841970E-15 -0.35527136788E-14  0.48640693969E+03  0.49235476735E+03  0.76298793896E+02 0.  0.
         66    2    3    3    0    0  0.61344878329E+01  0.14094070222E+02  0.46849475515E+03  0.46875111773E+03  0.20000024581E+01 0.  0.
        -13    1    3    3    0    0 -0.61344878329E+01 -0.14094070222E+02  0.17912184542E+02  0.23603649622E+02  0.10566000000E+00 0.  1.
         13    1    4    4    0    0  0.38456444668E+00  0.14410325180E+01  0.34603725933E+02  0.34636014162E+02  0.10566000000E+00 0. -1.
        -13    1    4    4    0    0  0.24397516083E+00  0.44554242534E+00  0.11239874648E+02  0.11251843319E+02  0.10566000000E+00 0.  1.
         14    1    4    4    0    0  0.55059482254E+01  0.12207495279E+02  0.42265115457E+03  0.42286326025E+03  0.00000000000E+00 0. -1.
<mgrwt>
<rscale>  0 0.76298794E+02</rscale>
<asrwt>0</asrwt>
<pdfrwt beam="1">  1        2 0.75289424E-01 0.76298794E+02</pdfrwt>
<pdfrwt beam="2">  1       -1 0.45752483E-03 0.76298794E+02</pdfrwt>
<totfact> 0.34207322E+05</totfact>
</mgrwt>
</event>
<event>
 8    1  0.1226832E-020  0.7823648E+02  0.7818608E-02  0.1334132E+00
         -1   -1    0    0    0  501 -0.00000000000E+00  0.00000000000E+00  0.15586116993E+03  0.15586117001E+03  0.50400000000E-02 0.  1.
          2   -1    0    0  501    0  0.00000000000E+00 -0.00000000000E+00 -0.98179471642E+01  0.98179474954E+01  0.25500000000E-02 0. -1.
         24    2    1    2    0    0  0.00000000000E+00  0.00000000000E+00  0.14604322276E+03  0.16567911750E+03  0.78236481656E+02 0.  0.
         66    2    3    3    0    0  0.98013979743E+01  0.35329262924E+02  0.44343118835E+02  0.57572010781E+02  0.20000040878E+01 0.  0.
        -13    1    3    3    0    0 -0.98013979743E+01 -0.35329262924E+02  0.10170010393E+03  0.10810710672E+03  0.10566000000E+00 0.  1.
         13    1    4    4    0    0  0.37759080196E+01  0.13415346247E+02  0.16596904623E+02  0.21672503395E+02  0.10566000000E+00 0. -1.
        -13    1    4    4    0    0  0.25839812472E+01  0.88491980209E+01  0.10096883093E+02  0.13672727487E+02  0.10566000000E+00 0.  1.
         14    1    4    4    0    0  0.34415087075E+01  0.13064718657E+02  0.17649331119E+02  0.22226779900E+02  0.00000000000E+00 0. -1.
<mgrwt>
<rscale>  0 0.78236482E+02</rscale>
<asrwt>0</asrwt>
<pdfrwt beam="1">  1        2 0.15104535E-02 0.78236482E+02</pdfrwt>
<pdfrwt beam="2">  1       -1 0.23978640E-01 0.78236482E+02</pdfrwt>
<totfact> 0.11300856E+05</totfact>
</mgrwt>
</event>
<event>
 8    1  0.1226832E-020  0.8188591E+02  0.7818608E-02  0.1323783E+00
          2   -1    0    0  501    0  0.00000000000E+00  0.00000000000E+00  0.15347573229E+03  0.15347573231E+03  0.25500000000E-02 0. -1.
         -1   -1    0    0    0  501 -0.00000000000E+00 -0.00000000000E+00 -0.10922414385E+02  0.10922415548E+02  0.50400000000E-02 0.  1.
         24    2    1    2    0    0  0.00000000000E+00  0.00000000000E+00  0.14255331790E+03  0.16439814786E+03  0.81885911935E+02 0.  0.
         66    2    3    3    0    0 -0.23260005117E+02  0.28513420963E+02  0.35389570756E+02  0.51092707212E+02  0.19999997214E+01 0.  0.
        -13    1    3    3    0    0  0.23260005117E+02 -0.28513420963E+02  0.10716374715E+03  0.11330544064E+03  0.10566000000E+00 0.  1.
         13    1    4    4    0    0 -0.80387690401E+01  0.94348605329E+01  0.12240124627E+02  0.17420396547E+02  0.10566000000E+00 0. -1.
        -13    1    4    4    0    0 -0.45125836970E+01  0.66214884314E+01  0.80824258505E+01  0.11381752604E+02  0.10566000000E+00 0.  1.
        -14    1    4    4    0    0 -0.10708652380E+02  0.12457071998E+02  0.15067020279E+02  0.22290558061E+02  0.00000000000E+00 0.  1.
<mgrwt>
<rscale>  0 0.81885912E+02</rscale>
<asrwt>0</asrwt>
<pdfrwt beam="1">  1        2 0.23611652E-01 0.81885912E+02</pdfrwt>
<pdfrwt beam="2">  1       -1 0.16803715E-02 0.81885912E+02</pdfrwt>
<totfact> 0.18968157E+05</totfact>
</mgrwt>
</event>
<event>
 8    1  0.1226832E-020  0.7996771E+02  0.7818608E-02  0.1329143E+00
         -1   -1    0    0    0  501 -0.00000000000E+00  0.00000000000E+00  0.13090352819E+02  0.13090353790E+02  0.50400000000E-02 0.  1.
          2   -1    0    0  501    0  0.00000000000E+00 -0.00000000000E+00 -0.12212876579E+03  0.12212876582E+03  0.25500000000E-02 0. -1.
         24    2    1    2    0    0  0.00000000000E+00  0.71054273576E-14 -0.10903841297E+03  0.13521911961E+03  0.79967711010E+02 0.  0.
         66    2    3    3    0    0 -0.19394801957E+02  0.32234048590E+02 -0.31772069526E+02  0.49281402481E+02  0.19999992655E+01 0.  0.
        -13    1    3    3    0    0  0.19394801957E+02 -0.32234048590E+02 -0.77266343448E+02  0.85937717129E+02  0.10566000000E+00 0.  1.
         13    1    4    4    0    0 -0.91959018730E+01  0.14360785643E+02 -0.13882416907E+02  0.21989302825E+02  0.10566000000E+00 0. -1.
        -13    1    4    4    0    0 -0.24271612347E+01  0.48287394152E+01 -0.52539060784E+01  0.75380719760E+01  0.10566000000E+00 0.  1.
        -14    1    4    4    0    0 -0.77717388493E+01  0.13044523532E+02 -0.12635746541E+02  0.19754027679E+02  0.00000000000E+00 0.  1.
<mgrwt>
<rscale>  0 0.79967711E+02</rscale>
<asrwt>0</asrwt>
<pdfrwt beam="1">  1        2 0.18789040E-01 0.79967711E+02</pdfrwt>
<pdfrwt beam="2">  1       -1 0.20139006E-02 0.79967711E+02</pdfrwt>
<totfact> 0.18805661E+05</totfact>
</mgrwt>
</event>
<event>
 8    1  0.1226832E-020  0.7889684E+02  0.7818608E-02  0.1332212E+00
         -1   -1    0    0    0  501 -0.00000000000E+00  0.00000000000E+00  0.63638841194E+01  0.63638861151E+01  0.50400000000E-02 0.  1.
          2   -1    0    0  501    0  0.00000000000E+00 -0.00000000000E+00 -0.24453266060E+03  0.24453266061E+03  0.25500000000E-02 0. -1.
         24    2    1    2    0    0 -0.17763568394E-14  0.83266726847E-16 -0.23816877648E+03  0.25089654673E+03  0.78896838149E+02 0.  0.
         66    2    3    3    0    0 -0.14676266710E+02  0.22693490545E+00 -0.23551470496E+03  0.23598012746E+03  0.20000006258E+01 0.  0.
        -13    1    3    3    0    0  0.14676266710E+02 -0.22693490545E+00 -0.26540715227E+01  0.14916419264E+02  0.10566000000E+00 0.  1.
         13    1    4    4    0    0 -0.99534414819E+01 -0.56475480394E+00 -0.15443122018E+03  0.15475271524E+03  0.10566000000E+00 0. -1.
        -13    1    4    4    0    0 -0.21737449130E+00  0.72332484458E-01 -0.29190240771E+01  0.29299060149E+01  0.10566000000E+00 0. -1.
         14    1    4    4    0    0 -0.45054507366E+01  0.71935722493E+00 -0.78164460700E+02  0.78297506203E+02  0.00000000000E+00 0. -1.
<mgrwt>
<rscale>  0 0.78896838E+02</rscale>
<asrwt>0</asrwt>
<pdfrwt beam="1">  1        2 0.37620402E-01 0.78896838E+02</pdfrwt>
<pdfrwt beam="2">  1       -1 0.97905944E-03 0.78896838E+02</pdfrwt>
<totfact> 0.24560347E+05</totfact>
</mgrwt>
</event>
<event>
 8    1  0.1226832E-020  0.7983705E+02  0.7818608E-02  0.1329514E+00
          2   -1    0    0  501    0  0.00000000000E+00  0.00000000000E+00  0.12978967907E+02  0.12978968157E+02  0.25500000000E-02 0. -1.
         -1   -1    0    0    0  501 -0.00000000000E+00 -0.00000000000E+00 -0.12277468037E+03  0.12277468048E+03  0.50400000000E-02 0.  1.
         24    2    1    2    0    0  0.00000000000E+00  0.00000000000E+00 -0.10979571247E+03  0.13575364863E+03  0.79837050556E+02 0.  0.
         66    2    3    3    0    0  0.78536780227E+01 -0.38776618341E+02 -0.46232405657E+02  0.60883016708E+02  0.20000005556E+01 0.  0.
        -13    1    3    3    0    0 -0.78536780227E+01  0.38776618341E+02 -0.63563306809E+02  0.74870631925E+02  0.10566000000E+00 0.  1.
         13    1    4    4    0    0  0.53057143794E+01 -0.24067201809E+02 -0.29302302521E+02  0.38288600197E+02  0.10566000000E+00 0.  1.
        -13    1    4    4    0    0  0.10163170249E-01 -0.90469292948E+00 -0.79933244444E+00  0.12118865372E+01  0.10566000000E+00 0. -1.
         14    1    4    4    0    0  0.25378004730E+01 -0.13804723602E+02 -0.16130770691E+02  0.21382529974E+02  0.00000000000E+00 0. -1.
<mgrwt>
<rscale>  0 0.79837051E+02</rscale>
<asrwt>0</asrwt>
<pdfrwt beam="1">  1        2 0.19967644E-02 0.79837051E+02</pdfrwt>
<pdfrwt beam="2">  1       -1 0.18888412E-01 0.79837051E+02</pdfrwt>
<totfact> 0.11382846E+05</totfact>
</mgrwt>
</event>
<event>
 8    1  0.1226832E-020  0.8341385E+02  0.7818608E-02  0.1319633E+00
          2   -1    0    0  501    0  0.00000000000E+00  0.00000000000E+00  0.77374843267E+03  0.77374843267E+03  0.25500000000E-02 0. -1.
         -1   -1    0    0    0  501 -0.00000000000E+00 -0.00000000000E+00 -0.22481018094E+01  0.22481074590E+01  0.50400000000E-02 0.  1.
         24    2    1    2    0    0 -0.35527136788E-14  0.00000000000E+00  0.77150033086E+03  0.77599654013E+03  0.83413846457E+02 0.  0.
         66    2    3    3    0    0 -0.21780088946E+02 -0.17065729341E+02  0.67598699662E+03  0.67655600728E+03  0.19999985146E+01 0.  0.
        -13    1    3    3    0    0  0.21780088946E+02  0.17065729341E+02  0.95513334239E+02  0.99440532852E+02  0.10566000000E+00 0.  1.
         13    1    4    4    0    0 -0.18837527573E+02 -0.14727084711E+02  0.58903807245E+03  0.58952319838E+03  0.10566000000E+00 0. -1.
        -13    1    4    4    0    0 -0.24441496316E+01 -0.22117639227E+01  0.73167237020E+02  0.73241528549E+02  0.10566000000E+00 0.  1.
         14    1    4    4    0    0 -0.49841174233E+00 -0.12688070722E+00  0.13781687150E+02  0.13791280350E+02  0.00000000000E+00 0. -1.
<mgrwt>
<rscale>  0 0.83413846E+02</rscale>
<asrwt>0</asrwt>
<pdfrwt beam="1">  1        2 0.11903826E+00 0.83413846E+02</pdfrwt>
<pdfrwt beam="2">  1       -1 0.34586215E-03 0.83413846E+02</pdfrwt>
<totfact> 0.30638158E+05</totfact>
</mgrwt>
</event>
<event>
 8    1  0.1226832E-020  0.7920403E+02  0.7818608E-02  0.1331326E+00
         -1   -1    0    0    0  501 -0.00000000000E+00  0.00000000000E+00  0.33168974329E+01  0.33169012620E+01  0.50400000000E-02 0.  1.
          2   -1    0    0  501    0  0.00000000000E+00 -0.00000000000E+00 -0.47282695498E+03  0.47282695498E+03  0.25500000000E-02 0. -1.
         24    2    1    2    0    0 -0.88817841970E-15  0.35527136788E-14 -0.46951005754E+03  0.47614385625E+03  0.79204025817E+02 0.  0.
         66    2    3    3    0    0  0.76016617519E+01 -0.20572920622E+02 -0.43294873898E+03  0.43350852461E+03  0.20000008702E+01 0.  0.
        -13    1    3    3    0    0 -0.76016617519E+01  0.20572920622E+02 -0.36561318569E+02  0.42635331638E+02  0.10566000000E+00 0.  1.
         13    1    4    4    0    0  0.92593516552E+00 -0.13966707246E+01 -0.28430950023E+02  0.28480486798E+02  0.10566000000E+00 0. -1.
        -13    1    4    4    0    0  0.44610192002E+01 -0.13480453270E+02 -0.27603447018E+03  0.27639946311E+03  0.10566000000E+00 0.  1.
         14    1    4    4    0    0  0.22147073862E+01 -0.56957966273E+01 -0.12848331877E+03  0.12862857470E+03  0.00000000000E+00 0. -1.
<mgrwt>
<rscale>  0 0.79204026E+02</rscale>
<asrwt>0</asrwt>
<pdfrwt beam="1">  1        2 0.72742555E-01 0.79204026E+02</pdfrwt>
<pdfrwt beam="2">  1       -1 0.51029258E-03 0.79204026E+02</pdfrwt>
<totfact> 0.30695419E+05</totfact>
</mgrwt>
</event>
<event>
 8    1  0.1226832E-020  0.7823159E+02  0.7818608E-02  0.1334146E+00
         -1   -1    0    0    0  501 -0.00000000000E+00  0.00000000000E+00  0.19573897332E+01  0.19573962218E+01  0.50400000000E-02 0.  1.
          2   -1    0    0  501    0  0.00000000000E+00 -0.00000000000E+00 -0.78167513000E+03  0.78167513000E+03  0.25500000000E-02 0. -1.
         24    2    1    2    0    0  0.00000000000E+00  0.00000000000E+00 -0.77971774026E+03  0.78363252622E+03  0.78231589991E+02 0.  0.
         66    2    3    3    0    0 -0.14522779636E+02  0.12856117733E+02 -0.73007324551E+03  0.73033357769E+03  0.19999992709E+01 0.  0.
        -13    1    3    3    0    0  0.14522779636E+02 -0.12856117733E+02 -0.49644494749E+02  0.53298948531E+02  0.10566000000E+00 0.  1.
         13    1    4    4    0    0 -0.78757135702E+01  0.59208297206E+01 -0.37813382759E+03  0.37826219190E+03  0.10566000000E+00 0. -1.
        -13    1    4    4    0    0 -0.23646286155E+01  0.22359214123E+01 -0.10753435313E+03  0.10758363761E+03  0.10566000000E+00 0.  1.
        -14    1    4    4    0    0 -0.42824374507E+01  0.46993666002E+01 -0.24440506479E+03  0.24448774818E+03  0.00000000000E+00 0.  1.
<mgrwt>
<rscale>  0 0.78231590E+02</rscale>
<asrwt>0</asrwt>
<pdfrwt beam="1">  1        2 0.12025746E+00 0.78231590E+02</pdfrwt>
<pdfrwt beam="2">  1       -1 0.30113801E-03 0.78231590E+02</pdfrwt>
<totfact> 0.36268198E+05</totfact>
</mgrwt>
</event>
<event>
 8    1  0.1226832E-020  0.7866851E+02  0.7818608E-02  0.1332873E+00
         -1   -1    0    0    0  501 -0.00000000000E+00  0.00000000000E+00  0.80371094553E+01  0.80371110356E+01  0.50400000000E-02 0.  1.
          2   -1    0    0  501    0  0.00000000000E+00 -0.00000000000E+00 -0.19250494994E+03  0.19250494995E+03  0.25500000000E-02 0. -1.
         24    2    1    2    0    0  0.00000000000E+00 -0.35527136788E-14 -0.18446784048E+03  0.20054206099E+03  0.78668507383E+02 0.  0.
         66    2    3    3    0    0  0.33487939142E+02  0.17494052882E+02 -0.11994895237E+03  0.12577454103E+03  0.20000103761E+01 0.  0.
        -13    1    3    3    0    0 -0.33487939142E+02 -0.17494052882E+02 -0.64518888111E+02  0.74767519963E+02  0.10566000000E+00 0.  1.
         13    1    4    4    0    0  0.53134681224E+01  0.26315290028E+01 -0.21099561266E+02  0.21917128873E+02  0.10566000000E+00 0. -1.
        -13    1    4    4    0    0  0.17561292453E+02  0.91203422767E+01 -0.60428351149E+02  0.63585976618E+02  0.10566000000E+00 0.  1.
         14    1    4    4    0    0  0.10613178567E+02  0.57421816024E+01 -0.38421039954E+02  0.40271435535E+02  0.00000000000E+00 0. -1.
<mgrwt>
<rscale>  0 0.78668507E+02</rscale>
<asrwt>0</asrwt>
<pdfrwt beam="1">  1        2 0.29616143E-01 0.78668507E+02</pdfrwt>
<pdfrwt beam="2">  1       -1 0.12364787E-02 0.78668507E+02</pdfrwt>
<totfact> 0.22754522E+05</totfact>
</mgrwt>
</event>
<event>
 8    1  0.1226832E-020  0.7808511E+02  0.7818608E-02  0.1334575E+00
          2   -1    0    0  501    0  0.00000000000E+00  0.00000000000E+00  0.28408802486E+03  0.28408802487E+03  0.25500000000E-02 0. -1.
         -1   -1    0    0    0  501 -0.00000000000E+00 -0.00000000000E+00 -0.53656638564E+01  0.53656662234E+01  0.50400000000E-02 0.  1.
         24    2    1    2    0    0  0.35527136788E-14 -0.35527136788E-14  0.27872236100E+03  0.28945369110E+03  0.78085112313E+02 0.  0.
         66    2    3    3    0    0  0.20412602209E+02 -0.18558761701E+02  0.24172613398E+03  0.24330356712E+03  0.19999900182E+01 0.  0.
        -13    1    3    3    0    0 -0.20412602209E+02  0.18558761701E+02  0.36996227026E+02  0.46150123976E+02  0.10566000000E+00 0.  1.
         13    1    4    4    0    0  0.37515194904E+01 -0.32800902824E+01  0.40757956147E+02  0.41061600603E+02  0.10566000000E+00 0. -1.
        -13    1    4    4    0    0  0.15953595456E+02 -0.14675421548E+02  0.19510618896E+03  0.19630670223E+03  0.10566000000E+00 0.  1.
        -14    1    4    4    0    0  0.70748726250E+00 -0.60324986997E+00  0.58619888735E+01  0.59352642894E+01  0.00000000000E+00 0.  1.
<mgrwt>
<rscale>  0 0.78085112E+02</rscale>
<asrwt>0</asrwt>
<pdfrwt beam="1">  1        2 0.43705858E-01 0.78085112E+02</pdfrwt>
<pdfrwt beam="2">  1       -1 0.82548677E-03 0.78085112E+02</pdfrwt>
<totfact> 0.26634579E+05</totfact>
</mgrwt>
</event>
<event>
 8    1  0.1226832E-020  0.7862843E+02  0.7818608E-02  0.1332989E+00
         -1   -1    0    0    0  501 -0.00000000000E+00  0.00000000000E+00  0.20778945505E+01  0.20779006628E+01  0.50400000000E-02 0.  1.
          2   -1    0    0  501    0  0.00000000000E+00 -0.00000000000E+00 -0.74383229977E+03  0.74383229978E+03  0.25500000000E-02 0. -1.
         24    2    1    2    0    0  0.00000000000E+00 -0.55511151231E-16 -0.74175440522E+03  0.74591020044E+03  0.78628426499E+02 0.  0.
         66    2    3    3    0    0 -0.12826629466E+02 -0.33724320159E+00 -0.72339307785E+03  0.72350962760E+03  0.19999999769E+01 0.  0.
        -13    1    3    3    0    0  0.12826629466E+02  0.33724320159E+00 -0.18361327376E+02  0.22400572838E+02  0.10566000000E+00 0.  1.
         13    1    4    4    0    0 -0.80803245391E+01 -0.98951463647E+00 -0.45838845375E+03  0.45846074694E+03  0.10566000000E+00 0. -1.
        -13    1    4    4    0    0 -0.12968057495E+01  0.55354325769E-02 -0.86166269087E+02  0.86176091975E+02  0.10566000000E+00 0.  1.
        -14    1    4    4    0    0 -0.34494991776E+01  0.64673600231E+00 -0.17883835501E+03  0.17887278869E+03  0.00000000000E+00 0.  1.
<mgrwt>
<rscale>  0 0.78628426E+02</rscale>
<asrwt>0</asrwt>
<pdfrwt beam="1">  1        2 0.11443553E+00 0.78628426E+02</pdfrwt>
<pdfrwt beam="2">  1       -1 0.31967715E-03 0.78628426E+02</pdfrwt>
<totfact> 0.35452417E+05</totfact>
</mgrwt>
</event>
<event>
 8    1  0.1226832E-020  0.7418528E+02  0.7818608E-02  0.1346413E+00
          2   -1    0    0  501    0  0.00000000000E+00  0.00000000000E+00  0.46297074824E+03  0.46297074825E+03  0.25500000000E-02 0. -1.
         -1   -1    0    0    0  501 -0.00000000000E+00 -0.00000000000E+00 -0.29718139399E+01  0.29718182136E+01  0.50400000000E-02 0.  1.
         24    2    1    2    0    0  0.35527136788E-14 -0.35527136788E-14  0.45999893430E+03  0.46594256646E+03  0.74185279420E+02 0.  0.
         66    2    3    3    0    0  0.18941155516E+02 -0.29813765242E+02  0.30073254419E+03  0.30280635909E+03  0.20000011206E+01 0.  0.
        -13    1    3    3    0    0 -0.18941155516E+02  0.29813765242E+02  0.15926639012E+03  0.16313620737E+03  0.10566000000E+00 0.  1.
         13    1    4    4    0    0  0.72518729120E+00 -0.13146662487E+01  0.10481525729E+02  0.10589041014E+02  0.10566000000E+00 0. -1.
        -13    1    4    4    0    0  0.42935039791E+01 -0.63015042789E+01  0.69015428030E+02  0.69435463582E+02  0.10566000000E+00 0.  1.
         14    1    4    4    0    0  0.13922464246E+02 -0.22197594715E+02  0.22123559043E+03  0.22278185450E+03  0.00000000000E+00 0. -1.
<mgrwt>
<rscale>  0 0.74185279E+02</rscale>
<asrwt>0</asrwt>
<pdfrwt beam="1">  1        2 0.71226293E-01 0.74185279E+02</pdfrwt>
<pdfrwt beam="2">  1       -1 0.45720232E-03 0.74185279E+02</pdfrwt>
<totfact> 0.36130734E+05</totfact>
</mgrwt>
</event>
<event>
 8    1  0.1226832E-020  0.8142046E+02  0.7818608E-02  0.1325068E+00
          2   -1    0    0  501    0  0.00000000000E+00  0.00000000000E+00  0.30572437570E+03  0.30572437571E+03  0.25500000000E-02 0. -1.
         -1   -1    0    0    0  501 -0.00000000000E+00 -0.00000000000E+00 -0.54209692350E+01  0.54209715779E+01  0.50400000000E-02 0.  1.
         24    2    1    2    0    0  0.88817841970E-15  0.71054273576E-14  0.30030340646E+03  0.31114534728E+03  0.81420459374E+02 0.  0.
         66    2    3    3    0    0 -0.40927474757E+01 -0.40400198420E+02  0.14058106800E+03  0.14634193961E+03  0.19999984851E+01 0.  0.
        -13    1    3    3    0    0  0.40927474757E+01  0.40400198420E+02  0.15972233846E+03  0.16480340768E+03  0.10566000000E+00 0.  1.
         13    1    4    4    0    0  0.37714627247E-01 -0.10695432421E+01  0.32168181829E+01  0.33918178603E+01  0.10566000000E+00 0. -1.
        -13    1    4    4    0    0 -0.36503061332E+01 -0.29425250728E+02  0.10358085363E+03  0.10774123871E+03  0.10566000000E+00 0.  1.
         14    1    4    4    0    0 -0.48015596974E+00 -0.99054044505E+01  0.33783396182E+02  0.35208883037E+02  0.00000000000E+00 0. -1.
<mgrwt>
<rscale>  0 0.81420459E+02</rscale>
<asrwt>0</asrwt>
<pdfrwt beam="1">  1        2 0.47034526E-01 0.81420459E+02</pdfrwt>
<pdfrwt beam="2">  1       -1 0.83399533E-03 0.81420459E+02</pdfrwt>
<totfact> 0.24511229E+05</totfact>
</mgrwt>
</event>
<event>
 8    1  0.1226832E-020  0.8053886E+02  0.7818608E-02  0.1327529E+00
          2   -1    0    0  501    0  0.00000000000E+00  0.00000000000E+00  0.10665831221E+04  0.10665831221E+04  0.25500000000E-02 0. -1.
         -1   -1    0    0    0  501 -0.00000000000E+00 -0.00000000000E+00 -0.15203900556E+01  0.15203984092E+01  0.50400000000E-02 0.  1.
         24    2    1    2    0    0  0.00000000000E+00 -0.17763568394E-14  0.10650627320E+04  0.10681035205E+04  0.80538856091E+02 0.  0.
         66    2    3    3    0    0 -0.23225231271E+02  0.82099191066E+01  0.95491611985E+03  0.95523589238E+03  0.19999978681E+01 0.  0.
        -13    1    3    3    0    0  0.23225231271E+02 -0.82099191066E+01  0.11014661216E+03  0.11286762810E+03  0.10566000000E+00 0.  1.
         13    1    4    4    0    0 -0.17518774818E+01  0.55209425506E+00  0.87212810851E+02  0.87232215513E+02  0.10566000000E+00 0. -1.
        -13    1    4    4    0    0 -0.99520157561E+01  0.42123979933E+01  0.41294927759E+03  0.41309067278E+03  0.10566000000E+00 0.  1.
         14    1    4    4    0    0 -0.11521338033E+02  0.34454268583E+01  0.45475403141E+03  0.45491300408E+03  0.00000000000E+00 0. -1.
<mgrwt>
<rscale>  0 0.80538856E+02</rscale>
<asrwt>0</asrwt>
<pdfrwt beam="1">  1        2 0.16408907E+00 0.80538856E+02</pdfrwt>
<pdfrwt beam="2">  1       -1 0.23390772E-03 0.80538856E+02</pdfrwt>
<totfact> 0.34662869E+05</totfact>
</mgrwt>
</event>
<event>
 8    1  0.1226832E-020  0.8066781E+02  0.7818608E-02  0.1327167E+00
         -1   -1    0    0    0  501 -0.00000000000E+00  0.00000000000E+00  0.17536037343E+01  0.17536109769E+01  0.50400000000E-02 0.  1.
          2   -1    0    0  501    0  0.00000000000E+00 -0.00000000000E+00 -0.92770131027E+03  0.92770131028E+03  0.25500000000E-02 0. -1.
         24    2    1    2    0    0  0.00000000000E+00  0.00000000000E+00 -0.92594770654E+03  0.92945492125E+03  0.80667808932E+02 0.  0.
         66    2    3    3    0    0 -0.16831781993E+02  0.13944590855E+02 -0.85348780588E+03  0.85376998969E+03  0.19999998330E+01 0.  0.
        -13    1    3    3    0    0  0.16831781993E+02 -0.13944590855E+02 -0.72459900654E+02  0.75684931565E+02  0.10566000000E+00 0.  1.
         13    1    4    4    0    0 -0.86382683168E+01  0.70534125842E+01 -0.45096750868E+03  0.45110539274E+03  0.10566000000E+00 0. -1.
        -13    1    4    4    0    0 -0.44039452815E+01  0.42448873110E+01 -0.21205551987E+03  0.21214374484E+03  0.10566000000E+00 0.  1.
         14    1    4    4    0    0 -0.37895683951E+01  0.26462909600E+01 -0.19046477734E+03  0.19052085211E+03  0.00000000000E+00 0. -1.
<mgrwt>
<rscale>  0 0.80667809E+02</rscale>
<asrwt>0</asrwt>
<pdfrwt beam="1">  1        2 0.14272289E+00 0.80667809E+02</pdfrwt>
<pdfrwt beam="2">  1       -1 0.26978649E-03 0.80667809E+02</pdfrwt>
<totfact> 0.34304830E+05</totfact>
</mgrwt>
</event>
<event>
 8    1  0.1226832E-020  0.7855488E+02  0.7818608E-02  0.1333203E+00
          2   -1    0    0  501    0  0.00000000000E+00  0.00000000000E+00  0.99185640898E+02  0.99185640931E+02  0.25500000000E-02 0. -1.
         -1   -1    0    0    0  501 -0.00000000000E+00 -0.00000000000E+00 -0.15553838073E+02  0.15553838890E+02  0.50400000000E-02 0.  1.
         24    2    1    2    0    0  0.35527136788E-14  0.17763568394E-14  0.83631802825E+02  0.11473947982E+03  0.78554883908E+02 0.  0.
         66    2    3    3    0    0  0.27062549773E+02  0.15836287722E+02  0.76331790898E+02  0.82545210964E+02  0.19999856112E+01 0.  0.
        -13    1    3    3    0    0 -0.27062549773E+02 -0.15836287722E+02  0.73000119270E+01  0.32194268856E+02  0.10566000000E+00 0.  1.
         13    1    4    4    0    0  0.94297650256E+01  0.53131150705E+01  0.24189680815E+02  0.26500971344E+02  0.10566000000E+00 0. -1.
        -13    1    4    4    0    0  0.70725138608E+01  0.44740412877E+01  0.21961529502E+02  0.23502285843E+02  0.10566000000E+00 0.  1.
         14    1    4    4    0    0  0.10560270886E+02  0.60491313640E+01  0.30180580581E+02  0.32541953777E+02  0.00000000000E+00 0. -1.
<mgrwt>
<rscale>  0 0.78554884E+02</rscale>
<asrwt>0</asrwt>
<pdfrwt beam="1">  1        2 0.15259330E-01 0.78554884E+02</pdfrwt>
<pdfrwt beam="2">  1       -1 0.23928981E-02 0.78554884E+02</pdfrwt>
<totfact> 0.18569676E+05</totfact>
</mgrwt>
</event>
<event>
 8    1  0.1226832E-020  0.8306521E+02  0.7818608E-02  0.1320571E+00
         -1   -1    0    0    0  501 -0.00000000000E+00  0.00000000000E+00  0.24239089727E+01  0.24239142125E+01  0.50400000000E-02 0.  1.
          2   -1    0    0  501    0  0.00000000000E+00 -0.00000000000E+00 -0.71164204660E+03  0.71164204661E+03  0.25500000000E-02 0. -1.
         24    2    1    2    0    0  0.00000000000E+00  0.00000000000E+00 -0.70921813763E+03  0.71406596082E+03  0.83065213286E+02 0.  0.
         66    2    3    3    0    0  0.74538601462E+01 -0.75892400759E+01 -0.69972308350E+03  0.69980679489E+03  0.19999992526E+01 0.  0.
        -13    1    3    3    0    0 -0.74538601462E+01  0.75892400759E+01 -0.94950541291E+01  0.14259165928E+02  0.10566000000E+00 0.  1.
         13    1    4    4    0    0  0.26303113148E+01 -0.24776950435E+01 -0.28745534569E+03  0.28747807645E+03  0.10566000000E+00 0. -1.
        -13    1    4    4    0    0  0.93889089727E+00 -0.86508725759E+00 -0.57221605593E+02  0.57235943276E+02  0.10566000000E+00 0.  1.
         14    1    4    4    0    0  0.38846579342E+01 -0.42464577748E+01 -0.35504613222E+03  0.35509277516E+03  0.00000000000E+00 0. -1.
<mgrwt>
<rscale>  0 0.83065213E+02</rscale>
<asrwt>0</asrwt>
<pdfrwt beam="1">  1        2 0.10948323E+00 0.83065213E+02</pdfrwt>
<pdfrwt beam="2">  1       -1 0.37291004E-03 0.83065213E+02</pdfrwt>
<totfact> 0.30444715E+05</totfact>
</mgrwt>
</event>
<event>
 8    1  0.1226832E-020  0.8043238E+02  0.7818608E-02  0.1327829E+00
          2   -1    0    0  501    0  0.00000000000E+00  0.00000000000E+00  0.27798312084E+02  0.27798312200E+02  0.25500000000E-02 0. -1.
         -1   -1    0    0    0  501 -0.00000000000E+00 -0.00000000000E+00 -0.58181295128E+02  0.58181295346E+02  0.50400000000E-02 0.  1.
         24    2    1    2    0    0  0.00000000000E+00  0.00000000000E+00 -0.30382983045E+02  0.85979607547E+02  0.80432376909E+02 0.  0.
         66    2    3    3    0    0 -0.34914849666E+02  0.67627954734E+01  0.48135365892E+01  0.35943737531E+02  0.20000008473E+01 0.  0.
        -13    1    3    3    0    0  0.34914849666E+02 -0.67627954734E+01 -0.35196519634E+02  0.50035870016E+02  0.10566000000E+00 0.  1.
         13    1    4    4    0    0 -0.74844112095E+01  0.17258297139E+01  0.79778111634E+00  0.77228568613E+01  0.10566000000E+00 0.  1.
        -13    1    4    4    0    0 -0.37495624512E+01  0.39965296848E+00  0.99946594208E+00  0.39024399131E+01  0.10566000000E+00 0. -1.
         14    1    4    4    0    0 -0.23680876006E+02  0.46373127910E+01  0.30162895308E+01  0.24318440757E+02  0.00000000000E+00 0. -1.
<mgrwt>
<rscale>  0 0.80432377E+02</rscale>
<asrwt>0</asrwt>
<pdfrwt beam="1">  1        2 0.42766634E-02 0.80432377E+02</pdfrwt>
<pdfrwt beam="2">  1       -1 0.89509685E-02 0.80432377E+02</pdfrwt>
<totfact> 0.13055012E+05</totfact>
</mgrwt>
</event>
<event>
 8    1  0.1226832E-020  0.7913228E+02  0.7818608E-02  0.1331532E+00
          2   -1    0    0  501    0  0.00000000000E+00  0.00000000000E+00  0.42764318421E+03  0.42764318422E+03  0.25500000000E-02 0. -1.
         -1   -1    0    0    0  501 -0.00000000000E+00 -0.00000000000E+00 -0.36607124884E+01  0.36607159578E+01  0.50400000000E-02 0.  1.
         24    2    1    2    0    0  0.00000000000E+00 -0.35527136788E-14  0.42398247172E+03  0.43130390018E+03  0.79132281525E+02 0.  0.
         66    2    3    3    0    0  0.47699228488E+01  0.21879331557E+02  0.38974775226E+03  0.39039565536E+03  0.20000044923E+01 0.  0.
        -13    1    3    3    0    0 -0.47699228488E+01 -0.21879331557E+02  0.34234719463E+02  0.40908244818E+02  0.10566000000E+00 0.  1.
         13    1    4    4    0    0  0.72740054202E+00  0.39640123640E+01  0.78267147404E+02  0.78370913178E+02  0.10566000000E+00 0. -1.
        -13    1    4    4    0    0  0.73189911394E+00  0.52375313318E+01  0.97412598714E+02  0.97556101618E+02  0.10566000000E+00 0.  1.
         14    1    4    4    0    0  0.33106231929E+01  0.12677787861E+02  0.21406800614E+03  0.21446864056E+03  0.00000000000E+00 0. -1.
<mgrwt>
<rscale>  0 0.79132282E+02</rscale>
<asrwt>0</asrwt>
<pdfrwt beam="1">  1        2 0.65791259E-01 0.79132282E+02</pdfrwt>
<pdfrwt beam="2">  1       -1 0.56318681E-03 0.79132282E+02</pdfrwt>
<totfact> 0.29749080E+05</totfact>
</mgrwt>
</event>
<event>
 8    1  0.1226832E-020  0.8062225E+02  0.7818608E-02  0.1327295E+00
          2   -1    0    0  501    0  0.00000000000E+00  0.00000000000E+00  0.87025050749E+03  0.87025050750E+03  0.25500000000E-02 0. -1.
         -1   -1    0    0    0  501 -0.00000000000E+00 -0.00000000000E+00 -0.18672598690E+01  0.18672666708E+01  0.50400000000E-02 0.  1.
         24    2    1    2    0    0  0.17763568394E-14  0.44408920985E-15  0.86838324762E+03  0.87211777417E+03  0.80622250433E+02 0.  0.
         66    2    3    3    0    0  0.10360662083E+02  0.36912846762E+01  0.85369261767E+03  0.85376580769E+03  0.20000006123E+01 0.  0.
        -13    1    3    3    0    0 -0.10360662083E+02 -0.36912846762E+01  0.14690629950E+02  0.18351966481E+02  0.10566000000E+00 0.  1.
         13    1    4    4    0    0  0.25744089946E+01  0.52108510249E+00  0.24324232769E+03  0.24325653179E+03  0.10566000000E+00 0. -1.
        -13    1    4    4    0    0  0.54886896473E+01  0.27537861510E+01  0.42890407523E+03  0.42894804576E+03  0.10566000000E+00 0.  1.
        -14    1    4    4    0    0  0.22975634407E+01  0.41641342264E+00  0.18154621476E+03  0.18156123014E+03  0.00000000000E+00 0.  1.
<mgrwt>
<rscale>  0 0.80622250E+02</rscale>
<asrwt>0</asrwt>
<pdfrwt beam="1">  1        2 0.13388470E+00 0.80622250E+02</pdfrwt>
<pdfrwt beam="2">  1       -1 0.28727126E-03 0.80622250E+02</pdfrwt>
<totfact> 0.34112658E+05</totfact>
</mgrwt>
</event>
<event>
 8    1  0.1226832E-020  0.8688336E+02  0.7818608E-02  0.1310580E+00
          2   -1    0    0  501    0  0.00000000000E+00  0.00000000000E+00  0.19587421761E+03  0.19587421763E+03  0.25500000000E-02 0. -1.
         -1   -1    0    0    0  501 -0.00000000000E+00 -0.00000000000E+00 -0.96346500638E+01  0.96346513820E+01  0.50400000000E-02 0.  1.
         24    2    1    2    0    0  0.00000000000E+00 -0.35527136788E-14  0.18623956755E+03  0.20550886901E+03  0.86883362742E+02 0.  0.
         66    2    3    3    0    0  0.44326984739E+01 -0.26058642175E+02  0.17464370881E+03  0.17664406775E+03  0.19999990849E+01 0.  0.
        -13    1    3    3    0    0 -0.44326984739E+01  0.26058642175E+02  0.11595858732E+02  0.28864801255E+02  0.10566000000E+00 0.  1.
         13    1    4    4    0    0  0.32582206540E+01 -0.18829993240E+02  0.12266720920E+03  0.12414684863E+03  0.10566000000E+00 0. -1.
        -13    1    4    4    0    0  0.10991347427E+01 -0.65049157635E+01  0.48381212044E+02  0.48829037152E+02  0.10566000000E+00 0.  1.
         14    1    4    4    0    0  0.75343077184E-01 -0.72373317069E+00  0.35952875713E+01  0.36681819751E+01  0.00000000000E+00 0. -1.
<mgrwt>
<rscale>  0 0.86883363E+02</rscale>
<asrwt>0</asrwt>
<pdfrwt beam="1">  1        2 0.30134495E-01 0.86883363E+02</pdfrwt>
<pdfrwt beam="2">  1       -1 0.14822539E-02 0.86883363E+02</pdfrwt>
<totfact> 0.17595667E+05</totfact>
</mgrwt>
</event>
<event>
 8    1  0.1226832E-020  0.7996111E+02  0.7818608E-02  0.1329162E+00
         -1   -1    0    0    0  501 -0.00000000000E+00  0.00000000000E+00  0.14830591921E+02  0.14830592777E+02  0.50400000000E-02 0.  1.
          2   -1    0    0  501    0  0.00000000000E+00 -0.00000000000E+00 -0.10778023617E+03  0.10778023620E+03  0.25500000000E-02 0. -1.
         24    2    1    2    0    0  0.00000000000E+00 -0.17763568394E-14 -0.92949644246E+02  0.12261082897E+03  0.79961109398E+02 0.  0.
         66    2    3    3    0    0 -0.16572188499E+02  0.14012339118E+02 -0.97945409869E+02  0.10034085104E+03  0.19999982121E+01 0.  0.
        -13    1    3    3    0    0  0.16572188499E+02 -0.14012339118E+02  0.49957656232E+01  0.22269977939E+02  0.10566000000E+00 0.  1.
         13    1    4    4    0    0 -0.10178653070E+02  0.92683962695E+01 -0.61932410318E+02  0.63444012795E+02  0.10566000000E+00 0. -1.
        -13    1    4    4    0    0 -0.50967456018E+01  0.38285931602E+01 -0.26783157718E+02  0.27531502732E+02  0.10566000000E+00 0.  1.
        -14    1    4    4    0    0 -0.12967898266E+01  0.91534968809E+00 -0.92298418333E+01  0.93653355078E+01  0.00000000000E+00 0.  1.
<mgrwt>
<rscale>  0 0.79961109E+02</rscale>
<asrwt>0</asrwt>
<pdfrwt beam="1">  1        2 0.16581574E-01 0.79961109E+02</pdfrwt>
<pdfrwt beam="2">  1       -1 0.22816297E-02 0.79961109E+02</pdfrwt>
<totfact> 0.18130398E+05</totfact>
</mgrwt>
</event>
<event>
 8    1  0.1226832E-020  0.7925820E+02  0.7818608E-02  0.1331170E+00
          2   -1    0    0  501    0  0.00000000000E+00  0.00000000000E+00  0.23584614831E+03  0.23584614832E+03  0.25500000000E-02 0. -1.
         -1   -1    0    0    0  501 -0.00000000000E+00 -0.00000000000E+00 -0.66588548558E+01  0.66588567631E+01  0.50400000000E-02 0.  1.
         24    2    1    2    0    0 -0.71054273576E-14  0.00000000000E+00  0.22918729345E+03  0.24250500509E+03  0.79258198385E+02 0.  0.
         66    2    3    3    0    0  0.33759022359E+02 -0.46466541430E+01  0.17640818421E+03  0.17968057893E+03  0.20000006794E+01 0.  0.
        -13    1    3    3    0    0 -0.33759022359E+02  0.46466541430E+01  0.52779109244E+02  0.62824426158E+02  0.10566000000E+00 0.  1.
         13    1    4    4    0    0  0.11241695458E+02 -0.14008647961E+01  0.57259990296E+02  0.58369990506E+02  0.10566000000E+00 0. -1.
        -13    1    4    4    0    0  0.69843097187E+01 -0.17169083156E+01  0.38275516797E+02  0.38945535129E+02  0.10566000000E+00 0.  1.
        -14    1    4    4    0    0  0.15533017183E+02 -0.15288810313E+01  0.80872677116E+02  0.82365053293E+02  0.00000000000E+00 0.  1.
<mgrwt>
<rscale>  0 0.79258198E+02</rscale>
<asrwt>0</asrwt>
<pdfrwt beam="1">  1        2 0.36284013E-01 0.79258198E+02</pdfrwt>
<pdfrwt beam="2">  1       -1 0.10244396E-02 0.79258198E+02</pdfrwt>
<totfact> 0.23956474E+05</totfact>
</mgrwt>
</event>
<event>
 8    1  0.1226832E-020  0.7882838E+02  0.7818608E-02  0.1332410E+00
         -1   -1    0    0    0  501 -0.00000000000E+00  0.00000000000E+00  0.32016454012E+01  0.32016493681E+01  0.50400000000E-02 0.  1.
          2   -1    0    0  501    0  0.00000000000E+00 -0.00000000000E+00 -0.48521216317E+03  0.48521216317E+03  0.25500000000E-02 0. -1.
         24    2    1    2    0    0  0.00000000000E+00  0.00000000000E+00 -0.48201051777E+03  0.48841381254E+03  0.78828377154E+02 0.  0.
         66    2    3    3    0    0  0.16182435891E+02  0.35792734488E+02 -0.25920512593E+03  0.26217224945E+03  0.20000004109E+01 0.  0.
        -13    1    3    3    0    0 -0.16182435891E+02 -0.35792734488E+02 -0.22280539184E+03  0.22624156309E+03  0.10566000000E+00 0.  1.
         13    1    4    4    0    0  0.35014051191E+01  0.71754035494E+01 -0.51679305868E+02  0.52292524063E+02  0.10566000000E+00 0. -1.
        -13    1    4    4    0    0  0.75495429210E+00  0.12985943312E+01 -0.12174197880E+02  0.12266970339E+02  0.10566000000E+00 0.  1.
        -14    1    4    4    0    0  0.11926076479E+02  0.27318736608E+02 -0.19535162218E+03  0.19761275505E+03  0.00000000000E+00 0.  1.
<mgrwt>
<rscale>  0 0.78828377E+02</rscale>
<asrwt>0</asrwt>
<pdfrwt beam="1">  1        2 0.74647967E-01 0.78828377E+02</pdfrwt>
<pdfrwt beam="2">  1       -1 0.49256152E-03 0.78828377E+02</pdfrwt>
<totfact> 0.31340687E+05</totfact>
</mgrwt>
</event>
<event>
 8    1  0.1226832E-020  0.8049222E+02  0.7818608E-02  0.1327660E+00
         -1   -1    0    0    0  501 -0.00000000000E+00  0.00000000000E+00  0.40950849366E+01  0.40950880381E+01  0.50400000000E-02 0.  1.
          2   -1    0    0  501    0  0.00000000000E+00 -0.00000000000E+00 -0.39553484262E+03  0.39553484263E+03  0.25500000000E-02 0. -1.
         24    2    1    2    0    0  0.00000000000E+00  0.00000000000E+00 -0.39143975768E+03  0.39962993067E+03  0.80492220675E+02 0.  0.
         66    2    3    3    0    0  0.29030103113E+02  0.13771478762E+02 -0.31595880634E+03  0.31759465964E+03  0.20000020787E+01 0.  0.
        -13    1    3    3    0    0 -0.29030103113E+02 -0.13771478762E+02 -0.75480951339E+02  0.82035271031E+02  0.10566000000E+00 0.  1.
         13    1    4    4    0    0  0.17376795117E+01  0.55180637006E+00 -0.16423839439E+02  0.16525062369E+02  0.10566000000E+00 0.  1.
        -13    1    4    4    0    0  0.31897657598E+01  0.19732061503E+01 -0.39648819143E+02  0.39825973579E+02  0.10566000000E+00 0.  1.
         14    1    4    4    0    0  0.24102657842E+02  0.11246466241E+02 -0.25988614776E+03  0.26124362369E+03  0.00000000000E+00 0. -1.
<mgrwt>
<rscale>  0 0.80492221E+02</rscale>
<asrwt>0</asrwt>
<pdfrwt beam="1">  1        2 0.60851484E-01 0.80492221E+02</pdfrwt>
<pdfrwt beam="2">  1       -1 0.63001362E-03 0.80492221E+02</pdfrwt>
<totfact> 0.27695271E+05</totfact>
</mgrwt>
</event>
<event>
 8    1  0.1226832E-020  0.8387706E+02  0.7818608E-02  0.1318396E+00
          2   -1    0    0  501    0  0.00000000000E+00  0.00000000000E+00  0.18967937229E+03  0.18967937230E+03  0.25500000000E-02 0. -1.
         -1   -1    0    0    0  501 -0.00000000000E+00 -0.00000000000E+00 -0.92727014449E+01  0.92727028146E+01  0.50400000000E-02 0.  1.
         24    2    1    2    0    0  0.11102230246E-15  0.00000000000E+00  0.18040667084E+03  0.19895207512E+03  0.83877060688E+02 0.  0.
         66    2    3    3    0    0 -0.84581998229E+00 -0.25571314930E+02  0.16900273333E+03  0.17094013992E+03  0.20000012531E+01 0.  0.
        -13    1    3    3    0    0  0.84581998229E+00  0.25571314930E+02  0.11403937514E+02  0.28011935198E+02  0.10566000000E+00 0.  1.
         13    1    4    4    0    0 -0.12562691677E+01 -0.14387278040E+02  0.94802393934E+02  0.95896178450E+02  0.10566000000E+00 0. -1.
        -13    1    4    4    0    0 -0.18762605177E+00 -0.12239319187E+01  0.82163351535E+01  0.83097858136E+01  0.10566000000E+00 0. -1.
        -14    1    4    4    0    0  0.59807523719E+00 -0.99601049710E+01  0.65984004240E+02  0.66734175657E+02  0.00000000000E+00 0.  1.
<mgrwt>
<rscale>  0 0.83877061E+02</rscale>
<asrwt>0</asrwt>
<pdfrwt beam="1">  1        2 0.29181442E-01 0.83877061E+02</pdfrwt>
<pdfrwt beam="2">  1       -1 0.14265695E-02 0.83877061E+02</pdfrwt>
<totfact> 0.19107666E+05</totfact>
</mgrwt>
</event>
<event>
 8    1  0.1226832E-020  0.7860690E+02  0.7818608E-02  0.1333052E+00
          2   -1    0    0  501    0  0.00000000000E+00  0.00000000000E+00  0.14470456379E+04  0.14470456379E+04  0.25500000000E-02 0. -1.
         -1   -1    0    0    0  501 -0.00000000000E+00 -0.00000000000E+00 -0.10675217133E+01  0.10675336107E+01  0.50400000000E-02 0.  1.
         24    2    1    2    0    0  0.00000000000E+00  0.00000000000E+00  0.14459781162E+04  0.14481131715E+04  0.78606901849E+02 0.  0.
         66    2    3    3    0    0  0.15858211554E+02  0.11132399942E+01  0.13851272735E+04  0.13852199414E+04  0.20000051407E+01 0.  0.
        -13    1    3    3    0    0 -0.15858211554E+02 -0.11132399942E+01  0.60850842659E+02  0.62893230107E+02  0.10566000000E+00 0.  1.
         13    1    4    4    0    0  0.91312691357E+01  0.13474458616E+00  0.77389304725E+03  0.77394693486E+03  0.10566000000E+00 0. -1.
        -13    1    4    4    0    0  0.36507761612E+01  0.39153555002E+00  0.37583899805E+03  0.37585694764E+03  0.10566000000E+00 0.  1.
         14    1    4    4    0    0  0.30761662575E+01  0.58695985804E+00  0.23539522819E+03  0.23541605888E+03  0.00000000000E+00 0. -1.
<mgrwt>
<rscale>  0 0.78606902E+02</rscale>
<asrwt>0</asrwt>
<pdfrwt beam="1">  1        2 0.22262293E+00 0.78606902E+02</pdfrwt>
<pdfrwt beam="2">  1       -1 0.16423464E-03 0.78606902E+02</pdfrwt>
<totfact> 0.35245022E+05</totfact>
</mgrwt>
</event>
<event>
 8    1  0.1226832E-020  0.7968344E+02  0.7818608E-02  0.1329952E+00
          2   -1    0    0  501    0  0.00000000000E+00  0.00000000000E+00  0.31137106809E+03  0.31137106810E+03  0.25500000000E-02 0. -1.
         -1   -1    0    0    0  501 -0.00000000000E+00 -0.00000000000E+00 -0.50979763594E+01  0.50979788508E+01  0.50400000000E-02 0.  1.
         24    2    1    2    0    0  0.17763568394E-14 -0.88817841970E-15  0.30627309173E+03  0.31646904695E+03  0.79683442195E+02 0.  0.
         66    2    3    3    0    0 -0.11222998442E+02  0.62706432058E+01  0.30289756959E+03  0.30317686978E+03  0.20000115601E+01 0.  0.
        -13    1    3    3    0    0  0.11222998442E+02 -0.62706432058E+01  0.33755221435E+01  0.13292177173E+02  0.10566000000E+00 0.  1.
         13    1    4    4    0    0 -0.74356111940E+01  0.37565230632E+01  0.18743891226E+03  0.18762397707E+03  0.10566000000E+00 0. -1.
        -13    1    4    4    0    0 -0.62125692961E+00  0.93008894638E+00  0.26381755891E+02  0.26405666694E+02  0.10566000000E+00 0.  1.
        -14    1    4    4    0    0 -0.31661303180E+01  0.15840311962E+01  0.89076901440E+02  0.89147226015E+02  0.00000000000E+00 0.  1.
<mgrwt>
<rscale>  0 0.79683442E+02</rscale>
<asrwt>0</asrwt>
<pdfrwt beam="1">  1        2 0.47903253E-01 0.79683442E+02</pdfrwt>
<pdfrwt beam="2">  1       -1 0.78430406E-03 0.79683442E+02</pdfrwt>
<totfact> 0.26109745E+05</totfact>
</mgrwt>
</event>
<event>
 8    1  0.1226832E-020  0.8004108E+02  0.7818608E-02  0.1328935E+00
         -1   -1    0    0    0  501 -0.00000000000E+00  0.00000000000E+00  0.19553420624E+02  0.19553421273E+02  0.50400000000E-02 0.  1.
          2   -1    0    0  501    0  0.00000000000E+00 -0.00000000000E+00 -0.81911178554E+02  0.81911178594E+02  0.25500000000E-02 0. -1.
         24    2    1    2    0    0  0.17763568394E-14  0.00000000000E+00 -0.62357757931E+02  0.10146459987E+03  0.80041083526E+02 0.  0.
         66    2    3    3    0    0 -0.14214012202E+02  0.37369228828E+02 -0.29843975643E+02  0.49931556014E+02  0.19999994238E+01 0.  0.
        -13    1    3    3    0    0  0.14214012202E+02 -0.37369228828E+02 -0.32513782288E+02  0.51533043853E+02  0.10566000000E+00 0.  1.
         13    1    4    4    0    0 -0.58113599246E+01  0.17140718437E+02 -0.13048901570E+02  0.22312801906E+02  0.10566000000E+00 0. -1.
        -13    1    4    4    0    0 -0.35708193088E+01  0.74252139989E+01 -0.64240710753E+01  0.10448177194E+02  0.10566000000E+00 0.  1.
         14    1    4    4    0    0 -0.48318329691E+01  0.12803296393E+02 -0.10371002997E+02  0.17170576913E+02  0.00000000000E+00 0. -1.
<mgrwt>
<rscale>  0 0.80041084E+02</rscale>
<asrwt>0</asrwt>
<pdfrwt beam="1">  1        2 0.12601720E-01 0.80041084E+02</pdfrwt>
<pdfrwt beam="2">  1       -1 0.30082187E-02 0.80041084E+02</pdfrwt>
<totfact> 0.16774454E+05</totfact>
</mgrwt>
</event>
<event>
 8    1  0.1290390E-020  0.8109867E+02  0.7818608E-02  0.1325962E+00
          2   -1    0    0  501    0  0.00000000000E+00  0.00000000000E+00  0.44089573709E+03  0.44089573710E+03  0.25500000000E-02 0. -1.
         -1   -1    0    0    0  501 -0.00000000000E+00 -0.00000000000E+00 -0.37293351570E+01  0.37293385627E+01  0.50400000000E-02 0.  1.
         24    2    1    2    0    0  0.00000000000E+00  0.35527136788E-14  0.43716640194E+03  0.44462507566E+03  0.81098674013E+02 0.  0.
         66    2    3    3    0    0 -0.82112700003E+01  0.25708196638E+02  0.38445728190E+03  0.38540853381E+03  0.20000006130E+01 0.  0.
        -13    1    3    3    0    0  0.82112700003E+01 -0.25708196638E+02  0.52709120037E+02  0.59216541849E+02  0.10566000000E+00 0.  1.
         13    1    4    4    0    0 -0.45337066664E+01  0.14907230474E+02  0.22473568802E+03  0.22527521091E+03  0.10566000000E+00 0. -1.
        -13    1    4    4    0    0 -0.22333079222E+01  0.60236525312E+01  0.97884886173E+02  0.98095535878E+02  0.10566000000E+00 0.  1.
        -14    1    4    4    0    0 -0.14442554117E+01  0.47773136325E+01  0.61836707703E+02  0.62037787023E+02  0.00000000000E+00 0.  1.
<mgrwt>
<rscale>  0 0.81098674E+02</rscale>
<asrwt>0</asrwt>
<pdfrwt beam="1">  1        2 0.67830063E-01 0.81098674E+02</pdfrwt>
<pdfrwt beam="2">  1       -1 0.57374456E-03 0.81098674E+02</pdfrwt>
<totfact> 0.28194242E+05</totfact>
</mgrwt>
</event>
<event>
 8    1  0.1226832E-020  0.8065477E+02  0.7818608E-02  0.1327203E+00
          2   -1    0    0  501    0  0.00000000000E+00  0.00000000000E+00  0.57085452130E+02  0.57085452187E+02  0.25500000000E-02 0. -1.
         -1   -1    0    0    0  501 -0.00000000000E+00 -0.00000000000E+00 -0.28488836641E+02  0.28488837087E+02  0.50400000000E-02 0.  1.
         24    2    1    2    0    0 -0.35527136788E-14  0.17763568394E-14  0.28596615489E+02  0.85574289274E+02  0.80654773989E+02 0.  0.
         66    2    3    3    0    0  0.28946238843E+02  0.13960202267E+02  0.40111748888E+02  0.51436605525E+02  0.19999996370E+01 0.  0.
        -13    1    3    3    0    0 -0.28946238843E+02 -0.13960202267E+02 -0.11515133399E+02  0.34137683749E+02  0.10566000000E+00 0.  1.
         13    1    4    4    0    0  0.11560272747E+02  0.55716578056E+01  0.16330620191E+02  0.20769776035E+02  0.10566000000E+00 0. -1.
        -13    1    4    4    0    0  0.33240798684E+01  0.11126253811E+01  0.37543747821E+01  0.51375029197E+01  0.10566000000E+00 0.  1.
        -14    1    4    4    0    0  0.14061886228E+02  0.72759190804E+01  0.20026753915E+02  0.25529326570E+02  0.00000000000E+00 0.  1.
<mgrwt>
<rscale>  0 0.80654774E+02</rscale>
<asrwt>0</asrwt>
<pdfrwt beam="1">  1        2 0.87823772E-02 0.80654774E+02</pdfrwt>
<pdfrwt beam="2">  1       -1 0.43828980E-02 0.80654774E+02</pdfrwt>
<totfact> 0.15051317E+05</totfact>
</mgrwt>
</event>
<event>
 8    1  0.1226832E-020  0.8046908E+02  0.7818608E-02  0.1327726E+00
         -1   -1    0    0    0  501 -0.00000000000E+00  0.00000000000E+00  0.18580198730E+01  0.18580267087E+01  0.50400000000E-02 0.  1.
          2   -1    0    0  501    0  0.00000000000E+00 -0.00000000000E+00 -0.87125821699E+03  0.87125821700E+03  0.25500000000E-02 0. -1.
         24    2    1    2    0    0  0.00000000000E+00 -0.17763568394E-14 -0.86940019712E+03  0.87311624371E+03  0.80469076483E+02 0.  0.
         66    2    3    3    0    0 -0.32484591040E+02 -0.91298699485E+01 -0.67224307390E+03  0.67309238117E+03  0.20000029896E+01 0.  0.
        -13    1    3    3    0    0  0.32484591040E+02  0.91298699485E+01 -0.19715712322E+03  0.20002386253E+03  0.10566000000E+00 0.  1.
         13    1    4    4    0    0 -0.25301269553E+02 -0.79013258428E+01 -0.52998077239E+03  0.53064320919E+03  0.10566000000E+00 0. -1.
        -13    1    4    4    0    0 -0.56333108655E+01 -0.96911900750E+00 -0.11380366633E+03  0.11394717643E+03  0.10566000000E+00 0.  1.
         14    1    4    4    0    0 -0.15500106211E+01 -0.25942509822E+00 -0.28458635178E+02  0.28501995553E+02  0.00000000000E+00 0. -1.
<mgrwt>
<rscale>  0 0.80469076E+02</rscale>
<asrwt>0</asrwt>
<pdfrwt beam="1">  1        2 0.13403940E+00 0.80469076E+02</pdfrwt>
<pdfrwt beam="2">  1       -1 0.28585043E-03 0.80469076E+02</pdfrwt>
<totfact> 0.34286759E+05</totfact>
</mgrwt>
</event>
<event>
 8    1  0.1226832E-020  0.8580416E+02  0.7818608E-02  0.1313343E+00
          2   -1    0    0  501    0  0.00000000000E+00  0.00000000000E+00  0.11038317006E+02  0.11038317300E+02  0.25500000000E-02 0. -1.
         -1   -1    0    0    0  501 -0.00000000000E+00 -0.00000000000E+00 -0.16674537878E+03  0.16674537886E+03  0.50400000000E-02 0.  1.
         24    2    1    2    0    0  0.00000000000E+00  0.00000000000E+00 -0.15570706178E+03  0.17778369616E+03  0.85804158016E+02 0.  0.
         66    2    3    3    0    0 -0.88354738239E+01 -0.25440139611E+02 -0.87614977924E+01  0.28390670084E+02  0.20000007774E+01 0.  0.
        -13    1    3    3    0    0  0.88354738239E+01  0.25440139611E+02 -0.14694556399E+03  0.14939302608E+03  0.10566000000E+00 0.  1.
         13    1    4    4    0    0 -0.33605477469E+00 -0.18414220716E+01 -0.23700483870E+00  0.18897363272E+01  0.10566000000E+00 0. -1.
        -13    1    4    4    0    0 -0.20597537483E+01 -0.64858720333E+01 -0.21569095024E+01  0.71395058774E+01  0.10566000000E+00 0.  1.
         14    1    4    4    0    0 -0.64396653009E+01 -0.17112845506E+02 -0.63675834514E+01  0.19361427879E+02  0.00000000000E+00 0. -1.
<mgrwt>
<rscale>  0 0.85804158E+02</rscale>
<asrwt>0</asrwt>
<pdfrwt beam="1">  1        2 0.16982028E-02 0.85804158E+02</pdfrwt>
<pdfrwt beam="2">  1       -1 0.25653133E-01 0.85804158E+02</pdfrwt>
<totfact> 0.87838613E+04</totfact>
</mgrwt>
</event>
<event>
 8    1  0.1226832E-020  0.8125915E+02  0.7818608E-02  0.1325516E+00
          2   -1    0    0  501    0  0.00000000000E+00  0.00000000000E+00  0.11520358912E+02  0.11520359195E+02  0.25500000000E-02 0. -1.
         -1   -1    0    0    0  501 -0.00000000000E+00 -0.00000000000E+00 -0.14329089190E+03  0.14329089199E+03  0.50400000000E-02 0.  1.
         24    2    1    2    0    0  0.00000000000E+00 -0.35527136788E-14 -0.13177053299E+03  0.15481125118E+03  0.81259154125E+02 0.  0.
         66    2    3    3    0    0 -0.22230092032E+02  0.17614454877E+02 -0.10566913386E+02  0.30333242761E+02  0.19999863705E+01 0.  0.
        -13    1    3    3    0    0  0.22230092032E+02 -0.17614454877E+02 -0.12120361960E+03  0.12447800842E+03  0.10566000000E+00 0.  1.
         13    1    4    4    0    0 -0.69845353433E+01  0.51094849914E+01 -0.38737021448E+01  0.94819461706E+01  0.10566000000E+00 0. -1.
        -13    1    4    4    0    0 -0.66468577347E+01  0.60866415274E+01 -0.28318107817E+01  0.94476578667E+01  0.10566000000E+00 0.  1.
         14    1    4    4    0    0 -0.85986989543E+01  0.64183283581E+01 -0.38614004600E+01  0.11403638723E+02  0.00000000000E+00 0. -1.
<mgrwt>
<rscale>  0 0.81259154E+02</rscale>
<asrwt>0</asrwt>
<pdfrwt beam="1">  1        2 0.17723630E-02 0.81259154E+02</pdfrwt>
<pdfrwt beam="2">  1       -1 0.22044751E-01 0.81259154E+02</pdfrwt>
<totfact> 0.10490500E+05</totfact>
</mgrwt>
</event>
<event>
 8    1  0.1226832E-020  0.7862909E+02  0.7818608E-02  0.1332988E+00
          2   -1    0    0  501    0  0.00000000000E+00  0.00000000000E+00  0.28290774444E+03  0.28290774445E+03  0.25500000000E-02 0. -1.
         -1   -1    0    0    0  501 -0.00000000000E+00 -0.00000000000E+00 -0.54633819131E+01  0.54633842379E+01  0.50400000000E-02 0.  1.
         24    2    1    2    0    0  0.00000000000E+00 -0.35527136788E-14  0.27744436252E+03  0.28837112869E+03  0.78629088533E+02 0.  0.
         66    2    3    3    0    0  0.17496066602E+02 -0.24382566762E+02  0.23181024373E+03  0.23375331227E+03  0.19999971668E+01 0.  0.
        -13    1    3    3    0    0 -0.17496066602E+02  0.24382566762E+02  0.45634118795E+02  0.54617816422E+02  0.10566000000E+00 0.  1.
         13    1    4    4    0    0  0.55449584908E+01 -0.86378983395E+01  0.75617590942E+02  0.76311146475E+02  0.10566000000E+00 0. -1.
        -13    1    4    4    0    0  0.12939474023E+01 -0.16723553528E+01  0.19428886538E+02  0.19543895938E+02  0.10566000000E+00 0.  1.
         14    1    4    4    0    0  0.10657160708E+02 -0.14072313070E+02  0.13676376625E+03  0.13789826985E+03  0.00000000000E+00 0. -1.
<mgrwt>
<rscale>  0 0.78629089E+02</rscale>
<asrwt>0</asrwt>
<pdfrwt beam="1">  1        2 0.43524275E-01 0.78629089E+02</pdfrwt>
<pdfrwt beam="2">  1       -1 0.84052035E-03 0.78629089E+02</pdfrwt>
<totfact> 0.26115451E+05</totfact>
</mgrwt>
</event>
<event>
 8    1  0.1226832E-020  0.7930917E+02  0.7818608E-02  0.1331023E+00
          2   -1    0    0  501    0  0.00000000000E+00  0.00000000000E+00  0.65963653516E+03  0.65963653516E+03  0.25500000000E-02 0. -1.
         -1   -1    0    0    0  501 -0.00000000000E+00 -0.00000000000E+00 -0.23838647664E+01  0.23838700942E+01  0.50400000000E-02 0.  1.
         24    2    1    2    0    0 -0.35527136788E-14  0.00000000000E+00  0.65725267039E+03  0.66202040526E+03  0.79309168700E+02 0.  0.
         66    2    3    3    0    0  0.19256529381E+02 -0.77912821109E+01  0.61054508951E+03  0.61090164866E+03  0.20000007645E+01 0.  0.
        -13    1    3    3    0    0 -0.19256529381E+02  0.77912821109E+01  0.46707580879E+02  0.51118756601E+02  0.10566000000E+00 0.  1.
         13    1    4    4    0    0  0.16871539177E+02 -0.68065588978E+01  0.51759887672E+03  0.51791851330E+03  0.10566000000E+00 0. -1.
        -13    1    4    4    0    0  0.78032845114E+00 -0.39497460097E+00  0.38546910097E+02  0.38556975497E+02  0.10566000000E+00 0.  1.
         14    1    4    4    0    0  0.16046617531E+01 -0.58974861209E+00  0.54399302701E+02  0.54426159860E+02  0.00000000000E+00 0. -1.
<mgrwt>
<rscale>  0 0.79309169E+02</rscale>
<asrwt>0</asrwt>
<pdfrwt beam="1">  1        2 0.10148260E+00 0.79309169E+02</pdfrwt>
<pdfrwt beam="2">  1       -1 0.36674862E-03 0.79309169E+02</pdfrwt>
<totfact> 0.33731345E+05</totfact>
</mgrwt>
</event>
<event>
 8    1  0.1226832E-020  0.8013839E+02  0.7818608E-02  0.1328659E+00
         -1   -1    0    0    0  501 -0.00000000000E+00  0.00000000000E+00  0.41950406239E+01  0.41950436515E+01  0.50400000000E-02 0.  1.
          2   -1    0    0  501    0  0.00000000000E+00 -0.00000000000E+00 -0.38272328662E+03  0.38272328663E+03  0.25500000000E-02 0. -1.
         24    2    1    2    0    0  0.00000000000E+00  0.00000000000E+00 -0.37852824600E+03  0.38691833028E+03  0.80138388365E+02 0.  0.
         66    2    3    3    0    0  0.26818658797E+02 -0.25430246041E+02 -0.26380338323E+03  0.26638724229E+03  0.19999933191E+01 0.  0.
        -13    1    3    3    0    0 -0.26818658797E+02  0.25430246041E+02 -0.11472486276E+03  0.12053108800E+03  0.10566000000E+00 0.  1.
         13    1    4    4    0    0  0.86314697867E+01 -0.76658765257E+01 -0.83254440120E+02  0.84051061250E+02  0.10566000000E+00 0. -1.
        -13    1    4    4    0    0  0.33586151186E+01 -0.31263915728E+01 -0.36743148751E+02  0.37028701894E+02  0.10566000000E+00 0.  1.
         14    1    4    4    0    0  0.14828573892E+02 -0.14637977942E+02 -0.14380579436E+03  0.14530747914E+03  0.00000000000E+00 0. -1.
<mgrwt>
<rscale>  0 0.80138388E+02</rscale>
<asrwt>0</asrwt>
<pdfrwt beam="1">  1        2 0.58880478E-01 0.80138388E+02</pdfrwt>
<pdfrwt beam="2">  1       -1 0.64539140E-03 0.80138388E+02</pdfrwt>
<totfact> 0.27693094E+05</totfact>
</mgrwt>
</event>
<event>
 8    1  0.1226832E-020  0.7758038E+02  0.7818608E-02  0.1336062E+00
         -1   -1    0    0    0  501 -0.00000000000E+00  0.00000000000E+00  0.40667894700E+01  0.40667925930E+01  0.50400000000E-02 0.  1.
          2   -1    0    0  501    0  0.00000000000E+00 -0.00000000000E+00 -0.36999169078E+03  0.36999169079E+03  0.25500000000E-02 0. -1.
         24    2    1    2    0    0  0.35527136788E-14  0.00000000000E+00 -0.36592490131E+03  0.37405848338E+03  0.77580381483E+02 0.  0.
         66    2    3    3    0    0 -0.25787431182E+02  0.21023531584E+02 -0.27899440468E+03  0.28097839477E+03  0.19999996655E+01 0.  0.
        -13    1    3    3    0    0  0.25787431182E+02 -0.21023531584E+02 -0.86930496630E+02  0.93080088610E+02  0.10566000000E+00 0.  1.
         13    1    4    4    0    0 -0.13062962897E+02  0.10604717556E+02 -0.13760042700E+03  0.13862535738E+03  0.10566000000E+00 0. -1.
        -13    1    4    4    0    0 -0.69012871209E+01  0.62804043248E+01 -0.76533755100E+02  0.77100571179E+02  0.10566000000E+00 0.  1.
         14    1    4    4    0    0 -0.58231811640E+01  0.41384097032E+01 -0.64860222578E+02  0.65252466211E+02  0.00000000000E+00 0. -1.
<mgrwt>
<rscale>  0 0.77580381E+02</rscale>
<asrwt>0</asrwt>
<pdfrwt beam="1">  1        2 0.56921772E-01 0.77580381E+02</pdfrwt>
<pdfrwt beam="2">  1       -1 0.62566045E-03 0.77580381E+02</pdfrwt>
<totfact> 0.29781585E+05</totfact>
</mgrwt>
</event>
<event>
 8    1  0.1226832E-020  0.7976768E+02  0.7818608E-02  0.1329712E+00
          2   -1    0    0  501    0  0.00000000000E+00  0.00000000000E+00  0.72218746891E+01  0.72218751393E+01  0.25500000000E-02 0. -1.
         -1   -1    0    0    0  501 -0.00000000000E+00 -0.00000000000E+00 -0.22026423749E+03  0.22026423755E+03  0.50400000000E-02 0.  1.
         24    2    1    2    0    0  0.35527136788E-14 -0.35527136788E-14 -0.21304236280E+03  0.22748611269E+03  0.79767682162E+02 0.  0.
         66    2    3    3    0    0  0.26380067471E+02 -0.29754812052E+02 -0.11437672735E+03  0.12110859822E+03  0.20000011865E+01 0.  0.
        -13    1    3    3    0    0 -0.26380067471E+02  0.29754812052E+02 -0.98665635450E+02  0.10637751446E+03  0.10566000000E+00 0.  1.
         13    1    4    4    0    0  0.15893776733E+02 -0.18001390484E+02 -0.66967986255E+02  0.71143408305E+02  0.10566000000E+00 0. -1.
        -13    1    4    4    0    0  0.13483117599E+01 -0.16200497192E+01 -0.73011488257E+01  0.76000292042E+01  0.10566000000E+00 0.  1.
         14    1    4    4    0    0  0.91379789783E+01 -0.10133371849E+02 -0.40107592268E+02  0.42365160715E+02  0.00000000000E+00 0. -1.
<mgrwt>
<rscale>  0 0.79767682E+02</rscale>
<asrwt>0</asrwt>
<pdfrwt beam="1">  1        2 0.11110578E-02 0.79767682E+02</pdfrwt>
<pdfrwt beam="2">  1       -1 0.33886801E-01 0.79767682E+02</pdfrwt>
<totfact> 0.97365553E+04</totfact>
</mgrwt>
</event>
<event>
 8    1  0.1226832E-020  0.8126866E+02  0.7818608E-02  0.1325489E+00
          2   -1    0    0  501    0  0.00000000000E+00  0.00000000000E+00  0.67661661112E+01  0.67661665918E+01  0.25500000000E-02 0. -1.
         -1   -1    0    0    0  501 -0.00000000000E+00 -0.00000000000E+00 -0.24403018672E+03  0.24403018677E+03  0.50400000000E-02 0.  1.
         24    2    1    2    0    0 -0.17763568394E-14  0.35527136788E-14 -0.23726402061E+03  0.25079635336E+03  0.81268661766E+02 0.  0.
         66    2    3    3    0    0  0.11260560384E+02 -0.19468539429E+02 -0.22305113112E+03  0.22419105992E+03  0.20000012723E+01 0.  0.
        -13    1    3    3    0    0 -0.11260560384E+02  0.19468539429E+02 -0.14212889485E+02  0.26605293444E+02  0.10566000000E+00 0.  1.
         13    1    4    4    0    0  0.52862905093E+00 -0.13263681459E+01 -0.17994100105E+02  0.18050969607E+02  0.10566000000E+00 0. -1.
        -13    1    4    4    0    0  0.83196909749E+01 -0.14548884325E+02 -0.15970098793E+03  0.16057803089E+03  0.10566000000E+00 0.  1.
        -14    1    4    4    0    0  0.24122403580E+01 -0.35932869578E+01 -0.45356043089E+02  0.45562059429E+02  0.00000000000E+00 0.  1.
<mgrwt>
<rscale>  0 0.81268662E+02</rscale>
<asrwt>0</asrwt>
<pdfrwt beam="1">  1        2 0.10409489E-02 0.81268662E+02</pdfrwt>
<pdfrwt beam="2">  1       -1 0.37543099E-01 0.81268662E+02</pdfrwt>
<totfact> 0.89710968E+04</totfact>
</mgrwt>
</event>
<event>
 8    1  0.1226832E-020  0.7963678E+02  0.7818608E-02  0.1330085E+00
         -1   -1    0    0    0  501 -0.00000000000E+00  0.00000000000E+00  0.11429254344E+02  0.11429255456E+02  0.50400000000E-02 0.  1.
          2   -1    0    0  501    0  0.00000000000E+00 -0.00000000000E+00 -0.13872331129E+03  0.13872331131E+03  0.25500000000E-02 0. -1.
         24    2    1    2    0    0  0.35527136788E-14  0.00000000000E+00 -0.12729405694E+03  0.15015256677E+03  0.79636777770E+02 0.  0.
         66    2    3    3    0    0 -0.18339035183E+02  0.53343416461E+01 -0.12950915644E+03  0.13092515815E+03  0.20000055781E+01 0.  0.
        -13    1    3    3    0    0  0.18339035183E+02 -0.53343416461E+01  0.22150994994E+01  0.19227408615E+02  0.10566000000E+00 0.  1.
         13    1    4    4    0    0 -0.65602540382E+01  0.24845552518E+01 -0.51471134880E+02  0.51947077278E+02  0.10566000000E+00 0. -1.
        -13    1    4    4    0    0 -0.66404909421E+00  0.34402761848E+00 -0.49800573962E+01  0.50370082297E+01  0.10566000000E+00 0.  1.
         14    1    4    4    0    0 -0.11114732050E+02  0.25057587758E+01 -0.73057964167E+02  0.73941072644E+02  0.00000000000E+00 0. -1.
<mgrwt>
<rscale>  0 0.79636778E+02</rscale>
<asrwt>0</asrwt>
<pdfrwt beam="1">  1        2 0.21342047E-01 0.79636778E+02</pdfrwt>
<pdfrwt beam="2">  1       -1 0.17583470E-02 0.79636778E+02</pdfrwt>
<totfact> 0.19775338E+05</totfact>
</mgrwt>
</event>
<event>
 8    1  0.1226832E-020  0.7480303E+02  0.7818608E-02  0.1344482E+00
          2   -1    0    0  501    0  0.00000000000E+00  0.00000000000E+00  0.24448033902E+03  0.24448033903E+03  0.25500000000E-02 0. -1.
         -1   -1    0    0    0  501 -0.00000000000E+00 -0.00000000000E+00 -0.57218217385E+01  0.57218239582E+01  0.50400000000E-02 0.  1.
         24    2    1    2    0    0  0.35527136788E-14  0.17763568394E-14  0.23875851728E+03  0.25020216299E+03  0.74803026618E+02 0.  0.
         66    2    3    3    0    0  0.26694985023E+02  0.99201666281E+01  0.20042241475E+03  0.20244548961E+03  0.19999993430E+01 0.  0.
        -13    1    3    3    0    0 -0.26694985023E+02 -0.99201666281E+01  0.38336102533E+02  0.47756673384E+02  0.10566000000E+00 0.  1.
         13    1    4    4    0    0  0.12197583196E+02  0.49607324736E+01  0.96138865848E+02  0.97036501344E+02  0.10566000000E+00 0. -1.
        -13    1    4    4    0    0  0.11977653999E+02  0.44770688892E+01  0.85455322636E+02  0.86406780243E+02  0.10566000000E+00 0.  1.
        -14    1    4    4    0    0  0.25197478283E+01  0.48236526533E+00  0.18828226263E+02  0.19002208019E+02  0.00000000000E+00 0.  1.
<mgrwt>
<rscale>  0 0.74803027E+02</rscale>
<asrwt>0</asrwt>
<pdfrwt beam="1">  1        2 0.37612364E-01 0.74803027E+02</pdfrwt>
<pdfrwt beam="2">  1       -1 0.88028034E-03 0.74803027E+02</pdfrwt>
<totfact> 0.28235181E+05</totfact>
</mgrwt>
</event>
<event>
 8    1  0.1226832E-020  0.7412662E+02  0.7818608E-02  0.1346597E+00
         -1   -1    0    0    0  501 -0.00000000000E+00  0.00000000000E+00  0.86192897820E+00  0.86194371339E+00  0.50400000000E-02 0.  1.
          2   -1    0    0  501    0  0.00000000000E+00 -0.00000000000E+00 -0.15937243312E+04  0.15937243312E+04  0.25500000000E-02 0. -1.
         24    2    1    2    0    0  0.00000000000E+00  0.17763568394E-14 -0.15928624022E+04  0.15945862749E+04  0.74126619624E+02 0.  0.
         66    2    3    3    0    0  0.97937112412E+01 -0.87986906869E+01 -0.15416825638E+04  0.15417400758E+04  0.20000040012E+01 0.  0.
        -13    1    3    3    0    0 -0.97937112412E+01  0.87986906869E+01 -0.51179838411E+02  0.52846199120E+02  0.10566000000E+00 0.  1.
         13    1    4    4    0    0  0.36287569338E+01 -0.32746029719E+01 -0.50854111302E+03  0.50856461310E+03  0.10566000000E+00 0. -1.
        -13    1    4    4    0    0  0.36721158143E+01 -0.35495615437E+01 -0.55862700273E+03  0.55865035860E+03  0.10566000000E+00 0.  1.
         14    1    4    4    0    0  0.24928384932E+01 -0.19745261712E+01 -0.47451444807E+03  0.47452510411E+03  0.00000000000E+00 0. -1.
<mgrwt>
<rscale>  0 0.74126620E+02</rscale>
<asrwt>0</asrwt>
<pdfrwt beam="1">  1        2 0.24518600E+00 0.74126620E+02</pdfrwt>
<pdfrwt beam="2">  1       -1 0.13260687E-03 0.74126620E+02</pdfrwt>
<totfact> 0.39491027E+05</totfact>
</mgrwt>
</event>
<event>
 8    1  0.1226832E-020  0.7954263E+02  0.7818608E-02  0.1330354E+00
          2   -1    0    0  501    0  0.00000000000E+00  0.00000000000E+00  0.11759625540E+04  0.11759625540E+04  0.25500000000E-02 0. -1.
         -1   -1    0    0    0  501 -0.00000000000E+00 -0.00000000000E+00 -0.13450699363E+01  0.13450793787E+01  0.50400000000E-02 0.  1.
         24    2    1    2    0    0  0.00000000000E+00  0.00000000000E+00  0.11746174840E+04  0.11773076334E+04  0.79542628508E+02 0.  0.
         66    2    3    3    0    0  0.23795590473E+02  0.93892058741E+01  0.10379216204E+04  0.10382387382E+04  0.19999991697E+01 0.  0.
        -13    1    3    3    0    0 -0.23795590473E+02 -0.93892058741E+01  0.13669586364E+03  0.13906889521E+03  0.10566000000E+00 0.  1.
         13    1    4    4    0    0  0.10226703042E+02  0.37581615635E+01  0.47699505028E+03  0.47711948021E+03  0.10566000000E+00 0.  1.
        -13    1    4    4    0    0  0.72821380366E+01  0.33096307734E+01  0.29996714671E+03  0.30007379669E+03  0.10566000000E+00 0. -1.
         14    1    4    4    0    0  0.62867493940E+01  0.23214135372E+01  0.26095942340E+03  0.26104546125E+03  0.00000000000E+00 0. -1.
<mgrwt>
<rscale>  0 0.79542629E+02</rscale>
<asrwt>0</asrwt>
<pdfrwt beam="1">  1        2 0.18091748E+00 0.79542629E+02</pdfrwt>
<pdfrwt beam="2">  1       -1 0.20693438E-03 0.79542629E+02</pdfrwt>
<totfact> 0.35635771E+05</totfact>
</mgrwt>
</event>
<event>
 8    1  0.1239766E-020  0.8165151E+02  0.7818608E-02  0.1324429E+00
         -1   -1    0    0    0  501 -0.00000000000E+00  0.00000000000E+00  0.76457672363E+02  0.76457672529E+02  0.50400000000E-02 0.  1.
          2   -1    0    0  501    0  0.00000000000E+00 -0.00000000000E+00 -0.21799539662E+02  0.21799539811E+02  0.25500000000E-02 0. -1.
         24    2    1    2    0    0  0.00000000000E+00  0.17763568394E-14  0.54658132701E+02  0.98257212340E+02  0.81651505231E+02 0.  0.
         66    2    3    3    0    0  0.23424566355E+02  0.11044299228E+02 -0.10595201522E+02  0.28052542655E+02  0.19999999395E+01 0.  0.
        -13    1    3    3    0    0 -0.23424566355E+02 -0.11044299228E+02  0.65253334222E+02  0.70204669685E+02  0.10566000000E+00 0.  1.
         13    1    4    4    0    0  0.13529653516E+02  0.59431569819E+01 -0.55950034849E+01  0.15801514712E+02  0.10566000000E+00 0. -1.
        -13    1    4    4    0    0  0.13810772464E+01  0.34586709059E+00 -0.52141843554E+00  0.15198814511E+01  0.10566000000E+00 0. -1.
        -14    1    4    4    0    0  0.85138355934E+01  0.47552751556E+01 -0.44787796012E+01  0.10731146492E+02  0.00000000000E+00 0.  1.
<mgrwt>
<rscale>  0 0.81651505E+02</rscale>
<asrwt>0</asrwt>
<pdfrwt beam="1">  1        2 0.33537753E-02 0.81651505E+02</pdfrwt>
<pdfrwt beam="2">  1       -1 0.11762719E-01 0.81651505E+02</pdfrwt>
<totfact> 0.11915056E+05</totfact>
</mgrwt>
</event>
<event>
 8    1  0.1226832E-020  0.7962396E+02  0.7818608E-02  0.1330122E+00
         -1   -1    0    0    0  501 -0.00000000000E+00  0.00000000000E+00  0.48940425393E+03  0.48940425395E+03  0.50400000000E-02 0.  1.
          2   -1    0    0  501    0  0.00000000000E+00 -0.00000000000E+00 -0.32386178046E+01  0.32386188085E+01  0.25500000000E-02 0. -1.
         24    2    1    2    0    0 -0.71054273576E-14 -0.35527136788E-14  0.48616563612E+03  0.49264287276E+03  0.79623955794E+02 0.  0.
         66    2    3    3    0    0  0.37776905662E+02  0.98075869230E+01  0.29104311706E+03  0.29365520487E+03  0.19999995129E+01 0.  0.
        -13    1    3    3    0    0 -0.37776905662E+02 -0.98075869230E+01  0.19512251907E+03  0.19898766789E+03  0.10566000000E+00 0.  1.
         13    1    4    4    0    0  0.10968373283E+02  0.28327876002E+01  0.81021216675E+02  0.81809404189E+02  0.10566000000E+00 0. -1.
        -13    1    4    4    0    0  0.59828981489E+01  0.10146922393E+01  0.43909270278E+02  0.44326739683E+02  0.10566000000E+00 0.  1.
        -14    1    4    4    0    0  0.20825634230E+02  0.59601070836E+01  0.16611263010E+03  0.16751906100E+03  0.00000000000E+00 0.  1.
<mgrwt>
<rscale>  0 0.79623956E+02</rscale>
<asrwt>0</asrwt>
<pdfrwt beam="1">  1        2 0.49824918E-03 0.79623956E+02</pdfrwt>
<pdfrwt beam="2">  1       -1 0.75292930E-01 0.79623956E+02</pdfrwt>
<totfact> 0.68508326E+04</totfact>
</mgrwt>
</event>
<event>
 8    1  0.1226832E-020  0.8047521E+02  0.7818608E-02  0.1327708E+00
         -1   -1    0    0    0  501 -0.00000000000E+00  0.00000000000E+00  0.11285919831E+03  0.11285919843E+03  0.50400000000E-02 0.  1.
          2   -1    0    0  501    0  0.00000000000E+00 -0.00000000000E+00 -0.14345884417E+02  0.14345884644E+02  0.25500000000E-02 0. -1.
         24    2    1    2    0    0 -0.35527136788E-14  0.00000000000E+00  0.98513313896E+02  0.12720508307E+03  0.80475214470E+02 0.  0.
         66    2    3    3    0    0  0.29185583859E+02 -0.18888766933E+02  0.17340315323E+02  0.38900775797E+02  0.20000001570E+01 0.  0.
        -13    1    3    3    0    0 -0.29185583859E+02  0.18888766933E+02  0.81172998574E+02  0.88304307273E+02  0.10566000000E+00 0.  1.
         13    1    4    4    0    0  0.17236249949E+02 -0.11447296331E+02  0.94281777050E+01  0.22738306984E+02  0.10566000000E+00 0. -1.
        -13    1    4    4    0    0  0.11426380376E+02 -0.69530528406E+01  0.75659845172E+01  0.15367576193E+02  0.10566000000E+00 0.  1.
         14    1    4    4    0    0  0.52295353476E+00 -0.48841776126E+00  0.34615310028E+00  0.79489262033E+00  0.00000000000E+00 0. -1.
<mgrwt>
<rscale>  0 0.80475214E+02</rscale>
<asrwt>0</asrwt>
<pdfrwt beam="1">  1        2 0.22070593E-02 0.80475214E+02</pdfrwt>
<pdfrwt beam="2">  1       -1 0.17362953E-01 0.80475214E+02</pdfrwt>
<totfact> 0.11373578E+05</totfact>
</mgrwt>
</event>
<event>
 8    1  0.1226832E-020  0.8073783E+02  0.7818608E-02  0.1326971E+00
          2   -1    0    0  501    0  0.00000000000E+00  0.00000000000E+00  0.40566021192E+03  0.40566021192E+03  0.25500000000E-02 0. -1.
         -1   -1    0    0    0  501 -0.00000000000E+00 -0.00000000000E+00 -0.40172751256E+01  0.40172782871E+01  0.50400000000E-02 0.  1.
         24    2    1    2    0    0  0.35527136788E-14  0.00000000000E+00  0.40164293679E+03  0.40967749021E+03  0.80737830737E+02 0.  0.
         66    2    3    3    0    0  0.29419867770E+02  0.18676030493E+02  0.30410382091E+03  0.30610040285E+03  0.20000002441E+01 0.  0.
        -13    1    3    3    0    0 -0.29419867770E+02 -0.18676030493E+02  0.97539115882E+02  0.10357708736E+03  0.10566000000E+00 0.  1.
         13    1    4    4    0    0  0.65982787844E+01  0.40735925745E+01  0.69305240384E+02  0.69737787089E+02  0.10566000000E+00 0. -1.
        -13    1    4    4    0    0  0.13576601005E+02  0.80252167439E+01  0.14188368530E+03  0.14275755502E+03  0.10566000000E+00 0.  1.
         14    1    4    4    0    0  0.92449879805E+01  0.65772211748E+01  0.92914895227E+02  0.93605060741E+02  0.00000000000E+00 0. -1.
<mgrwt>
<rscale>  0 0.80737831E+02</rscale>
<asrwt>0</asrwt>
<pdfrwt beam="1">  1        2 0.62409266E-01 0.80737831E+02</pdfrwt>
<pdfrwt beam="2">  1       -1 0.61804254E-03 0.80737831E+02</pdfrwt>
<totfact> 0.27719455E+05</totfact>
</mgrwt>
</event>
<event>
 8    1  0.1226832E-020  0.8047075E+02  0.7818608E-02  0.1327721E+00
         -1   -1    0    0    0  501 -0.00000000000E+00  0.00000000000E+00  0.63494543841E+01  0.63494563844E+01  0.50400000000E-02 0.  1.
          2   -1    0    0  501    0  0.00000000000E+00 -0.00000000000E+00 -0.25496442270E+03  0.25496442271E+03  0.25500000000E-02 0. -1.
         24    2    1    2    0    0  0.35527136788E-14  0.88817841970E-15 -0.24861496831E+03  0.26131387910E+03  0.80470745853E+02 0.  0.
         66    2    3    3    0    0  0.30660432008E+02 -0.65810495996E+01 -0.20611762961E+03  0.20849903965E+03  0.19999984486E+01 0.  0.
        -13    1    3    3    0    0 -0.30660432008E+02  0.65810495996E+01 -0.42497338701E+02  0.52814839443E+02  0.10566000000E+00 0.  1.
         13    1    4    4    0    0  0.10059628853E+02 -0.21701838609E+01 -0.68917647995E+02  0.69681842685E+02  0.10566000000E+00 0. -1.
        -13    1    4    4    0    0  0.18054935324E+01 -0.96386016647E-01 -0.97936669525E+01  0.99597275852E+01  0.10566000000E+00 0.  1.
        -14    1    4    4    0    0  0.18795309622E+02 -0.43144797221E+01 -0.12740631467E+03  0.12885746938E+03  0.00000000000E+00 0.  1.
<mgrwt>
<rscale>  0 0.80470746E+02</rscale>
<asrwt>0</asrwt>
<pdfrwt beam="1">  1        2 0.39225288E-01 0.80470746E+02</pdfrwt>
<pdfrwt beam="2">  1       -1 0.97683949E-03 0.80470746E+02</pdfrwt>
<totfact> 0.23669297E+05</totfact>
</mgrwt>
</event>
<event>
 8    1  0.1226832E-020  0.7990850E+02  0.7818608E-02  0.1329311E+00
          2   -1    0    0  501    0  0.00000000000E+00  0.00000000000E+00  0.38823027304E+03  0.38823027305E+03  0.25500000000E-02 0. -1.
         -1   -1    0    0    0  501 -0.00000000000E+00 -0.00000000000E+00 -0.41118421671E+01  0.41118452559E+01  0.50400000000E-02 0.  1.
         24    2    1    2    0    0  0.71054273576E-14 -0.22204460493E-15  0.38411843087E+03  0.39234211831E+03  0.79908503047E+02 0.  0.
         66    2    3    3    0    0 -0.32537738557E+02  0.18257963098E+01  0.30545831585E+03  0.30719834095E+03  0.19999996684E+01 0.  0.
        -13    1    3    3    0    0  0.32537738557E+02 -0.18257963098E+01  0.78660115029E+02  0.85143777359E+02  0.10566000000E+00 0.  1.
         13    1    4    4    0    0 -0.36817312871E+00 -0.69711469054E-01  0.30166696999E+01  0.30416888821E+01  0.10566000000E+00 0.  1.
        -13    1    4    4    0    0 -0.39132141485E+01  0.57257671744E+00  0.39717028402E+02  0.39913589142E+02  0.10566000000E+00 0. -1.
         14    1    4    4    0    0 -0.28256351280E+02  0.13229310614E+01  0.26272461774E+03  0.26424306292E+03  0.00000000000E+00 0. -1.
<mgrwt>
<rscale>  0 0.79908503E+02</rscale>
<asrwt>0</asrwt>
<pdfrwt beam="1">  1        2 0.59727742E-01 0.79908503E+02</pdfrwt>
<pdfrwt beam="2">  1       -1 0.63259127E-03 0.79908503E+02</pdfrwt>
<totfact> 0.28042787E+05</totfact>
</mgrwt>
</event>
<event>
 8    1  0.1226832E-020  0.8016659E+02  0.7818608E-02  0.1328579E+00
         -1   -1    0    0    0  501 -0.00000000000E+00  0.00000000000E+00  0.10685890682E+02  0.10685891870E+02  0.50400000000E-02 0.  1.
          2   -1    0    0  501    0  0.00000000000E+00 -0.00000000000E+00 -0.15035436375E+03  0.15035436378E+03  0.25500000000E-02 0. -1.
         24    2    1    2    0    0  0.35527136788E-14  0.00000000000E+00 -0.13966847307E+03  0.16104025565E+03  0.80166586357E+02 0.  0.
         66    2    3    3    0    0  0.30596774509E+02  0.25309021169E+02 -0.80498952361E+02  0.89781905201E+02  0.20000018412E+01 0.  0.
        -13    1    3    3    0    0 -0.30596774509E+02 -0.25309021169E+02 -0.59169520712E+02  0.71258350446E+02  0.10566000000E+00 0.  1.
         13    1    4    4    0    0  0.69956778473E+01  0.66685813409E+01 -0.20373702586E+02  0.22550130969E+02  0.10566000000E+00 0. -1.
        -13    1    4    4    0    0  0.20092859943E+02  0.16161498494E+02 -0.51834820928E+02  0.57894532375E+02  0.10566000000E+00 0.  1.
        -14    1    4    4    0    0  0.35082367187E+01  0.24789413346E+01 -0.82904288477E+01  0.93372418569E+01  0.00000000000E+00 0.  1.
<mgrwt>
<rscale>  0 0.80166586E+02</rscale>
<asrwt>0</asrwt>
<pdfrwt beam="1">  1        2 0.23131439E-01 0.80166586E+02</pdfrwt>
<pdfrwt beam="2">  1       -1 0.16439834E-02 0.80166586E+02</pdfrwt>
<totfact> 0.19934906E+05</totfact>
</mgrwt>
</event>
<event>
 8    1  0.1226832E-020  0.7847519E+02  0.7818608E-02  0.1333435E+00
          2   -1    0    0  501    0  0.00000000000E+00  0.00000000000E+00  0.37796705412E+02  0.37796705498E+02  0.25500000000E-02 0. -1.
         -1   -1    0    0    0  501 -0.00000000000E+00 -0.00000000000E+00 -0.40733416849E+02  0.40733417161E+02  0.50400000000E-02 0.  1.
         24    2    1    2    0    0  0.00000000000E+00 -0.88817841970E-15 -0.29367114373E+01  0.78530122659E+02  0.78475192837E+02 0.  0.
         66    2    3    3    0    0 -0.34757953412E+02 -0.55534147708E+01  0.15823654230E+02  0.38643806396E+02  0.19999996410E+01 0.  0.
        -13    1    3    3    0    0  0.34757953412E+02  0.55534147708E+01 -0.18760365668E+02  0.39886316263E+02  0.10566000000E+00 0.  1.
         13    1    4    4    0    0 -0.81169477109E+01 -0.18649358332E+01  0.38685851800E+01  0.91836779742E+01  0.10566000000E+00 0. -1.
        -13    1    4    4    0    0 -0.45939364577E+01 -0.98220802048E+00  0.17323612999E+01  0.50081158615E+01  0.10566000000E+00 0.  1.
        -14    1    4    4    0    0 -0.22047069244E+02 -0.27062709171E+01  0.10222707750E+02  0.24452012560E+02  0.00000000000E+00 0.  1.
<mgrwt>
<rscale>  0 0.78475193E+02</rscale>
<asrwt>0</asrwt>
<pdfrwt beam="1">  1        2 0.58148777E-02 0.78475193E+02</pdfrwt>
<pdfrwt beam="2">  1       -1 0.62666796E-02 0.78475193E+02</pdfrwt>
<totfact> 0.14861885E+05</totfact>
</mgrwt>
</event>
<event>
 8    1  0.1226832E-020  0.8093690E+02  0.7818608E-02  0.1326413E+00
          2   -1    0    0  501    0  0.00000000000E+00  0.00000000000E+00  0.81664231128E+03  0.81664231129E+03  0.25500000000E-02 0. -1.
         -1   -1    0    0    0  501 -0.00000000000E+00 -0.00000000000E+00 -0.20053980809E+01  0.20054044142E+01  0.50400000000E-02 0.  1.
         24    2    1    2    0    0  0.00000000000E+00  0.00000000000E+00  0.81463691320E+03  0.81864771570E+03  0.80936901789E+02 0.  0.
         66    2    3    3    0    0  0.20605306452E+01  0.29822002163E+02  0.68310328887E+03  0.68375997314E+03  0.20000006019E+01 0.  0.
        -13    1    3    3    0    0 -0.20605306452E+01 -0.29822002163E+02  0.13153362433E+03  0.13488774256E+03  0.10566000000E+00 0.  1.
         13    1    4    4    0    0  0.39745133680E+00  0.12534290249E+01  0.30236938180E+02  0.30265700825E+02  0.10566000000E+00 0. -1.
        -13    1    4    4    0    0  0.35949709107E-01  0.57883281873E+00  0.16699582075E+02  0.16709983403E+02  0.10566000000E+00 0.  1.
         14    1    4    4    0    0  0.16271295992E+01  0.27989740319E+02  0.63616676862E+03  0.63678428891E+03  0.00000000000E+00 0. -1.
<mgrwt>
<rscale>  0 0.80936902E+02</rscale>
<asrwt>0</asrwt>
<pdfrwt beam="1">  1        2 0.12563708E+00 0.80936902E+02</pdfrwt>
<pdfrwt beam="2">  1       -1 0.30852377E-03 0.80936902E+02</pdfrwt>
<totfact> 0.33456472E+05</totfact>
</mgrwt>
</event>
<event>
 8    1  0.1226832E-020  0.7903311E+02  0.7818608E-02  0.1331818E+00
         -1   -1    0    0    0  501 -0.00000000000E+00  0.00000000000E+00  0.10434341203E+01  0.10434462924E+01  0.50400000000E-02 0.  1.
          2   -1    0    0  501    0  0.00000000000E+00 -0.00000000000E+00 -0.14965476197E+04  0.14965476197E+04  0.25500000000E-02 0. -1.
         24    2    1    2    0    0  0.00000000000E+00 -0.44408920985E-15 -0.14955041856E+04  0.14975910660E+04  0.79033106104E+02 0.  0.
         66    2    3    3    0    0 -0.10433455464E+02  0.22353276719E+01 -0.14687116822E+04  0.14687518031E+04  0.20000006357E+01 0.  0.
        -13    1    3    3    0    0  0.10433455464E+02 -0.22353276719E+01 -0.26792503364E+02  0.28839262877E+02  0.10566000000E+00 0.  1.
         13    1    4    4    0    0 -0.22116484448E+01  0.98167125925E+00 -0.37454541420E+03  0.37455324526E+03  0.10566000000E+00 0. -1.
        -13    1    4    4    0    0 -0.59685429114E+01  0.96526167634E+00 -0.71992861063E+03  0.71995400603E+03  0.10566000000E+00 0.  1.
        -14    1    4    4    0    0 -0.22532641079E+01  0.28839473628E+00 -0.37423765740E+03  0.37424455185E+03  0.00000000000E+00 0.  1.
<mgrwt>
<rscale>  0 0.79033106E+02</rscale>
<asrwt>0</asrwt>
<pdfrwt beam="1">  1        2 0.23023638E+00 0.79033106E+02</pdfrwt>
<pdfrwt beam="2">  1       -1 0.16053046E-03 0.79033106E+02</pdfrwt>
<totfact> 0.34348410E+05</totfact>
</mgrwt>
</event>
<event>
 8    1  0.1226832E-020  0.8498227E+02  0.7818608E-02  0.1315479E+00
          2   -1    0    0  501    0  0.00000000000E+00  0.00000000000E+00  0.45151084552E+02  0.45151084624E+02  0.25500000000E-02 0. -1.
         -1   -1    0    0    0  501 -0.00000000000E+00 -0.00000000000E+00 -0.39987887654E+02  0.39987887972E+02  0.50400000000E-02 0.  1.
         24    2    1    2    0    0 -0.44408920985E-15 -0.71054273576E-14  0.51631968982E+01  0.85138972596E+02  0.84982269048E+02 0.  0.
         66    2    3    3    0    0 -0.25686976191E+01 -0.36485432685E+02  0.24203050845E+02  0.43904130435E+02  0.19999983447E+01 0.  0.
        -13    1    3    3    0    0  0.25686976191E+01  0.36485432685E+02 -0.19039853947E+02  0.41234842161E+02  0.10566000000E+00 0.  1.
         13    1    4    4    0    0 -0.15349966777E+01 -0.13261688907E+02  0.86171095602E+01  0.15890070757E+02  0.10566000000E+00 0. -1.
        -13    1    4    4    0    0 -0.38218994406E+00 -0.93853422573E+01  0.70061411015E+01  0.11718698546E+02  0.10566000000E+00 0.  1.
        -14    1    4    4    0    0 -0.65151099730E+00 -0.13838401521E+02  0.85798001832E+01  0.16295361132E+02  0.00000000000E+00 0.  1.
<mgrwt>
<rscale>  0 0.84982269E+02</rscale>
<asrwt>0</asrwt>
<pdfrwt beam="1">  1        2 0.69463207E-02 0.84982269E+02</pdfrwt>
<pdfrwt beam="2">  1       -1 0.61519828E-02 0.84982269E+02</pdfrwt>
<totfact> 0.12372190E+05</totfact>
</mgrwt>
</event>
<event>
 8    1  0.1226832E-020  0.7686185E+02  0.7818608E-02  0.1338201E+00
         -1   -1    0    0    0  501 -0.00000000000E+00  0.00000000000E+00  0.10053274545E+03  0.10053274558E+03  0.50400000000E-02 0.  1.
          2   -1    0    0  501    0  0.00000000000E+00 -0.00000000000E+00 -0.14691093379E+02  0.14691093601E+02  0.25500000000E-02 0. -1.
         24    2    1    2    0    0 -0.35527136788E-14  0.00000000000E+00  0.85841652070E+02  0.11522383918E+03  0.76861849343E+02 0.  0.
         66    2    3    3    0    0 -0.22605043103E+02  0.28534494882E+02  0.61293198631E+02  0.71316629037E+02  0.20000017443E+01 0.  0.
        -13    1    3    3    0    0  0.22605043103E+02 -0.28534494882E+02  0.24548453439E+02  0.43907210139E+02  0.10566000000E+00 0.  1.
         13    1    4    4    0    0 -0.71049630079E+01  0.81892564626E+01  0.18237119143E+02  0.21216693886E+02  0.10566000000E+00 0. -1.
        -13    1    4    4    0    0 -0.10582859975E+02  0.13222311290E+02  0.27447969631E+02  0.32252575742E+02  0.10566000000E+00 0. -1.
         14    1    4    4    0    0 -0.49172201207E+01  0.71229271298E+01  0.15608109856E+02  0.17847359409E+02  0.00000000000E+00 0. -1.
<mgrwt>
<rscale>  0 0.76861849E+02</rscale>
<asrwt>0</asrwt>
<pdfrwt beam="1">  1        2 0.22601683E-02 0.76861849E+02</pdfrwt>
<pdfrwt beam="2">  1       -1 0.15466576E-01 0.76861849E+02</pdfrwt>
<totfact> 0.13081697E+05</totfact>
</mgrwt>
</event>
<event>
 8    1  0.1226832E-020  0.7843893E+02  0.7818608E-02  0.1333541E+00
          2   -1    0    0  501    0  0.00000000000E+00  0.00000000000E+00  0.83710918541E+03  0.83710918541E+03  0.25500000000E-02 0. -1.
         -1   -1    0    0    0  501 -0.00000000000E+00 -0.00000000000E+00 -0.18374704881E+01  0.18374774002E+01  0.50400000000E-02 0.  1.
         24    2    1    2    0    0  0.00000000000E+00  0.00000000000E+00  0.83527171492E+03  0.83894666281E+03  0.78438927188E+02 0.  0.
         66    2    3    3    0    0 -0.13752211410E+02  0.23456327585E+02  0.71982386920E+03  0.72034000672E+03  0.19999995020E+01 0.  0.
        -13    1    3    3    0    0  0.13752211410E+02 -0.23456327585E+02  0.11544784572E+03  0.11860665609E+03  0.10566000000E+00 0.  1.
         13    1    4    4    0    0 -0.61467099596E+01  0.11685315276E+02  0.34114730274E+03  0.34140272694E+03  0.10566000000E+00 0. -1.
        -13    1    4    4    0    0 -0.78500465179E+00  0.17550730264E+01  0.57289125990E+02  0.57321476206E+02  0.10566000000E+00 0.  1.
         14    1    4    4    0    0 -0.68204967983E+01  0.10015939283E+02  0.32138744047E+03  0.32161580358E+03  0.00000000000E+00 0. -1.
<mgrwt>
<rscale>  0 0.78438927E+02</rscale>
<asrwt>0</asrwt>
<pdfrwt beam="1">  1        2 0.12878598E+00 0.78438927E+02</pdfrwt>
<pdfrwt beam="2">  1       -1 0.28268842E-03 0.78438927E+02</pdfrwt>
<totfact> 0.36434035E+05</totfact>
</mgrwt>
</event>
<event>
 8    1  0.1226832E-020  0.8196583E+02  0.7818608E-02  0.1323563E+00
          2   -1    0    0  501    0  0.00000000000E+00  0.00000000000E+00  0.32690462709E+03  0.32690462710E+03  0.25500000000E-02 0. -1.
         -1   -1    0    0    0  501 -0.00000000000E+00 -0.00000000000E+00 -0.51378869335E+01  0.51378894055E+01  0.50400000000E-02 0.  1.
         24    2    1    2    0    0  0.17763568394E-14  0.00000000000E+00  0.32176674016E+03  0.33204251651E+03  0.81965832494E+02 0.  0.
         66    2    3    3    0    0 -0.89835450130E+01  0.29799745462E+02  0.26883450694E+03  0.27063761941E+03  0.20000012784E+01 0.  0.
        -13    1    3    3    0    0  0.89835450130E+01 -0.29799745462E+02  0.52932233220E+02  0.61404897104E+02  0.10566000000E+00 0.  1.
         13    1    4    4    0    0 -0.23615975557E+01  0.10194714598E+02  0.91182677721E+02  0.91781268400E+02  0.10566000000E+00 0. -1.
        -13    1    4    4    0    0 -0.10578301655E+01  0.38114950460E+01  0.37195444820E+02  0.37405330884E+02  0.10566000000E+00 0.  1.
         14    1    4    4    0    0 -0.55641172919E+01  0.15793535819E+02  0.14045638440E+03  0.14145102012E+03  0.00000000000E+00 0. -1.
<mgrwt>
<rscale>  0 0.81965832E+02</rscale>
<asrwt>0</asrwt>
<pdfrwt beam="1">  1        2 0.50293023E-01 0.81965832E+02</pdfrwt>
<pdfrwt beam="2">  1       -1 0.79044428E-03 0.81965832E+02</pdfrwt>
<totfact> 0.24676104E+05</totfact>
</mgrwt>
</event>
<event>
 8    1  0.1226832E-020  0.7971702E+02  0.7818608E-02  0.1329856E+00
         -1   -1    0    0    0  501 -0.00000000000E+00  0.00000000000E+00  0.77621028209E+02  0.77621028373E+02  0.50400000000E-02 0.  1.
          2   -1    0    0  501    0  0.00000000000E+00 -0.00000000000E+00 -0.20467399873E+02  0.20467400032E+02  0.25500000000E-02 0. -1.
         24    2    1    2    0    0 -0.35527136788E-14 -0.35527136788E-14  0.57153628336E+02  0.98088428404E+02  0.79717015466E+02 0.  0.
         66    2    3    3    0    0  0.26313305421E+02  0.19714920155E+02  0.92647438136E+00  0.32953398468E+02  0.19999992403E+01 0.  0.
        -13    1    3    3    0    0 -0.26313305421E+02 -0.19714920155E+02  0.56227153955E+02  0.65135029936E+02  0.10566000000E+00 0.  1.
         13    1    4    4    0    0  0.10712234954E+02  0.77780216784E+01  0.64172728574E+00  0.13254153194E+02  0.10566000000E+00 0. -1.
        -13    1    4    4    0    0  0.67137521501E+01  0.58374797957E+01  0.58003214534E+00  0.89161785325E+01  0.10566000000E+00 0.  1.
        -14    1    4    4    0    0  0.88873183171E+01  0.60994186806E+01 -0.29528504971E+00  0.10783066742E+02  0.00000000000E+00 0.  1.
<mgrwt>
<rscale>  0 0.79717015E+02</rscale>
<asrwt>0</asrwt>
<pdfrwt beam="1">  1        2 0.31488308E-02 0.79717015E+02</pdfrwt>
<pdfrwt beam="2">  1       -1 0.11941697E-01 0.79717015E+02</pdfrwt>
<totfact> 0.12601131E+05</totfact>
</mgrwt>
</event>
<event>
 8    1  0.1226832E-020  0.7866677E+02  0.7818608E-02  0.1332878E+00
         -1   -1    0    0    0  501 -0.00000000000E+00  0.00000000000E+00  0.22232925868E+01  0.22232982994E+01  0.50400000000E-02 0.  1.
          2   -1    0    0  501    0  0.00000000000E+00 -0.00000000000E+00 -0.69586570298E+03  0.69586570299E+03  0.25500000000E-02 0. -1.
         24    2    1    2    0    0  0.55511151231E-16  0.17763568394E-14 -0.69364241040E+03  0.69808900129E+03  0.78666766920E+02 0.  0.
         66    2    3    3    0    0  0.16801220340E+00 -0.11373658149E+02 -0.68093862685E+03  0.68103656427E+03  0.20000025817E+01 0.  0.
        -13    1    3    3    0    0 -0.16801220340E+00  0.11373658149E+02 -0.12703783552E+02  0.17052437022E+02  0.10566000000E+00 0.  1.
         13    1    4    4    0    0 -0.33400726370E+00 -0.10269343990E+02 -0.61510666706E+03  0.61519248534E+03  0.10566000000E+00 0. -1.
        -13    1    4    4    0    0  0.30532582879E+00 -0.81971618917E+00 -0.39371703786E+02  0.39381561441E+02  0.10566000000E+00 0.  1.
         14    1    4    4    0    0  0.19669363831E+00 -0.28459797024E+00 -0.26460255999E+02  0.26462517490E+02  0.00000000000E+00 0. -1.
<mgrwt>
<rscale>  0 0.78666767E+02</rscale>
<asrwt>0</asrwt>
<pdfrwt beam="1">  1        2 0.10705609E+00 0.78666767E+02</pdfrwt>
<pdfrwt beam="2">  1       -1 0.34204601E-03 0.78666767E+02</pdfrwt>
<totfact> 0.34896696E+05</totfact>
</mgrwt>
</event>
<event>
 8    1  0.1226832E-020  0.7883208E+02  0.7818608E-02  0.1332399E+00
          2   -1    0    0  501    0  0.00000000000E+00  0.00000000000E+00  0.41256335129E+01  0.41256343009E+01  0.25500000000E-02 0. -1.
         -1   -1    0    0    0  501 -0.00000000000E+00 -0.00000000000E+00 -0.37657828250E+03  0.37657828254E+03  0.50400000000E-02 0.  1.
         24    2    1    2    0    0  0.00000000000E+00  0.35527136788E-14 -0.37245264899E+03  0.38070391684E+03  0.78832078216E+02 0.  0.
         66    2    3    3    0    0  0.28728637943E+02  0.26454511299E+02 -0.16151207341E+03  0.16617859573E+03  0.20000038867E+01 0.  0.
        -13    1    3    3    0    0 -0.28728637943E+02 -0.26454511299E+02 -0.21094057558E+03  0.21452532111E+03  0.10566000000E+00 0.  1.
         13    1    4    4    0    0  0.46152578184E+01  0.45707129557E+01 -0.28438653821E+02  0.29171222409E+02  0.10566000000E+00 0. -1.
        -13    1    4    4    0    0  0.77383889001E+00  0.65146847570E+00 -0.52223397923E+01  0.53204543738E+01  0.10566000000E+00 0. -1.
         14    1    4    4    0    0  0.23339541234E+02  0.21232329868E+02 -0.12785107979E+03  0.13168691895E+03  0.00000000000E+00 0. -1.
<mgrwt>
<rscale>  0 0.78832078E+02</rscale>
<asrwt>0</asrwt>
<pdfrwt beam="1">  1        2 0.63471321E-03 0.78832078E+02</pdfrwt>
<pdfrwt beam="2">  1       -1 0.57935093E-01 0.78832078E+02</pdfrwt>
<totfact> 0.81135958E+04</totfact>
</mgrwt>
</event>
<event>
 8    1  0.1226832E-020  0.7981158E+02  0.7818608E-02  0.1329587E+00
         -1   -1    0    0    0  501 -0.00000000000E+00  0.00000000000E+00  0.21759030262E+02  0.21759030845E+02  0.50400000000E-02 0.  1.
          2   -1    0    0  501    0  0.00000000000E+00 -0.00000000000E+00 -0.73186714629E+02  0.73186714673E+02  0.25500000000E-02 0. -1.
         24    2    1    2    0    0  0.17763568394E-14  0.17763568394E-14 -0.51427684367E+02  0.94945745519E+02  0.79811577310E+02 0.  0.
         66    2    3    3    0    0 -0.81765244238E+01 -0.82842861125E+01 -0.71107221563E+02  0.72081356256E+02  0.20000033193E+01 0.  0.
        -13    1    3    3    0    0  0.81765244238E+01  0.82842861125E+01  0.19679537196E+02  0.22864389262E+02  0.10566000000E+00 0.  1.
         13    1    4    4    0    0 -0.41786085863E+01 -0.38055843605E+01 -0.30634798884E+02  0.31151971185E+02  0.10566000000E+00 0. -1.
        -13    1    4    4    0    0 -0.35130218936E+00 -0.48861905052E+00 -0.24696225180E+01  0.25440835721E+01  0.10566000000E+00 0. -1.
         14    1    4    4    0    0 -0.36466136482E+01 -0.39900827014E+01 -0.38002800161E+02  0.38385301499E+02  0.00000000000E+00 0. -1.
<mgrwt>
<rscale>  0 0.79811577E+02</rscale>
<asrwt>0</asrwt>
<pdfrwt beam="1">  1        2 0.11259494E-01 0.79811577E+02</pdfrwt>
<pdfrwt beam="2">  1       -1 0.33475432E-02 0.79811577E+02</pdfrwt>
<totfact> 0.16428865E+05</totfact>
</mgrwt>
</event>
<event>
 8    1  0.1226832E-020  0.8054375E+02  0.7818608E-02  0.1327515E+00
         -1   -1    0    0    0  501 -0.00000000000E+00  0.00000000000E+00  0.12319204835E+02  0.12319205866E+02  0.50400000000E-02 0.  1.
          2   -1    0    0  501    0  0.00000000000E+00 -0.00000000000E+00 -0.13165005728E+03  0.13165005731E+03  0.25500000000E-02 0. -1.
         24    2    1    2    0    0 -0.35527136788E-14  0.00000000000E+00 -0.11933085245E+03  0.14396926317E+03  0.80543754523E+02 0.  0.
         66    2    3    3    0    0 -0.26551293652E+02 -0.25384353961E+02 -0.89099416952E+02  0.96395242145E+02  0.19999965796E+01 0.  0.
        -13    1    3    3    0    0  0.26551293652E+02  0.25384353961E+02 -0.30231435496E+02  0.47574021028E+02  0.10566000000E+00 0.  1.
         13    1    4    4    0    0 -0.31684144192E+01 -0.36241924779E+01 -0.11732445888E+02  0.12682076786E+02  0.10566000000E+00 0. -1.
        -13    1    4    4    0    0 -0.60301023090E+01 -0.57573011399E+01 -0.21805775636E+02  0.23345484904E+02  0.10566000000E+00 0.  1.
        -14    1    4    4    0    0 -0.17352776924E+02 -0.16002860343E+02 -0.55561195428E+02  0.60367680455E+02  0.00000000000E+00 0.  1.
<mgrwt>
<rscale>  0 0.80543755E+02</rscale>
<asrwt>0</asrwt>
<pdfrwt beam="1">  1        2 0.20253854E-01 0.80543755E+02</pdfrwt>
<pdfrwt beam="2">  1       -1 0.18952625E-02 0.80543755E+02</pdfrwt>
<totfact> 0.18877753E+05</totfact>
</mgrwt>
</event>
<event>
 8    1  0.1226832E-020  0.7343333E+02  0.7818608E-02  0.1348792E+00
          2   -1    0    0  501    0  0.00000000000E+00  0.00000000000E+00  0.78861741938E+02  0.78861741979E+02  0.25500000000E-02 0. -1.
         -1   -1    0    0    0  501 -0.00000000000E+00 -0.00000000000E+00 -0.17094644764E+02  0.17094645507E+02  0.50400000000E-02 0.  1.
         24    2    1    2    0    0 -0.71054273576E-14  0.17763568394E-14  0.61767097173E+02  0.95956387486E+02  0.73433330349E+02 0.  0.
         66    2    3    3    0    0  0.33835519835E+02 -0.84945550042E+01  0.45754072091E+02  0.57571129853E+02  0.20000030968E+01 0.  0.
        -13    1    3    3    0    0 -0.33835519835E+02  0.84945550042E+01  0.16013025082E+02  0.38385257633E+02  0.10566000000E+00 0.  1.
         13    1    4    4    0    0  0.85125233681E+00 -0.18170709078E+00  0.80871164427E+00  0.11928229403E+01  0.10566000000E+00 0. -1.
        -13    1    4    4    0    0  0.76707079550E+01 -0.23455747342E+01  0.10139907121E+02  0.12929437800E+02  0.10566000000E+00 0.  1.
         14    1    4    4    0    0  0.25313559543E+02 -0.59672731792E+01  0.34805453326E+02  0.43448869113E+02  0.00000000000E+00 0. -1.
<mgrwt>
<rscale>  0 0.73433330E+02</rscale>
<asrwt>0</asrwt>
<pdfrwt beam="1">  1        2 0.12132576E-01 0.73433330E+02</pdfrwt>
<pdfrwt beam="2">  1       -1 0.26299454E-02 0.73433330E+02</pdfrwt>
<totfact> 0.20927527E+05</totfact>
</mgrwt>
</event>
<event>
 8    1  0.1226832E-020  0.7865625E+02  0.7818608E-02  0.1332909E+00
         -1   -1    0    0    0  501 -0.00000000000E+00  0.00000000000E+00  0.36792324609E+02  0.36792324954E+02  0.50400000000E-02 0.  1.
          2   -1    0    0  501    0  0.00000000000E+00 -0.00000000000E+00 -0.42038694159E+02  0.42038694236E+02  0.25500000000E-02 0. -1.
         24    2    1    2    0    0  0.00000000000E+00  0.00000000000E+00 -0.52463695494E+01  0.78831019190E+02  0.78656247007E+02 0.  0.
         66    2    3    3    0    0  0.34587640849E+02  0.24108806356E+01 -0.21174895124E+02  0.40675464733E+02  0.20000007019E+01 0.  0.
        -13    1    3    3    0    0 -0.34587640849E+02 -0.24108806356E+01  0.15928525575E+02  0.38155554457E+02  0.10566000000E+00 0.  1.
         13    1    4    4    0    0  0.18135030525E+02  0.20174441392E+01 -0.11597578687E+02  0.21620925245E+02  0.10566000000E+00 0. -1.
        -13    1    4    4    0    0  0.97094068623E+01  0.47732904338E+00 -0.59326659860E+01  0.11388947026E+02  0.10566000000E+00 0.  1.
        -14    1    4    4    0    0  0.67432034612E+01 -0.83892546928E-01 -0.36446504509E+01  0.76655924617E+01  0.00000000000E+00 0.  1.
<mgrwt>
<rscale>  0 0.78656247E+02</rscale>
<asrwt>0</asrwt>
<pdfrwt beam="1">  1        2 0.64674914E-02 0.78656247E+02</pdfrwt>
<pdfrwt beam="2">  1       -1 0.56603577E-02 0.78656247E+02</pdfrwt>
<totfact> 0.15090436E+05</totfact>
</mgrwt>
</event>
<event>
 8    1  0.1771345E-020  0.8079582E+02  0.7818608E-02  0.1326808E+00
         -1   -1    0    0    0  501 -0.00000000000E+00  0.00000000000E+00  0.22026285577E+02  0.22026286153E+02  0.50400000000E-02 0.  1.
          2   -1    0    0  501    0  0.00000000000E+00 -0.00000000000E+00 -0.74092889210E+02  0.74092889253E+02  0.25500000000E-02 0. -1.
         24    2    1    2    0    0  0.00000000000E+00  0.35527136788E-14 -0.52066603633E+02  0.96119175407E+02  0.80795820851E+02 0.  0.
         66    2    3    3    0    0  0.72834278462E+01 -0.15811523694E+02 -0.69384900878E+02  0.71563378001E+02  0.19999996093E+01 0.  0.
        -13    1    3    3    0    0 -0.72834278462E+01  0.15811523694E+02  0.17318297245E+02  0.24555797405E+02  0.10566000000E+00 0.  1.
         13    1    4    4    0    0  0.32343039396E+01 -0.74576272522E+01 -0.32728059119E+02  0.33722602864E+02  0.10566000000E+00 0. -1.
        -13    1    4    4    0    0  0.23734099343E+01 -0.36478746675E+01 -0.15282241915E+02  0.15890190254E+02  0.10566000000E+00 0.  1.
        -14    1    4    4    0    0  0.16757139722E+01 -0.47060217744E+01 -0.21374599843E+02  0.21950584883E+02  0.00000000000E+00 0.  1.
<mgrwt>
<rscale>  0 0.80795821E+02</rscale>
<asrwt>0</asrwt>
<pdfrwt beam="1">  1        2 0.11398906E-01 0.80795821E+02</pdfrwt>
<pdfrwt beam="2">  1       -1 0.33886594E-02 0.80795821E+02</pdfrwt>
<totfact> 0.15942135E+05</totfact>
</mgrwt>
</event>
<event>
 8    1  0.1226832E-020  0.8016473E+02  0.7818608E-02  0.1328585E+00
         -1   -1    0    0    0  501 -0.00000000000E+00  0.00000000000E+00  0.47323769008E+02  0.47323769277E+02  0.50400000000E-02 0.  1.
          2   -1    0    0  501    0  0.00000000000E+00 -0.00000000000E+00 -0.33949025771E+02  0.33949025866E+02  0.25500000000E-02 0. -1.
         24    2    1    2    0    0  0.00000000000E+00 -0.44408920985E-15  0.13374743238E+02  0.81272795143E+02  0.80164727117E+02 0.  0.
         66    2    3    3    0    0  0.12364254830E+02  0.27940866134E+01 -0.31832516893E+02  0.34321871296E+02  0.19999999936E+01 0.  0.
        -13    1    3    3    0    0 -0.12364254830E+02 -0.27940866134E+01  0.45207260131E+02  0.46950923847E+02  0.10566000000E+00 0.  1.
         13    1    4    4    0    0  0.86568980927E+01  0.15642171752E+01 -0.23928617799E+02  0.25494677361E+02  0.10566000000E+00 0. -1.
        -13    1    4    4    0    0  0.13367182127E+01  0.28564327053E+00 -0.30290472984E+01  0.33248607835E+01  0.10566000000E+00 0.  1.
         14    1    4    4    0    0  0.23706385250E+01  0.94422616764E+00 -0.48748517963E+01  0.55023331513E+01  0.00000000000E+00 0. -1.
<mgrwt>
<rscale>  0 0.80164727E+02</rscale>
<asrwt>0</asrwt>
<pdfrwt beam="1">  1        2 0.52229271E-02 0.80164727E+02</pdfrwt>
<pdfrwt beam="2">  1       -1 0.72805799E-02 0.80164727E+02</pdfrwt>
<totfact> 0.13710755E+05</totfact>
</mgrwt>
</event>
<event>
 8    1  0.1226832E-020  0.7930319E+02  0.7818608E-02  0.1331041E+00
          2   -1    0    0  501    0  0.00000000000E+00  0.00000000000E+00  0.24660204220E+03  0.24660204221E+03  0.25500000000E-02 0. -1.
         -1   -1    0    0    0  501 -0.00000000000E+00 -0.00000000000E+00 -0.63756511178E+01  0.63756531099E+01  0.50400000000E-02 0.  1.
         24    2    1    2    0    0  0.00000000000E+00  0.00000000000E+00  0.24022639108E+03  0.25297769532E+03  0.79303186308E+02 0.  0.
         66    2    3    3    0    0  0.87200440348E+01 -0.14284252399E+02  0.23477079764E+03  0.23537503364E+03  0.19999998505E+01 0.  0.
        -13    1    3    3    0    0 -0.87200440348E+01  0.14284252399E+02  0.54555934380E+01  0.17602661684E+02  0.10566000000E+00 0.  1.
         13    1    4    4    0    0  0.13875373168E+01 -0.23779468939E+01  0.30362102894E+02  0.30486855322E+02  0.10566000000E+00 0. -1.
        -13    1    4    4    0    0  0.48650006149E+01 -0.75570728436E+01  0.13653678585E+03  0.13683231575E+03  0.10566000000E+00 0.  1.
         14    1    4    4    0    0  0.24675061030E+01 -0.43492326617E+01  0.67871908902E+02  0.68055862562E+02  0.00000000000E+00 0. -1.
<mgrwt>
<rscale>  0 0.79303186E+02</rscale>
<asrwt>0</asrwt>
<pdfrwt beam="1">  1        2 0.37938773E-01 0.79303186E+02</pdfrwt>
<pdfrwt beam="2">  1       -1 0.98086964E-03 0.79303186E+02</pdfrwt>
<totfact> 0.24304198E+05</totfact>
</mgrwt>
</event>
<event>
 8    1  0.1226832E-020  0.7859589E+02  0.7818608E-02  0.1333084E+00
         -1   -1    0    0    0  501 -0.00000000000E+00  0.00000000000E+00  0.50871963049E+02  0.50871963299E+02  0.50400000000E-02 0.  1.
          2   -1    0    0  501    0  0.00000000000E+00 -0.00000000000E+00 -0.30357162129E+02  0.30357162236E+02  0.25500000000E-02 0. -1.
         24    2    1    2    0    0  0.00000000000E+00  0.00000000000E+00  0.20514800920E+02  0.81229125535E+02  0.78595889068E+02 0.  0.
         66    2    3    3    0    0 -0.12398890873E+02  0.11090681451E+02 -0.26502966886E+02  0.31355110623E+02  0.19999996152E+01 0.  0.
        -13    1    3    3    0    0  0.12398890873E+02 -0.11090681451E+02  0.47017767807E+02  0.49874014912E+02  0.10566000000E+00 0.  1.
         13    1    4    4    0    0 -0.81297383871E+01  0.70423739628E+01 -0.18392230733E+02  0.21306641984E+02  0.10566000000E+00 0. -1.
        -13    1    4    4    0    0 -0.27016278290E+01  0.30171698974E+01 -0.57197086621E+01  0.70091610291E+01  0.10566000000E+00 0.  1.
         14    1    4    4    0    0 -0.15675246568E+01  0.10311375906E+01 -0.23910274912E+01  0.30393076093E+01  0.00000000000E+00 0. -1.
<mgrwt>
<rscale>  0 0.78595889E+02</rscale>
<asrwt>0</asrwt>
<pdfrwt beam="1">  1        2 0.46703327E-02 0.78595889E+02</pdfrwt>
<pdfrwt beam="2">  1       -1 0.78264558E-02 0.78595889E+02</pdfrwt>
<totfact> 0.14171465E+05</totfact>
</mgrwt>
</event>
<event>
 8    1  0.1226832E-020  0.7821437E+02  0.7818608E-02  0.1334197E+00
          2   -1    0    0  501    0  0.00000000000E+00  0.00000000000E+00  0.17361905357E+03  0.17361905358E+03  0.25500000000E-02 0. -1.
         -1   -1    0    0    0  501 -0.00000000000E+00 -0.00000000000E+00 -0.88087774740E+01  0.88087789159E+01  0.50400000000E-02 0.  1.
         24    2    1    2    0    0  0.00000000000E+00  0.00000000000E+00  0.16481027609E+03  0.18242783250E+03  0.78214365467E+02 0.  0.
         66    2    3    3    0    0  0.89931573315E+01 -0.16063549525E+02  0.16286616411E+03  0.16391553287E+03  0.20000004680E+01 0.  0.
        -13    1    3    3    0    0 -0.89931573315E+01  0.16063549525E+02  0.19441119804E+01  0.18512299629E+02  0.10566000000E+00 0.  1.
         13    1    4    4    0    0  0.28101524439E+01 -0.64425244909E+01  0.63589808316E+02  0.63977167523E+02  0.10566000000E+00 0.  1.
        -13    1    4    4    0    0  0.26207860369E+01 -0.39403273469E+01  0.36780876669E+02  0.37084211622E+02  0.10566000000E+00 0. -1.
         14    1    4    4    0    0  0.35622188507E+01 -0.56806976876E+01  0.62495479126E+02  0.62854153726E+02  0.00000000000E+00 0. -1.
<mgrwt>
<rscale>  0 0.78214365E+02</rscale>
<asrwt>0</asrwt>
<pdfrwt beam="1">  1        2 0.26710624E-01 0.78214365E+02</pdfrwt>
<pdfrwt beam="2">  1       -1 0.13551966E-02 0.78214365E+02</pdfrwt>
<totfact> 0.22308662E+05</totfact>
</mgrwt>
</event>
<event>
 8    1  0.1226832E-020  0.7758656E+02  0.7818608E-02  0.1336043E+00
         -1   -1    0    0    0  501 -0.00000000000E+00  0.00000000000E+00  0.10723031379E+02  0.10723032563E+02  0.50400000000E-02 0.  1.
          2   -1    0    0  501    0  0.00000000000E+00 -0.00000000000E+00 -0.14034449054E+03  0.14034449057E+03  0.25500000000E-02 0. -1.
         24    2    1    2    0    0 -0.17763568394E-14 -0.71054273576E-14 -0.12962145916E+03  0.15106752313E+03  0.77586557268E+02 0.  0.
         66    2    3    3    0    0  0.12487474867E+02  0.36691343412E+02 -0.66507938345E+02  0.77003230895E+02  0.19999988846E+01 0.  0.
        -13    1    3    3    0    0 -0.12487474867E+02 -0.36691343412E+02 -0.63113520818E+02  0.74064292233E+02  0.10566000000E+00 0.  1.
         13    1    4    4    0    0  0.13074420116E+01  0.38440060858E+01 -0.61648484766E+01  0.73825678579E+01  0.10566000000E+00 0. -1.
        -13    1    4    4    0    0  0.17946169415E+01  0.42730761936E+01 -0.86943813638E+01  0.98530838552E+01  0.10566000000E+00 0.  1.
         14    1    4    4    0    0  0.93854159134E+01  0.28574261132E+02 -0.51648708505E+02  0.59767579182E+02  0.00000000000E+00 0. -1.
<mgrwt>
<rscale>  0 0.77586557E+02</rscale>
<asrwt>0</asrwt>
<pdfrwt beam="1">  1        2 0.21591459E-01 0.77586557E+02</pdfrwt>
<pdfrwt beam="2">  1       -1 0.16496973E-02 0.77586557E+02</pdfrwt>
<totfact> 0.21269312E+05</totfact>
</mgrwt>
</event>
<event>
 8    1  0.1226832E-020  0.7827909E+02  0.7818608E-02  0.1334007E+00
         -1   -1    0    0    0  501 -0.00000000000E+00  0.00000000000E+00  0.55080268253E+01  0.55080291311E+01  0.50400000000E-02 0.  1.
          2   -1    0    0  501    0  0.00000000000E+00 -0.00000000000E+00 -0.27812201572E+03  0.27812201573E+03  0.25500000000E-02 0. -1.
         24    2    1    2    0    0  0.00000000000E+00  0.00000000000E+00 -0.27261398889E+03  0.28363004486E+03  0.78279086656E+02 0.  0.
         66    2    3    3    0    0  0.34403272196E+01  0.13872336280E+02 -0.26831742199E+03  0.26870525955E+03  0.20000006796E+01 0.  0.
        -13    1    3    3    0    0 -0.34403272196E+01 -0.13872336280E+02 -0.42965668999E+01  0.14924785305E+02  0.10566000000E+00 0.  1.
         13    1    4    4    0    0  0.26138301117E+01  0.91597263208E+01 -0.19179270435E+03  0.19202912617E+03  0.10566000000E+00 0. -1.
        -13    1    4    4    0    0  0.11617963588E+00  0.68364699301E+00 -0.87639447345E+01  0.87919714663E+01  0.10566000000E+00 0.  1.
         14    1    4    4    0    0  0.71031747203E+00  0.40289629664E+01 -0.67760772910E+02  0.67884161914E+02  0.00000000000E+00 0. -1.
<mgrwt>
<rscale>  0 0.78279087E+02</rscale>
<asrwt>0</asrwt>
<pdfrwt beam="1">  1        2 0.42787991E-01 0.78279087E+02</pdfrwt>
<pdfrwt beam="2">  1       -1 0.84738914E-03 0.78279087E+02</pdfrwt>
<totfact> 0.26259900E+05</totfact>
</mgrwt>
</event>
<event>
 8    1  0.1226832E-020  0.7914685E+02  0.7818608E-02  0.1331490E+00
         -1   -1    0    0    0  501 -0.00000000000E+00  0.00000000000E+00  0.68717632626E+01  0.68717651109E+01  0.50400000000E-02 0.  1.
          2   -1    0    0  501    0  0.00000000000E+00 -0.00000000000E+00 -0.22789721917E+03  0.22789721919E+03  0.25500000000E-02 0. -1.
         24    2    1    2    0    0  0.00000000000E+00  0.00000000000E+00 -0.22102545591E+03  0.23476898430E+03  0.79146849767E+02 0.  0.
         66    2    3    3    0    0  0.17461585686E+02  0.15217174971E+02 -0.20566880809E+03  0.20697856895E+03  0.19999987309E+01 0.  0.
        -13    1    3    3    0    0 -0.17461585686E+02 -0.15217174971E+02 -0.15356647817E+02  0.27790415344E+02  0.10566000000E+00 0.  1.
         13    1    4    4    0    0  0.10846217516E+01  0.14833559555E+01 -0.17786870585E+02  0.17881853329E+02  0.10566000000E+00 0. -1.
        -13    1    4    4    0    0  0.14664403579E+02  0.12155290373E+02 -0.16999357258E+03  0.17105736377E+03  0.10566000000E+00 0.  1.
        -14    1    4    4    0    0  0.17125603553E+01  0.15785286425E+01 -0.17888364924E+02  0.18039351853E+02  0.00000000000E+00 0.  1.
<mgrwt>
<rscale>  0 0.79146850E+02</rscale>
<asrwt>0</asrwt>
<pdfrwt beam="1">  1        2 0.35061105E-01 0.79146850E+02</pdfrwt>
<pdfrwt beam="2">  1       -1 0.10571947E-02 0.79146850E+02</pdfrwt>
<totfact> 0.23754364E+05</totfact>
</mgrwt>
</event>
<event>
 8    1  0.1226832E-020  0.7987269E+02  0.7818608E-02  0.1329413E+00
          2   -1    0    0  501    0  0.00000000000E+00  0.00000000000E+00  0.52256108652E+03  0.52256108653E+03  0.25500000000E-02 0. -1.
         -1   -1    0    0    0  501 -0.00000000000E+00 -0.00000000000E+00 -0.30521033122E+01  0.30521074735E+01  0.50400000000E-02 0.  1.
         24    2    1    2    0    0  0.00000000000E+00  0.35527136788E-14  0.51950898321E+03  0.52561319400E+03  0.79872686652E+02 0.  0.
         66    2    3    3    0    0  0.31375170625E+02 -0.23520261368E+02  0.30885425460E+03  0.31133993417E+03  0.20000004513E+01 0.  0.
        -13    1    3    3    0    0 -0.31375170625E+02  0.23520261368E+02  0.21065472861E+03  0.21427325983E+03  0.10566000000E+00 0.  1.
         13    1    4    4    0    0  0.59208852586E+01 -0.43235873077E+01  0.53912146942E+02  0.54408464795E+02  0.10566000000E+00 0. -1.
        -13    1    4    4    0    0  0.61000630878E+01 -0.42104678816E+01  0.55500801599E+02  0.55993650994E+02  0.10566000000E+00 0.  1.
        -14    1    4    4    0    0  0.19354222279E+02 -0.14986206178E+02  0.19944130606E+03  0.20093781838E+03  0.00000000000E+00 0.  1.
<mgrwt>
<rscale>  0 0.79872687E+02</rscale>
<asrwt>0</asrwt>
<pdfrwt beam="1">  1        2 0.80394020E-01 0.79872687E+02</pdfrwt>
<pdfrwt beam="2">  1       -1 0.46955464E-03 0.79872687E+02</pdfrwt>
<totfact> 0.31005312E+05</totfact>
</mgrwt>
</event>
<event>
 8    1  0.1226832E-020  0.7011159E+02  0.7818608E-02  0.1359714E+00
         -1   -1    0    0    0  501 -0.00000000000E+00  0.00000000000E+00  0.11502527933E+02  0.11502529037E+02  0.50400000000E-02 0.  1.
          2   -1    0    0  501    0  0.00000000000E+00 -0.00000000000E+00 -0.10683813210E+03  0.10683813213E+03  0.25500000000E-02 0. -1.
         24    2    1    2    0    0  0.00000000000E+00  0.88817841970E-15 -0.95335604171E+02  0.11834066117E+03  0.70111587230E+02 0.  0.
         66    2    3    3    0    0 -0.20584039208E+02 -0.69929155357E+01 -0.94063592236E+02  0.96563776265E+02  0.19999911267E+01 0.  0.
        -13    1    3    3    0    0  0.20584039208E+02  0.69929155357E+01 -0.12720119350E+01  0.21776884906E+02  0.10566000000E+00 0.  1.
         13    1    4    4    0    0 -0.62882041576E+01 -0.26839475414E+01 -0.31667358814E+02  0.32397189141E+02  0.10566000000E+00 0. -1.
        -13    1    4    4    0    0 -0.46724907238E+01 -0.11091029445E+01 -0.21779560040E+02  0.22302974656E+02  0.10566000000E+00 0.  1.
         14    1    4    4    0    0 -0.96233443271E+01 -0.31998650497E+01 -0.40616673381E+02  0.41863612469E+02  0.00000000000E+00 0. -1.
<mgrwt>
<rscale>  0 0.70111587E+02</rscale>
<asrwt>0</asrwt>
<pdfrwt beam="1">  1        2 0.16436635E-01 0.70111587E+02</pdfrwt>
<pdfrwt beam="2">  1       -1 0.17696198E-02 0.70111587E+02</pdfrwt>
<totfact> 0.25624013E+05</totfact>
</mgrwt>
</event>
<event>
 8    1  0.1226832E-020  0.8096970E+02  0.7818608E-02  0.1326322E+00
         -1   -1    0    0    0  501 -0.00000000000E+00  0.00000000000E+00  0.18227184290E+03  0.18227184297E+03  0.50400000000E-02 0.  1.
          2   -1    0    0  501    0  0.00000000000E+00 -0.00000000000E+00 -0.89921899028E+01  0.89921902643E+01  0.25500000000E-02 0. -1.
         24    2    1    2    0    0  0.00000000000E+00  0.00000000000E+00  0.17327965300E+03  0.19126403324E+03  0.80969699680E+02 0.  0.
         66    2    3    3    0    0  0.35173764922E+02  0.16391615716E+02  0.59641923931E+02  0.71183129524E+02  0.20000085247E+01 0.  0.
        -13    1    3    3    0    0 -0.35173764922E+02 -0.16391615716E+02  0.11363772907E+03  0.12008090371E+03  0.10566000000E+00 0.  1.
         13    1    4    4    0    0  0.10634316073E+02  0.56429295419E+01  0.18080077266E+02  0.21721687092E+02  0.10566000000E+00 0. -1.
        -13    1    4    4    0    0  0.78371261673E+01  0.39512019220E+01  0.14059662454E+02  0.16574613587E+02  0.10566000000E+00 0.  1.
         14    1    4    4    0    0  0.16702322681E+02  0.67974842515E+01  0.27502184211E+02  0.32886828845E+02  0.00000000000E+00 0. -1.
<mgrwt>
<rscale>  0 0.80969700E+02</rscale>
<asrwt>0</asrwt>
<pdfrwt beam="1">  1        2 0.13834139E-02 0.80969700E+02</pdfrwt>
<pdfrwt beam="2">  1       -1 0.28041821E-01 0.80969700E+02</pdfrwt>
<totfact> 0.99272558E+04</totfact>
</mgrwt>
</event>
<event>
 8    1  0.1226832E-020  0.7995891E+02  0.7818608E-02  0.1329168E+00
          2   -1    0    0  501    0  0.00000000000E+00  0.00000000000E+00  0.50613703778E+03  0.50613703779E+03  0.25500000000E-02 0. -1.
         -1   -1    0    0    0  501 -0.00000000000E+00 -0.00000000000E+00 -0.31579509372E+01  0.31579549590E+01  0.50400000000E-02 0.  1.
         24    2    1    2    0    0  0.00000000000E+00  0.35527136788E-14  0.50297908684E+03  0.50929499275E+03  0.79958913414E+02 0.  0.
         66    2    3    3    0    0  0.31381627698E+02 -0.22419329726E+02  0.31812086347E+03  0.32045641932E+03  0.20000008653E+01 0.  0.
        -13    1    3    3    0    0 -0.31381627698E+02  0.22419329726E+02  0.18485822337E+03  0.18883857343E+03  0.10566000000E+00 0.  1.
         13    1    4    4    0    0  0.78031836031E+01 -0.50802569671E+01  0.82042843920E+02  0.82569595419E+02  0.10566000000E+00 0. -1.
        -13    1    4    4    0    0  0.11656218054E+02 -0.87463336481E+01  0.11434083535E+03  0.11526579529E+03  0.10566000000E+00 0.  1.
         14    1    4    4    0    0  0.11922226041E+02 -0.85927391110E+01  0.12173718421E+03  0.12262102861E+03  0.00000000000E+00 0. -1.
<mgrwt>
<rscale>  0 0.79958913E+02</rscale>
<asrwt>0</asrwt>
<pdfrwt beam="1">  1        2 0.77867190E-01 0.79958913E+02</pdfrwt>
<pdfrwt beam="2">  1       -1 0.48583921E-03 0.79958913E+02</pdfrwt>
<totfact> 0.30610469E+05</totfact>
</mgrwt>
</event>
<event>
 8    1  0.1226832E-020  0.8234709E+02  0.7818608E-02  0.1322520E+00
         -1   -1    0    0    0  501 -0.00000000000E+00  0.00000000000E+00  0.25183545869E+02  0.25183546373E+02  0.50400000000E-02 0.  1.
          2   -1    0    0  501    0  0.00000000000E+00 -0.00000000000E+00 -0.67316199644E+02  0.67316199692E+02  0.25500000000E-02 0. -1.
         24    2    1    2    0    0  0.71054273576E-14 -0.22204460493E-15 -0.42132653775E+02  0.92499746066E+02  0.82347085608E+02 0.  0.
         66    2    3    3    0    0  0.40410960930E+02 -0.12886559157E+01 -0.29673857546E+02  0.50192073418E+02  0.20000037380E+01 0.  0.
        -13    1    3    3    0    0 -0.40410960930E+02  0.12886559157E+01 -0.12458796229E+02  0.42307672648E+02  0.10566000000E+00 0.  1.
         13    1    4    4    0    0  0.28128016776E+02 -0.79769254483E+00 -0.21374764270E+02  0.35337138435E+02  0.10566000000E+00 0. -1.
        -13    1    4    4    0    0  0.19063454580E+01 -0.22642943453E+00 -0.15959214255E+01  0.24987101724E+01  0.10566000000E+00 0.  1.
        -14    1    4    4    0    0  0.10376598696E+02 -0.26453393631E+00 -0.67031718509E+01  0.12356224811E+02  0.00000000000E+00 0.  1.
<mgrwt>
<rscale>  0 0.82347086E+02</rscale>
<asrwt>0</asrwt>
<pdfrwt beam="1">  1        2 0.10356338E-01 0.82347086E+02</pdfrwt>
<pdfrwt beam="2">  1       -1 0.38743918E-02 0.82347086E+02</pdfrwt>
<totfact> 0.14786365E+05</totfact>
</mgrwt>
</event>
<event>
 8    1  0.1226832E-020  0.8020050E+02  0.7818608E-02  0.1328483E+00
          2   -1    0    0  501    0  0.00000000000E+00  0.00000000000E+00  0.15553078895E+02  0.15553079104E+02  0.25500000000E-02 0. -1.
         -1   -1    0    0    0  501 -0.00000000000E+00 -0.00000000000E+00 -0.10338982969E+03  0.10338982982E+03  0.50400000000E-02 0.  1.
         24    2    1    2    0    0  0.00000000000E+00 -0.17763568394E-14 -0.87836750799E+02  0.11894290892E+03  0.80200503686E+02 0.  0.
         66    2    3    3    0    0  0.32029098151E+02 -0.93499793684E+01 -0.11024811968E+02  0.35197041240E+02  0.19999976383E+01 0.  0.
        -13    1    3    3    0    0 -0.32029098151E+02  0.93499793684E+01 -0.76811938831E+02  0.83745867680E+02  0.10566000000E+00 0.  1.
         13    1    4    4    0    0  0.45150014526E+01 -0.15212948752E+01 -0.95337729233E+00  0.48600070484E+01  0.10566000000E+00 0. -1.
        -13    1    4    4    0    0  0.26089945080E+01 -0.63794608897E+00 -0.11311765181E+01  0.29162564884E+01  0.10566000000E+00 0.  1.
         14    1    4    4    0    0  0.24905102190E+02 -0.71907384042E+01 -0.89402581579E+01  0.27420777703E+02  0.00000000000E+00 0. -1.
<mgrwt>
<rscale>  0 0.80200504E+02</rscale>
<asrwt>0</asrwt>
<pdfrwt beam="1">  1        2 0.23927814E-02 0.80200504E+02</pdfrwt>
<pdfrwt beam="2">  1       -1 0.15906127E-01 0.80200504E+02</pdfrwt>
<totfact> 0.11694886E+05</totfact>
</mgrwt>
</event>
<event>
 8    1  0.1226832E-020  0.7948824E+02  0.7818608E-02  0.1330510E+00
         -1   -1    0    0    0  501 -0.00000000000E+00  0.00000000000E+00  0.10677465398E+01  0.10677584347E+01  0.50400000000E-02 0.  1.
          2   -1    0    0  501    0  0.00000000000E+00 -0.00000000000E+00 -0.14793643876E+04  0.14793643876E+04  0.25500000000E-02 0. -1.
         24    2    1    2    0    0 -0.17763568394E-14  0.00000000000E+00 -0.14782966410E+04  0.14804321460E+04  0.79488238434E+02 0.  0.
         66    2    3    3    0    0  0.15063808230E+02 -0.89088900177E+00 -0.14238934635E+04  0.14239748268E+04  0.19999963082E+01 0.  0.
        -13    1    3    3    0    0 -0.15063808230E+02  0.89088900177E+00 -0.54403177525E+02  0.56457319193E+02  0.10566000000E+00 0.  1.
         13    1    4    4    0    0  0.62125574408E+01 -0.65177744881E+00 -0.57876442405E+03  0.57879814304E+03  0.10566000000E+00 0. -1.
        -13    1    4    4    0    0  0.33846828424E+01  0.18284203030E+00 -0.38633825568E+03  0.38635313959E+03  0.10566000000E+00 0.  1.
        -14    1    4    4    0    0  0.54665679467E+01 -0.42195358326E+00 -0.45879078380E+03  0.45882354420E+03  0.00000000000E+00 0.  1.
<mgrwt>
<rscale>  0 0.79488238E+02</rscale>
<asrwt>0</asrwt>
<pdfrwt beam="1">  1        2 0.22759288E+00 0.79488238E+02</pdfrwt>
<pdfrwt beam="2">  1       -1 0.16427080E-03 0.79488238E+02</pdfrwt>
<totfact> 0.33982841E+05</totfact>
</mgrwt>
</event>
<event>
 8    1  0.1226832E-020  0.8055294E+02  0.7818608E-02  0.1327490E+00
         -1   -1    0    0    0  501 -0.00000000000E+00  0.00000000000E+00  0.12306014946E+03  0.12306014956E+03  0.50400000000E-02 0.  1.
          2   -1    0    0  501    0  0.00000000000E+00 -0.00000000000E+00 -0.13182123684E+02  0.13182123930E+02  0.25500000000E-02 0. -1.
         24    2    1    2    0    0  0.00000000000E+00  0.00000000000E+00  0.10987802578E+03  0.13624227349E+03  0.80552942455E+02 0.  0.
         66    2    3    3    0    0  0.28545575151E+02  0.22571781715E+02  0.25881080093E+02  0.44700844410E+02  0.19999984201E+01 0.  0.
        -13    1    3    3    0    0 -0.28545575151E+02 -0.22571781715E+02  0.83996945684E+02  0.91541429084E+02  0.10566000000E+00 0.  1.
         13    1    4    4    0    0  0.10638313997E+02  0.86164032895E+01  0.10549867020E+02  0.17283720332E+02  0.10566000000E+00 0. -1.
        -13    1    4    4    0    0  0.61637015071E+01  0.42896020808E+01  0.46878617351E+01  0.88531979512E+01  0.10566000000E+00 0.  1.
         14    1    4    4    0    0  0.11743559647E+02  0.96657763443E+01  0.10643351338E+02  0.18563926126E+02  0.00000000000E+00 0. -1.
<mgrwt>
<rscale>  0 0.80552942E+02</rscale>
<asrwt>0</asrwt>
<pdfrwt beam="1">  1        2 0.20280190E-02 0.80552942E+02</pdfrwt>
<pdfrwt beam="2">  1       -1 0.18932331E-01 0.80552942E+02</pdfrwt>
<totfact> 0.11124440E+05</totfact>
</mgrwt>
</event>
<event>
 8    1  0.1226832E-020  0.7947626E+02  0.7818608E-02  0.1330544E+00
          2   -1    0    0  501    0  0.00000000000E+00  0.00000000000E+00  0.12416225305E+03  0.12416225308E+03  0.25500000000E-02 0. -1.
         -1   -1    0    0    0  501 -0.00000000000E+00 -0.00000000000E+00 -0.12718187433E+02  0.12718188432E+02  0.50400000000E-02 0.  1.
         24    2    1    2    0    0  0.00000000000E+00  0.00000000000E+00  0.11144406562E+03  0.13688044151E+03  0.79476257501E+02 0.  0.
         66    2    3    3    0    0 -0.33700413943E+02 -0.63683649237E+01  0.90238986264E+02  0.96557488665E+02  0.20000008792E+01 0.  0.
        -13    1    3    3    0    0  0.33700413943E+02  0.63683649237E+01  0.21205079355E+02  0.40322952846E+02  0.10566000000E+00 0.  1.
         13    1    4    4    0    0 -0.21200346889E+02 -0.47101678223E+01  0.57033487489E+02  0.61028438030E+02  0.10566000000E+00 0. -1.
        -13    1    4    4    0    0 -0.11945966979E+02 -0.17522233686E+01  0.31620377085E+02  0.33847242500E+02  0.10566000000E+00 0.  1.
         14    1    4    4    0    0 -0.55410007432E+00  0.94026267300E-01  0.15851216896E+01  0.16818081348E+01  0.00000000000E+00 0. -1.
<mgrwt>
<rscale>  0 0.79476258E+02</rscale>
<asrwt>0</asrwt>
<pdfrwt beam="1">  1        2 0.19101885E-01 0.79476258E+02</pdfrwt>
<pdfrwt beam="2">  1       -1 0.19566443E-02 0.79476258E+02</pdfrwt>
<totfact> 0.19212685E+05</totfact>
</mgrwt>
</event>
<event>
 8    1  0.1226832E-020  0.8959396E+02  0.7818608E-02  0.1303838E+00
         -1   -1    0    0    0  501 -0.00000000000E+00  0.00000000000E+00  0.68571311140E+02  0.68571311325E+02  0.50400000000E-02 0.  1.
          2   -1    0    0  501    0  0.00000000000E+00 -0.00000000000E+00 -0.29265438984E+02  0.29265439095E+02  0.25500000000E-02 0. -1.
         24    2    1    2    0    0  0.00000000000E+00  0.35527136788E-14  0.39305872156E+02  0.97836750420E+02  0.89593962669E+02 0.  0.
         66    2    3    3    0    0  0.30509993094E+02  0.31792324652E+02  0.10984698902E+02  0.45456299831E+02  0.19999997656E+01 0.  0.
        -13    1    3    3    0    0 -0.30509993094E+02 -0.31792324652E+02  0.28321173254E+02  0.52380450588E+02  0.10566000000E+00 0.  1.
         13    1    4    4    0    0  0.87060798112E+01  0.80577076403E+01  0.31513629087E+01  0.12274556217E+02  0.10566000000E+00 0. -1.
        -13    1    4    4    0    0  0.10044881160E+02  0.10846477910E+02  0.40759497043E+01  0.15335261673E+02  0.10566000000E+00 0.  1.
         14    1    4    4    0    0  0.11759032122E+02  0.12888139102E+02  0.37573862887E+01  0.17846481941E+02  0.00000000000E+00 0. -1.
<mgrwt>
<rscale>  0 0.89593963E+02</rscale>
<asrwt>0</asrwt>
<pdfrwt beam="1">  1        2 0.45023753E-02 0.89593963E+02</pdfrwt>
<pdfrwt beam="2">  1       -1 0.10549433E-01 0.89593963E+02</pdfrwt>
<totfact> 0.97120571E+04</totfact>
</mgrwt>
</event>
<event>
 8    1  0.1226832E-020  0.7542137E+02  0.7818608E-02  0.1342571E+00
          2   -1    0    0  501    0  0.00000000000E+00  0.00000000000E+00  0.27529644660E+02  0.27529644778E+02  0.25500000000E-02 0. -1.
         -1   -1    0    0    0  501 -0.00000000000E+00 -0.00000000000E+00 -0.51656892610E+02  0.51656892856E+02  0.50400000000E-02 0.  1.
         24    2    1    2    0    0  0.00000000000E+00 -0.35527136788E-14 -0.24127247951E+02  0.79186537634E+02  0.75421373952E+02 0.  0.
         66    2    3    3    0    0 -0.66461165010E+01  0.20522107521E+02  0.20369703477E+02  0.29736384833E+02  0.20000003778E+01 0.  0.
        -13    1    3    3    0    0  0.66461165010E+01 -0.20522107521E+02 -0.44496951428E+02  0.49450152801E+02  0.10566000000E+00 0.  1.
         13    1    4    4    0    0 -0.29421575942E+01  0.80700063912E+01  0.78792709895E+01  0.11656559090E+02  0.10566000000E+00 0. -1.
        -13    1    4    4    0    0 -0.24635842838E+01  0.98939051790E+01  0.92264441504E+01  0.13751256048E+02  0.10566000000E+00 0.  1.
        -14    1    4    4    0    0 -0.12403746229E+01  0.25581959508E+01  0.32639883374E+01  0.43285696939E+01  0.00000000000E+00 0.  1.
<mgrwt>
<rscale>  0 0.75421374E+02</rscale>
<asrwt>0</asrwt>
<pdfrwt beam="1">  1        2 0.42353299E-02 0.75421374E+02</pdfrwt>
<pdfrwt beam="2">  1       -1 0.79472143E-02 0.75421374E+02</pdfrwt>
<totfact> 0.15604178E+05</totfact>
</mgrwt>
</event>
<event>
 8    1  0.1226832E-020  0.8136856E+02  0.7818608E-02  0.1325212E+00
         -1   -1    0    0    0  501 -0.00000000000E+00  0.00000000000E+00  0.22553275751E+02  0.22553276314E+02  0.50400000000E-02 0.  1.
          2   -1    0    0  501    0  0.00000000000E+00 -0.00000000000E+00 -0.73391131753E+02  0.73391131798E+02  0.25500000000E-02 0. -1.
         24    2    1    2    0    0 -0.44408920985E-15  0.00000000000E+00 -0.50837856002E+02  0.95944408112E+02  0.81368555629E+02 0.  0.
         66    2    3    3    0    0 -0.37567182204E+01 -0.40466170751E+02 -0.23951358578E+02  0.47215373494E+02  0.20000023645E+01 0.  0.
        -13    1    3    3    0    0  0.37567182204E+01  0.40466170751E+02 -0.26886497424E+02  0.48729034618E+02  0.10566000000E+00 0.  1.
         13    1    4    4    0    0 -0.15234217752E+00 -0.29102903221E+01 -0.20957159022E+01  0.35911261571E+01  0.10566000000E+00 0. -1.
        -13    1    4    4    0    0 -0.40291866717E-01 -0.20663615858E+00 -0.14351540022E+00  0.27583082181E+00  0.10566000000E+00 0. -1.
         14    1    4    4    0    0 -0.35640841762E+01 -0.37349244270E+02 -0.21712127275E+02  0.43348416515E+02  0.00000000000E+00 0. -1.
<mgrwt>
<rscale>  0 0.81368556E+02</rscale>
<asrwt>0</asrwt>
<pdfrwt beam="1">  1        2 0.11290943E-01 0.81368556E+02</pdfrwt>
<pdfrwt beam="2">  1       -1 0.34697348E-02 0.81368556E+02</pdfrwt>
<totfact> 0.15602991E+05</totfact>
</mgrwt>
</event>
<event>
 8    1  0.1226832E-020  0.7935266E+02  0.7818608E-02  0.1330899E+00
          2   -1    0    0  501    0  0.00000000000E+00  0.00000000000E+00  0.84588653266E+02  0.84588653304E+02  0.25500000000E-02 0. -1.
         -1   -1    0    0    0  501 -0.00000000000E+00 -0.00000000000E+00 -0.18610194861E+02  0.18610195544E+02  0.50400000000E-02 0.  1.
         24    2    1    2    0    0  0.00000000000E+00  0.00000000000E+00  0.65978458405E+02  0.10319884885E+03  0.79352664921E+02 0.  0.
         66    2    3    3    0    0  0.36606529792E+01 -0.97498257446E+01  0.82766227021E+02  0.83442841624E+02  0.20000001936E+01 0.  0.
        -13    1    3    3    0    0 -0.36606529792E+01  0.97498257446E+01 -0.16787768616E+02  0.19756007224E+02  0.10566000000E+00 0.  1.
         13    1    4    4    0    0  0.92629500811E+00 -0.35624200448E+01  0.33814611898E+02  0.34014526322E+02  0.10566000000E+00 0. -1.
        -13    1    4    4    0    0  0.53042779210E+00 -0.52697322823E+00  0.66662854481E+01  0.67089179557E+01  0.10566000000E+00 0. -1.
         14    1    4    4    0    0  0.22039301790E+01 -0.56604324715E+01  0.42285329674E+02  0.42719397347E+02  0.00000000000E+00 0. -1.
<mgrwt>
<rscale>  0 0.79352665E+02</rscale>
<asrwt>0</asrwt>
<pdfrwt beam="1">  1        2 0.13013639E-01 0.79352665E+02</pdfrwt>
<pdfrwt beam="2">  1       -1 0.28631070E-02 0.79352665E+02</pdfrwt>
<totfact> 0.17313473E+05</totfact>
</mgrwt>
</event>
<event>
 8    1  0.1226832E-020  0.7765388E+02  0.7818608E-02  0.1335844E+00
          2   -1    0    0  501    0  0.00000000000E+00  0.00000000000E+00  0.29146455798E+02  0.29146455909E+02  0.25500000000E-02 0. -1.
         -1   -1    0    0    0  501 -0.00000000000E+00 -0.00000000000E+00 -0.51722632553E+02  0.51722632799E+02  0.50400000000E-02 0.  1.
         24    2    1    2    0    0  0.00000000000E+00  0.17763568394E-14 -0.22576176756E+02  0.80869088708E+02  0.77653884330E+02 0.  0.
         66    2    3    3    0    0 -0.33630945007E+02  0.53230030778E+01  0.80799300919E+01  0.35052248192E+02  0.20000023092E+01 0.  0.
        -13    1    3    3    0    0  0.33630945007E+02 -0.53230030778E+01 -0.30656106848E+02  0.45816840516E+02  0.10566000000E+00 0.  1.
         13    1    4    4    0    0 -0.39803836789E+01  0.72974224091E+00  0.12838282267E+01  0.42468054960E+01  0.10566000000E+00 0. -1.
        -13    1    4    4    0    0 -0.43148529744E+00 -0.87584853790E-01  0.14640323006E+00  0.47586616805E+00  0.10566000000E+00 0. -1.
         14    1    4    4    0    0 -0.29219076030E+02  0.46808456906E+01  0.66496986351E+01  0.30329576528E+02  0.00000000000E+00 0. -1.
<mgrwt>
<rscale>  0 0.77653884E+02</rscale>
<asrwt>0</asrwt>
<pdfrwt beam="1">  1        2 0.44840701E-02 0.77653884E+02</pdfrwt>
<pdfrwt beam="2">  1       -1 0.79573281E-02 0.77653884E+02</pdfrwt>
<totfact> 0.14541624E+05</totfact>
</mgrwt>
</event>
<event>
 8    1  0.1226832E-020  0.7864947E+02  0.7818608E-02  0.1332928E+00
         -1   -1    0    0    0  501 -0.00000000000E+00  0.00000000000E+00  0.10071457744E+03  0.10071457756E+03  0.50400000000E-02 0.  1.
          2   -1    0    0  501    0  0.00000000000E+00 -0.00000000000E+00 -0.15354628148E+02  0.15354628360E+02  0.25500000000E-02 0. -1.
         24    2    1    2    0    0 -0.35527136788E-14  0.35527136788E-14  0.85359949287E+02  0.11606920592E+03  0.78649473112E+02 0.  0.
         66    2    3    3    0    0 -0.17538498751E+02  0.17645086452E+02  0.87603240525E+02  0.91089383384E+02  0.20000001542E+01 0.  0.
        -13    1    3    3    0    0  0.17538498751E+02 -0.17645086452E+02 -0.22432912375E+01  0.24979822536E+02  0.10566000000E+00 0.  1.
         13    1    4    4    0    0 -0.54392424353E+01  0.43358898801E+01  0.23657014334E+02  0.24658685905E+02  0.10566000000E+00 0. -1.
        -13    1    4    4    0    0 -0.34766820775E+00  0.40785765866E+00  0.18795029241E+01  0.19572726764E+01  0.10566000000E+00 0. -1.
         14    1    4    4    0    0 -0.11751588108E+02  0.12901338913E+02  0.62066723266E+02  0.64473424803E+02  0.00000000000E+00 0. -1.
<mgrwt>
<rscale>  0 0.78649473E+02</rscale>
<asrwt>0</asrwt>
<pdfrwt beam="1">  1        2 0.23622505E-02 0.78649473E+02</pdfrwt>
<pdfrwt beam="2">  1       -1 0.15494551E-01 0.78649473E+02</pdfrwt>
<totfact> 0.12348137E+05</totfact>
</mgrwt>
</event>
<event>
 8    1  0.1226832E-020  0.7604711E+02  0.7818608E-02  0.1340659E+00
          2   -1    0    0  501    0  0.00000000000E+00  0.00000000000E+00  0.42877355642E+03  0.42877355643E+03  0.25500000000E-02 0. -1.
         -1   -1    0    0    0  501 -0.00000000000E+00 -0.00000000000E+00 -0.33719191881E+01  0.33719229547E+01  0.50400000000E-02 0.  1.
         24    2    1    2    0    0 -0.17763568394E-14  0.00000000000E+00  0.42540163724E+03  0.43214547939E+03  0.76047106395E+02 0.  0.
         66    2    3    3    0    0 -0.97560722815E+01 -0.89256833113E+01  0.41527399438E+03  0.41548927686E+03  0.20000006649E+01 0.  0.
        -13    1    3    3    0    0  0.97560722815E+01  0.89256833113E+01  0.10127642853E+02  0.16656202530E+02  0.10566000000E+00 0.  1.
         13    1    4    4    0    0 -0.41910372508E+01 -0.41464513404E+01  0.15657377019E+03  0.15668476163E+03  0.10566000000E+00 0. -1.
        -13    1    4    4    0    0 -0.40716268488E+01 -0.36905233540E+01  0.19088979788E+03  0.19096890901E+03  0.10566000000E+00 0. -1.
         14    1    4    4    0    0 -0.14934081819E+01 -0.10887086169E+01  0.67810426308E+02  0.67835606215E+02  0.00000000000E+00 0. -1.
<mgrwt>
<rscale>  0 0.76047106E+02</rscale>
<asrwt>0</asrwt>
<pdfrwt beam="1">  1        2 0.65965160E-01 0.76047106E+02</pdfrwt>
<pdfrwt beam="2">  1       -1 0.51875711E-03 0.76047106E+02</pdfrwt>
<totfact> 0.33022473E+05</totfact>
</mgrwt>
</event>
<event>
 8    1  0.1226832E-020  0.7944338E+02  0.7818608E-02  0.1330638E+00
          2   -1    0    0  501    0  0.00000000000E+00  0.00000000000E+00  0.81756672686E+02  0.81756672726E+02  0.25500000000E-02 0. -1.
         -1   -1    0    0    0  501 -0.00000000000E+00 -0.00000000000E+00 -0.19298886434E+02  0.19298887092E+02  0.50400000000E-02 0.  1.
         24    2    1    2    0    0 -0.35527136788E-14  0.00000000000E+00  0.62457786252E+02  0.10105555982E+03  0.79443383026E+02 0.  0.
         66    2    3    3    0    0 -0.16994057517E+02  0.26635939966E+02  0.61818403618E+02  0.69453482941E+02  0.19999944722E+01 0.  0.
        -13    1    3    3    0    0  0.16994057517E+02 -0.26635939966E+02  0.63938263398E+00  0.31602076877E+02  0.10566000000E+00 0.  1.
         13    1    4    4    0    0 -0.82775041680E+01  0.14232790849E+02  0.33016404923E+02  0.36894221345E+02  0.10566000000E+00 0. -1.
        -13    1    4    4    0    0 -0.54864066770E+01  0.71999540391E+01  0.17658470875E+02  0.19843708173E+02  0.10566000000E+00 0.  1.
         14    1    4    4    0    0 -0.32301466721E+01  0.52031950781E+01  0.11143527820E+02  0.12715553422E+02  0.00000000000E+00 0. -1.
<mgrwt>
<rscale>  0 0.79443383E+02</rscale>
<asrwt>0</asrwt>
<pdfrwt beam="1">  1        2 0.12577949E-01 0.79443383E+02</pdfrwt>
<pdfrwt beam="2">  1       -1 0.29690596E-02 0.79443383E+02</pdfrwt>
<totfact> 0.17108127E+05</totfact>
</mgrwt>
</event>
<event>
 8    1  0.1226832E-020  0.8043127E+02  0.7818608E-02  0.1327832E+00
          2   -1    0    0  501    0  0.00000000000E+00  0.00000000000E+00  0.13068310063E+04  0.13068310063E+04  0.25500000000E-02 0. -1.
         -1   -1    0    0    0  501 -0.00000000000E+00 -0.00000000000E+00 -0.12375667100E+01  0.12375769727E+01  0.50400000000E-02 0.  1.
         24    2    1    2    0    0 -0.11102230246E-15  0.35527136788E-14  0.13055934396E+04  0.13080685832E+04  0.80431269113E+02 0.  0.
         66    2    3    3    0    0  0.98773485589E+00 -0.20795747579E+02  0.12122965690E+04  0.12124769730E+04  0.19999992142E+01 0.  0.
        -13    1    3    3    0    0 -0.98773485589E+00  0.20795747579E+02  0.93296870510E+02  0.95591610241E+02  0.10566000000E+00 0.  1.
         13    1    4    4    0    0  0.11212748347E+01 -0.15970187504E+02  0.93712154872E+03  0.93725829545E+03  0.10566000000E+00 0. -1.
        -13    1    4    4    0    0 -0.25520169170E+00 -0.47508249424E+01  0.26665551147E+03  0.26669797230E+03  0.10566000000E+00 0.  1.
        -14    1    4    4    0    0  0.12166171285E+00 -0.74735132563E-01  0.85195088632E+01  0.85207052633E+01  0.00000000000E+00 0.  1.
<mgrwt>
<rscale>  0 0.80431269E+02</rscale>
<asrwt>0</asrwt>
<pdfrwt beam="1">  1        2 0.20105074E+00 0.80431269E+02</pdfrwt>
<pdfrwt beam="2">  1       -1 0.19039584E-03 0.80431269E+02</pdfrwt>
<totfact> 0.34101669E+05</totfact>
</mgrwt>
</event>
<event>
 8    1  0.1226832E-020  0.7891623E+02  0.7818608E-02  0.1332155E+00
          2   -1    0    0  501    0  0.00000000000E+00  0.00000000000E+00  0.19188852678E+02  0.19188852848E+02  0.25500000000E-02 0. -1.
         -1   -1    0    0    0  501 -0.00000000000E+00 -0.00000000000E+00 -0.81137883484E+02  0.81137883640E+02  0.50400000000E-02 0.  1.
         24    2    1    2    0    0  0.35527136788E-14  0.00000000000E+00 -0.61949030805E+02  0.10032673649E+03  0.78916231769E+02 0.  0.
         66    2    3    3    0    0  0.29822311306E+02  0.30642087051E+01  0.15714109806E+01  0.30087023253E+02  0.20000022788E+01 0.  0.
        -13    1    3    3    0    0 -0.29822311306E+02 -0.30642087051E+01 -0.63520441786E+02  0.70239713235E+02  0.10566000000E+00 0.  1.
         13    1    4    4    0    0  0.27517751844E+01  0.52970811985E+00 -0.20192336759E+00  0.28115466277E+01  0.10566000000E+00 0. -1.
        -13    1    4    4    0    0  0.12666913976E+01  0.33558379875E+00  0.20641118812E+00  0.13307491112E+01  0.10566000000E+00 0.  1.
         14    1    4    4    0    0  0.25803844724E+02  0.21989167865E+01  0.15669231600E+01  0.25944727514E+02  0.00000000000E+00 0. -1.
<mgrwt>
<rscale>  0 0.78916232E+02</rscale>
<asrwt>0</asrwt>
<pdfrwt beam="1">  1        2 0.29521312E-02 0.78916232E+02</pdfrwt>
<pdfrwt beam="2">  1       -1 0.12482751E-01 0.78916232E+02</pdfrwt>
<totfact> 0.12804394E+05</totfact>
</mgrwt>
</event>
<event>
 8    1  0.1226832E-020  0.8042549E+02  0.7818608E-02  0.1327848E+00
         -1   -1    0    0    0  501 -0.00000000000E+00  0.00000000000E+00  0.27989798402E+01  0.27989843778E+01  0.50400000000E-02 0.  1.
          2   -1    0    0  501    0  0.00000000000E+00 -0.00000000000E+00 -0.57773325187E+03  0.57773325187E+03  0.25500000000E-02 0. -1.
         24    2    1    2    0    0  0.17763568394E-14 -0.35527136788E-14 -0.57493427203E+03  0.58053223625E+03  0.80425494558E+02 0.  0.
         66    2    3    3    0    0 -0.15222843784E+02 -0.23343337409E+02 -0.49665186926E+03  0.49743715745E+03  0.19999989675E+01 0.  0.
        -13    1    3    3    0    0  0.15222843784E+02  0.23343337409E+02 -0.78282402765E+02  0.83095078801E+02  0.10566000000E+00 0.  1.
         13    1    4    4    0    0 -0.15952304917E+01 -0.20596637633E+01 -0.44735797505E+02  0.44811714067E+02  0.10566000000E+00 0. -1.
        -13    1    4    4    0    0 -0.11546617204E+02 -0.18073770945E+02 -0.37180091698E+03  0.37241900944E+03  0.10566000000E+00 0.  1.
         14    1    4    4    0    0 -0.20809960882E+01 -0.32099027005E+01 -0.80115154780E+02  0.80206433941E+02  0.00000000000E+00 0. -1.
<mgrwt>
<rscale>  0 0.80425495E+02</rscale>
<asrwt>0</asrwt>
<pdfrwt beam="1">  1        2 0.88881944E-01 0.80425495E+02</pdfrwt>
<pdfrwt beam="2">  1       -1 0.43061309E-03 0.80425495E+02</pdfrwt>
<totfact> 0.31384197E+05</totfact>
</mgrwt>
</event>
<event>
 8    1  0.1226832E-020  0.7991644E+02  0.7818608E-02  0.1329289E+00
         -1   -1    0    0    0  501 -0.00000000000E+00  0.00000000000E+00  0.24773675922E+01  0.24773727189E+01  0.50400000000E-02 0.  1.
          2   -1    0    0  501    0  0.00000000000E+00 -0.00000000000E+00 -0.64449764772E+03  0.64449764772E+03  0.25500000000E-02 0. -1.
         24    2    1    2    0    0  0.35527136788E-14 -0.88817841970E-15 -0.64202028013E+03  0.64697502044E+03  0.79916437502E+02 0.  0.
         66    2    3    3    0    0  0.18676552483E+02  0.73095617474E+01 -0.60076377384E+03  0.60110178445E+03  0.20000005811E+01 0.  0.
        -13    1    3    3    0    0 -0.18676552483E+02 -0.73095617474E+01 -0.41256506285E+02  0.45873235993E+02  0.10566000000E+00 0.  1.
         13    1    4    4    0    0  0.60925376579E+01  0.28952550924E+01 -0.18967394558E+03  0.18979388376E+03  0.10566000000E+00 0. -1.
        -13    1    4    4    0    0  0.60158837242E+01  0.26358050317E+01 -0.21270094032E+03  0.21280234845E+03  0.10566000000E+00 0.  1.
         14    1    4    4    0    0  0.65681311014E+01  0.17785016234E+01 -0.19838888793E+03  0.19850555224E+03  0.00000000000E+00 0. -1.
<mgrwt>
<rscale>  0 0.79916438E+02</rscale>
<asrwt>0</asrwt>
<pdfrwt beam="1">  1        2 0.99153350E-01 0.79916438E+02</pdfrwt>
<pdfrwt beam="2">  1       -1 0.38113439E-03 0.79916438E+02</pdfrwt>
<totfact> 0.32875204E+05</totfact>
</mgrwt>
</event>
<event>
 8    1  0.1226832E-020  0.9010375E+02  0.7818608E-02  0.1302601E+00
         -1   -1    0    0    0  501 -0.00000000000E+00  0.00000000000E+00  0.13605163169E+03  0.13605163179E+03  0.50400000000E-02 0.  1.
          2   -1    0    0  501    0  0.00000000000E+00 -0.00000000000E+00 -0.14918391115E+02  0.14918391333E+02  0.25500000000E-02 0. -1.
         24    2    1    2    0    0  0.00000000000E+00  0.00000000000E+00  0.12113324058E+03  0.15097002312E+03  0.90103750799E+02 0.  0.
         66    2    3    3    0    0 -0.17511470576E+02  0.14541479880E+02 -0.45024342714E+01  0.23289013578E+02  0.20000000555E+01 0.  0.
        -13    1    3    3    0    0  0.17511470576E+02 -0.14541479880E+02  0.12563567485E+03  0.12768100954E+03  0.10566000000E+00 0.  1.
         13    1    4    4    0    0 -0.58313984326E+01  0.51505952375E+01 -0.14424501813E+01  0.79136379461E+01  0.10566000000E+00 0. -1.
        -13    1    4    4    0    0 -0.56255646542E+01  0.50309251755E+01 -0.22188592530E+01  0.78671269356E+01  0.10566000000E+00 0.  1.
        -14    1    4    4    0    0 -0.60545074896E+01  0.43599594666E+01 -0.84112483706E+00  0.75082486961E+01  0.00000000000E+00 0.  1.
<mgrwt>
<rscale>  0 0.90103751E+02</rscale>
<asrwt>0</asrwt>
<pdfrwt beam="1">  1        2 0.22951371E-02 0.90103751E+02</pdfrwt>
<pdfrwt beam="2">  1       -1 0.20931021E-01 0.90103751E+02</pdfrwt>
<totfact> 0.81883507E+04</totfact>
</mgrwt>
</event>
<event>
 8    1  0.1226832E-020  0.8161488E+02  0.7818608E-02  0.1324530E+00
         -1   -1    0    0    0  501 -0.00000000000E+00  0.00000000000E+00  0.40122636607E+02  0.40122636924E+02  0.50400000000E-02 0.  1.
          2   -1    0    0  501    0  0.00000000000E+00 -0.00000000000E+00 -0.41503934313E+02  0.41503934391E+02  0.25500000000E-02 0. -1.
         24    2    1    2    0    0  0.00000000000E+00  0.00000000000E+00 -0.13812977056E+01  0.81626571315E+02  0.81614883209E+02 0.  0.
         66    2    3    3    0    0 -0.23436010077E+01 -0.38869380084E+02 -0.12813901065E+02  0.41042870678E+02  0.19999998087E+01 0.  0.
        -13    1    3    3    0    0  0.23436010077E+01  0.38869380084E+02  0.11432603359E+02  0.40583700637E+02  0.10566000000E+00 0.  1.
         13    1    4    4    0    0 -0.48095904022E+00 -0.90850470481E+01 -0.28326203195E+01  0.95291292034E+01  0.10566000000E+00 0.  1.
        -13    1    4    4    0    0 -0.11637463400E+01 -0.83616777857E+01 -0.23835388645E+01  0.87729346566E+01  0.10566000000E+00 0.  1.
         14    1    4    4    0    0 -0.69889562753E+00 -0.21422655250E+02 -0.75977418810E+01  0.22740806818E+02  0.00000000000E+00 0. -1.
<mgrwt>
<rscale>  0 0.81614883E+02</rscale>
<asrwt>0</asrwt>
<pdfrwt beam="1">  1        2 0.63852207E-02 0.81614883E+02</pdfrwt>
<pdfrwt beam="2">  1       -1 0.61727133E-02 0.81614883E+02</pdfrwt>
<totfact> 0.13592211E+05</totfact>
</mgrwt>
</event>
<event>
 8    1  0.1226832E-020  0.7950336E+02  0.7818608E-02  0.1330467E+00
          2   -1    0    0  501    0  0.00000000000E+00  0.00000000000E+00  0.45067661679E+03  0.45067661680E+03  0.25500000000E-02 0. -1.
         -1   -1    0    0    0  501 -0.00000000000E+00 -0.00000000000E+00 -0.35062732490E+01  0.35062768713E+01  0.50400000000E-02 0.  1.
         24    2    1    2    0    0  0.00000000000E+00  0.00000000000E+00  0.44717034354E+03  0.45418289367E+03  0.79503363190E+02 0.  0.
         66    2    3    3    0    0 -0.22520366114E+02  0.22484662860E+02  0.35957258369E+03  0.36098361444E+03  0.19999996756E+01 0.  0.
        -13    1    3    3    0    0  0.22520366114E+02 -0.22484662860E+02  0.87597759854E+02  0.93199279231E+02  0.10566000000E+00 0.  1.
         13    1    4    4    0    0 -0.21960630276E+01  0.25773171011E+01  0.44241561003E+02  0.44371073238E+02  0.10566000000E+00 0. -1.
        -13    1    4    4    0    0 -0.80440407416E+01  0.81822535625E+01  0.12447346326E+03  0.12500124033E+03  0.10566000000E+00 0.  1.
         14    1    4    4    0    0 -0.12280262345E+02  0.11725092196E+02  0.19085755943E+03  0.19161130087E+03  0.00000000000E+00 0. -1.
<mgrwt>
<rscale>  0 0.79503363E+02</rscale>
<asrwt>0</asrwt>
<pdfrwt beam="1">  1        2 0.69334906E-01 0.79503363E+02</pdfrwt>
<pdfrwt beam="2">  1       -1 0.53942661E-03 0.79503363E+02</pdfrwt>
<totfact> 0.29915275E+05</totfact>
</mgrwt>
</event>
<event>
 8    1  0.1226832E-020  0.7908007E+02  0.7818608E-02  0.1331683E+00
         -1   -1    0    0    0  501 -0.00000000000E+00  0.00000000000E+00  0.12096640464E+02  0.12096641514E+02  0.50400000000E-02 0.  1.
          2   -1    0    0  501    0  0.00000000000E+00 -0.00000000000E+00 -0.12924369164E+03  0.12924369167E+03  0.25500000000E-02 0. -1.
         24    2    1    2    0    0  0.00000000000E+00  0.00000000000E+00 -0.11714705118E+03  0.14134033318E+03  0.79080074506E+02 0.  0.
         66    2    3    3    0    0 -0.31661939774E+02  0.95290476735E+01 -0.97281542643E+02  0.10276662746E+03  0.20000000963E+01 0.  0.
        -13    1    3    3    0    0  0.31661939774E+02 -0.95290476735E+01 -0.19865508536E+02  0.38573705723E+02  0.10566000000E+00 0.  1.
         13    1    4    4    0    0 -0.88098035860E+01  0.20131267427E+01 -0.25544280734E+02  0.27095880882E+02  0.10566000000E+00 0. -1.
        -13    1    4    4    0    0 -0.97365050123E+01  0.37453779069E+01 -0.31221181366E+02  0.32918091005E+02  0.10566000000E+00 0.  1.
        -14    1    4    4    0    0 -0.13115631175E+02  0.37705430239E+01 -0.40516080543E+02  0.42752655572E+02  0.00000000000E+00 0.  1.
<mgrwt>
<rscale>  0 0.79080075E+02</rscale>
<asrwt>0</asrwt>
<pdfrwt beam="1">  1        2 0.19883644E-01 0.79080075E+02</pdfrwt>
<pdfrwt beam="2">  1       -1 0.18610218E-02 0.79080075E+02</pdfrwt>
<totfact> 0.19709361E+05</totfact>
</mgrwt>
</event>
<event>
 8    1  0.1226832E-020  0.7767801E+02  0.7818608E-02  0.1335773E+00
          2   -1    0    0  501    0  0.00000000000E+00  0.00000000000E+00  0.82184259638E+02  0.82184259678E+02  0.25500000000E-02 0. -1.
         -1   -1    0    0    0  501 -0.00000000000E+00 -0.00000000000E+00 -0.18354711214E+02  0.18354711906E+02  0.50400000000E-02 0.  1.
         24    2    1    2    0    0 -0.17763568394E-14  0.00000000000E+00  0.63829548425E+02  0.10053897158E+03  0.77678012043E+02 0.  0.
         66    2    3    3    0    0  0.14962993606E+02  0.80881602854E+01  0.77091209913E+02  0.78970653524E+02  0.19999894219E+01 0.  0.
        -13    1    3    3    0    0 -0.14962993606E+02 -0.80881602854E+01 -0.13261661488E+02  0.21568318060E+02  0.10566000000E+00 0.  1.
         13    1    4    4    0    0  0.32360664120E+01  0.25422069371E+01  0.20210869833E+02  0.20625842174E+02  0.10566000000E+00 0. -1.
        -13    1    4    4    0    0  0.32732811318E+01  0.12297428355E+01  0.15427053924E+02  0.15818716560E+02  0.10566000000E+00 0.  1.
         14    1    4    4    0    0  0.84536460622E+01  0.43162105127E+01  0.41453286156E+02  0.42526094790E+02  0.00000000000E+00 0. -1.
<mgrwt>
<rscale>  0 0.77678012E+02</rscale>
<asrwt>0</asrwt>
<pdfrwt beam="1">  1        2 0.12643732E-01 0.77678012E+02</pdfrwt>
<pdfrwt beam="2">  1       -1 0.28238018E-02 0.77678012E+02</pdfrwt>
<totfact> 0.18197681E+05</totfact>
</mgrwt>
</event>
<event>
 8    1  0.1226832E-020  0.7962512E+02  0.7818608E-02  0.1330119E+00
         -1   -1    0    0    0  501 -0.00000000000E+00  0.00000000000E+00  0.12133191593E+03  0.12133191604E+03  0.50400000000E-02 0.  1.
          2   -1    0    0  501    0  0.00000000000E+00 -0.00000000000E+00 -0.13063667736E+02  0.13063667985E+02  0.25500000000E-02 0. -1.
         24    2    1    2    0    0 -0.71054273576E-14 -0.71054273576E-14  0.10826824820E+03  0.13439558402E+03  0.79625118131E+02 0.  0.
         66    2    3    3    0    0  0.27056145528E+02  0.24158813584E+02  0.26570264174E+02  0.45007357494E+02  0.20000014137E+01 0.  0.
        -13    1    3    3    0    0 -0.27056145528E+02 -0.24158813584E+02  0.81697984023E+02  0.89388226530E+02  0.10566000000E+00 0.  1.
         13    1    4    4    0    0  0.63014023378E+00  0.46914535171E+00  0.55651434970E+00  0.96852792024E+00  0.10566000000E+00 0. -1.
        -13    1    4    4    0    0  0.69361537502E+01  0.62466477260E+01  0.58927563679E+01  0.11039319649E+02  0.10566000000E+00 0.  1.
         14    1    4    4    0    0  0.19489851544E+02  0.17443020507E+02  0.20120993456E+02  0.32999509925E+02  0.00000000000E+00 0. -1.
<mgrwt>
<rscale>  0 0.79625118E+02</rscale>
<asrwt>0</asrwt>
<pdfrwt beam="1">  1        2 0.20097951E-02 0.79625118E+02</pdfrwt>
<pdfrwt beam="2">  1       -1 0.18666448E-01 0.79625118E+02</pdfrwt>
<totfact> 0.11490373E+05</totfact>
</mgrwt>
</event>
<event>
 8    1  0.1226832E-020  0.7149046E+02  0.7818608E-02  0.1355097E+00
          2   -1    0    0  501    0  0.00000000000E+00  0.00000000000E+00  0.21571536037E+01  0.21571551109E+01  0.25500000000E-02 0. -1.
         -1   -1    0    0    0  501 -0.00000000000E+00 -0.00000000000E+00 -0.59231799990E+03  0.59231799992E+03  0.50400000000E-02 0.  1.
         24    2    1    2    0    0  0.00000000000E+00  0.00000000000E+00 -0.59016084630E+03  0.59447515503E+03  0.71490457052E+02 0.  0.
         66    2    3    3    0    0  0.31655924359E+02 -0.11333596167E+02 -0.39550017162E+03  0.39693190058E+03  0.19999999253E+01 0.  0.
        -13    1    3    3    0    0 -0.31655924359E+02  0.11333596167E+02 -0.19466067468E+03  0.19754325445E+03  0.10566000000E+00 0.  1.
         13    1    4    4    0    0  0.28560185346E+01 -0.11021286923E+01 -0.35215969370E+02  0.35348934811E+02  0.10566000000E+00 0. -1.
        -13    1    4    4    0    0  0.28285274805E+02 -0.97621415677E+01 -0.35208824816E+03  0.35335747033E+03  0.10566000000E+00 0.  1.
        -14    1    4    4    0    0  0.51463101881E+00 -0.46932590642E+00 -0.81959540842E+01  0.82254954405E+01  0.00000000000E+00 0.  1.
<mgrwt>
<rscale>  0 0.71490457E+02</rscale>
<asrwt>0</asrwt>
<pdfrwt beam="1">  1        2 0.33187037E-03 0.71490457E+02</pdfrwt>
<pdfrwt beam="2">  1       -1 0.91125717E-01 0.71490457E+02</pdfrwt>
<totfact> 0.79546160E+04</totfact>
</mgrwt>
</event>
<event>
 8    1  0.1226832E-020  0.7831289E+02  0.7818608E-02  0.1333909E+00
          2   -1    0    0  501    0  0.00000000000E+00  0.00000000000E+00  0.26050198992E+03  0.26050198993E+03  0.25500000000E-02 0. -1.
         -1   -1    0    0    0  501 -0.00000000000E+00 -0.00000000000E+00 -0.58856630843E+01  0.58856652422E+01  0.50400000000E-02 0.  1.
         24    2    1    2    0    0  0.13877787808E-16  0.35527136788E-14  0.25461632683E+03  0.26638765517E+03  0.78312891264E+02 0.  0.
         66    2    3    3    0    0  0.59042757652E-01 -0.24696533889E+02  0.23063890066E+03  0.23196599916E+03  0.20000000620E+01 0.  0.
        -13    1    3    3    0    0 -0.59042757652E-01  0.24696533889E+02  0.23977426175E+02  0.34421656006E+02  0.10566000000E+00 0.  1.
         13    1    4    4    0    0 -0.11490642509E+00 -0.15390663150E+02  0.14988300136E+03  0.15067120155E+03  0.10566000000E+00 0. -1.
        -13    1    4    4    0    0 -0.23597743124E+00 -0.51259217538E+01  0.46496848380E+02  0.46779256433E+02  0.10566000000E+00 0.  1.
         14    1    4    4    0    0  0.40992661398E+00 -0.41799489856E+01  0.34259050912E+02  0.34515541177E+02  0.00000000000E+00 0. -1.
<mgrwt>
<rscale>  0 0.78312891E+02</rscale>
<asrwt>0</asrwt>
<pdfrwt beam="1">  1        2 0.40077227E-01 0.78312891E+02</pdfrwt>
<pdfrwt beam="2">  1       -1 0.90548686E-03 0.78312891E+02</pdfrwt>
<totfact> 0.25617725E+05</totfact>
</mgrwt>
</event>
<event>
 8    1  0.1226832E-020  0.7709186E+02  0.7818608E-02  0.1337513E+00
         -1   -1    0    0    0  501 -0.00000000000E+00  0.00000000000E+00  0.10370379314E+03  0.10370379326E+03  0.50400000000E-02 0.  1.
          2   -1    0    0  501    0  0.00000000000E+00 -0.00000000000E+00 -0.14327234328E+02  0.14327234555E+02  0.25500000000E-02 0. -1.
         24    2    1    2    0    0 -0.35527136788E-14  0.00000000000E+00  0.89376558814E+02  0.11803102782E+03  0.77091856008E+02 0.  0.
         66    2    3    3    0    0 -0.27024991403E+02  0.40555407640E+01  0.31542732284E+01  0.27581642709E+02  0.20000009361E+01 0.  0.
        -13    1    3    3    0    0  0.27024991403E+02 -0.40555407640E+01  0.86222285585E+02  0.90449385110E+02  0.10566000000E+00 0.  1.
         13    1    4    4    0    0 -0.56141488781E+01  0.24407332927E+00  0.72064373943E+00  0.56664566397E+01  0.10566000000E+00 0.  1.
        -13    1    4    4    0    0 -0.71939479978E+01  0.10389030545E+01  0.31328400078E+00  0.72760922377E+01  0.10566000000E+00 0. -1.
        -14    1    4    4    0    0 -0.14216894527E+02  0.27725643802E+01  0.21203454882E+01  0.14639093832E+02  0.00000000000E+00 0.  1.
<mgrwt>
<rscale>  0 0.77091856E+02</rscale>
<asrwt>0</asrwt>
<pdfrwt beam="1">  1        2 0.22041899E-02 0.77091856E+02</pdfrwt>
<pdfrwt beam="2">  1       -1 0.15954430E-01 0.77091856E+02</pdfrwt>
<totfact> 0.12899363E+05</totfact>
</mgrwt>
</event>
<event>
 8    1  0.1226832E-020  0.7952507E+02  0.7818608E-02  0.1330405E+00
          2   -1    0    0  501    0  0.00000000000E+00  0.00000000000E+00  0.59413236142E+02  0.59413236196E+02  0.25500000000E-02 0. -1.
         -1   -1    0    0    0  501 -0.00000000000E+00 -0.00000000000E+00 -0.26611224809E+02  0.26611225286E+02  0.50400000000E-02 0.  1.
         24    2    1    2    0    0  0.00000000000E+00  0.00000000000E+00  0.32802011333E+02  0.86024461482E+02  0.79525065393E+02 0.  0.
         66    2    3    3    0    0 -0.21602805168E+02  0.89801364372E+01  0.51157041715E+02  0.56288248779E+02  0.19999980062E+01 0.  0.
        -13    1    3    3    0    0  0.21602805168E+02 -0.89801364372E+01 -0.18355030382E+02  0.29736212703E+02  0.10566000000E+00 0.  1.
         13    1    4    4    0    0 -0.14705315211E+02  0.55160543712E+01  0.33584278873E+02  0.37075437998E+02  0.10566000000E+00 0. -1.
        -13    1    4    4    0    0 -0.16138622839E+01  0.88927004222E+00  0.51234831038E+01  0.54457869799E+01  0.10566000000E+00 0.  1.
         14    1    4    4    0    0 -0.52836276739E+01  0.25748120237E+01  0.12449279738E+02  0.13767023801E+02  0.00000000000E+00 0. -1.
<mgrwt>
<rscale>  0 0.79525065E+02</rscale>
<asrwt>0</asrwt>
<pdfrwt beam="1">  1        2 0.91404977E-02 0.79525065E+02</pdfrwt>
<pdfrwt beam="2">  1       -1 0.40940347E-02 0.79525065E+02</pdfrwt>
<totfact> 0.15784598E+05</totfact>
</mgrwt>
</event>
<event>
 8    1  0.1226832E-020  0.7934236E+02  0.7818608E-02  0.1330928E+00
          2   -1    0    0  501    0  0.00000000000E+00  0.00000000000E+00  0.20015588556E+03  0.20015588558E+03  0.25500000000E-02 0. -1.
         -1   -1    0    0    0  501 -0.00000000000E+00 -0.00000000000E+00 -0.78628839855E+01  0.78628856008E+01  0.50400000000E-02 0.  1.
         24    2    1    2    0    0  0.00000000000E+00  0.00000000000E+00  0.19229300157E+03  0.20801877118E+03  0.79342363889E+02 0.  0.
         66    2    3    3    0    0  0.31539305889E+02  0.47261646232E+01  0.34457061201E+02  0.46993122022E+02  0.20000006927E+01 0.  0.
        -13    1    3    3    0    0 -0.31539305889E+02 -0.47261646232E+01  0.15783594037E+03  0.16102564915E+03  0.10566000000E+00 0.  1.
         13    1    4    4    0    0  0.23254831977E+02  0.38648404247E+01  0.24481446744E+02  0.33986417883E+02  0.10566000000E+00 0. -1.
        -13    1    4    4    0    0  0.41529346881E+01  0.57783097262E+00  0.53504567704E+01  0.67984782742E+01  0.10566000000E+00 0.  1.
         14    1    4    4    0    0  0.41315392247E+01  0.28349322587E+00  0.46251576861E+01  0.62082258654E+01  0.00000000000E+00 0. -1.
<mgrwt>
<rscale>  0 0.79342364E+02</rscale>
<asrwt>0</asrwt>
<pdfrwt beam="1">  1        2 0.30793211E-01 0.79342364E+02</pdfrwt>
<pdfrwt beam="2">  1       -1 0.12096747E-02 0.79342364E+02</pdfrwt>
<totfact> 0.22550165E+05</totfact>
</mgrwt>
</event>
<event>
 8    1  0.1226832E-020  0.7656409E+02  0.7818608E-02  0.1339095E+00
          2   -1    0    0  501    0  0.00000000000E+00  0.00000000000E+00  0.89239095156E+02  0.89239095192E+02  0.25500000000E-02 0. -1.
         -1   -1    0    0    0  501 -0.00000000000E+00 -0.00000000000E+00 -0.16422340485E+02  0.16422341259E+02  0.50400000000E-02 0.  1.
         24    2    1    2    0    0  0.17763568394E-14  0.00000000000E+00  0.72816754670E+02  0.10566143645E+03  0.76564086830E+02 0.  0.
         66    2    3    3    0    0  0.15695453167E+02 -0.18592155601E+02  0.77173403994E+02  0.80942879508E+02  0.19999897655E+01 0.  0.
        -13    1    3    3    0    0 -0.15695453167E+02  0.18592155601E+02 -0.43566493236E+01  0.24718556943E+02  0.10566000000E+00 0.  1.
         13    1    4    4    0    0  0.80966570878E+01 -0.10200405318E+02  0.41919802505E+02  0.43896299739E+02  0.10566000000E+00 0. -1.
        -13    1    4    4    0    0  0.32648271865E+00 -0.75813333729E+00  0.21954402560E+01  0.23478669204E+01  0.10566000000E+00 0.  1.
         14    1    4    4    0    0  0.72723133601E+01 -0.76336169450E+01  0.33058161233E+02  0.34698712849E+02  0.00000000000E+00 0. -1.
<mgrwt>
<rscale>  0 0.76564087E+02</rscale>
<asrwt>0</asrwt>
<pdfrwt beam="1">  1        2 0.13729092E-01 0.76564087E+02</pdfrwt>
<pdfrwt beam="2">  1       -1 0.25265140E-02 0.76564087E+02</pdfrwt>
<totfact> 0.19326472E+05</totfact>
</mgrwt>
</event>
<event>
 8    1  0.1226832E-020  0.7219808E+02  0.7818608E-02  0.1352774E+00
          2   -1    0    0  501    0  0.00000000000E+00  0.00000000000E+00  0.43155696272E+03  0.43155696273E+03  0.25500000000E-02 0. -1.
         -1   -1    0    0    0  501 -0.00000000000E+00 -0.00000000000E+00 -0.30196239386E+01  0.30196281447E+01  0.50400000000E-02 0.  1.
         24    2    1    2    0    0  0.17763568394E-14  0.71054273576E-14  0.42853733878E+03  0.43457659087E+03  0.72198078952E+02 0.  0.
         66    2    3    3    0    0 -0.87400292096E+01 -0.32170503065E+02  0.29735967820E+03  0.29922918906E+03  0.19999968922E+01 0.  0.
        -13    1    3    3    0    0  0.87400292096E+01  0.32170503065E+02  0.13117766058E+03  0.13534740182E+03  0.10566000000E+00 0.  1.
         13    1    4    4    0    0 -0.40971017382E+01 -0.12750961272E+02  0.11896220251E+03  0.11971378386E+03  0.10566000000E+00 0. -1.
        -13    1    4    4    0    0 -0.43847805516E+01 -0.17977582166E+02  0.16776805861E+03  0.16878552194E+03  0.10566000000E+00 0.  1.
        -14    1    4    4    0    0 -0.25814691976E+00 -0.14419596268E+01  0.10629417079E+02  0.10729883263E+02  0.00000000000E+00 0.  1.
<mgrwt>
<rscale>  0 0.72198079E+02</rscale>
<asrwt>0</asrwt>
<pdfrwt beam="1">  1        2 0.66393403E-01 0.72198079E+02</pdfrwt>
<pdfrwt beam="2">  1       -1 0.46455769E-03 0.72198079E+02</pdfrwt>
<totfact> 0.37857021E+05</totfact>
</mgrwt>
</event>
<event>
 8    1  0.1226832E-020  0.8249986E+02  0.7818608E-02  0.1322103E+00
          2   -1    0    0  501    0  0.00000000000E+00  0.00000000000E+00  0.17356790852E+02  0.17356791040E+02  0.25500000000E-02 0. -1.
         -1   -1    0    0    0  501 -0.00000000000E+00 -0.00000000000E+00 -0.98034060283E+02  0.98034060412E+02  0.50400000000E-02 0.  1.
         24    2    1    2    0    0  0.00000000000E+00  0.00000000000E+00 -0.80677269431E+02  0.11539085145E+03  0.82499859370E+02 0.  0.
         66    2    3    3    0    0  0.24982849231E+02 -0.21773509020E+02 -0.74660541726E+02  0.81709393243E+02  0.20000006695E+01 0.  0.
        -13    1    3    3    0    0 -0.24982849231E+02  0.21773509020E+02 -0.60167277047E+01  0.33681458208E+02  0.10566000000E+00 0.  1.
         13    1    4    4    0    0  0.53952627559E+01 -0.44301240488E+01 -0.15138472166E+02  0.16670913678E+02  0.10566000000E+00 0. -1.
        -13    1    4    4    0    0  0.97293213193E+01 -0.94978687860E+01 -0.29725663007E+02  0.32687848048E+02  0.10566000000E+00 0.  1.
        -14    1    4    4    0    0  0.98582651558E+01 -0.78455161851E+01 -0.29796406553E+02  0.32350631517E+02  0.00000000000E+00 0.  1.
<mgrwt>
<rscale>  0 0.82499859E+02</rscale>
<asrwt>0</asrwt>
<pdfrwt beam="1">  1        2 0.26702756E-02 0.82499859E+02</pdfrwt>
<pdfrwt beam="2">  1       -1 0.15082163E-01 0.82499859E+02</pdfrwt>
<totfact> 0.11025389E+05</totfact>
</mgrwt>
</event>
<event>
 8    1  0.1226832E-020  0.7233968E+02  0.7818608E-02  0.1352313E+00
          2   -1    0    0  501    0  0.00000000000E+00  0.00000000000E+00  0.81025808826E+03  0.81025808827E+03  0.25500000000E-02 0. -1.
         -1   -1    0    0    0  501 -0.00000000000E+00 -0.00000000000E+00 -0.16146141730E+01  0.16146220391E+01  0.50400000000E-02 0.  1.
         24    2    1    2    0    0  0.00000000000E+00  0.00000000000E+00  0.80864347409E+03  0.81187271031E+03  0.72339681720E+02 0.  0.
         66    2    3    3    0    0  0.21618681128E+02 -0.13973697585E+02  0.68935547935E+03  0.68983882792E+03  0.19999983976E+01 0.  0.
        -13    1    3    3    0    0 -0.21618681128E+02  0.13973697585E+02  0.11928799474E+03  0.12203388239E+03  0.10566000000E+00 0.  1.
         13    1    4    4    0    0  0.18894660508E+02 -0.11927920933E+02  0.60995138524E+03  0.61036053855E+03  0.10566000000E+00 0. -1.
        -13    1    4    4    0    0  0.20046997090E+01 -0.17155382092E+01  0.60172302806E+02  0.60230217344E+02  0.10566000000E+00 0.  1.
         14    1    4    4    0    0  0.71932091078E+00 -0.33023844239E+00  0.19231791304E+02  0.19248072027E+02  0.00000000000E+00 0. -1.
<mgrwt>
<rscale>  0 0.72339682E+02</rscale>
<asrwt>0</asrwt>
<pdfrwt beam="1">  1        2 0.12465501E+00 0.72339682E+02</pdfrwt>
<pdfrwt beam="2">  1       -1 0.24840295E-03 0.72339682E+02</pdfrwt>
<totfact> 0.44670373E+05</totfact>
</mgrwt>
</event>
<event>
 8    1  0.1226832E-020  0.7992238E+02  0.7818608E-02  0.1329272E+00
          2   -1    0    0  501    0  0.00000000000E+00  0.00000000000E+00  0.62923054726E+03  0.62923054727E+03  0.25500000000E-02 0. -1.
         -1   -1    0    0    0  501 -0.00000000000E+00 -0.00000000000E+00 -0.25378538963E+01  0.25378589008E+01  0.50400000000E-02 0.  1.
         24    2    1    2    0    0  0.00000000000E+00  0.00000000000E+00  0.62669269336E+03  0.63176840617E+03  0.79922381809E+02 0.  0.
         66    2    3    3    0    0 -0.13543622764E+02 -0.48542554451E+01  0.60803049973E+03  0.60820398067E+03  0.19999983914E+01 0.  0.
        -13    1    3    3    0    0  0.13543622764E+02  0.48542554451E+01  0.18662193636E+02  0.23564425494E+02  0.10566000000E+00 0.  1.
         13    1    4    4    0    0 -0.20684263163E+01 -0.10540254408E+01  0.12325545260E+03  0.12327735849E+03  0.10566000000E+00 0.  1.
        -13    1    4    4    0    0 -0.94233591860E+01 -0.31374851334E+01  0.38330356181E+03  0.38343223022E+03  0.10566000000E+00 0. -1.
        -14    1    4    4    0    0 -0.20518372613E+01 -0.66274487087E+00  0.10147148531E+03  0.10149439196E+03  0.00000000000E+00 0.  1.
<mgrwt>
<rscale>  0 0.79922382E+02</rscale>
<asrwt>0</asrwt>
<pdfrwt beam="1">  1        2 0.96804789E-01 0.79922382E+02</pdfrwt>
<pdfrwt beam="2">  1       -1 0.39043909E-03 0.79922382E+02</pdfrwt>
<totfact> 0.32664002E+05</totfact>
</mgrwt>
</event>
<event>
 8    1  0.1226832E-020  0.8085596E+02  0.7818608E-02  0.1326640E+00
          2   -1    0    0  501    0  0.00000000000E+00  0.00000000000E+00  0.32278532747E+02  0.32278532848E+02  0.25500000000E-02 0. -1.
         -1   -1    0    0    0  501 -0.00000000000E+00 -0.00000000000E+00 -0.50634938618E+02  0.50634938869E+02  0.50400000000E-02 0.  1.
         24    2    1    2    0    0  0.00000000000E+00  0.00000000000E+00 -0.18356405871E+02  0.82913471717E+02  0.80855959308E+02 0.  0.
         66    2    3    3    0    0 -0.41824436343E+01  0.18881563236E+02  0.27192972173E+02  0.33428491478E+02  0.20000104810E+01 0.  0.
        -13    1    3    3    0    0  0.41824436343E+01 -0.18881563236E+02 -0.45549378044E+02  0.49484980239E+02  0.10566000000E+00 0.  1.
         13    1    4    4    0    0 -0.13277982617E+01  0.38231821471E+01  0.58076593711E+01  0.70795368040E+01  0.10566000000E+00 0. -1.
        -13    1    4    4    0    0 -0.93785608804E+00  0.22242803864E+01  0.33793025888E+01  0.41542565281E+01  0.10566000000E+00 0.  1.
        -14    1    4    4    0    0 -0.19167892846E+01  0.12834100703E+02  0.18006010213E+02  0.22194698146E+02  0.00000000000E+00 0.  1.
<mgrwt>
<rscale>  0 0.80855959E+02</rscale>
<asrwt>0</asrwt>
<pdfrwt beam="1">  1        2 0.49659282E-02 0.80855959E+02</pdfrwt>
<pdfrwt beam="2">  1       -1 0.77899906E-02 0.80855959E+02</pdfrwt>
<totfact> 0.13251545E+05</totfact>
</mgrwt>
</event>
<event>
 8    1  0.1226832E-020  0.7989355E+02  0.7818608E-02  0.1329354E+00
          2   -1    0    0  501    0  0.00000000000E+00  0.00000000000E+00  0.16232173391E+03  0.16232173393E+03  0.25500000000E-02 0. -1.
         -1   -1    0    0    0  501 -0.00000000000E+00 -0.00000000000E+00 -0.98307523318E+01  0.98307536237E+01  0.50400000000E-02 0.  1.
         24    2    1    2    0    0 -0.17763568394E-14  0.00000000000E+00  0.15249098157E+03  0.17215248755E+03  0.79893551105E+02 0.  0.
         66    2    3    3    0    0  0.95723806654E+01 -0.36846280614E+02  0.10219177644E+03  0.10907079395E+03  0.20000133573E+01 0.  0.
        -13    1    3    3    0    0 -0.95723806654E+01  0.36846280614E+02  0.50299205131E+02  0.63081693601E+02  0.10566000000E+00 0.  1.
         13    1    4    4    0    0  0.65634959691E+01 -0.25380991812E+02  0.70154373418E+02  0.74892733281E+02  0.10566000000E+00 0. -1.
        -13    1    4    4    0    0  0.11840863776E+00 -0.40901906146E+00  0.74943422166E+00  0.86840824865E+00  0.10566000000E+00 0.  1.
        -14    1    4    4    0    0  0.28904760586E+01 -0.11056269740E+02  0.31287968804E+02  0.33309652419E+02  0.00000000000E+00 0.  1.
<mgrwt>
<rscale>  0 0.79893551E+02</rscale>
<asrwt>0</asrwt>
<pdfrwt beam="1">  1        2 0.24972573E-01 0.79893551E+02</pdfrwt>
<pdfrwt beam="2">  1       -1 0.15124236E-02 0.79893551E+02</pdfrwt>
<totfact> 0.20624622E+05</totfact>
</mgrwt>
</event>
<event>
 8    1  0.1226832E-020  0.7236047E+02  0.7818608E-02  0.1352245E+00
          2   -1    0    0  501    0  0.00000000000E+00  0.00000000000E+00  0.29362810440E+03  0.29362810441E+03  0.25500000000E-02 0. -1.
         -1   -1    0    0    0  501 -0.00000000000E+00 -0.00000000000E+00 -0.44580508801E+01  0.44580537291E+01  0.50400000000E-02 0.  1.
         24    2    1    2    0    0  0.35527136788E-14  0.00000000000E+00  0.28917005352E+03  0.29808615814E+03  0.72360471405E+02 0.  0.
         66    2    3    3    0    0  0.28478179704E+02 -0.13875855209E+02  0.21645644314E+03  0.21877142827E+03  0.19999924795E+01 0.  0.
        -13    1    3    3    0    0 -0.28478179704E+02  0.13875855209E+02  0.72713610373E+02  0.79314729871E+02  0.10566000000E+00 0.  1.
         13    1    4    4    0    0  0.94076796457E+01 -0.39865847380E+01  0.67249471533E+02  0.68021319303E+02  0.10566000000E+00 0. -1.
        -13    1    4    4    0    0  0.90962123113E+01 -0.52877185855E+01  0.75051835511E+02  0.75785818091E+02  0.10566000000E+00 0.  1.
         14    1    4    4    0    0  0.99742877474E+01 -0.46015518851E+01  0.74155136101E+02  0.74964290872E+02  0.00000000000E+00 0. -1.
<mgrwt>
<rscale>  0 0.72360471E+02</rscale>
<asrwt>0</asrwt>
<pdfrwt beam="1">  1        2 0.45173547E-01 0.72360471E+02</pdfrwt>
<pdfrwt beam="2">  1       -1 0.68585432E-03 0.72360471E+02</pdfrwt>
<totfact> 0.32866125E+05</totfact>
</mgrwt>
</event>
<event>
 8    1  0.1226832E-020  0.8014813E+02  0.7818608E-02  0.1328632E+00
          2   -1    0    0  501    0  0.00000000000E+00  0.00000000000E+00  0.85840987980E+03  0.85840987980E+03  0.25500000000E-02 0. -1.
         -1   -1    0    0    0  501 -0.00000000000E+00 -0.00000000000E+00 -0.18708169637E+01  0.18708237526E+01  0.50400000000E-02 0.  1.
         24    2    1    2    0    0  0.35527136788E-14  0.88817841970E-15  0.85653906284E+03  0.86028070356E+03  0.80148130028E+02 0.  0.
         66    2    3    3    0    0  0.20669970314E+02  0.71965504908E+01  0.78853453301E+03  0.78884076198E+03  0.19999993169E+01 0.  0.
        -13    1    3    3    0    0 -0.20669970314E+02 -0.71965504908E+01  0.68004529824E+02  0.71439941576E+02  0.10566000000E+00 0.  1.
         13    1    4    4    0    0  0.39599348956E+01  0.18028713447E+01  0.14964530394E+03  0.14970858220E+03  0.10566000000E+00 0. -1.
        -13    1    4    4    0    0  0.48040410507E+01  0.22297111153E+01  0.19869373045E+03  0.19876433309E+03  0.10566000000E+00 0.  1.
        -14    1    4    4    0    0  0.11905994368E+02  0.31639680308E+01  0.44019549862E+03  0.44036784669E+03  0.00000000000E+00 0.  1.
<mgrwt>
<rscale>  0 0.80148130E+02</rscale>
<asrwt>0</asrwt>
<pdfrwt beam="1">  1        2 0.13206324E+00 0.80148130E+02</pdfrwt>
<pdfrwt beam="2">  1       -1 0.28781813E-03 0.80148130E+02</pdfrwt>
<totfact> 0.34576398E+05</totfact>
</mgrwt>
</event>
<event>
 8    1  0.1226832E-020  0.8020167E+02  0.7818608E-02  0.1328480E+00
          2   -1    0    0  501    0  0.00000000000E+00  0.00000000000E+00  0.57312845456E+02  0.57312845512E+02  0.25500000000E-02 0. -1.
         -1   -1    0    0    0  501 -0.00000000000E+00 -0.00000000000E+00 -0.28057883347E+02  0.28057883800E+02  0.50400000000E-02 0.  1.
         24    2    1    2    0    0 -0.71054273576E-14  0.17763568394E-14  0.29254962109E+02  0.85370729312E+02  0.80201674642E+02 0.  0.
         66    2    3    3    0    0  0.38266581820E+02  0.10877241678E+02  0.19788596306E+02  0.44477344563E+02  0.19999912125E+01 0.  0.
        -13    1    3    3    0    0 -0.38266581820E+02 -0.10877241678E+02  0.94663658023E+01  0.40893384749E+02  0.10566000000E+00 0.  1.
         13    1    4    4    0    0  0.82539710198E+01  0.25740403070E+01  0.49044684053E+01  0.99407593006E+01  0.10566000000E+00 0. -1.
        -13    1    4    4    0    0  0.29802301916E+01  0.49139249587E+00  0.16069272981E+01  0.34229545654E+01  0.10566000000E+00 0.  1.
        -14    1    4    4    0    0  0.27032380609E+02  0.78118088754E+01  0.13277200603E+02  0.31113630697E+02  0.00000000000E+00 0.  1.
<mgrwt>
<rscale>  0 0.80201675E+02</rscale>
<asrwt>0</asrwt>
<pdfrwt beam="1">  1        2 0.88173607E-02 0.80201675E+02</pdfrwt>
<pdfrwt beam="2">  1       -1 0.43165976E-02 0.80201675E+02</pdfrwt>
<totfact> 0.15298239E+05</totfact>
</mgrwt>
</event>
<event>
 8    1  0.1226832E-020  0.8039107E+02  0.7818608E-02  0.1327945E+00
          2   -1    0    0  501    0  0.00000000000E+00  0.00000000000E+00  0.28553153459E+03  0.28553153461E+03  0.25500000000E-02 0. -1.
         -1   -1    0    0    0  501 -0.00000000000E+00 -0.00000000000E+00 -0.56585012348E+01  0.56585034793E+01  0.50400000000E-02 0.  1.
         24    2    1    2    0    0  0.11102230246E-15  0.00000000000E+00  0.27987303336E+03  0.29119003808E+03  0.80391065909E+02 0.  0.
         66    2    3    3    0    0  0.88046119835E+00 -0.19933612019E+02  0.26630896046E+03  0.26706288870E+03  0.19999988996E+01 0.  0.
        -13    1    3    3    0    0 -0.88046119835E+00  0.19933612019E+02  0.13564072895E+02  0.24127149388E+02  0.10566000000E+00 0.  1.
         13    1    4    4    0    0  0.44477713387E+00 -0.75652724623E+01  0.95591488911E+02  0.95891475588E+02  0.10566000000E+00 0. -1.
        -13    1    4    4    0    0 -0.40913870673E+00 -0.21489371494E+01  0.27130418647E+02  0.27218671998E+02  0.10566000000E+00 0.  1.
        -14    1    4    4    0    0  0.84482277121E+00 -0.10219402407E+02  0.14358705291E+03  0.14395274111E+03  0.00000000000E+00 0.  1.
<mgrwt>
<rscale>  0 0.80391066E+02</rscale>
<asrwt>0</asrwt>
<pdfrwt beam="1">  1        2 0.43927931E-01 0.80391066E+02</pdfrwt>
<pdfrwt beam="2">  1       -1 0.87053878E-03 0.80391066E+02</pdfrwt>
<totfact> 0.24723634E+05</totfact>
</mgrwt>
</event>
<event>
 8    1  0.1226832E-020  0.7921479E+02  0.7818608E-02  0.1331295E+00
         -1   -1    0    0    0  501 -0.00000000000E+00  0.00000000000E+00  0.43636431061E+02  0.43636431352E+02  0.50400000000E-02 0.  1.
          2   -1    0    0  501    0  0.00000000000E+00 -0.00000000000E+00 -0.35950366962E+02  0.35950367053E+02  0.25500000000E-02 0. -1.
         24    2    1    2    0    0  0.00000000000E+00 -0.17763568394E-14  0.76860640990E+01  0.79586798405E+02  0.79214789648E+02 0.  0.
         66    2    3    3    0    0 -0.92297387460E+01  0.14558192907E+02 -0.31953469546E+02  0.36361425652E+02  0.20000003494E+01 0.  0.
        -13    1    3    3    0    0  0.92297387460E+01 -0.14558192907E+02  0.39639533645E+02  0.43225372753E+02  0.10566000000E+00 0.  1.
         13    1    4    4    0    0 -0.97172354064E+00  0.24670312300E+01 -0.53620732227E+01  0.59827654985E+01  0.10566000000E+00 0. -1.
        -13    1    4    4    0    0 -0.34437557306E+00  0.93206282096E+00 -0.15529233958E+01  0.18466376868E+01  0.10566000000E+00 0.  1.
        -14    1    4    4    0    0 -0.79136396323E+01  0.11159098856E+02 -0.25038472927E+02  0.28532022467E+02  0.00000000000E+00 0.  1.
<mgrwt>
<rscale>  0 0.79214790E+02</rscale>
<asrwt>0</asrwt>
<pdfrwt beam="1">  1        2 0.55308257E-02 0.79214790E+02</pdfrwt>
<pdfrwt beam="2">  1       -1 0.67132971E-02 0.79214790E+02</pdfrwt>
<totfact> 0.14336159E+05</totfact>
</mgrwt>
</event>
<event>
 8    1  0.1226832E-020  0.8671603E+02  0.7818608E-02  0.1311005E+00
         -1   -1    0    0    0  501 -0.00000000000E+00  0.00000000000E+00  0.10592227393E+03  0.10592227405E+03  0.50400000000E-02 0.  1.
          2   -1    0    0  501    0  0.00000000000E+00 -0.00000000000E+00 -0.17748086061E+02  0.17748086244E+02  0.25500000000E-02 0. -1.
         24    2    1    2    0    0  0.35527136788E-14  0.00000000000E+00  0.88174187866E+02  0.12367036029E+03  0.86716034323E+02 0.  0.
         66    2    3    3    0    0 -0.26067333960E+02  0.16271682613E+02  0.53364049135E+00  0.30798673201E+02  0.19999859853E+01 0.  0.
        -13    1    3    3    0    0  0.26067333960E+02 -0.16271682613E+02  0.87640547375E+02  0.92871687091E+02  0.10566000000E+00 0.  1.
         13    1    4    4    0    0 -0.79725728953E+01  0.54494656904E+01  0.91626829167E+00  0.97009951293E+01  0.10566000000E+00 0. -1.
        -13    1    4    4    0    0 -0.13740358474E+02  0.79856086248E+01 -0.97489674466E-01  0.15893019360E+02  0.10566000000E+00 0.  1.
         14    1    4    4    0    0 -0.43544025901E+01  0.28366082979E+01 -0.28513812585E+00  0.52046587115E+01  0.00000000000E+00 0. -1.
<mgrwt>
<rscale>  0 0.86716034E+02</rscale>
<asrwt>0</asrwt>
<pdfrwt beam="1">  1        2 0.27304748E-02 0.86716034E+02</pdfrwt>
<pdfrwt beam="2">  1       -1 0.16295734E-01 0.86716034E+02</pdfrwt>
<totfact> 0.95714478E+04</totfact>
</mgrwt>
</event>
<event>
 8    1  0.1226832E-020  0.8231567E+02  0.7818608E-02  0.1322605E+00
         -1   -1    0    0    0  501 -0.00000000000E+00  0.00000000000E+00  0.23173138078E+01  0.23173192886E+01  0.50400000000E-02 0.  1.
          2   -1    0    0  501    0  0.00000000000E+00 -0.00000000000E+00 -0.73100390292E+03  0.73100390292E+03  0.25500000000E-02 0. -1.
         24    2    1    2    0    0  0.00000000000E+00  0.00000000000E+00 -0.72868658911E+03  0.73332122221E+03  0.82315671631E+02 0.  0.
         66    2    3    3    0    0  0.24644359598E+02 -0.16486666991E+02 -0.61854136873E+03  0.61925485825E+03  0.19999998584E+01 0.  0.
        -13    1    3    3    0    0 -0.24644359598E+02  0.16486666991E+02 -0.11014522038E+03  0.11406636396E+03  0.10566000000E+00 0.  1.
         13    1    4    4    0    0  0.27350166706E+01 -0.21702833619E+01 -0.80798625969E+02  0.80874097019E+02  0.10566000000E+00 0.  1.
        -13    1    4    4    0    0  0.11601691988E+02 -0.80806953741E+01 -0.29994709579E+03  0.30028014975E+03  0.10566000000E+00 0. -1.
        -14    1    4    4    0    0  0.10307650940E+02 -0.62356882555E+01 -0.23779564696E+03  0.23810061149E+03  0.00000000000E+00 0.  1.
<mgrwt>
<rscale>  0 0.82315672E+02</rscale>
<asrwt>0</asrwt>
<pdfrwt beam="1">  1        2 0.11246195E+00 0.82315672E+02</pdfrwt>
<pdfrwt beam="2">  1       -1 0.35651082E-03 0.82315672E+02</pdfrwt>
<totfact> 0.31355759E+05</totfact>
</mgrwt>
</event>
<event>
 8    1  0.1226832E-020  0.8186576E+02  0.7818608E-02  0.1323839E+00
          2   -1    0    0  501    0  0.00000000000E+00  0.00000000000E+00  0.59497470831E+03  0.59497470831E+03  0.25500000000E-02 0. -1.
         -1   -1    0    0    0  501 -0.00000000000E+00 -0.00000000000E+00 -0.28160852346E+01  0.28160897447E+01  0.50400000000E-02 0.  1.
         24    2    1    2    0    0 -0.71054273576E-14  0.00000000000E+00  0.59215862307E+03  0.59779079806E+03  0.81865764290E+02 0.  0.
         66    2    3    3    0    0  0.36047540467E+02 -0.17749468036E+02  0.35235677271E+03  0.35464597005E+03  0.20000007758E+01 0.  0.
        -13    1    3    3    0    0 -0.36047540467E+02  0.17749468036E+02  0.23980185036E+03  0.24314482801E+03  0.10566000000E+00 0.  1.
         13    1    4    4    0    0  0.27468830527E+01 -0.13696150284E+01  0.24508332317E+02  0.24700014754E+02  0.10566000000E+00 0. -1.
        -13    1    4    4    0    0  0.28117347883E+02 -0.13410884986E+02  0.27106818612E+03  0.27285235894E+03  0.10566000000E+00 0.  1.
        -14    1    4    4    0    0  0.51833095305E+01 -0.29689680220E+01  0.56780254276E+02  0.57093596353E+02  0.00000000000E+00 0.  1.
<mgrwt>
<rscale>  0 0.81865764E+02</rscale>
<asrwt>0</asrwt>
<pdfrwt beam="1">  1        2 0.91534614E-01 0.81865764E+02</pdfrwt>
<pdfrwt beam="2">  1       -1 0.43324403E-03 0.81865764E+02</pdfrwt>
<totfact> 0.30217462E+05</totfact>
</mgrwt>
</event>
<event>
 8    1  0.1226832E-020  0.8086879E+02  0.7818608E-02  0.1326604E+00
          2   -1    0    0  501    0  0.00000000000E+00  0.00000000000E+00  0.66683632525E+02  0.66683632574E+02  0.25500000000E-02 0. -1.
         -1   -1    0    0    0  501 -0.00000000000E+00 -0.00000000000E+00 -0.24517866814E+02  0.24517867332E+02  0.50400000000E-02 0.  1.
         24    2    1    2    0    0  0.35527136788E-14  0.71054273576E-14  0.42165765712E+02  0.91201499906E+02  0.80868793654E+02 0.  0.
         66    2    3    3    0    0  0.19957653280E+02  0.35075969964E+02  0.23435392834E+02  0.46710269022E+02  0.20000003731E+01 0.  0.
        -13    1    3    3    0    0 -0.19957653280E+02 -0.35075969964E+02  0.18730372878E+02  0.44491230884E+02  0.10566000000E+00 0.  1.
         13    1    4    4    0    0  0.75449357250E+01  0.14818466840E+02  0.97974253898E+01  0.19300614573E+02  0.10566000000E+00 0. -1.
        -13    1    4    4    0    0  0.45800666179E+01  0.69989942836E+01  0.43939937372E+01  0.94488769811E+01  0.10566000000E+00 0.  1.
         14    1    4    4    0    0  0.78326509373E+01  0.13258508840E+02  0.92439737070E+01  0.17960777468E+02  0.00000000000E+00 0. -1.
<mgrwt>
<rscale>  0 0.80868794E+02</rscale>
<asrwt>0</asrwt>
<pdfrwt beam="1">  1        2 0.10259020E-01 0.80868794E+02</pdfrwt>
<pdfrwt beam="2">  1       -1 0.37719796E-02 0.80868794E+02</pdfrwt>
<totfact> 0.15497096E+05</totfact>
</mgrwt>
</event>
<event>
 8    1  0.1226832E-020  0.7583350E+02  0.7818608E-02  0.1341309E+00
         -1   -1    0    0    0  501 -0.00000000000E+00  0.00000000000E+00  0.12251986798E+02  0.12251987835E+02  0.50400000000E-02 0.  1.
          2   -1    0    0  501    0  0.00000000000E+00 -0.00000000000E+00 -0.11734258982E+03  0.11734258985E+03  0.25500000000E-02 0. -1.
         24    2    1    2    0    0  0.17763568394E-14  0.00000000000E+00 -0.10509060302E+03  0.12959457768E+03  0.75833499994E+02 0.  0.
         66    2    3    3    0    0 -0.15645683192E+02 -0.44464444480E+00 -0.11155092567E+03  0.11266141366E+03  0.19999996452E+01 0.  0.
        -13    1    3    3    0    0  0.15645683192E+02  0.44464444480E+00  0.64603226461E+01  0.16933164026E+02  0.10566000000E+00 0.  1.
         13    1    4    4    0    0 -0.79289551969E+01 -0.43568002769E+00 -0.61232998213E+02  0.61745845057E+02  0.10566000000E+00 0.  1.
        -13    1    4    4    0    0 -0.63739000321E+01  0.26769132042E+00 -0.42922288483E+02  0.43393919769E+02  0.10566000000E+00 0. -1.
        -14    1    4    4    0    0 -0.13428279625E+01 -0.27665573752E+00 -0.73956389730E+01  0.75216488321E+01  0.00000000000E+00 0.  1.
<mgrwt>
<rscale>  0 0.75833500E+02</rscale>
<asrwt>0</asrwt>
<pdfrwt beam="1">  1        2 0.18052705E-01 0.75833500E+02</pdfrwt>
<pdfrwt beam="2">  1       -1 0.18849212E-02 0.75833500E+02</pdfrwt>
<totfact> 0.21400281E+05</totfact>
</mgrwt>
</event>
<event>
 8    1  0.1226832E-020  0.7966420E+02  0.7818608E-02  0.1330007E+00
          2   -1    0    0  501    0  0.00000000000E+00  0.00000000000E+00  0.32067146112E+03  0.32067146113E+03  0.25500000000E-02 0. -1.
         -1   -1    0    0    0  501 -0.00000000000E+00 -0.00000000000E+00 -0.49477302227E+01  0.49477327897E+01  0.50400000000E-02 0.  1.
         24    2    1    2    0    0  0.00000000000E+00  0.35527136788E-14  0.31572373090E+03  0.32561919392E+03  0.79664202735E+02 0.  0.
         66    2    3    3    0    0 -0.27535448942E+02  0.27791552223E+02  0.12791940862E+03  0.13378320680E+03  0.19999992986E+01 0.  0.
        -13    1    3    3    0    0  0.27535448942E+02 -0.27791552223E+02  0.18780432228E+03  0.19183598712E+03  0.10566000000E+00 0.  1.
         13    1    4    4    0    0 -0.36567425390E+01  0.41059899015E+01  0.19338859137E+02  0.20105560321E+02  0.10566000000E+00 0. -1.
        -13    1    4    4    0    0 -0.18169734840E+01  0.20290818717E+01  0.98506323903E+01  0.10220796858E+02  0.10566000000E+00 0.  1.
         14    1    4    4    0    0 -0.22061732919E+02  0.21656480449E+02  0.98729917093E+02  0.10345684962E+03  0.00000000000E+00 0. -1.
<mgrwt>
<rscale>  0 0.79664203E+02</rscale>
<asrwt>0</asrwt>
<pdfrwt beam="1">  1        2 0.49334066E-01 0.79664203E+02</pdfrwt>
<pdfrwt beam="2">  1       -1 0.76118954E-03 0.79664203E+02</pdfrwt>
<totfact> 0.26405259E+05</totfact>
</mgrwt>
</event>
<event>
 8    1  0.1226832E-020  0.7006976E+02  0.7818608E-02  0.1359856E+00
          2   -1    0    0  501    0  0.00000000000E+00  0.00000000000E+00  0.13477222289E+02  0.13477222530E+02  0.25500000000E-02 0. -1.
         -1   -1    0    0    0  501 -0.00000000000E+00 -0.00000000000E+00 -0.91075356958E+02  0.91075357098E+02  0.50400000000E-02 0.  1.
         24    2    1    2    0    0  0.00000000000E+00  0.35527136788E-14 -0.77598134670E+02  0.10455257963E+03  0.70069760971E+02 0.  0.
         66    2    3    3    0    0 -0.96928155483E+01 -0.23544005797E+02 -0.29834135675E+01  0.25713257894E+02  0.19999981900E+01 0.  0.
        -13    1    3    3    0    0  0.96928155483E+01  0.23544005797E+02 -0.74614721102E+02  0.78839321734E+02  0.10566000000E+00 0.  1.
         13    1    4    4    0    0 -0.29790078403E+01 -0.71746392425E+01 -0.85099991746E+00  0.78157085967E+01  0.10566000000E+00 0. -1.
        -13    1    4    4    0    0 -0.15110685165E+01 -0.30964125609E+01  0.19509033755E+00  0.34525820895E+01  0.10566000000E+00 0.  1.
        -14    1    4    4    0    0 -0.52027391915E+01 -0.13272953994E+02 -0.23275039876E+01  0.14444967208E+02  0.00000000000E+00 0.  1.
<mgrwt>
<rscale>  0 0.70069761E+02</rscale>
<asrwt>0</asrwt>
<pdfrwt beam="1">  1        2 0.20734189E-02 0.70069761E+02</pdfrwt>
<pdfrwt beam="2">  1       -1 0.14011593E-01 0.70069761E+02</pdfrwt>
<totfact> 0.16794226E+05</totfact>
</mgrwt>
</event>
<event>
 8    1  0.1226832E-020  0.8007792E+02  0.7818608E-02  0.1328830E+00
         -1   -1    0    0    0  501 -0.00000000000E+00  0.00000000000E+00  0.12356328308E+02  0.12356329336E+02  0.50400000000E-02 0.  1.
          2   -1    0    0  501    0  0.00000000000E+00 -0.00000000000E+00 -0.12974066123E+03  0.12974066125E+03  0.25500000000E-02 0. -1.
         24    2    1    2    0    0  0.00000000000E+00  0.00000000000E+00 -0.11738433292E+03  0.14209699059E+03  0.80077919051E+02 0.  0.
         66    2    3    3    0    0  0.25358845519E+02  0.25980383869E+01 -0.11345913962E+03  0.11630476006E+03  0.19999996043E+01 0.  0.
        -13    1    3    3    0    0 -0.25358845519E+02 -0.25980383869E+01 -0.39251932993E+01  0.25792230535E+02  0.10566000000E+00 0.  1.
         13    1    4    4    0    0  0.12188341557E+02  0.84589367355E+00 -0.54164299995E+02  0.55525253390E+02  0.10566000000E+00 0. -1.
        -13    1    4    4    0    0  0.70970501406E+00  0.32146614082E+00 -0.44303398433E+01  0.44995662957E+01  0.10566000000E+00 0.  1.
        -14    1    4    4    0    0  0.12460798947E+02  0.14306785725E+01 -0.54864499783E+02  0.56279940370E+02  0.00000000000E+00 0.  1.
<mgrwt>
<rscale>  0 0.80077919E+02</rscale>
<asrwt>0</asrwt>
<pdfrwt beam="1">  1        2 0.19960101E-01 0.80077919E+02</pdfrwt>
<pdfrwt beam="2">  1       -1 0.19009738E-02 0.80077919E+02</pdfrwt>
<totfact> 0.19085243E+05</totfact>
</mgrwt>
</event>
<event>
 8    1  0.1226832E-020  0.7851230E+02  0.7818608E-02  0.1333327E+00
         -1   -1    0    0    0  501 -0.00000000000E+00  0.00000000000E+00  0.90246714938E+01  0.90246729011E+01  0.50400000000E-02 0.  1.
          2   -1    0    0  501    0  0.00000000000E+00 -0.00000000000E+00 -0.17075915769E+03  0.17075915770E+03  0.25500000000E-02 0. -1.
         24    2    1    2    0    0  0.00000000000E+00 -0.35527136788E-14 -0.16173448619E+03  0.17978383061E+03  0.78512303008E+02 0.  0.
         66    2    3    3    0    0 -0.20766696597E+02  0.22732477374E+02 -0.13658861290E+03  0.14003024809E+03  0.19999979330E+01 0.  0.
        -13    1    3    3    0    0  0.20766696597E+02 -0.22732477374E+02 -0.25145873296E+02  0.39753582517E+02  0.10566000000E+00 0.  1.
         13    1    4    4    0    0 -0.65368754883E+01  0.83059423787E+01 -0.48439229370E+02  0.49579123892E+02  0.10566000000E+00 0. -1.
        -13    1    4    4    0    0 -0.93419272872E+01  0.99096210859E+01 -0.59590012818E+02  0.61126532596E+02  0.10566000000E+00 0.  1.
         14    1    4    4    0    0 -0.48878938219E+01  0.45169139091E+01 -0.28559370709E+02  0.29324591601E+02  0.00000000000E+00 0. -1.
<mgrwt>
<rscale>  0 0.78512303E+02</rscale>
<asrwt>0</asrwt>
<pdfrwt beam="1">  1        2 0.26270637E-01 0.78512303E+02</pdfrwt>
<pdfrwt beam="2">  1       -1 0.13884112E-02 0.78512303E+02</pdfrwt>
<totfact> 0.21963864E+05</totfact>
</mgrwt>
</event>
<event>
 8    1  0.1226832E-020  0.8065047E+02  0.7818608E-02  0.1327216E+00
          2   -1    0    0  501    0  0.00000000000E+00  0.00000000000E+00  0.32086207055E+03  0.32086207056E+03  0.25500000000E-02 0. -1.
         -1   -1    0    0    0  501 -0.00000000000E+00 -0.00000000000E+00 -0.50679851376E+01  0.50679876437E+01  0.50400000000E-02 0.  1.
         24    2    1    2    0    0 -0.88817841970E-15  0.00000000000E+00  0.31579408541E+03  0.32593005820E+03  0.80650470918E+02 0.  0.
         66    2    3    3    0    0 -0.63729875137E+01  0.19244620813E+02  0.29875236951E+03  0.29944606974E+03  0.19999984769E+01 0.  0.
        -13    1    3    3    0    0  0.63729875137E+01 -0.19244620813E+02  0.17041715902E+02  0.26483988465E+02  0.10566000000E+00 0.  1.
         13    1    4    4    0    0 -0.24333947089E+01  0.68823388267E+01  0.98727296806E+02  0.98996860032E+02  0.10566000000E+00 0. -1.
        -13    1    4    4    0    0 -0.19973414685E+00  0.18921756942E+01  0.32042069470E+02  0.32098685371E+02  0.10566000000E+00 0.  1.
        -14    1    4    4    0    0 -0.37398586580E+01  0.10470106292E+02  0.16798300323E+03  0.16835052433E+03  0.00000000000E+00 0.  1.
<mgrwt>
<rscale>  0 0.80650471E+02</rscale>
<asrwt>0</asrwt>
<pdfrwt beam="1">  1        2 0.49363404E-01 0.80650471E+02</pdfrwt>
<pdfrwt beam="2">  1       -1 0.77969009E-03 0.80650471E+02</pdfrwt>
<totfact> 0.25573103E+05</totfact>
</mgrwt>
</event>
<event>
 8    1  0.1226832E-020  0.7866814E+02  0.7818608E-02  0.1332874E+00
         -1   -1    0    0    0  501 -0.00000000000E+00  0.00000000000E+00  0.12269549113E+02  0.12269550148E+02  0.50400000000E-02 0.  1.
          2   -1    0    0  501    0  0.00000000000E+00 -0.00000000000E+00 -0.12609827336E+03  0.12609827339E+03  0.25500000000E-02 0. -1.
         24    2    1    2    0    0  0.35527136788E-14  0.00000000000E+00 -0.11382872425E+03  0.13836782354E+03  0.78668139205E+02 0.  0.
         66    2    3    3    0    0  0.16599582207E+02  0.26305267769E+02 -0.99224617019E+02  0.10400498963E+03  0.20000010949E+01 0.  0.
        -13    1    3    3    0    0 -0.16599582207E+02 -0.26305267769E+02 -0.14604107233E+02  0.34362833905E+02  0.10566000000E+00 0.  1.
         13    1    4    4    0    0  0.12269146890E+02  0.18474806961E+02 -0.71993278696E+02  0.75331890983E+02  0.10566000000E+00 0. -1.
        -13    1    4    4    0    0  0.31870588400E+00  0.87300479831E+00 -0.33071284067E+01  0.34368551253E+01  0.10566000000E+00 0.  1.
        -14    1    4    4    0    0  0.40117294335E+01  0.69574560091E+01 -0.23924209916E+02  0.25236243526E+02  0.00000000000E+00 0.  1.
<mgrwt>
<rscale>  0 0.78668139E+02</rscale>
<asrwt>0</asrwt>
<pdfrwt beam="1">  1        2 0.19399733E-01 0.78668139E+02</pdfrwt>
<pdfrwt beam="2">  1       -1 0.18876231E-02 0.78668139E+02</pdfrwt>
<totfact> 0.19835136E+05</totfact>
</mgrwt>
</event>
<event>
 8    1  0.1226832E-020  0.7973223E+02  0.7818608E-02  0.1329813E+00
         -1   -1    0    0    0  501 -0.00000000000E+00  0.00000000000E+00  0.36226903452E+01  0.36226938511E+01  0.50400000000E-02 0.  1.
          2   -1    0    0  501    0  0.00000000000E+00 -0.00000000000E+00 -0.43870888248E+03  0.43870888249E+03  0.25500000000E-02 0. -1.
         24    2    1    2    0    0  0.35527136788E-14  0.00000000000E+00 -0.43508619214E+03  0.44233157634E+03  0.79732232126E+02 0.  0.
         66    2    3    3    0    0  0.13475233574E+02  0.16083763152E+02 -0.40556885387E+03  0.40611619591E+03  0.19999995427E+01 0.  0.
        -13    1    3    3    0    0 -0.13475233574E+02 -0.16083763152E+02 -0.29517338270E+02  0.36215380429E+02  0.10566000000E+00 0.  1.
         13    1    4    4    0    0  0.82957577243E+01  0.10651240815E+02 -0.24756499072E+03  0.24793286253E+03  0.10566000000E+00 0. -1.
        -13    1    4    4    0    0  0.27224889842E+01  0.28677521405E+01 -0.89732533307E+02  0.89819678503E+02  0.10566000000E+00 0.  1.
        -14    1    4    4    0    0  0.24569868655E+01  0.25647701963E+01 -0.68271329837E+02  0.68363654878E+02  0.00000000000E+00 0.  1.
<mgrwt>
<rscale>  0 0.79732232E+02</rscale>
<asrwt>0</asrwt>
<pdfrwt beam="1">  1        2 0.67493632E-01 0.79732232E+02</pdfrwt>
<pdfrwt beam="2">  1       -1 0.55733760E-03 0.79732232E+02</pdfrwt>
<totfact> 0.29423625E+05</totfact>
</mgrwt>
</event>
<event>
 8    1  0.1226832E-020  0.8056262E+02  0.7818608E-02  0.1327462E+00
          2   -1    0    0  501    0  0.00000000000E+00  0.00000000000E+00  0.13730416748E+04  0.13730416748E+04  0.25500000000E-02 0. -1.
         -1   -1    0    0    0  501 -0.00000000000E+00 -0.00000000000E+00 -0.11817387748E+01  0.11817495224E+01  0.50400000000E-02 0.  1.
         24    2    1    2    0    0  0.00000000000E+00 -0.17763568394E-14  0.13718599360E+04  0.13742234243E+04  0.80562620933E+02 0.  0.
         66    2    3    3    0    0 -0.15962749560E+02 -0.10332963568E+02  0.12916039525E+04  0.12917454662E+04  0.19999997747E+01 0.  0.
        -13    1    3    3    0    0  0.15962749560E+02  0.10332963568E+02  0.80255983509E+02  0.82477958041E+02  0.10566000000E+00 0.  1.
         13    1    4    4    0    0 -0.13195513372E+01 -0.51161441113E+00  0.10504804037E+03  0.10505762664E+03  0.10566000000E+00 0. -1.
        -13    1    4    4    0    0 -0.49240036474E+00 -0.27748496824E+00  0.25547396217E+02  0.25553866118E+02  0.10566000000E+00 0.  1.
         14    1    4    4    0    0 -0.14150797858E+02 -0.95438641882E+01  0.11610085159E+04  0.11611339735E+04  0.00000000000E+00 0. -1.
<mgrwt>
<rscale>  0 0.80562621E+02</rscale>
<asrwt>0</asrwt>
<pdfrwt beam="1">  1        2 0.21123650E+00 0.80562621E+02</pdfrwt>
<pdfrwt beam="2">  1       -1 0.18180738E-03 0.80562621E+02</pdfrwt>
<totfact> 0.33575885E+05</totfact>
</mgrwt>
</event>
<event>
 8    1  0.1226832E-020  0.7915657E+02  0.7818608E-02  0.1331462E+00
          2   -1    0    0  501    0  0.00000000000E+00  0.00000000000E+00  0.63094639197E+02  0.63094639248E+02  0.25500000000E-02 0. -1.
         -1   -1    0    0    0  501 -0.00000000000E+00 -0.00000000000E+00 -0.24826841029E+02  0.24826841541E+02  0.50400000000E-02 0.  1.
         24    2    1    2    0    0  0.00000000000E+00  0.00000000000E+00  0.38267798167E+02  0.87921480789E+02  0.79156568948E+02 0.  0.
         66    2    3    3    0    0  0.30433719564E+02 -0.17811093828E+01  0.47136709646E+02  0.56171639970E+02  0.20000258986E+01 0.  0.
        -13    1    3    3    0    0 -0.30433719564E+02  0.17811093828E+01 -0.88689114781E+01  0.31749840819E+02  0.10566000000E+00 0.  1.
         13    1    4    4    0    0  0.69995638280E+01 -0.11382551834E+01  0.11327299744E+02  0.13364445449E+02  0.10566000000E+00 0. -1.
        -13    1    4    4    0    0  0.66167166876E+01  0.31179982221E-01  0.10565160295E+02  0.12466582852E+02  0.10566000000E+00 0. -1.
        -14    1    4    4    0    0  0.16817439049E+02 -0.67403418164E+00  0.25244249607E+02  0.30340611669E+02  0.00000000000E+00 0.  1.
<mgrwt>
<rscale>  0 0.79156569E+02</rscale>
<asrwt>0</asrwt>
<pdfrwt beam="1">  1        2 0.97068673E-02 0.79156569E+02</pdfrwt>
<pdfrwt beam="2">  1       -1 0.38195142E-02 0.79156569E+02</pdfrwt>
<totfact> 0.16209316E+05</totfact>
</mgrwt>
</event>
<event>
 8    1  0.1487657E-020  0.8101582E+02  0.7818608E-02  0.1326193E+00
         -1   -1    0    0    0  501 -0.00000000000E+00  0.00000000000E+00  0.11604704670E+02  0.11604705765E+02  0.50400000000E-02 0.  1.
          2   -1    0    0  501    0  0.00000000000E+00 -0.00000000000E+00 -0.14139874799E+03  0.14139874802E+03  0.25500000000E-02 0. -1.
         24    2    1    2    0    0  0.35527136788E-14 -0.35527136788E-14 -0.12979404332E+03  0.15300345378E+03  0.81015820596E+02 0.  0.
         66    2    3    3    0    0  0.26698599058E+02 -0.28825646082E+02 -0.83358686827E+02  0.92175938949E+02  0.19999969538E+01 0.  0.
        -13    1    3    3    0    0 -0.26698599058E+02  0.28825646082E+02 -0.46435356496E+02  0.60827514833E+02  0.10566000000E+00 0.  1.
         13    1    4    4    0    0  0.12065192951E+02 -0.13336541826E+02 -0.38321566213E+02  0.42331853608E+02  0.10566000000E+00 0. -1.
        -13    1    4    4    0    0  0.13295058538E+02 -0.13752899552E+02 -0.41219829700E+02  0.45442120902E+02  0.10566000000E+00 0.  1.
        -14    1    4    4    0    0  0.13383475693E+01 -0.17362047047E+01 -0.38172909147E+01  0.44019644388E+01  0.00000000000E+00 0.  1.
<mgrwt>
<rscale>  0 0.81015821E+02</rscale>
<asrwt>0</asrwt>
<pdfrwt beam="1">  1        2 0.21753652E-01 0.81015821E+02</pdfrwt>
<pdfrwt beam="2">  1       -1 0.17853394E-02 0.81015821E+02</pdfrwt>
<totfact> 0.19007362E+05</totfact>
</mgrwt>
</event>
<event>
 8    1  0.1226832E-020  0.8169825E+02  0.7818608E-02  0.1324300E+00
         -1   -1    0    0    0  501 -0.00000000000E+00  0.00000000000E+00  0.40537527494E+01  0.40537558825E+01  0.50400000000E-02 0.  1.
          2   -1    0    0  501    0  0.00000000000E+00 -0.00000000000E+00 -0.41163104827E+03  0.41163104828E+03  0.25500000000E-02 0. -1.
         24    2    1    2    0    0 -0.71054273576E-14  0.00000000000E+00 -0.40757729553E+03  0.41568480417E+03  0.81698253262E+02 0.  0.
         66    2    3    3    0    0  0.40102218603E+02  0.76409339556E+01 -0.20252305610E+03  0.20660629241E+03  0.20000003873E+01 0.  0.
        -13    1    3    3    0    0 -0.40102218603E+02 -0.76409339556E+01 -0.20505423942E+03  0.20907851175E+03  0.10566000000E+00 0.  1.
         13    1    4    4    0    0  0.85914986127E+01  0.22426148186E+01 -0.41673250939E+02  0.42608850929E+02  0.10566000000E+00 0.  1.
        -13    1    4    4    0    0  0.25479681180E+02  0.42886372783E+01 -0.13122878695E+03  0.13374831681E+03  0.10566000000E+00 0. -1.
        -14    1    4    4    0    0  0.60310388100E+01  0.11096818587E+01 -0.29621018219E+02  0.30249124670E+02  0.00000000000E+00 0.  1.
<mgrwt>
<rscale>  0 0.81698253E+02</rscale>
<asrwt>0</asrwt>
<pdfrwt beam="1">  1        2 0.63327821E-01 0.81698253E+02</pdfrwt>
<pdfrwt beam="2">  1       -1 0.62365484E-03 0.81698253E+02</pdfrwt>
<totfact> 0.27012184E+05</totfact>
</mgrwt>
</event>
<event>
 8    1  0.1226832E-020  0.8018832E+02  0.7818608E-02  0.1328518E+00
         -1   -1    0    0    0  501 -0.00000000000E+00  0.00000000000E+00  0.15024928941E+01  0.15025013472E+01  0.50400000000E-02 0.  1.
          2   -1    0    0  501    0  0.00000000000E+00 -0.00000000000E+00 -0.10699133936E+04  0.10699133936E+04  0.25500000000E-02 0. -1.
         24    2    1    2    0    0 -0.35527136788E-14  0.00000000000E+00 -0.10684109007E+04  0.10714158950E+04  0.80188323370E+02 0.  0.
         66    2    3    3    0    0 -0.28202424356E+02  0.41217838484E+01 -0.91083349570E+03  0.91128152770E+03  0.20000000071E+01 0.  0.
        -13    1    3    3    0    0  0.28202424356E+02 -0.41217838484E+01 -0.15757740502E+03  0.16013436727E+03  0.10566000000E+00 0.  1.
         13    1    4    4    0    0 -0.16778258231E+02  0.28734631452E+01 -0.53424202611E+03  0.53451316201E+03  0.10566000000E+00 0. -1.
        -13    1    4    4    0    0 -0.25525213079E+01  0.13090507326E+00 -0.70832277626E+02  0.70878453841E+02  0.10566000000E+00 0.  1.
         14    1    4    4    0    0 -0.88716448181E+01  0.11174156300E+01 -0.30575919196E+03  0.30588991185E+03  0.00000000000E+00 0. -1.
<mgrwt>
<rscale>  0 0.80188323E+02</rscale>
<asrwt>0</asrwt>
<pdfrwt beam="1">  1        2 0.16460145E+00 0.80188323E+02</pdfrwt>
<pdfrwt beam="2">  1       -1 0.23115426E-03 0.80188323E+02</pdfrwt>
<totfact> 0.35056964E+05</totfact>
</mgrwt>
</event>
<event>
 8    1  0.1226832E-020  0.7707801E+02  0.7818608E-02  0.1337554E+00
         -1   -1    0    0    0  501 -0.00000000000E+00  0.00000000000E+00  0.19049319563E+02  0.19049320230E+02  0.50400000000E-02 0.  1.
          2   -1    0    0  501    0  0.00000000000E+00 -0.00000000000E+00 -0.77968926325E+02  0.77968926366E+02  0.25500000000E-02 0. -1.
         24    2    1    2    0    0 -0.35527136788E-14  0.00000000000E+00 -0.58919606762E+02  0.97018246596E+02  0.77078013153E+02 0.  0.
         66    2    3    3    0    0 -0.25394753839E+02 -0.16350804482E+02 -0.59557234369E+02  0.66807982400E+02  0.20000042244E+01 0.  0.
        -13    1    3    3    0    0  0.25394753839E+02  0.16350804482E+02  0.63762760744E+00  0.30210264196E+02  0.10566000000E+00 0.  1.
         13    1    4    4    0    0 -0.49813640236E+01 -0.38258987768E+01 -0.11928833933E+02  0.13481829699E+02  0.10566000000E+00 0. -1.
        -13    1    4    4    0    0 -0.11975028948E+01 -0.10819480748E+01 -0.33544168534E+01  0.37239631149E+01  0.10566000000E+00 0.  1.
         14    1    4    4    0    0 -0.19215886921E+02 -0.11442957630E+02 -0.44273983582E+02  0.49602189586E+02  0.00000000000E+00 0. -1.
<mgrwt>
<rscale>  0 0.77078013E+02</rscale>
<asrwt>0</asrwt>
<pdfrwt beam="1">  1        2 0.11995219E-01 0.77078013E+02</pdfrwt>
<pdfrwt beam="2">  1       -1 0.29306646E-02 0.77078013E+02</pdfrwt>
<totfact> 0.18333434E+05</totfact>
</mgrwt>
</event>
<event>
 8    1  0.1226832E-020  0.8036898E+02  0.7818608E-02  0.1328008E+00
          2   -1    0    0  501    0  0.00000000000E+00  0.00000000000E+00  0.52663308986E+03  0.52663308986E+03  0.25500000000E-02 0. -1.
         -1   -1    0    0    0  501 -0.00000000000E+00 -0.00000000000E+00 -0.30662564969E+01  0.30662606391E+01  0.50400000000E-02 0.  1.
         24    2    1    2    0    0  0.00000000000E+00  0.00000000000E+00  0.52356683336E+03  0.52969935050E+03  0.80368979885E+02 0.  0.
         66    2    3    3    0    0 -0.15055440701E+02 -0.38996865474E+01  0.50597672985E+03  0.50621964107E+03  0.19999990839E+01 0.  0.
        -13    1    3    3    0    0  0.15055440701E+02  0.38996865474E+01  0.17590103505E+02  0.23479709436E+02  0.10566000000E+00 0.  1.
         13    1    4    4    0    0 -0.10934831364E+02 -0.33661859072E+01  0.37729867575E+03  0.37747212299E+03  0.10566000000E+00 0. -1.
        -13    1    4    4    0    0 -0.11522289605E+01  0.17170660042E+00  0.39304034358E+02  0.39321436845E+02  0.10566000000E+00 0.  1.
        -14    1    4    4    0    0 -0.29683803758E+01 -0.70520724062E+00  0.89374019745E+02  0.89426081233E+02  0.00000000000E+00 0.  1.
<mgrwt>
<rscale>  0 0.80368980E+02</rscale>
<asrwt>0</asrwt>
<pdfrwt beam="1">  1        2 0.81020435E-01 0.80368980E+02</pdfrwt>
<pdfrwt beam="2">  1       -1 0.47173232E-03 0.80368980E+02</pdfrwt>
<totfact> 0.30582295E+05</totfact>
</mgrwt>
</event>
<event>
 8    1  0.1226832E-020  0.7143308E+02  0.7818608E-02  0.1355287E+00
          2   -1    0    0  501    0  0.00000000000E+00  0.00000000000E+00  0.50044722558E+03  0.50044722558E+03  0.25500000000E-02 0. -1.
         -1   -1    0    0    0  501 -0.00000000000E+00 -0.00000000000E+00 -0.25490598522E+01  0.25490648348E+01  0.50400000000E-02 0.  1.
         24    2    1    2    0    0  0.00000000000E+00  0.17763568394E-14  0.49789816573E+03  0.50299629042E+03  0.71433078770E+02 0.  0.
         66    2    3    3    0    0 -0.30982537945E+02  0.12252833456E+02  0.33921352312E+03  0.34085167426E+03  0.19999989462E+01 0.  0.
        -13    1    3    3    0    0  0.30982537945E+02 -0.12252833456E+02  0.15868464261E+03  0.16214461616E+03  0.10566000000E+00 0.  1.
         13    1    4    4    0    0 -0.42191782549E+01  0.13189770256E+01  0.45150157676E+02  0.45366166553E+02  0.10566000000E+00 0. -1.
        -13    1    4    4    0    0 -0.92748905400E+01  0.30490715284E+01  0.10249162136E+03  0.10295564115E+03  0.10566000000E+00 0.  1.
        -14    1    4    4    0    0 -0.17488469150E+02  0.78847849021E+01  0.19157174408E+03  0.19252986656E+03  0.00000000000E+00 0.  1.
<mgrwt>
<rscale>  0 0.71433079E+02</rscale>
<asrwt>0</asrwt>
<pdfrwt beam="1">  1        2 0.76991797E-01 0.71433079E+02</pdfrwt>
<pdfrwt beam="2">  1       -1 0.39216387E-03 0.71433079E+02</pdfrwt>
<totfact> 0.40846836E+05</totfact>
</mgrwt>
</event>
<event>
 8    1  0.1226832E-020  0.8857417E+02  0.7818608E-02  0.1306342E+00
          2   -1    0    0  501    0  0.00000000000E+00  0.00000000000E+00  0.27921376200E+03  0.27921376201E+03  0.25500000000E-02 0. -1.
         -1   -1    0    0    0  501 -0.00000000000E+00 -0.00000000000E+00 -0.70245303216E+01  0.70245321296E+01  0.50400000000E-02 0.  1.
         24    2    1    2    0    0  0.00000000000E+00  0.00000000000E+00  0.27218923168E+03  0.28623829414E+03  0.88574167742E+02 0.  0.
         66    2    3    3    0    0 -0.71072735131E+01 -0.74875322983E+01  0.27526496536E+03  0.27546574669E+03  0.19999932438E+01 0.  0.
        -13    1    3    3    0    0  0.71072735131E+01  0.74875322983E+01 -0.30757336807E+01  0.10772547443E+02  0.10566000000E+00 0.  1.
         13    1    4    4    0    0 -0.40127734259E+01 -0.33552693018E+01  0.14497493829E+03  0.14506930784E+03  0.10566000000E+00 0. -1.
        -13    1    4    4    0    0 -0.13640176027E+01 -0.23818670308E+01  0.58945125701E+02  0.59009091185E+02  0.10566000000E+00 0.  1.
        -14    1    4    4    0    0 -0.17304824846E+01 -0.17503959657E+01  0.71344901369E+02  0.71387347668E+02  0.00000000000E+00 0.  1.
<mgrwt>
<rscale>  0 0.88574168E+02</rscale>
<asrwt>0</asrwt>
<pdfrwt beam="1">  1        2 0.42955958E-01 0.88574168E+02</pdfrwt>
<pdfrwt beam="2">  1       -1 0.10806973E-02 0.88574168E+02</pdfrwt>
<totfact> 0.18989232E+05</totfact>
</mgrwt>
</event>
<event>
 8    1  0.1226832E-020  0.8876611E+02  0.7818608E-02  0.1305868E+00
         -1   -1    0    0    0  501 -0.00000000000E+00  0.00000000000E+00  0.32001982840E+01  0.32002022528E+01  0.50400000000E-02 0.  1.
          2   -1    0    0  501    0  0.00000000000E+00 -0.00000000000E+00 -0.61554137510E+03  0.61554137510E+03  0.25500000000E-02 0. -1.
         24    2    1    2    0    0  0.00000000000E+00  0.00000000000E+00 -0.61234117681E+03  0.61874157735E+03  0.88766112493E+02 0.  0.
         66    2    3    3    0    0 -0.25736756868E+02  0.12862885047E+01 -0.55801801324E+03  0.55861627106E+03  0.20000006989E+01 0.  0.
        -13    1    3    3    0    0  0.25736756868E+02 -0.12862885047E+01 -0.54323163573E+02  0.60125306293E+02  0.10566000000E+00 0.  1.
         13    1    4    4    0    0 -0.50070576583E+01  0.28109052587E+00 -0.12571003733E+03  0.12581007228E+03  0.10566000000E+00 0. -1.
        -13    1    4    4    0    0 -0.12136563332E+01  0.89022634345E-02 -0.24264944358E+02  0.24295508426E+02  0.10566000000E+00 0.  1.
         14    1    4    4    0    0 -0.19516042877E+02  0.99629571542E+00 -0.40804303155E+03  0.40851069035E+03  0.00000000000E+00 0. -1.
<mgrwt>
<rscale>  0 0.88766112E+02</rscale>
<asrwt>0</asrwt>
<pdfrwt beam="1">  1        2 0.94698579E-01 0.88766112E+02</pdfrwt>
<pdfrwt beam="2">  1       -1 0.49233899E-03 0.88766112E+02</pdfrwt>
<totfact> 0.24679122E+05</totfact>
</mgrwt>
</event>
<event>
 8    1  0.1226832E-020  0.8131067E+02  0.7818608E-02  0.1325373E+00
          2   -1    0    0  501    0  0.00000000000E+00  0.00000000000E+00  0.21700070616E+03  0.21700070618E+03  0.25500000000E-02 0. -1.
         -1   -1    0    0    0  501 -0.00000000000E+00 -0.00000000000E+00 -0.76168236199E+01  0.76168252873E+01  0.50400000000E-02 0.  1.
         24    2    1    2    0    0  0.00000000000E+00 -0.35527136788E-14  0.20938388254E+03  0.22461753146E+03  0.81310670718E+02 0.  0.
         66    2    3    3    0    0 -0.44080909047E+01  0.30059928858E+02  0.17928119089E+03  0.18184822241E+03  0.19999994034E+01 0.  0.
        -13    1    3    3    0    0  0.44080909047E+01 -0.30059928858E+02  0.30102691649E+02  0.42769309054E+02  0.10566000000E+00 0.  1.
         13    1    4    4    0    0 -0.27780242477E-01  0.21025959260E+01  0.14782918160E+02  0.14932096796E+02  0.10566000000E+00 0.  1.
        -13    1    4    4    0    0 -0.32654185542E+01  0.21167971128E+02  0.12272025930E+03  0.12457535538E+03  0.10566000000E+00 0. -1.
         14    1    4    4    0    0 -0.11148921080E+01  0.67893618043E+01  0.41778013430E+02  0.42340770237E+02  0.00000000000E+00 0. -1.
<mgrwt>
<rscale>  0 0.81310671E+02</rscale>
<asrwt>0</asrwt>
<pdfrwt beam="1">  1        2 0.33384725E-01 0.81310671E+02</pdfrwt>
<pdfrwt beam="2">  1       -1 0.11718191E-02 0.81310671E+02</pdfrwt>
<totfact> 0.21744965E+05</totfact>
</mgrwt>
</event>
<event>
 8    1  0.1226832E-020  0.8038178E+02  0.7818608E-02  0.1327971E+00
          2   -1    0    0  501    0  0.00000000000E+00  0.00000000000E+00  0.39850580049E+03  0.39850580050E+03  0.25500000000E-02 0. -1.
         -1   -1    0    0    0  501 -0.00000000000E+00 -0.00000000000E+00 -0.40534086829E+01  0.40534118162E+01  0.50400000000E-02 0.  1.
         24    2    1    2    0    0 -0.35527136788E-14  0.00000000000E+00  0.39445239181E+03  0.40255921231E+03  0.80381776646E+02 0.  0.
         66    2    3    3    0    0 -0.31814242562E+02  0.16531384445E+02  0.28803033102E+03  0.29026006322E+03  0.20000026280E+01 0.  0.
        -13    1    3    3    0    0  0.31814242562E+02 -0.16531384445E+02  0.10642206079E+03  0.11229914910E+03  0.10566000000E+00 0.  1.
         13    1    4    4    0    0 -0.15268961734E+02  0.83422485526E+01  0.14034887554E+03  0.14142330901E+03  0.10566000000E+00 0. -1.
        -13    1    4    4    0    0 -0.94711918666E+00  0.80153998358E+00  0.10755329869E+02  0.10827178105E+02  0.10566000000E+00 0.  1.
         14    1    4    4    0    0 -0.15598161642E+02  0.73875959087E+01  0.13692612562E+03  0.13800957610E+03  0.00000000000E+00 0. -1.
<mgrwt>
<rscale>  0 0.80381777E+02</rscale>
<asrwt>0</asrwt>
<pdfrwt beam="1">  1        2 0.61308589E-01 0.80381777E+02</pdfrwt>
<pdfrwt beam="2">  1       -1 0.62360153E-03 0.80381777E+02</pdfrwt>
<totfact> 0.27867827E+05</totfact>
</mgrwt>
</event>
<event>
 8    1  0.1226832E-020  0.7802214E+02  0.7818608E-02  0.1334760E+00
         -1   -1    0    0    0  501 -0.00000000000E+00  0.00000000000E+00  0.47552840905E+01  0.47552867614E+01  0.50400000000E-02 0.  1.
          2   -1    0    0  501    0  0.00000000000E+00 -0.00000000000E+00 -0.32003620012E+03  0.32003620013E+03  0.25500000000E-02 0. -1.
         24    2    1    2    0    0  0.00000000000E+00  0.00000000000E+00 -0.31528091603E+03  0.32479148689E+03  0.78022137531E+02 0.  0.
         66    2    3    3    0    0 -0.19522942565E+02 -0.33621781671E+02 -0.16972879810E+03  0.17413625237E+03  0.19999995085E+01 0.  0.
        -13    1    3    3    0    0  0.19522942565E+02  0.33621781671E+02 -0.14555211794E+03  0.15065523452E+03  0.10566000000E+00 0.  1.
         13    1    4    4    0    0 -0.11551789882E+02 -0.19076996024E+02 -0.99234986950E+02  0.10171022282E+03  0.10566000000E+00 0. -1.
        -13    1    4    4    0    0 -0.93882218410E-01 -0.24091698026E+00 -0.91322129124E+00  0.95498273528E+00  0.10566000000E+00 0. -1.
         14    1    4    4    0    0 -0.78772704651E+01 -0.14303868667E+02 -0.69580589854E+02  0.71471046818E+02  0.00000000000E+00 0. -1.
<mgrwt>
<rscale>  0 0.78022138E+02</rscale>
<asrwt>0</asrwt>
<pdfrwt beam="1">  1        2 0.49236322E-01 0.78022138E+02</pdfrwt>
<pdfrwt beam="2">  1       -1 0.73158262E-03 0.78022138E+02</pdfrwt>
<totfact> 0.27863776E+05</totfact>
</mgrwt>
</event>
<event>
 8    1  0.1226832E-020  0.7671368E+02  0.7818608E-02  0.1338645E+00
          2   -1    0    0  501    0  0.00000000000E+00  0.00000000000E+00  0.19429760413E+02  0.19429760581E+02  0.25500000000E-02 0. -1.
         -1   -1    0    0    0  501 -0.00000000000E+00 -0.00000000000E+00 -0.75721313051E+02  0.75721313218E+02  0.50400000000E-02 0.  1.
         24    2    1    2    0    0  0.00000000000E+00  0.35527136788E-14 -0.56291552637E+02  0.95151073799E+02  0.76713675096E+02 0.  0.
         66    2    3    3    0    0  0.18616071070E+02 -0.19382215527E+02  0.57355750666E+01  0.27552226796E+02  0.19999998137E+01 0.  0.
        -13    1    3    3    0    0 -0.18616071070E+02  0.19382215527E+02 -0.62027127704E+02  0.67598847002E+02  0.10566000000E+00 0.  1.
         13    1    4    4    0    0  0.56342985926E+01 -0.56777284114E+01  0.16748497077E+01  0.81730169535E+01  0.10566000000E+00 0. -1.
        -13    1    4    4    0    0  0.67853326470E+01 -0.83096702431E+01  0.20885282832E+01  0.10929980471E+02  0.10566000000E+00 0.  1.
        -14    1    4    4    0    0  0.61964398305E+01 -0.53948168730E+01  0.19721970757E+01  0.84492293715E+01  0.00000000000E+00 0.  1.
<mgrwt>
<rscale>  0 0.76713675E+02</rscale>
<asrwt>0</asrwt>
<pdfrwt beam="1">  1        2 0.29891940E-02 0.76713675E+02</pdfrwt>
<pdfrwt beam="2">  1       -1 0.11649433E-01 0.76713675E+02</pdfrwt>
<totfact> 0.13919650E+05</totfact>
</mgrwt>
</event>
<event>
 8    1  0.1226832E-020  0.7814823E+02  0.7818608E-02  0.1334390E+00
         -1   -1    0    0    0  501 -0.00000000000E+00  0.00000000000E+00  0.61981104653E+01  0.61981125145E+01  0.50400000000E-02 0.  1.
          2   -1    0    0  501    0  0.00000000000E+00 -0.00000000000E+00 -0.24633091420E+03  0.24633091422E+03  0.25500000000E-02 0. -1.
         24    2    1    2    0    0  0.00000000000E+00  0.00000000000E+00 -0.24013280374E+03  0.25252902673E+03  0.78148230374E+02 0.  0.
         66    2    3    3    0    0  0.11132405522E+02  0.69856747465E+01 -0.23896460803E+03  0.23933410537E+03  0.19999995054E+01 0.  0.
        -13    1    3    3    0    0 -0.11132405522E+02 -0.69856747465E+01 -0.11681957039E+01  0.13194921357E+02  0.10566000000E+00 0.  1.
         13    1    4    4    0    0  0.48680145241E+01  0.27440063182E+01 -0.10233842831E+03  0.10249093721E+03  0.10566000000E+00 0. -1.
        -13    1    4    4    0    0  0.17292582677E+01  0.19747840959E+01 -0.49240257139E+02  0.49310284865E+02  0.10566000000E+00 0.  1.
        -14    1    4    4    0    0  0.45351327304E+01  0.22668843324E+01 -0.87385922585E+02  0.87532883303E+02  0.00000000000E+00 0.  1.
<mgrwt>
<rscale>  0 0.78148230E+02</rscale>
<asrwt>0</asrwt>
<pdfrwt beam="1">  1        2 0.37897056E-01 0.78148230E+02</pdfrwt>
<pdfrwt beam="2">  1       -1 0.95355581E-03 0.78148230E+02</pdfrwt>
<totfact> 0.25248617E+05</totfact>
</mgrwt>
</event>
<event>
 8    1  0.1226832E-020  0.8129785E+02  0.7818608E-02  0.1325408E+00
         -1   -1    0    0    0  501 -0.00000000000E+00  0.00000000000E+00  0.47495106469E+01  0.47495133210E+01  0.50400000000E-02 0.  1.
          2   -1    0    0  501    0  0.00000000000E+00 -0.00000000000E+00 -0.34789579543E+03  0.34789579544E+03  0.25500000000E-02 0. -1.
         24    2    1    2    0    0  0.00000000000E+00  0.00000000000E+00 -0.34314628479E+03  0.35264530876E+03  0.81297853787E+02 0.  0.
         66    2    3    3    0    0 -0.30953244866E+02 -0.26121913762E+02 -0.18530598115E+03  0.18969123436E+03  0.19999998596E+01 0.  0.
        -13    1    3    3    0    0  0.30953244866E+02  0.26121913762E+02 -0.15784030364E+03  0.16295407440E+03  0.10566000000E+00 0.  1.
         13    1    4    4    0    0 -0.26096368988E+01 -0.19599273570E+01 -0.16195727323E+02  0.16521630293E+02  0.10566000000E+00 0. -1.
        -13    1    4    4    0    0 -0.61704728764E+01 -0.59877214868E+01 -0.40411865834E+02  0.41316553684E+02  0.10566000000E+00 0.  1.
        -14    1    4    4    0    0 -0.22173135091E+02 -0.18174264918E+02 -0.12869838799E+03  0.13185305039E+03  0.00000000000E+00 0.  1.
<mgrwt>
<rscale>  0 0.81297854E+02</rscale>
<asrwt>0</asrwt>
<pdfrwt beam="1">  1        2 0.53522410E-01 0.81297854E+02</pdfrwt>
<pdfrwt beam="2">  1       -1 0.73069443E-03 0.81297854E+02</pdfrwt>
<totfact> 0.25781829E+05</totfact>
</mgrwt>
</event>
<event>
 8    1  0.1381910E-020  0.8063882E+02  0.7818608E-02  0.1327248E+00
         -1   -1    0    0    0  501 -0.00000000000E+00  0.00000000000E+00  0.10713924903E+02  0.10713926089E+02  0.50400000000E-02 0.  1.
          2   -1    0    0  501    0  0.00000000000E+00 -0.00000000000E+00 -0.15173288574E+03  0.15173288576E+03  0.25500000000E-02 0. -1.
         24    2    1    2    0    0  0.00000000000E+00 -0.17763568394E-14 -0.14101896084E+03  0.16244681185E+03  0.80638820458E+02 0.  0.
         66    2    3    3    0    0 -0.18886171072E+02  0.97108230261E+01 -0.13953754875E+03  0.14115847496E+03  0.20000003023E+01 0.  0.
        -13    1    3    3    0    0  0.18886171072E+02 -0.97108230261E+01 -0.14814120870E+01  0.21288336887E+02  0.10566000000E+00 0.  1.
         13    1    4    4    0    0 -0.12806369905E+02  0.64409760384E+01 -0.94090194976E+02  0.95175969851E+02  0.10566000000E+00 0. -1.
        -13    1    4    4    0    0 -0.38704900943E+01  0.24574912253E+01 -0.32645088673E+02  0.32965632637E+02  0.10566000000E+00 0.  1.
        -14    1    4    4    0    0 -0.22093110726E+01  0.81235576242E+00 -0.12802265100E+02  0.13016872473E+02  0.00000000000E+00 0.  1.
<mgrwt>
<rscale>  0 0.80638820E+02</rscale>
<asrwt>0</asrwt>
<pdfrwt beam="1">  1        2 0.23343519E-01 0.80638820E+02</pdfrwt>
<pdfrwt beam="2">  1       -1 0.16482963E-02 0.80638820E+02</pdfrwt>
<totfact> 0.19684477E+05</totfact>
</mgrwt>
</event>
<event>
 8    1  0.1226832E-020  0.8145417E+02  0.7818608E-02  0.1324975E+00
          2   -1    0    0  501    0  0.00000000000E+00  0.00000000000E+00  0.12137887392E+03  0.12137887395E+03  0.25500000000E-02 0. -1.
         -1   -1    0    0    0  501 -0.00000000000E+00 -0.00000000000E+00 -0.13665437635E+02  0.13665438564E+02  0.50400000000E-02 0.  1.
         24    2    1    2    0    0  0.00000000000E+00  0.00000000000E+00  0.10771343629E+03  0.13504431251E+03  0.81454171075E+02 0.  0.
         66    2    3    3    0    0 -0.24579455396E+02 -0.11643175312E+02  0.10409355399E+03  0.10760660359E+03  0.19999991446E+01 0.  0.
        -13    1    3    3    0    0  0.24579455396E+02  0.11643175312E+02  0.36198823019E+01  0.27437708921E+02  0.10566000000E+00 0.  1.
         13    1    4    4    0    0 -0.12022794526E+02 -0.58354822283E+01  0.53167578176E+02  0.54821555744E+02  0.10566000000E+00 0. -1.
        -13    1    4    4    0    0 -0.48536348848E+01 -0.28295160248E+01  0.19768352426E+02  0.20551468419E+02  0.10566000000E+00 0.  1.
         14    1    4    4    0    0 -0.77030259853E+01 -0.29781770591E+01  0.31157623385E+02  0.32233579431E+02  0.00000000000E+00 0. -1.
<mgrwt>
<rscale>  0 0.81454171E+02</rscale>
<asrwt>0</asrwt>
<pdfrwt beam="1">  1        2 0.18673673E-01 0.81454171E+02</pdfrwt>
<pdfrwt beam="2">  1       -1 0.21023751E-02 0.81454171E+02</pdfrwt>
<totfact> 0.17870497E+05</totfact>
</mgrwt>
</event>
<event>
 8    1  0.1226832E-020  0.7684306E+02  0.7818608E-02  0.1338257E+00
         -1   -1    0    0    0  501 -0.00000000000E+00  0.00000000000E+00  0.11362100767E+02  0.11362101884E+02  0.50400000000E-02 0.  1.
          2   -1    0    0  501    0  0.00000000000E+00 -0.00000000000E+00 -0.12992437903E+03  0.12992437905E+03  0.25500000000E-02 0. -1.
         24    2    1    2    0    0  0.00000000000E+00  0.88817841970E-15 -0.11856227826E+03  0.14128648094E+03  0.76843059993E+02 0.  0.
         66    2    3    3    0    0  0.86941336503E+01 -0.52024781430E+01 -0.12741420867E+03  0.12783205509E+03  0.19999999399E+01 0.  0.
        -13    1    3    3    0    0 -0.86941336503E+01  0.52024781430E+01  0.88519304092E+01  0.13454425843E+02  0.10566000000E+00 0.  1.
         13    1    4    4    0    0  0.67416090353E+01 -0.39245050614E+01 -0.95859265973E+02  0.96176198039E+02  0.10566000000E+00 0. -1.
        -13    1    4    4    0    0  0.63043044664E+00 -0.43157624825E+00 -0.16788155389E+02  0.16805862846E+02  0.10566000000E+00 0.  1.
        -14    1    4    4    0    0  0.13220941683E+01 -0.84639683335E+00 -0.14766787308E+02  0.14849994208E+02  0.00000000000E+00 0.  1.
<mgrwt>
<rscale>  0 0.76843060E+02</rscale>
<asrwt>0</asrwt>
<pdfrwt beam="1">  1        2 0.19988365E-01 0.76843060E+02</pdfrwt>
<pdfrwt beam="2">  1       -1 0.17480157E-02 0.76843060E+02</pdfrwt>
<totfact> 0.21303360E+05</totfact>
</mgrwt>
</event>
<event>
 8    1  0.1286102E-020  0.8185618E+02  0.7818608E-02  0.1323865E+00
         -1   -1    0    0    0  501 -0.00000000000E+00  0.00000000000E+00  0.48553593706E+01  0.48553619864E+01  0.50400000000E-02 0.  1.
          2   -1    0    0  501    0  0.00000000000E+00 -0.00000000000E+00 -0.34500185199E+03  0.34500185200E+03  0.25500000000E-02 0. -1.
         24    2    1    2    0    0  0.00000000000E+00  0.00000000000E+00 -0.34014649262E+03  0.34985721399E+03  0.81856177144E+02 0.  0.
         66    2    3    3    0    0  0.65296644780E+01  0.32627201246E+02 -0.27185126592E+03  0.27388735198E+03  0.20000031835E+01 0.  0.
        -13    1    3    3    0    0 -0.65296644780E+01 -0.32627201246E+02 -0.68295226706E+02  0.75969862012E+02  0.10566000000E+00 0.  1.
         13    1    4    4    0    0  0.23039781080E+01  0.11403481107E+02 -0.95513133980E+02  0.96219112567E+02  0.10566000000E+00 0. -1.
        -13    1    4    4    0    0  0.33859609494E+01  0.18376702475E+02 -0.15583825856E+03  0.15695458554E+03  0.10566000000E+00 0.  1.
        -14    1    4    4    0    0  0.83972542058E+00  0.28470176642E+01 -0.20499873377E+02  0.20713653874E+02  0.00000000000E+00 0.  1.
<mgrwt>
<rscale>  0 0.81856177E+02</rscale>
<asrwt>0</asrwt>
<pdfrwt beam="1">  1        2 0.53077189E-01 0.81856177E+02</pdfrwt>
<pdfrwt beam="2">  1       -1 0.74697884E-03 0.81856177E+02</pdfrwt>
<totfact> 0.25247650E+05</totfact>
</mgrwt>
</event>
<event>
 8    1  0.1226832E-020  0.8005037E+02  0.7818608E-02  0.1328909E+00
          2   -1    0    0  501    0  0.00000000000E+00  0.00000000000E+00  0.27355421988E+02  0.27355422107E+02  0.25500000000E-02 0. -1.
         -1   -1    0    0    0  501 -0.00000000000E+00 -0.00000000000E+00 -0.58562996153E+02  0.58562996370E+02  0.50400000000E-02 0.  1.
         24    2    1    2    0    0  0.00000000000E+00 -0.71054273576E-14 -0.31207574165E+02  0.85918418477E+02  0.80050371320E+02 0.  0.
         66    2    3    3    0    0  0.22433425960E+02 -0.33046347223E+02 -0.17938112106E+02  0.43830303142E+02  0.19999856356E+01 0.  0.
        -13    1    3    3    0    0 -0.22433425960E+02  0.33046347223E+02 -0.13269462059E+02  0.42088115335E+02  0.10566000000E+00 0.  1.
         13    1    4    4    0    0  0.17599860874E+02 -0.25753882724E+02 -0.14190812164E+02  0.34269635132E+02  0.10566000000E+00 0. -1.
        -13    1    4    4    0    0  0.22239718377E+01 -0.36573842729E+01 -0.13825357788E+01  0.44994532634E+01  0.10566000000E+00 0.  1.
        -14    1    4    4    0    0  0.26095932480E+01 -0.36350802264E+01 -0.23647641625E+01  0.50612147471E+01  0.00000000000E+00 0.  1.
<mgrwt>
<rscale>  0 0.80050371E+02</rscale>
<asrwt>0</asrwt>
<pdfrwt beam="1">  1        2 0.42085265E-02 0.80050371E+02</pdfrwt>
<pdfrwt beam="2">  1       -1 0.90096918E-02 0.80050371E+02</pdfrwt>
<totfact> 0.13189407E+05</totfact>
</mgrwt>
</event>
<event>
 8    1  0.1226832E-020  0.7835075E+02  0.7818608E-02  0.1333798E+00
         -1   -1    0    0    0  501 -0.00000000000E+00  0.00000000000E+00  0.62560907336E+02  0.62560907539E+02  0.50400000000E-02 0.  1.
          2   -1    0    0  501    0  0.00000000000E+00 -0.00000000000E+00 -0.24531452798E+02  0.24531452930E+02  0.25500000000E-02 0. -1.
         24    2    1    2    0    0  0.00000000000E+00 -0.35527136788E-14  0.38029454538E+02  0.87092360470E+02  0.78350748814E+02 0.  0.
         66    2    3    3    0    0  0.11292550894E+02 -0.28849804515E+02 -0.75780696373E+01  0.31957159811E+02  0.19999993823E+01 0.  0.
        -13    1    3    3    0    0 -0.11292550894E+02  0.28849804515E+02  0.45607524176E+02  0.55135200659E+02  0.10566000000E+00 0.  1.
         13    1    4    4    0    0  0.44649283481E+01 -0.10158185550E+02 -0.29961904473E+01  0.11494026277E+02  0.10566000000E+00 0. -1.
        -13    1    4    4    0    0  0.38130537047E+01 -0.11557798432E+02 -0.33268046903E+01  0.12617482975E+02  0.10566000000E+00 0.  1.
        -14    1    4    4    0    0  0.30145688411E+01 -0.71338205328E+01 -0.12550744997E+01  0.78456505589E+01  0.00000000000E+00 0.  1.
<mgrwt>
<rscale>  0 0.78350749E+02</rscale>
<asrwt>0</asrwt>
<pdfrwt beam="1">  1        2 0.37740698E-02 0.78350749E+02</pdfrwt>
<pdfrwt beam="2">  1       -1 0.96247548E-02 0.78350749E+02</pdfrwt>
<totfact> 0.13717104E+05</totfact>
</mgrwt>
</event>
<event>
 8    1  0.1226832E-020  0.7764393E+02  0.7818608E-02  0.1335874E+00
         -1   -1    0    0    0  501 -0.00000000000E+00  0.00000000000E+00  0.79340906736E+01  0.79340922743E+01  0.50400000000E-02 0.  1.
          2   -1    0    0  501    0  0.00000000000E+00 -0.00000000000E+00 -0.18995810792E+03  0.18995810793E+03  0.25500000000E-02 0. -1.
         24    2    1    2    0    0  0.00000000000E+00 -0.17763568394E-14 -0.18202401724E+03  0.19789220021E+03  0.77643931185E+02 0.  0.
         66    2    3    3    0    0 -0.18163774461E+01  0.12029868005E+02 -0.18496470246E+03  0.18537518200E+03  0.19999987904E+01 0.  0.
        -13    1    3    3    0    0  0.18163774461E+01 -0.12029868005E+02  0.29406852143E+01  0.12517018208E+02  0.10566000000E+00 0.  1.
         13    1    4    4    0    0 -0.94655896246E+00  0.18936116342E+01 -0.35788079093E+02  0.35850795083E+02  0.10566000000E+00 0. -1.
        -13    1    4    4    0    0 -0.35019295769E+00  0.71283925605E+01 -0.10577985013E+03  0.10602039650E+03  0.10566000000E+00 0.  1.
         14    1    4    4    0    0 -0.51962552597E+00  0.30078638107E+01 -0.43396773235E+02  0.43503990421E+02  0.00000000000E+00 0. -1.
<mgrwt>
<rscale>  0 0.77643931E+02</rscale>
<asrwt>0</asrwt>
<pdfrwt beam="1">  1        2 0.29224321E-01 0.77643931E+02</pdfrwt>
<pdfrwt beam="2">  1       -1 0.12206296E-02 0.77643931E+02</pdfrwt>
<totfact> 0.23446703E+05</totfact>
</mgrwt>
</event>
<event>
 8    1  0.1226832E-020  0.7977675E+02  0.7818608E-02  0.1329686E+00
         -1   -1    0    0    0  501 -0.00000000000E+00  0.00000000000E+00  0.56009890780E+01  0.56009913456E+01  0.50400000000E-02 0.  1.
          2   -1    0    0  501    0  0.00000000000E+00 -0.00000000000E+00 -0.28407162039E+03  0.28407162040E+03  0.25500000000E-02 0. -1.
         24    2    1    2    0    0  0.17763568394E-14  0.00000000000E+00 -0.27847063131E+03  0.28967261175E+03  0.79776747822E+02 0.  0.
         66    2    3    3    0    0 -0.14153125446E+02 -0.24985378698E+02 -0.23971919887E+03  0.24144124448E+03  0.20000295358E+01 0.  0.
        -13    1    3    3    0    0  0.14153125446E+02  0.24985378698E+02 -0.38751432441E+02  0.48231367271E+02  0.10566000000E+00 0.  1.
         13    1    4    4    0    0 -0.36930692535E+01 -0.56342550897E+01 -0.59174674075E+02  0.59557004683E+02  0.10566000000E+00 0. -1.
        -13    1    4    4    0    0 -0.35233565451E+01 -0.77396569159E+01 -0.67821941761E+02  0.68353078050E+02  0.10566000000E+00 0.  1.
         14    1    4    4    0    0 -0.69366996470E+01 -0.11611466693E+02 -0.11272258304E+03  0.11353116175E+03  0.00000000000E+00 0. -1.
<mgrwt>
<rscale>  0 0.79776748E+02</rscale>
<asrwt>0</asrwt>
<pdfrwt beam="1">  1        2 0.43703315E-01 0.79776748E+02</pdfrwt>
<pdfrwt beam="2">  1       -1 0.86169103E-03 0.79776748E+02</pdfrwt>
<totfact> 0.25179504E+05</totfact>
</mgrwt>
</event>
<event>
 8    1  0.1226832E-020  0.7536245E+02  0.7818608E-02  0.1342752E+00
         -1   -1    0    0    0  501 -0.00000000000E+00  0.00000000000E+00  0.99699600383E+00  0.99700874282E+00  0.50400000000E-02 0.  1.
          2   -1    0    0  501    0  0.00000000000E+00 -0.00000000000E+00 -0.14241436251E+04  0.14241436251E+04  0.25500000000E-02 0. -1.
         24    2    1    2    0    0  0.00000000000E+00  0.00000000000E+00 -0.14231466291E+04  0.14251406338E+04  0.75362446407E+02 0.  0.
         66    2    3    3    0    0  0.42907178551E+01 -0.10493968655E+02 -0.13910981239E+04  0.13911457594E+04  0.19999996709E+01 0.  0.
        -13    1    3    3    0    0 -0.42907178551E+01  0.10493968655E+02 -0.32048505216E+02  0.33994874444E+02  0.10566000000E+00 0.  1.
         13    1    4    4    0    0  0.74862590214E-01 -0.74960513189E+00 -0.72402498756E+02  0.72406494891E+02  0.10566000000E+00 0.  1.
        -13    1    4    4    0    0  0.39455110265E+01 -0.96736231509E+01 -0.12871017248E+04  0.12871441284E+04  0.10566000000E+00 0. -1.
        -14    1    4    4    0    0  0.27034423841E+00 -0.70740372620E-01 -0.31593900298E+02  0.31595136117E+02  0.00000000000E+00 0.  1.
<mgrwt>
<rscale>  0 0.75362446E+02</rscale>
<asrwt>0</asrwt>
<pdfrwt beam="1">  1        2 0.21909739E+00 0.75362446E+02</pdfrwt>
<pdfrwt beam="2">  1       -1 0.15338612E-03 0.75362446E+02</pdfrwt>
<totfact> 0.39505001E+05</totfact>
</mgrwt>
</event>
<event>
 8    1  0.1226832E-020  0.7923107E+02  0.7818608E-02  0.1331248E+00
          2   -1    0    0  501    0  0.00000000000E+00  0.00000000000E+00  0.37766946641E+03  0.37766946642E+03  0.25500000000E-02 0. -1.
         -1   -1    0    0    0  501 -0.00000000000E+00 -0.00000000000E+00 -0.41554588999E+01  0.41554619563E+01  0.50400000000E-02 0.  1.
         24    2    1    2    0    0  0.17763568394E-14 -0.17763568394E-14  0.37351400751E+03  0.38182492838E+03  0.79231067911E+02 0.  0.
         66    2    3    3    0    0 -0.14837480030E+02 -0.15020233295E+02  0.34827178269E+03  0.34891688529E+03  0.20000001850E+01 0.  0.
        -13    1    3    3    0    0  0.14837480030E+02  0.15020233295E+02  0.25242224828E+02  0.32908043092E+02  0.10566000000E+00 0.  1.
         13    1    4    4    0    0 -0.10429826855E+02 -0.96078525779E+01  0.22344312384E+03  0.22389268160E+03  0.10566000000E+00 0. -1.
        -13    1    4    4    0    0 -0.15924241770E+01 -0.18533256224E+01  0.46252209854E+02  0.46316829674E+02  0.10566000000E+00 0.  1.
         14    1    4    4    0    0 -0.28152289974E+01 -0.35590550946E+01  0.78576448993E+02  0.78707374012E+02  0.00000000000E+00 0. -1.
<mgrwt>
<rscale>  0 0.79231068E+02</rscale>
<asrwt>0</asrwt>
<pdfrwt beam="1">  1        2 0.58102998E-01 0.79231068E+02</pdfrwt>
<pdfrwt beam="2">  1       -1 0.63930157E-03 0.79231068E+02</pdfrwt>
<totfact> 0.28395478E+05</totfact>
</mgrwt>
</event>
<event>
 8    1  0.1226832E-020  0.7939165E+02  0.7818608E-02  0.1330787E+00
          2   -1    0    0  501    0  0.00000000000E+00  0.00000000000E+00  0.84233008539E+02  0.84233008577E+02  0.25500000000E-02 0. -1.
         -1   -1    0    0    0  501 -0.00000000000E+00 -0.00000000000E+00 -0.18707139272E+02  0.18707139950E+02  0.50400000000E-02 0.  1.
         24    2    1    2    0    0 -0.35527136788E-14  0.35527136788E-14  0.65525869267E+02  0.10294014853E+03  0.79391653439E+02 0.  0.
         66    2    3    3    0    0 -0.15634802476E+02  0.23153439089E+02  0.69301763774E+02  0.74747998318E+02  0.20000000649E+01 0.  0.
        -13    1    3    3    0    0  0.15634802476E+02 -0.23153439089E+02 -0.37758945066E+01  0.28192150210E+02  0.10566000000E+00 0.  1.
         13    1    4    4    0    0 -0.68364293435E+01  0.10489111714E+02  0.30693503558E+02  0.33149065679E+02  0.10566000000E+00 0. -1.
        -13    1    4    4    0    0 -0.70705357281E+01  0.10274623696E+02  0.32637883235E+02  0.34939990751E+02  0.10566000000E+00 0.  1.
         14    1    4    4    0    0 -0.17278374040E+01  0.23897036792E+01  0.59703769814E+01  0.66589418881E+01  0.00000000000E+00 0. -1.
<mgrwt>
<rscale>  0 0.79391653E+02</rscale>
<asrwt>0</asrwt>
<pdfrwt beam="1">  1        2 0.12958924E-01 0.79391653E+02</pdfrwt>
<pdfrwt beam="2">  1       -1 0.28780215E-02 0.79391653E+02</pdfrwt>
<totfact> 0.17271560E+05</totfact>
</mgrwt>
</event>
<event>
 8    1  0.1226832E-020  0.7945819E+02  0.7818608E-02  0.1330596E+00
         -1   -1    0    0    0  501 -0.00000000000E+00  0.00000000000E+00  0.34775557254E+02  0.34775557619E+02  0.50400000000E-02 0.  1.
          2   -1    0    0  501    0  0.00000000000E+00 -0.00000000000E+00 -0.45388230132E+02  0.45388230204E+02  0.25500000000E-02 0. -1.
         24    2    1    2    0    0  0.00000000000E+00  0.35527136788E-14 -0.10612672879E+02  0.80163787823E+02  0.79458190594E+02 0.  0.
         66    2    3    3    0    0  0.27258264828E+02 -0.24506973320E+02 -0.20702677590E+02  0.42145054258E+02  0.19999990588E+01 0.  0.
        -13    1    3    3    0    0 -0.27258264828E+02  0.24506973320E+02  0.10090004711E+02  0.38018733565E+02  0.10566000000E+00 0.  1.
         13    1    4    4    0    0  0.82923782942E+01 -0.73382395420E+01 -0.67564759759E+01  0.12972063406E+02  0.10566000000E+00 0. -1.
        -13    1    4    4    0    0  0.17723791673E+01 -0.18145064577E+01 -0.18445095445E+01  0.31380154705E+01  0.10566000000E+00 0.  1.
        -14    1    4    4    0    0  0.17193507367E+02 -0.15354227320E+02 -0.12101692069E+02  0.26034975382E+02  0.00000000000E+00 0.  1.
<mgrwt>
<rscale>  0 0.79458191E+02</rscale>
<asrwt>0</asrwt>
<pdfrwt beam="1">  1        2 0.69828047E-02 0.79458191E+02</pdfrwt>
<pdfrwt beam="2">  1       -1 0.53500858E-02 0.79458191E+02</pdfrwt>
<totfact> 0.14911721E+05</totfact>
</mgrwt>
</event>
<event>
 8    1  0.1226832E-020  0.7699593E+02  0.7818608E-02  0.1337799E+00
         -1   -1    0    0    0  501 -0.00000000000E+00  0.00000000000E+00  0.16885846314E+01  0.16885921529E+01  0.50400000000E-02 0.  1.
          2   -1    0    0  501    0  0.00000000000E+00 -0.00000000000E+00 -0.87771143871E+03  0.87771143872E+03  0.25500000000E-02 0. -1.
         24    2    1    2    0    0  0.00000000000E+00  0.00000000000E+00 -0.87602285408E+03  0.87940003087E+03  0.76995931192E+02 0.  0.
         66    2    3    3    0    0  0.33620171763E+01 -0.19266805106E+02 -0.81669287367E+03  0.81692947237E+03  0.19999998485E+01 0.  0.
        -13    1    3    3    0    0 -0.33620171763E+01  0.19266805106E+02 -0.59329980416E+02  0.62470558496E+02  0.10566000000E+00 0.  1.
         13    1    4    4    0    0  0.22622851108E+01 -0.11513582885E+02 -0.46611034175E+03  0.46625802125E+03  0.10566000000E+00 0. -1.
        -13    1    4    4    0    0  0.90026930777E+00 -0.49950882977E+01 -0.24591091089E+03  0.24596330753E+03  0.10566000000E+00 0.  1.
         14    1    4    4    0    0  0.19946275769E+00 -0.27581339231E+01 -0.10467162102E+03  0.10470814360E+03  0.00000000000E+00 0. -1.
<mgrwt>
<rscale>  0 0.76995931E+02</rscale>
<asrwt>0</asrwt>
<pdfrwt beam="1">  1        2 0.13503216E+00 0.76995931E+02</pdfrwt>
<pdfrwt beam="2">  1       -1 0.25978353E-03 0.76995931E+02</pdfrwt>
<totfact> 0.38477570E+05</totfact>
</mgrwt>
</event>
<event>
 8    1  0.1226832E-020  0.8030553E+02  0.7818608E-02  0.1328187E+00
         -1   -1    0    0    0  501 -0.00000000000E+00  0.00000000000E+00  0.12380453899E+03  0.12380453909E+03  0.50400000000E-02 0.  1.
          2   -1    0    0  501    0  0.00000000000E+00 -0.00000000000E+00 -0.13022498109E+02  0.13022498359E+02  0.25500000000E-02 0. -1.
         24    2    1    2    0    0 -0.35527136788E-14  0.00000000000E+00  0.11078204088E+03  0.13682703745E+03  0.80305526559E+02 0.  0.
         66    2    3    3    0    0 -0.18824869099E+02 -0.34806821414E+02  0.44078621660E+02  0.59269008767E+02  0.19999997982E+01 0.  0.
        -13    1    3    3    0    0  0.18824869099E+02  0.34806821414E+02  0.66703419220E+02  0.77558028683E+02  0.10566000000E+00 0.  1.
         13    1    4    4    0    0 -0.14783592507E+02 -0.27764902827E+02  0.34147503865E+02  0.46427444693E+02  0.10566000000E+00 0. -1.
        -13    1    4    4    0    0 -0.16174621719E+01 -0.29231424569E+01  0.45304638672E+01  0.56300277609E+01  0.10566000000E+00 0.  1.
        -14    1    4    4    0    0 -0.24238144200E+01 -0.41187761301E+01  0.54006539271E+01  0.72115363130E+01  0.00000000000E+00 0.  1.
<mgrwt>
<rscale>  0 0.80305527E+02</rscale>
<asrwt>0</asrwt>
<pdfrwt beam="1">  1        2 0.20034611E-02 0.80305527E+02</pdfrwt>
<pdfrwt beam="2">  1       -1 0.19046854E-01 0.80305527E+02</pdfrwt>
<totfact> 0.11195037E+05</totfact>
</mgrwt>
</event>
<event>
 8    1  0.1226832E-020  0.7984723E+02  0.7818608E-02  0.1329486E+00
         -1   -1    0    0    0  501 -0.00000000000E+00  0.00000000000E+00  0.56029554357E+01  0.56029577026E+01  0.50400000000E-02 0.  1.
          2   -1    0    0  501    0  0.00000000000E+00 -0.00000000000E+00 -0.28447395671E+03  0.28447395672E+03  0.25500000000E-02 0. -1.
         24    2    1    2    0    0  0.22204460493E-15  0.00000000000E+00 -0.27887100127E+03  0.29007691442E+03  0.79847234955E+02 0.  0.
         66    2    3    3    0    0  0.18089507101E+01  0.37556505121E+02 -0.18800892483E+03  0.19174232499E+03  0.19999991943E+01 0.  0.
        -13    1    3    3    0    0 -0.18089507101E+01 -0.37556505121E+02 -0.90862076440E+02  0.98334589431E+02  0.10566000000E+00 0.  1.
         13    1    4    4    0    0  0.47581652568E-01  0.26036447306E+01 -0.12629735757E+02  0.12895837283E+02  0.10566000000E+00 0. -1.
        -13    1    4    4    0    0  0.22270085110E+00  0.20676082567E+02 -0.10546189116E+03  0.10746986386E+03  0.10566000000E+00 0.  1.
        -14    1    4    4    0    0  0.15386682065E+01  0.14276777823E+02 -0.69917297912E+02  0.71376623850E+02  0.00000000000E+00 0.  1.
<mgrwt>
<rscale>  0 0.79847235E+02</rscale>
<asrwt>0</asrwt>
<pdfrwt beam="1">  1        2 0.43765213E-01 0.79847235E+02</pdfrwt>
<pdfrwt beam="2">  1       -1 0.86199354E-03 0.79847235E+02</pdfrwt>
<totfact> 0.25134121E+05</totfact>
</mgrwt>
</event>
<event>
 8    1  0.1226832E-020  0.7865717E+02  0.7818608E-02  0.1332906E+00
          2   -1    0    0  501    0  0.00000000000E+00  0.00000000000E+00  0.64491597304E+03  0.64491597305E+03  0.25500000000E-02 0. -1.
         -1   -1    0    0    0  501 -0.00000000000E+00 -0.00000000000E+00 -0.23983524052E+01  0.23983577009E+01  0.50400000000E-02 0.  1.
         24    2    1    2    0    0  0.00000000000E+00 -0.35527136788E-14  0.64251762064E+03  0.64731433075E+03  0.78657167270E+02 0.  0.
         66    2    3    3    0    0 -0.54948055877E+01  0.26892339095E+02  0.55297017866E+03  0.55365459383E+03  0.19999986164E+01 0.  0.
        -13    1    3    3    0    0  0.54948055877E+01 -0.26892339095E+02  0.89547441981E+02  0.93659736919E+02  0.10566000000E+00 0.  1.
         13    1    4    4    0    0 -0.15158817892E+01  0.98239755182E+01  0.20437875574E+03  0.20462036887E+03  0.10566000000E+00 0. -1.
        -13    1    4    4    0    0 -0.27384174747E+01  0.11023412918E+02  0.23766094796E+03  0.23793224227E+03  0.10566000000E+00 0.  1.
         14    1    4    4    0    0 -0.12405063237E+01  0.60449506581E+01  0.11093047495E+03  0.11110198269E+03  0.00000000000E+00 0. -1.
<mgrwt>
<rscale>  0 0.78657167E+02</rscale>
<asrwt>0</asrwt>
<pdfrwt beam="1">  1        2 0.99217966E-01 0.78657167E+02</pdfrwt>
<pdfrwt beam="2">  1       -1 0.36897724E-03 0.78657167E+02</pdfrwt>
<totfact> 0.34266140E+05</totfact>
</mgrwt>
</event>
<event>
 8    1  0.1226832E-020  0.8031479E+02  0.7818608E-02  0.1328160E+00
          2   -1    0    0  501    0  0.00000000000E+00  0.00000000000E+00  0.52119802771E+03  0.52119802772E+03  0.25500000000E-02 0. -1.
         -1   -1    0    0    0  501 -0.00000000000E+00 -0.00000000000E+00 -0.30940545527E+01  0.30940586576E+01  0.50400000000E-02 0.  1.
         24    2    1    2    0    0 -0.35527136788E-14  0.35527136788E-14  0.51810397316E+03  0.52429208638E+03  0.80314785892E+02 0.  0.
         66    2    3    3    0    0 -0.18969204268E+02  0.29747336283E+02  0.38407843144E+03  0.38570063021E+03  0.19999790733E+01 0.  0.
        -13    1    3    3    0    0  0.18969204268E+02 -0.29747336283E+02  0.13402554172E+03  0.13859145617E+03  0.10566000000E+00 0.  1.
         13    1    4    4    0    0 -0.11545461758E+02  0.17972764809E+02  0.23452190214E+03  0.23549278483E+03  0.10566000000E+00 0. -1.
        -13    1    4    4    0    0 -0.30567235277E+00  0.23067903682E+00  0.55037920113E+01  0.55181100881E+01  0.10566000000E+00 0. -1.
        -14    1    4    4    0    0 -0.71180701569E+01  0.11543892436E+02  0.14405273729E+03  0.14468973529E+03  0.00000000000E+00 0.  1.
<mgrwt>
<rscale>  0 0.80314786E+02</rscale>
<asrwt>0</asrwt>
<pdfrwt beam="1">  1        2 0.80184257E-01 0.80314786E+02</pdfrwt>
<pdfrwt beam="2">  1       -1 0.47600904E-03 0.80314786E+02</pdfrwt>
<totfact> 0.30537809E+05</totfact>
</mgrwt>
</event>
<event>
 8    1  0.1226832E-020  0.7865884E+02  0.7818608E-02  0.1332901E+00
          2   -1    0    0  501    0  0.00000000000E+00  0.00000000000E+00  0.45495376134E+03  0.45495376134E+03  0.25500000000E-02 0. -1.
         -1   -1    0    0    0  501 -0.00000000000E+00 -0.00000000000E+00 -0.33999109612E+01  0.33999146968E+01  0.50400000000E-02 0.  1.
         24    2    1    2    0    0  0.00000000000E+00  0.00000000000E+00  0.45155385037E+03  0.45835367604E+03  0.78658836446E+02 0.  0.
         66    2    3    3    0    0  0.14243219607E+02 -0.34584833572E+02  0.29628786148E+03  0.29864607294E+03  0.20000002677E+01 0.  0.
        -13    1    3    3    0    0 -0.14243219607E+02  0.34584833572E+02  0.15526598889E+03  0.15970760310E+03  0.10566000000E+00 0.  1.
         13    1    4    4    0    0  0.98709763542E+01 -0.22738246946E+02  0.20122677721E+03  0.20274785098E+03  0.10566000000E+00 0. -1.
        -13    1    4    4    0    0  0.62732261584E+00 -0.14995510567E+01  0.13643480160E+02  0.13740374884E+02  0.10566000000E+00 0. -1.
         14    1    4    4    0    0  0.37449206375E+01 -0.10347035569E+02  0.81417604114E+02  0.82157847071E+02  0.00000000000E+00 0. -1.
<mgrwt>
<rscale>  0 0.78658836E+02</rscale>
<asrwt>0</asrwt>
<pdfrwt beam="1">  1        2 0.69992835E-01 0.78658836E+02</pdfrwt>
<pdfrwt beam="2">  1       -1 0.52306390E-03 0.78658836E+02</pdfrwt>
<totfact> 0.30856759E+05</totfact>
</mgrwt>
</event>
<event>
 8    1  0.1226832E-020  0.7950834E+02  0.7818608E-02  0.1330453E+00
          2   -1    0    0  501    0  0.00000000000E+00  0.00000000000E+00  0.35501740739E+01  0.35501749897E+01  0.25500000000E-02 0. -1.
         -1   -1    0    0    0  501 -0.00000000000E+00 -0.00000000000E+00 -0.44515955253E+03  0.44515955256E+03  0.50400000000E-02 0.  1.
         24    2    1    2    0    0  0.00000000000E+00 -0.44408920985E-15 -0.44160937846E+03  0.44870972755E+03  0.79508342054E+02 0.  0.
         66    2    3    3    0    0  0.39478886494E+02  0.34987344589E+01 -0.20542111917E+03  0.20921916697E+03  0.20000003404E+01 0.  0.
        -13    1    3    3    0    0 -0.39478886494E+02 -0.34987344589E+01 -0.23618825929E+03  0.23949056059E+03  0.10566000000E+00 0.  1.
         13    1    4    4    0    0  0.21846938331E+02  0.17470134236E+01 -0.10885962629E+03  0.11104400105E+03  0.10566000000E+00 0. -1.
        -13    1    4    4    0    0  0.44567852807E+01  0.32368980912E+00 -0.25354201553E+02  0.25745182278E+02  0.10566000000E+00 0.  1.
        -14    1    4    4    0    0  0.13175162883E+02  0.14280312262E+01 -0.71207291333E+02  0.72429983633E+02  0.00000000000E+00 0.  1.
<mgrwt>
<rscale>  0 0.79508342E+02</rscale>
<asrwt>0</asrwt>
<pdfrwt beam="1">  1        2 0.54618105E-03 0.79508342E+02</pdfrwt>
<pdfrwt beam="2">  1       -1 0.68486041E-01 0.79508342E+02</pdfrwt>
<totfact> 0.72701385E+04</totfact>
</mgrwt>
</event>
<event>
 8    1  0.1226832E-020  0.7330936E+02  0.7818608E-02  0.1349188E+00
          2   -1    0    0  501    0  0.00000000000E+00  0.00000000000E+00  0.10918788550E+03  0.10918788553E+03  0.25500000000E-02 0. -1.
         -1   -1    0    0    0  501 -0.00000000000E+00 -0.00000000000E+00 -0.12305076913E+02  0.12305077945E+02  0.50400000000E-02 0.  1.
         24    2    1    2    0    0 -0.35527136788E-14  0.00000000000E+00  0.96882808583E+02  0.12149296347E+03  0.73309355296E+02 0.  0.
         66    2    3    3    0    0 -0.15381338949E+02 -0.97334501074E+01  0.10115216007E+03  0.10279632835E+03  0.19999988267E+01 0.  0.
        -13    1    3    3    0    0  0.15381338949E+02  0.97334501074E+01 -0.42693514878E+01  0.18696635126E+02  0.10566000000E+00 0.  1.
         13    1    4    4    0    0 -0.13483252802E+01 -0.12285932092E+01  0.90122099604E+01  0.91955703869E+01  0.10566000000E+00 0. -1.
        -13    1    4    4    0    0 -0.30662999659E+01 -0.25028133506E+01  0.20736641370E+02  0.21111270200E+02  0.10566000000E+00 0.  1.
        -14    1    4    4    0    0 -0.10966713703E+02 -0.60020435476E+01  0.71403308741E+02  0.72489487758E+02  0.00000000000E+00 0.  1.
<mgrwt>
<rscale>  0 0.73309355E+02</rscale>
<asrwt>0</asrwt>
<pdfrwt beam="1">  1        2 0.16798137E-01 0.73309355E+02</pdfrwt>
<pdfrwt beam="2">  1       -1 0.18930888E-02 0.73309355E+02</pdfrwt>
<totfact> 0.22923146E+05</totfact>
</mgrwt>
</event>
<event>
 8    1  0.1307419E-020  0.8432384E+02  0.7818608E-02  0.1317210E+00
          2   -1    0    0  501    0  0.00000000000E+00  0.00000000000E+00  0.10261147491E+03  0.10261147494E+03  0.25500000000E-02 0. -1.
         -1   -1    0    0    0  501 -0.00000000000E+00 -0.00000000000E+00 -0.17323864065E+02  0.17323864798E+02  0.50400000000E-02 0.  1.
         24    2    1    2    0    0 -0.17763568394E-14  0.00000000000E+00  0.85287610844E+02  0.11993533974E+03  0.84323835034E+02 0.  0.
         66    2    3    3    0    0 -0.12352399124E+02 -0.24312340722E+02  0.88358265632E+02  0.92492457959E+02  0.19999995883E+01 0.  0.
        -13    1    3    3    0    0  0.12352399124E+02  0.24312340722E+02 -0.30706547878E+01  0.27442881780E+02  0.10566000000E+00 0.  1.
         13    1    4    4    0    0 -0.85708517707E+01 -0.17264579833E+02  0.61959853677E+02  0.64888826839E+02  0.10566000000E+00 0. -1.
        -13    1    4    4    0    0 -0.29669167193E+01 -0.59110979416E+01  0.22895700904E+02  0.23832078332E+02  0.10566000000E+00 0.  1.
        -14    1    4    4    0    0 -0.81463063371E+00 -0.11366629480E+01  0.35027110504E+01  0.37715527876E+01  0.00000000000E+00 0.  1.
<mgrwt>
<rscale>  0 0.84323835E+02</rscale>
<asrwt>0</asrwt>
<pdfrwt beam="1">  1        2 0.15786381E-01 0.84323835E+02</pdfrwt>
<pdfrwt beam="2">  1       -1 0.26652098E-02 0.84323835E+02</pdfrwt>
<totfact> 0.15501227E+05</totfact>
</mgrwt>
</event>
<event>
 8    1  0.1226832E-020  0.8762775E+02  0.7818608E-02  0.1308700E+00
          2   -1    0    0  501    0  0.00000000000E+00  0.00000000000E+00  0.97940473283E+02  0.97940473316E+02  0.25500000000E-02 0. -1.
         -1   -1    0    0    0  501 -0.00000000000E+00 -0.00000000000E+00 -0.19600227594E+02  0.19600228242E+02  0.50400000000E-02 0.  1.
         24    2    1    2    0    0  0.00000000000E+00  0.00000000000E+00  0.78340245689E+02  0.11754070156E+03  0.87627749191E+02 0.  0.
         66    2    3    3    0    0  0.34114376762E+01  0.37427669107E+02  0.69339313763E+02  0.78894922211E+02  0.19999989183E+01 0.  0.
        -13    1    3    3    0    0 -0.34114376762E+01 -0.37427669107E+02  0.90009319255E+01  0.38645779348E+02  0.10566000000E+00 0.  1.
         13    1    4    4    0    0  0.75905372172E+00  0.12902405906E+02  0.22504735807E+02  0.25952312778E+02  0.10566000000E+00 0. -1.
        -13    1    4    4    0    0  0.20091210715E+01  0.20578618983E+02  0.39824013823E+02  0.44871810391E+02  0.10566000000E+00 0.  1.
        -14    1    4    4    0    0  0.64326288305E+00  0.39466442188E+01  0.70105641328E+01  0.80707990426E+01  0.00000000000E+00 0.  1.
<mgrwt>
<rscale>  0 0.87627749E+02</rscale>
<asrwt>0</asrwt>
<pdfrwt beam="1">  1        2 0.15067765E-01 0.87627749E+02</pdfrwt>
<pdfrwt beam="2">  1       -1 0.30154197E-02 0.87627749E+02</pdfrwt>
<totfact> 0.13787711E+05</totfact>
</mgrwt>
</event>
<event>
 8    1  0.1226832E-020  0.7914095E+02  0.7818608E-02  0.1331507E+00
         -1   -1    0    0    0  501 -0.00000000000E+00  0.00000000000E+00  0.37850082147E+01  0.37850115702E+01  0.50400000000E-02 0.  1.
          2   -1    0    0  501    0  0.00000000000E+00 -0.00000000000E+00 -0.41369042803E+03  0.41369042803E+03  0.25500000000E-02 0. -1.
         24    2    1    2    0    0  0.00000000000E+00  0.00000000000E+00 -0.40990541981E+03  0.41747543960E+03  0.79140946936E+02 0.  0.
         66    2    3    3    0    0 -0.32505223987E+02 -0.14738846378E+02 -0.29491385214E+03  0.29707238741E+03  0.19999990395E+01 0.  0.
        -13    1    3    3    0    0  0.32505223987E+02  0.14738846378E+02 -0.11499156767E+03  0.12040305219E+03  0.10566000000E+00 0.  1.
         13    1    4    4    0    0 -0.25782310816E+01 -0.88229748678E+00 -0.25798997092E+02  0.25942728063E+02  0.10566000000E+00 0.  1.
        -13    1    4    4    0    0 -0.96753130867E+01 -0.47320416478E+01 -0.90856521680E+02  0.91492746146E+02  0.10566000000E+00 0. -1.
         14    1    4    4    0    0 -0.20251679819E+02 -0.91245072430E+01 -0.17825833337E+03  0.17963691320E+03  0.00000000000E+00 0. -1.
<mgrwt>
<rscale>  0 0.79140947E+02</rscale>
<asrwt>0</asrwt>
<pdfrwt beam="1">  1        2 0.63644645E-01 0.79140947E+02</pdfrwt>
<pdfrwt beam="2">  1       -1 0.58230954E-03 0.79140947E+02</pdfrwt>
<totfact> 0.29403215E+05</totfact>
</mgrwt>
</event>
<event>
 8    1  0.1226832E-020  0.8100708E+02  0.7818608E-02  0.1326218E+00
         -1   -1    0    0    0  501 -0.00000000000E+00  0.00000000000E+00  0.16481677330E+02  0.16481678100E+02  0.50400000000E-02 0.  1.
          2   -1    0    0  501    0  0.00000000000E+00 -0.00000000000E+00 -0.99536988122E+02  0.99536988154E+02  0.25500000000E-02 0. -1.
         24    2    1    2    0    0  0.00000000000E+00  0.00000000000E+00 -0.83055310792E+02  0.11601866625E+03  0.81007075424E+02 0.  0.
         66    2    3    3    0    0 -0.18520291147E+02  0.54549042727E+01 -0.92507460282E+02  0.94521888384E+02  0.20000027896E+01 0.  0.
        -13    1    3    3    0    0  0.18520291147E+02 -0.54549042727E+01  0.94521494896E+01  0.21496777870E+02  0.10566000000E+00 0.  1.
         13    1    4    4    0    0 -0.41482331656E+01  0.99794220398E+00 -0.23764889660E+02  0.24145079657E+02  0.10566000000E+00 0. -1.
        -13    1    4    4    0    0 -0.24617638664E+01  0.10429169321E+01 -0.11142991325E+02  0.11459728477E+02  0.10566000000E+00 0.  1.
        -14    1    4    4    0    0 -0.11910294115E+02  0.34140451366E+01 -0.57599579297E+02  0.58917080251E+02  0.00000000000E+00 0.  1.
<mgrwt>
<rscale>  0 0.81007075E+02</rscale>
<asrwt>0</asrwt>
<pdfrwt beam="1">  1        2 0.15313382E-01 0.81007075E+02</pdfrwt>
<pdfrwt beam="2">  1       -1 0.25356428E-02 0.81007075E+02</pdfrwt>
<totfact> 0.17118934E+05</totfact>
</mgrwt>
</event>
<event>
 8    1  0.1226832E-020  0.8008417E+02  0.7818608E-02  0.1328813E+00
          2   -1    0    0  501    0  0.00000000000E+00  0.00000000000E+00  0.39045558733E+03  0.39045558734E+03  0.25500000000E-02 0. -1.
         -1   -1    0    0    0  501 -0.00000000000E+00 -0.00000000000E+00 -0.41064031639E+01  0.41064062568E+01  0.50400000000E-02 0.  1.
         24    2    1    2    0    0  0.00000000000E+00  0.00000000000E+00  0.38634918416E+03  0.39456199359E+03  0.80084172493E+02 0.  0.
         66    2    3    3    0    0 -0.29185958329E+02 -0.16460102796E+01  0.32793676738E+03  0.32924315166E+03  0.19999997382E+01 0.  0.
        -13    1    3    3    0    0  0.29185958329E+02  0.16460102796E+01  0.58412416780E+02  0.65318841934E+02  0.10566000000E+00 0.  1.
         13    1    4    4    0    0 -0.11532766525E+02 -0.45005699836E+00  0.12280741621E+03  0.12334861124E+03  0.10566000000E+00 0. -1.
        -13    1    4    4    0    0 -0.91045625587E+01 -0.11104217742E+01  0.11007150230E+03  0.11045303472E+03  0.10566000000E+00 0.  1.
        -14    1    4    4    0    0 -0.85486292454E+01 -0.85531507094E-01  0.95057848874E+02  0.95441505699E+02  0.00000000000E+00 0.  1.
<mgrwt>
<rscale>  0 0.80084172E+02</rscale>
<asrwt>0</asrwt>
<pdfrwt beam="1">  1        2 0.60070114E-01 0.80084172E+02</pdfrwt>
<pdfrwt beam="2">  1       -1 0.63175433E-03 0.80084172E+02</pdfrwt>
<totfact> 0.27938489E+05</totfact>
</mgrwt>
</event>
<event>
 8    1  0.1226832E-020  0.7848890E+02  0.7818608E-02  0.1333395E+00
         -1   -1    0    0    0  501 -0.00000000000E+00  0.00000000000E+00  0.10925083178E+03  0.10925083189E+03  0.50400000000E-02 0.  1.
          2   -1    0    0  501    0  0.00000000000E+00 -0.00000000000E+00 -0.14097163823E+02  0.14097164054E+02  0.25500000000E-02 0. -1.
         24    2    1    2    0    0  0.00000000000E+00 -0.71054273576E-14  0.95153667954E+02  0.12334799595E+03  0.78488900993E+02 0.  0.
         66    2    3    3    0    0  0.68639981546E+01 -0.37563263845E+02  0.61664633036E+02  0.72557840551E+02  0.19999991528E+01 0.  0.
        -13    1    3    3    0    0 -0.68639981546E+01  0.37563263845E+02  0.33489034918E+02  0.50790155396E+02  0.10566000000E+00 0.  1.
         13    1    4    4    0    0  0.19421789135E+01 -0.12328575079E+02  0.18971875308E+02  0.22709228061E+02  0.10566000000E+00 0. -1.
        -13    1    4    4    0    0  0.32408361344E+01 -0.16389236797E+02  0.28731648573E+02  0.33235957868E+02  0.10566000000E+00 0.  1.
        -14    1    4    4    0    0  0.16809831066E+01 -0.88454519697E+01  0.13961109155E+02  0.16612654622E+02  0.00000000000E+00 0.  1.
<mgrwt>
<rscale>  0 0.78488901E+02</rscale>
<asrwt>0</asrwt>
<pdfrwt beam="1">  1        2 0.21687944E-02 0.78488901E+02</pdfrwt>
<pdfrwt beam="2">  1       -1 0.16807821E-01 0.78488901E+02</pdfrwt>
<totfact> 0.12195195E+05</totfact>
</mgrwt>
</event>
<event>
 8    1  0.1226832E-020  0.8078335E+02  0.7818608E-02  0.1326843E+00
          2   -1    0    0  501    0  0.00000000000E+00  0.00000000000E+00  0.94679530645E+03  0.94679530645E+03  0.25500000000E-02 0. -1.
         -1   -1    0    0    0  501 -0.00000000000E+00 -0.00000000000E+00 -0.17231644752E+01  0.17231718458E+01  0.50400000000E-02 0.  1.
         24    2    1    2    0    0  0.00000000000E+00  0.00000000000E+00  0.94507214197E+03  0.94851847830E+03  0.80783353101E+02 0.  0.
         66    2    3    3    0    0  0.51264025557E+01  0.19547458318E+02  0.88312293059E+03  0.88335637976E+03  0.20000030275E+01 0.  0.
        -13    1    3    3    0    0 -0.51264025557E+01 -0.19547458318E+02  0.61949211386E+02  0.65162098533E+02  0.10566000000E+00 0.  1.
         13    1    4    4    0    0  0.40261788304E+01  0.14643068904E+02  0.65061186041E+03  0.65078908538E+03  0.10566000000E+00 0. -1.
        -13    1    4    4    0    0  0.82651154633E+00  0.18227122412E+01  0.82681604203E+02  0.82705889989E+02  0.10566000000E+00 0.  1.
         14    1    4    4    0    0  0.27371217893E+00  0.30816771723E+01  0.14982946598E+03  0.14986140440E+03  0.00000000000E+00 0. -1.
<mgrwt>
<rscale>  0 0.80783353E+02</rscale>
<asrwt>0</asrwt>
<pdfrwt beam="1">  1        2 0.14566033E+00 0.80783353E+02</pdfrwt>
<pdfrwt beam="2">  1       -1 0.26510368E-03 0.80783353E+02</pdfrwt>
<totfact> 0.34236923E+05</totfact>
</mgrwt>
</event>
<event>
 8    1  0.1226832E-020  0.7955055E+02  0.7818608E-02  0.1330332E+00
         -1   -1    0    0    0  501 -0.00000000000E+00  0.00000000000E+00  0.22671805492E+02  0.22671806052E+02  0.50400000000E-02 0.  1.
          2   -1    0    0  501    0  0.00000000000E+00 -0.00000000000E+00 -0.69781488583E+02  0.69781488630E+02  0.25500000000E-02 0. -1.
         24    2    1    2    0    0  0.00000000000E+00  0.00000000000E+00 -0.47109683092E+02  0.92453294682E+02  0.79550546551E+02 0.  0.
         66    2    3    3    0    0  0.68732584659E+01  0.39138156278E+02 -0.24749454224E+02  0.46856935640E+02  0.19999936019E+01 0.  0.
        -13    1    3    3    0    0 -0.68732584659E+01 -0.39138156278E+02 -0.22360228868E+02  0.45596359042E+02  0.10566000000E+00 0.  1.
         13    1    4    4    0    0  0.33780237705E+01  0.17616779633E+02 -0.11030293934E+02  0.21058027389E+02  0.10566000000E+00 0. -1.
        -13    1    4    4    0    0  0.17148180371E+01  0.13604370469E+02 -0.91695989718E+01  0.16495823899E+02  0.10566000000E+00 0.  1.
        -14    1    4    4    0    0  0.17804166583E+01  0.79170061766E+01 -0.45495613178E+01  0.93030843520E+01  0.00000000000E+00 0.  1.
<mgrwt>
<rscale>  0 0.79550547E+02</rscale>
<asrwt>0</asrwt>
<pdfrwt beam="1">  1        2 0.10735614E-01 0.79550547E+02</pdfrwt>
<pdfrwt beam="2">  1       -1 0.34879702E-02 0.79550547E+02</pdfrwt>
<totfact> 0.16382063E+05</totfact>
</mgrwt>
</event>
<event>
 8    1  0.1226832E-020  0.8037954E+02  0.7818608E-02  0.1327978E+00
         -1   -1    0    0    0  501 -0.00000000000E+00  0.00000000000E+00  0.55456945935E+01  0.55456968837E+01  0.50400000000E-02 0.  1.
          2   -1    0    0  501    0  0.00000000000E+00 -0.00000000000E+00 -0.29125609189E+03  0.29125609190E+03  0.25500000000E-02 0. -1.
         24    2    1    2    0    0  0.00000000000E+00  0.00000000000E+00 -0.28571039730E+03  0.29680178879E+03  0.80379541567E+02 0.  0.
         66    2    3    3    0    0  0.26993110539E+02  0.42094268548E+01 -0.25166023705E+03  0.25314664169E+03  0.19999989889E+01 0.  0.
        -13    1    3    3    0    0 -0.26993110539E+02 -0.42094268548E+01 -0.34050160248E+02  0.43655147096E+02  0.10566000000E+00 0.  1.
         13    1    4    4    0    0  0.72800348297E+01  0.16702033489E+01 -0.73106143968E+02  0.73486787495E+02  0.10566000000E+00 0. -1.
        -13    1    4    4    0    0  0.27476653236E+01  0.64610245508E+00 -0.27051441725E+02  0.27198506881E+02  0.10566000000E+00 0. -1.
         14    1    4    4    0    0  0.16965410386E+02  0.18931210508E+01 -0.15150265136E+03  0.15246134732E+03  0.00000000000E+00 0. -1.
<mgrwt>
<rscale>  0 0.80379542E+02</rscale>
<asrwt>0</asrwt>
<pdfrwt beam="1">  1        2 0.44808618E-01 0.80379542E+02</pdfrwt>
<pdfrwt beam="2">  1       -1 0.85318419E-03 0.80379542E+02</pdfrwt>
<totfact> 0.24911552E+05</totfact>
</mgrwt>
</event>
<event>
 8    1  0.1226832E-020  0.7969449E+02  0.7818608E-02  0.1329921E+00
         -1   -1    0    0    0  501 -0.00000000000E+00  0.00000000000E+00  0.11065132389E+01  0.11065247171E+01  0.50400000000E-02 0.  1.
          2   -1    0    0  501    0  0.00000000000E+00 -0.00000000000E+00 -0.14349532970E+04  0.14349532970E+04  0.25500000000E-02 0. -1.
         24    2    1    2    0    0  0.35527136788E-14  0.71054273576E-14 -0.14338467838E+04  0.14360598218E+04  0.79694493252E+02 0.  0.
         66    2    3    3    0    0  0.10695988215E+02  0.19417607591E+02 -0.13134781921E+04  0.13136667799E+04  0.20000009864E+01 0.  0.
        -13    1    3    3    0    0 -0.10695988215E+02 -0.19417607591E+02 -0.12036859173E+03  0.12239304182E+03  0.10566000000E+00 0.  1.
         13    1    4    4    0    0  0.17276684490E+01  0.29697277784E+01 -0.18315185291E+03  0.18318410551E+03  0.10566000000E+00 0. -1.
        -13    1    4    4    0    0  0.62215942251E+00  0.15734245207E+01 -0.81118944558E+02  0.81136656804E+02  0.10566000000E+00 0.  1.
         14    1    4    4    0    0  0.83461603433E+01  0.14874455292E+02 -0.10492073946E+04  0.10493460176E+04  0.00000000000E+00 0. -1.
<mgrwt>
<rscale>  0 0.79694493E+02</rscale>
<asrwt>0</asrwt>
<pdfrwt beam="1">  1        2 0.22076056E+00 0.79694493E+02</pdfrwt>
<pdfrwt beam="2">  1       -1 0.17023484E-03 0.79694493E+02</pdfrwt>
<totfact> 0.34101722E+05</totfact>
</mgrwt>
</event>
<event>
 8    1  0.1226832E-020  0.8010017E+02  0.7818608E-02  0.1328767E+00
          2   -1    0    0  501    0  0.00000000000E+00  0.00000000000E+00  0.13451501239E+02  0.13451501481E+02  0.25500000000E-02 0. -1.
         -1   -1    0    0    0  501 -0.00000000000E+00 -0.00000000000E+00 -0.11924387291E+03  0.11924387301E+03  0.50400000000E-02 0.  1.
         24    2    1    2    0    0  0.00000000000E+00  0.00000000000E+00 -0.10579237167E+03  0.13269537449E+03  0.80100165475E+02 0.  0.
         66    2    3    3    0    0  0.21352325774E+02 -0.25760501814E+02 -0.16540790907E+02  0.37378108997E+02  0.19999996633E+01 0.  0.
        -13    1    3    3    0    0 -0.21352325774E+02  0.25760501814E+02 -0.89251580761E+02  0.95317265498E+02  0.10566000000E+00 0.  1.
         13    1    4    4    0    0  0.11636275566E+02 -0.14982217664E+02 -0.96177661406E+01  0.21269281717E+02  0.10566000000E+00 0. -1.
        -13    1    4    4    0    0  0.86755908740E+01 -0.91560813493E+01 -0.61352354932E+01  0.14026830764E+02  0.10566000000E+00 0.  1.
         14    1    4    4    0    0  0.10404593341E+01 -0.16222028010E+01 -0.78778927366E+00  0.20819965161E+01  0.00000000000E+00 0. -1.
<mgrwt>
<rscale>  0 0.80100165E+02</rscale>
<asrwt>0</asrwt>
<pdfrwt beam="1">  1        2 0.20694618E-02 0.80100165E+02</pdfrwt>
<pdfrwt beam="2">  1       -1 0.18345211E-01 0.80100165E+02</pdfrwt>
<totfact> 0.11365189E+05</totfact>
</mgrwt>
</event>
<event>
 8    1  0.1226832E-020  0.7802619E+02  0.7818608E-02  0.1334748E+00
         -1   -1    0    0    0  501 -0.00000000000E+00  0.00000000000E+00  0.44717171579E+02  0.44717171863E+02  0.50400000000E-02 0.  1.
          2   -1    0    0  501    0  0.00000000000E+00 -0.00000000000E+00 -0.34036627593E+02  0.34036627688E+02  0.25500000000E-02 0. -1.
         24    2    1    2    0    0 -0.71054273576E-14  0.17763568394E-14  0.10680543986E+02  0.78753799551E+02  0.78026193831E+02 0.  0.
         66    2    3    3    0    0  0.37549526557E+02 -0.10441636011E+02  0.43233543071E+01  0.39264310672E+02  0.19999982133E+01 0.  0.
        -13    1    3    3    0    0 -0.37549526557E+02  0.10441636011E+02  0.63571896790E+01  0.39489488879E+02  0.10566000000E+00 0.  1.
         13    1    4    4    0    0  0.22450783850E+02 -0.65621335804E+01  0.20250399142E+01  0.23477888391E+02  0.10566000000E+00 0. -1.
        -13    1    4    4    0    0  0.93901299890E+01 -0.23655196496E+01  0.96677174617E+00  0.97322164005E+01  0.10566000000E+00 0.  1.
        -14    1    4    4    0    0  0.57086127179E+01 -0.15139827811E+01  0.13315426468E+01  0.60542058806E+01  0.00000000000E+00 0.  1.
<mgrwt>
<rscale>  0 0.78026194E+02</rscale>
<asrwt>0</asrwt>
<pdfrwt beam="1">  1        2 0.52364043E-02 0.78026194E+02</pdfrwt>
<pdfrwt beam="2">  1       -1 0.68795649E-02 0.78026194E+02</pdfrwt>
<totfact> 0.14788741E+05</totfact>
</mgrwt>
</event>
<event>
 8    1  0.1226832E-020  0.8160459E+02  0.7818608E-02  0.1324559E+00
         -1   -1    0    0    0  501 -0.00000000000E+00  0.00000000000E+00  0.87979798821E+01  0.87979813257E+01  0.50400000000E-02 0.  1.
          2   -1    0    0  501    0  0.00000000000E+00 -0.00000000000E+00 -0.18922834267E+03  0.18922834269E+03  0.25500000000E-02 0. -1.
         24    2    1    2    0    0  0.00000000000E+00  0.71054273576E-14 -0.18043036279E+03  0.19802632401E+03  0.81604590473E+02 0.  0.
         66    2    3    3    0    0 -0.13257870052E+02  0.38548978888E+02 -0.92728920060E+02  0.10131360969E+03  0.20000001850E+01 0.  0.
        -13    1    3    3    0    0  0.13257870052E+02 -0.38548978888E+02 -0.87701442729E+02  0.96712714327E+02  0.10566000000E+00 0.  1.
         13    1    4    4    0    0 -0.75306257857E+01  0.22748413621E+02 -0.52988679697E+02  0.58155068455E+02  0.10566000000E+00 0. -1.
        -13    1    4    4    0    0 -0.73357960761E+00  0.20599125543E+01 -0.44326206254E+01  0.49437504404E+01  0.10566000000E+00 0.  1.
        -14    1    4    4    0    0 -0.49936646592E+01  0.13740652712E+02 -0.35307619738E+02  0.38214790791E+02  0.00000000000E+00 0.  1.
<mgrwt>
<rscale>  0 0.81604590E+02</rscale>
<asrwt>0</asrwt>
<pdfrwt beam="1">  1        2 0.29112050E-01 0.81604590E+02</pdfrwt>
<pdfrwt beam="2">  1       -1 0.13535356E-02 0.81604590E+02</pdfrwt>
<totfact> 0.20533810E+05</totfact>
</mgrwt>
</event>
<event>
 8    1  0.1226832E-020  0.7991866E+02  0.7818608E-02  0.1329282E+00
         -1   -1    0    0    0  501 -0.00000000000E+00  0.00000000000E+00  0.27237630693E+03  0.27237630698E+03  0.50400000000E-02 0.  1.
          2   -1    0    0  501    0  0.00000000000E+00 -0.00000000000E+00 -0.58622871308E+01  0.58622876854E+01  0.25500000000E-02 0. -1.
         24    2    1    2    0    0  0.14210854715E-13 -0.44408920985E-15  0.26651401980E+03  0.27823859466E+03  0.79918663714E+02 0.  0.
         66    2    3    3    0    0  0.39397844845E+02 -0.39257889533E+01  0.15147800870E+03  0.15657965742E+03  0.20000001070E+01 0.  0.
        -13    1    3    3    0    0 -0.39397844845E+02  0.39257889533E+01  0.11503601109E+03  0.12165893724E+03  0.10566000000E+00 0.  1.
         13    1    4    4    0    0  0.17656915104E+02 -0.12265911247E+01  0.67835828328E+02  0.70106932223E+02  0.10566000000E+00 0. -1.
        -13    1    4    4    0    0  0.77621349088E+01 -0.13995067504E+01  0.28500962203E+02  0.29572375083E+02  0.10566000000E+00 0.  1.
        -14    1    4    4    0    0  0.13978794833E+02 -0.12996910782E+01  0.55141218171E+02  0.56900350116E+02  0.00000000000E+00 0.  1.
<mgrwt>
<rscale>  0 0.79918664E+02</rscale>
<asrwt>0</asrwt>
<pdfrwt beam="1">  1        2 0.90189045E-03 0.79918664E+02</pdfrwt>
<pdfrwt beam="2">  1       -1 0.41904044E-01 0.79918664E+02</pdfrwt>
<totfact> 0.89991845E+04</totfact>
</mgrwt>
</event>
<event>
 8    1  0.1226832E-020  0.7867578E+02  0.7818608E-02  0.1332852E+00
          2   -1    0    0  501    0  0.00000000000E+00  0.00000000000E+00  0.14061127071E+03  0.14061127073E+03  0.25500000000E-02 0. -1.
         -1   -1    0    0    0  501 -0.00000000000E+00 -0.00000000000E+00 -0.11005301050E+02  0.11005302204E+02  0.50400000000E-02 0.  1.
         24    2    1    2    0    0  0.00000000000E+00  0.88817841970E-15  0.12960596966E+03  0.15161657294E+03  0.78675776562E+02 0.  0.
         66    2    3    3    0    0  0.18659688906E+02 -0.58154781061E+01  0.13057744960E+03  0.13204724201E+03  0.20000005279E+01 0.  0.
        -13    1    3    3    0    0 -0.18659688906E+02  0.58154781061E+01 -0.97147994120E+00  0.19569330928E+02  0.10566000000E+00 0.  1.
         13    1    4    4    0    0  0.87463194494E-01 -0.53095665566E-01  0.94254220665E+00  0.95394905891E+00  0.10566000000E+00 0.  1.
        -13    1    4    4    0    0  0.13439187118E+01 -0.34162938459E+00  0.71541293095E+01  0.72880421481E+01  0.10566000000E+00 0.  1.
         14    1    4    4    0    0  0.17228306999E+02 -0.54207530559E+01  0.12248077809E+03  0.12380525080E+03  0.00000000000E+00 0. -1.
<mgrwt>
<rscale>  0 0.78675777E+02</rscale>
<asrwt>0</asrwt>
<pdfrwt beam="1">  1        2 0.21632502E-01 0.78675777E+02</pdfrwt>
<pdfrwt beam="2">  1       -1 0.16931235E-02 0.78675777E+02</pdfrwt>
<totfact> 0.20510056E+05</totfact>
</mgrwt>
</event>
<event>
 8    1  0.1226832E-020  0.8017592E+02  0.7818608E-02  0.1328553E+00
         -1   -1    0    0    0  501 -0.00000000000E+00  0.00000000000E+00  0.18231812163E+02  0.18231812860E+02  0.50400000000E-02 0.  1.
          2   -1    0    0  501    0  0.00000000000E+00 -0.00000000000E+00 -0.88145076030E+02  0.88145076067E+02  0.25500000000E-02 0. -1.
         24    2    1    2    0    0  0.71054273576E-14  0.00000000000E+00 -0.69913263867E+02  0.10637688893E+03  0.80175919285E+02 0.  0.
         66    2    3    3    0    0 -0.37066385960E+02 -0.15089569597E+02 -0.32521974279E+02  0.51607081735E+02  0.19999988711E+01 0.  0.
        -13    1    3    3    0    0  0.37066385960E+02  0.15089569597E+02 -0.37391289589E+02  0.54769807192E+02  0.10566000000E+00 0.  1.
         13    1    4    4    0    0 -0.65946359057E+01 -0.28834782849E+01 -0.65457822995E+01  0.97294449839E+01  0.10566000000E+00 0. -1.
        -13    1    4    4    0    0 -0.83330013821E+01 -0.27883915415E+01 -0.71170136873E+01  0.11308275168E+02  0.10566000000E+00 0.  1.
        -14    1    4    4    0    0 -0.22138748672E+02 -0.94176997703E+01 -0.18859178292E+02  0.30569361582E+02  0.00000000000E+00 0.  1.
<mgrwt>
<rscale>  0 0.80175919E+02</rscale>
<asrwt>0</asrwt>
<pdfrwt beam="1">  1        2 0.13560781E-01 0.80175919E+02</pdfrwt>
<pdfrwt beam="2">  1       -1 0.28048943E-02 0.80175919E+02</pdfrwt>
<totfact> 0.17024084E+05</totfact>
</mgrwt>
</event>
<event>
 8    1  0.1226832E-020  0.8033469E+02  0.7818608E-02  0.1328104E+00
         -1   -1    0    0    0  501 -0.00000000000E+00  0.00000000000E+00  0.32111647262E+02  0.32111647658E+02  0.50400000000E-02 0.  1.
          2   -1    0    0  501    0  0.00000000000E+00 -0.00000000000E+00 -0.50243931537E+02  0.50243931602E+02  0.25500000000E-02 0. -1.
         24    2    1    2    0    0 -0.35527136788E-14 -0.35527136788E-14 -0.18132284275E+02  0.82355579259E+02  0.80334685548E+02 0.  0.
         66    2    3    3    0    0  0.21224118577E+02  0.24891090340E+02  0.14781164964E+02  0.35951528870E+02  0.20000006767E+01 0.  0.
        -13    1    3    3    0    0 -0.21224118577E+02 -0.24891090340E+02 -0.32913449239E+02  0.46404050389E+02  0.10566000000E+00 0.  1.
         13    1    4    4    0    0  0.40453237519E+01  0.41536679851E+01  0.22047038539E+01  0.62039894509E+01  0.10566000000E+00 0. -1.
        -13    1    4    4    0    0  0.27073880224E+01  0.26007067494E+01  0.17421335988E+01  0.41400264506E+01  0.10566000000E+00 0.  1.
        -14    1    4    4    0    0  0.14471406803E+02  0.18136715605E+02  0.10834327511E+02  0.25607512968E+02  0.00000000000E+00 0.  1.
<mgrwt>
<rscale>  0 0.80334686E+02</rscale>
<asrwt>0</asrwt>
<pdfrwt beam="1">  1        2 0.77298357E-02 0.80334686E+02</pdfrwt>
<pdfrwt beam="2">  1       -1 0.49402534E-02 0.80334686E+02</pdfrwt>
<totfact> 0.14788733E+05</totfact>
</mgrwt>
</event>
<event>
 8    1  0.1226832E-020  0.8104756E+02  0.7818608E-02  0.1326105E+00
          2   -1    0    0  501    0  0.00000000000E+00  0.00000000000E+00  0.11794093902E+04  0.11794093902E+04  0.25500000000E-02 0. -1.
         -1   -1    0    0    0  501 -0.00000000000E+00 -0.00000000000E+00 -0.13923677092E+01  0.13923768309E+01  0.50400000000E-02 0.  1.
         24    2    1    2    0    0 -0.35527136788E-14 -0.17763568394E-14  0.11780170225E+04  0.11808017671E+04  0.81047564750E+02 0.  0.
         66    2    3    3    0    0 -0.23248396460E+02 -0.14452126847E+02  0.10242087180E+04  0.10245764247E+04  0.20000033973E+01 0.  0.
        -13    1    3    3    0    0  0.23248396460E+02  0.14452126847E+02  0.15380830448E+03  0.15622534238E+03  0.10566000000E+00 0.  1.
         13    1    4    4    0    0 -0.35570880605E+01 -0.26151173739E+01  0.17367551811E+03  0.17373165650E+03  0.10566000000E+00 0. -1.
        -13    1    4    4    0    0 -0.66716710934E+01 -0.48054762165E+01  0.31135425853E+03  0.31146282164E+03  0.10566000000E+00 0.  1.
         14    1    4    4    0    0 -0.13019637306E+02 -0.70315332570E+01  0.53917894140E+03  0.53938194655E+03  0.00000000000E+00 0. -1.
<mgrwt>
<rscale>  0 0.81047565E+02</rscale>
<asrwt>0</asrwt>
<pdfrwt beam="1">  1        2 0.18144820E+00 0.81047565E+02</pdfrwt>
<pdfrwt beam="2">  1       -1 0.21421041E-03 0.81047565E+02</pdfrwt>
<totfact> 0.33933450E+05</totfact>
</mgrwt>
</event>
<event>
 8    1  0.1226832E-020  0.7982921E+02  0.7818608E-02  0.1329537E+00
          2   -1    0    0  501    0  0.00000000000E+00  0.00000000000E+00  0.37343545297E+02  0.37343545384E+02  0.25500000000E-02 0. -1.
         -1   -1    0    0    0  501 -0.00000000000E+00 -0.00000000000E+00 -0.42662683537E+02  0.42662683835E+02  0.50400000000E-02 0.  1.
         24    2    1    2    0    0  0.00000000000E+00  0.00000000000E+00 -0.53191382402E+01  0.80006229219E+02  0.79829214466E+02 0.  0.
         66    2    3    3    0    0  0.18044879226E+02  0.20399262427E+02  0.26548260664E+02  0.38086188060E+02  0.20000007088E+01 0.  0.
        -13    1    3    3    0    0 -0.18044879226E+02 -0.20399262427E+02 -0.31867398904E+02  0.41920041159E+02  0.10566000000E+00 0.  1.
         13    1    4    4    0    0  0.42864333936E+01  0.47509756628E+01  0.65522049952E+01  0.91590302610E+01  0.10566000000E+00 0. -1.
        -13    1    4    4    0    0  0.73685909229E+01  0.96083200794E+01  0.11418461957E+02  0.16643568861E+02  0.10566000000E+00 0.  1.
         14    1    4    4    0    0  0.63898549096E+01  0.60399666849E+01  0.85775937110E+01  0.12283588938E+02  0.00000000000E+00 0. -1.
<mgrwt>
<rscale>  0 0.79829214E+02</rscale>
<asrwt>0</asrwt>
<pdfrwt beam="1">  1        2 0.57451608E-02 0.79829214E+02</pdfrwt>
<pdfrwt beam="2">  1       -1 0.65634898E-02 0.79829214E+02</pdfrwt>
<totfact> 0.14140149E+05</totfact>
</mgrwt>
</event>
<event>
 8    1  0.1226832E-020  0.7971640E+02  0.7818608E-02  0.1329858E+00
          2   -1    0    0  501    0  0.00000000000E+00  0.00000000000E+00  0.41599653415E+01  0.41599661231E+01  0.25500000000E-02 0. -1.
         -1   -1    0    0    0  501 -0.00000000000E+00 -0.00000000000E+00 -0.38189647817E+03  0.38189647820E+03  0.50400000000E-02 0.  1.
         24    2    1    2    0    0  0.00000000000E+00  0.00000000000E+00 -0.37773651283E+03  0.38605644433E+03  0.79716404097E+02 0.  0.
         66    2    3    3    0    0 -0.36858515580E+02  0.53653601779E+01 -0.25736125952E+03  0.26005029355E+03  0.20000031520E+01 0.  0.
        -13    1    3    3    0    0  0.36858515580E+02 -0.53653601779E+01 -0.12037525331E+03  0.12600615078E+03  0.10566000000E+00 0.  1.
         13    1    4    4    0    0 -0.55606386248E+01  0.99346907778E+00 -0.38702046052E+02  0.39112238690E+02  0.10566000000E+00 0. -1.
        -13    1    4    4    0    0 -0.22662565740E+02  0.33787992548E+01 -0.16365839988E+03  0.16525462530E+03  0.10566000000E+00 0.  1.
        -14    1    4    4    0    0 -0.86353112161E+01  0.99309184533E+00 -0.55000813590E+02  0.55683429553E+02  0.00000000000E+00 0.  1.
<mgrwt>
<rscale>  0 0.79716404E+02</rscale>
<asrwt>0</asrwt>
<pdfrwt beam="1">  1        2 0.63999503E-03 0.79716404E+02</pdfrwt>
<pdfrwt beam="2">  1       -1 0.58753277E-01 0.79716404E+02</pdfrwt>
<totfact> 0.78301351E+04</totfact>
</mgrwt>
</event>
<event>
 8    1  0.1226832E-020  0.7985618E+02  0.7818608E-02  0.1329460E+00
          2   -1    0    0  501    0  0.00000000000E+00  0.00000000000E+00  0.11977777973E+04  0.11977777973E+04  0.25500000000E-02 0. -1.
         -1   -1    0    0    0  501 -0.00000000000E+00 -0.00000000000E+00 -0.13310036897E+01  0.13310132319E+01  0.50400000000E-02 0.  1.
         24    2    1    2    0    0  0.00000000000E+00  0.00000000000E+00  0.11964467937E+04  0.11991088106E+04  0.79856180485E+02 0.  0.
         66    2    3    3    0    0  0.12375854020E+02  0.15844441384E+02  0.11161632692E+04  0.11163461164E+04  0.19999997891E+01 0.  0.
        -13    1    3    3    0    0 -0.12375854020E+02 -0.15844441384E+02  0.80283524499E+02  0.82762694226E+02  0.10566000000E+00 0.  1.
         13    1    4    4    0    0  0.51477796315E+01  0.65984221047E+01  0.44362652723E+03  0.44370547172E+03  0.10566000000E+00 0.  1.
        -13    1    4    4    0    0  0.61301629213E+01  0.85492592566E+01  0.60188641203E+03  0.60197834918E+03  0.10566000000E+00 0. -1.
        -14    1    4    4    0    0  0.10979114675E+01  0.69676002254E+00  0.70650329902E+02  0.70662295458E+02  0.00000000000E+00 0.  1.
<mgrwt>
<rscale>  0 0.79856180E+02</rscale>
<asrwt>0</asrwt>
<pdfrwt beam="1">  1        2 0.18427384E+00 0.79856180E+02</pdfrwt>
<pdfrwt beam="2">  1       -1 0.20477016E-03 0.79856180E+02</pdfrwt>
<totfact> 0.35209253E+05</totfact>
</mgrwt>
</event>
<event>
 8    1  0.1226832E-020  0.7866470E+02  0.7818608E-02  0.1332884E+00
          2   -1    0    0  501    0  0.00000000000E+00  0.00000000000E+00  0.12998628003E+04  0.12998628003E+04  0.25500000000E-02 0. -1.
         -1   -1    0    0    0  501 -0.00000000000E+00 -0.00000000000E+00 -0.11901462656E+01  0.11901569372E+01  0.50400000000E-02 0.  1.
         24    2    1    2    0    0 -0.71054273576E-14  0.00000000000E+00  0.12986726540E+04  0.13010529572E+04  0.78664701139E+02 0.  0.
         66    2    3    3    0    0  0.23946951894E+02  0.51837570153E+00  0.11652120563E+04  0.11654599356E+04  0.20000027568E+01 0.  0.
        -13    1    3    3    0    0 -0.23946951894E+02 -0.51837570153E+00  0.13346059764E+03  0.13559302159E+03  0.10566000000E+00 0.  1.
         13    1    4    4    0    0  0.15794262017E+02  0.91046063957E+00  0.78420691646E+03  0.78436648746E+03  0.10566000000E+00 0. -1.
        -13    1    4    4    0    0  0.26296539298E+01  0.21837718219E+00  0.12973288937E+03  0.12975976463E+03  0.10566000000E+00 0.  1.
        -14    1    4    4    0    0  0.55230359474E+01 -0.61046212023E+00  0.25127225051E+03  0.25133368351E+03  0.00000000000E+00 0.  1.
<mgrwt>
<rscale>  0 0.78664701E+02</rscale>
<asrwt>0</asrwt>
<pdfrwt beam="1">  1        2 0.19998027E+00 0.78664701E+02</pdfrwt>
<pdfrwt beam="2">  1       -1 0.18309899E-03 0.78664701E+02</pdfrwt>
<totfact> 0.36163046E+05</totfact>
</mgrwt>
</event>
<event>
 8    1  0.1226832E-020  0.7936426E+02  0.7818608E-02  0.1330865E+00
         -1   -1    0    0    0  501 -0.00000000000E+00  0.00000000000E+00  0.20426044508E+02  0.20426045130E+02  0.50400000000E-02 0.  1.
          2   -1    0    0  501    0  0.00000000000E+00 -0.00000000000E+00 -0.77091357137E+02  0.77091357180E+02  0.25500000000E-02 0. -1.
         24    2    1    2    0    0 -0.17763568394E-14  0.17763568394E-14 -0.56665312629E+02  0.97517402310E+02  0.79364262095E+02 0.  0.
         66    2    3    3    0    0 -0.10968496131E+02  0.99206220726E+01 -0.73562923661E+02  0.75061510604E+02  0.19999967451E+01 0.  0.
        -13    1    3    3    0    0  0.10968496131E+02 -0.99206220726E+01  0.16897611032E+02  0.22455891705E+02  0.10566000000E+00 0.  1.
         13    1    4    4    0    0 -0.32225276072E+01  0.28947076844E+01 -0.22606002762E+02  0.23017526837E+02  0.10566000000E+00 0. -1.
        -13    1    4    4    0    0 -0.31137640877E+01  0.36509458977E+01 -0.25778411992E+02  0.26221415324E+02  0.10566000000E+00 0.  1.
         14    1    4    4    0    0 -0.46322044357E+01  0.33749684906E+01 -0.25178508907E+02  0.25822568443E+02  0.00000000000E+00 0. -1.
<mgrwt>
<rscale>  0 0.79364262E+02</rscale>
<asrwt>0</asrwt>
<pdfrwt beam="1">  1        2 0.11860209E-01 0.79364262E+02</pdfrwt>
<pdfrwt beam="2">  1       -1 0.31424685E-02 0.79364262E+02</pdfrwt>
<totfact> 0.16898479E+05</totfact>
</mgrwt>
</event>
<event>
 8    1  0.1226832E-020  0.7990193E+02  0.7818608E-02  0.1329330E+00
         -1   -1    0    0    0  501 -0.00000000000E+00  0.00000000000E+00  0.22003303810E+02  0.22003304388E+02  0.50400000000E-02 0.  1.
          2   -1    0    0  501    0  0.00000000000E+00 -0.00000000000E+00 -0.72538183703E+02  0.72538183748E+02  0.25500000000E-02 0. -1.
         24    2    1    2    0    0  0.00000000000E+00 -0.88817841970E-15 -0.50534879893E+02  0.94541488136E+02  0.79901932975E+02 0.  0.
         66    2    3    3    0    0 -0.32392534742E+02  0.51434995185E+01 -0.52221745528E+02  0.61699615869E+02  0.19999995205E+01 0.  0.
        -13    1    3    3    0    0  0.32392534742E+02 -0.51434995185E+01  0.16868656355E+01  0.32841872267E+02  0.10566000000E+00 0.  1.
         13    1    4    4    0    0 -0.22985766483E+02  0.34856182328E+01 -0.36963543172E+02  0.43667031994E+02  0.10566000000E+00 0. -1.
        -13    1    4    4    0    0 -0.32892185567E+01  0.10111851634E+01 -0.49820769282E+01  0.60558821572E+01  0.10566000000E+00 0.  1.
        -14    1    4    4    0    0 -0.61175497020E+01  0.64669612225E+00 -0.10276125428E+02  0.11976701718E+02  0.00000000000E+00 0.  1.
<mgrwt>
<rscale>  0 0.79901933E+02</rscale>
<asrwt>0</asrwt>
<pdfrwt beam="1">  1        2 0.11159720E-01 0.79901933E+02</pdfrwt>
<pdfrwt beam="2">  1       -1 0.33851237E-02 0.79901933E+02</pdfrwt>
<totfact> 0.16342619E+05</totfact>
</mgrwt>
</event>
<event>
 8    1  0.1226832E-020  0.8024372E+02  0.7818608E-02  0.1328361E+00
         -1   -1    0    0    0  501 -0.00000000000E+00  0.00000000000E+00  0.78363822841E+01  0.78363839048E+01  0.50400000000E-02 0.  1.
          2   -1    0    0  501    0  0.00000000000E+00 -0.00000000000E+00 -0.20542174261E+03  0.20542174263E+03  0.25500000000E-02 0. -1.
         24    2    1    2    0    0  0.00000000000E+00  0.00000000000E+00 -0.19758536033E+03  0.21325812653E+03  0.80243715744E+02 0.  0.
         66    2    3    3    0    0 -0.55403608788E+01  0.36659287971E+02 -0.13943472982E+03  0.14429359952E+03  0.19999975474E+01 0.  0.
        -13    1    3    3    0    0  0.55403608788E+01 -0.36659287971E+02 -0.58150630513E+02  0.68964527015E+02  0.10566000000E+00 0.  1.
         13    1    4    4    0    0 -0.50213097209E+00  0.46132458305E+01 -0.16863416961E+02  0.17490573697E+02  0.10566000000E+00 0. -1.
        -13    1    4    4    0    0 -0.28699718856E+01  0.20849532421E+02 -0.76680856547E+02  0.79516694257E+02  0.10566000000E+00 0.  1.
        -14    1    4    4    0    0 -0.21682580211E+01  0.11196509720E+02 -0.45890456309E+02  0.47286331566E+02  0.00000000000E+00 0.  1.
<mgrwt>
<rscale>  0 0.80243716E+02</rscale>
<asrwt>0</asrwt>
<pdfrwt beam="1">  1        2 0.31603341E-01 0.80243716E+02</pdfrwt>
<pdfrwt beam="2">  1       -1 0.12055976E-02 0.80243716E+02</pdfrwt>
<totfact> 0.22086987E+05</totfact>
</mgrwt>
</event>
<event>
 8    1  0.1226832E-020  0.7882190E+02  0.7818608E-02  0.1332428E+00
         -1   -1    0    0    0  501 -0.00000000000E+00  0.00000000000E+00  0.17064745076E+02  0.17064745821E+02  0.50400000000E-02 0.  1.
          2   -1    0    0  501    0  0.00000000000E+00 -0.00000000000E+00 -0.91019409760E+02  0.91019409796E+02  0.25500000000E-02 0. -1.
         24    2    1    2    0    0  0.44408920985E-15  0.00000000000E+00 -0.73954664684E+02  0.10808415562E+03  0.78821902203E+02 0.  0.
         66    2    3    3    0    0 -0.33764987189E+01 -0.32247353426E+02 -0.67660765860E+02  0.75055124855E+02  0.19999959156E+01 0.  0.
        -13    1    3    3    0    0  0.33764987189E+01  0.32247353426E+02 -0.62938988235E+01  0.33029030761E+02  0.10566000000E+00 0.  1.
         13    1    4    4    0    0 -0.23266668536E+01 -0.17268693932E+02 -0.36012033268E+02  0.40006235426E+02  0.10566000000E+00 0. -1.
        -13    1    4    4    0    0  0.15481943443E+00 -0.14186380118E+01 -0.25774692303E+01  0.29480526682E+01  0.10566000000E+00 0.  1.
        -14    1    4    4    0    0 -0.12046512998E+01 -0.13560021482E+02 -0.29071263361E+02  0.32100836762E+02  0.00000000000E+00 0.  1.
<mgrwt>
<rscale>  0 0.78821902E+02</rscale>
<asrwt>0</asrwt>
<pdfrwt beam="1">  1        2 0.14002986E-01 0.78821902E+02</pdfrwt>
<pdfrwt beam="2">  1       -1 0.26253455E-02 0.78821902E+02</pdfrwt>
<totfact> 0.17974516E+05</totfact>
</mgrwt>
</event>
<event>
 8    1  0.1226832E-020  0.7928984E+02  0.7818608E-02  0.1331079E+00
          2   -1    0    0  501    0  0.00000000000E+00  0.00000000000E+00  0.18849729584E+02  0.18849729756E+02  0.25500000000E-02 0. -1.
         -1   -1    0    0    0  501 -0.00000000000E+00 -0.00000000000E+00 -0.83381560271E+02  0.83381560423E+02  0.50400000000E-02 0.  1.
         24    2    1    2    0    0  0.35527136788E-14  0.00000000000E+00 -0.64531830687E+02  0.10223129018E+03  0.79289844998E+02 0.  0.
         66    2    3    3    0    0 -0.16442408001E+02 -0.22200531742E+02  0.43293740001E+01  0.28034975813E+02  0.19999997678E+01 0.  0.
        -13    1    3    3    0    0  0.16442408001E+02  0.22200531742E+02 -0.68861204688E+02  0.74196314367E+02  0.10566000000E+00 0.  1.
         13    1    4    4    0    0 -0.13640317605E+02 -0.18619738914E+02  0.30597685335E+01  0.23283605587E+02  0.10566000000E+00 0. -1.
        -13    1    4    4    0    0 -0.14406278653E+01 -0.19427368673E+01  0.93537729680E+00  0.25953284773E+01  0.10566000000E+00 0.  1.
        -14    1    4    4    0    0 -0.13614625302E+01 -0.16380559610E+01  0.33422816983E+00  0.21560417487E+01  0.00000000000E+00 0.  1.
<mgrwt>
<rscale>  0 0.79289845E+02</rscale>
<asrwt>0</asrwt>
<pdfrwt beam="1">  1        2 0.28999585E-02 0.79289845E+02</pdfrwt>
<pdfrwt beam="2">  1       -1 0.12827932E-01 0.79289845E+02</pdfrwt>
<totfact> 0.12586223E+05</totfact>
</mgrwt>
</event>
<event>
 8    1  0.1226832E-020  0.7911418E+02  0.7818608E-02  0.1331584E+00
         -1   -1    0    0    0  501 -0.00000000000E+00  0.00000000000E+00  0.53857882505E+02  0.53857882741E+02  0.50400000000E-02 0.  1.
          2   -1    0    0  501    0  0.00000000000E+00 -0.00000000000E+00 -0.29053561630E+02  0.29053561741E+02  0.25500000000E-02 0. -1.
         24    2    1    2    0    0  0.35527136788E-14  0.22204460493E-15  0.24804320876E+02  0.82911444482E+02  0.79114178831E+02 0.  0.
         66    2    3    3    0    0  0.31177926721E+02  0.11414011939E+01 -0.13032591816E+02  0.33870553001E+02  0.19999999627E+01 0.  0.
        -13    1    3    3    0    0 -0.31177926721E+02 -0.11414011939E+01  0.37836912691E+02  0.49040891482E+02  0.10566000000E+00 0.  1.
         13    1    4    4    0    0  0.17366921994E+02  0.47173595211E+00 -0.75343184332E+01  0.18936991119E+02  0.10566000000E+00 0. -1.
        -13    1    4    4    0    0  0.76667190977E+01 -0.24031099313E+00 -0.29116059893E+01  0.82051779121E+01  0.10566000000E+00 0.  1.
        -14    1    4    4    0    0  0.61442856292E+01  0.90997623487E+00 -0.25866673933E+01  0.67283839698E+01  0.00000000000E+00 0.  1.
<mgrwt>
<rscale>  0 0.79114179E+02</rscale>
<asrwt>0</asrwt>
<pdfrwt beam="1">  1        2 0.44697787E-02 0.79114179E+02</pdfrwt>
<pdfrwt beam="2">  1       -1 0.82858282E-02 0.79114179E+02</pdfrwt>
<totfact> 0.13794591E+05</totfact>
</mgrwt>
</event>
<event>
 8    1  0.1226832E-020  0.7927319E+02  0.7818608E-02  0.1331127E+00
          2   -1    0    0  501    0  0.00000000000E+00  0.00000000000E+00  0.71446152331E+03  0.71446152332E+03  0.25500000000E-02 0. -1.
         -1   -1    0    0    0  501 -0.00000000000E+00 -0.00000000000E+00 -0.21989393638E+01  0.21989451397E+01  0.50400000000E-02 0.  1.
         24    2    1    2    0    0 -0.17763568394E-14 -0.11102230246E-15  0.71226258395E+03  0.71666046846E+03  0.79273189385E+02 0.  0.
         66    2    3    3    0    0  0.12830387469E+02 -0.44158845803E+00  0.69512966175E+03  0.69525107729E+03  0.19999967067E+01 0.  0.
        -13    1    3    3    0    0 -0.12830387469E+02  0.44158845803E+00  0.17132922197E+02  0.21409391164E+02  0.10566000000E+00 0.  1.
         13    1    4    4    0    0  0.34542190149E+01 -0.98694764146E+00  0.19029476526E+03  0.19032870132E+03  0.10566000000E+00 0. -1.
        -13    1    4    4    0    0  0.75364763934E+01  0.33590903409E+00  0.40971550834E+03  0.40978496830E+03  0.10566000000E+00 0.  1.
         14    1    4    4    0    0  0.18396920604E+01  0.20945014935E+00  0.95119388150E+02  0.95137407670E+02  0.00000000000E+00 0. -1.
<mgrwt>
<rscale>  0 0.79273189E+02</rscale>
<asrwt>0</asrwt>
<pdfrwt beam="1">  1        2 0.10991729E+00 0.79273189E+02</pdfrwt>
<pdfrwt beam="2">  1       -1 0.33829840E-03 0.79273189E+02</pdfrwt>
<totfact> 0.34412341E+05</totfact>
</mgrwt>
</event>
<event>
 8    1  0.1226832E-020  0.8081244E+02  0.7818608E-02  0.1326762E+00
         -1   -1    0    0    0  501 -0.00000000000E+00  0.00000000000E+00  0.74761024182E+01  0.74761041170E+01  0.50400000000E-02 0.  1.
          2   -1    0    0  501    0  0.00000000000E+00 -0.00000000000E+00 -0.21838417308E+03  0.21838417309E+03  0.25500000000E-02 0. -1.
         24    2    1    2    0    0  0.00000000000E+00  0.00000000000E+00 -0.21090807066E+03  0.22586027721E+03  0.80812440576E+02 0.  0.
         66    2    3    3    0    0 -0.38505438030E+02 -0.50806284060E+01 -0.74625821171E+02  0.84151617514E+02  0.20000005069E+01 0.  0.
        -13    1    3    3    0    0  0.38505438030E+02  0.50806284060E+01 -0.13628224949E+03  0.14170865969E+03  0.10566000000E+00 0.  1.
         13    1    4    4    0    0 -0.28695521405E+02 -0.42038266550E+01 -0.54215254865E+02  0.61485039899E+02  0.10566000000E+00 0. -1.
        -13    1    4    4    0    0 -0.92920975273E+01 -0.79173126741E+00 -0.19118128127E+02  0.21271668998E+02  0.10566000000E+00 0.  1.
         14    1    4    4    0    0 -0.51781909764E+00 -0.85070483575E-01 -0.12924381787E+01  0.13949086174E+01  0.00000000000E+00 0. -1.
<mgrwt>
<rscale>  0 0.80812441E+02</rscale>
<asrwt>0</asrwt>
<pdfrwt beam="1">  1        2 0.33597560E-01 0.80812441E+02</pdfrwt>
<pdfrwt beam="2">  1       -1 0.11501699E-02 0.80812441E+02</pdfrwt>
<totfact> 0.22150089E+05</totfact>
</mgrwt>
</event>
<event>
 8    1  0.1226832E-020  0.8497002E+02  0.7818608E-02  0.1315511E+00
         -1   -1    0    0    0  501 -0.00000000000E+00  0.00000000000E+00  0.77481174739E+01  0.77481191131E+01  0.50400000000E-02 0.  1.
          2   -1    0    0  501    0  0.00000000000E+00 -0.00000000000E+00 -0.23295670120E+03  0.23295670121E+03  0.25500000000E-02 0. -1.
         24    2    1    2    0    0  0.00000000000E+00  0.00000000000E+00 -0.22520858372E+03  0.24070482032E+03  0.84970020270E+02 0.  0.
         66    2    3    3    0    0  0.20107331274E+02 -0.60043602234E+01 -0.21723611119E+03  0.21825646637E+03  0.19999996408E+01 0.  0.
        -13    1    3    3    0    0 -0.20107331274E+02  0.60043602234E+01 -0.79724725376E+01  0.22448353950E+02  0.10566000000E+00 0.  1.
         13    1    4    4    0    0  0.12196666758E+02 -0.34015610130E+01 -0.13547036124E+03  0.13606086592E+03  0.10566000000E+00 0. -1.
        -13    1    4    4    0    0  0.44128583084E+00  0.19710247474E-02 -0.30855070302E+01  0.31186943965E+01  0.10566000000E+00 0. -1.
         14    1    4    4    0    0  0.74693786848E+01 -0.26047702351E+01 -0.78680242919E+02  0.79076906058E+02  0.00000000000E+00 0. -1.
<mgrwt>
<rscale>  0 0.84970020E+02</rscale>
<asrwt>0</asrwt>
<pdfrwt beam="1">  1        2 0.35839487E-01 0.84970020E+02</pdfrwt>
<pdfrwt beam="2">  1       -1 0.11920184E-02 0.84970020E+02</pdfrwt>
<totfact> 0.19850567E+05</totfact>
</mgrwt>
</event>
<event>
 8    1  0.1226832E-020  0.7984013E+02  0.7818608E-02  0.1329506E+00
         -1   -1    0    0    0  501 -0.00000000000E+00  0.00000000000E+00  0.90331560066E+01  0.90331574126E+01  0.50400000000E-02 0.  1.
          2   -1    0    0  501    0  0.00000000000E+00 -0.00000000000E+00 -0.17641799961E+03  0.17641799962E+03  0.25500000000E-02 0. -1.
         24    2    1    2    0    0  0.00000000000E+00 -0.35527136788E-14 -0.16738484360E+03  0.18545115704E+03  0.79840126375E+02 0.  0.
         66    2    3    3    0    0  0.23851343344E+01  0.29915080663E+02 -0.14480371093E+03  0.14789427173E+03  0.19999991065E+01 0.  0.
        -13    1    3    3    0    0 -0.23851343344E+01 -0.29915080663E+02 -0.22581132670E+02  0.37556885302E+02  0.10566000000E+00 0.  1.
         13    1    4    4    0    0  0.10232288192E+01  0.91774001672E+01 -0.46285565444E+02  0.47197843209E+02  0.10566000000E+00 0. -1.
        -13    1    4    4    0    0  0.98575294828E+00  0.55082088134E+01 -0.26151746650E+02  0.26743916880E+02  0.10566000000E+00 0.  1.
         14    1    4    4    0    0  0.37615256692E+00  0.15229471682E+02 -0.72366398834E+02  0.73952511646E+02  0.00000000000E+00 0. -1.
<mgrwt>
<rscale>  0 0.79840126E+02</rscale>
<asrwt>0</asrwt>
<pdfrwt beam="1">  1        2 0.27141228E-01 0.79840126E+02</pdfrwt>
<pdfrwt beam="2">  1       -1 0.13897166E-02 0.79840126E+02</pdfrwt>
<totfact> 0.21242191E+05</totfact>
</mgrwt>
</event>
<event>
 8    1  0.1226832E-020  0.8126625E+02  0.7818608E-02  0.1325496E+00
         -1   -1    0    0    0  501 -0.00000000000E+00  0.00000000000E+00  0.22889191757E+02  0.22889192311E+02  0.50400000000E-02 0.  1.
          2   -1    0    0  501    0  0.00000000000E+00 -0.00000000000E+00 -0.72132326179E+02  0.72132326224E+02  0.25500000000E-02 0. -1.
         24    2    1    2    0    0  0.00000000000E+00  0.22204460493E-15 -0.49243134422E+02  0.95021518535E+02  0.81266245742E+02 0.  0.
         66    2    3    3    0    0 -0.40558065333E+02 -0.18871331943E+01 -0.23787004312E+02  0.47099251691E+02  0.20000001256E+01 0.  0.
        -13    1    3    3    0    0  0.40558065333E+02  0.18871331943E+01 -0.25456130111E+02  0.47922266844E+02  0.10566000000E+00 0.  1.
         13    1    4    4    0    0 -0.89142829289E+01 -0.78118059612E+00 -0.47718695830E+01  0.10141823633E+02  0.10566000000E+00 0.  1.
        -13    1    4    4    0    0 -0.81260681220E+01 -0.68289203331E+00 -0.44295133793E+01  0.92806830280E+01  0.10566000000E+00 0. -1.
         14    1    4    4    0    0 -0.23517714282E+02 -0.42306056492E+00 -0.14585621349E+02  0.27676745030E+02  0.00000000000E+00 0. -1.
<mgrwt>
<rscale>  0 0.81266246E+02</rscale>
<asrwt>0</asrwt>
<pdfrwt beam="1">  1        2 0.11097281E-01 0.81266246E+02</pdfrwt>
<pdfrwt beam="2">  1       -1 0.35214142E-02 0.81266246E+02</pdfrwt>
<totfact> 0.15588926E+05</totfact>
</mgrwt>
</event>
<event>
 8    1  0.1226832E-020  0.8234918E+02  0.7818608E-02  0.1322514E+00
          2   -1    0    0  501    0  0.00000000000E+00  0.00000000000E+00  0.62535247643E+02  0.62535247695E+02  0.25500000000E-02 0. -1.
         -1   -1    0    0    0  501 -0.00000000000E+00 -0.00000000000E+00 -0.27110262901E+02  0.27110263370E+02  0.50400000000E-02 0.  1.
         24    2    1    2    0    0  0.00000000000E+00  0.00000000000E+00  0.35424984742E+02  0.89645511065E+02  0.82349184028E+02 0.  0.
         66    2    3    3    0    0  0.10554709913E+01  0.26467852307E+02  0.52004046597E+02  0.58395908176E+02  0.20000011212E+01 0.  0.
        -13    1    3    3    0    0 -0.10554709913E+01 -0.26467852307E+02 -0.16579061855E+02  0.31249602889E+02  0.10566000000E+00 0.  1.
         13    1    4    4    0    0  0.17108218413E-01  0.19628832557E+01  0.38789602070E+01  0.43486434310E+01  0.10566000000E+00 0. -1.
        -13    1    4    4    0    0  0.13270131680E+01  0.22926023304E+02  0.45579430210E+02  0.51037820592E+02  0.10566000000E+00 0.  1.
        -14    1    4    4    0    0 -0.28865039505E+00  0.15789457471E+01  0.25456561799E+01  0.30094441528E+01  0.00000000000E+00 0.  1.
<mgrwt>
<rscale>  0 0.82349184E+02</rscale>
<asrwt>0</asrwt>
<pdfrwt beam="1">  1        2 0.96208074E-02 0.82349184E+02</pdfrwt>
<pdfrwt beam="2">  1       -1 0.41708097E-02 0.82349184E+02</pdfrwt>
<totfact> 0.14526082E+05</totfact>
</mgrwt>
</event>
<event>
 8    1  0.1391062E-020  0.8124819E+02  0.7818608E-02  0.1325546E+00
         -1   -1    0    0    0  501 -0.00000000000E+00  0.00000000000E+00  0.60487943119E+02  0.60487943329E+02  0.50400000000E-02 0.  1.
          2   -1    0    0  501    0  0.00000000000E+00 -0.00000000000E+00 -0.27283405437E+02  0.27283405556E+02  0.25500000000E-02 0. -1.
         24    2    1    2    0    0  0.00000000000E+00  0.00000000000E+00  0.33204537682E+02  0.87771348885E+02  0.81248189903E+02 0.  0.
         66    2    3    3    0    0  0.38006065806E+02  0.49810262148E+01  0.21574151697E+01  0.38443804445E+02  0.19999999371E+01 0.  0.
        -13    1    3    3    0    0 -0.38006065806E+02 -0.49810262148E+01  0.31047122513E+02  0.49327544441E+02  0.10566000000E+00 0.  1.
         13    1    4    4    0    0  0.23070706419E+02  0.30898213413E+01  0.14205998793E+01  0.23320243538E+02  0.10566000000E+00 0. -1.
        -13    1    4    4    0    0  0.13004808510E+02  0.18687119198E+01  0.29077907350E+00  0.13142025914E+02  0.10566000000E+00 0.  1.
        -14    1    4    4    0    0  0.19305508769E+01  0.22492953793E-01  0.44603621683E+00  0.19815349929E+01  0.00000000000E+00 0.  1.
<mgrwt>
<rscale>  0 0.81248190E+02</rscale>
<asrwt>0</asrwt>
<pdfrwt beam="1">  1        2 0.41974470E-02 0.81248190E+02</pdfrwt>
<pdfrwt beam="2">  1       -1 0.93058374E-02 0.81248190E+02</pdfrwt>
<totfact> 0.12641519E+05</totfact>
</mgrwt>
</event>
<event>
 8    1  0.1226832E-020  0.7875971E+02  0.7818608E-02  0.1332608E+00
         -1   -1    0    0    0  501 -0.00000000000E+00  0.00000000000E+00  0.11395145787E+01  0.11395257244E+01  0.50400000000E-02 0.  1.
          2   -1    0    0  501    0  0.00000000000E+00 -0.00000000000E+00 -0.13609000407E+04  0.13609000407E+04  0.25500000000E-02 0. -1.
         24    2    1    2    0    0  0.44408920985E-15  0.35527136788E-14 -0.13597605262E+04  0.13620395665E+04  0.78759711239E+02 0.  0.
         66    2    3    3    0    0 -0.37415646599E+01 -0.18645136874E+02 -0.12761638526E+04  0.12763071022E+04  0.20000003993E+01 0.  0.
        -13    1    3    3    0    0  0.37415646599E+01  0.18645136874E+02 -0.83596673568E+02  0.85732464276E+02  0.10566000000E+00 0.  1.
         13    1    4    4    0    0 -0.18316134148E+01 -0.73639822605E+01 -0.52399714203E+03  0.52405209576E+03  0.10566000000E+00 0. -1.
        -13    1    4    4    0    0 -0.90651406383E+00 -0.69399783222E+01 -0.41822297310E+03  0.41828154569E+03  0.10566000000E+00 0.  1.
        -14    1    4    4    0    0 -0.10034371813E+01 -0.43411762916E+01 -0.33394373745E+03  0.33397346075E+03  0.00000000000E+00 0.  1.
<mgrwt>
<rscale>  0 0.78759711E+02</rscale>
<asrwt>0</asrwt>
<pdfrwt beam="1">  1        2 0.20936794E+00 0.78759711E+02</pdfrwt>
<pdfrwt beam="2">  1       -1 0.17531188E-03 0.78759711E+02</pdfrwt>
<totfact> 0.35688165E+05</totfact>
</mgrwt>
</event>
<event>
 8    1  0.1226832E-020  0.8075403E+02  0.7818608E-02  0.1326925E+00
          2   -1    0    0  501    0  0.00000000000E+00  0.00000000000E+00  0.47424533392E+03  0.47424533393E+03  0.25500000000E-02 0. -1.
         -1   -1    0    0    0  501 -0.00000000000E+00 -0.00000000000E+00 -0.34376777563E+01  0.34376814508E+01  0.50400000000E-02 0.  1.
         24    2    1    2    0    0  0.00000000000E+00  0.00000000000E+00  0.47080765616E+03  0.47768301538E+03  0.80754034437E+02 0.  0.
         66    2    3    3    0    0 -0.18100919127E+02 -0.27848709339E+02  0.37109750120E+03  0.37258629777E+03  0.20000008711E+01 0.  0.
        -13    1    3    3    0    0  0.18100919127E+02  0.27848709339E+02  0.99710154961E+02  0.10509671761E+03  0.10566000000E+00 0.  1.
         13    1    4    4    0    0 -0.10118948397E+02 -0.14442705625E+02  0.20224062130E+03  0.20300804154E+03  0.10566000000E+00 0. -1.
        -13    1    4    4    0    0 -0.11345321562E+01 -0.16755381551E+01  0.19471199978E+02  0.19576347563E+02  0.10566000000E+00 0.  1.
         14    1    4    4    0    0 -0.68474385745E+01 -0.11730465559E+02  0.14938567993E+03  0.15000190867E+03  0.00000000000E+00 0. -1.
<mgrwt>
<rscale>  0 0.80754034E+02</rscale>
<asrwt>0</asrwt>
<pdfrwt beam="1">  1        2 0.72960837E-01 0.80754034E+02</pdfrwt>
<pdfrwt beam="2">  1       -1 0.52887367E-03 0.80754034E+02</pdfrwt>
<totfact> 0.29211449E+05</totfact>
</mgrwt>
</event>
<event>
 8    1  0.1226832E-020  0.7969445E+02  0.7818608E-02  0.1329921E+00
         -1   -1    0    0    0  501 -0.00000000000E+00  0.00000000000E+00  0.28664654688E+01  0.28664698997E+01  0.50400000000E-02 0.  1.
          2   -1    0    0  501    0  0.00000000000E+00 -0.00000000000E+00 -0.55392258192E+03  0.55392258193E+03  0.25500000000E-02 0. -1.
         24    2    1    2    0    0  0.35527136788E-14  0.00000000000E+00 -0.55105611645E+03  0.55678905183E+03  0.79694446196E+02 0.  0.
         66    2    3    3    0    0 -0.16495776720E+02 -0.22152616531E+02 -0.47612458597E+03  0.47692920902E+03  0.19999954650E+01 0.  0.
        -13    1    3    3    0    0  0.16495776720E+02  0.22152616531E+02 -0.74931530481E+02  0.79859842806E+02  0.10566000000E+00 0.  1.
         13    1    4    4    0    0 -0.85219061040E+01 -0.11232553038E+02 -0.23425711396E+03  0.23468105960E+03  0.10566000000E+00 0. -1.
        -13    1    4    4    0    0 -0.18116665438E+01 -0.18097007011E+01 -0.50145423228E+02  0.50210873195E+02  0.10566000000E+00 0.  1.
        -14    1    4    4    0    0 -0.61622040723E+01 -0.91103627918E+01 -0.19172204879E+03  0.19203727623E+03  0.00000000000E+00 0.  1.
<mgrwt>
<rscale>  0 0.79694446E+02</rscale>
<asrwt>0</asrwt>
<pdfrwt beam="1">  1        2 0.85218774E-01 0.79694446E+02</pdfrwt>
<pdfrwt beam="2">  1       -1 0.44099547E-03 0.79694446E+02</pdfrwt>
<totfact> 0.31744559E+05</totfact>
</mgrwt>
</event>
<event>
 8    1  0.1226832E-020  0.8329635E+02  0.7818608E-02  0.1319949E+00
          2   -1    0    0  501    0  0.00000000000E+00  0.00000000000E+00  0.85924155731E+02  0.85924155769E+02  0.25500000000E-02 0. -1.
         -1   -1    0    0    0  501 -0.00000000000E+00 -0.00000000000E+00 -0.20187224794E+02  0.20187225423E+02  0.50400000000E-02 0.  1.
         24    2    1    2    0    0 -0.22204460493E-15  0.71054273576E-14  0.65736930938E+02  0.10611138119E+03  0.83296345234E+02 0.  0.
         66    2    3    3    0    0 -0.12243919289E+01  0.41503483619E+02  0.29167440088E+02  0.50781668441E+02  0.20000000567E+01 0.  0.
        -13    1    3    3    0    0  0.12243919289E+01 -0.41503483619E+02  0.36569490849E+02  0.55329712751E+02  0.10566000000E+00 0.  1.
         13    1    4    4    0    0  0.69623300908E-01  0.10140330076E+02  0.73322249787E+01  0.12514145141E+02  0.10566000000E+00 0. -1.
        -13    1    4    4    0    0 -0.25924374090E+00  0.19603691693E+02  0.13036023569E+02  0.23544022805E+02  0.10566000000E+00 0.  1.
         14    1    4    4    0    0 -0.10347714890E+01  0.11759461851E+02  0.87991915406E+01  0.14723500495E+02  0.00000000000E+00 0. -1.
<mgrwt>
<rscale>  0 0.83296345E+02</rscale>
<asrwt>0</asrwt>
<pdfrwt beam="1">  1        2 0.13219101E-01 0.83296345E+02</pdfrwt>
<pdfrwt beam="2">  1       -1 0.31057269E-02 0.83296345E+02</pdfrwt>
<totfact> 0.15254298E+05</totfact>
</mgrwt>
</event>
<event>
 8    1  0.1226832E-020  0.7857891E+02  0.7818608E-02  0.1333133E+00
          2   -1    0    0  501    0  0.00000000000E+00  0.00000000000E+00  0.15181677843E+03  0.15181677845E+03  0.25500000000E-02 0. -1.
         -1   -1    0    0    0  501 -0.00000000000E+00 -0.00000000000E+00 -0.10167922851E+02  0.10167924101E+02  0.50400000000E-02 0.  1.
         24    2    1    2    0    0  0.00000000000E+00  0.00000000000E+00  0.14164885558E+03  0.16198470255E+03  0.78578913037E+02 0.  0.
         66    2    3    3    0    0  0.19888930351E+02  0.32190835521E+02  0.92474587178E+02  0.99936823629E+02  0.20000003081E+01 0.  0.
        -13    1    3    3    0    0 -0.19888930351E+02 -0.32190835521E+02  0.49174268399E+02  0.62047878922E+02  0.10566000000E+00 0.  1.
         13    1    4    4    0    0  0.11619344625E+02  0.18855303054E+02  0.55810063271E+02  0.60044199963E+02  0.10566000000E+00 0. -1.
        -13    1    4    4    0    0  0.36627937503E+00  0.95668184348E+00  0.26332826538E+01  0.28274975333E+01  0.10566000000E+00 0.  1.
        -14    1    4    4    0    0  0.79033063506E+01  0.12378850623E+02  0.34031241253E+02  0.37065126133E+02  0.00000000000E+00 0.  1.
<mgrwt>
<rscale>  0 0.78578913E+02</rscale>
<asrwt>0</asrwt>
<pdfrwt beam="1">  1        2 0.23356428E-01 0.78578913E+02</pdfrwt>
<pdfrwt beam="2">  1       -1 0.15642959E-02 0.78578913E+02</pdfrwt>
<totfact> 0.21086200E+05</totfact>
</mgrwt>
</event>
<event>
 8    1  0.1226832E-020  0.8051619E+02  0.7818608E-02  0.1327593E+00
          2   -1    0    0  501    0  0.00000000000E+00  0.00000000000E+00  0.63179003880E+03  0.63179003881E+03  0.25500000000E-02 0. -1.
         -1   -1    0    0    0  501 -0.00000000000E+00 -0.00000000000E+00 -0.25652709916E+01  0.25652759426E+01  0.50400000000E-02 0.  1.
         24    2    1    2    0    0  0.35527136788E-14  0.35527136788E-14  0.62922476781E+03  0.63435531475E+03  0.80516190454E+02 0.  0.
         66    2    3    3    0    0 -0.27569396646E+02 -0.21925315341E+02  0.46796698383E+03  0.46929509803E+03  0.19999997263E+01 0.  0.
        -13    1    3    3    0    0  0.27569396646E+02  0.21925315341E+02  0.16125778399E+03  0.16506021672E+03  0.10566000000E+00 0.  1.
         13    1    4    4    0    0 -0.18780763138E+02 -0.14181081136E+02  0.31906515770E+03  0.31993187736E+03  0.10566000000E+00 0. -1.
        -13    1    4    4    0    0 -0.76262999238E+01 -0.64701248956E+01  0.12545880672E+03  0.12585684850E+03  0.10566000000E+00 0.  1.
        -14    1    4    4    0    0 -0.11623335841E+01 -0.12741093103E+01  0.23443019402E+02  0.23506372169E+02  0.00000000000E+00 0.  1.
<mgrwt>
<rscale>  0 0.80516190E+02</rscale>
<asrwt>0</asrwt>
<pdfrwt beam="1">  1        2 0.97198440E-01 0.80516190E+02</pdfrwt>
<pdfrwt beam="2">  1       -1 0.39465757E-03 0.80516190E+02</pdfrwt>
<totfact> 0.32075236E+05</totfact>
</mgrwt>
</event>
<event>
 8    1  0.1267059E-020  0.8074202E+02  0.7818608E-02  0.1326959E+00
          2   -1    0    0  501    0  0.00000000000E+00  0.00000000000E+00  0.28120110172E+03  0.28120110173E+03  0.25500000000E-02 0. -1.
         -1   -1    0    0    0  501 -0.00000000000E+00 -0.00000000000E+00 -0.57959160375E+01  0.57959182288E+01  0.50400000000E-02 0.  1.
         24    2    1    2    0    0  0.00000000000E+00  0.00000000000E+00  0.27540518568E+03  0.28699701996E+03  0.80742016108E+02 0.  0.
         66    2    3    3    0    0 -0.27004629590E+02  0.29324324589E+02  0.11568964255E+03  0.12238161389E+03  0.19999985638E+01 0.  0.
        -13    1    3    3    0    0  0.27004629590E+02 -0.29324324589E+02  0.15971554313E+03  0.16461540606E+03  0.10566000000E+00 0.  1.
         13    1    4    4    0    0 -0.11502950503E+02  0.13063085994E+02  0.50394487724E+02  0.53315829197E+02  0.10566000000E+00 0. -1.
        -13    1    4    4    0    0 -0.61661548631E+01  0.74351495227E+01  0.27676493771E+02  0.29313859959E+02  0.10566000000E+00 0.  1.
        -14    1    4    4    0    0 -0.93355242241E+01  0.88260890720E+01  0.37618661051E+02  0.39751924735E+02  0.00000000000E+00 0.  1.
<mgrwt>
<rscale>  0 0.80742016E+02</rscale>
<asrwt>0</asrwt>
<pdfrwt beam="1">  1        2 0.43261702E-01 0.80742016E+02</pdfrwt>
<pdfrwt beam="2">  1       -1 0.89167969E-03 0.80742016E+02</pdfrwt>
<totfact> 0.24307392E+05</totfact>
</mgrwt>
</event>
<event>
 8    1  0.1226832E-020  0.7638302E+02  0.7818608E-02  0.1339641E+00
          2   -1    0    0  501    0  0.00000000000E+00  0.00000000000E+00  0.13639050499E+04  0.13639050499E+04  0.25500000000E-02 0. -1.
         -1   -1    0    0    0  501 -0.00000000000E+00 -0.00000000000E+00 -0.10694171537E+01  0.10694290300E+01  0.50400000000E-02 0.  1.
         24    2    1    2    0    0 -0.17763568394E-14  0.00000000000E+00  0.13628356328E+04  0.13649744790E+04  0.76383023337E+02 0.  0.
         66    2    3    3    0    0 -0.15480774994E+02  0.28777848810E+01  0.13031503897E+04  0.13032470504E+04  0.19999954366E+01 0.  0.
        -13    1    3    3    0    0  0.15480774994E+02 -0.28777848810E+01  0.59685243060E+02  0.61727428615E+02  0.10566000000E+00 0.  1.
         13    1    4    4    0    0 -0.89948763783E+00  0.46667709591E+00  0.11171741528E+03  0.11172206096E+03  0.10566000000E+00 0. -1.
        -13    1    4    4    0    0 -0.12977795944E+02  0.23891071635E+01  0.10738420606E+04  0.10739231412E+04  0.10566000000E+00 0. -1.
         14    1    4    4    0    0 -0.16034914121E+01  0.22000621551E-01  0.11759091388E+03  0.11760184818E+03  0.00000000000E+00 0. -1.
<mgrwt>
<rscale>  0 0.76383023E+02</rscale>
<asrwt>0</asrwt>
<pdfrwt beam="1">  1        2 0.20983317E+00 0.76383023E+02</pdfrwt>
<pdfrwt beam="2">  1       -1 0.16452536E-03 0.76383023E+02</pdfrwt>
<totfact> 0.38613523E+05</totfact>
</mgrwt>
</event>
<event>
 8    1  0.1226832E-020  0.8012623E+02  0.7818608E-02  0.1328694E+00
          2   -1    0    0  501    0  0.00000000000E+00  0.00000000000E+00  0.47399859415E+02  0.47399859483E+02  0.25500000000E-02 0. -1.
         -1   -1    0    0    0  501 -0.00000000000E+00 -0.00000000000E+00 -0.33861984385E+02  0.33861984760E+02  0.50400000000E-02 0.  1.
         24    2    1    2    0    0  0.35527136788E-14  0.00000000000E+00  0.13537875030E+02  0.81261844243E+02  0.80126233342E+02 0.  0.
         66    2    3    3    0    0  0.21770845507E+02  0.29803676592E+02  0.22511441357E+02  0.43278098916E+02  0.20000003300E+01 0.  0.
        -13    1    3    3    0    0 -0.21770845507E+02 -0.29803676592E+02 -0.89735663272E+01  0.37983745328E+02  0.10566000000E+00 0.  1.
         13    1    4    4    0    0  0.51979679889E+01  0.62938013599E+01  0.43627049861E+01  0.92560880292E+01  0.10566000000E+00 0. -1.
        -13    1    4    4    0    0  0.11349048204E+01  0.19703355155E+01  0.14015838183E+01  0.26731689491E+01  0.10566000000E+00 0.  1.
         14    1    4    4    0    0  0.15437972697E+02  0.21539539716E+02  0.16747152553E+02  0.31348841937E+02  0.00000000000E+00 0. -1.
<mgrwt>
<rscale>  0 0.80126233E+02</rscale>
<asrwt>0</asrwt>
<pdfrwt beam="1">  1        2 0.72922861E-02 0.80126233E+02</pdfrwt>
<pdfrwt beam="2">  1       -1 0.52095361E-02 0.80126233E+02</pdfrwt>
<totfact> 0.14707841E+05</totfact>
</mgrwt>
</event>
<event>
 8    1  0.1226832E-020  0.7990001E+02  0.7818608E-02  0.1329335E+00
         -1   -1    0    0    0  501 -0.00000000000E+00  0.00000000000E+00  0.41744039896E+01  0.41744070321E+01  0.50400000000E-02 0.  1.
          2   -1    0    0  501    0  0.00000000000E+00 -0.00000000000E+00 -0.38233055862E+03  0.38233055863E+03  0.25500000000E-02 0. -1.
         24    2    1    2    0    0  0.00000000000E+00 -0.35527136788E-14 -0.37815615463E+03  0.38650496566E+03  0.79900007481E+02 0.  0.
         66    2    3    3    0    0  0.20800876008E+02  0.18396743470E+02 -0.32796022455E+03  0.32913982665E+03  0.19999968927E+01 0.  0.
        -13    1    3    3    0    0 -0.20800876008E+02 -0.18396743470E+02 -0.50195930081E+02  0.57365139010E+02  0.10566000000E+00 0.  1.
         13    1    4    4    0    0  0.15409808964E+02  0.13871881059E+02 -0.25241586213E+03  0.25326600623E+03  0.10566000000E+00 0. -1.
        -13    1    4    4    0    0  0.10039716598E+01  0.98754545965E+00 -0.13238352340E+02  0.13313464683E+02  0.10566000000E+00 0.  1.
         14    1    4    4    0    0  0.43870953835E+01  0.35373169511E+01 -0.62306010082E+02  0.62560355733E+02  0.00000000000E+00 0. -1.
<mgrwt>
<rscale>  0 0.79900007E+02</rscale>
<asrwt>0</asrwt>
<pdfrwt beam="1">  1        2 0.58820058E-01 0.79900007E+02</pdfrwt>
<pdfrwt beam="2">  1       -1 0.64221654E-03 0.79900007E+02</pdfrwt>
<totfact> 0.27899430E+05</totfact>
</mgrwt>
</event>
<event>
 8    1  0.1226832E-020  0.7816060E+02  0.7818608E-02  0.1334354E+00
          2   -1    0    0  501    0  0.00000000000E+00  0.00000000000E+00  0.15120703434E+03  0.15120703436E+03  0.25500000000E-02 0. -1.
         -1   -1    0    0    0  501 -0.00000000000E+00 -0.00000000000E+00 -0.10100520177E+02  0.10100521434E+02  0.50400000000E-02 0.  1.
         24    2    1    2    0    0  0.00000000000E+00 -0.14210854715E-13  0.14110651416E+03  0.16130755579E+03  0.78160598880E+02 0.  0.
         66    2    3    3    0    0  0.11948881769E+02 -0.36452761122E+02  0.85720813124E+02  0.93934218245E+02  0.19999964267E+01 0.  0.
        -13    1    3    3    0    0 -0.11948881769E+02  0.36452761122E+02  0.55385701039E+02  0.67373337550E+02  0.10566000000E+00 0.  1.
         13    1    4    4    0    0  0.12394099049E+01 -0.26302917142E+01  0.61694368073E+01  0.68211205801E+01  0.10566000000E+00 0. -1.
        -13    1    4    4    0    0  0.22323578388E+00 -0.67465103233E+00  0.12852243418E+01  0.14723973224E+01  0.10566000000E+00 0. -1.
         14    1    4    4    0    0  0.10486236080E+02 -0.33147818376E+02  0.78266151974E+02  0.85640700342E+02  0.00000000000E+00 0. -1.
<mgrwt>
<rscale>  0 0.78160599E+02</rscale>
<asrwt>0</asrwt>
<pdfrwt beam="1">  1        2 0.23262623E-01 0.78160599E+02</pdfrwt>
<pdfrwt beam="2">  1       -1 0.15539261E-02 0.78160599E+02</pdfrwt>
<totfact> 0.21358543E+05</totfact>
</mgrwt>
</event>
<event>
 8    1  0.1226832E-020  0.8028379E+02  0.7818608E-02  0.1328248E+00
          2   -1    0    0  501    0  0.00000000000E+00  0.00000000000E+00  0.36167316783E+03  0.36167316784E+03  0.25500000000E-02 0. -1.
         -1   -1    0    0    0  501 -0.00000000000E+00 -0.00000000000E+00 -0.44553245772E+01  0.44553274279E+01  0.50400000000E-02 0.  1.
         24    2    1    2    0    0  0.00000000000E+00 -0.17763568394E-14  0.35721784325E+03  0.36612849527E+03  0.80283793559E+02 0.  0.
         66    2    3    3    0    0 -0.13614221052E+02  0.12685537464E+02  0.34079743054E+03  0.34131094113E+03  0.19999994902E+01 0.  0.
        -13    1    3    3    0    0  0.13614221052E+02 -0.12685537464E+02  0.16420412716E+02  0.24817554138E+02  0.10566000000E+00 0.  1.
         13    1    4    4    0    0 -0.46404526937E+01  0.43420854892E+01  0.10152856135E+03  0.10172731906E+03  0.10566000000E+00 0. -1.
        -13    1    4    4    0    0 -0.27189886203E+01  0.28623454851E+01  0.81845401934E+02  0.81940630353E+02  0.10566000000E+00 0.  1.
         14    1    4    4    0    0 -0.62547797380E+01  0.54811064898E+01  0.15742346725E+03  0.15764299172E+03  0.00000000000E+00 0. -1.
<mgrwt>
<rscale>  0 0.80283794E+02</rscale>
<asrwt>0</asrwt>
<pdfrwt beam="1">  1        2 0.55642031E-01 0.80283794E+02</pdfrwt>
<pdfrwt beam="2">  1       -1 0.68543471E-03 0.80283794E+02</pdfrwt>
<totfact> 0.27014915E+05</totfact>
</mgrwt>
</event>
<event>
 8    1  0.1226832E-020  0.8189235E+02  0.7818608E-02  0.1323765E+00
         -1   -1    0    0    0  501 -0.00000000000E+00  0.00000000000E+00  0.38173083210E+02  0.38173083543E+02  0.50400000000E-02 0.  1.
          2   -1    0    0  501    0  0.00000000000E+00 -0.00000000000E+00 -0.43920717757E+02  0.43920717831E+02  0.25500000000E-02 0. -1.
         24    2    1    2    0    0  0.00000000000E+00  0.00000000000E+00 -0.57476345464E+01  0.82093801374E+02  0.81892349588E+02 0.  0.
         66    2    3    3    0    0  0.27479650347E+00 -0.34718738810E+02 -0.24587936904E+02  0.42591466068E+02  0.20000007446E+01 0.  0.
        -13    1    3    3    0    0 -0.27479650347E+00  0.34718738810E+02  0.18840302357E+02  0.39502335306E+02  0.10566000000E+00 0.  1.
         13    1    4    4    0    0 -0.12811350550E+00 -0.48034604244E+01 -0.41112787329E+01  0.63248258454E+01  0.10566000000E+00 0. -1.
        -13    1    4    4    0    0  0.79753941138E-01 -0.42864793673E+01 -0.33233444611E+01  0.54254998387E+01  0.10566000000E+00 0.  1.
         14    1    4    4    0    0  0.32315606783E+00 -0.25628799018E+02 -0.17153313710E+02  0.30841140384E+02  0.00000000000E+00 0. -1.
<mgrwt>
<rscale>  0 0.81892350E+02</rscale>
<asrwt>0</asrwt>
<pdfrwt beam="1">  1        2 0.67570335E-02 0.81892350E+02</pdfrwt>
<pdfrwt beam="2">  1       -1 0.58727821E-02 0.81892350E+02</pdfrwt>
<totfact> 0.13627052E+05</totfact>
</mgrwt>
</event>
<event>
 8    1  0.1226832E-020  0.8319061E+02  0.7818608E-02  0.1320233E+00
          2   -1    0    0  501    0  0.00000000000E+00  0.00000000000E+00  0.11788033884E+02  0.11788034160E+02  0.25500000000E-02 0. -1.
         -1   -1    0    0    0  501 -0.00000000000E+00 -0.00000000000E+00 -0.14677334899E+03  0.14677334908E+03  0.50400000000E-02 0.  1.
         24    2    1    2    0    0  0.00000000000E+00  0.35527136788E-14 -0.13498531511E+03  0.15856138324E+03  0.83190606197E+02 0.  0.
         66    2    3    3    0    0  0.33589016006E+02 -0.22980320156E+02 -0.51375781560E+02  0.65572769016E+02  0.19999987084E+01 0.  0.
        -13    1    3    3    0    0 -0.33589016006E+02  0.22980320156E+02 -0.83609533547E+02  0.92988614220E+02  0.10566000000E+00 0.  1.
         13    1    4    4    0    0  0.19003459573E+02 -0.13164280269E+02 -0.30041804280E+02  0.37907135465E+02  0.10566000000E+00 0. -1.
        -13    1    4    4    0    0  0.66725542019E+01 -0.51145684962E+01 -0.99955093939E+01  0.13061514558E+02  0.10566000000E+00 0.  1.
        -14    1    4    4    0    0  0.79130022310E+01 -0.47014713907E+01 -0.11338467886E+02  0.14604118992E+02  0.00000000000E+00 0.  1.
<mgrwt>
<rscale>  0 0.83190606E+02</rscale>
<asrwt>0</asrwt>
<pdfrwt beam="1">  1        2 0.18135438E-02 0.83190606E+02</pdfrwt>
<pdfrwt beam="2">  1       -1 0.22580514E-01 0.83190606E+02</pdfrwt>
<totfact> 0.98262890E+04</totfact>
</mgrwt>
</event>
<event>
 8    1  0.1226832E-020  0.8065135E+02  0.7818608E-02  0.1327213E+00
         -1   -1    0    0    0  501 -0.00000000000E+00  0.00000000000E+00  0.50022354543E+02  0.50022354797E+02  0.50400000000E-02 0.  1.
          2   -1    0    0  501    0  0.00000000000E+00 -0.00000000000E+00 -0.32508670139E+02  0.32508670239E+02  0.25500000000E-02 0. -1.
         24    2    1    2    0    0 -0.17763568394E-14  0.71054273576E-14  0.17513684404E+02  0.82531025036E+02  0.80651354310E+02 0.  0.
         66    2    3    3    0    0  0.13272585311E+02 -0.38030244227E+02  0.10094190410E+02  0.41573473205E+02  0.19999993563E+01 0.  0.
        -13    1    3    3    0    0 -0.13272585311E+02  0.38030244227E+02  0.74194939940E+01  0.40957551831E+02  0.10566000000E+00 0.  1.
         13    1    4    4    0    0  0.67951853572E+01 -0.20410611499E+02  0.58813076198E+01  0.22301761122E+02  0.10566000000E+00 0. -1.
        -13    1    4    4    0    0  0.41377916965E+01 -0.11109144954E+02  0.21138086714E+01  0.12042166452E+02  0.10566000000E+00 0.  1.
        -14    1    4    4    0    0  0.23396082576E+01 -0.65104877743E+01  0.20990741187E+01  0.72295456299E+01  0.00000000000E+00 0.  1.
<mgrwt>
<rscale>  0 0.80651354E+02</rscale>
<asrwt>0</asrwt>
<pdfrwt beam="1">  1        2 0.50013339E-02 0.80651354E+02</pdfrwt>
<pdfrwt beam="2">  1       -1 0.76957468E-02 0.80651354E+02</pdfrwt>
<totfact> 0.13364743E+05</totfact>
</mgrwt>
</event>
<event>
 8    1  0.1226832E-020  0.8034377E+02  0.7818608E-02  0.1328079E+00
          2   -1    0    0  501    0  0.00000000000E+00  0.00000000000E+00  0.30354351641E+02  0.30354351748E+02  0.25500000000E-02 0. -1.
         -1   -1    0    0    0  501 -0.00000000000E+00 -0.00000000000E+00 -0.53164709607E+02  0.53164709846E+02  0.50400000000E-02 0.  1.
         24    2    1    2    0    0 -0.88817841970E-15 -0.35527136788E-14 -0.22810357966E+02  0.83519061594E+02  0.80343769012E+02 0.  0.
         66    2    3    3    0    0 -0.74483237422E+01 -0.20121610746E+02  0.23861393820E+02  0.32151558984E+02  0.19999711277E+01 0.  0.
        -13    1    3    3    0    0  0.74483237422E+01  0.20121610746E+02 -0.46671751785E+02  0.51367502610E+02  0.10566000000E+00 0.  1.
         13    1    4    4    0    0 -0.98091495658E+00 -0.29127386923E+01  0.38791207088E+01  0.49502507361E+01  0.10566000000E+00 0. -1.
        -13    1    4    4    0    0 -0.14203729060E+01 -0.24121280167E+01  0.35163033088E+01  0.44957061465E+01  0.10566000000E+00 0.  1.
         14    1    4    4    0    0 -0.50470358796E+01 -0.14796744037E+02  0.16465969802E+02  0.22705602102E+02  0.00000000000E+00 0. -1.
<mgrwt>
<rscale>  0 0.80343769E+02</rscale>
<asrwt>0</asrwt>
<pdfrwt beam="1">  1        2 0.46699003E-02 0.80343769E+02</pdfrwt>
<pdfrwt beam="2">  1       -1 0.81791861E-02 0.80343769E+02</pdfrwt>
<totfact> 0.13325384E+05</totfact>
</mgrwt>
</event>
<event>
 8    1  0.1226832E-020  0.8396431E+02  0.7818608E-02  0.1318163E+00
          2   -1    0    0  501    0  0.00000000000E+00  0.00000000000E+00  0.21084233680E+03  0.21084233681E+03  0.25500000000E-02 0. -1.
         -1   -1    0    0    0  501 -0.00000000000E+00 -0.00000000000E+00 -0.83593315375E+01  0.83593330568E+01  0.50400000000E-02 0.  1.
         24    2    1    2    0    0 -0.35527136788E-14  0.00000000000E+00  0.20248300526E+03  0.21920166987E+03  0.83964305836E+02 0.  0.
         66    2    3    3    0    0 -0.16273397339E+02 -0.32481401625E+02  0.15609957132E+03  0.16028393892E+03  0.19999990292E+01 0.  0.
        -13    1    3    3    0    0  0.16273397339E+02  0.32481401625E+02  0.46383433940E+02  0.58917730952E+02  0.10566000000E+00 0.  1.
         13    1    4    4    0    0 -0.41323339907E+01 -0.91730469346E+01  0.46477008294E+02  0.47553595430E+02  0.10566000000E+00 0. -1.
        -13    1    4    4    0    0 -0.56681169124E+01 -0.10339591846E+02  0.49702316189E+02  0.51081954813E+02  0.10566000000E+00 0.  1.
         14    1    4    4    0    0 -0.64729464355E+01 -0.12968762844E+02  0.59920246838E+02  0.61648388676E+02  0.00000000000E+00 0. -1.
<mgrwt>
<rscale>  0 0.83964306E+02</rscale>
<asrwt>0</asrwt>
<pdfrwt beam="1">  1        2 0.32437283E-01 0.83964306E+02</pdfrwt>
<pdfrwt beam="2">  1       -1 0.12860511E-02 0.83964306E+02</pdfrwt>
<totfact> 0.19772684E+05</totfact>
</mgrwt>
</event>
<event>
 8    1  0.1226832E-020  0.7643105E+02  0.7818608E-02  0.1339496E+00
          2   -1    0    0  501    0  0.00000000000E+00  0.00000000000E+00  0.28594836132E+02  0.28594836246E+02  0.25500000000E-02 0. -1.
         -1   -1    0    0    0  501 -0.00000000000E+00 -0.00000000000E+00 -0.51073081165E+02  0.51073081414E+02  0.50400000000E-02 0.  1.
         24    2    1    2    0    0 -0.35527136788E-14  0.17763568394E-14 -0.22478245033E+02  0.79667917660E+02  0.76431051311E+02 0.  0.
         66    2    3    3    0    0  0.26206156258E+02 -0.11641924439E+02  0.15042845798E+02  0.32443554757E+02  0.20000012809E+01 0.  0.
        -13    1    3    3    0    0 -0.26206156258E+02  0.11641924439E+02 -0.37521090831E+02  0.47224362903E+02  0.10566000000E+00 0.  1.
         13    1    4    4    0    0  0.54144467152E+01 -0.23925353891E+01  0.26068456625E+01  0.64689463720E+01  0.10566000000E+00 0. -1.
        -13    1    4    4    0    0  0.22136141716E+00 -0.86676165975E-01  0.28807095360E+00  0.38815273368E+00  0.10566000000E+00 0. -1.
         14    1    4    4    0    0  0.20570348125E+02 -0.91627128839E+01  0.12147929182E+02  0.25586455651E+02  0.00000000000E+00 0. -1.
<mgrwt>
<rscale>  0 0.76431051E+02</rscale>
<asrwt>0</asrwt>
<pdfrwt beam="1">  1        2 0.43992056E-02 0.76431051E+02</pdfrwt>
<pdfrwt beam="2">  1       -1 0.78573972E-02 0.76431051E+02</pdfrwt>
<totfact> 0.15144659E+05</totfact>
</mgrwt>
</event>
<event>
 8    1  0.1226832E-020  0.7976149E+02  0.7818608E-02  0.1329730E+00
         -1   -1    0    0    0  501 -0.00000000000E+00  0.00000000000E+00  0.12630574500E+02  0.12630575506E+02  0.50400000000E-02 0.  1.
          2   -1    0    0  501    0  0.00000000000E+00 -0.00000000000E+00 -0.12592251815E+03  0.12592251817E+03  0.25500000000E-02 0. -1.
         24    2    1    2    0    0  0.00000000000E+00  0.00000000000E+00 -0.11329194365E+03  0.13855309368E+03  0.79761489910E+02 0.  0.
         66    2    3    3    0    0  0.22244542327E+02  0.60059738051E+01 -0.11317246267E+03  0.11551146126E+03  0.19999978401E+01 0.  0.
        -13    1    3    3    0    0 -0.22244542327E+02 -0.60059738051E+01 -0.11948097659E+00  0.23041632417E+02  0.10566000000E+00 0.  1.
         13    1    4    4    0    0  0.66205202393E+01  0.24700529209E+01 -0.35205789969E+02  0.35908094645E+02  0.10566000000E+00 0. -1.
        -13    1    4    4    0    0  0.14984043573E+02  0.35139287904E+01 -0.75653830131E+02  0.77203513100E+02  0.10566000000E+00 0.  1.
        -14    1    4    4    0    0  0.63997851409E+00  0.21992093869E-01 -0.23128425708E+01  0.23998535181E+01  0.00000000000E+00 0.  1.
<mgrwt>
<rscale>  0 0.79761490E+02</rscale>
<asrwt>0</asrwt>
<pdfrwt beam="1">  1        2 0.19372694E-01 0.79761490E+02</pdfrwt>
<pdfrwt beam="2">  1       -1 0.19431655E-02 0.79761490E+02</pdfrwt>
<totfact> 0.19111845E+05</totfact>
</mgrwt>
</event>
<event>
 8    1  0.1226832E-020  0.8334378E+02  0.7818608E-02  0.1319821E+00
         -1   -1    0    0    0  501 -0.00000000000E+00  0.00000000000E+00  0.53327586470E+01  0.53327610286E+01  0.50400000000E-02 0.  1.
          2   -1    0    0  501    0  0.00000000000E+00 -0.00000000000E+00 -0.32563745888E+03  0.32563745889E+03  0.25500000000E-02 0. -1.
         24    2    1    2    0    0  0.10658141036E-13  0.00000000000E+00 -0.32030470024E+03  0.33097021992E+03  0.83343778902E+02 0.  0.
         66    2    3    3    0    0 -0.28453124209E+02 -0.30404835132E+02 -0.15741647529E+03  0.16284342471E+03  0.20000007891E+01 0.  0.
        -13    1    3    3    0    0  0.28453124209E+02  0.30404835132E+02 -0.16288822495E+03  0.16812679521E+03  0.10566000000E+00 0.  1.
         13    1    4    4    0    0 -0.37826346173E+01 -0.36535506378E+01 -0.20885513363E+02  0.21537701581E+02  0.10566000000E+00 0. -1.
        -13    1    4    4    0    0 -0.49846016138E+01 -0.59640146950E+01 -0.31099948023E+02  0.32056725590E+02  0.10566000000E+00 0.  1.
         14    1    4    4    0    0 -0.19685887978E+02 -0.20787269800E+02 -0.10543101390E+03  0.10924899754E+03  0.00000000000E+00 0. -1.
<mgrwt>
<rscale>  0 0.83343779E+02</rscale>
<asrwt>0</asrwt>
<pdfrwt beam="1">  1        2 0.50098055E-01 0.83343779E+02</pdfrwt>
<pdfrwt beam="2">  1       -1 0.82042485E-03 0.83343779E+02</pdfrwt>
<totfact> 0.23585486E+05</totfact>
</mgrwt>
</event>
<event>
 8    1  0.1226832E-020  0.7967097E+02  0.7818608E-02  0.1329988E+00
         -1   -1    0    0    0  501 -0.00000000000E+00  0.00000000000E+00  0.54658487757E+02  0.54658487989E+02  0.50400000000E-02 0.  1.
          2   -1    0    0  501    0  0.00000000000E+00 -0.00000000000E+00 -0.29032375043E+02  0.29032375155E+02  0.25500000000E-02 0. -1.
         24    2    1    2    0    0  0.00000000000E+00  0.17763568394E-14  0.25626112713E+02  0.83690863144E+02  0.79670966613E+02 0.  0.
         66    2    3    3    0    0  0.32005355674E+01  0.95178362997E+01 -0.27645707118E+02  0.29480803304E+02  0.20000014188E+01 0.  0.
        -13    1    3    3    0    0 -0.32005355674E+01 -0.95178362997E+01  0.53271819831E+02  0.54210059840E+02  0.10566000000E+00 0.  1.
         13    1    4    4    0    0  0.13970236137E+00  0.23285610889E+01 -0.76246674571E+01  0.79742354719E+01  0.10566000000E+00 0. -1.
        -13    1    4    4    0    0  0.11362030911E+01  0.29564815407E+01 -0.91341410885E+01  0.96682696500E+01  0.10566000000E+00 0.  1.
        -14    1    4    4    0    0  0.19246301149E+01  0.42327936701E+01 -0.10886898572E+02  0.11838298182E+02  0.00000000000E+00 0.  1.
<mgrwt>
<rscale>  0 0.79670967E+02</rscale>
<asrwt>0</asrwt>
<pdfrwt beam="1">  1        2 0.44665193E-02 0.79670967E+02</pdfrwt>
<pdfrwt beam="2">  1       -1 0.84089981E-02 0.79670967E+02</pdfrwt>
<totfact> 0.13524045E+05</totfact>
</mgrwt>
</event>
<event>
 8    1  0.1372701E-020  0.8538917E+02  0.7818608E-02  0.1314418E+00
          2   -1    0    0  501    0  0.00000000000E+00  0.00000000000E+00  0.11935713409E+02  0.11935713681E+02  0.25500000000E-02 0. -1.
         -1   -1    0    0    0  501 -0.00000000000E+00 -0.00000000000E+00 -0.15272046471E+03  0.15272046479E+03  0.50400000000E-02 0.  1.
         24    2    1    2    0    0  0.00000000000E+00 -0.17763568394E-14 -0.14078475130E+03  0.16465617848E+03  0.85389173265E+02 0.  0.
         66    2    3    3    0    0  0.20011408757E+02  0.14243734935E+02 -0.31477005785E+01  0.24844485970E+02  0.19999997013E+01 0.  0.
        -13    1    3    3    0    0 -0.20011408757E+02 -0.14243734935E+02 -0.13763705072E+03  0.13981169251E+03  0.10566000000E+00 0.  1.
         13    1    4    4    0    0  0.83526585710E+01  0.59383495446E+01 -0.91773346173E+00  0.10290009682E+02  0.10566000000E+00 0. -1.
        -13    1    4    4    0    0  0.55254321929E+01  0.34648571723E+01 -0.43293003414E+00  0.65371422344E+01  0.10566000000E+00 0.  1.
        -14    1    4    4    0    0  0.61333179931E+01  0.48405282186E+01 -0.17970370827E+01  0.80173340529E+01  0.00000000000E+00 0.  1.
<mgrwt>
<rscale>  0 0.85389173E+02</rscale>
<asrwt>0</asrwt>
<pdfrwt beam="1">  1        2 0.18362637E-02 0.85389173E+02</pdfrwt>
<pdfrwt beam="2">  1       -1 0.23495455E-01 0.85389173E+02</pdfrwt>
<totfact> 0.91048022E+04</totfact>
</mgrwt>
</event>
<event>
 8    1  0.1226832E-020  0.7974627E+02  0.7818608E-02  0.1329773E+00
         -1   -1    0    0    0  501 -0.00000000000E+00  0.00000000000E+00  0.74136073949E+02  0.74136074120E+02  0.50400000000E-02 0.  1.
          2   -1    0    0  501    0  0.00000000000E+00 -0.00000000000E+00 -0.21445252001E+02  0.21445252152E+02  0.25500000000E-02 0. -1.
         24    2    1    2    0    0 -0.17763568394E-14  0.00000000000E+00  0.52690821948E+02  0.95581326272E+02  0.79746267714E+02 0.  0.
         66    2    3    3    0    0  0.72929557501E+01  0.33484839003E+02  0.19911775305E+01  0.34385846417E+02  0.19999997977E+01 0.  0.
        -13    1    3    3    0    0 -0.72929557501E+01 -0.33484839003E+02  0.50699644417E+02  0.61195479855E+02  0.10566000000E+00 0.  1.
         13    1    4    4    0    0  0.44431472843E+01  0.19165772407E+02  0.13561547721E+01  0.19721022020E+02  0.10566000000E+00 0. -1.
        -13    1    4    4    0    0  0.16077866178E+01  0.68573092412E+01 -0.25203621777E+00  0.70485710700E+01  0.10566000000E+00 0.  1.
        -14    1    4    4    0    0  0.12420218480E+01  0.74617573554E+01  0.88705897619E+00  0.76162533262E+01  0.00000000000E+00 0.  1.
<mgrwt>
<rscale>  0 0.79746268E+02</rscale>
<asrwt>0</asrwt>
<pdfrwt beam="1">  1        2 0.32992696E-02 0.79746268E+02</pdfrwt>
<pdfrwt beam="2">  1       -1 0.11405550E-01 0.79746268E+02</pdfrwt>
<totfact> 0.12706035E+05</totfact>
</mgrwt>
</event>
<event>
 8    1  0.1226832E-020  0.7946796E+02  0.7818608E-02  0.1330568E+00
          2   -1    0    0  501    0  0.00000000000E+00  0.00000000000E+00  0.44090158672E+03  0.44090158673E+03  0.25500000000E-02 0. -1.
         -1   -1    0    0    0  501 -0.00000000000E+00 -0.00000000000E+00 -0.35808179683E+01  0.35808215152E+01  0.50400000000E-02 0.  1.
         24    2    1    2    0    0  0.44408920985E-15  0.00000000000E+00  0.43732076875E+03  0.44448240824E+03  0.79467958673E+02 0.  0.
         66    2    3    3    0    0 -0.34524077522E+01 -0.22000972657E+02  0.40268068219E+03  0.40330099644E+03  0.20000005865E+01 0.  0.
        -13    1    3    3    0    0  0.34524077522E+01  0.22000972657E+02  0.34640086562E+02  0.41181411805E+02  0.10566000000E+00 0.  1.
         13    1    4    4    0    0 -0.40924372754E+00 -0.42821226976E+01  0.69101740133E+02  0.69235581233E+02  0.10566000000E+00 0. -1.
        -13    1    4    4    0    0 -0.27250314031E+01 -0.12759851928E+02  0.23810980131E+03  0.23846703811E+03  0.10566000000E+00 0.  1.
         14    1    4    4    0    0 -0.31813262149E+00 -0.49589980311E+01  0.95469140745E+02  0.95598377101E+02  0.00000000000E+00 0. -1.
<mgrwt>
<rscale>  0 0.79467959E+02</rscale>
<asrwt>0</asrwt>
<pdfrwt beam="1">  1        2 0.67830967E-01 0.79467959E+02</pdfrwt>
<pdfrwt beam="2">  1       -1 0.55089573E-03 0.79467959E+02</pdfrwt>
<totfact> 0.29729669E+05</totfact>
</mgrwt>
</event>
<event>
 8    1  0.1226832E-020  0.7982083E+02  0.7818608E-02  0.1329561E+00
         -1   -1    0    0    0  501 -0.00000000000E+00  0.00000000000E+00  0.25988313964E+03  0.25988313969E+03  0.50400000000E-02 0.  1.
          2   -1    0    0  501    0  0.00000000000E+00 -0.00000000000E+00 -0.61290669014E+01  0.61290674319E+01  0.25500000000E-02 0. -1.
         24    2    1    2    0    0 -0.35527136788E-14  0.35527136788E-14  0.25375407273E+03  0.26601220712E+03  0.79820830024E+02 0.  0.
         66    2    3    3    0    0 -0.29800947328E+02  0.26456043570E+02  0.13255047876E+03  0.13842560492E+03  0.19999939407E+01 0.  0.
        -13    1    3    3    0    0  0.29800947328E+02 -0.26456043570E+02  0.12120359398E+03  0.12758660220E+03  0.10566000000E+00 0.  1.
         13    1    4    4    0    0 -0.86720967916E+01  0.81035847691E+01  0.39838996942E+02  0.41569582512E+02  0.10566000000E+00 0. -1.
        -13    1    4    4    0    0 -0.14076332005E+02  0.13052263638E+02  0.62251774849E+02  0.65144449838E+02  0.10566000000E+00 0.  1.
         14    1    4    4    0    0 -0.70525185308E+01  0.53001951630E+01  0.30459706965E+02  0.31711572569E+02  0.00000000000E+00 0. -1.
<mgrwt>
<rscale>  0 0.79820830E+02</rscale>
<asrwt>0</asrwt>
<pdfrwt beam="1">  1        2 0.94293344E-03 0.79820830E+02</pdfrwt>
<pdfrwt beam="2">  1       -1 0.39982020E-01 0.79820830E+02</pdfrwt>
<totfact> 0.91856780E+04</totfact>
</mgrwt>
</event>
<event>
 8    1  0.1226832E-020  0.7904953E+02  0.7818608E-02  0.1331771E+00
         -1   -1    0    0    0  501 -0.00000000000E+00  0.00000000000E+00  0.29300678118E+02  0.29300678552E+02  0.50400000000E-02 0.  1.
          2   -1    0    0  501    0  0.00000000000E+00 -0.00000000000E+00 -0.53316410377E+02  0.53316410438E+02  0.25500000000E-02 0. -1.
         24    2    1    2    0    0  0.00000000000E+00  0.00000000000E+00 -0.24015732259E+02  0.82617088990E+02  0.79049528760E+02 0.  0.
         66    2    3    3    0    0 -0.98240311340E+01  0.11287821812E+02 -0.50220391258E+02  0.52440577821E+02  0.19999987757E+01 0.  0.
        -13    1    3    3    0    0  0.98240311340E+01 -0.11287821812E+02  0.26204659000E+02  0.30176511169E+02  0.10566000000E+00 0.  1.
         13    1    4    4    0    0 -0.54342598864E+01  0.54527641176E+01 -0.23151978176E+02  0.24398546566E+02  0.10566000000E+00 0. -1.
        -13    1    4    4    0    0 -0.24126726901E+01  0.28698374523E+01 -0.13132183248E+02  0.13657318822E+02  0.10566000000E+00 0.  1.
        -14    1    4    4    0    0 -0.19770985575E+01  0.29652202422E+01 -0.13936229835E+02  0.14384712434E+02  0.00000000000E+00 0.  1.
<mgrwt>
<rscale>  0 0.79049529E+02</rscale>
<asrwt>0</asrwt>
<pdfrwt beam="1">  1        2 0.82025247E-02 0.79049529E+02</pdfrwt>
<pdfrwt beam="2">  1       -1 0.45077967E-02 0.79049529E+02</pdfrwt>
<totfact> 0.15658192E+05</totfact>
</mgrwt>
</event>
<event>
 8    1  0.1226832E-020  0.8010415E+02  0.7818608E-02  0.1328756E+00
         -1   -1    0    0    0  501 -0.00000000000E+00  0.00000000000E+00  0.33251354951E+02  0.33251355333E+02  0.50400000000E-02 0.  1.
          2   -1    0    0  501    0  0.00000000000E+00 -0.00000000000E+00 -0.48243705003E+02  0.48243705071E+02  0.25500000000E-02 0. -1.
         24    2    1    2    0    0  0.00000000000E+00 -0.35527136788E-14 -0.14992350052E+02  0.81495060403E+02  0.80104146647E+02 0.  0.
         66    2    3    3    0    0  0.23428461118E+02 -0.30019451215E+02 -0.20048002529E+02  0.43081117263E+02  0.20000043997E+01 0.  0.
        -13    1    3    3    0    0 -0.23428461118E+02  0.30019451215E+02  0.50556524765E+01  0.38413943141E+02  0.10566000000E+00 0.  1.
         13    1    4    4    0    0  0.14301782919E+02 -0.18885630182E+02 -0.11710087174E+02  0.26426224242E+02  0.10566000000E+00 0. -1.
        -13    1    4    4    0    0  0.49914442559E+01 -0.61742570205E+01 -0.50325789076E+01  0.94007435882E+01  0.10566000000E+00 0.  1.
        -14    1    4    4    0    0  0.41352339433E+01 -0.49595640129E+01 -0.33053364472E+01  0.72541494328E+01  0.00000000000E+00 0.  1.
<mgrwt>
<rscale>  0 0.80104147E+02</rscale>
<asrwt>0</asrwt>
<pdfrwt beam="1">  1        2 0.74221085E-02 0.80104147E+02</pdfrwt>
<pdfrwt beam="2">  1       -1 0.51155931E-02 0.80104147E+02</pdfrwt>
<totfact> 0.14774924E+05</totfact>
</mgrwt>
</event>
<event>
 8    1  0.1226832E-020  0.7543969E+02  0.7818608E-02  0.1342515E+00
          2   -1    0    0  501    0  0.00000000000E+00  0.00000000000E+00  0.46524294233E+02  0.46524294302E+02  0.25500000000E-02 0. -1.
         -1   -1    0    0    0  501 -0.00000000000E+00 -0.00000000000E+00 -0.30581586508E+02  0.30581586923E+02  0.50400000000E-02 0.  1.
         24    2    1    2    0    0  0.88817841970E-15  0.00000000000E+00  0.15942707724E+02  0.77105881226E+02  0.75439691079E+02 0.  0.
         66    2    3    3    0    0 -0.46433680020E+01  0.12464224454E+02  0.44024351281E+02  0.46033262628E+02  0.20000012164E+01 0.  0.
        -13    1    3    3    0    0  0.46433680020E+01 -0.12464224454E+02 -0.28081643556E+02  0.31072618598E+02  0.10566000000E+00 0.  1.
         13    1    4    4    0    0 -0.20700990299E+01  0.57523541424E+01  0.20664841121E+02  0.21550445720E+02  0.10566000000E+00 0. -1.
        -13    1    4    4    0    0  0.15986949439E+00  0.28159137847E+00  0.94186135248E+00  0.10015581873E+01  0.10566000000E+00 0.  1.
         14    1    4    4    0    0 -0.27331384665E+01  0.64302789334E+01  0.22417648808E+02  0.23481258721E+02  0.00000000000E+00 0. -1.
<mgrwt>
<rscale>  0 0.75439691E+02</rscale>
<asrwt>0</asrwt>
<pdfrwt beam="1">  1        2 0.71575837E-02 0.75439691E+02</pdfrwt>
<pdfrwt beam="2">  1       -1 0.47048595E-02 0.75439691E+02</pdfrwt>
<totfact> 0.17275142E+05</totfact>
</mgrwt>
</event>
<event>
 8    1  0.1226832E-020  0.7961899E+02  0.7818608E-02  0.1330136E+00
          2   -1    0    0  501    0  0.00000000000E+00  0.00000000000E+00  0.57590286228E+03  0.57590286228E+03  0.25500000000E-02 0. -1.
         -1   -1    0    0    0  501 -0.00000000000E+00 -0.00000000000E+00 -0.27518432542E+01  0.27518478696E+01  0.50400000000E-02 0.  1.
         24    2    1    2    0    0  0.00000000000E+00 -0.71054273576E-14  0.57315101902E+03  0.57865471015E+03  0.79618986269E+02 0.  0.
         66    2    3    3    0    0  0.28319724263E+02 -0.20875347716E+02  0.42174994552E+03  0.42321956886E+03  0.20000002702E+01 0.  0.
        -13    1    3    3    0    0 -0.28319724263E+02  0.20875347716E+02  0.15140107351E+03  0.15543514129E+03  0.10566000000E+00 0.  1.
         13    1    4    4    0    0  0.34452186498E+01 -0.25391055828E+01  0.51874598737E+02  0.52050953371E+02  0.10566000000E+00 0. -1.
        -13    1    4    4    0    0  0.18324926211E+02 -0.12660914764E+02  0.27179255768E+03  0.27270369865E+03  0.10566000000E+00 0.  1.
        -14    1    4    4    0    0  0.65495794028E+01 -0.56753273690E+01  0.98082789097E+02  0.98464916840E+02  0.00000000000E+00 0.  1.
<mgrwt>
<rscale>  0 0.79618986E+02</rscale>
<asrwt>0</asrwt>
<pdfrwt beam="1">  1        2 0.88600574E-01 0.79618986E+02</pdfrwt>
<pdfrwt beam="2">  1       -1 0.42336022E-03 0.79618986E+02</pdfrwt>
<totfact> 0.32188963E+05</totfact>
</mgrwt>
</event>
<event>
 8    1  0.1226832E-020  0.7917509E+02  0.7818608E-02  0.1331409E+00
         -1   -1    0    0    0  501 -0.00000000000E+00  0.00000000000E+00  0.77748039493E+02  0.77748039656E+02  0.50400000000E-02 0.  1.
          2   -1    0    0  501    0  0.00000000000E+00 -0.00000000000E+00 -0.20157085048E+02  0.20157085209E+02  0.25500000000E-02 0. -1.
         24    2    1    2    0    0  0.88817841970E-15  0.71054273576E-14  0.57590954445E+02  0.97905124865E+02  0.79175093565E+02 0.  0.
         66    2    3    3    0    0  0.50532056450E+01  0.39237576041E+02  0.28546721952E+02  0.48826607508E+02  0.20000014178E+01 0.  0.
        -13    1    3    3    0    0 -0.50532056450E+01 -0.39237576041E+02  0.29044232493E+02  0.49078517357E+02  0.10566000000E+00 0.  1.
         13    1    4    4    0    0  0.35680315152E+00  0.17624953354E+01  0.12147089539E+01  0.21726435913E+01  0.10566000000E+00 0. -1.
        -13    1    4    4    0    0  0.43126961816E+00  0.47537209102E+01  0.27894074155E+01  0.55295401021E+01  0.10566000000E+00 0. -1.
        -14    1    4    4    0    0  0.42651328753E+01  0.32721359795E+02  0.24542605582E+02  0.41124423814E+02  0.00000000000E+00 0.  1.
<mgrwt>
<rscale>  0 0.79175094E+02</rscale>
<asrwt>0</asrwt>
<pdfrwt beam="1">  1        2 0.31010900E-02 0.79175094E+02</pdfrwt>
<pdfrwt beam="2">  1       -1 0.11961237E-01 0.79175094E+02</pdfrwt>
<totfact> 0.12810544E+05</totfact>
</mgrwt>
</event>
<event>
 8    1  0.1226832E-020  0.8031617E+02  0.7818608E-02  0.1328157E+00
         -1   -1    0    0    0  501 -0.00000000000E+00  0.00000000000E+00  0.18877335187E+02  0.18877335860E+02  0.50400000000E-02 0.  1.
          2   -1    0    0  501    0  0.00000000000E+00 -0.00000000000E+00 -0.85428987841E+02  0.85428987879E+02  0.25500000000E-02 0. -1.
         24    2    1    2    0    0 -0.35527136788E-14  0.00000000000E+00 -0.66551652654E+02  0.10430632374E+03  0.80316167121E+02 0.  0.
         66    2    3    3    0    0 -0.16353343801E+02 -0.35101236956E+02 -0.46987523276E+02  0.60920899785E+02  0.19999994234E+01 0.  0.
        -13    1    3    3    0    0  0.16353343801E+02  0.35101236956E+02 -0.19564129377E+02  0.43385423954E+02  0.10566000000E+00 0.  1.
         13    1    4    4    0    0 -0.38192042584E+01 -0.98435211759E+01 -0.12261839611E+02  0.16181628626E+02  0.10566000000E+00 0. -1.
        -13    1    4    4    0    0 -0.93211652854E+01 -0.18712010697E+02 -0.26299672580E+02  0.33596240987E+02  0.10566000000E+00 0.  1.
        -14    1    4    4    0    0 -0.32129742569E+01 -0.65457050834E+01 -0.84260110855E+01  0.11143030173E+02  0.00000000000E+00 0.  1.
<mgrwt>
<rscale>  0 0.80316167E+02</rscale>
<asrwt>0</asrwt>
<pdfrwt beam="1">  1        2 0.13142921E-01 0.80316167E+02</pdfrwt>
<pdfrwt beam="2">  1       -1 0.29042055E-02 0.80316167E+02</pdfrwt>
<totfact> 0.16804039E+05</totfact>
</mgrwt>
</event>
<event>
 8    1  0.1226832E-020  0.8171461E+02  0.7818608E-02  0.1324255E+00
         -1   -1    0    0    0  501 -0.00000000000E+00  0.00000000000E+00  0.74942400339E+00  0.74944095062E+00  0.50400000000E-02 0.  1.
          2   -1    0    0  501    0  0.00000000000E+00 -0.00000000000E+00 -0.22274444437E+04  0.22274444437E+04  0.25500000000E-02 0. -1.
         24    2    1    2    0    0  0.00000000000E+00  0.00000000000E+00 -0.22266950197E+04  0.22281938847E+04  0.81714606156E+02 0.  0.
         66    2    3    3    0    0  0.12659007377E+02  0.97376825445E+00 -0.21722483485E+04  0.21722863730E+04  0.20000003348E+01 0.  0.
        -13    1    3    3    0    0 -0.12659007377E+02 -0.97376825445E+00 -0.54446671187E+02  0.55907511658E+02  0.10566000000E+00 0.  1.
         13    1    4    4    0    0  0.34989060242E+00  0.16861016065E+00 -0.78807221938E+02  0.78808249863E+02  0.10566000000E+00 0. -1.
        -13    1    4    4    0    0  0.58222920093E+01  0.96259736822E+00 -0.10957488733E+04  0.10957647695E+04  0.10566000000E+00 0.  1.
         14    1    4    4    0    0  0.64868247655E+01 -0.15743927442E+00 -0.99769225333E+03  0.99771335364E+03  0.00000000000E+00 0. -1.
<mgrwt>
<rscale>  0 0.81714606E+02</rscale>
<asrwt>0</asrwt>
<pdfrwt beam="1">  1        2 0.34267846E+00 0.81714606E+02</pdfrwt>
<pdfrwt beam="2">  1       -1 0.11529909E-03 0.81714606E+02</pdfrwt>
<totfact> 0.23398644E+05</totfact>
</mgrwt>
</event>
<event>
 8    1  0.1226832E-020  0.7739378E+02  0.7818608E-02  0.1336615E+00
         -1   -1    0    0    0  501 -0.00000000000E+00  0.00000000000E+00  0.28435199471E+03  0.28435199475E+03  0.50400000000E-02 0.  1.
          2   -1    0    0  501    0  0.00000000000E+00 -0.00000000000E+00 -0.52661808723E+01  0.52661814897E+01  0.25500000000E-02 0. -1.
         24    2    1    2    0    0  0.00000000000E+00  0.00000000000E+00  0.27908581384E+03  0.28961817624E+03  0.77393775755E+02 0.  0.
         66    2    3    3    0    0  0.29992307307E+02  0.19462224583E+02  0.84494505031E+02  0.91769483273E+02  0.19999991095E+01 0.  0.
        -13    1    3    3    0    0 -0.29992307307E+02 -0.19462224583E+02  0.19459130881E+03  0.19784869297E+03  0.10566000000E+00 0.  1.
         13    1    4    4    0    0  0.51247438838E+01  0.36589325433E+01  0.16097080225E+02  0.17285194331E+02  0.10566000000E+00 0.  1.
        -13    1    4    4    0    0  0.22003823965E+02  0.13620206543E+02  0.60700788550E+02  0.65986931963E+02  0.10566000000E+00 0. -1.
         14    1    4    4    0    0  0.28637394582E+01  0.21830854966E+01  0.76966362555E+01  0.84973569784E+01  0.00000000000E+00 0. -1.
<mgrwt>
<rscale>  0 0.77393776E+02</rscale>
<asrwt>0</asrwt>
<pdfrwt beam="1">  1        2 0.81018171E-03 0.77393776E+02</pdfrwt>
<pdfrwt beam="2">  1       -1 0.43746462E-01 0.77393776E+02</pdfrwt>
<totfact> 0.96102304E+04</totfact>
</mgrwt>
</event>
<event>
 8    1  0.1226832E-020  0.7973006E+02  0.7818608E-02  0.1329819E+00
         -1   -1    0    0    0  501 -0.00000000000E+00  0.00000000000E+00  0.34582709045E+02  0.34582709412E+02  0.50400000000E-02 0.  1.
          2   -1    0    0  501    0  0.00000000000E+00 -0.00000000000E+00 -0.45954201553E+02  0.45954201624E+02  0.25500000000E-02 0. -1.
         24    2    1    2    0    0  0.17763568394E-14  0.00000000000E+00 -0.11371492508E+02  0.80536911036E+02  0.79730064577E+02 0.  0.
         66    2    3    3    0    0 -0.14001344429E+02 -0.78928636564E+01 -0.42512035521E+02  0.45492945427E+02  0.19999942376E+01 0.  0.
        -13    1    3    3    0    0  0.14001344429E+02  0.78928636564E+01  0.31140543012E+02  0.35043965610E+02  0.10566000000E+00 0.  1.
         13    1    4    4    0    0 -0.56369694433E+01 -0.38727854811E+01 -0.19738883849E+02  0.20890394719E+02  0.10566000000E+00 0. -1.
        -13    1    4    4    0    0 -0.12707314188E+01 -0.54383749402E+00 -0.40678594892E+01  0.42975763423E+01  0.10566000000E+00 0.  1.
         14    1    4    4    0    0 -0.70936435667E+01 -0.34762406813E+01 -0.18705292183E+02  0.20304974365E+02  0.00000000000E+00 0. -1.
<mgrwt>
<rscale>  0 0.79730065E+02</rscale>
<asrwt>0</asrwt>
<pdfrwt beam="1">  1        2 0.70698772E-02 0.79730065E+02</pdfrwt>
<pdfrwt beam="2">  1       -1 0.53204168E-02 0.79730065E+02</pdfrwt>
<totfact> 0.14811241E+05</totfact>
</mgrwt>
</event>
<event>
 8    1  0.1226832E-020  0.7517335E+02  0.7818608E-02  0.1343335E+00
          2   -1    0    0  501    0  0.00000000000E+00  0.00000000000E+00  0.45162101280E+03  0.45162101280E+03  0.25500000000E-02 0. -1.
         -1   -1    0    0    0  501 -0.00000000000E+00 -0.00000000000E+00 -0.31281916781E+01  0.31281957382E+01  0.50400000000E-02 0.  1.
         24    2    1    2    0    0  0.00000000000E+00 -0.35527136788E-14  0.44849282112E+03  0.45474920854E+03  0.75173346838E+02 0.  0.
         66    2    3    3    0    0 -0.27230657570E+02 -0.19827717600E+02  0.32492320257E+03  0.32667068228E+03  0.19999991871E+01 0.  0.
        -13    1    3    3    0    0  0.27230657570E+02  0.19827717600E+02  0.12356961855E+03  0.12807852626E+03  0.10566000000E+00 0.  1.
         13    1    4    4    0    0 -0.12610277255E+02 -0.10026879923E+02  0.15350235921E+03  0.15434553074E+03  0.10566000000E+00 0. -1.
        -13    1    4    4    0    0 -0.13381565283E+02 -0.90923496795E+01  0.15984548203E+03  0.16066214988E+03  0.10566000000E+00 0.  1.
        -14    1    4    4    0    0 -0.12388150322E+01 -0.70848799693E+00  0.11575361327E+02  0.11663001663E+02  0.00000000000E+00 0.  1.
<mgrwt>
<rscale>  0 0.75173347E+02</rscale>
<asrwt>0</asrwt>
<pdfrwt beam="1">  1        2 0.69480113E-01 0.75173347E+02</pdfrwt>
<pdfrwt beam="2">  1       -1 0.48126087E-03 0.75173347E+02</pdfrwt>
<totfact> 0.34628191E+05</totfact>
</mgrwt>
</event>
<event>
 8    1  0.1226832E-020  0.7915596E+02  0.7818608E-02  0.1331464E+00
         -1   -1    0    0    0  501 -0.00000000000E+00  0.00000000000E+00  0.53668579046E+02  0.53668579282E+02  0.50400000000E-02 0.  1.
          2   -1    0    0  501    0  0.00000000000E+00 -0.00000000000E+00 -0.29186844970E+02  0.29186845082E+02  0.25500000000E-02 0. -1.
         24    2    1    2    0    0  0.00000000000E+00  0.00000000000E+00  0.24481734075E+02  0.82855424364E+02  0.79155960251E+02 0.  0.
         66    2    3    3    0    0 -0.38679284424E+02  0.45758946659E+01  0.50432118734E+01  0.39325053759E+02  0.20000028959E+01 0.  0.
        -13    1    3    3    0    0  0.38679284424E+02 -0.45758946659E+01  0.19438522202E+02  0.43530370605E+02  0.10566000000E+00 0.  1.
         13    1    4    4    0    0 -0.78065455558E+01  0.28713404839E+00  0.14023104769E+01  0.79373949244E+01  0.10566000000E+00 0. -1.
        -13    1    4    4    0    0 -0.81628662146E+01  0.10896600224E+01  0.12277139300E+01  0.83269555860E+01  0.10566000000E+00 0.  1.
         14    1    4    4    0    0 -0.22709872654E+02  0.31991005952E+01  0.24131874665E+01  0.23060703249E+02  0.00000000000E+00 0. -1.
<mgrwt>
<rscale>  0 0.79155960E+02</rscale>
<asrwt>0</asrwt>
<pdfrwt beam="1">  1        2 0.44902839E-02 0.79155960E+02</pdfrwt>
<pdfrwt beam="2">  1       -1 0.82567045E-02 0.79155960E+02</pdfrwt>
<totfact> 0.13786527E+05</totfact>
</mgrwt>
</event>
<event>
 8    1  0.1226832E-020  0.8096671E+02  0.7818608E-02  0.1326330E+00
          2   -1    0    0  501    0  0.00000000000E+00  0.00000000000E+00  0.21463299951E+03  0.21463299953E+03  0.25500000000E-02 0. -1.
         -1   -1    0    0    0  501 -0.00000000000E+00 -0.00000000000E+00 -0.76358337833E+01  0.76358354466E+01  0.50400000000E-02 0.  1.
         24    2    1    2    0    0  0.00000000000E+00  0.00000000000E+00  0.20699716573E+03  0.22226883498E+03  0.80966711561E+02 0.  0.
         66    2    3    3    0    0 -0.12633273466E+02  0.35454865790E+02  0.62820711372E+02  0.73260418227E+02  0.19999987062E+01 0.  0.
        -13    1    3    3    0    0  0.12633273466E+02 -0.35454865790E+02  0.14417645436E+03  0.14900841675E+03  0.10566000000E+00 0.  1.
         13    1    4    4    0    0 -0.23142173740E+01  0.67597252553E+01  0.11468264650E+02  0.13512281292E+02  0.10566000000E+00 0. -1.
        -13    1    4    4    0    0 -0.89090827008E+01  0.25681851868E+02  0.46551323341E+02  0.53907013818E+02  0.10566000000E+00 0.  1.
        -14    1    4    4    0    0 -0.14099733907E+01  0.30132886666E+01  0.48011233812E+01  0.58411231173E+01  0.00000000000E+00 0.  1.
<mgrwt>
<rscale>  0 0.80966712E+02</rscale>
<asrwt>0</asrwt>
<pdfrwt beam="1">  1        2 0.33020461E-01 0.80966712E+02</pdfrwt>
<pdfrwt beam="2">  1       -1 0.11747438E-02 0.80966712E+02</pdfrwt>
<totfact> 0.21904727E+05</totfact>
</mgrwt>
</event>
<event>
 8    1  0.1226832E-020  0.7908580E+02  0.7818608E-02  0.1331666E+00
         -1   -1    0    0    0  501 -0.00000000000E+00  0.00000000000E+00  0.73455141362E+01  0.73455158653E+01  0.50400000000E-02 0.  1.
          2   -1    0    0  501    0  0.00000000000E+00 -0.00000000000E+00 -0.21287017112E+03  0.21287017113E+03  0.25500000000E-02 0. -1.
         24    2    1    2    0    0  0.00000000000E+00 -0.35527136788E-14 -0.20552465698E+03  0.22021568700E+03  0.79085802599E+02 0.  0.
         66    2    3    3    0    0  0.17288578045E+02 -0.21593977719E+02 -0.18141050416E+03  0.18351829833E+03  0.19999996127E+01 0.  0.
        -13    1    3    3    0    0 -0.17288578045E+02  0.21593977719E+02 -0.24114152820E+02  0.36697388665E+02  0.10566000000E+00 0.  1.
         13    1    4    4    0    0  0.94229951467E+01 -0.12407012147E+02 -0.99489950250E+02  0.10070247342E+03  0.10566000000E+00 0. -1.
        -13    1    4    4    0    0  0.58717902928E+01 -0.69579518873E+01 -0.64698727667E+02  0.65336265132E+02  0.10566000000E+00 0.  1.
        -14    1    4    4    0    0  0.19937926054E+01 -0.22290136853E+01 -0.17221826246E+02  0.17479559783E+02  0.00000000000E+00 0.  1.
<mgrwt>
<rscale>  0 0.79085803E+02</rscale>
<asrwt>0</asrwt>
<pdfrwt beam="1">  1        2 0.32749252E-01 0.79085803E+02</pdfrwt>
<pdfrwt beam="2">  1       -1 0.11300794E-02 0.79085803E+02</pdfrwt>
<totfact> 0.23237259E+05</totfact>
</mgrwt>
</event>
<event>
 8    1  0.1226832E-020  0.8151618E+02  0.7818608E-02  0.1324803E+00
          2   -1    0    0  501    0  0.00000000000E+00  0.00000000000E+00  0.61944940981E+03  0.61944940981E+03  0.25500000000E-02 0. -1.
         -1   -1    0    0    0  501 -0.00000000000E+00 -0.00000000000E+00 -0.26817692260E+01  0.26817739620E+01  0.50400000000E-02 0.  1.
         24    2    1    2    0    0 -0.17763568394E-14  0.35527136788E-14  0.61676764058E+03  0.62213118377E+03  0.81516178496E+02 0.  0.
         66    2    3    3    0    0 -0.91845295664E+01  0.30289325028E+02  0.50425458660E+03  0.50525091480E+03  0.20000027026E+01 0.  0.
        -13    1    3    3    0    0  0.91845295664E+01 -0.30289325028E+02  0.11251305398E+03  0.11688026897E+03  0.10566000000E+00 0.  1.
         13    1    4    4    0    0 -0.34479370844E+00  0.10979653344E+01  0.16666926232E+02  0.16706944802E+02  0.10566000000E+00 0. -1.
        -13    1    4    4    0    0 -0.32340165807E+01  0.12388165897E+02  0.21629779534E+03  0.21667642454E+03  0.10566000000E+00 0.  1.
        -14    1    4    4    0    0 -0.56057192773E+01  0.16803193797E+02  0.27128986502E+03  0.27186754546E+03  0.00000000000E+00 0.  1.
<mgrwt>
<rscale>  0 0.81516178E+02</rscale>
<asrwt>0</asrwt>
<pdfrwt beam="1">  1        2 0.95299945E-01 0.81516178E+02</pdfrwt>
<pdfrwt beam="2">  1       -1 0.41258009E-03 0.81516178E+02</pdfrwt>
<totfact> 0.30897596E+05</totfact>
</mgrwt>
</event>
<event>
 8    1  0.1226832E-020  0.7870740E+02  0.7818608E-02  0.1332760E+00
          2   -1    0    0  501    0  0.00000000000E+00  0.00000000000E+00  0.15352179882E+02  0.15352180094E+02  0.25500000000E-02 0. -1.
         -1   -1    0    0    0  501 -0.00000000000E+00 -0.00000000000E+00 -0.10087907098E+03  0.10087907111E+03  0.50400000000E-02 0.  1.
         24    2    1    2    0    0  0.00000000000E+00  0.00000000000E+00 -0.85526891101E+02  0.11623125120E+03  0.78707398984E+02 0.  0.
         66    2    3    3    0    0  0.22890457756E+02 -0.49716446142E+01  0.38617028247E+01  0.23824421399E+02  0.19999999634E+01 0.  0.
        -13    1    3    3    0    0 -0.22890457756E+02  0.49716446142E+01 -0.89388593926E+02  0.92406829804E+02  0.10566000000E+00 0.  1.
         13    1    4    4    0    0  0.13152967428E+02 -0.21177293667E+01  0.18121007077E+01  0.13445452869E+02  0.10566000000E+00 0. -1.
        -13    1    4    4    0    0  0.43431464954E+01 -0.16520165911E+01  0.92273095786E+00  0.47386365923E+01  0.10566000000E+00 0.  1.
         14    1    4    4    0    0  0.53943438317E+01 -0.12018986564E+01  0.11268711592E+01  0.56403319374E+01  0.00000000000E+00 0. -1.
<mgrwt>
<rscale>  0 0.78707399E+02</rscale>
<asrwt>0</asrwt>
<pdfrwt beam="1">  1        2 0.23618739E-02 0.78707399E+02</pdfrwt>
<pdfrwt beam="2">  1       -1 0.15519857E-01 0.78707399E+02</pdfrwt>
<totfact> 0.12321202E+05</totfact>
</mgrwt>
</event>
<event>
 8    1  0.1226832E-020  0.7956595E+02  0.7818608E-02  0.1330288E+00
          2   -1    0    0  501    0  0.00000000000E+00  0.00000000000E+00  0.59936676789E+03  0.59936676789E+03  0.25500000000E-02 0. -1.
         -1   -1    0    0    0  501 -0.00000000000E+00 -0.00000000000E+00 -0.26405930722E+01  0.26405978820E+01  0.50400000000E-02 0.  1.
         24    2    1    2    0    0  0.00000000000E+00  0.00000000000E+00  0.59672617482E+03  0.60200736578E+03  0.79565952125E+02 0.  0.
         66    2    3    3    0    0  0.25862492092E+02  0.21367966305E+02  0.45998174574E+03  0.46120783265E+03  0.20000004691E+01 0.  0.
        -13    1    3    3    0    0 -0.25862492092E+02 -0.21367966305E+02  0.13674442908E+03  0.14079953313E+03  0.10566000000E+00 0.  1.
         13    1    4    4    0    0  0.69383656023E+01  0.57334060116E+01  0.11896642886E+03  0.11930647603E+03  0.10566000000E+00 0. -1.
        -13    1    4    4    0    0  0.11750445956E+02  0.95197169303E+01  0.22043938278E+03  0.22095753130E+03  0.10566000000E+00 0.  1.
        -14    1    4    4    0    0  0.71736805338E+01  0.61148433632E+01  0.12057593409E+03  0.12094382532E+03  0.00000000000E+00 0.  1.
<mgrwt>
<rscale>  0 0.79565952E+02</rscale>
<asrwt>0</asrwt>
<pdfrwt beam="1">  1        2 0.92210305E-01 0.79565952E+02</pdfrwt>
<pdfrwt beam="2">  1       -1 0.40624531E-03 0.79565952E+02</pdfrwt>
<totfact> 0.32612386E+05</totfact>
</mgrwt>
</event>
<event>
 8    1  0.1226832E-020  0.8352218E+02  0.7818608E-02  0.1319343E+00
          2   -1    0    0  501    0  0.00000000000E+00  0.00000000000E+00  0.42384373339E+03  0.42384373340E+03  0.25500000000E-02 0. -1.
         -1   -1    0    0    0  501 -0.00000000000E+00 -0.00000000000E+00 -0.41146957360E+01  0.41146988227E+01  0.50400000000E-02 0.  1.
         24    2    1    2    0    0 -0.71054273576E-14 -0.17763568394E-14  0.41972903765E+03  0.42795843222E+03  0.83522180638E+02 0.  0.
         66    2    3    3    0    0 -0.36818672558E+02 -0.15778349668E+02  0.27004836998E+03  0.27301042672E+03  0.20000013334E+01 0.  0.
        -13    1    3    3    0    0  0.36818672558E+02  0.15778349668E+02  0.14968066768E+03  0.15494800550E+03  0.10566000000E+00 0.  1.
         13    1    4    4    0    0 -0.28651393706E+02 -0.11625156336E+02  0.21137686327E+03  0.21362639376E+03  0.10566000000E+00 0. -1.
        -13    1    4    4    0    0 -0.53118142948E+01 -0.28767958513E+01  0.38054293103E+02  0.38530918923E+02  0.10566000000E+00 0.  1.
         14    1    4    4    0    0 -0.28554645573E+01 -0.12763974805E+01  0.20617213601E+02  0.20853114037E+02  0.00000000000E+00 0. -1.
<mgrwt>
<rscale>  0 0.83522181E+02</rscale>
<asrwt>0</asrwt>
<pdfrwt beam="1">  1        2 0.65206728E-01 0.83522181E+02</pdfrwt>
<pdfrwt beam="2">  1       -1 0.63303036E-03 0.83522181E+02</pdfrwt>
<totfact> 0.25753553E+05</totfact>
</mgrwt>
</event>
<event>
 8    1  0.1226832E-020  0.7910567E+02  0.7818608E-02  0.1331609E+00
          2   -1    0    0  501    0  0.00000000000E+00  0.00000000000E+00  0.11964594981E+04  0.11964594981E+04  0.25500000000E-02 0. -1.
         -1   -1    0    0    0  501 -0.00000000000E+00 -0.00000000000E+00 -0.13075418618E+01  0.13075515753E+01  0.50400000000E-02 0.  1.
         24    2    1    2    0    0 -0.35527136788E-14  0.00000000000E+00  0.11951519562E+04  0.11977670497E+04  0.79105668535E+02 0.  0.
         66    2    3    3    0    0 -0.19901244125E+02  0.93563373083E+01  0.10952809720E+04  0.10955035409E+04  0.19999974014E+01 0.  0.
        -13    1    3    3    0    0  0.19901244125E+02 -0.93563373083E+01  0.99870984225E+02  0.10226350874E+03  0.10566000000E+00 0.  1.
         13    1    4    4    0    0 -0.76396119076E+01  0.32439134304E+01  0.38870777932E+03  0.38879639339E+03  0.10566000000E+00 0. -1.
        -13    1    4    4    0    0 -0.26905928806E+01  0.98634083292E+00  0.16893540204E+03  0.16895973894E+03  0.10566000000E+00 0.  1.
        -14    1    4    4    0    0 -0.95710393370E+01  0.51260830450E+01  0.53763779066E+03  0.53774740861E+03  0.00000000000E+00 0.  1.
<mgrwt>
<rscale>  0 0.79105669E+02</rscale>
<asrwt>0</asrwt>
<pdfrwt beam="1">  1        2 0.18407086E+00 0.79105669E+02</pdfrwt>
<pdfrwt beam="2">  1       -1 0.20116085E-03 0.79105669E+02</pdfrwt>
<totfact> 0.36086792E+05</totfact>
</mgrwt>
</event>
<event>
 8    1  0.1226832E-020  0.8089097E+02  0.7818608E-02  0.1326542E+00
          2   -1    0    0  501    0  0.00000000000E+00  0.00000000000E+00  0.19399397628E+03  0.19399397630E+03  0.25500000000E-02 0. -1.
         -1   -1    0    0    0  501 -0.00000000000E+00 -0.00000000000E+00 -0.84324110431E+01  0.84324125493E+01  0.50400000000E-02 0.  1.
         24    2    1    2    0    0  0.00000000000E+00 -0.71054273576E-14  0.18556156524E+03  0.20242638884E+03  0.80890966171E+02 0.  0.
         66    2    3    3    0    0  0.23199113087E+02  0.33045745149E+02  0.97593338456E+02  0.10563465259E+03  0.19999990930E+01 0.  0.
        -13    1    3    3    0    0 -0.23199113087E+02 -0.33045745149E+02  0.87968226779E+02  0.96791736255E+02  0.10566000000E+00 0.  1.
         13    1    4    4    0    0  0.93769646863E+01  0.14098095474E+02  0.39818078940E+02  0.43268629944E+02  0.10566000000E+00 0. -1.
        -13    1    4    4    0    0  0.96919938841E+00  0.10090087053E+01  0.39935023065E+01  0.42328088463E+01  0.10566000000E+00 0. -1.
        -14    1    4    4    0    0  0.12852949012E+02  0.17938640969E+02  0.53781757209E+02  0.58133213799E+02  0.00000000000E+00 0.  1.
<mgrwt>
<rscale>  0 0.80890966E+02</rscale>
<asrwt>0</asrwt>
<pdfrwt beam="1">  1        2 0.29845228E-01 0.80890966E+02</pdfrwt>
<pdfrwt beam="2">  1       -1 0.12972941E-02 0.80890966E+02</pdfrwt>
<totfact> 0.21197569E+05</totfact>
</mgrwt>
</event>
<event>
 8    1  0.1226832E-020  0.8411626E+02  0.7818608E-02  0.1317760E+00
         -1   -1    0    0    0  501 -0.00000000000E+00  0.00000000000E+00  0.22944797502E+02  0.22944798056E+02  0.50400000000E-02 0.  1.
          2   -1    0    0  501    0  0.00000000000E+00 -0.00000000000E+00 -0.77093127268E+02  0.77093127311E+02  0.25500000000E-02 0. -1.
         24    2    1    2    0    0  0.71054273576E-14 -0.35527136788E-14 -0.54148329766E+02  0.10003792537E+03  0.84116258210E+02 0.  0.
         66    2    3    3    0    0 -0.37465373558E+02  0.18280453124E+02 -0.33499647677E+02  0.53516871871E+02  0.19999995255E+01 0.  0.
        -13    1    3    3    0    0  0.37465373558E+02 -0.18280453124E+02 -0.20648682089E+02  0.46521053496E+02  0.10566000000E+00 0.  1.
         13    1    4    4    0    0 -0.36232178735E+01  0.17277972773E+01 -0.27553984069E+01  0.48699461605E+01  0.10566000000E+00 0. -1.
        -13    1    4    4    0    0 -0.13706568143E+02  0.71836151717E+01 -0.13334369257E+02  0.20427699448E+02  0.10566000000E+00 0. -1.
        -14    1    4    4    0    0 -0.20135587541E+02  0.93690406751E+01 -0.17409880013E+02  0.28219226263E+02  0.00000000000E+00 0.  1.
<mgrwt>
<rscale>  0 0.84116258E+02</rscale>
<asrwt>0</asrwt>
<pdfrwt beam="1">  1        2 0.11860481E-01 0.84116258E+02</pdfrwt>
<pdfrwt beam="2">  1       -1 0.35299689E-02 0.84116258E+02</pdfrwt>
<totfact> 0.14438019E+05</totfact>
</mgrwt>
</event>
<event>
 8    1  0.1226832E-020  0.7794073E+02  0.7818608E-02  0.1334999E+00
         -1   -1    0    0    0  501 -0.00000000000E+00  0.00000000000E+00  0.54219641289E+01  0.54219664713E+01  0.50400000000E-02 0.  1.
          2   -1    0    0  501    0  0.00000000000E+00 -0.00000000000E+00 -0.28009945011E+03  0.28009945012E+03  0.25500000000E-02 0. -1.
         24    2    1    2    0    0  0.00000000000E+00  0.00000000000E+00 -0.27467748598E+03  0.28552141659E+03  0.77940734075E+02 0.  0.
         66    2    3    3    0    0 -0.28564496520E+02  0.25542762962E+02 -0.11196391297E+03  0.11835658415E+03  0.20000004605E+01 0.  0.
        -13    1    3    3    0    0  0.28564496520E+02 -0.25542762962E+02 -0.16271357300E+03  0.16716483244E+03  0.10566000000E+00 0.  1.
         13    1    4    4    0    0 -0.21766397359E+02  0.19692945948E+02 -0.85893108413E+02  0.90770179084E+02  0.10566000000E+00 0. -1.
        -13    1    4    4    0    0 -0.39314503290E+01  0.37412394423E+01 -0.14607019149E+02  0.15582982600E+02  0.10566000000E+00 0.  1.
         14    1    4    4    0    0 -0.28666488320E+01  0.21085775713E+01 -0.11463785412E+02  0.12003422465E+02  0.00000000000E+00 0. -1.
<mgrwt>
<rscale>  0 0.77940734E+02</rscale>
<asrwt>0</asrwt>
<pdfrwt beam="1">  1        2 0.43092212E-01 0.77940734E+02</pdfrwt>
<pdfrwt beam="2">  1       -1 0.83414873E-03 0.77940734E+02</pdfrwt>
<totfact> 0.26627502E+05</totfact>
</mgrwt>
</event>
<event>
 8    1  0.1226832E-020  0.8454230E+02  0.7818608E-02  0.1316634E+00
         -1   -1    0    0    0  501 -0.00000000000E+00  0.00000000000E+00  0.40335883664E+02  0.40335883979E+02  0.50400000000E-02 0.  1.
          2   -1    0    0  501    0  0.00000000000E+00 -0.00000000000E+00 -0.44299268794E+02  0.44299268867E+02  0.25500000000E-02 0. -1.
         24    2    1    2    0    0 -0.17763568394E-14  0.00000000000E+00 -0.39633851292E+01  0.84635152846E+02  0.84542301102E+02 0.  0.
         66    2    3    3    0    0  0.15146070738E+02 -0.23615405110E+02 -0.33604739874E+02  0.43822019023E+02  0.19999979922E+01 0.  0.
        -13    1    3    3    0    0 -0.15146070738E+02  0.23615405110E+02  0.29641354745E+02  0.40813133823E+02  0.10566000000E+00 0.  1.
         13    1    4    4    0    0  0.68295065843E+01 -0.11794182581E+02 -0.15833635488E+02  0.20891627025E+02  0.10566000000E+00 0. -1.
        -13    1    4    4    0    0  0.48012933316E+01 -0.66372787904E+01 -0.92746931555E+01  0.12374852911E+02  0.10566000000E+00 0.  1.
         14    1    4    4    0    0  0.35152708217E+01 -0.51839437392E+01 -0.84964112302E+01  0.10555539088E+02  0.00000000000E+00 0. -1.
<mgrwt>
<rscale>  0 0.84542301E+02</rscale>
<asrwt>0</asrwt>
<pdfrwt beam="1">  1        2 0.68152721E-02 0.84542301E+02</pdfrwt>
<pdfrwt beam="2">  1       -1 0.62055206E-02 0.84542301E+02</pdfrwt>
<totfact> 0.12499755E+05</totfact>
</mgrwt>
</event>
<event>
 8    1  0.1226832E-020  0.7415313E+02  0.7818608E-02  0.1346514E+00
          2   -1    0    0  501    0  0.00000000000E+00  0.00000000000E+00  0.25976722317E+02  0.25976722442E+02  0.25500000000E-02 0. -1.
         -1   -1    0    0    0  501 -0.00000000000E+00 -0.00000000000E+00 -0.52919367127E+02  0.52919367367E+02  0.50400000000E-02 0.  1.
         24    2    1    2    0    0  0.35527136788E-14 -0.35527136788E-14 -0.26942644810E+02  0.78896089808E+02  0.74153131274E+02 0.  0.
         66    2    3    3    0    0 -0.21528688342E+02  0.21799701338E+02  0.86829264645E+01  0.31907751970E+02  0.20000059116E+01 0.  0.
        -13    1    3    3    0    0  0.21528688342E+02 -0.21799701338E+02 -0.35625571275E+02  0.46988337839E+02  0.10566000000E+00 0.  1.
         13    1    4    4    0    0 -0.74508104101E+00  0.49087767714E+00  0.61183068441E-01  0.90056318771E+00  0.10566000000E+00 0.  1.
        -13    1    4    4    0    0 -0.71329570159E+01  0.77623783475E+01  0.34474582268E+01  0.11091876562E+02  0.10566000000E+00 0. -1.
         14    1    4    4    0    0 -0.13650650285E+02  0.13546445314E+02  0.51742851692E+01  0.19915312221E+02  0.00000000000E+00 0. -1.
<mgrwt>
<rscale>  0 0.74153131E+02</rscale>
<asrwt>0</asrwt>
<pdfrwt beam="1">  1        2 0.39964189E-02 0.74153131E+02</pdfrwt>
<pdfrwt beam="2">  1       -1 0.81414411E-02 0.74153131E+02</pdfrwt>
<totfact> 0.16181391E+05</totfact>
</mgrwt>
</event>
<event>
 8    1  0.1226832E-020  0.8039603E+02  0.7818608E-02  0.1327931E+00
         -1   -1    0    0    0  501 -0.00000000000E+00  0.00000000000E+00  0.58318639525E+01  0.58318661303E+01  0.50400000000E-02 0.  1.
          2   -1    0    0  501    0  0.00000000000E+00 -0.00000000000E+00 -0.27707783214E+03  0.27707783215E+03  0.25500000000E-02 0. -1.
         24    2    1    2    0    0  0.00000000000E+00  0.35527136788E-14 -0.27124596819E+03  0.28290969828E+03  0.80396033012E+02 0.  0.
         66    2    3    3    0    0 -0.28140794365E+02 -0.28602299787E+02 -0.14263794527E+03  0.14818764892E+03  0.20000004945E+01 0.  0.
        -13    1    3    3    0    0  0.28140794365E+02  0.28602299787E+02 -0.12860802292E+03  0.13472204936E+03  0.10566000000E+00 0.  1.
         13    1    4    4    0    0 -0.36645697628E+01 -0.37373412865E+01 -0.18606638480E+02  0.19329121837E+02  0.10566000000E+00 0. -1.
        -13    1    4    4    0    0 -0.12503968005E+02 -0.13975059681E+02 -0.67349331339E+02  0.69911337456E+02  0.10566000000E+00 0.  1.
         14    1    4    4    0    0 -0.11972256597E+02 -0.10889898820E+02 -0.56681975448E+02  0.58947189628E+02  0.00000000000E+00 0. -1.
<mgrwt>
<rscale>  0 0.80396033E+02</rscale>
<asrwt>0</asrwt>
<pdfrwt beam="1">  1        2 0.42627349E-01 0.80396033E+02</pdfrwt>
<pdfrwt beam="2">  1       -1 0.89721023E-03 0.80396033E+02</pdfrwt>
<totfact> 0.24451788E+05</totfact>
</mgrwt>
</event>
<event>
 8    1  0.1226832E-020  0.7735021E+02  0.7818608E-02  0.1336744E+00
         -1   -1    0    0    0  501 -0.00000000000E+00  0.00000000000E+00  0.51019530742E+01  0.51019555636E+01  0.50400000000E-02 0.  1.
          2   -1    0    0  501    0  0.00000000000E+00 -0.00000000000E+00 -0.29317466103E+03  0.29317466104E+03  0.25500000000E-02 0. -1.
         24    2    1    2    0    0 -0.35527136788E-14 -0.88817841970E-15 -0.28807270796E+03  0.29827661661E+03  0.77350209723E+02 0.  0.
         66    2    3    3    0    0  0.31445487385E+02  0.30324508156E+01 -0.22999153793E+03  0.23215969056E+03  0.19999909774E+01 0.  0.
        -13    1    3    3    0    0 -0.31445487385E+02 -0.30324508156E+01 -0.58081170027E+02  0.66116926051E+02  0.10566000000E+00 0.  1.
         13    1    4    4    0    0  0.14381209136E+02  0.17700860713E+01 -0.10230388654E+03  0.10332496671E+03  0.10566000000E+00 0. -1.
        -13    1    4    4    0    0  0.69988754551E+01  0.10333845831E+01 -0.50530115305E+02  0.51023091421E+02  0.10566000000E+00 0.  1.
         14    1    4    4    0    0  0.10065402793E+02  0.22898016119E+00 -0.77157536089E+02  0.77811632425E+02  0.00000000000E+00 0. -1.
<mgrwt>
<rscale>  0 0.77350210E+02</rscale>
<asrwt>0</asrwt>
<pdfrwt beam="1">  1        2 0.45103781E-01 0.77350210E+02</pdfrwt>
<pdfrwt beam="2">  1       -1 0.78491628E-03 0.77350210E+02</pdfrwt>
<totfact> 0.27613862E+05</totfact>
</mgrwt>
</event>
<event>
 8    1  0.1226832E-020  0.8195561E+02  0.7818608E-02  0.1323592E+00
          2   -1    0    0  501    0  0.00000000000E+00  0.00000000000E+00  0.83427630546E+01  0.83427634443E+01  0.25500000000E-02 0. -1.
         -1   -1    0    0    0  501 -0.00000000000E+00 -0.00000000000E+00 -0.20127390874E+03  0.20127390880E+03  0.50400000000E-02 0.  1.
         24    2    1    2    0    0  0.00000000000E+00  0.35527136788E-14 -0.19293114568E+03  0.20961667224E+03  0.81955611818E+02 0.  0.
         66    2    3    3    0    0  0.30735042663E+02 -0.23218143249E+02 -0.60948907243E+02  0.72128318370E+02  0.19999983576E+01 0.  0.
        -13    1    3    3    0    0 -0.30735042663E+02  0.23218143249E+02 -0.13198223844E+03  0.13748835387E+03  0.10566000000E+00 0.  1.
         13    1    4    4    0    0  0.16924962938E+02 -0.12168745553E+02 -0.34015519698E+02  0.39894855347E+02  0.10566000000E+00 0. -1.
        -13    1    4    4    0    0  0.11717566682E+02 -0.90475539813E+01 -0.22156440290E+02  0.26647300283E+02  0.10566000000E+00 0.  1.
         14    1    4    4    0    0  0.20925130427E+01 -0.20018437153E+01 -0.47769472540E+01  0.55861627403E+01  0.00000000000E+00 0. -1.
<mgrwt>
<rscale>  0 0.81955612E+02</rscale>
<asrwt>0</asrwt>
<pdfrwt beam="1">  1        2 0.12835022E-02 0.81955612E+02</pdfrwt>
<pdfrwt beam="2">  1       -1 0.30965213E-01 0.81955612E+02</pdfrwt>
<totfact> 0.93481834E+04</totfact>
</mgrwt>
</event>
<event>
 8    1  0.1226832E-020  0.8222454E+02  0.7818608E-02  0.1322854E+00
         -1   -1    0    0    0  501 -0.00000000000E+00  0.00000000000E+00  0.17266604607E+01  0.17266678164E+01  0.50400000000E-02 0.  1.
          2   -1    0    0  501    0  0.00000000000E+00 -0.00000000000E+00 -0.97889265332E+03  0.97889265332E+03  0.25500000000E-02 0. -1.
         24    2    1    2    0    0 -0.11102230246E-15  0.35527136788E-14 -0.97716599286E+03  0.98061932114E+03  0.82224542514E+02 0.  0.
         66    2    3    3    0    0  0.60169910240E+00 -0.28664657416E+02 -0.83986984258E+03  0.84036145622E+03  0.19999990969E+01 0.  0.
        -13    1    3    3    0    0 -0.60169910240E+00  0.28664657416E+02 -0.13729615028E+03  0.14025786492E+03  0.10566000000E+00 0.  1.
         13    1    4    4    0    0  0.15043496084E+00 -0.21489972760E+02 -0.60666076831E+03  0.60704130051E+03  0.10566000000E+00 0. -1.
        -13    1    4    4    0    0  0.28073943477E+00 -0.50387773280E+01 -0.16875880931E+03  0.16883428258E+03  0.10566000000E+00 0.  1.
        -14    1    4    4    0    0  0.17052470679E+00 -0.21359073278E+01 -0.64450264963E+02  0.64485873124E+02  0.00000000000E+00 0.  1.
<mgrwt>
<rscale>  0 0.82224543E+02</rscale>
<asrwt>0</asrwt>
<pdfrwt beam="1">  1        2 0.15059843E+00 0.82224543E+02</pdfrwt>
<pdfrwt beam="2">  1       -1 0.26564142E-03 0.82224543E+02</pdfrwt>
<totfact> 0.32771923E+05</totfact>
</mgrwt>
</event>
<event>
 8    1  0.1226832E-020  0.7712017E+02  0.7818608E-02  0.1337428E+00
         -1   -1    0    0    0  501 -0.00000000000E+00  0.00000000000E+00  0.41473692730E+01  0.41473723354E+01  0.50400000000E-02 0.  1.
          2   -1    0    0  501    0  0.00000000000E+00 -0.00000000000E+00 -0.35851148741E+03  0.35851148742E+03  0.25500000000E-02 0. -1.
         24    2    1    2    0    0  0.00000000000E+00  0.00000000000E+00 -0.35436411814E+03  0.36265885976E+03  0.77120168150E+02 0.  0.
         66    2    3    3    0    0  0.35497140957E+02  0.13994158077E+02 -0.15198069014E+03  0.15670996666E+03  0.19999994180E+01 0.  0.
        -13    1    3    3    0    0 -0.35497140957E+02 -0.13994158077E+02 -0.20238342800E+03  0.20594889310E+03  0.10566000000E+00 0.  1.
         13    1    4    4    0    0  0.74186014252E+01  0.29127987153E+01 -0.34634181713E+02  0.35539523779E+02  0.10566000000E+00 0. -1.
        -13    1    4    4    0    0  0.12182857199E+02  0.47555116740E+01 -0.49029450646E+02  0.50743818298E+02  0.10566000000E+00 0.  1.
         14    1    4    4    0    0  0.15895682332E+02  0.63258476880E+01 -0.68317057780E+02  0.70426624579E+02  0.00000000000E+00 0. -1.
<mgrwt>
<rscale>  0 0.77120168E+02</rscale>
<asrwt>0</asrwt>
<pdfrwt beam="1">  1        2 0.55155589E-01 0.77120168E+02</pdfrwt>
<pdfrwt beam="2">  1       -1 0.63805733E-03 0.77120168E+02</pdfrwt>
<totfact> 0.29911770E+05</totfact>
</mgrwt>
</event>
<event>
 8    1  0.1226832E-020  0.8013335E+02  0.7818608E-02  0.1328673E+00
          2   -1    0    0  501    0  0.00000000000E+00  0.00000000000E+00  0.93596487077E+02  0.93596487112E+02  0.25500000000E-02 0. -1.
         -1   -1    0    0    0  501 -0.00000000000E+00 -0.00000000000E+00 -0.17151696415E+02  0.17151697156E+02  0.50400000000E-02 0.  1.
         24    2    1    2    0    0 -0.35527136788E-14  0.35527136788E-14  0.76444790662E+02  0.11074818427E+03  0.80133353225E+02 0.  0.
         66    2    3    3    0    0 -0.27954189774E+02  0.17199010399E+02  0.69945732702E+02  0.77289379700E+02  0.20000016465E+01 0.  0.
        -13    1    3    3    0    0  0.27954189774E+02 -0.17199010399E+02  0.64990579597E+01  0.33458804567E+02  0.10566000000E+00 0.  1.
         13    1    4    4    0    0 -0.14570583016E+02  0.90071870426E+01  0.36028381099E+02  0.39893442023E+02  0.10566000000E+00 0. -1.
        -13    1    4    4    0    0 -0.65642110388E+01  0.43838197323E+01  0.15628569713E+02  0.17509143249E+02  0.10566000000E+00 0.  1.
        -14    1    4    4    0    0 -0.68193957197E+01  0.38080036241E+01  0.18288781891E+02  0.19886794428E+02  0.00000000000E+00 0.  1.
<mgrwt>
<rscale>  0 0.80133353E+02</rscale>
<asrwt>0</asrwt>
<pdfrwt beam="1">  1        2 0.14399460E-01 0.80133353E+02</pdfrwt>
<pdfrwt beam="2">  1       -1 0.26387226E-02 0.80133353E+02</pdfrwt>
<totfact> 0.17326900E+05</totfact>
</mgrwt>
</event>
<event>
 8    1  0.1226832E-020  0.7937024E+02  0.7818608E-02  0.1330848E+00
          2   -1    0    0  501    0  0.00000000000E+00  0.00000000000E+00  0.19832918260E+03  0.19832918262E+03  0.25500000000E-02 0. -1.
         -1   -1    0    0    0  501 -0.00000000000E+00 -0.00000000000E+00 -0.79408807697E+01  0.79408823691E+01  0.50400000000E-02 0.  1.
         24    2    1    2    0    0  0.35527136788E-14 -0.35527136788E-14  0.19038830183E+03  0.20627006499E+03  0.79370235198E+02 0.  0.
         66    2    3    3    0    0 -0.18593966306E+02 -0.28123747505E+02  0.14953353968E+03  0.15330022913E+03  0.20000009383E+01 0.  0.
        -13    1    3    3    0    0  0.18593966306E+02  0.28123747505E+02  0.40854762152E+02  0.52969835862E+02  0.10566000000E+00 0.  1.
         13    1    4    4    0    0 -0.11360630356E+02 -0.17322737044E+02  0.90154059879E+02  0.92503550296E+02  0.10566000000E+00 0. -1.
        -13    1    4    4    0    0 -0.30300392210E+00 -0.63036052765E+00  0.44013286186E+01  0.44578047755E+01  0.10566000000E+00 0.  1.
        -14    1    4    4    0    0 -0.69303320280E+01 -0.10170649934E+02  0.54978151185E+02  0.56338874055E+02  0.00000000000E+00 0.  1.
<mgrwt>
<rscale>  0 0.79370235E+02</rscale>
<asrwt>0</asrwt>
<pdfrwt beam="1">  1        2 0.30512181E-01 0.79370235E+02</pdfrwt>
<pdfrwt beam="2">  1       -1 0.12216741E-02 0.79370235E+02</pdfrwt>
<totfact> 0.22457805E+05</totfact>
</mgrwt>
</event>
<event>
 8    1  0.1226832E-020  0.8052726E+02  0.7818608E-02  0.1327562E+00
          2   -1    0    0  501    0  0.00000000000E+00  0.00000000000E+00  0.57197268227E+03  0.57197268228E+03  0.25500000000E-02 0. -1.
         -1   -1    0    0    0  501 -0.00000000000E+00 -0.00000000000E+00 -0.28343284074E+01  0.28343328885E+01  0.50400000000E-02 0.  1.
         24    2    1    2    0    0 -0.71054273576E-14  0.00000000000E+00  0.56913835386E+03  0.57480701516E+03  0.80527255290E+02 0.  0.
         66    2    3    3    0    0  0.38785875505E+02  0.73694957611E+01  0.34026568850E+03  0.34255421815E+03  0.19999989522E+01 0.  0.
        -13    1    3    3    0    0 -0.38785875505E+02 -0.73694957611E+01  0.22887266536E+03  0.23225279701E+03  0.10566000000E+00 0.  1.
         13    1    4    4    0    0  0.33507662623E+02  0.60989151296E+01  0.29344802880E+03  0.29541786843E+03  0.10566000000E+00 0. -1.
        -13    1    4    4    0    0  0.20083072130E+01  0.31162627561E+00  0.15213080748E+02  0.15348595984E+02  0.10566000000E+00 0.  1.
         14    1    4    4    0    0  0.32699056686E+01  0.95895435593E+00  0.31604578956E+02  0.31787753735E+02  0.00000000000E+00 0. -1.
<mgrwt>
<rscale>  0 0.80527255E+02</rscale>
<asrwt>0</asrwt>
<pdfrwt beam="1">  1        2 0.87995799E-01 0.80527255E+02</pdfrwt>
<pdfrwt beam="2">  1       -1 0.43605086E-03 0.80527255E+02</pdfrwt>
<totfact> 0.31190319E+05</totfact>
</mgrwt>
</event>
<event>
 8    1  0.1226832E-020  0.8053337E+02  0.7818608E-02  0.1327545E+00
          2   -1    0    0  501    0  0.00000000000E+00  0.00000000000E+00  0.12262111550E+04  0.12262111550E+04  0.25500000000E-02 0. -1.
         -1   -1    0    0    0  501 -0.00000000000E+00 -0.00000000000E+00 -0.13222845856E+01  0.13222941907E+01  0.50400000000E-02 0.  1.
         24    2    1    2    0    0  0.00000000000E+00 -0.35527136788E-14  0.12248888704E+04  0.12275334492E+04  0.80533372110E+02 0.  0.
         66    2    3    3    0    0 -0.11578883473E+01 -0.17527233300E+02  0.11646888535E+04  0.11648230209E+04  0.20000018578E+01 0.  0.
        -13    1    3    3    0    0  0.11578883473E+01  0.17527233300E+02  0.60200016930E+02  0.62710428280E+02  0.10566000000E+00 0.  1.
         13    1    4    4    0    0 -0.14109679934E+00 -0.20034010934E+01  0.16748489079E+03  0.16749696514E+03  0.10566000000E+00 0.  1.
        -13    1    4    4    0    0  0.21791151353E+00 -0.10386851446E+01  0.65571257964E+02  0.65579931285E+02  0.10566000000E+00 0. -1.
         14    1    4    4    0    0 -0.12347030615E+01 -0.14485147062E+02  0.93163270474E+03  0.93174612450E+03  0.00000000000E+00 0. -1.
<mgrwt>
<rscale>  0 0.80533372E+02</rscale>
<asrwt>0</asrwt>
<pdfrwt beam="1">  1        2 0.18864747E+00 0.80533372E+02</pdfrwt>
<pdfrwt beam="2">  1       -1 0.20342957E-03 0.80533372E+02</pdfrwt>
<totfact> 0.34348666E+05</totfact>
</mgrwt>
</event>
<event>
 8    1  0.1226832E-020  0.8131038E+02  0.7818608E-02  0.1325373E+00
         -1   -1    0    0    0  501 -0.00000000000E+00  0.00000000000E+00  0.22797381900E+03  0.22797381906E+03  0.50400000000E-02 0.  1.
          2   -1    0    0  501    0  0.00000000000E+00 -0.00000000000E+00 -0.72501500568E+01  0.72501505052E+01  0.25500000000E-02 0. -1.
         24    2    1    2    0    0  0.44408920985E-15  0.00000000000E+00  0.22072366894E+03  0.23522396956E+03  0.81310379560E+02 0.  0.
         66    2    3    3    0    0 -0.37713736954E+01 -0.40099959861E+02  0.94954859953E+02  0.10316324671E+03  0.20000008068E+01 0.  0.
        -13    1    3    3    0    0  0.37713736954E+01  0.40099959861E+02  0.12576880899E+03  0.13206072285E+03  0.10566000000E+00 0.  1.
         13    1    4    4    0    0 -0.91875374502E+00 -0.62858550455E+01  0.13814387967E+02  0.15205412228E+02  0.10566000000E+00 0. -1.
        -13    1    4    4    0    0  0.36204862275E-01 -0.47435021520E+00  0.12462518645E+01  0.13381429909E+01  0.10566000000E+00 0.  1.
        -14    1    4    4    0    0 -0.28888248127E+01 -0.33339754600E+02  0.79894220122E+02  0.86619691494E+02  0.00000000000E+00 0.  1.
<mgrwt>
<rscale>  0 0.81310380E+02</rscale>
<asrwt>0</asrwt>
<pdfrwt beam="1">  1        2 0.11154078E-02 0.81310380E+02</pdfrwt>
<pdfrwt beam="2">  1       -1 0.35072895E-01 0.81310380E+02</pdfrwt>
<totfact> 0.91684132E+04</totfact>
</mgrwt>
</event>
<event>
 8    1  0.1226832E-020  0.7490266E+02  0.7818608E-02  0.1344173E+00
          2   -1    0    0  501    0  0.00000000000E+00  0.00000000000E+00  0.24143393080E+03  0.24143393081E+03  0.25500000000E-02 0. -1.
         -1   -1    0    0    0  501 -0.00000000000E+00 -0.00000000000E+00 -0.58094648249E+01  0.58094670111E+01  0.50400000000E-02 0.  1.
         24    2    1    2    0    0 -0.35527136788E-14  0.00000000000E+00  0.23562446597E+03  0.24724339782E+03  0.74902662181E+02 0.  0.
         66    2    3    3    0    0 -0.18321508462E+02  0.12270935499E+01  0.22553721506E+03  0.22629233040E+03  0.19999983300E+01 0.  0.
        -13    1    3    3    0    0  0.18321508462E+02 -0.12270935499E+01  0.10087250918E+02  0.20951067420E+02  0.10566000000E+00 0.  1.
         13    1    4    4    0    0 -0.25403799708E+01 -0.13742432235E+00  0.25652679503E+02  0.25778742125E+02  0.10566000000E+00 0. -1.
        -13    1    4    4    0    0 -0.11180767742E+02  0.13854536175E+01  0.14006515124E+03  0.14051756761E+03  0.10566000000E+00 0.  1.
        -14    1    4    4    0    0 -0.46003607495E+01 -0.20935745212E-01  0.59819384310E+02  0.59996020672E+02  0.00000000000E+00 0.  1.
<mgrwt>
<rscale>  0 0.74902662E+02</rscale>
<asrwt>0</asrwt>
<pdfrwt beam="1">  1        2 0.37143680E-01 0.74902662E+02</pdfrwt>
<pdfrwt beam="2">  1       -1 0.89376402E-03 0.74902662E+02</pdfrwt>
<totfact> 0.28012543E+05</totfact>
</mgrwt>
</event>
<event>
 8    1  0.1226832E-020  0.7989693E+02  0.7818608E-02  0.1329344E+00
         -1   -1    0    0    0  501 -0.00000000000E+00  0.00000000000E+00  0.63099974370E+01  0.63099994498E+01  0.50400000000E-02 0.  1.
          2   -1    0    0  501    0  0.00000000000E+00 -0.00000000000E+00 -0.25291285762E+03  0.25291285764E+03  0.25500000000E-02 0. -1.
         24    2    1    2    0    0 -0.71054273576E-14  0.00000000000E+00 -0.24660286019E+03  0.25922285709E+03  0.79896927249E+02 0.  0.
         66    2    3    3    0    0  0.39063038831E+02  0.82433857793E+01 -0.12331546870E+03  0.12963247752E+03  0.19999990372E+01 0.  0.
        -13    1    3    3    0    0 -0.39063038831E+02 -0.82433857793E+01 -0.12328739149E+03  0.12959037957E+03  0.10566000000E+00 0.  1.
         13    1    4    4    0    0  0.19920579952E+02  0.47028543978E+01 -0.62253424933E+02  0.65532025949E+02  0.10566000000E+00 0. -1.
        -13    1    4    4    0    0  0.44269417093E+01  0.12932560604E+01 -0.14822998965E+02  0.15524264443E+02  0.10566000000E+00 0.  1.
        -14    1    4    4    0    0  0.14715517170E+02  0.22472753211E+01 -0.46239044801E+02  0.48576187130E+02  0.00000000000E+00 0.  1.
<mgrwt>
<rscale>  0 0.79896927E+02</rscale>
<asrwt>0</asrwt>
<pdfrwt beam="1">  1        2 0.38909663E-01 0.79896927E+02</pdfrwt>
<pdfrwt beam="2">  1       -1 0.97076919E-03 0.79896927E+02</pdfrwt>
<totfact> 0.24049013E+05</totfact>
</mgrwt>
</event>
<event>
 8    1  0.1226832E-020  0.7871370E+02  0.7818608E-02  0.1332742E+00
          2   -1    0    0  501    0  0.00000000000E+00  0.00000000000E+00  0.36155507642E+02  0.36155507732E+02  0.25500000000E-02 0. -1.
         -1   -1    0    0    0  501 -0.00000000000E+00 -0.00000000000E+00 -0.42841655741E+02  0.42841656038E+02  0.50400000000E-02 0.  1.
         24    2    1    2    0    0  0.00000000000E+00  0.00000000000E+00 -0.66861480992E+01  0.78997163770E+02  0.78713704698E+02 0.  0.
         66    2    3    3    0    0 -0.20085003234E+02 -0.26348756795E+01  0.30489783189E+02  0.36660289110E+02  0.19999985007E+01 0.  0.
        -13    1    3    3    0    0  0.20085003234E+02  0.26348756795E+01 -0.37175931288E+02  0.42336874659E+02  0.10566000000E+00 0.  1.
         13    1    4    4    0    0 -0.10209304241E+02 -0.15234948185E+01  0.16322157200E+02  0.19312558329E+02  0.10566000000E+00 0. -1.
        -13    1    4    4    0    0 -0.79781327521E+00  0.78893505648E-01  0.74230442164E+00  0.10976839697E+01  0.10566000000E+00 0.  1.
         14    1    4    4    0    0 -0.90778857183E+01 -0.11902743667E+01  0.13425321568E+02  0.16250046811E+02  0.00000000000E+00 0. -1.
<mgrwt>
<rscale>  0 0.78713705E+02</rscale>
<asrwt>0</asrwt>
<pdfrwt beam="1">  1        2 0.55623858E-02 0.78713705E+02</pdfrwt>
<pdfrwt beam="2">  1       -1 0.65910240E-02 0.78713705E+02</pdfrwt>
<totfact> 0.14607172E+05</totfact>
</mgrwt>
</event>
<event>
 8    1  0.1226832E-020  0.7512691E+02  0.7818608E-02  0.1343478E+00
         -1   -1    0    0    0  501 -0.00000000000E+00  0.00000000000E+00  0.20379551610E+01  0.20379613931E+01  0.50400000000E-02 0.  1.
          2   -1    0    0  501    0  0.00000000000E+00 -0.00000000000E+00 -0.69236603449E+03  0.69236603449E+03  0.25500000000E-02 0. -1.
         24    2    1    2    0    0  0.00000000000E+00 -0.53290705182E-14 -0.69032807933E+03  0.69440399589E+03  0.75126908594E+02 0.  0.
         66    2    3    3    0    0  0.19686478322E+02  0.14604640587E+02 -0.60817090871E+03  0.60866797776E+03  0.19999999755E+01 0.  0.
        -13    1    3    3    0    0 -0.19686478322E+02 -0.14604640587E+02 -0.82157170618E+02  0.85736018122E+02  0.10566000000E+00 0.  1.
         13    1    4    4    0    0  0.79505851141E+01  0.58280531710E+01 -0.26273984924E+03  0.26292473743E+03  0.10566000000E+00 0. -1.
        -13    1    4    4    0    0  0.47573640750E+00  0.17846367599E+00 -0.13478886595E+02  0.13488874019E+02  0.10566000000E+00 0. -1.
        -14    1    4    4    0    0  0.11260156801E+02  0.85981237400E+01 -0.33195217287E+03  0.33225436632E+03  0.00000000000E+00 0.  1.
<mgrwt>
<rscale>  0 0.75126909E+02</rscale>
<asrwt>0</asrwt>
<pdfrwt beam="1">  1        2 0.10651766E+00 0.75126909E+02</pdfrwt>
<pdfrwt beam="2">  1       -1 0.31353260E-03 0.75126909E+02</pdfrwt>
<totfact> 0.39268958E+05</totfact>
</mgrwt>
</event>
<event>
 8    1  0.1226832E-020  0.7960923E+02  0.7818608E-02  0.1330164E+00
          2   -1    0    0  501    0  0.00000000000E+00  0.00000000000E+00  0.11006592269E+03  0.11006592272E+03  0.25500000000E-02 0. -1.
         -1   -1    0    0    0  501 -0.00000000000E+00 -0.00000000000E+00 -0.14395077591E+02  0.14395078473E+02  0.50400000000E-02 0.  1.
         24    2    1    2    0    0  0.00000000000E+00 -0.35527136788E-14  0.95670845099E+02  0.12446100119E+03  0.79609234489E+02 0.  0.
         66    2    3    3    0    0 -0.17130231761E+02 -0.21270603468E+02  0.93083159679E+02  0.97027614746E+02  0.19999988656E+01 0.  0.
        -13    1    3    3    0    0  0.17130231761E+02  0.21270603468E+02  0.25876854204E+01  0.27433386447E+02  0.10566000000E+00 0.  1.
         13    1    4    4    0    0 -0.59966288971E+01 -0.63651558493E+01  0.30835846768E+02  0.32052072898E+02  0.10566000000E+00 0. -1.
        -13    1    4    4    0    0 -0.31559226637E+01 -0.45856482930E+01  0.19987140438E+02  0.20748131604E+02  0.10566000000E+00 0.  1.
        -14    1    4    4    0    0 -0.79776801998E+01 -0.10319799326E+02  0.42260172472E+02  0.44227410244E+02  0.00000000000E+00 0.  1.
<mgrwt>
<rscale>  0 0.79609234E+02</rscale>
<asrwt>0</asrwt>
<pdfrwt beam="1">  1        2 0.16933220E-01 0.79609234E+02</pdfrwt>
<pdfrwt beam="2">  1       -1 0.22146273E-02 0.79609234E+02</pdfrwt>
<totfact> 0.18456820E+05</totfact>
</mgrwt>
</event>
<event>
 8    1  0.1226832E-020  0.7946425E+02  0.7818608E-02  0.1330579E+00
         -1   -1    0    0    0  501 -0.00000000000E+00  0.00000000000E+00  0.78124442554E+01  0.78124458811E+01  0.50400000000E-02 0.  1.
          2   -1    0    0  501    0  0.00000000000E+00 -0.00000000000E+00 -0.20206754381E+03  0.20206754382E+03  0.25500000000E-02 0. -1.
         24    2    1    2    0    0  0.17763568394E-14  0.71054273576E-14 -0.19425509955E+03  0.20987998970E+03  0.79464245900E+02 0.  0.
         66    2    3    3    0    0  0.48124081854E+01  0.34560716868E+02 -0.14723465291E+03  0.15132628795E+03  0.19999959108E+01 0.  0.
        -13    1    3    3    0    0 -0.48124081854E+01 -0.34560716868E+02 -0.47020446641E+02  0.58553701756E+02  0.10566000000E+00 0.  1.
         13    1    4    4    0    0  0.26103215822E+01  0.23913198291E+02 -0.99848278502E+02  0.10270513480E+03  0.10566000000E+00 0. -1.
        -13    1    4    4    0    0  0.59240275973E+00  0.40878957483E+01 -0.18415739578E+02  0.18873591627E+02  0.10566000000E+00 0.  1.
        -14    1    4    4    0    0  0.16096838434E+01  0.65596228279E+01 -0.28970634830E+02  0.29747561517E+02  0.00000000000E+00 0.  1.
<mgrwt>
<rscale>  0 0.79464246E+02</rscale>
<asrwt>0</asrwt>
<pdfrwt beam="1">  1        2 0.31087311E-01 0.79464246E+02</pdfrwt>
<pdfrwt beam="2">  1       -1 0.12019148E-02 0.79464246E+02</pdfrwt>
<totfact> 0.22533357E+05</totfact>
</mgrwt>
</event>
<event>
 8    1  0.1226832E-020  0.7558286E+02  0.7818608E-02  0.1342076E+00
          2   -1    0    0  501    0  0.00000000000E+00  0.00000000000E+00  0.59966784200E+02  0.59966784254E+02  0.25500000000E-02 0. -1.
         -1   -1    0    0    0  501 -0.00000000000E+00 -0.00000000000E+00 -0.23816384472E+02  0.23816385005E+02  0.50400000000E-02 0.  1.
         24    2    1    2    0    0 -0.35527136788E-14  0.17763568394E-14  0.36150399728E+02  0.83783169259E+02  0.75582855534E+02 0.  0.
         66    2    3    3    0    0  0.20775708016E+02 -0.13981642042E+02  0.49422561631E+02  0.55441013318E+02  0.20000004480E+01 0.  0.
        -13    1    3    3    0    0 -0.20775708016E+02  0.13981642042E+02 -0.13272161903E+02  0.28342155941E+02  0.10566000000E+00 0.  1.
         13    1    4    4    0    0  0.77462365373E+01 -0.56572524987E+01  0.17645823127E+02  0.20084693779E+02  0.10566000000E+00 0. -1.
        -13    1    4    4    0    0  0.58695360978E+01 -0.33974678448E+01  0.14986240699E+02  0.16449705653E+02  0.10566000000E+00 0.  1.
         14    1    4    4    0    0  0.71599353810E+01 -0.49269216988E+01  0.16790497805E+02  0.18906613886E+02  0.00000000000E+00 0. -1.
<mgrwt>
<rscale>  0 0.75582856E+02</rscale>
<asrwt>0</asrwt>
<pdfrwt beam="1">  1        2 0.92256590E-02 0.75582856E+02</pdfrwt>
<pdfrwt beam="2">  1       -1 0.36640592E-02 0.75582856E+02</pdfrwt>
<totfact> 0.18154427E+05</totfact>
</mgrwt>
</event>
<event>
 8    1  0.1226832E-020  0.7957346E+02  0.7818608E-02  0.1330266E+00
          2   -1    0    0  501    0  0.00000000000E+00  0.00000000000E+00  0.30143510824E+03  0.30143510826E+03  0.25500000000E-02 0. -1.
         -1   -1    0    0    0  501 -0.00000000000E+00 -0.00000000000E+00 -0.52514897742E+01  0.52514921927E+01  0.50400000000E-02 0.  1.
         24    2    1    2    0    0  0.00000000000E+00  0.00000000000E+00  0.29618361847E+03  0.30668660045E+03  0.79573456907E+02 0.  0.
         66    2    3    3    0    0  0.51678907631E+01  0.94686992670E+01  0.29568386439E+03  0.29588732830E+03  0.20000070575E+01 0.  0.
        -13    1    3    3    0    0 -0.51678907631E+01 -0.94686992670E+01  0.49975408211E+00  0.10799272148E+02  0.10566000000E+00 0.  1.
         13    1    4    4    0    0  0.54324015480E+00  0.31773184344E+00  0.20769921174E+02  0.20779722159E+02  0.10566000000E+00 0. -1.
        -13    1    4    4    0    0  0.89701183682E+00  0.24619623879E+01  0.59992072806E+02  0.60049361800E+02  0.10566000000E+00 0.  1.
         14    1    4    4    0    0  0.37276387715E+01  0.66890050357E+01  0.21492187041E+03  0.21505824434E+03  0.00000000000E+00 0. -1.
<mgrwt>
<rscale>  0 0.79573457E+02</rscale>
<asrwt>0</asrwt>
<pdfrwt beam="1">  1        2 0.46374645E-01 0.79573457E+02</pdfrwt>
<pdfrwt beam="2">  1       -1 0.80792146E-03 0.79573457E+02</pdfrwt>
<totfact> 0.25898930E+05</totfact>
</mgrwt>
</event>
<event>
 8    1  0.1226832E-020  0.7838385E+02  0.7818608E-02  0.1333701E+00
         -1   -1    0    0    0  501 -0.00000000000E+00  0.00000000000E+00  0.11687063686E+03  0.11687063697E+03  0.50400000000E-02 0.  1.
          2   -1    0    0  501    0  0.00000000000E+00 -0.00000000000E+00 -0.13142796699E+02  0.13142796946E+02  0.25500000000E-02 0. -1.
         24    2    1    2    0    0  0.88817841970E-15  0.00000000000E+00  0.10372784016E+03  0.13001343391E+03  0.78383851485E+02 0.  0.
         66    2    3    3    0    0  0.55373457288E+01  0.20288580157E+02 -0.29068759514E+01  0.21324600417E+02  0.19999931627E+01 0.  0.
        -13    1    3    3    0    0 -0.55373457288E+01 -0.20288580157E+02  0.10663471611E+03  0.10868883350E+03  0.10566000000E+00 0.  1.
         13    1    4    4    0    0  0.43735403557E+01  0.16175062743E+02 -0.17936917349E+01  0.16851973299E+02  0.10566000000E+00 0. -1.
        -13    1    4    4    0    0  0.81505728977E+00  0.31661899856E+01 -0.55113914639E+00  0.33172271259E+01  0.10566000000E+00 0.  1.
        -14    1    4    4    0    0  0.34874808336E+00  0.94732742834E+00 -0.56204507014E+00  0.11553999926E+01  0.00000000000E+00 0.  1.
<mgrwt>
<rscale>  0 0.78383851E+02</rscale>
<asrwt>0</asrwt>
<pdfrwt beam="1">  1        2 0.20219688E-02 0.78383851E+02</pdfrwt>
<pdfrwt beam="2">  1       -1 0.17980098E-01 0.78383851E+02</pdfrwt>
<totfact> 0.12054542E+05</totfact>
</mgrwt>
</event>
<event>
 8    1  0.1226832E-020  0.8078180E+02  0.7818608E-02  0.1326847E+00
         -1   -1    0    0    0  501 -0.00000000000E+00  0.00000000000E+00  0.51866743584E+02  0.51866743829E+02  0.50400000000E-02 0.  1.
          2   -1    0    0  501    0  0.00000000000E+00 -0.00000000000E+00 -0.31454157694E+02  0.31454157798E+02  0.25500000000E-02 0. -1.
         24    2    1    2    0    0  0.00000000000E+00  0.00000000000E+00  0.20412585890E+02  0.83320901626E+02  0.80781798600E+02 0.  0.
         66    2    3    3    0    0 -0.21940090951E+02  0.28257090524E+02 -0.90724546170E+01  0.36961333752E+02  0.20000010313E+01 0.  0.
        -13    1    3    3    0    0  0.21940090951E+02 -0.28257090524E+02  0.29485040507E+02  0.46359567875E+02  0.10566000000E+00 0.  1.
         13    1    4    4    0    0 -0.81587858084E+01  0.10501430525E+02 -0.35809451260E+01  0.13772442084E+02  0.10566000000E+00 0. -1.
        -13    1    4    4    0    0 -0.11448794893E+02  0.15618433311E+02 -0.47544036214E+01  0.19940558704E+02  0.10566000000E+00 0.  1.
        -14    1    4    4    0    0 -0.23325102490E+01  0.21372266886E+01 -0.73710586969E+00  0.32483329638E+01  0.00000000000E+00 0.  1.
<mgrwt>
<rscale>  0 0.80781799E+02</rscale>
<asrwt>0</asrwt>
<pdfrwt beam="1">  1        2 0.48391012E-02 0.80781799E+02</pdfrwt>
<pdfrwt beam="2">  1       -1 0.79794991E-02 0.80781799E+02</pdfrwt>
<totfact> 0.13217123E+05</totfact>
</mgrwt>
</event>
<event>
 8    1  0.1226832E-020  0.7954227E+02  0.7818608E-02  0.1330355E+00
          2   -1    0    0  501    0  0.00000000000E+00  0.00000000000E+00  0.28992230021E+03  0.28992230022E+03  0.25500000000E-02 0. -1.
         -1   -1    0    0    0  501 -0.00000000000E+00 -0.00000000000E+00 -0.54557469014E+01  0.54557492294E+01  0.50400000000E-02 0.  1.
         24    2    1    2    0    0 -0.35527136788E-14 -0.35527136788E-14  0.28446655330E+03  0.29537804945E+03  0.79542266411E+02 0.  0.
         66    2    3    3    0    0 -0.19940199185E+02  0.30213349865E+02  0.20326012269E+03  0.20646824352E+03  0.20000126235E+01 0.  0.
        -13    1    3    3    0    0  0.19940199185E+02 -0.30213349865E+02  0.81206430611E+02  0.88909805929E+02  0.10566000000E+00 0.  1.
         13    1    4    4    0    0 -0.12310203355E+02  0.18598967084E+02  0.12128940500E+03  0.12332312683E+03  0.10566000000E+00 0. -1.
        -13    1    4    4    0    0 -0.11022957763E+01  0.12197108834E+01  0.91163766127E+01  0.92640292097E+01  0.10566000000E+00 0.  1.
        -14    1    4    4    0    0 -0.65277000542E+01  0.10394671897E+02  0.72854341083E+02  0.73881087475E+02  0.00000000000E+00 0.  1.
<mgrwt>
<rscale>  0 0.79542266E+02</rscale>
<asrwt>0</asrwt>
<pdfrwt beam="1">  1        2 0.44603433E-01 0.79542266E+02</pdfrwt>
<pdfrwt beam="2">  1       -1 0.83934581E-03 0.79542266E+02</pdfrwt>
<totfact> 0.25562663E+05</totfact>
</mgrwt>
</event>
<event>
 8    1  0.1226832E-020  0.7872267E+02  0.7818608E-02  0.1332716E+00
         -1   -1    0    0    0  501 -0.00000000000E+00  0.00000000000E+00  0.15505269651E+03  0.15505269659E+03  0.50400000000E-02 0.  1.
          2   -1    0    0  501    0  0.00000000000E+00 -0.00000000000E+00 -0.99921808615E+01  0.99921811869E+01  0.25500000000E-02 0. -1.
         24    2    1    2    0    0  0.00000000000E+00  0.00000000000E+00  0.14506051565E+03  0.16504487778E+03  0.78722668151E+02 0.  0.
         66    2    3    3    0    0 -0.93215644041E+01  0.27060161861E+02  0.16002878181E+02  0.32851727898E+02  0.19999982252E+01 0.  0.
        -13    1    3    3    0    0  0.93215644041E+01 -0.27060161861E+02  0.12905763747E+03  0.13219314988E+03  0.10566000000E+00 0.  1.
         13    1    4    4    0    0 -0.37251271781E+01  0.12199031148E+02  0.78105792518E+01  0.14956912974E+02  0.10566000000E+00 0. -1.
        -13    1    4    4    0    0 -0.13557997465E+01  0.43987787344E+01  0.20109606314E+01  0.50241988420E+01  0.10566000000E+00 0.  1.
        -14    1    4    4    0    0 -0.42406374796E+01  0.10462351979E+02  0.61813382981E+01  0.12870616081E+02  0.00000000000E+00 0.  1.
<mgrwt>
<rscale>  0 0.78722668E+02</rscale>
<asrwt>0</asrwt>
<pdfrwt beam="1">  1        2 0.15372587E-02 0.78722668E+02</pdfrwt>
<pdfrwt beam="2">  1       -1 0.23854259E-01 0.78722668E+02</pdfrwt>
<totfact> 0.11140162E+05</totfact>
</mgrwt>
</event>
<event>
 8    1  0.1226832E-020  0.7690770E+02  0.7818608E-02  0.1338063E+00
         -1   -1    0    0    0  501 -0.00000000000E+00  0.00000000000E+00  0.33511181389E+01  0.33511219289E+01  0.50400000000E-02 0.  1.
          2   -1    0    0  501    0  0.00000000000E+00 -0.00000000000E+00 -0.44125506714E+03  0.44125506714E+03  0.25500000000E-02 0. -1.
         24    2    1    2    0    0  0.35527136788E-14  0.35527136788E-14 -0.43790394900E+03  0.44460618907E+03  0.76907703217E+02 0.  0.
         66    2    3    3    0    0  0.20075594267E+02  0.15986528931E+02 -0.38445092069E+03  0.38531170374E+03  0.20000053379E+01 0.  0.
        -13    1    3    3    0    0 -0.20075594267E+02 -0.15986528931E+02 -0.53453028304E+02  0.59294485337E+02  0.10566000000E+00 0.  1.
         13    1    4    4    0    0  0.73507919710E+01  0.60445459003E+01 -0.15334286027E+03  0.15363793359E+03  0.10566000000E+00 0. -1.
        -13    1    4    4    0    0  0.14787876551E+01  0.11143540058E+01 -0.22442577794E+02  0.22519082127E+02  0.10566000000E+00 0.  1.
         14    1    4    4    0    0  0.11246014641E+02  0.88276290251E+01 -0.20866548263E+03  0.20915468802E+03  0.00000000000E+00 0. -1.
<mgrwt>
<rscale>  0 0.76907703E+02</rscale>
<asrwt>0</asrwt>
<pdfrwt beam="1">  1        2 0.67885349E-01 0.76907703E+02</pdfrwt>
<pdfrwt beam="2">  1       -1 0.51555728E-03 0.76907703E+02</pdfrwt>
<totfact> 0.32384366E+05</totfact>
</mgrwt>
</event>
<event>
 8    1  0.1226832E-020  0.7701262E+02  0.7818608E-02  0.1337749E+00
          2   -1    0    0  501    0  0.00000000000E+00  0.00000000000E+00  0.25362514501E+02  0.25362514629E+02  0.25500000000E-02 0. -1.
         -1   -1    0    0    0  501 -0.00000000000E+00 -0.00000000000E+00 -0.58461705814E+02  0.58461706031E+02  0.50400000000E-02 0.  1.
         24    2    1    2    0    0  0.00000000000E+00  0.00000000000E+00 -0.33099191313E+02  0.83824220660E+02  0.77012619120E+02 0.  0.
         66    2    3    3    0    0  0.30563257922E+02  0.23043774829E+02 -0.12261330931E+02  0.40242620385E+02  0.19999915174E+01 0.  0.
        -13    1    3    3    0    0 -0.30563257922E+02 -0.23043774829E+02 -0.20837860383E+02  0.43581600275E+02  0.10566000000E+00 0.  1.
         13    1    4    4    0    0  0.13064601145E+02  0.10180983801E+02 -0.48772959474E+01  0.17266598219E+02  0.10566000000E+00 0. -1.
        -13    1    4    4    0    0  0.10395963189E+02  0.70033974892E+01 -0.38467636830E+01  0.13112298879E+02  0.10566000000E+00 0.  1.
        -14    1    4    4    0    0  0.71026935878E+01  0.58593935386E+01 -0.35372713000E+01  0.98637232875E+01  0.00000000000E+00 0.  1.
<mgrwt>
<rscale>  0 0.77012619E+02</rscale>
<asrwt>0</asrwt>
<pdfrwt beam="1">  1        2 0.39019253E-02 0.77012619E+02</pdfrwt>
<pdfrwt beam="2">  1       -1 0.89941086E-02 0.77012619E+02</pdfrwt>
<totfact> 0.14491810E+05</totfact>
</mgrwt>
</event>
<event>
 8    1  0.1226832E-020  0.7798064E+02  0.7818608E-02  0.1334882E+00
          2   -1    0    0  501    0  0.00000000000E+00  0.00000000000E+00  0.11886502735E+03  0.11886502738E+03  0.25500000000E-02 0. -1.
         -1   -1    0    0    0  501 -0.00000000000E+00 -0.00000000000E+00 -0.12789674968E+02  0.12789675961E+02  0.50400000000E-02 0.  1.
         24    2    1    2    0    0  0.35527136788E-14  0.17763568394E-14  0.10607535238E+03  0.13165470334E+03  0.77980642009E+02 0.  0.
         66    2    3    3    0    0 -0.20172093167E+02 -0.12517875029E+02  0.10523600389E+03  0.10789915224E+03  0.20000007995E+01 0.  0.
        -13    1    3    3    0    0  0.20172093167E+02  0.12517875029E+02  0.83934849900E+00  0.23755551097E+02  0.10566000000E+00 0.  1.
         13    1    4    4    0    0 -0.12531192344E+02 -0.79197047938E+01  0.68468006018E+02  0.70054489633E+02  0.10566000000E+00 0.  1.
        -13    1    4    4    0    0 -0.63444013780E+01 -0.41492540488E+01  0.30483861768E+02  0.31412493220E+02  0.10566000000E+00 0. -1.
         14    1    4    4    0    0 -0.12964994448E+01 -0.44891618634E+00  0.62841360989E+01  0.64321693900E+01  0.00000000000E+00 0. -1.
<mgrwt>
<rscale>  0 0.77980642E+02</rscale>
<asrwt>0</asrwt>
<pdfrwt beam="1">  1        2 0.18286927E-01 0.77980642E+02</pdfrwt>
<pdfrwt beam="2">  1       -1 0.19676424E-02 0.77980642E+02</pdfrwt>
<totfact> 0.19946626E+05</totfact>
</mgrwt>
</event>
<event>
 8    1  0.1226832E-020  0.8363556E+02  0.7818608E-02  0.1319040E+00
         -1   -1    0    0    0  501 -0.00000000000E+00  0.00000000000E+00  0.51749547565E+01  0.51749572107E+01  0.50400000000E-02 0.  1.
          2   -1    0    0  501    0  0.00000000000E+00 -0.00000000000E+00 -0.33792107968E+03  0.33792107969E+03  0.25500000000E-02 0. -1.
         24    2    1    2    0    0 -0.33306690739E-15  0.00000000000E+00 -0.33274612492E+03  0.34309603690E+03  0.83635559932E+02 0.  0.
         66    2    3    3    0    0  0.67489220370E+00  0.27654564719E+02 -0.29498711919E+03  0.29628808771E+03  0.20000006169E+01 0.  0.
        -13    1    3    3    0    0 -0.67489220370E+00 -0.27654564719E+02 -0.37759005735E+02  0.46807949191E+02  0.10566000000E+00 0.  1.
         13    1    4    4    0    0  0.26589430935E-01  0.16199911671E+01 -0.14820905711E+02  0.14909577073E+02  0.10566000000E+00 0. -1.
        -13    1    4    4    0    0 -0.47781049406E+00  0.52705789377E+01 -0.58749975473E+02  0.58987948661E+02  0.10566000000E+00 0.  1.
        -14    1    4    4    0    0  0.11261132668E+01  0.20763994614E+02 -0.22141623800E+03  0.22239056197E+03  0.00000000000E+00 0.  1.
<mgrwt>
<rscale>  0 0.83635560E+02</rscale>
<asrwt>0</asrwt>
<pdfrwt beam="1">  1        2 0.51987841E-01 0.83635560E+02</pdfrwt>
<pdfrwt beam="2">  1       -1 0.79614734E-03 0.83635560E+02</pdfrwt>
<totfact> 0.23684187E+05</totfact>
</mgrwt>
</event>
<event>
 8    1  0.1226832E-020  0.8021819E+02  0.7818608E-02  0.1328433E+00
         -1   -1    0    0    0  501 -0.00000000000E+00  0.00000000000E+00  0.14339142182E+02  0.14339143068E+02  0.50400000000E-02 0.  1.
          2   -1    0    0  501    0  0.00000000000E+00 -0.00000000000E+00 -0.11219217701E+03  0.11219217704E+03  0.25500000000E-02 0. -1.
         24    2    1    2    0    0  0.00000000000E+00  0.00000000000E+00 -0.97853034826E+02  0.12653132011E+03  0.80218193342E+02 0.  0.
         66    2    3    3    0    0 -0.29896125459E+02  0.26533456291E+02 -0.53670963565E+02  0.66950541282E+02  0.20000069659E+01 0.  0.
        -13    1    3    3    0    0  0.29896125459E+02 -0.26533456291E+02 -0.44182071262E+02  0.59580778823E+02  0.10566000000E+00 0.  1.
         13    1    4    4    0    0 -0.15053452619E+02  0.13802990346E+02 -0.28342585719E+02  0.34934829433E+02  0.10566000000E+00 0. -1.
        -13    1    4    4    0    0 -0.27607371040E+01  0.19516960097E+01 -0.40210654834E+01  0.52546092461E+01  0.10566000000E+00 0.  1.
        -14    1    4    4    0    0 -0.12081935736E+02  0.10778769935E+02 -0.21307312363E+02  0.26761102604E+02  0.00000000000E+00 0.  1.
<mgrwt>
<rscale>  0 0.80218193E+02</rscale>
<asrwt>0</asrwt>
<pdfrwt beam="1">  1        2 0.17260334E-01 0.80218193E+02</pdfrwt>
<pdfrwt beam="2">  1       -1 0.22060220E-02 0.80218193E+02</pdfrwt>
<totfact> 0.18185841E+05</totfact>
</mgrwt>
</event>
<event>
 8    1  0.1226832E-020  0.7814316E+02  0.7818608E-02  0.1334405E+00
         -1   -1    0    0    0  501 -0.00000000000E+00  0.00000000000E+00  0.28194911660E+01  0.28194956706E+01  0.50400000000E-02 0.  1.
          2   -1    0    0  501    0  0.00000000000E+00 -0.00000000000E+00 -0.54144060386E+03  0.54144060387E+03  0.25500000000E-02 0. -1.
         24    2    1    2    0    0 -0.17763568394E-14  0.00000000000E+00 -0.53862111269E+03  0.54426009954E+03  0.78143156501E+02 0.  0.
         66    2    3    3    0    0 -0.10822345348E+02  0.12918086789E+02 -0.51480395435E+03  0.51508359665E+03  0.19999995129E+01 0.  0.
        -13    1    3    3    0    0  0.10822345348E+02 -0.12918086789E+02 -0.23817158347E+02  0.29176502890E+02  0.10566000000E+00 0.  1.
         13    1    4    4    0    0 -0.41889152209E+01  0.52352286153E+01 -0.21782607183E+03  0.21792926229E+03  0.10566000000E+00 0. -1.
        -13    1    4    4    0    0 -0.36328484280E+01  0.51946179994E+01 -0.18600839934E+03  0.18611640828E+03  0.10566000000E+00 0.  1.
        -14    1    4    4    0    0 -0.30005816990E+01  0.24882401746E+01 -0.11096948317E+03  0.11103792607E+03  0.00000000000E+00 0.  1.
<mgrwt>
<rscale>  0 0.78143157E+02</rscale>
<asrwt>0</asrwt>
<pdfrwt beam="1">  1        2 0.83298472E-01 0.78143157E+02</pdfrwt>
<pdfrwt beam="2">  1       -1 0.43376865E-03 0.78143157E+02</pdfrwt>
<totfact> 0.33181123E+05</totfact>
</mgrwt>
</event>
<event>
 8    1  0.1226832E-020  0.7839243E+02  0.7818608E-02  0.1333676E+00
         -1   -1    0    0    0  501 -0.00000000000E+00  0.00000000000E+00  0.12866037487E+02  0.12866038474E+02  0.50400000000E-02 0.  1.
          2   -1    0    0  501    0  0.00000000000E+00 -0.00000000000E+00 -0.11941075859E+03  0.11941075862E+03  0.25500000000E-02 0. -1.
         24    2    1    2    0    0  0.35527136788E-14  0.00000000000E+00 -0.10654472111E+03  0.13227679709E+03  0.78392432376E+02 0.  0.
         66    2    3    3    0    0 -0.17372922630E+02 -0.20790670093E+02 -0.10104087633E+03  0.10462948484E+03  0.20000010008E+01 0.  0.
        -13    1    3    3    0    0  0.17372922630E+02  0.20790670093E+02 -0.55038447747E+01  0.27647312256E+02  0.10566000000E+00 0.  1.
         13    1    4    4    0    0 -0.75467046756E+01 -0.98093231209E+01 -0.44985562873E+02  0.46657128100E+02  0.10566000000E+00 0. -1.
        -13    1    4    4    0    0 -0.67989318007E+01 -0.69266493111E+01 -0.38197161700E+02  0.39411143986E+02  0.10566000000E+00 0.  1.
        -14    1    4    4    0    0 -0.30272861541E+01 -0.40546976607E+01 -0.17858151758E+02  0.18561212751E+02  0.00000000000E+00 0.  1.
<mgrwt>
<rscale>  0 0.78392432E+02</rscale>
<asrwt>0</asrwt>
<pdfrwt beam="1">  1        2 0.18370885E-01 0.78392432E+02</pdfrwt>
<pdfrwt beam="2">  1       -1 0.19793906E-02 0.78392432E+02</pdfrwt>
<totfact> 0.19695880E+05</totfact>
</mgrwt>
</event>
<event>
 8    1  0.1226832E-020  0.8426089E+02  0.7818608E-02  0.1317377E+00
          2   -1    0    0  501    0  0.00000000000E+00  0.00000000000E+00  0.10572559655E+03  0.10572559658E+03  0.25500000000E-02 0. -1.
         -1   -1    0    0    0  501 -0.00000000000E+00 -0.00000000000E+00 -0.16788500090E+02  0.16788500846E+02  0.50400000000E-02 0.  1.
         24    2    1    2    0    0  0.00000000000E+00 -0.35527136788E-14  0.88937096456E+02  0.12251409742E+03  0.84260886189E+02 0.  0.
         66    2    3    3    0    0 -0.38274811078E+01  0.26014662747E+02  0.92310796718E+02  0.96003622004E+02  0.19999893979E+01 0.  0.
        -13    1    3    3    0    0  0.38274811078E+01 -0.26014662747E+02 -0.33737002620E+01  0.26510475420E+02  0.10566000000E+00 0.  1.
         13    1    4    4    0    0 -0.28256272690E+01  0.19831377288E+02  0.68110178722E+02  0.70994896325E+02  0.10566000000E+00 0. -1.
        -13    1    4    4    0    0 -0.13552171141E-01  0.25878105371E+00  0.15617148618E+01  0.15865902559E+01  0.10566000000E+00 0. -1.
         14    1    4    4    0    0 -0.98830166770E+00  0.59245044057E+01  0.22638903134E+02  0.23422135423E+02  0.00000000000E+00 0. -1.
<mgrwt>
<rscale>  0 0.84260886E+02</rscale>
<asrwt>0</asrwt>
<pdfrwt beam="1">  1        2 0.16265476E-01 0.84260886E+02</pdfrwt>
<pdfrwt beam="2">  1       -1 0.25828463E-02 0.84260886E+02</pdfrwt>
<totfact> 0.15666660E+05</totfact>
</mgrwt>
</event>
<event>
 8    1  0.1226832E-020  0.7960162E+02  0.7818608E-02  0.1330186E+00
          2   -1    0    0  501    0  0.00000000000E+00  0.00000000000E+00  0.14242734790E+03  0.14242734792E+03  0.25500000000E-02 0. -1.
         -1   -1    0    0    0  501 -0.00000000000E+00 -0.00000000000E+00 -0.11122192899E+02  0.11122194041E+02  0.50400000000E-02 0.  1.
         24    2    1    2    0    0 -0.71054273576E-14  0.44408920985E-15  0.13130515500E+03  0.15354954196E+03  0.79601621262E+02 0.  0.
         66    2    3    3    0    0  0.39558362812E+02 -0.19766183775E+01  0.58651569446E+02  0.70800972511E+02  0.20000053683E+01 0.  0.
        -13    1    3    3    0    0 -0.39558362812E+02  0.19766183775E+01  0.72653585551E+02  0.82748569450E+02  0.10566000000E+00 0.  1.
         13    1    4    4    0    0  0.25638662943E+02 -0.95766113447E+00  0.37302722286E+02  0.45274301831E+02  0.10566000000E+00 0. -1.
        -13    1    4    4    0    0  0.67158354220E+00  0.11196557685E+00  0.86648690449E+00  0.11070340265E+01  0.10566000000E+00 0.  1.
        -14    1    4    4    0    0  0.13248116326E+02 -0.11309228199E+01  0.20482360256E+02  0.24419636653E+02  0.00000000000E+00 0.  1.
<mgrwt>
<rscale>  0 0.79601621E+02</rscale>
<asrwt>0</asrwt>
<pdfrwt beam="1">  1        2 0.21911900E-01 0.79601621E+02</pdfrwt>
<pdfrwt beam="2">  1       -1 0.17111067E-02 0.79601621E+02</pdfrwt>
<totfact> 0.19963908E+05</totfact>
</mgrwt>
</event>
<event>
 8    1  0.1226832E-020  0.8366599E+02  0.7818608E-02  0.1318958E+00
          2   -1    0    0  501    0  0.00000000000E+00  0.00000000000E+00  0.95326628040E+02  0.95326628074E+02  0.25500000000E-02 0. -1.
         -1   -1    0    0    0  501 -0.00000000000E+00 -0.00000000000E+00 -0.18357930568E+02  0.18357931260E+02  0.50400000000E-02 0.  1.
         24    2    1    2    0    0 -0.44408920985E-15  0.71054273576E-14  0.76968697471E+02  0.11368455933E+03  0.83665994529E+02 0.  0.
         66    2    3    3    0    0  0.22457665454E+01 -0.36979025733E+02  0.64836779438E+02  0.74701403859E+02  0.19999897555E+01 0.  0.
        -13    1    3    3    0    0 -0.22457665454E+01  0.36979025733E+02  0.12131918033E+02  0.38983155475E+02  0.10566000000E+00 0.  1.
         13    1    4    4    0    0  0.15397527206E+01 -0.30474597611E+02  0.53149784897E+02  0.61286072941E+02  0.10566000000E+00 0. -1.
        -13    1    4    4    0    0  0.61190831104E+00 -0.49974869258E+01  0.95830195013E+01  0.10825651673E+02  0.10566000000E+00 0.  1.
        -14    1    4    4    0    0  0.94105513748E-01 -0.15069411969E+01  0.21039750405E+01  0.25896792445E+01  0.00000000000E+00 0.  1.
<mgrwt>
<rscale>  0 0.83665995E+02</rscale>
<asrwt>0</asrwt>
<pdfrwt beam="1">  1        2 0.14665635E-01 0.83665995E+02</pdfrwt>
<pdfrwt beam="2">  1       -1 0.28242971E-02 0.83665995E+02</pdfrwt>
<totfact> 0.15506266E+05</totfact>
</mgrwt>
</event>
<event>
 8    1  0.1226832E-020  0.7771729E+02  0.7818608E-02  0.1335657E+00
         -1   -1    0    0    0  501 -0.00000000000E+00  0.00000000000E+00  0.22789020117E+02  0.22789020674E+02  0.50400000000E-02 0.  1.
          2   -1    0    0  501    0  0.00000000000E+00 -0.00000000000E+00 -0.66259731775E+02  0.66259731824E+02  0.25500000000E-02 0. -1.
         24    2    1    2    0    0 -0.17763568394E-14  0.71054273576E-14 -0.43470711658E+02  0.89048752498E+02  0.77717292474E+02 0.  0.
         66    2    3    3    0    0  0.60747176411E+01 -0.38309634264E+02 -0.19618640321E+02  0.43513461317E+02  0.19999989584E+01 0.  0.
        -13    1    3    3    0    0 -0.60747176411E+01  0.38309634264E+02 -0.23852071336E+02  0.45535291181E+02  0.10566000000E+00 0.  1.
         13    1    4    4    0    0  0.26650604344E+01 -0.17916361558E+02 -0.93863491493E+01  0.20401305669E+02  0.10566000000E+00 0. -1.
        -13    1    4    4    0    0  0.79750687292E+00 -0.89418589393E+01 -0.44792566022E+01  0.10033332559E+02  0.10566000000E+00 0.  1.
         14    1    4    4    0    0  0.26121503337E+01 -0.11451413767E+02 -0.57530345699E+01  0.13078823089E+02  0.00000000000E+00 0. -1.
<mgrwt>
<rscale>  0 0.77717292E+02</rscale>
<asrwt>0</asrwt>
<pdfrwt beam="1">  1        2 0.10193805E-01 0.77717292E+02</pdfrwt>
<pdfrwt beam="2">  1       -1 0.35060032E-02 0.77717292E+02</pdfrwt>
<totfact> 0.17232190E+05</totfact>
</mgrwt>
</event>
<event>
 8    1  0.1226832E-020  0.7928415E+02  0.7818608E-02  0.1331095E+00
         -1   -1    0    0    0  501 -0.00000000000E+00  0.00000000000E+00  0.45104465919E+02  0.45104466200E+02  0.50400000000E-02 0.  1.
          2   -1    0    0  501    0  0.00000000000E+00 -0.00000000000E+00 -0.34841207007E+02  0.34841207100E+02  0.25500000000E-02 0. -1.
         24    2    1    2    0    0  0.00000000000E+00  0.00000000000E+00  0.10263258912E+02  0.79945673300E+02  0.79284148453E+02 0.  0.
         66    2    3    3    0    0  0.17476590323E+02  0.40690118889E+01 -0.30479794946E+02  0.35426063365E+02  0.19999996183E+01 0.  0.
        -13    1    3    3    0    0 -0.17476590323E+02 -0.40690118889E+01  0.40743053858E+02  0.44519609935E+02  0.10566000000E+00 0.  1.
         13    1    4    4    0    0  0.53323366860E+01  0.82012005638E+00 -0.81484059189E+01  0.97731312533E+01  0.10566000000E+00 0. -1.
        -13    1    4    4    0    0  0.11152490316E+02  0.31705792282E+01 -0.21032536680E+02  0.24016856084E+02  0.10566000000E+00 0.  1.
        -14    1    4    4    0    0  0.99176332166E+00  0.78312604259E-01 -0.12988523471E+01  0.16360760281E+01  0.00000000000E+00 0.  1.
<mgrwt>
<rscale>  0 0.79284148E+02</rscale>
<asrwt>0</asrwt>
<pdfrwt beam="1">  1        2 0.53601857E-02 0.79284148E+02</pdfrwt>
<pdfrwt beam="2">  1       -1 0.69391487E-02 0.79284148E+02</pdfrwt>
<totfact> 0.14212094E+05</totfact>
</mgrwt>
</event>
<event>
 8    1  0.1226832E-020  0.8100918E+02  0.7818608E-02  0.1326212E+00
         -1   -1    0    0    0  501 -0.00000000000E+00  0.00000000000E+00  0.27422525639E+02  0.27422526102E+02  0.50400000000E-02 0.  1.
          2   -1    0    0  501    0  0.00000000000E+00 -0.00000000000E+00 -0.59827527334E+02  0.59827527389E+02  0.25500000000E-02 0. -1.
         24    2    1    2    0    0  0.00000000000E+00  0.71054273576E-14 -0.32405001695E+02  0.87250053491E+02  0.81009182808E+02 0.  0.
         66    2    3    3    0    0 -0.79776937921E+01 -0.38687064862E+02 -0.66828750883E+01  0.40112260298E+02  0.20000052081E+01 0.  0.
        -13    1    3    3    0    0  0.79776937921E+01  0.38687064862E+02 -0.25722126607E+02  0.47137793193E+02  0.10566000000E+00 0.  1.
         13    1    4    4    0    0 -0.19541935987E+01 -0.79461573570E+01 -0.17766897803E+01  0.83742510098E+01  0.10566000000E+00 0.  1.
        -13    1    4    4    0    0 -0.11786999478E+01 -0.68561030542E+01 -0.53632594531E+00  0.69781295640E+01  0.10566000000E+00 0. -1.
         14    1    4    4    0    0 -0.48448002457E+01 -0.23884804451E+02 -0.43698593626E+01  0.24759879724E+02  0.00000000000E+00 0. -1.
<mgrwt>
<rscale>  0 0.81009183E+02</rscale>
<asrwt>0</asrwt>
<pdfrwt beam="1">  1        2 0.92042350E-02 0.81009183E+02</pdfrwt>
<pdfrwt beam="2">  1       -1 0.42188502E-02 0.81009183E+02</pdfrwt>
<totfact> 0.15033763E+05</totfact>
</mgrwt>
</event>
<event>
 8    1  0.1226832E-020  0.7861474E+02  0.7818608E-02  0.1333029E+00
         -1   -1    0    0    0  501 -0.00000000000E+00  0.00000000000E+00  0.14595235701E+02  0.14595236571E+02  0.50400000000E-02 0.  1.
          2   -1    0    0  501    0  0.00000000000E+00 -0.00000000000E+00 -0.10586120861E+03  0.10586120864E+03  0.25500000000E-02 0. -1.
         24    2    1    2    0    0  0.35527136788E-14 -0.71054273576E-14 -0.91265972912E+02  0.12045644521E+03  0.78614740235E+02 0.  0.
         66    2    3    3    0    0 -0.22822978984E+02  0.29863263095E+02 -0.63156909909E+02  0.73522092771E+02  0.20000009170E+01 0.  0.
        -13    1    3    3    0    0  0.22822978984E+02 -0.29863263095E+02 -0.28109063003E+02  0.46934352444E+02  0.10566000000E+00 0.  1.
         13    1    4    4    0    0 -0.68420773243E+01  0.86031055314E+01 -0.18633360555E+02  0.21634249155E+02  0.10566000000E+00 0. -1.
        -13    1    4    4    0    0 -0.76614757906E+01  0.11495512316E+02 -0.22720552134E+02  0.26590969671E+02  0.10566000000E+00 0.  1.
        -14    1    4    4    0    0 -0.83194258694E+01  0.97646452476E+01 -0.21802997220E+02  0.25296873945E+02  0.00000000000E+00 0.  1.
<mgrwt>
<rscale>  0 0.78614740E+02</rscale>
<asrwt>0</asrwt>
<pdfrwt beam="1">  1        2 0.16286339E-01 0.78614740E+02</pdfrwt>
<pdfrwt beam="2">  1       -1 0.22454210E-02 0.78614740E+02</pdfrwt>
<totfact> 0.18874551E+05</totfact>
</mgrwt>
</event>
<event>
 8    1  0.1226832E-020  0.8148930E+02  0.7818608E-02  0.1324877E+00
         -1   -1    0    0    0  501 -0.00000000000E+00  0.00000000000E+00  0.35024019321E+01  0.35024055584E+01  0.50400000000E-02 0.  1.
          2   -1    0    0  501    0  0.00000000000E+00 -0.00000000000E+00 -0.47399628814E+03  0.47399628815E+03  0.25500000000E-02 0. -1.
         24    2    1    2    0    0 -0.44408920985E-15  0.00000000000E+00 -0.47049388621E+03  0.47749869370E+03  0.81489297034E+02 0.  0.
         66    2    3    3    0    0 -0.39539667323E+01 -0.28854528772E+02 -0.40214687949E+03  0.40320507234E+03  0.19999992951E+01 0.  0.
        -13    1    3    3    0    0  0.39539667323E+01  0.28854528772E+02 -0.68347006721E+02  0.74293621364E+02  0.10566000000E+00 0.  1.
         13    1    4    4    0    0 -0.27983309054E+01 -0.18823012704E+02 -0.26172225580E+03  0.26241319862E+03  0.10566000000E+00 0. -1.
        -13    1    4    4    0    0 -0.96559575754E+00 -0.37605551629E+01 -0.51628667379E+02  0.51774555620E+02  0.10566000000E+00 0.  1.
        -14    1    4    4    0    0 -0.19004006940E+00 -0.62709609055E+01 -0.88795956303E+02  0.89017318100E+02  0.00000000000E+00 0.  1.
<mgrwt>
<rscale>  0 0.81489297E+02</rscale>
<asrwt>0</asrwt>
<pdfrwt beam="1">  1        2 0.72922455E-01 0.81489297E+02</pdfrwt>
<pdfrwt beam="2">  1       -1 0.53883172E-03 0.81489297E+02</pdfrwt>
<totfact> 0.28523309E+05</totfact>
</mgrwt>
</event>
<event>
 8    1  0.1226832E-020  0.8053610E+02  0.7818608E-02  0.1327537E+00
          2   -1    0    0  501    0  0.00000000000E+00  0.00000000000E+00  0.59373594813E+02  0.59373594868E+02  0.25500000000E-02 0. -1.
         -1   -1    0    0    0  501 -0.00000000000E+00 -0.00000000000E+00 -0.27310383359E+02  0.27310383824E+02  0.50400000000E-02 0.  1.
         24    2    1    2    0    0 -0.71054273576E-14 -0.35527136788E-14  0.32063211454E+02  0.86683978692E+02  0.80536095219E+02 0.  0.
         66    2    3    3    0    0  0.25250537586E+02 -0.21021773262E+02  0.41053417475E+02  0.52620221298E+02  0.20000009184E+01 0.  0.
        -13    1    3    3    0    0 -0.25250537586E+02  0.21021773262E+02 -0.89902060205E+01  0.34063757394E+02  0.10566000000E+00 0.  1.
         13    1    4    4    0    0  0.84461281434E+01 -0.66855428557E+01  0.13953180516E+02  0.17627704741E+02  0.10566000000E+00 0. -1.
        -13    1    4    4    0    0  0.50823387107E+01 -0.36149393330E+01  0.82044473702E+01  0.10306409357E+02  0.10566000000E+00 0.  1.
         14    1    4    4    0    0  0.11722070732E+02 -0.10721291074E+02  0.18895789588E+02  0.24686107200E+02  0.00000000000E+00 0. -1.
<mgrwt>
<rscale>  0 0.80536095E+02</rscale>
<asrwt>0</asrwt>
<pdfrwt beam="1">  1        2 0.91343991E-02 0.80536095E+02</pdfrwt>
<pdfrwt beam="2">  1       -1 0.42015976E-02 0.80536095E+02</pdfrwt>
<totfact> 0.15248732E+05</totfact>
</mgrwt>
</event>
<event>
 8    1  0.1226832E-020  0.8116410E+02  0.7818608E-02  0.1325780E+00
          2   -1    0    0  501    0  0.00000000000E+00  0.00000000000E+00  0.64361324226E+03  0.64361324227E+03  0.25500000000E-02 0. -1.
         -1   -1    0    0    0  501 -0.00000000000E+00 -0.00000000000E+00 -0.25588368997E+01  0.25588418632E+01  0.50400000000E-02 0.  1.
         24    2    1    2    0    0  0.88817841970E-15 -0.71054273576E-14  0.64105440536E+03  0.64617208413E+03  0.81164103364E+02 0.  0.
         66    2    3    3    0    0 -0.62209310718E+01  0.37595556187E+02  0.43125793331E+03  0.43294287254E+03  0.20000016508E+01 0.  0.
        -13    1    3    3    0    0  0.62209310718E+01 -0.37595556187E+02  0.20979647205E+03  0.21322921160E+03  0.10566000000E+00 0.  1.
         13    1    4    4    0    0 -0.46271683951E+01  0.25007460066E+02  0.28469075776E+03  0.28582446093E+03  0.10566000000E+00 0. -1.
        -13    1    4    4    0    0 -0.10759319073E+01  0.10388399842E+02  0.11725425441E+03  0.11771851096E+03  0.10566000000E+00 0.  1.
        -14    1    4    4    0    0 -0.51783076938E+00  0.21996962792E+01  0.29312921138E+02  0.29399900648E+02  0.00000000000E+00 0.  1.
<mgrwt>
<rscale>  0 0.81164103E+02</rscale>
<asrwt>0</asrwt>
<pdfrwt beam="1">  1        2 0.99017704E-01 0.81164103E+02</pdfrwt>
<pdfrwt beam="2">  1       -1 0.39366648E-03 0.81164103E+02</pdfrwt>
<totfact> 0.31564980E+05</totfact>
</mgrwt>
</event>
<event>
 8    1  0.1226832E-020  0.8169422E+02  0.7818608E-02  0.1324311E+00
          2   -1    0    0  501    0  0.00000000000E+00  0.00000000000E+00  0.20506860684E+03  0.20506860686E+03  0.25500000000E-02 0. -1.
         -1   -1    0    0    0  501 -0.00000000000E+00 -0.00000000000E+00 -0.81362335967E+01  0.81362351577E+01  0.50400000000E-02 0.  1.
         24    2    1    2    0    0 -0.71054273576E-14  0.35527136788E-14  0.19693237325E+03  0.21320484202E+03  0.81694216606E+02 0.  0.
         66    2    3    3    0    0 -0.29561446192E+02  0.24836604613E+02  0.13312276174E+03  0.13862325103E+03  0.20000006859E+01 0.  0.
        -13    1    3    3    0    0  0.29561446192E+02 -0.24836604613E+02  0.63809611507E+02  0.74581590989E+02  0.10566000000E+00 0.  1.
         13    1    4    4    0    0 -0.27740100437E+01  0.26889565729E+01  0.14464617910E+02  0.14972039089E+02  0.10566000000E+00 0.  1.
        -13    1    4    4    0    0 -0.92727993648E+01  0.69201922503E+01  0.38631142416E+02  0.40326792549E+02  0.10566000000E+00 0. -1.
        -14    1    4    4    0    0 -0.17514636784E+02  0.15227455790E+02  0.80027001414E+02  0.83324419391E+02  0.00000000000E+00 0.  1.
<mgrwt>
<rscale>  0 0.81694217E+02</rscale>
<asrwt>0</asrwt>
<pdfrwt beam="1">  1        2 0.31549012E-01 0.81694217E+02</pdfrwt>
<pdfrwt beam="2">  1       -1 0.12517285E-02 0.81694217E+02</pdfrwt>
<totfact> 0.21053754E+05</totfact>
</mgrwt>
</event>
<event>
 8    1  0.1226832E-020  0.7818326E+02  0.7818608E-02  0.1334288E+00
         -1   -1    0    0    0  501 -0.00000000000E+00  0.00000000000E+00  0.44731719458E+02  0.44731719742E+02  0.50400000000E-02 0.  1.
          2   -1    0    0  501    0  0.00000000000E+00 -0.00000000000E+00 -0.34162678500E+02  0.34162678595E+02  0.25500000000E-02 0. -1.
         24    2    1    2    0    0  0.00000000000E+00  0.00000000000E+00  0.10569040958E+02  0.78894398337E+02  0.78183255638E+02 0.  0.
         66    2    3    3    0    0  0.33265365111E+02 -0.17226630759E+01 -0.15308425129E+02  0.36713757052E+02  0.19999982202E+01 0.  0.
        -13    1    3    3    0    0 -0.33265365111E+02  0.17226630759E+01  0.25877466088E+02  0.42180641285E+02  0.10566000000E+00 0.  1.
         13    1    4    4    0    0  0.12629853305E+02 -0.73799203036E+00 -0.63338912184E+01  0.14148751491E+02  0.10566000000E+00 0. -1.
        -13    1    4    4    0    0  0.47821271760E+01 -0.67903738265E+00 -0.24746006809E+01  0.54281345470E+01  0.10566000000E+00 0.  1.
         14    1    4    4    0    0  0.15853384630E+02 -0.30563366289E+00 -0.64999332300E+01  0.17136871015E+02  0.00000000000E+00 0. -1.
<mgrwt>
<rscale>  0 0.78183256E+02</rscale>
<asrwt>0</asrwt>
<pdfrwt beam="1">  1        2 0.52557967E-02 0.78183256E+02</pdfrwt>
<pdfrwt beam="2">  1       -1 0.68818030E-02 0.78183256E+02</pdfrwt>
<totfact> 0.14717172E+05</totfact>
</mgrwt>
</event>
<event>
 8    1  0.1226832E-020  0.7906464E+02  0.7818608E-02  0.1331727E+00
         -1   -1    0    0    0  501 -0.00000000000E+00  0.00000000000E+00  0.20765286226E+01  0.20765347390E+01  0.50400000000E-02 0.  1.
          2   -1    0    0  501    0  0.00000000000E+00 -0.00000000000E+00 -0.75260313710E+03  0.75260313710E+03  0.25500000000E-02 0. -1.
         24    2    1    2    0    0  0.00000000000E+00  0.00000000000E+00 -0.75052660848E+03  0.75467967184E+03  0.79064638498E+02 0.  0.
         66    2    3    3    0    0 -0.15835011894E+02  0.23151846612E+02 -0.64106302969E+03  0.64167948667E+03  0.19999950069E+01 0.  0.
        -13    1    3    3    0    0  0.15835011894E+02 -0.23151846612E+02 -0.10946357879E+03  0.11300018517E+03  0.10566000000E+00 0.  1.
         13    1    4    4    0    0 -0.11785890019E+02  0.16550957206E+02 -0.46682810485E+03  0.46727008467E+03  0.10566000000E+00 0. -1.
        -13    1    4    4    0    0 -0.98635451319E+00  0.23423700263E+01 -0.61139565373E+02  0.61192460406E+02  0.10566000000E+00 0.  1.
         14    1    4    4    0    0 -0.30627673615E+01  0.42585193800E+01 -0.11309535947E+03  0.11321694160E+03  0.00000000000E+00 0. -1.
<mgrwt>
<rscale>  0 0.79064638E+02</rscale>
<asrwt>0</asrwt>
<pdfrwt beam="1">  1        2 0.11578488E+00 0.79064638E+02</pdfrwt>
<pdfrwt beam="2">  1       -1 0.31946701E-03 0.79064638E+02</pdfrwt>
<totfact> 0.35030122E+05</totfact>
</mgrwt>
</event>
<event>
 8    1  0.1226832E-020  0.7585512E+02  0.7818608E-02  0.1341243E+00
         -1   -1    0    0    0  501 -0.00000000000E+00  0.00000000000E+00  0.92950821629E+02  0.92950821766E+02  0.50400000000E-02 0.  1.
          2   -1    0    0  501    0  0.00000000000E+00 -0.00000000000E+00 -0.15475923371E+02  0.15475923581E+02  0.25500000000E-02 0. -1.
         24    2    1    2    0    0  0.35527136788E-14  0.35527136788E-14  0.77474898258E+02  0.10842674535E+03  0.75855120107E+02 0.  0.
         66    2    3    3    0    0  0.23463857764E+02  0.28199710878E+02  0.25149865507E+02  0.44522938487E+02  0.20000004198E+01 0.  0.
        -13    1    3    3    0    0 -0.23463857764E+02 -0.28199710878E+02  0.52325032751E+02  0.63903806860E+02  0.10566000000E+00 0.  1.
         13    1    4    4    0    0  0.10337640162E+02  0.12347898551E+02  0.11697087402E+02  0.19904030257E+02  0.10566000000E+00 0. -1.
        -13    1    4    4    0    0  0.27328221657E+01  0.32828720272E+01  0.22164853310E+01  0.48134745241E+01  0.10566000000E+00 0.  1.
        -14    1    4    4    0    0  0.10393395436E+02  0.12568940300E+02  0.11236292773E+02  0.19805433705E+02  0.00000000000E+00 0.  1.
<mgrwt>
<rscale>  0 0.75855120E+02</rscale>
<asrwt>0</asrwt>
<pdfrwt beam="1">  1        2 0.23809113E-02 0.75855120E+02</pdfrwt>
<pdfrwt beam="2">  1       -1 0.14300127E-01 0.75855120E+02</pdfrwt>
<totfact> 0.13739796E+05</totfact>
</mgrwt>
</event>
<event>
 8    1  0.1226832E-020  0.7846163E+02  0.7818608E-02  0.1333475E+00
          2   -1    0    0  501    0  0.00000000000E+00  0.00000000000E+00  0.79755364958E+02  0.79755364999E+02  0.25500000000E-02 0. -1.
         -1   -1    0    0    0  501 -0.00000000000E+00 -0.00000000000E+00 -0.19297218646E+02  0.19297219305E+02  0.50400000000E-02 0.  1.
         24    2    1    2    0    0  0.00000000000E+00  0.00000000000E+00  0.60458146312E+02  0.99052584304E+02  0.78461627575E+02 0.  0.
         66    2    3    3    0    0  0.37253236569E+02 -0.42428659635E+01  0.15785872872E+02  0.40730815428E+02  0.19999991667E+01 0.  0.
        -13    1    3    3    0    0 -0.37253236569E+02  0.42428659635E+01  0.44672273440E+02  0.58321768875E+02  0.10566000000E+00 0.  1.
         13    1    4    4    0    0  0.19121457622E+02 -0.23256812334E+01  0.83265347960E+01  0.20985263414E+02  0.10566000000E+00 0.  1.
        -13    1    4    4    0    0  0.11998238349E+02 -0.79763264029E+00  0.53719185424E+01  0.13170520649E+02  0.10566000000E+00 0. -1.
        -14    1    4    4    0    0  0.61335405975E+01 -0.11195520898E+01  0.20874195338E+01  0.65750313652E+01  0.00000000000E+00 0.  1.
<mgrwt>
<rscale>  0 0.78461628E+02</rscale>
<asrwt>0</asrwt>
<pdfrwt beam="1">  1        2 0.12270057E-01 0.78461628E+02</pdfrwt>
<pdfrwt beam="2">  1       -1 0.29688028E-02 0.78461628E+02</pdfrwt>
<totfact> 0.17578012E+05</totfact>
</mgrwt>
</event>
<event>
 8    1  0.1226832E-020  0.8405840E+02  0.7818608E-02  0.1317913E+00
         -1   -1    0    0    0  501 -0.00000000000E+00  0.00000000000E+00  0.35408421335E+01  0.35408457204E+01  0.50400000000E-02 0.  1.
          2   -1    0    0  501    0  0.00000000000E+00 -0.00000000000E+00 -0.49887932304E+03  0.49887932304E+03  0.25500000000E-02 0. -1.
         24    2    1    2    0    0  0.00000000000E+00  0.00000000000E+00 -0.49533848090E+03  0.50242016876E+03  0.84058404202E+02 0.  0.
         66    2    3    3    0    0 -0.19981000644E+02 -0.31020272195E+02 -0.36778995463E+03  0.36964164869E+03  0.20000118470E+01 0.  0.
        -13    1    3    3    0    0  0.19981000644E+02  0.31020272195E+02 -0.12754852627E+03  0.13277852007E+03  0.10566000000E+00 0.  1.
         13    1    4    4    0    0 -0.14807787248E+01 -0.25873340265E+01 -0.32908190957E+02  0.33043111220E+02  0.10566000000E+00 0. -1.
        -13    1    4    4    0    0 -0.45701323719E+01 -0.65786427469E+01 -0.73688240065E+02  0.74122415896E+02  0.10566000000E+00 0.  1.
         14    1    4    4    0    0 -0.13930089547E+02 -0.21854295422E+02 -0.26119352361E+03  0.26247612158E+03  0.00000000000E+00 0. -1.
<mgrwt>
<rscale>  0 0.84058404E+02</rscale>
<asrwt>0</asrwt>
<pdfrwt beam="1">  1        2 0.76750609E-01 0.84058404E+02</pdfrwt>
<pdfrwt beam="2">  1       -1 0.54474562E-03 0.84058404E+02</pdfrwt>
<totfact> 0.26739169E+05</totfact>
</mgrwt>
</event>
<event>
 8    1  0.1226832E-020  0.7097391E+02  0.7818608E-02  0.1356812E+00
          2   -1    0    0  501    0  0.00000000000E+00  0.00000000000E+00  0.40711048843E+02  0.40711048923E+02  0.25500000000E-02 0. -1.
         -1   -1    0    0    0  501 -0.00000000000E+00 -0.00000000000E+00 -0.30933221531E+02  0.30933221942E+02  0.50400000000E-02 0.  1.
         24    2    1    2    0    0  0.17763568394E-14  0.00000000000E+00  0.97778273118E+01  0.71644270865E+02  0.70973908169E+02 0.  0.
         66    2    3    3    0    0 -0.12912061846E+02 -0.96704501507E+01  0.36767608422E+02  0.40200696074E+02  0.19999971282E+01 0.  0.
        -13    1    3    3    0    0  0.12912061846E+02  0.96704501507E+01 -0.26989781110E+02  0.31443574791E+02  0.10566000000E+00 0.  1.
         13    1    4    4    0    0 -0.10407624197E+02 -0.73332246299E+01  0.29917159301E+02  0.32513726480E+02  0.10566000000E+00 0. -1.
        -13    1    4    4    0    0 -0.21315455668E+01 -0.19219373230E+01  0.51425784912E+01  0.58902128273E+01  0.10566000000E+00 0.  1.
         14    1    4    4    0    0 -0.37289208221E+00 -0.41528819789E+00  0.17078706295E+01  0.17967567669E+01  0.00000000000E+00 0. -1.
<mgrwt>
<rscale>  0 0.70973908E+02</rscale>
<asrwt>0</asrwt>
<pdfrwt beam="1">  1        2 0.62632384E-02 0.70973908E+02</pdfrwt>
<pdfrwt beam="2">  1       -1 0.47589572E-02 0.70973908E+02</pdfrwt>
<totfact> 0.19847925E+05</totfact>
</mgrwt>
</event>
<event>
 8    1  0.1226832E-020  0.7874187E+02  0.7818608E-02  0.1332660E+00
         -1   -1    0    0    0  501 -0.00000000000E+00  0.00000000000E+00  0.57456032552E+01  0.57456054657E+01  0.50400000000E-02 0.  1.
          2   -1    0    0  501    0  0.00000000000E+00 -0.00000000000E+00 -0.26978374409E+03  0.26978374410E+03  0.25500000000E-02 0. -1.
         24    2    1    2    0    0  0.00000000000E+00 -0.44408920985E-15 -0.26403814084E+03  0.27552934957E+03  0.78741873599E+02 0.  0.
         66    2    3    3    0    0 -0.38918046963E+02 -0.30954652825E+01 -0.11500844324E+03  0.12147073016E+03  0.19999960784E+01 0.  0.
        -13    1    3    3    0    0  0.38918046963E+02  0.30954652825E+01 -0.14902969760E+03  0.15405861941E+03  0.10566000000E+00 0.  1.
         13    1    4    4    0    0 -0.13721547872E+02 -0.12152049937E+01 -0.38650449321E+02  0.41032011843E+02  0.10566000000E+00 0. -1.
        -13    1    4    4    0    0 -0.20840963911E+02 -0.12285067419E+01 -0.62024936258E+02  0.65444318985E+02  0.10566000000E+00 0.  1.
         14    1    4    4    0    0 -0.43555351794E+01 -0.65175354686E+00 -0.14333057660E+02  0.14994399330E+02  0.00000000000E+00 0. -1.
<mgrwt>
<rscale>  0 0.78741874E+02</rscale>
<asrwt>0</asrwt>
<pdfrwt beam="1">  1        2 0.41505182E-01 0.78741874E+02</pdfrwt>
<pdfrwt beam="2">  1       -1 0.88393935E-03 0.78741874E+02</pdfrwt>
<totfact> 0.25574551E+05</totfact>
</mgrwt>
</event>
<event>
 8    1  0.1226832E-020  0.8001211E+02  0.7818608E-02  0.1329017E+00
          2   -1    0    0  501    0  0.00000000000E+00  0.00000000000E+00  0.92384103737E+01  0.92384107256E+01  0.25500000000E-02 0. -1.
         -1   -1    0    0    0  501 -0.00000000000E+00 -0.00000000000E+00 -0.17324241000E+03  0.17324241008E+03  0.50400000000E-02 0.  1.
         24    2    1    2    0    0  0.00000000000E+00  0.00000000000E+00 -0.16400399963E+03  0.18248082080E+03  0.80012111997E+02 0.  0.
         66    2    3    3    0    0 -0.11352865233E+02  0.27792413692E+02 -0.21834305054E+02  0.37175834558E+02  0.19999975136E+01 0.  0.
        -13    1    3    3    0    0  0.11352865233E+02 -0.27792413692E+02 -0.14216969458E+03  0.14530498624E+03  0.10566000000E+00 0.  1.
         13    1    4    4    0    0 -0.25475208222E+01  0.71615776287E+01 -0.57180422433E+01  0.95123723437E+01  0.10566000000E+00 0. -1.
        -13    1    4    4    0    0 -0.66336171970E+01  0.16380912391E+02 -0.13331986757E+02  0.22138026172E+02  0.10566000000E+00 0.  1.
         14    1    4    4    0    0 -0.21717272134E+01  0.42499236725E+01 -0.27842760538E+01  0.55254360421E+01  0.00000000000E+00 0. -1.
<mgrwt>
<rscale>  0 0.80012112E+02</rscale>
<asrwt>0</asrwt>
<pdfrwt beam="1">  1        2 0.14212941E-02 0.80012112E+02</pdfrwt>
<pdfrwt beam="2">  1       -1 0.26652676E-01 0.80012112E+02</pdfrwt>
<totfact> 0.10378931E+05</totfact>
</mgrwt>
</event>
<event>
 8    1  0.1226832E-020  0.7920822E+02  0.7818608E-02  0.1331314E+00
          2   -1    0    0  501    0  0.00000000000E+00  0.00000000000E+00  0.45630590248E+02  0.45630590320E+02  0.25500000000E-02 0. -1.
         -1   -1    0    0    0  501 -0.00000000000E+00 -0.00000000000E+00 -0.34373552434E+02  0.34373552803E+02  0.50400000000E-02 0.  1.
         24    2    1    2    0    0 -0.35527136788E-14  0.17763568394E-14  0.11257037815E+02  0.80004143123E+02  0.79208219374E+02 0.  0.
         66    2    3    3    0    0 -0.27677740119E+02 -0.15479250944E+02  0.29551616765E+02  0.43393116220E+02  0.19999934733E+01 0.  0.
        -13    1    3    3    0    0  0.27677740119E+02  0.15479250944E+02 -0.18294578951E+02  0.36611026903E+02  0.10566000000E+00 0.  1.
         13    1    4    4    0    0 -0.10651772909E+02 -0.61332648756E+01  0.10373167109E+02  0.16083872794E+02  0.10566000000E+00 0. -1.
        -13    1    4    4    0    0 -0.91559189747E+01 -0.54675785314E+01  0.10274437677E+02  0.14808798091E+02  0.10566000000E+00 0.  1.
        -14    1    4    4    0    0 -0.78700482353E+01 -0.38784075372E+01  0.89040119786E+01  0.12500445335E+02  0.00000000000E+00 0.  1.
<mgrwt>
<rscale>  0 0.79208219E+02</rscale>
<asrwt>0</asrwt>
<pdfrwt beam="1">  1        2 0.70200908E-02 0.79208219E+02</pdfrwt>
<pdfrwt beam="2">  1       -1 0.52882389E-02 0.79208219E+02</pdfrwt>
<totfact> 0.15058215E+05</totfact>
</mgrwt>
</event>
<event>
 8    1  0.1226832E-020  0.7971315E+02  0.7818608E-02  0.1329867E+00
         -1   -1    0    0    0  501 -0.00000000000E+00  0.00000000000E+00  0.26292498339E+01  0.26292546645E+01  0.50400000000E-02 0.  1.
          2   -1    0    0  501    0  0.00000000000E+00 -0.00000000000E+00 -0.60418193429E+03  0.60418193429E+03  0.25500000000E-02 0. -1.
         24    2    1    2    0    0  0.00000000000E+00  0.00000000000E+00 -0.60155268445E+03  0.60681118896E+03  0.79713153686E+02 0.  0.
         66    2    3    3    0    0  0.22187107122E+02 -0.27093427021E+02 -0.44544512725E+03  0.44682399544E+03  0.19999995151E+01 0.  0.
        -13    1    3    3    0    0 -0.22187107122E+02  0.27093427021E+02 -0.15610755720E+03  0.15998719352E+03  0.10566000000E+00 0.  1.
         13    1    4    4    0    0  0.77163635885E+00 -0.63749650062E+00 -0.13546810385E+02  0.13584147382E+02  0.10566000000E+00 0.  1.
        -13    1    4    4    0    0  0.61257095942E+01 -0.65812962873E+01 -0.11520191759E+03  0.11555228582E+03  0.10566000000E+00 0. -1.
         14    1    4    4    0    0  0.15289761169E+02 -0.19874634233E+02 -0.31669639928E+03  0.31768756224E+03  0.00000000000E+00 0. -1.
<mgrwt>
<rscale>  0 0.79713154E+02</rscale>
<asrwt>0</asrwt>
<pdfrwt beam="1">  1        2 0.92950957E-01 0.79713154E+02</pdfrwt>
<pdfrwt beam="2">  1       -1 0.40450083E-03 0.79713154E+02</pdfrwt>
<totfact> 0.32528087E+05</totfact>
</mgrwt>
</event>
<event>
 8    1  0.1226832E-020  0.7975053E+02  0.7818608E-02  0.1329761E+00
         -1   -1    0    0    0  501 -0.00000000000E+00  0.00000000000E+00  0.33972582881E+01  0.33972620266E+01  0.50400000000E-02 0.  1.
          2   -1    0    0  501    0  0.00000000000E+00 -0.00000000000E+00 -0.46803500404E+03  0.46803500404E+03  0.25500000000E-02 0. -1.
         24    2    1    2    0    0 -0.44408920985E-15  0.00000000000E+00 -0.46463774575E+03  0.47143226607E+03  0.79750528009E+02 0.  0.
         66    2    3    3    0    0  0.30467181332E+01  0.24874985770E+02 -0.41561916337E+03  0.41637883756E+03  0.19999994467E+01 0.  0.
        -13    1    3    3    0    0 -0.30467181332E+01 -0.24874985770E+02 -0.49018582380E+02  0.55053428513E+02  0.10566000000E+00 0.  1.
         13    1    4    4    0    0  0.61473742551E+00  0.29209655272E+01 -0.55970939587E+02  0.56050577018E+02  0.10566000000E+00 0. -1.
        -13    1    4    4    0    0  0.44890727007E+00  0.27182775213E+01 -0.38826217126E+02  0.38923988115E+02  0.10566000000E+00 0.  1.
         14    1    4    4    0    0  0.19830734376E+01  0.19235742722E+02 -0.32082200666E+03  0.32140427242E+03  0.00000000000E+00 0. -1.
<mgrwt>
<rscale>  0 0.79750528E+02</rscale>
<asrwt>0</asrwt>
<pdfrwt beam="1">  1        2 0.72005334E-01 0.79750528E+02</pdfrwt>
<pdfrwt beam="2">  1       -1 0.52265578E-03 0.79750528E+02</pdfrwt>
<totfact> 0.30049433E+05</totfact>
</mgrwt>
</event>
<event>
 8    1  0.1226832E-020  0.8196406E+02  0.7818608E-02  0.1323568E+00
          2   -1    0    0  501    0  0.00000000000E+00  0.00000000000E+00  0.61629439366E+01  0.61629444642E+01  0.25500000000E-02 0. -1.
         -1   -1    0    0    0  501 -0.00000000000E+00 -0.00000000000E+00 -0.27252019509E+03  0.27252019514E+03  0.50400000000E-02 0.  1.
         24    2    1    2    0    0 -0.35527136788E-14  0.00000000000E+00 -0.26635725115E+03  0.27868313960E+03  0.81964059537E+02 0.  0.
         66    2    3    3    0    0 -0.25826454064E+02  0.19871045251E+02 -0.21762164056E+03  0.22005690765E+03  0.19999988005E+01 0.  0.
        -13    1    3    3    0    0  0.25826454064E+02 -0.19871045251E+02 -0.48735610594E+02  0.58626231953E+02  0.10566000000E+00 0.  1.
         13    1    4    4    0    0 -0.19171569629E+02  0.14942055512E+02 -0.15953982543E+03  0.16138085750E+03  0.10566000000E+00 0. -1.
        -13    1    4    4    0    0 -0.21288064229E+01  0.12356570029E+01 -0.15258698064E+02  0.15456315721E+02  0.10566000000E+00 0.  1.
         14    1    4    4    0    0 -0.45260780124E+01  0.36933327363E+01 -0.42823117063E+02  0.43219734426E+02  0.00000000000E+00 0. -1.
<mgrwt>
<rscale>  0 0.81964060E+02</rscale>
<asrwt>0</asrwt>
<pdfrwt beam="1">  1        2 0.94814547E-03 0.81964060E+02</pdfrwt>
<pdfrwt beam="2">  1       -1 0.41926175E-01 0.81964060E+02</pdfrwt>
<totfact> 0.84334274E+04</totfact>
</mgrwt>
</event>
<event>
 8    1  0.1226832E-020  0.8023922E+02  0.7818608E-02  0.1328374E+00
         -1   -1    0    0    0  501 -0.00000000000E+00  0.00000000000E+00  0.10176451286E+02  0.10176452534E+02  0.50400000000E-02 0.  1.
          2   -1    0    0  501    0  0.00000000000E+00 -0.00000000000E+00 -0.15816740505E+03  0.15816740507E+03  0.25500000000E-02 0. -1.
         24    2    1    2    0    0  0.00000000000E+00  0.00000000000E+00 -0.14799095377E+03  0.16834385761E+03  0.80239217326E+02 0.  0.
         66    2    3    3    0    0  0.10279240921E+02 -0.36161457632E+02 -0.10328331591E+03  0.10993069249E+03  0.19999985714E+01 0.  0.
        -13    1    3    3    0    0 -0.10279240921E+02  0.36161457632E+02 -0.44707637856E+02  0.58413165114E+02  0.10566000000E+00 0.  1.
         13    1    4    4    0    0  0.42403691135E+01 -0.15657551848E+02 -0.42052992283E+02  0.45073328966E+02  0.10566000000E+00 0. -1.
        -13    1    4    4    0    0  0.42454537569E+00 -0.16566709640E+01 -0.53398424726E+01  0.56080191803E+01  0.10566000000E+00 0. -1.
        -14    1    4    4    0    0  0.56143264322E+01 -0.18847234820E+02 -0.55890481157E+02  0.59249344347E+02  0.00000000000E+00 0.  1.
<mgrwt>
<rscale>  0 0.80239217E+02</rscale>
<asrwt>0</asrwt>
<pdfrwt beam="1">  1        2 0.24333445E-01 0.80239217E+02</pdfrwt>
<pdfrwt beam="2">  1       -1 0.15656081E-02 0.80239217E+02</pdfrwt>
<totfact> 0.20217145E+05</totfact>
</mgrwt>
</event>
<event>
 8    1  0.1226832E-020  0.7966959E+02  0.7818608E-02  0.1329992E+00
         -1   -1    0    0    0  501 -0.00000000000E+00  0.00000000000E+00  0.15459779845E+02  0.15459780667E+02  0.50400000000E-02 0.  1.
          2   -1    0    0  501    0  0.00000000000E+00 -0.00000000000E+00 -0.10264122596E+03  0.10264122599E+03  0.25500000000E-02 0. -1.
         24    2    1    2    0    0 -0.35527136788E-14  0.00000000000E+00 -0.87181446114E+02  0.11810100666E+03  0.79669587843E+02 0.  0.
         66    2    3    3    0    0  0.30486536347E+02  0.12766730089E+02 -0.76511956094E+02  0.83369645082E+02  0.20000000540E+01 0.  0.
        -13    1    3    3    0    0 -0.30486536347E+02 -0.12766730089E+02 -0.10669490021E+02  0.34731361576E+02  0.10566000000E+00 0.  1.
         13    1    4    4    0    0  0.19966450632E+02  0.86885145346E+01 -0.51288784030E+02  0.55719834592E+02  0.10566000000E+00 0. -1.
        -13    1    4    4    0    0  0.64551986516E+01  0.23367857109E+01 -0.16441780563E+02  0.17817785193E+02  0.10566000000E+00 0.  1.
         14    1    4    4    0    0  0.40648870633E+01  0.17414298437E+01 -0.87813915010E+01  0.98320252965E+01  0.00000000000E+00 0. -1.
<mgrwt>
<rscale>  0 0.79669588E+02</rscale>
<asrwt>0</asrwt>
<pdfrwt beam="1">  1        2 0.15790957E-01 0.79669588E+02</pdfrwt>
<pdfrwt beam="2">  1       -1 0.23784278E-02 0.79669588E+02</pdfrwt>
<totfact> 0.18055194E+05</totfact>
</mgrwt>
</event>
<event>
 8    1  0.1226832E-020  0.7872888E+02  0.7818608E-02  0.1332698E+00
         -1   -1    0    0    0  501 -0.00000000000E+00  0.00000000000E+00  0.12227405196E+03  0.12227405207E+03  0.50400000000E-02 0.  1.
          2   -1    0    0  501    0  0.00000000000E+00 -0.00000000000E+00 -0.12672835402E+02  0.12672835658E+02  0.25500000000E-02 0. -1.
         24    2    1    2    0    0  0.00000000000E+00  0.00000000000E+00  0.10960121656E+03  0.13494688772E+03  0.78728875483E+02 0.  0.
         66    2    3    3    0    0 -0.99269931425E+01  0.36015344446E+02  0.75961673154E+02  0.84674825174E+02  0.20000003741E+01 0.  0.
        -13    1    3    3    0    0  0.99269931425E+01 -0.36015344446E+02  0.33639543407E+02  0.50272062551E+02  0.10566000000E+00 0.  1.
         13    1    4    4    0    0 -0.13291209827E+01  0.57889846185E+01  0.12742621895E+02  0.14059320122E+02  0.10566000000E+00 0. -1.
        -13    1    4    4    0    0 -0.82544184911E+01  0.29739615081E+02  0.62147110922E+02  0.69389153978E+02  0.10566000000E+00 0.  1.
        -14    1    4    4    0    0 -0.34345366871E+00  0.48674474611E+00  0.10719403370E+01  0.12263510739E+01  0.00000000000E+00 0.  1.
<mgrwt>
<rscale>  0 0.78728875E+02</rscale>
<asrwt>0</asrwt>
<pdfrwt beam="1">  1        2 0.19496669E-02 0.78728875E+02</pdfrwt>
<pdfrwt beam="2">  1       -1 0.18811394E-01 0.78728875E+02</pdfrwt>
<totfact> 0.11800609E+05</totfact>
</mgrwt>
</event>
<event>
 8    1  0.1226832E-020  0.7739932E+02  0.7818608E-02  0.1336598E+00
          2   -1    0    0  501    0  0.00000000000E+00  0.00000000000E+00  0.25188525381E+03  0.25188525383E+03  0.25500000000E-02 0. -1.
         -1   -1    0    0    0  501 -0.00000000000E+00 -0.00000000000E+00 -0.59458165812E+01  0.59458187173E+01  0.50400000000E-02 0.  1.
         24    2    1    2    0    0 -0.88817841970E-15  0.35527136788E-14  0.24593943723E+03  0.25783107254E+03  0.77399322884E+02 0.  0.
         66    2    3    3    0    0  0.73589355489E+01 -0.27916028269E+02  0.20877369356E+03  0.21076981211E+03  0.20000020426E+01 0.  0.
        -13    1    3    3    0    0 -0.73589355489E+01  0.27916028269E+02  0.37165743673E+02  0.47061260433E+02  0.10566000000E+00 0.  1.
         13    1    4    4    0    0  0.59673006622E+01 -0.19569681947E+02  0.14831917834E+03  0.14972364862E+03  0.10566000000E+00 0. -1.
        -13    1    4    4    0    0  0.51609857397E+00 -0.20204525268E+01  0.14069273586E+02  0.14223368427E+02  0.10566000000E+00 0.  1.
         14    1    4    4    0    0  0.87553631266E+00 -0.63258937957E+01  0.46385241638E+02  0.46822795068E+02  0.00000000000E+00 0. -1.
<mgrwt>
<rscale>  0 0.77399323E+02</rscale>
<asrwt>0</asrwt>
<pdfrwt beam="1">  1        2 0.38751581E-01 0.77399323E+02</pdfrwt>
<pdfrwt beam="2">  1       -1 0.91474111E-03 0.77399323E+02</pdfrwt>
<totfact> 0.26100920E+05</totfact>
</mgrwt>
</event>
<event>
 8    1  0.1226832E-020  0.7908404E+02  0.7818608E-02  0.1331671E+00
          2   -1    0    0  501    0  0.00000000000E+00  0.00000000000E+00  0.35622350874E+03  0.35622350875E+03  0.25500000000E-02 0. -1.
         -1   -1    0    0    0  501 -0.00000000000E+00 -0.00000000000E+00 -0.43892973784E+01  0.43893002719E+01  0.50400000000E-02 0.  1.
         24    2    1    2    0    0  0.00000000000E+00  0.00000000000E+00  0.35183421136E+03  0.36061280902E+03  0.79084042294E+02 0.  0.
         66    2    3    3    0    0  0.10965908785E+02  0.18786168766E+02  0.32646316086E+03  0.32719316420E+03  0.20000017735E+01 0.  0.
        -13    1    3    3    0    0 -0.10965908785E+02 -0.18786168766E+02  0.25371050497E+02  0.33419644818E+02  0.10566000000E+00 0.  1.
         13    1    4    4    0    0  0.45291847113E+01  0.77914111026E+01  0.12505357021E+03  0.12537793341E+03  0.10566000000E+00 0. -1.
        -13    1    4    4    0    0  0.30882714773E+01  0.45185029232E+01  0.92603756196E+02  0.92765409043E+02  0.10566000000E+00 0.  1.
         14    1    4    4    0    0  0.33484525962E+01  0.64762547407E+01  0.10880583446E+03  0.10904982174E+03  0.00000000000E+00 0. -1.
<mgrwt>
<rscale>  0 0.79084042E+02</rscale>
<asrwt>0</asrwt>
<pdfrwt beam="1">  1        2 0.54803612E-01 0.79084042E+02</pdfrwt>
<pdfrwt beam="2">  1       -1 0.67527681E-03 0.79084042E+02</pdfrwt>
<totfact> 0.27948383E+05</totfact>
</mgrwt>
</event>
<event>
 8    1  0.1226832E-020  0.7906934E+02  0.7818608E-02  0.1331713E+00
         -1   -1    0    0    0  501 -0.00000000000E+00  0.00000000000E+00  0.15347605281E+01  0.15347688035E+01  0.50400000000E-02 0.  1.
          2   -1    0    0  501    0  0.00000000000E+00 -0.00000000000E+00 -0.10183907875E+04  0.10183907875E+04  0.25500000000E-02 0. -1.
         24    2    1    2    0    0  0.00000000000E+00  0.35527136788E-14 -0.10168560270E+04  0.10199255563E+04  0.79069341837E+02 0.  0.
         66    2    3    3    0    0 -0.77373195006E+01  0.28893232362E+02 -0.84171491383E+03  0.84224858631E+03  0.19999986591E+01 0.  0.
        -13    1    3    3    0    0  0.77373195006E+01 -0.28893232362E+02 -0.17514111318E+03  0.17767697003E+03  0.10566000000E+00 0.  1.
         13    1    4    4    0    0 -0.45698014916E+01  0.17431460677E+02 -0.48996674180E+03  0.49029802991E+03  0.10566000000E+00 0. -1.
        -13    1    4    4    0    0 -0.96257406387E-01  0.88919251674E+00 -0.21304655597E+02  0.21323682678E+02  0.10566000000E+00 0. -1.
        -14    1    4    4    0    0 -0.30712606027E+01  0.10572579168E+02 -0.33044351644E+03  0.33062687372E+03  0.00000000000E+00 0.  1.
<mgrwt>
<rscale>  0 0.79069342E+02</rscale>
<asrwt>0</asrwt>
<pdfrwt beam="1">  1        2 0.15667497E+00 0.79069342E+02</pdfrwt>
<pdfrwt beam="2">  1       -1 0.23611845E-03 0.79069342E+02</pdfrwt>
<totfact> 0.36340620E+05</totfact>
</mgrwt>
</event>
<event>
 8    1  0.1226832E-020  0.8054588E+02  0.7818608E-02  0.1327509E+00
          2   -1    0    0  501    0  0.00000000000E+00  0.00000000000E+00  0.73300147672E+02  0.73300147716E+02  0.25500000000E-02 0. -1.
         -1   -1    0    0    0  501 -0.00000000000E+00 -0.00000000000E+00 -0.22126964703E+02  0.22126965277E+02  0.50400000000E-02 0.  1.
         24    2    1    2    0    0  0.00000000000E+00  0.00000000000E+00  0.51173182969E+02  0.95427112993E+02  0.80545882818E+02 0.  0.
         66    2    3    3    0    0 -0.29530488926E+02 -0.27290625774E+02  0.27680478278E+02  0.48857311951E+02  0.20000054963E+01 0.  0.
        -13    1    3    3    0    0  0.29530488926E+02  0.27290625774E+02  0.23492704691E+02  0.46569801042E+02  0.10566000000E+00 0.  1.
         13    1    4    4    0    0 -0.33277280130E+01 -0.28995306707E+01  0.26433062282E+01  0.51458025312E+01  0.10566000000E+00 0. -1.
        -13    1    4    4    0    0 -0.53423294448E+01 -0.56009417876E+01  0.49081102176E+01  0.91657919870E+01  0.10566000000E+00 0.  1.
        -14    1    4    4    0    0 -0.20860431468E+02 -0.18790153316E+02  0.20129061833E+02  0.34545717433E+02  0.00000000000E+00 0.  1.
<mgrwt>
<rscale>  0 0.80545883E+02</rscale>
<asrwt>0</asrwt>
<pdfrwt beam="1">  1        2 0.11276946E-01 0.80545883E+02</pdfrwt>
<pdfrwt beam="2">  1       -1 0.34041485E-02 0.80545883E+02</pdfrwt>
<totfact> 0.16033207E+05</totfact>
</mgrwt>
</event>
<event>
 8    1  0.1226832E-020  0.8195185E+02  0.7818608E-02  0.1323602E+00
          2   -1    0    0  501    0  0.00000000000E+00  0.00000000000E+00  0.50630818251E+02  0.50630818316E+02  0.25500000000E-02 0. -1.
         -1   -1    0    0    0  501 -0.00000000000E+00 -0.00000000000E+00 -0.33162146185E+02  0.33162146568E+02  0.50400000000E-02 0.  1.
         24    2    1    2    0    0 -0.35527136788E-14  0.00000000000E+00  0.17468672067E+02  0.83792964883E+02  0.81951854526E+02 0.  0.
         66    2    3    3    0    0  0.21051188954E+02 -0.16980100431E+02  0.40180058939E+02  0.48475906332E+02  0.19999978500E+01 0.  0.
        -13    1    3    3    0    0 -0.21051188954E+02  0.16980100431E+02 -0.22711386872E+02  0.35317058551E+02  0.10566000000E+00 0.  1.
         13    1    4    4    0    0  0.77781803248E+01 -0.73318486065E+01  0.15876116451E+02  0.19139444369E+02  0.10566000000E+00 0. -1.
        -13    1    4    4    0    0  0.73943655775E+01 -0.58163872412E+01  0.13584313458E+02  0.16524277261E+02  0.10566000000E+00 0.  1.
        -14    1    4    4    0    0  0.58786430521E+01 -0.38318645828E+01  0.10719629030E+02  0.12812184702E+02  0.00000000000E+00 0.  1.
<mgrwt>
<rscale>  0 0.81951855E+02</rscale>
<asrwt>0</asrwt>
<pdfrwt beam="1">  1        2 0.77893567E-02 0.81951855E+02</pdfrwt>
<pdfrwt beam="2">  1       -1 0.51018687E-02 0.81951855E+02</pdfrwt>
<totfact> 0.14025314E+05</totfact>
</mgrwt>
</event>
<event>
 8    1  0.1226832E-020  0.8225454E+02  0.7818608E-02  0.1322772E+00
          2   -1    0    0  501    0  0.00000000000E+00  0.00000000000E+00  0.34091296470E+02  0.34091296565E+02  0.25500000000E-02 0. -1.
         -1   -1    0    0    0  501 -0.00000000000E+00 -0.00000000000E+00 -0.49615374028E+02  0.49615374284E+02  0.50400000000E-02 0.  1.
         24    2    1    2    0    0  0.00000000000E+00  0.00000000000E+00 -0.15524077558E+02  0.83706670849E+02  0.82254542492E+02 0.  0.
         66    2    3    3    0    0 -0.31434237387E+02  0.23746019689E+02  0.41648188021E+01  0.39665229738E+02  0.20000008387E+01 0.  0.
        -13    1    3    3    0    0  0.31434237387E+02 -0.23746019689E+02 -0.19688896360E+02  0.44041441111E+02  0.10566000000E+00 0.  1.
         13    1    4    4    0    0 -0.16673964418E+02  0.12545763011E+02  0.12874168130E+01  0.20906598600E+02  0.10566000000E+00 0. -1.
        -13    1    4    4    0    0 -0.11122860924E+02  0.84496347101E+01  0.19378192400E+01  0.14102505782E+02  0.10566000000E+00 0.  1.
         14    1    4    4    0    0 -0.36374120445E+01  0.27506219685E+01  0.93958274911E+00  0.46561253567E+01  0.00000000000E+00 0. -1.
<mgrwt>
<rscale>  0 0.82254542E+02</rscale>
<asrwt>0</asrwt>
<pdfrwt beam="1">  1        2 0.52448148E-02 0.82254542E+02</pdfrwt>
<pdfrwt beam="2">  1       -1 0.76331345E-02 0.82254542E+02</pdfrwt>
<totfact> 0.12770920E+05</totfact>
</mgrwt>
</event>
<event>
 8    1  0.1226832E-020  0.7981867E+02  0.7818608E-02  0.1329567E+00
         -1   -1    0    0    0  501 -0.00000000000E+00  0.00000000000E+00  0.11710204636E+01  0.11710313095E+01  0.50400000000E-02 0.  1.
          2   -1    0    0  501    0  0.00000000000E+00 -0.00000000000E+00 -0.13601364858E+04  0.13601364858E+04  0.25500000000E-02 0. -1.
         24    2    1    2    0    0  0.00000000000E+00  0.00000000000E+00 -0.13589654653E+04  0.13613075171E+04  0.79818670549E+02 0.  0.
         66    2    3    3    0    0 -0.18229599586E+02  0.19029359336E+01 -0.12840526771E+04  0.12841850400E+04  0.19999985000E+01 0.  0.
        -13    1    3    3    0    0  0.18229599586E+02 -0.19029359336E+01 -0.74912788198E+02  0.77122477047E+02  0.10566000000E+00 0.  1.
         13    1    4    4    0    0 -0.31608782443E+01  0.68079757449E+00 -0.25233234335E+03  0.25235308063E+03  0.10566000000E+00 0. -1.
        -13    1    4    4    0    0 -0.16324751650E+01  0.51988275913E+00 -0.10782844041E+03  0.10784210207E+03  0.10566000000E+00 0.  1.
        -14    1    4    4    0    0 -0.13436246176E+02  0.70225560001E+00 -0.92389189336E+03  0.92398985735E+03  0.00000000000E+00 0.  1.
<mgrwt>
<rscale>  0 0.79818671E+02</rscale>
<asrwt>0</asrwt>
<pdfrwt beam="1">  1        2 0.20925050E+00 0.79818671E+02</pdfrwt>
<pdfrwt beam="2">  1       -1 0.18015892E-03 0.79818671E+02</pdfrwt>
<totfact> 0.34477158E+05</totfact>
</mgrwt>
</event>
<event>
 8    1  0.1226832E-020  0.8026377E+02  0.7818608E-02  0.1328305E+00
          2   -1    0    0  501    0  0.00000000000E+00  0.00000000000E+00  0.32357100256E+03  0.32357100257E+03  0.25500000000E-02 0. -1.
         -1   -1    0    0    0  501 -0.00000000000E+00 -0.00000000000E+00 -0.49774792867E+01  0.49774818384E+01  0.50400000000E-02 0.  1.
         24    2    1    2    0    0  0.00000000000E+00  0.00000000000E+00  0.31859352327E+03  0.32854848441E+03  0.80263774739E+02 0.  0.
         66    2    3    3    0    0  0.67172823155E+01 -0.31987997361E+02  0.25453492838E+03  0.25663277958E+03  0.19999835474E+01 0.  0.
        -13    1    3    3    0    0 -0.67172823155E+01  0.31987997361E+02  0.64058594898E+02  0.71915704830E+02  0.10566000000E+00 0.  1.
         13    1    4    4    0    0  0.36773755206E+00 -0.11221398904E+01  0.85586411211E+01  0.86403663532E+01  0.10566000000E+00 0. -1.
        -13    1    4    4    0    0 -0.41106268888E-01 -0.65886344928E+00  0.42554682740E+01  0.43076635241E+01  0.10566000000E+00 0.  1.
         14    1    4    4    0    0  0.63906510324E+01 -0.30206994021E+02  0.24172081898E+03  0.24368474970E+03  0.00000000000E+00 0. -1.
<mgrwt>
<rscale>  0 0.80263775E+02</rscale>
<asrwt>0</asrwt>
<pdfrwt beam="1">  1        2 0.49780164E-01 0.80263775E+02</pdfrwt>
<pdfrwt beam="2">  1       -1 0.76576610E-03 0.80263775E+02</pdfrwt>
<totfact> 0.25975913E+05</totfact>
</mgrwt>
</event>
<event>
 8    1  0.1226832E-020  0.8075834E+02  0.7818608E-02  0.1326913E+00
         -1   -1    0    0    0  501 -0.00000000000E+00  0.00000000000E+00  0.41010252992E+02  0.41010253302E+02  0.50400000000E-02 0.  1.
          2   -1    0    0  501    0  0.00000000000E+00 -0.00000000000E+00 -0.39757800645E+02  0.39757800727E+02  0.25500000000E-02 0. -1.
         24    2    1    2    0    0  0.00000000000E+00  0.00000000000E+00  0.12524523471E+01  0.80768054029E+02  0.80758342695E+02 0.  0.
         66    2    3    3    0    0 -0.26377558379E+02 -0.29414653248E+02 -0.75887011781E+01  0.40281333102E+02  0.19999997770E+01 0.  0.
        -13    1    3    3    0    0  0.26377558379E+02  0.29414653248E+02  0.88411535252E+01  0.40486720928E+02  0.10566000000E+00 0.  1.
         13    1    4    4    0    0 -0.14158105256E+02 -0.17220615573E+02 -0.42932753397E+01  0.22703412130E+02  0.10566000000E+00 0. -1.
        -13    1    4    4    0    0 -0.43567883840E+01 -0.42696597977E+01 -0.12924560347E+01  0.62364418099E+01  0.10566000000E+00 0.  1.
         14    1    4    4    0    0 -0.78626647390E+01 -0.79243778774E+01 -0.20029698036E+01  0.11341479162E+02  0.00000000000E+00 0. -1.
<mgrwt>
<rscale>  0 0.80758343E+02</rscale>
<asrwt>0</asrwt>
<pdfrwt beam="1">  1        2 0.61165847E-02 0.80758343E+02</pdfrwt>
<pdfrwt beam="2">  1       -1 0.63092698E-02 0.80758343E+02</pdfrwt>
<totfact> 0.13870548E+05</totfact>
</mgrwt>
</event>
<event>
 8    1  0.1226832E-020  0.8376635E+02  0.7818608E-02  0.1318691E+00
         -1   -1    0    0    0  501 -0.00000000000E+00  0.00000000000E+00  0.15850219700E+01  0.15850299830E+01  0.50400000000E-02 0.  1.
          2   -1    0    0  501    0  0.00000000000E+00 -0.00000000000E+00 -0.11067329456E+04  0.11067329456E+04  0.25500000000E-02 0. -1.
         24    2    1    2    0    0  0.44408920985E-15 -0.35527136788E-14 -0.11051479236E+04  0.11083179756E+04  0.83766353049E+02 0.  0.
         66    2    3    3    0    0 -0.33146547584E+01  0.19561383026E+02 -0.10405673715E+04  0.10407584202E+04  0.20000034803E+01 0.  0.
        -13    1    3    3    0    0  0.33146547584E+01 -0.19561383026E+02 -0.64580552144E+02  0.67559555366E+02  0.10566000000E+00 0.  1.
         13    1    4    4    0    0 -0.14648612155E+01  0.10110719468E+02 -0.55397399211E+03  0.55406819757E+03  0.10566000000E+00 0. -1.
        -13    1    4    4    0    0  0.12142346391E+00  0.43730865823E+00 -0.30177903266E+02  0.30181500826E+02  0.10566000000E+00 0.  1.
        -14    1    4    4    0    0 -0.19712170068E+01  0.90133549005E+01 -0.45641547612E+03  0.45650872183E+03  0.00000000000E+00 0.  1.
<mgrwt>
<rscale>  0 0.83766353E+02</rscale>
<asrwt>0</asrwt>
<pdfrwt beam="1">  1        2 0.17026599E+00 0.83766353E+02</pdfrwt>
<pdfrwt beam="2">  1       -1 0.24385104E-03 0.83766353E+02</pdfrwt>
<totfact> 0.31267883E+05</totfact>
</mgrwt>
</event>
<event>
 8    1  0.1226832E-020  0.7887805E+02  0.7818608E-02  0.1332266E+00
          2   -1    0    0  501    0  0.00000000000E+00  0.00000000000E+00  0.12173017535E+03  0.12173017538E+03  0.25500000000E-02 0. -1.
         -1   -1    0    0    0  501 -0.00000000000E+00 -0.00000000000E+00 -0.12777740132E+02  0.12777741126E+02  0.50400000000E-02 0.  1.
         24    2    1    2    0    0 -0.71054273576E-14  0.88817841970E-15  0.10895243522E+03  0.13450791650E+03  0.78878048037E+02 0.  0.
         66    2    3    3    0    0 -0.32402182641E+02  0.59589195944E+01  0.91402497056E+02  0.97179352961E+02  0.20000027610E+01 0.  0.
        -13    1    3    3    0    0  0.32402182641E+02 -0.59589195944E+01  0.17549938162E+02  0.37328563543E+02  0.10566000000E+00 0.  1.
         13    1    4    4    0    0 -0.25250272523E+02  0.41172554130E+01  0.70998174839E+02  0.75467079241E+02  0.10566000000E+00 0. -1.
        -13    1    4    4    0    0 -0.69310588406E+01  0.18464437723E+01  0.19396599352E+02  0.20680622856E+02  0.10566000000E+00 0.  1.
        -14    1    4    4    0    0 -0.22085127754E+00 -0.47795908760E-02  0.10077228656E+01  0.10316508640E+01  0.00000000000E+00 0.  1.
<mgrwt>
<rscale>  0 0.78878048E+02</rscale>
<asrwt>0</asrwt>
<pdfrwt beam="1">  1        2 0.18727719E-01 0.78878048E+02</pdfrwt>
<pdfrwt beam="2">  1       -1 0.19658063E-02 0.78878048E+02</pdfrwt>
<totfact> 0.19486378E+05</totfact>
</mgrwt>
</event>
<event>
 8    1  0.1226832E-020  0.7867557E+02  0.7818608E-02  0.1332853E+00
          2   -1    0    0  501    0  0.00000000000E+00  0.00000000000E+00  0.47827252224E+02  0.47827252292E+02  0.25500000000E-02 0. -1.
         -1   -1    0    0    0  501 -0.00000000000E+00 -0.00000000000E+00 -0.32355222609E+02  0.32355223001E+02  0.50400000000E-02 0.  1.
         24    2    1    2    0    0  0.00000000000E+00  0.00000000000E+00  0.15472029615E+02  0.80182475294E+02  0.78675572091E+02 0.  0.
         66    2    3    3    0    0 -0.59317215987E+01  0.18392135505E+02  0.42631199170E+02  0.46849494262E+02  0.20000001040E+01 0.  0.
        -13    1    3    3    0    0  0.59317215987E+01 -0.18392135505E+02 -0.27159169554E+02  0.33332981032E+02  0.10566000000E+00 0.  1.
         13    1    4    4    0    0 -0.74145195993E+00  0.39417979745E+01  0.86324709317E+01  0.95193613600E+01  0.10566000000E+00 0. -1.
        -13    1    4    4    0    0 -0.68914973781E+00  0.15513830025E+01  0.28830721470E+01  0.33473848930E+01  0.10566000000E+00 0.  1.
         14    1    4    4    0    0 -0.45011199010E+01  0.12898954528E+02  0.31115656091E+02  0.33982748009E+02  0.00000000000E+00 0. -1.
<mgrwt>
<rscale>  0 0.78675572E+02</rscale>
<asrwt>0</asrwt>
<pdfrwt beam="1">  1        2 0.73580388E-02 0.78675572E+02</pdfrwt>
<pdfrwt beam="2">  1       -1 0.49777266E-02 0.78675572E+02</pdfrwt>
<totfact> 0.15492994E+05</totfact>
</mgrwt>
</event>
<event>
 8    1  0.1226832E-020  0.7962356E+02  0.7818608E-02  0.1330123E+00
          2   -1    0    0  501    0  0.00000000000E+00  0.00000000000E+00  0.39579115577E+02  0.39579115660E+02  0.25500000000E-02 0. -1.
         -1   -1    0    0    0  501 -0.00000000000E+00 -0.00000000000E+00 -0.40045809902E+02  0.40045810219E+02  0.50400000000E-02 0.  1.
         24    2    1    2    0    0  0.35527136788E-14 -0.88817841970E-15 -0.46669432485E+00  0.79624925879E+02  0.79623558182E+02 0.  0.
         66    2    3    3    0    0  0.31805970691E+02 -0.75285994301E+01  0.22453306174E+02  0.39704540512E+02  0.19999995339E+01 0.  0.
        -13    1    3    3    0    0 -0.31805970691E+02  0.75285994301E+01 -0.22920000498E+02  0.39920385367E+02  0.10566000000E+00 0.  1.
         13    1    4    4    0    0  0.11101564291E+02 -0.27543231173E+01  0.81139441619E+01  0.14024203344E+02  0.10566000000E+00 0. -1.
        -13    1    4    4    0    0  0.64501998735E+01 -0.13887345861E+01  0.53162229296E+01  0.84739042024E+01  0.10566000000E+00 0.  1.
        -14    1    4    4    0    0  0.14254206527E+02 -0.33855417268E+01  0.90231390821E+01  0.17206432965E+02  0.00000000000E+00 0.  1.
<mgrwt>
<rscale>  0 0.79623558E+02</rscale>
<asrwt>0</asrwt>
<pdfrwt beam="1">  1        2 0.60890947E-02 0.79623558E+02</pdfrwt>
<pdfrwt beam="2">  1       -1 0.61608938E-02 0.79623558E+02</pdfrwt>
<totfact> 0.14411032E+05</totfact>
</mgrwt>
</event>
<event>
 8    1  0.1226832E-020  0.8229583E+02  0.7818608E-02  0.1322660E+00
         -1   -1    0    0    0  501 -0.00000000000E+00  0.00000000000E+00  0.90140208313E+02  0.90140208453E+02  0.50400000000E-02 0.  1.
          2   -1    0    0  501    0  0.00000000000E+00 -0.00000000000E+00 -0.18783525122E+02  0.18783525295E+02  0.25500000000E-02 0. -1.
         24    2    1    2    0    0  0.00000000000E+00  0.00000000000E+00  0.71356683190E+02  0.10892373375E+03  0.82295829407E+02 0.  0.
         66    2    3    3    0    0  0.23581203538E+02  0.13521487758E+02 -0.51437152232E+01  0.27737368434E+02  0.20000024652E+01 0.  0.
        -13    1    3    3    0    0 -0.23581203538E+02 -0.13521487758E+02  0.76500398414E+02  0.81186365314E+02  0.10566000000E+00 0.  1.
         13    1    4    4    0    0  0.64228525770E+01  0.36007449424E+01 -0.74758292674E+00  0.74019216177E+01  0.10566000000E+00 0. -1.
        -13    1    4    4    0    0  0.14530067213E+02  0.78997081918E+01 -0.36422163930E+01  0.16935322466E+02  0.10566000000E+00 0.  1.
        -14    1    4    4    0    0  0.26282837482E+01  0.20210346240E+01 -0.75391590343E+00  0.34001243509E+01  0.00000000000E+00 0.  1.
<mgrwt>
<rscale>  0 0.82295829E+02</rscale>
<asrwt>0</asrwt>
<pdfrwt beam="1">  1        2 0.28897731E-02 0.82295829E+02</pdfrwt>
<pdfrwt beam="2">  1       -1 0.13867725E-01 0.82295829E+02</pdfrwt>
<totfact> 0.11294309E+05</totfact>
</mgrwt>
</event>
<event>
 8    1  0.1226832E-020  0.7626311E+02  0.7818608E-02  0.1340004E+00
         -1   -1    0    0    0  501 -0.00000000000E+00  0.00000000000E+00  0.23022538575E+02  0.23022539127E+02  0.50400000000E-02 0.  1.
          2   -1    0    0  501    0  0.00000000000E+00 -0.00000000000E+00 -0.63156182226E+02  0.63156182277E+02  0.25500000000E-02 0. -1.
         24    2    1    2    0    0 -0.35527136788E-14  0.35527136788E-14 -0.40133643650E+02  0.86178721404E+02  0.76263114742E+02 0.  0.
         66    2    3    3    0    0 -0.21752640287E+02  0.27779298569E+02 -0.36344370855E+02  0.50692998349E+02  0.20000000735E+01 0.  0.
        -13    1    3    3    0    0  0.21752640287E+02 -0.27779298569E+02 -0.37892727954E+01  0.35485723056E+02  0.10566000000E+00 0.  1.
         13    1    4    4    0    0 -0.13469632395E+02  0.16467326977E+02 -0.21145301493E+02  0.29995646249E+02  0.10566000000E+00 0. -1.
        -13    1    4    4    0    0 -0.68962293981E+01  0.98702420842E+01 -0.12797348827E+02  0.17571652163E+02  0.10566000000E+00 0.  1.
        -14    1    4    4    0    0 -0.13867784932E+01  0.14417295079E+01 -0.24017205352E+01  0.31256999364E+01  0.00000000000E+00 0.  1.
<mgrwt>
<rscale>  0 0.76263115E+02</rscale>
<asrwt>0</asrwt>
<pdfrwt beam="1">  1        2 0.97163357E-02 0.76263115E+02</pdfrwt>
<pdfrwt beam="2">  1       -1 0.35419291E-02 0.76263115E+02</pdfrwt>
<totfact> 0.17931530E+05</totfact>
</mgrwt>
</event>
<event>
 8    1  0.1226832E-020  0.8275873E+02  0.7818608E-02  0.1321400E+00
         -1   -1    0    0    0  501 -0.00000000000E+00  0.00000000000E+00  0.39654284632E+01  0.39654316661E+01  0.50400000000E-02 0.  1.
          2   -1    0    0  501    0  0.00000000000E+00 -0.00000000000E+00 -0.43179473645E+03  0.43179473646E+03  0.25500000000E-02 0. -1.
         24    2    1    2    0    0  0.00000000000E+00  0.00000000000E+00 -0.42782930799E+03  0.43576016812E+03  0.82758729755E+02 0.  0.
         66    2    3    3    0    0 -0.13652605528E+02 -0.39030432877E+02 -0.21768156617E+03  0.22158301508E+03  0.19999990822E+01 0.  0.
        -13    1    3    3    0    0  0.13652605528E+02  0.39030432877E+02 -0.21014774182E+03  0.21417715304E+03  0.10566000000E+00 0.  1.
         13    1    4    4    0    0 -0.62445055574E+01 -0.17057660489E+02 -0.94608426943E+02  0.96336510440E+02  0.10566000000E+00 0. -1.
        -13    1    4    4    0    0 -0.27400521926E+01 -0.67267947526E+01 -0.41115257138E+02  0.41752044109E+02  0.10566000000E+00 0.  1.
        -14    1    4    4    0    0 -0.46680477785E+01 -0.15245977636E+02 -0.81957882086E+02  0.83494460535E+02  0.00000000000E+00 0.  1.
<mgrwt>
<rscale>  0 0.82758730E+02</rscale>
<asrwt>0</asrwt>
<pdfrwt beam="1">  1        2 0.66429922E-01 0.82758730E+02</pdfrwt>
<pdfrwt beam="2">  1       -1 0.61006651E-03 0.82758730E+02</pdfrwt>
<totfact> 0.26549555E+05</totfact>
</mgrwt>
</event>
<event>
 8    1  0.1226832E-020  0.7913866E+02  0.7818608E-02  0.1331514E+00
         -1   -1    0    0    0  501 -0.00000000000E+00  0.00000000000E+00  0.10245642620E+01  0.10245766582E+01  0.50400000000E-02 0.  1.
          2   -1    0    0  501    0  0.00000000000E+00 -0.00000000000E+00 -0.15281835634E+04  0.15281835634E+04  0.25500000000E-02 0. -1.
         24    2    1    2    0    0  0.00000000000E+00  0.00000000000E+00 -0.15271589992E+04  0.15292081401E+04  0.79138656665E+02 0.  0.
         66    2    3    3    0    0 -0.89338078773E+01  0.12616931469E+02 -0.14673666137E+04  0.14674494127E+04  0.20000003162E+01 0.  0.
        -13    1    3    3    0    0  0.89338078773E+01 -0.12616931469E+02 -0.59792385516E+02  0.61758727421E+02  0.10566000000E+00 0.  1.
         13    1    4    4    0    0 -0.36313881575E+01  0.60583147566E+01 -0.66134248182E+03  0.66138020803E+03  0.10566000000E+00 0. -1.
        -13    1    4    4    0    0 -0.29628818999E+00  0.60116090945E+00 -0.96994771396E+02  0.96997144409E+02  0.10566000000E+00 0.  1.
        -14    1    4    4    0    0 -0.50061315298E+01  0.59574558031E+01 -0.70902936044E+03  0.70907206023E+03  0.00000000000E+00 0.  1.
<mgrwt>
<rscale>  0 0.79138657E+02</rscale>
<asrwt>0</asrwt>
<pdfrwt beam="1">  1        2 0.23510334E+00 0.79138657E+02</pdfrwt>
<pdfrwt beam="2">  1       -1 0.15762745E-03 0.79138657E+02</pdfrwt>
<totfact> 0.33952864E+05</totfact>
</mgrwt>
</event>
<event>
 8    1  0.1226832E-020  0.7507168E+02  0.7818608E-02  0.1343649E+00
          2   -1    0    0  501    0  0.00000000000E+00  0.00000000000E+00  0.24004824445E+03  0.24004824446E+03  0.25500000000E-02 0. -1.
         -1   -1    0    0    0  501 -0.00000000000E+00 -0.00000000000E+00 -0.58693992385E+01  0.58694014024E+01  0.50400000000E-02 0.  1.
         24    2    1    2    0    0  0.00000000000E+00 -0.17763568394E-14  0.23417884521E+03  0.24591764586E+03  0.75071679104E+02 0.  0.
         66    2    3    3    0    0  0.17928261243E+02 -0.92098405510E+01  0.22079704306E+03  0.22172410319E+03  0.19999996986E+01 0.  0.
        -13    1    3    3    0    0 -0.17928261243E+02  0.92098405510E+01  0.13381802151E+02  0.24193542672E+02  0.10566000000E+00 0.  1.
         13    1    4    4    0    0  0.10125273591E+02 -0.57693016754E+01  0.13285983356E+03  0.13336998367E+03  0.10566000000E+00 0. -1.
        -13    1    4    4    0    0  0.39950904425E+01 -0.13264083554E+01  0.41467540502E+02  0.41680789173E+02  0.10566000000E+00 0.  1.
        -14    1    4    4    0    0  0.38078972099E+01 -0.21141305202E+01  0.46469668994E+02  0.46673330344E+02  0.00000000000E+00 0.  1.
<mgrwt>
<rscale>  0 0.75071679E+02</rscale>
<asrwt>0</asrwt>
<pdfrwt beam="1">  1        2 0.36930489E-01 0.75071679E+02</pdfrwt>
<pdfrwt beam="2">  1       -1 0.90298492E-03 0.75071679E+02</pdfrwt>
<totfact> 0.27791575E+05</totfact>
</mgrwt>
</event>
<event>
 8    1  0.1226832E-020  0.7931160E+02  0.7818608E-02  0.1331016E+00
          2   -1    0    0  501    0  0.00000000000E+00  0.00000000000E+00  0.46532969553E+02  0.46532969623E+02  0.25500000000E-02 0. -1.
         -1   -1    0    0    0  501 -0.00000000000E+00 -0.00000000000E+00 -0.33795018782E+02  0.33795019157E+02  0.50400000000E-02 0.  1.
         24    2    1    2    0    0  0.00000000000E+00  0.00000000000E+00  0.12737950772E+02  0.80327988781E+02  0.79311603134E+02 0.  0.
         66    2    3    3    0    0  0.18393544443E+02 -0.95149350301E+01  0.40595392156E+02  0.45616252000E+02  0.20000291046E+01 0.  0.
        -13    1    3    3    0    0 -0.18393544443E+02  0.95149350301E+01 -0.27857441384E+02  0.34711736781E+02  0.10566000000E+00 0.  1.
         13    1    4    4    0    0  0.45147510922E+01 -0.26003112899E+01  0.95914287887E+01  0.10915643200E+02  0.10566000000E+00 0. -1.
        -13    1    4    4    0    0  0.10466794992E+02 -0.49686699720E+01  0.21653578677E+02  0.24558707463E+02  0.10566000000E+00 0.  1.
        -14    1    4    4    0    0  0.34119983585E+01 -0.19459537682E+01  0.93503846904E+01  0.10141901337E+02  0.00000000000E+00 0.  1.
<mgrwt>
<rscale>  0 0.79311603E+02</rscale>
<asrwt>0</asrwt>
<pdfrwt beam="1">  1        2 0.71589184E-02 0.79311603E+02</pdfrwt>
<pdfrwt beam="2">  1       -1 0.51992337E-02 0.79311603E+02</pdfrwt>
<totfact> 0.15066720E+05</totfact>
</mgrwt>
</event>
<event>
 8    1  0.1226832E-020  0.7696606E+02  0.7818608E-02  0.1337889E+00
         -1   -1    0    0    0  501 -0.00000000000E+00  0.00000000000E+00  0.14674444354E+01  0.14674530905E+01  0.50400000000E-02 0.  1.
          2   -1    0    0  501    0  0.00000000000E+00 -0.00000000000E+00 -0.10091960111E+04  0.10091960111E+04  0.25500000000E-02 0. -1.
         24    2    1    2    0    0 -0.17763568394E-14  0.00000000000E+00 -0.10077285667E+04  0.10106634642E+04  0.76966056053E+02 0.  0.
         66    2    3    3    0    0  0.11863725038E+02 -0.12767649954E+02 -0.95435547896E+03  0.95451670550E+03  0.19999989728E+01 0.  0.
        -13    1    3    3    0    0 -0.11863725038E+02  0.12767649954E+02 -0.53373087742E+02  0.56146758733E+02  0.10566000000E+00 0.  1.
         13    1    4    4    0    0  0.80624037290E+01 -0.76160853747E+01 -0.58828448173E+03  0.58838902923E+03  0.10566000000E+00 0. -1.
        -13    1    4    4    0    0  0.16475300676E+01 -0.24291481181E+01 -0.14930960494E+03  0.14933848937E+03  0.10566000000E+00 0.  1.
         14    1    4    4    0    0  0.21537912410E+01 -0.27224164617E+01 -0.21676139229E+03  0.21678918690E+03  0.00000000000E+00 0. -1.
<mgrwt>
<rscale>  0 0.76966056E+02</rscale>
<asrwt>0</asrwt>
<pdfrwt beam="1">  1        2 0.15526037E+00 0.76966056E+02</pdfrwt>
<pdfrwt beam="2">  1       -1 0.22576216E-03 0.76966056E+02</pdfrwt>
<totfact> 0.38956966E+05</totfact>
</mgrwt>
</event>
<event>
 8    1  0.1226832E-020  0.7898773E+02  0.7818608E-02  0.1331949E+00
          2   -1    0    0  501    0  0.00000000000E+00  0.00000000000E+00  0.91315969611E+02  0.91315969647E+02  0.25500000000E-02 0. -1.
         -1   -1    0    0    0  501 -0.00000000000E+00 -0.00000000000E+00 -0.17080969158E+02  0.17080969902E+02  0.50400000000E-02 0.  1.
         24    2    1    2    0    0  0.88817841970E-15  0.00000000000E+00  0.74235000453E+02  0.10839693955E+03  0.78987728233E+02 0.  0.
         66    2    3    3    0    0 -0.51747594780E+01 -0.37293739131E+02  0.53388046874E+02  0.65359656275E+02  0.20000013277E+01 0.  0.
        -13    1    3    3    0    0  0.51747594780E+01  0.37293739131E+02  0.20846953579E+02  0.43037283274E+02  0.10566000000E+00 0.  1.
         13    1    4    4    0    0 -0.12822535532E+00 -0.49464937058E+01  0.71962222154E+01  0.87339006138E+01  0.10566000000E+00 0. -1.
        -13    1    4    4    0    0 -0.45950018566E+01 -0.29020203346E+02  0.40935821001E+02  0.50388876247E+02  0.10566000000E+00 0.  1.
        -14    1    4    4    0    0 -0.45153226606E+00 -0.33270420792E+01  0.52560036571E+01  0.62368794142E+01  0.00000000000E+00 0.  1.
<mgrwt>
<rscale>  0 0.78987728E+02</rscale>
<asrwt>0</asrwt>
<pdfrwt beam="1">  1        2 0.14048611E-01 0.78987728E+02</pdfrwt>
<pdfrwt beam="2">  1       -1 0.26278414E-02 0.78987728E+02</pdfrwt>
<totfact> 0.17889190E+05</totfact>
</mgrwt>
</event>
<event>
 8    1  0.1226832E-020  0.7915972E+02  0.7818608E-02  0.1331453E+00
          2   -1    0    0  501    0  0.00000000000E+00  0.00000000000E+00  0.56125761608E+02  0.56125761666E+02  0.25500000000E-02 0. -1.
         -1   -1    0    0    0  501 -0.00000000000E+00 -0.00000000000E+00 -0.27911696450E+02  0.27911696906E+02  0.50400000000E-02 0.  1.
         24    2    1    2    0    0  0.17763568394E-14 -0.71054273576E-14  0.28214065157E+02  0.84037458571E+02  0.79159718105E+02 0.  0.
         66    2    3    3    0    0 -0.10817149551E+02 -0.35498615165E+02  0.28648870360E+02  0.46924622212E+02  0.19999984631E+01 0.  0.
        -13    1    3    3    0    0  0.10817149551E+02  0.35498615165E+02 -0.43480520276E+00  0.37112836359E+02  0.10566000000E+00 0.  1.
         13    1    4    4    0    0 -0.55815979518E+01 -0.19417832414E+02  0.16424008485E+02  0.26037773909E+02  0.10566000000E+00 0. -1.
        -13    1    4    4    0    0 -0.10178237926E+01 -0.26603855705E+01  0.17115120573E+01  0.33247637833E+01  0.10566000000E+00 0.  1.
        -14    1    4    4    0    0 -0.42177278061E+01 -0.13420397180E+02  0.10513349817E+02  0.17562084520E+02  0.00000000000E+00 0.  1.
<mgrwt>
<rscale>  0 0.79159718E+02</rscale>
<asrwt>0</asrwt>
<pdfrwt beam="1">  1        2 0.86347325E-02 0.79159718E+02</pdfrwt>
<pdfrwt beam="2">  1       -1 0.42941072E-02 0.79159718E+02</pdfrwt>
<totfact> 0.15778337E+05</totfact>
</mgrwt>
</event>
<event>
 8    1  0.1226832E-020  0.8095894E+02  0.7818608E-02  0.1326352E+00
          2   -1    0    0  501    0  0.00000000000E+00  0.00000000000E+00  0.11195945869E+03  0.11195945872E+03  0.25500000000E-02 0. -1.
         -1   -1    0    0    0  501 -0.00000000000E+00 -0.00000000000E+00 -0.14635541291E+02  0.14635542159E+02  0.50400000000E-02 0.  1.
         24    2    1    2    0    0 -0.35527136788E-14  0.00000000000E+00  0.97323917403E+02  0.12659500088E+03  0.80958936194E+02 0.  0.
         66    2    3    3    0    0 -0.31976980669E+02 -0.59165800049E+01  0.86319429675E+02  0.92263628556E+02  0.20000007828E+01 0.  0.
        -13    1    3    3    0    0  0.31976980669E+02  0.59165800049E+01  0.11004487728E+02  0.34331372327E+02  0.10566000000E+00 0.  1.
         13    1    4    4    0    0 -0.13699118294E+02 -0.21192064460E+01  0.35221955696E+02  0.37851739789E+02  0.10566000000E+00 0.  1.
        -13    1    4    4    0    0 -0.29138733594E+01 -0.77706244012E+00  0.93322525644E+01  0.98079858254E+01  0.10566000000E+00 0. -1.
         14    1    4    4    0    0 -0.15363989015E+02 -0.30203111188E+01  0.41765221415E+02  0.44603902941E+02  0.00000000000E+00 0. -1.
<mgrwt>
<rscale>  0 0.80958936E+02</rscale>
<asrwt>0</asrwt>
<pdfrwt beam="1">  1        2 0.17224532E-01 0.80958936E+02</pdfrwt>
<pdfrwt beam="2">  1       -1 0.22516218E-02 0.80958936E+02</pdfrwt>
<totfact> 0.17733620E+05</totfact>
</mgrwt>
</event>
<event>
 8    1  0.1226832E-020  0.8298267E+02  0.7818608E-02  0.1320794E+00
          2   -1    0    0  501    0  0.00000000000E+00  0.00000000000E+00  0.65450585590E+02  0.65450585640E+02  0.25500000000E-02 0. -1.
         -1   -1    0    0    0  501 -0.00000000000E+00 -0.00000000000E+00 -0.26302756044E+02  0.26302756526E+02  0.50400000000E-02 0.  1.
         24    2    1    2    0    0  0.00000000000E+00  0.00000000000E+00  0.39147829547E+02  0.91753342167E+02  0.82982668314E+02 0.  0.
         66    2    3    3    0    0  0.28492154129E+02  0.29273945219E+02  0.27462807561E+02  0.49264312777E+02  0.19999996648E+01 0.  0.
        -13    1    3    3    0    0 -0.28492154129E+02 -0.29273945219E+02  0.11685021986E+02  0.42489029390E+02  0.10566000000E+00 0.  1.
         13    1    4    4    0    0  0.23778214764E+02  0.24639712717E+02  0.22682442035E+02  0.41073388962E+02  0.10566000000E+00 0. -1.
        -13    1    4    4    0    0  0.32963102182E+00  0.60270853163E+00  0.48523740093E+00  0.84766358628E+00  0.10566000000E+00 0. -1.
         14    1    4    4    0    0  0.43843083431E+01  0.40315239704E+01  0.42951281247E+01  0.73432602282E+01  0.00000000000E+00 0. -1.
<mgrwt>
<rscale>  0 0.82982668E+02</rscale>
<asrwt>0</asrwt>
<pdfrwt beam="1">  1        2 0.10069321E-01 0.82982668E+02</pdfrwt>
<pdfrwt beam="2">  1       -1 0.40465779E-02 0.82982668E+02</pdfrwt>
<totfact> 0.14381663E+05</totfact>
</mgrwt>
</event>
<event>
 8    1  0.1226832E-020  0.7565092E+02  0.7818608E-02  0.1341867E+00
         -1   -1    0    0    0  501 -0.00000000000E+00  0.00000000000E+00  0.23306292609E+01  0.23306347104E+01  0.50400000000E-02 0.  1.
          2   -1    0    0  501    0  0.00000000000E+00 -0.00000000000E+00 -0.61389583596E+03  0.61389583596E+03  0.25500000000E-02 0. -1.
         24    2    1    2    0    0  0.00000000000E+00  0.00000000000E+00 -0.61156520670E+03  0.61622647068E+03  0.75650916165E+02 0.  0.
         66    2    3    3    0    0  0.67530962977E+01 -0.24795605943E+02 -0.53178389783E+03  0.53240824597E+03  0.20000008538E+01 0.  0.
        -13    1    3    3    0    0 -0.67530962977E+01  0.24795605943E+02 -0.79781308871E+02  0.83818224706E+02  0.10566000000E+00 0.  1.
         13    1    4    4    0    0  0.22566913211E+01 -0.66015463335E+01 -0.13103333444E+03  0.13121897336E+03  0.10566000000E+00 0. -1.
        -13    1    4    4    0    0  0.25868894585E+01 -0.11591489831E+02 -0.24869975030E+03  0.24898319541E+03  0.10566000000E+00 0.  1.
        -14    1    4    4    0    0  0.19095155182E+01 -0.66025697789E+01 -0.15205081308E+03  0.15220607720E+03  0.00000000000E+00 0.  1.
<mgrwt>
<rscale>  0 0.75650916E+02</rscale>
<asrwt>0</asrwt>
<pdfrwt beam="1">  1        2 0.94445385E-01 0.75650916E+02</pdfrwt>
<pdfrwt beam="2">  1       -1 0.35855926E-03 0.75650916E+02</pdfrwt>
<totfact> 0.37418090E+05</totfact>
</mgrwt>
</event>
<event>
 8    1  0.1226832E-020  0.7894442E+02  0.7818608E-02  0.1332074E+00
         -1   -1    0    0    0  501 -0.00000000000E+00  0.00000000000E+00  0.60011294259E+01  0.60011315423E+01  0.50400000000E-02 0.  1.
          2   -1    0    0  501    0  0.00000000000E+00 -0.00000000000E+00 -0.25962695461E+03  0.25962695462E+03  0.25500000000E-02 0. -1.
         24    2    1    2    0    0  0.00000000000E+00 -0.35527136788E-14 -0.25362582518E+03  0.26562808616E+03  0.78944416897E+02 0.  0.
         66    2    3    3    0    0 -0.13635758714E+02  0.22151903187E+02 -0.22667514901E+03  0.22817156683E+03  0.19999997831E+01 0.  0.
        -13    1    3    3    0    0  0.13635758714E+02 -0.22151903187E+02 -0.26950676170E+02  0.37456519334E+02  0.10566000000E+00 0.  1.
         13    1    4    4    0    0 -0.10841323596E+01  0.11355042613E+01 -0.12788335911E+02  0.12884774438E+02  0.10566000000E+00 0. -1.
        -13    1    4    4    0    0 -0.10781789043E+00  0.23343342689E+00 -0.18457134800E+01  0.18665310467E+01  0.10566000000E+00 0. -1.
         14    1    4    4    0    0 -0.12443808464E+02  0.20782965499E+02 -0.21204109962E+03  0.21342026134E+03  0.00000000000E+00 0. -1.
<mgrwt>
<rscale>  0 0.78944417E+02</rscale>
<asrwt>0</asrwt>
<pdfrwt beam="1">  1        2 0.39942600E-01 0.78944417E+02</pdfrwt>
<pdfrwt beam="2">  1       -1 0.92325105E-03 0.78944417E+02</pdfrwt>
<totfact> 0.25053340E+05</totfact>
</mgrwt>
</event>
<event>
 8    1  0.1226832E-020  0.7785764E+02  0.7818608E-02  0.1335243E+00
         -1   -1    0    0    0  501 -0.00000000000E+00  0.00000000000E+00  0.64742078788E+01  0.64742098406E+01  0.50400000000E-02 0.  1.
          2   -1    0    0  501    0  0.00000000000E+00 -0.00000000000E+00 -0.23407537716E+03  0.23407537717E+03  0.25500000000E-02 0. -1.
         24    2    1    2    0    0  0.00000000000E+00  0.00000000000E+00 -0.22760116928E+03  0.24054958701E+03  0.77857636457E+02 0.  0.
         66    2    3    3    0    0 -0.13061868692E+02 -0.33630701087E+02 -0.15884083746E+03  0.16289888924E+03  0.19999999287E+01 0.  0.
        -13    1    3    3    0    0  0.13061868692E+02  0.33630701087E+02 -0.68760331815E+02  0.77650697773E+02  0.10566000000E+00 0.  1.
         13    1    4    4    0    0 -0.51102017565E+01 -0.12720163521E+02 -0.56526504578E+02  0.58165054851E+02  0.10566000000E+00 0. -1.
        -13    1    4    4    0    0 -0.35023185243E+01 -0.93202958187E+01 -0.47089012001E+02  0.48130243761E+02  0.10566000000E+00 0.  1.
        -14    1    4    4    0    0 -0.44493484111E+01 -0.11590241747E+02 -0.55225320884E+02  0.56603590626E+02  0.00000000000E+00 0.  1.
<mgrwt>
<rscale>  0 0.77857636E+02</rscale>
<asrwt>0</asrwt>
<pdfrwt beam="1">  1        2 0.36011590E-01 0.77857636E+02</pdfrwt>
<pdfrwt beam="2">  1       -1 0.99603232E-03 0.77857636E+02</pdfrwt>
<totfact> 0.25037950E+05</totfact>
</mgrwt>
</event>
<event>
 8    1  0.1226832E-020  0.8013257E+02  0.7818608E-02  0.1328676E+00
         -1   -1    0    0    0  501 -0.00000000000E+00  0.00000000000E+00  0.72273350314E+01  0.72273367887E+01  0.50400000000E-02 0.  1.
          2   -1    0    0  501    0  0.00000000000E+00 -0.00000000000E+00 -0.22211602696E+03  0.22211602697E+03  0.25500000000E-02 0. -1.
         24    2    1    2    0    0  0.00000000000E+00  0.00000000000E+00 -0.21488869192E+03  0.22934336376E+03  0.80132568806E+02 0.  0.
         66    2    3    3    0    0 -0.32586287190E+02 -0.12421585327E+02 -0.51197748030E+02  0.61978797104E+02  0.19999980407E+01 0.  0.
        -13    1    3    3    0    0  0.32586287190E+02  0.12421585327E+02 -0.16369094389E+03  0.16736456666E+03  0.10566000000E+00 0.  1.
         13    1    4    4    0    0 -0.10555643579E+02 -0.36530102462E+01 -0.16795249331E+02  0.20170712911E+02  0.10566000000E+00 0. -1.
        -13    1    4    4    0    0 -0.19741688249E+02 -0.75448339535E+01 -0.31228524612E+02  0.37707965840E+02  0.10566000000E+00 0.  1.
        -14    1    4    4    0    0 -0.22889553619E+01 -0.12237411275E+01 -0.31739740877E+01  0.41001183526E+01  0.00000000000E+00 0.  1.
<mgrwt>
<rscale>  0 0.80132569E+02</rscale>
<asrwt>0</asrwt>
<pdfrwt beam="1">  1        2 0.34171691E-01 0.80132569E+02</pdfrwt>
<pdfrwt beam="2">  1       -1 0.11118980E-02 0.80132569E+02</pdfrwt>
<totfact> 0.22784849E+05</totfact>
</mgrwt>
</event>
<event>
 8    1  0.1226832E-020  0.7942518E+02  0.7818608E-02  0.1330691E+00
          2   -1    0    0  501    0  0.00000000000E+00  0.00000000000E+00  0.12542060838E+03  0.12542060841E+03  0.25500000000E-02 0. -1.
         -1   -1    0    0    0  501 -0.00000000000E+00 -0.00000000000E+00 -0.12574406058E+02  0.12574407068E+02  0.50400000000E-02 0.  1.
         24    2    1    2    0    0  0.00000000000E+00  0.00000000000E+00  0.11284620232E+03  0.13799501547E+03  0.79425178107E+02 0.  0.
         66    2    3    3    0    0  0.70633533658E+01 -0.34332876347E+02  0.88797575611E+02  0.95486369652E+02  0.19999989488E+01 0.  0.
        -13    1    3    3    0    0 -0.70633533658E+01  0.34332876347E+02  0.24048626710E+02  0.42508645823E+02  0.10566000000E+00 0.  1.
         13    1    4    4    0    0  0.26408102658E+01 -0.15807875549E+02  0.39593307943E+02  0.42714213163E+02  0.10566000000E+00 0. -1.
        -13    1    4    4    0    0  0.20812909263E+01 -0.66962287637E+01  0.17619798816E+02  0.18964169529E+02  0.10566000000E+00 0.  1.
         14    1    4    4    0    0  0.23412521738E+01 -0.11828772034E+02  0.31584468852E+02  0.33807986959E+02  0.00000000000E+00 0. -1.
<mgrwt>
<rscale>  0 0.79425178E+02</rscale>
<asrwt>0</asrwt>
<pdfrwt beam="1">  1        2 0.19295478E-01 0.79425178E+02</pdfrwt>
<pdfrwt beam="2">  1       -1 0.19345241E-02 0.79425178E+02</pdfrwt>
<totfact> 0.19304567E+05</totfact>
</mgrwt>
</event>
<event>
 8    1  0.1226832E-020  0.8070504E+02  0.7818608E-02  0.1327062E+00
          2   -1    0    0  501    0  0.00000000000E+00  0.00000000000E+00  0.18210283959E+03  0.18210283961E+03  0.25500000000E-02 0. -1.
         -1   -1    0    0    0  501 -0.00000000000E+00 -0.00000000000E+00 -0.89417914930E+01  0.89417929134E+01  0.50400000000E-02 0.  1.
         24    2    1    2    0    0  0.71054273576E-14  0.17763568394E-14  0.17316104809E+03  0.19104463252E+03  0.80705037247E+02 0.  0.
         66    2    3    3    0    0 -0.31399749860E+02 -0.15526563303E+02  0.13393615885E+03  0.13845545531E+03  0.19999994674E+01 0.  0.
        -13    1    3    3    0    0  0.31399749860E+02  0.15526563303E+02  0.39224889242E+02  0.52589177208E+02  0.10566000000E+00 0.  1.
         13    1    4    4    0    0 -0.37751737895E+01 -0.24627873469E+01  0.15908872168E+02  0.16535435777E+02  0.10566000000E+00 0. -1.
        -13    1    4    4    0    0 -0.41771079287E+01 -0.20057104924E+01  0.17282805822E+02  0.17893508497E+02  0.10566000000E+00 0.  1.
         14    1    4    4    0    0 -0.23447468142E+02 -0.11058065464E+02  0.10074448086E+03  0.10402651104E+03  0.00000000000E+00 0. -1.
<mgrwt>
<rscale>  0 0.80705037E+02</rscale>
<asrwt>0</asrwt>
<pdfrwt beam="1">  1        2 0.28015820E-01 0.80705037E+02</pdfrwt>
<pdfrwt beam="2">  1       -1 0.13756604E-02 0.80705037E+02</pdfrwt>
<totfact> 0.20868745E+05</totfact>
</mgrwt>
</event>
<event>
 8    1  0.1226832E-020  0.7957469E+02  0.7818608E-02  0.1330263E+00
          2   -1    0    0  501    0  0.00000000000E+00  0.00000000000E+00  0.43301672919E+03  0.43301672919E+03  0.25500000000E-02 0. -1.
         -1   -1    0    0    0  501 -0.00000000000E+00 -0.00000000000E+00 -0.36558215218E+01  0.36558249959E+01  0.50400000000E-02 0.  1.
         24    2    1    2    0    0  0.35527136788E-14  0.00000000000E+00  0.42936090767E+03  0.43667255419E+03  0.79574685372E+02 0.  0.
         66    2    3    3    0    0 -0.19063264280E+02  0.29518331460E+02  0.31693303671E+03  0.31888130974E+03  0.20000018267E+01 0.  0.
        -13    1    3    3    0    0  0.19063264280E+02 -0.29518331460E+02  0.11242787096E+03  0.11779124445E+03  0.10566000000E+00 0.  1.
         13    1    4    4    0    0 -0.64394046933E+01  0.10759787341E+02  0.11856537114E+03  0.11922666377E+03  0.10566000000E+00 0. -1.
        -13    1    4    4    0    0 -0.23993921783E+01  0.38736899232E+01  0.43156620175E+02  0.43396631038E+02  0.10566000000E+00 0.  1.
        -14    1    4    4    0    0 -0.10224467408E+02  0.14884854195E+02  0.15521104540E+03  0.15625801493E+03  0.00000000000E+00 0.  1.
<mgrwt>
<rscale>  0 0.79574685E+02</rscale>
<asrwt>0</asrwt>
<pdfrwt beam="1">  1        2 0.66617985E-01 0.79574685E+02</pdfrwt>
<pdfrwt beam="2">  1       -1 0.56243412E-03 0.79574685E+02</pdfrwt>
<totfact> 0.29444884E+05</totfact>
</mgrwt>
</event>
<event>
 8    1  0.1226832E-020  0.7621418E+02  0.7818608E-02  0.1340152E+00
          2   -1    0    0  501    0  0.00000000000E+00  0.00000000000E+00  0.28197881113E+03  0.28197881114E+03  0.25500000000E-02 0. -1.
         -1   -1    0    0    0  501 -0.00000000000E+00 -0.00000000000E+00 -0.51498544340E+01  0.51498569003E+01  0.50400000000E-02 0.  1.
         24    2    1    2    0    0  0.00000000000E+00 -0.35527136788E-14  0.27682895670E+03  0.28712866804E+03  0.76214176805E+02 0.  0.
         66    2    3    3    0    0  0.97849495909E+01  0.30786572684E+02  0.21447522744E+03  0.21690362256E+03  0.20000000052E+01 0.  0.
        -13    1    3    3    0    0 -0.97849495909E+01 -0.30786572684E+02  0.62353729257E+02  0.70225045478E+02  0.10566000000E+00 0.  1.
         13    1    4    4    0    0  0.56747632156E+01  0.15258429036E+02  0.10435976057E+03  0.10562193610E+03  0.10566000000E+00 0. -1.
        -13    1    4    4    0    0  0.98008503605E+00  0.34440304989E+01  0.23630492896E+02  0.23900486843E+02  0.10566000000E+00 0. -1.
         14    1    4    4    0    0  0.31301013393E+01  0.12084113149E+02  0.86484973969E+02  0.87381199622E+02  0.00000000000E+00 0. -1.
<mgrwt>
<rscale>  0 0.76214177E+02</rscale>
<asrwt>0</asrwt>
<pdfrwt beam="1">  1        2 0.43381351E-01 0.76214177E+02</pdfrwt>
<pdfrwt beam="2">  1       -1 0.79228558E-03 0.76214177E+02</pdfrwt>
<totfact> 0.28301764E+05</totfact>
</mgrwt>
</event>
<event>
 8    1  0.1226832E-020  0.8224081E+02  0.7818608E-02  0.1322810E+00
         -1   -1    0    0    0  501 -0.00000000000E+00  0.00000000000E+00  0.24500470870E+01  0.24500522709E+01  0.50400000000E-02 0.  1.
          2   -1    0    0  501    0  0.00000000000E+00 -0.00000000000E+00 -0.69014418990E+03  0.69014418990E+03  0.25500000000E-02 0. -1.
         24    2    1    2    0    0 -0.35527136788E-14  0.00000000000E+00 -0.68769414281E+03  0.69259424217E+03  0.82240806389E+02 0.  0.
         66    2    3    3    0    0  0.20814349455E+02  0.11428076665E+02 -0.62652248088E+03  0.62697548367E+03  0.20000004089E+01 0.  0.
        -13    1    3    3    0    0 -0.20814349455E+02 -0.11428076665E+02 -0.61171661932E+02  0.65618758500E+02  0.10566000000E+00 0.  1.
         13    1    4    4    0    0  0.77655145696E+01  0.50435702424E+01 -0.24260583525E+03  0.24278250201E+03  0.10566000000E+00 0. -1.
        -13    1    4    4    0    0  0.70297039962E+01  0.38911785741E+01 -0.22156906612E+03  0.22171472715E+03  0.10566000000E+00 0.  1.
        -14    1    4    4    0    0  0.60191308897E+01  0.24933278481E+01 -0.16234757951E+03  0.16247825452E+03  0.00000000000E+00 0.  1.
<mgrwt>
<rscale>  0 0.82240806E+02</rscale>
<asrwt>0</asrwt>
<pdfrwt beam="1">  1        2 0.10617587E+00 0.82240806E+02</pdfrwt>
<pdfrwt beam="2">  1       -1 0.37693127E-03 0.82240806E+02</pdfrwt>
<totfact> 0.31028456E+05</totfact>
</mgrwt>
</event>
<event>
 8    1  0.1226832E-020  0.7745360E+02  0.7818608E-02  0.1336437E+00
          2   -1    0    0  501    0  0.00000000000E+00  0.00000000000E+00  0.53793929299E+02  0.53793929359E+02  0.25500000000E-02 0. -1.
         -1   -1    0    0    0  501 -0.00000000000E+00 -0.00000000000E+00 -0.27879821888E+02  0.27879822344E+02  0.50400000000E-02 0.  1.
         24    2    1    2    0    0  0.00000000000E+00  0.17763568394E-14  0.25914107411E+02  0.81673751703E+02  0.77453603882E+02 0.  0.
         66    2    3    3    0    0  0.10907101965E+02 -0.99407240760E+01  0.50691778945E+02  0.52834073495E+02  0.20000002792E+01 0.  0.
        -13    1    3    3    0    0 -0.10907101965E+02  0.99407240760E+01 -0.24777671534E+02  0.28839678208E+02  0.10566000000E+00 0.  1.
         13    1    4    4    0    0  0.75921153805E+01 -0.72263382456E+01  0.32882507168E+02  0.34512760279E+02  0.10566000000E+00 0. -1.
        -13    1    4    4    0    0  0.34901099168E+00 -0.31327398705E+00  0.22681690031E+01  0.23185564313E+01  0.10566000000E+00 0. -1.
         14    1    4    4    0    0  0.29659755933E+01 -0.24011118434E+01  0.15541102774E+02  0.16002756785E+02  0.00000000000E+00 0. -1.
<mgrwt>
<rscale>  0 0.77453604E+02</rscale>
<asrwt>0</asrwt>
<pdfrwt beam="1">  1        2 0.82759891E-02 0.77453604E+02</pdfrwt>
<pdfrwt beam="2">  1       -1 0.42892034E-02 0.77453604E+02</pdfrwt>
<totfact> 0.16585191E+05</totfact>
</mgrwt>
</event>
<event>
 8    1  0.1226832E-020  0.8074035E+02  0.7818608E-02  0.1326963E+00
         -1   -1    0    0    0  501 -0.00000000000E+00  0.00000000000E+00  0.17048853742E+02  0.17048854487E+02  0.50400000000E-02 0.  1.
          2   -1    0    0  501    0  0.00000000000E+00 -0.00000000000E+00 -0.95593005021E+02  0.95593005055E+02  0.25500000000E-02 0. -1.
         24    2    1    2    0    0  0.00000000000E+00  0.21316282073E-13 -0.78544151279E+02  0.11264185954E+03  0.80740354353E+02 0.  0.
         66    2    3    3    0    0  0.43327221849E+01  0.34873437407E+02 -0.66946692715E+02  0.75635896141E+02  0.20000003865E+01 0.  0.
        -13    1    3    3    0    0 -0.43327221849E+01 -0.34873437407E+02 -0.11597458564E+02  0.37005963401E+02  0.10566000000E+00 0.  1.
         13    1    4    4    0    0  0.45937252054E+00  0.27968117962E+01 -0.53535334505E+01  0.60584374040E+01  0.10566000000E+00 0.  1.
        -13    1    4    4    0    0  0.72837294874E+00  0.94438276547E+01 -0.19643568990E+02  0.21808195125E+02  0.10566000000E+00 0.  1.
         14    1    4    4    0    0  0.31449767156E+01  0.22632797956E+02 -0.41949590275E+02  0.47769263612E+02  0.00000000000E+00 0. -1.
<mgrwt>
<rscale>  0 0.80740354E+02</rscale>
<asrwt>0</asrwt>
<pdfrwt beam="1">  1        2 0.14706616E-01 0.80740354E+02</pdfrwt>
<pdfrwt beam="2">  1       -1 0.26229007E-02 0.80740354E+02</pdfrwt>
<totfact> 0.17078070E+05</totfact>
</mgrwt>
</event>
<event>
 8    1  0.1226832E-020  0.7803784E+02  0.7818608E-02  0.1334714E+00
          2   -1    0    0  501    0  0.00000000000E+00  0.00000000000E+00  0.36582782042E+03  0.36582782043E+03  0.25500000000E-02 0. -1.
         -1   -1    0    0    0  501 -0.00000000000E+00 -0.00000000000E+00 -0.41617275898E+01  0.41617306416E+01  0.50400000000E-02 0.  1.
         24    2    1    2    0    0  0.00000000000E+00  0.11102230246E-15  0.36166609283E+03  0.36998955107E+03  0.78037844655E+02 0.  0.
         66    2    3    3    0    0  0.28423633799E+02 -0.43980860219E+00  0.30749460607E+03  0.30881228788E+03  0.19999980911E+01 0.  0.
        -13    1    3    3    0    0 -0.28423633799E+02  0.43980860219E+00  0.54171486765E+02  0.61177263198E+02  0.10566000000E+00 0.  1.
         13    1    4    4    0    0  0.12852522669E+02  0.56420384890E+00  0.13784103351E+03  0.13844012189E+03  0.10566000000E+00 0. -1.
        -13    1    4    4    0    0  0.15302229748E+02 -0.10652126543E+01  0.16751912552E+03  0.16821997947E+03  0.10566000000E+00 0.  1.
        -14    1    4    4    0    0  0.26888138199E+00  0.61200203185E-01  0.21344470348E+01  0.21521865176E+01  0.00000000000E+00 0.  1.
<mgrwt>
<rscale>  0 0.78037845E+02</rscale>
<asrwt>0</asrwt>
<pdfrwt beam="1">  1        2 0.56281212E-01 0.78037845E+02</pdfrwt>
<pdfrwt beam="2">  1       -1 0.64026592E-03 0.78037845E+02</pdfrwt>
<totfact> 0.29211512E+05</totfact>
</mgrwt>
</event>
<event>
 8    1  0.1226832E-020  0.8114356E+02  0.7818608E-02  0.1325837E+00
          2   -1    0    0  501    0  0.00000000000E+00  0.00000000000E+00  0.73264771536E+02  0.73264771580E+02  0.25500000000E-02 0. -1.
         -1   -1    0    0    0  501 -0.00000000000E+00 -0.00000000000E+00 -0.22467407649E+02  0.22467408214E+02  0.50400000000E-02 0.  1.
         24    2    1    2    0    0  0.35527136788E-14  0.00000000000E+00  0.50797363887E+02  0.95732179794E+02  0.81143564564E+02 0.  0.
         66    2    3    3    0    0  0.20358297233E+02 -0.24284118721E+01  0.66684841850E+02  0.69794165789E+02  0.19999988004E+01 0.  0.
        -13    1    3    3    0    0 -0.20358297233E+02  0.24284118721E+01 -0.15887477963E+02  0.25938014005E+02  0.10566000000E+00 0.  1.
         13    1    4    4    0    0  0.20481546383E+01 -0.69099212122E+00  0.63908147897E+01  0.67473020717E+01  0.10566000000E+00 0.  1.
        -13    1    4    4    0    0  0.75190709339E+01 -0.11198762339E+01  0.23650996451E+02  0.24842933556E+02  0.10566000000E+00 0. -1.
         14    1    4    4    0    0  0.10791071660E+02 -0.61754351697E+00  0.36643030609E+02  0.38203930162E+02  0.00000000000E+00 0. -1.
<mgrwt>
<rscale>  0 0.81143565E+02</rscale>
<asrwt>0</asrwt>
<pdfrwt beam="1">  1        2 0.11271503E-01 0.81143565E+02</pdfrwt>
<pdfrwt beam="2">  1       -1 0.34565243E-02 0.81143565E+02</pdfrwt>
<totfact> 0.15713676E+05</totfact>
</mgrwt>
</event>
<event>
 8    1  0.1226832E-020  0.8222325E+02  0.7818608E-02  0.1322858E+00
         -1   -1    0    0    0  501 -0.00000000000E+00  0.00000000000E+00  0.27273225596E+01  0.27273272165E+01  0.50400000000E-02 0.  1.
          2   -1    0    0  501    0  0.00000000000E+00 -0.00000000000E+00 -0.61971552715E+03  0.61971552716E+03  0.25500000000E-02 0. -1.
         24    2    1    2    0    0 -0.17763568394E-14 -0.35527136788E-14 -0.61698820459E+03  0.62244285437E+03  0.82223247046E+02 0.  0.
         66    2    3    3    0    0  0.12544414361E+02  0.17734373315E+02 -0.57268800085E+03  0.57310332110E+03  0.20000007348E+01 0.  0.
        -13    1    3    3    0    0 -0.12544414361E+02 -0.17734373315E+02 -0.44300203736E+02  0.49339533273E+02  0.10566000000E+00 0.  1.
         13    1    4    4    0    0  0.82703541064E+01  0.10201424474E+02 -0.33964050787E+03  0.33989432706E+03  0.10566000000E+00 0. -1.
        -13    1    4    4    0    0  0.15187039748E+00  0.33678240671E+00 -0.10605868435E+02  0.10612826970E+02  0.10566000000E+00 0. -1.
         14    1    4    4    0    0  0.41221898570E+01  0.71961664348E+01 -0.22244162455E+03  0.22259616707E+03  0.00000000000E+00 0. -1.
<mgrwt>
<rscale>  0 0.82223247E+02</rscale>
<asrwt>0</asrwt>
<pdfrwt beam="1">  1        2 0.95340738E-01 0.82223247E+02</pdfrwt>
<pdfrwt beam="2">  1       -1 0.41958894E-03 0.82223247E+02</pdfrwt>
<totfact> 0.30213053E+05</totfact>
</mgrwt>
</event>
<event>
 8    1  0.1380898E-020  0.8029295E+02  0.7818608E-02  0.1328222E+00
          2   -1    0    0  501    0  0.00000000000E+00  0.00000000000E+00  0.12889507610E+03  0.12889507613E+03  0.25500000000E-02 0. -1.
         -1   -1    0    0    0  501 -0.00000000000E+00 -0.00000000000E+00 -0.12504275443E+02  0.12504276459E+02  0.50400000000E-02 0.  1.
         24    2    1    2    0    0 -0.11102230246E-15 -0.35527136788E-14  0.11639080066E+03  0.14139935259E+03  0.80292953825E+02 0.  0.
         66    2    3    3    0    0 -0.37464136555E+00 -0.23474648384E+02  0.11552718623E+03  0.11790559880E+03  0.19999997782E+01 0.  0.
        -13    1    3    3    0    0  0.37464136555E+00  0.23474648384E+02  0.86361443369E+00  0.23493753784E+02  0.10566000000E+00 0.  1.
         13    1    4    4    0    0 -0.27556871484E+00 -0.99526910252E+01  0.49703673291E+02  0.50691205346E+02  0.10566000000E+00 0. -1.
        -13    1    4    4    0    0 -0.62010724319E+00 -0.10382893656E+02  0.51860241022E+02  0.52893144892E+02  0.10566000000E+00 0.  1.
        -14    1    4    4    0    0  0.52103459249E+00 -0.31390637034E+01  0.13963271913E+02  0.14321248566E+02  0.00000000000E+00 0.  1.
<mgrwt>
<rscale>  0 0.80292954E+02</rscale>
<asrwt>0</asrwt>
<pdfrwt beam="1">  1        2 0.19830013E-01 0.80292954E+02</pdfrwt>
<pdfrwt beam="2">  1       -1 0.19237347E-02 0.80292954E+02</pdfrwt>
<totfact> 0.18911370E+05</totfact>
</mgrwt>
</event>
<event>
 8    1  0.1226832E-020  0.7975047E+02  0.7818608E-02  0.1329761E+00
          2   -1    0    0  501    0  0.00000000000E+00  0.00000000000E+00  0.83251183879E+01  0.83251187785E+01  0.25500000000E-02 0. -1.
         -1   -1    0    0    0  501 -0.00000000000E+00 -0.00000000000E+00 -0.19099238098E+03  0.19099238104E+03  0.50400000000E-02 0.  1.
         24    2    1    2    0    0  0.00000000000E+00 -0.71054273576E-14 -0.18266726259E+03  0.19931749982E+03  0.79750466541E+02 0.  0.
         66    2    3    3    0    0 -0.71431435985E+01 -0.37906595163E+02 -0.66386422884E+02  0.76805544063E+02  0.19999995494E+01 0.  0.
        -13    1    3    3    0    0  0.71431435985E+01  0.37906595163E+02 -0.11628083970E+03  0.12251195576E+03  0.10566000000E+00 0.  1.
         13    1    4    4    0    0 -0.34105807777E+01 -0.18091707125E+02 -0.30269848407E+02  0.35429039143E+02  0.10566000000E+00 0. -1.
        -13    1    4    4    0    0 -0.13782799739E+01 -0.78453777327E+01 -0.13286079670E+02  0.15491309967E+02  0.10566000000E+00 0.  1.
        -14    1    4    4    0    0 -0.23542828470E+01 -0.11969510305E+02 -0.22830494807E+02  0.25885194954E+02  0.00000000000E+00 0.  1.
<mgrwt>
<rscale>  0 0.79750467E+02</rscale>
<asrwt>0</asrwt>
<pdfrwt beam="1">  1        2 0.12807876E-02 0.79750467E+02</pdfrwt>
<pdfrwt beam="2">  1       -1 0.29383440E-01 0.79750467E+02</pdfrwt>
<totfact> 0.10178732E+05</totfact>
</mgrwt>
</event>
<event>
 8    1  0.1226832E-020  0.8071191E+02  0.7818608E-02  0.1327043E+00
         -1   -1    0    0    0  501 -0.00000000000E+00  0.00000000000E+00  0.17847038149E+02  0.17847038861E+02  0.50400000000E-02 0.  1.
          2   -1    0    0  501    0  0.00000000000E+00 -0.00000000000E+00 -0.91253415469E+02  0.91253415504E+02  0.25500000000E-02 0. -1.
         24    2    1    2    0    0 -0.35527136788E-14  0.35527136788E-14 -0.73406377319E+02  0.10910045437E+03  0.80711913071E+02 0.  0.
         66    2    3    3    0    0 -0.24245235166E+02  0.18834884771E+02 -0.72078265355E+02  0.78370023877E+02  0.19999983152E+01 0.  0.
        -13    1    3    3    0    0  0.24245235166E+02 -0.18834884771E+02 -0.13281119643E+01  0.30730430489E+02  0.10566000000E+00 0.  1.
         13    1    4    4    0    0 -0.71958617914E+01  0.62191590821E+01 -0.22548421503E+02  0.24472450693E+02  0.10566000000E+00 0. -1.
        -13    1    4    4    0    0 -0.57062805346E+00  0.54285212452E+00 -0.24852108402E+01  0.26091649546E+01  0.10566000000E+00 0.  1.
        -14    1    4    4    0    0 -0.16478745321E+02  0.12072873564E+02 -0.47044633012E+02  0.51288408229E+02  0.00000000000E+00 0.  1.
<mgrwt>
<rscale>  0 0.80711913E+02</rscale>
<asrwt>0</asrwt>
<pdfrwt beam="1">  1        2 0.14038987E-01 0.80711913E+02</pdfrwt>
<pdfrwt beam="2">  1       -1 0.27456983E-02 0.80711913E+02</pdfrwt>
<totfact> 0.16878463E+05</totfact>
</mgrwt>
</event>
<event>
 8    1  0.1226832E-020  0.8042776E+02  0.7818608E-02  0.1327842E+00
         -1   -1    0    0    0  501 -0.00000000000E+00  0.00000000000E+00  0.78053363613E+02  0.78053363776E+02  0.50400000000E-02 0.  1.
          2   -1    0    0  501    0  0.00000000000E+00 -0.00000000000E+00 -0.20718596488E+02  0.20718596645E+02  0.25500000000E-02 0. -1.
         24    2    1    2    0    0 -0.35527136788E-14  0.00000000000E+00  0.57334767125E+02  0.98771960421E+02  0.80427760408E+02 0.  0.
         66    2    3    3    0    0  0.24846892243E+02 -0.17619115689E+02 -0.35120300156E+01  0.30726790291E+02  0.19999987347E+01 0.  0.
        -13    1    3    3    0    0 -0.24846892243E+02  0.17619115689E+02  0.60846797141E+02  0.68045170131E+02  0.10566000000E+00 0.  1.
         13    1    4    4    0    0  0.50382517176E+01 -0.38091512830E+01 -0.14872793092E-01  0.63170403753E+01  0.10566000000E+00 0. -1.
        -13    1    4    4    0    0  0.36573032491E+01 -0.24949760490E+01 -0.89982247421E+00  0.45190283316E+01  0.10566000000E+00 0.  1.
         14    1    4    4    0    0  0.16151337276E+02 -0.11314988357E+02 -0.25973347483E+01  0.19890721584E+02  0.00000000000E+00 0. -1.
<mgrwt>
<rscale>  0 0.80427760E+02</rscale>
<asrwt>0</asrwt>
<pdfrwt beam="1">  1        2 0.31874763E-02 0.80427760E+02</pdfrwt>
<pdfrwt beam="2">  1       -1 0.12008210E-01 0.80427760E+02</pdfrwt>
<totfact> 0.12314724E+05</totfact>
</mgrwt>
</event>
<event>
 8    1  0.1226832E-020  0.7783498E+02  0.7818608E-02  0.1335310E+00
          2   -1    0    0  501    0  0.00000000000E+00  0.00000000000E+00  0.11832867667E+03  0.11832867670E+03  0.25500000000E-02 0. -1.
         -1   -1    0    0    0  501 -0.00000000000E+00 -0.00000000000E+00 -0.12799694841E+02  0.12799695833E+02  0.50400000000E-02 0.  1.
         24    2    1    2    0    0  0.00000000000E+00  0.00000000000E+00  0.10552898183E+03  0.13112837253E+03  0.77834979774E+02 0.  0.
         66    2    3    3    0    0  0.34694961371E+02  0.16466848696E+02  0.63139024376E+02  0.73928572640E+02  0.20000007303E+01 0.  0.
        -13    1    3    3    0    0 -0.34694961371E+02 -0.16466848696E+02  0.42389957453E+02  0.57199799890E+02  0.10566000000E+00 0.  1.
         13    1    4    4    0    0  0.14219616897E+02  0.65787179457E+01  0.25207414747E+02  0.29679992533E+02  0.10566000000E+00 0. -1.
        -13    1    4    4    0    0  0.12795725864E+02  0.67588934276E+01  0.23207318343E+02  0.27349662328E+02  0.10566000000E+00 0.  1.
        -14    1    4    4    0    0  0.76796186105E+01  0.31292373225E+01  0.14724291286E+02  0.16898917779E+02  0.00000000000E+00 0.  1.
<mgrwt>
<rscale>  0 0.77834980E+02</rscale>
<asrwt>0</asrwt>
<pdfrwt beam="1">  1        2 0.18204411E-01 0.77834980E+02</pdfrwt>
<pdfrwt beam="2">  1       -1 0.19691840E-02 0.77834980E+02</pdfrwt>
<totfact> 0.20019225E+05</totfact>
</mgrwt>
</event>
<event>
 8    1  0.1226832E-020  0.7292810E+02  0.7818608E-02  0.1350410E+00
         -1   -1    0    0    0  501 -0.00000000000E+00  0.00000000000E+00  0.22892140898E+03  0.22892140903E+03  0.50400000000E-02 0.  1.
          2   -1    0    0  501    0  0.00000000000E+00 -0.00000000000E+00 -0.58082239159E+01  0.58082244757E+01  0.25500000000E-02 0. -1.
         24    2    1    2    0    0  0.00000000000E+00  0.00000000000E+00  0.22311318506E+03  0.23472963351E+03  0.72928098143E+02 0.  0.
         66    2    3    3    0    0 -0.22690839492E+02  0.27717642488E+02  0.90174012668E+02  0.97048928169E+02  0.19999990551E+01 0.  0.
        -13    1    3    3    0    0  0.22690839492E+02 -0.27717642488E+02  0.13293917239E+03  0.13768070534E+03  0.10566000000E+00 0.  1.
         13    1    4    4    0    0 -0.53879127904E+01  0.79018124997E+01  0.24201595747E+02  0.26023002243E+02  0.10566000000E+00 0. -1.
        -13    1    4    4    0    0 -0.48029546498E+01  0.52260722094E+01  0.17514030590E+02  0.18897953213E+02  0.10566000000E+00 0.  1.
         14    1    4    4    0    0 -0.12499972052E+02  0.14589757779E+02  0.48458386331E+02  0.52127972713E+02  0.00000000000E+00 0. -1.
<mgrwt>
<rscale>  0 0.72928098E+02</rscale>
<asrwt>0</asrwt>
<pdfrwt beam="1">  1        2 0.89357312E-03 0.72928098E+02</pdfrwt>
<pdfrwt beam="2">  1       -1 0.35218672E-01 0.72928098E+02</pdfrwt>
<totfact> 0.12078793E+05</totfact>
</mgrwt>
</event>
<event>
 8    1  0.1226832E-020  0.7930124E+02  0.7818608E-02  0.1331046E+00
          2   -1    0    0  501    0  0.00000000000E+00  0.00000000000E+00  0.23654230315E+02  0.23654230452E+02  0.25500000000E-02 0. -1.
         -1   -1    0    0    0  501 -0.00000000000E+00 -0.00000000000E+00 -0.66464708269E+02  0.66464708460E+02  0.50400000000E-02 0.  1.
         24    2    1    2    0    0  0.00000000000E+00  0.35527136788E-14 -0.42810477954E+02  0.90118938912E+02  0.79301236611E+02 0.  0.
         66    2    3    3    0    0  0.13839896120E+02  0.20867071300E+02  0.13481994735E+02  0.28508622936E+02  0.20000026173E+01 0.  0.
        -13    1    3    3    0    0 -0.13839896120E+02 -0.20867071300E+02 -0.56292472689E+02  0.61610315976E+02  0.10566000000E+00 0.  1.
         13    1    4    4    0    0  0.18704178724E+01  0.29466749092E+01  0.24997433715E+01  0.42943261401E+01  0.10566000000E+00 0. -1.
        -13    1    4    4    0    0  0.49629027919E+01  0.71521582169E+01  0.38390442913E+01  0.95148933987E+01  0.10566000000E+00 0.  1.
        -14    1    4    4    0    0  0.70065754557E+01  0.10768238173E+02  0.71432070718E+01  0.14699403398E+02  0.00000000000E+00 0.  1.
<mgrwt>
<rscale>  0 0.79301237E+02</rscale>
<asrwt>0</asrwt>
<pdfrwt beam="1">  1        2 0.36391124E-02 0.79301237E+02</pdfrwt>
<pdfrwt beam="2">  1       -1 0.10225340E-01 0.79301237E+02</pdfrwt>
<totfact> 0.13162960E+05</totfact>
</mgrwt>
</event>
<event>
 8    1  0.1226832E-020  0.7953862E+02  0.7818608E-02  0.1330366E+00
          2   -1    0    0  501    0  0.00000000000E+00  0.00000000000E+00  0.73703480009E+02  0.73703480053E+02  0.25500000000E-02 0. -1.
         -1   -1    0    0    0  501 -0.00000000000E+00 -0.00000000000E+00 -0.21458930471E+02  0.21458931063E+02  0.50400000000E-02 0.  1.
         24    2    1    2    0    0  0.00000000000E+00  0.00000000000E+00  0.52244549538E+02  0.95162411116E+02  0.79538616615E+02 0.  0.
         66    2    3    3    0    0 -0.18296198157E+02 -0.18037836219E+02  0.62417986638E+02  0.67528656595E+02  0.20000007712E+01 0.  0.
        -13    1    3    3    0    0  0.18296198157E+02  0.18037836219E+02 -0.10173437100E+02  0.27633754521E+02  0.10566000000E+00 0.  1.
         13    1    4    4    0    0 -0.63494109480E+01 -0.64755553493E+01  0.19660937695E+02  0.21652054673E+02  0.10566000000E+00 0. -1.
        -13    1    4    4    0    0 -0.78424379363E+01 -0.77613288194E+01  0.28405039257E+02  0.30472930235E+02  0.10566000000E+00 0.  1.
         14    1    4    4    0    0 -0.41043492730E+01 -0.38009520504E+01  0.14352009685E+02  0.15403671687E+02  0.00000000000E+00 0. -1.
<mgrwt>
<rscale>  0 0.79538617E+02</rscale>
<asrwt>0</asrwt>
<pdfrwt beam="1">  1        2 0.11338997E-01 0.79538617E+02</pdfrwt>
<pdfrwt beam="2">  1       -1 0.33013740E-02 0.79538617E+02</pdfrwt>
<totfact> 0.16610614E+05</totfact>
</mgrwt>
</event>
<event>
 8    1  0.1226832E-020  0.7924169E+02  0.7818608E-02  0.1331217E+00
          2   -1    0    0  501    0  0.00000000000E+00  0.00000000000E+00  0.30920511811E+02  0.30920511916E+02  0.25500000000E-02 0. -1.
         -1   -1    0    0    0  501 -0.00000000000E+00 -0.00000000000E+00 -0.50769249591E+02  0.50769249841E+02  0.50400000000E-02 0.  1.
         24    2    1    2    0    0  0.00000000000E+00  0.00000000000E+00 -0.19848737780E+02  0.81689761757E+02  0.79241685901E+02 0.  0.
         66    2    3    3    0    0 -0.10577190619E+01 -0.36522684014E+02  0.57978414648E+01  0.37049159071E+02  0.20000012485E+01 0.  0.
        -13    1    3    3    0    0  0.10577190619E+01  0.36522684014E+02 -0.25646579245E+02  0.44640602686E+02  0.10566000000E+00 0.  1.
         13    1    4    4    0    0 -0.63617304051E+00 -0.77598483803E+01  0.15112006692E+01  0.79318884587E+01  0.10566000000E+00 0. -1.
        -13    1    4    4    0    0 -0.77920665244E-01 -0.11325135796E+02  0.10076758981E+01  0.11370635302E+02  0.10566000000E+00 0.  1.
         14    1    4    4    0    0 -0.34362535614E+00 -0.17437699838E+02  0.32789648975E+01  0.17746635310E+02  0.00000000000E+00 0. -1.
<mgrwt>
<rscale>  0 0.79241686E+02</rscale>
<asrwt>0</asrwt>
<pdfrwt beam="1">  1        2 0.47570018E-02 0.79241686E+02</pdfrwt>
<pdfrwt beam="2">  1       -1 0.78106538E-02 0.79241686E+02</pdfrwt>
<totfact> 0.13901145E+05</totfact>
</mgrwt>
</event>
<event>
 8    1  0.1226832E-020  0.8084740E+02  0.7818608E-02  0.1326664E+00
         -1   -1    0    0    0  501 -0.00000000000E+00  0.00000000000E+00  0.13703218969E+03  0.13703218978E+03  0.50400000000E-02 0.  1.
          2   -1    0    0  501    0  0.00000000000E+00 -0.00000000000E+00 -0.11924756484E+02  0.11924756756E+02  0.25500000000E-02 0. -1.
         24    2    1    2    0    0  0.00000000000E+00  0.00000000000E+00  0.12510743321E+03  0.14895694654E+03  0.80847399951E+02 0.  0.
         66    2    3    3    0    0  0.15492080613E+02  0.35310346970E+02  0.84796639614E+02  0.93173468619E+02  0.19999999459E+01 0.  0.
        -13    1    3    3    0    0 -0.15492080613E+02 -0.35310346970E+02  0.40310793594E+02  0.55783477922E+02  0.10566000000E+00 0.  1.
         13    1    4    4    0    0  0.24381538368E+01  0.62649542341E+01  0.16004490858E+02  0.17359410628E+02  0.10566000000E+00 0.  1.
        -13    1    4    4    0    0  0.51711193283E+01  0.12022657188E+02  0.29538256061E+02  0.32307963354E+02  0.10566000000E+00 0. -1.
        -14    1    4    4    0    0  0.78828074474E+01  0.17022735548E+02  0.39253892696E+02  0.43506094637E+02  0.00000000000E+00 0.  1.
<mgrwt>
<rscale>  0 0.80847400E+02</rscale>
<asrwt>0</asrwt>
<pdfrwt beam="1">  1        2 0.18345779E-02 0.80847400E+02</pdfrwt>
<pdfrwt beam="2">  1       -1 0.21081875E-01 0.80847400E+02</pdfrwt>
<totfact> 0.10743825E+05</totfact>
</mgrwt>
</event>
<event>
 8    1  0.1226832E-020  0.7871057E+02  0.7818608E-02  0.1332751E+00
          2   -1    0    0  501    0  0.00000000000E+00  0.00000000000E+00  0.35360670085E+02  0.35360670177E+02  0.25500000000E-02 0. -1.
         -1   -1    0    0    0  501 -0.00000000000E+00 -0.00000000000E+00 -0.43801164790E+02  0.43801165080E+02  0.50400000000E-02 0.  1.
         24    2    1    2    0    0  0.00000000000E+00  0.00000000000E+00 -0.84404947045E+01  0.79161835257E+02  0.78710572418E+02 0.  0.
         66    2    3    3    0    0  0.14125854639E+02 -0.30696909121E+02  0.16016865988E+02  0.37448364352E+02  0.19999994072E+01 0.  0.
        -13    1    3    3    0    0 -0.14125854639E+02  0.30696909121E+02 -0.24457360693E+02  0.41713470906E+02  0.10566000000E+00 0.  1.
         13    1    4    4    0    0  0.76579961191E+01 -0.16541029590E+02  0.92681858541E+01  0.20448985244E+02  0.10566000000E+00 0. -1.
        -13    1    4    4    0    0  0.26755541878E+01 -0.46814929301E+01  0.25180882057E+01  0.59520499421E+01  0.10566000000E+00 0.  1.
        -14    1    4    4    0    0  0.37923043322E+01 -0.94743866012E+01  0.42305919285E+01  0.11047329165E+02  0.00000000000E+00 0.  1.
<mgrwt>
<rscale>  0 0.78710572E+02</rscale>
<asrwt>0</asrwt>
<pdfrwt beam="1">  1        2 0.54401031E-02 0.78710572E+02</pdfrwt>
<pdfrwt beam="2">  1       -1 0.67386408E-02 0.78710572E+02</pdfrwt>
<totfact> 0.14544209E+05</totfact>
</mgrwt>
</event>
<event>
 8    1  0.1226832E-020  0.8167082E+02  0.7818608E-02  0.1324376E+00
         -1   -1    0    0    0  501 -0.00000000000E+00  0.00000000000E+00  0.65208469194E+01  0.65208488671E+01  0.50400000000E-02 0.  1.
          2   -1    0    0  501    0  0.00000000000E+00 -0.00000000000E+00 -0.25572296919E+03  0.25572296920E+03  0.25500000000E-02 0. -1.
         24    2    1    2    0    0  0.00000000000E+00 -0.17763568394E-14 -0.24920212227E+03  0.26224381807E+03  0.81670817136E+02 0.  0.
         66    2    3    3    0    0  0.93329709794E+01 -0.13801254418E+02 -0.24430134361E+03  0.24487695979E+03  0.19999943022E+01 0.  0.
        -13    1    3    3    0    0 -0.93329709794E+01  0.13801254418E+02 -0.49007786579E+01  0.17366858274E+02  0.10566000000E+00 0.  1.
         13    1    4    4    0    0  0.59500441938E+01 -0.74501820143E+01 -0.13604295858E+03  0.13637670616E+03  0.10566000000E+00 0. -1.
        -13    1    4    4    0    0  0.52943374029E+00 -0.71114280365E+00 -0.10600137963E+02  0.10637674231E+02  0.10566000000E+00 0.  1.
         14    1    4    4    0    0  0.28534930454E+01 -0.56399295999E+01 -0.97658247064E+02  0.97862579406E+02  0.00000000000E+00 0. -1.
<mgrwt>
<rscale>  0 0.81670817E+02</rscale>
<asrwt>0</asrwt>
<pdfrwt beam="1">  1        2 0.39341988E-01 0.81670817E+02</pdfrwt>
<pdfrwt beam="2">  1       -1 0.10032076E-02 0.81670817E+02</pdfrwt>
<totfact> 0.22789272E+05</totfact>
</mgrwt>
</event>
<event>
 8    1  0.1226832E-020  0.8006218E+02  0.7818608E-02  0.1328875E+00
          2   -1    0    0  501    0  0.00000000000E+00  0.00000000000E+00  0.27195002080E+03  0.27195002081E+03  0.25500000000E-02 0. -1.
         -1   -1    0    0    0  501 -0.00000000000E+00 -0.00000000000E+00 -0.58925822430E+01  0.58925843984E+01  0.50400000000E-02 0.  1.
         24    2    1    2    0    0  0.00000000000E+00 -0.71054273576E-14  0.26605743855E+03  0.27784260521E+03  0.80062179951E+02 0.  0.
         66    2    3    3    0    0 -0.28123375574E+02 -0.28387765423E+02  0.12644184257E+03  0.13262099770E+03  0.20000001483E+01 0.  0.
        -13    1    3    3    0    0  0.28123375574E+02  0.28387765423E+02  0.13961559599E+03  0.14522160750E+03  0.10566000000E+00 0.  1.
         13    1    4    4    0    0 -0.16928540360E+02 -0.17139369345E+02  0.75656044940E+02  0.79398877576E+02  0.10566000000E+00 0. -1.
        -13    1    4    4    0    0 -0.67008808801E+01 -0.75720727202E+01  0.32462156345E+02  0.34000600707E+02  0.10566000000E+00 0.  1.
        -14    1    4    4    0    0 -0.44939543337E+01 -0.36763233577E+01  0.18323641283E+02  0.19221519421E+02  0.00000000000E+00 0.  1.
<mgrwt>
<rscale>  0 0.80062180E+02</rscale>
<asrwt>0</asrwt>
<pdfrwt beam="1">  1        2 0.41838469E-01 0.80062180E+02</pdfrwt>
<pdfrwt beam="2">  1       -1 0.90655118E-03 0.80062180E+02</pdfrwt>
<totfact> 0.24553728E+05</totfact>
</mgrwt>
</event>
<event>
 8    1  0.1226832E-020  0.7944348E+02  0.7818608E-02  0.1330638E+00
          2   -1    0    0  501    0  0.00000000000E+00  0.00000000000E+00  0.16221028922E+03  0.16221028924E+03  0.25500000000E-02 0. -1.
         -1   -1    0    0    0  501 -0.00000000000E+00 -0.00000000000E+00 -0.97269811652E+01  0.97269824709E+01  0.50400000000E-02 0.  1.
         24    2    1    2    0    0  0.00000000000E+00  0.71054273576E-14  0.15248330806E+03  0.17193727171E+03  0.79443477820E+02 0.  0.
         66    2    3    3    0    0  0.23648473475E+02  0.30046813191E+02  0.99372618612E+02  0.10649403082E+03  0.19999976888E+01 0.  0.
        -13    1    3    3    0    0 -0.23648473475E+02 -0.30046813191E+02  0.53110689445E+02  0.65443240889E+02  0.10566000000E+00 0.  1.
         13    1    4    4    0    0  0.10444755639E+02  0.12522861638E+02  0.41955608265E+02  0.45013322616E+02  0.10566000000E+00 0. -1.
        -13    1    4    4    0    0  0.12713305402E+02  0.17199446981E+02  0.55665276207E+02  0.59632904088E+02  0.10566000000E+00 0.  1.
         14    1    4    4    0    0  0.49041243409E+00  0.32450457235E+00  0.17517341402E+01  0.18478041214E+01  0.00000000000E+00 0. -1.
<mgrwt>
<rscale>  0 0.79443478E+02</rscale>
<asrwt>0</asrwt>
<pdfrwt beam="1">  1        2 0.24955427E-01 0.79443478E+02</pdfrwt>
<pdfrwt beam="2">  1       -1 0.14964589E-02 0.79443478E+02</pdfrwt>
<totfact> 0.20930751E+05</totfact>
</mgrwt>
</event>
<event>
 8    1  0.1226832E-020  0.8001034E+02  0.7818608E-02  0.1329022E+00
         -1   -1    0    0    0  501 -0.00000000000E+00  0.00000000000E+00  0.40163830715E+01  0.40163862337E+01  0.50400000000E-02 0.  1.
          2   -1    0    0  501    0  0.00000000000E+00 -0.00000000000E+00 -0.39847115971E+03  0.39847115971E+03  0.25500000000E-02 0. -1.
         24    2    1    2    0    0 -0.88817841970E-15  0.35527136788E-14 -0.39445477663E+03  0.40248754595E+03  0.80010335791E+02 0.  0.
         66    2    3    3    0    0 -0.40878316243E+01  0.22349905513E+02 -0.36283430478E+03  0.36355049356E+03  0.20000009206E+01 0.  0.
        -13    1    3    3    0    0  0.40878316243E+01 -0.22349905513E+02 -0.31620471859E+02  0.38937052385E+02  0.10566000000E+00 0.  1.
         13    1    4    4    0    0 -0.24390623827E+01  0.11443442356E+02 -0.18890443181E+03  0.18926647067E+03  0.10566000000E+00 0. -1.
        -13    1    4    4    0    0 -0.16444280191E+00  0.48440169502E+01 -0.71503890214E+02  0.71668047423E+02  0.10566000000E+00 0.  1.
        -14    1    4    4    0    0 -0.14843264397E+01  0.60624462071E+01 -0.10242598275E+03  0.10261597547E+03  0.00000000000E+00 0.  1.
<mgrwt>
<rscale>  0 0.80010336E+02</rscale>
<asrwt>0</asrwt>
<pdfrwt beam="1">  1        2 0.61303224E-01 0.80010336E+02</pdfrwt>
<pdfrwt beam="2">  1       -1 0.61790565E-03 0.80010336E+02</pdfrwt>
<totfact> 0.28206277E+05</totfact>
</mgrwt>
</event>
<event>
 8    1  0.1226832E-020  0.7315247E+02  0.7818608E-02  0.1349690E+00
         -1   -1    0    0    0  501 -0.00000000000E+00  0.00000000000E+00  0.55090210910E+02  0.55090211141E+02  0.50400000000E-02 0.  1.
          2   -1    0    0  501    0  0.00000000000E+00 -0.00000000000E+00 -0.24284187736E+02  0.24284187870E+02  0.25500000000E-02 0. -1.
         24    2    1    2    0    0 -0.88817841970E-15 -0.35527136788E-14  0.30806023174E+02  0.79374399010E+02  0.73152471964E+02 0.  0.
         66    2    3    3    0    0  0.70871523088E+01  0.25639664641E+02 -0.11781132858E+02  0.29161879121E+02  0.19999929281E+01 0.  0.
        -13    1    3    3    0    0 -0.70871523088E+01 -0.25639664641E+02  0.42587156032E+02  0.50212519890E+02  0.10566000000E+00 0.  1.
         13    1    4    4    0    0  0.34937540319E+01  0.11342935258E+02 -0.61519313153E+01  0.13368841402E+02  0.10566000000E+00 0. -1.
        -13    1    4    4    0    0  0.52711840628E+00  0.14085740845E+01 -0.59872453953E+00  0.16222114152E+01  0.10566000000E+00 0.  1.
         14    1    4    4    0    0  0.30662798707E+01  0.12888155299E+02 -0.50304770028E+01  0.14170826304E+02  0.00000000000E+00 0. -1.
<mgrwt>
<rscale>  0 0.73152472E+02</rscale>
<asrwt>0</asrwt>
<pdfrwt beam="1">  1        2 0.37360289E-02 0.73152472E+02</pdfrwt>
<pdfrwt beam="2">  1       -1 0.84754170E-02 0.73152472E+02</pdfrwt>
<totfact> 0.16597602E+05</totfact>
</mgrwt>
</event>
<event>
 8    1  0.1226832E-020  0.7799618E+02  0.7818608E-02  0.1334836E+00
          2   -1    0    0  501    0  0.00000000000E+00  0.00000000000E+00  0.35594076480E+02  0.35594076572E+02  0.25500000000E-02 0. -1.
         -1   -1    0    0    0  501 -0.00000000000E+00 -0.00000000000E+00 -0.42727639080E+02  0.42727639377E+02  0.50400000000E-02 0.  1.
         24    2    1    2    0    0 -0.35527136788E-14 -0.17763568394E-14 -0.71335625992E+01  0.78321715948E+02  0.77996176020E+02 0.  0.
         66    2    3    3    0    0  0.27075424815E+02  0.13475966344E+02  0.21113252145E+02  0.36938458403E+02  0.19999988162E+01 0.  0.
        -13    1    3    3    0    0 -0.27075424815E+02 -0.13475966344E+02 -0.28246814744E+02  0.41383257545E+02  0.10566000000E+00 0.  1.
         13    1    4    4    0    0  0.54285352784E+01  0.21270217843E+01  0.40347000737E+01  0.70910637890E+01  0.10566000000E+00 0. -1.
        -13    1    4    4    0    0  0.20974345967E+02  0.10743947250E+02  0.16302524609E+02  0.28655524143E+02  0.10566000000E+00 0.  1.
        -14    1    4    4    0    0  0.67254356917E+00  0.60499731003E+00  0.77602746235E+00  0.11918704711E+01  0.00000000000E+00 0.  1.
<mgrwt>
<rscale>  0 0.77996176E+02</rscale>
<asrwt>0</asrwt>
<pdfrwt beam="1">  1        2 0.54760118E-02 0.77996176E+02</pdfrwt>
<pdfrwt beam="2">  1       -1 0.65734830E-02 0.77996176E+02</pdfrwt>
<totfact> 0.14935775E+05</totfact>
</mgrwt>
</event>
<event>
 8    1  0.1226832E-020  0.7922934E+02  0.7818608E-02  0.1331253E+00
          2   -1    0    0  501    0  0.00000000000E+00  0.00000000000E+00  0.74816302152E+02  0.74816302196E+02  0.25500000000E-02 0. -1.
         -1   -1    0    0    0  501 -0.00000000000E+00 -0.00000000000E+00 -0.20975667694E+02  0.20975668300E+02  0.50400000000E-02 0.  1.
         24    2    1    2    0    0  0.00000000000E+00  0.00000000000E+00  0.53840634458E+02  0.95791970496E+02  0.79229336061E+02 0.  0.
         66    2    3    3    0    0 -0.36496883102E+02  0.15320849832E+02  0.27847071732E+02  0.48437695261E+02  0.20000006044E+01 0.  0.
        -13    1    3    3    0    0  0.36496883102E+02 -0.15320849832E+02  0.25993562726E+02  0.47354275235E+02  0.10566000000E+00 0.  1.
         13    1    4    4    0    0 -0.24486259352E+02  0.10126976687E+02  0.18699603611E+02  0.32431757478E+02  0.10566000000E+00 0. -1.
        -13    1    4    4    0    0 -0.80952875322E+01  0.40625138613E+01  0.63931466522E+01  0.11086982784E+02  0.10566000000E+00 0.  1.
         14    1    4    4    0    0 -0.39153362183E+01  0.11313592837E+01  0.27543214682E+01  0.49189549990E+01  0.00000000000E+00 0. -1.
<mgrwt>
<rscale>  0 0.79229336E+02</rscale>
<asrwt>0</asrwt>
<pdfrwt beam="1">  1        2 0.11510200E-01 0.79229336E+02</pdfrwt>
<pdfrwt beam="2">  1       -1 0.32270259E-02 0.79229336E+02</pdfrwt>
<totfact> 0.16848987E+05</totfact>
</mgrwt>
</event>
<event>
 8    1  0.1226832E-020  0.7971083E+02  0.7818608E-02  0.1329874E+00
         -1   -1    0    0    0  501 -0.00000000000E+00  0.00000000000E+00  0.59873772161E+00  0.59875893386E+00  0.50400000000E-02 0.  1.
          2   -1    0    0  501    0  0.00000000000E+00 -0.00000000000E+00 -0.26529577499E+04  0.26529577499E+04  0.25500000000E-02 0. -1.
         24    2    1    2    0    0  0.00000000000E+00  0.17763568394E-14 -0.26523590121E+04  0.26535565088E+04  0.79710827979E+02 0.  0.
         66    2    3    3    0    0  0.15620617458E+01  0.11086563253E+02 -0.25994908949E+04  0.25995157751E+04  0.20000075672E+01 0.  0.
        -13    1    3    3    0    0 -0.15620617458E+01 -0.11086563253E+02 -0.52868117217E+02  0.54040733745E+02  0.10566000000E+00 0.  1.
         13    1    4    4    0    0  0.60971270225E+00  0.54384735909E+01 -0.13508381091E+04  0.13508491984E+04  0.10566000000E+00 0. -1.
        -13    1    4    4    0    0 -0.11762661895E+00  0.11692711310E+01 -0.35053597383E+03  0.35053795964E+03  0.10566000000E+00 0.  1.
         14    1    4    4    0    0  0.10699756625E+01  0.44788185310E+01 -0.89811681197E+03  0.89812861697E+03  0.00000000000E+00 0. -1.
<mgrwt>
<rscale>  0 0.79710828E+02</rscale>
<asrwt>0</asrwt>
<pdfrwt beam="1">  1        2 0.40813793E+00 0.79710828E+02</pdfrwt>
<pdfrwt beam="2">  1       -1 0.92117252E-04 0.79710828E+02</pdfrwt>
<totfact> 0.19087994E+05</totfact>
</mgrwt>
</event>
<event>
 8    1  0.1226832E-020  0.7936960E+02  0.7818608E-02  0.1330850E+00
         -1   -1    0    0    0  501 -0.00000000000E+00  0.00000000000E+00  0.39872376422E+02  0.39872376741E+02  0.50400000000E-02 0.  1.
          2   -1    0    0  501    0  0.00000000000E+00 -0.00000000000E+00 -0.39498104723E+02  0.39498104806E+02  0.25500000000E-02 0. -1.
         24    2    1    2    0    0  0.71054273576E-14  0.00000000000E+00  0.37427169874E+00  0.79370481547E+02  0.79369599102E+02 0.  0.
         66    2    3    3    0    0 -0.35861426618E+02 -0.37712776761E+01 -0.16323953047E+02  0.39632510686E+02  0.20000014478E+01 0.  0.
        -13    1    3    3    0    0  0.35861426618E+02  0.37712776761E+01  0.16698224746E+02  0.39737970860E+02  0.10566000000E+00 0.  1.
         13    1    4    4    0    0 -0.45128165643E+01 -0.37374993548E+00 -0.18202167837E+01  0.48815525739E+01  0.10566000000E+00 0. -1.
        -13    1    4    4    0    0 -0.73775307675E+01 -0.75571669821E+00 -0.26227934117E+01  0.78669738317E+01  0.10566000000E+00 0.  1.
         14    1    4    4    0    0 -0.23971079287E+02 -0.26418110424E+01 -0.11880942851E+02  0.26883984280E+02  0.00000000000E+00 0. -1.
<mgrwt>
<rscale>  0 0.79369599E+02</rscale>
<asrwt>0</asrwt>
<pdfrwt beam="1">  1        2 0.60766315E-02 0.79369599E+02</pdfrwt>
<pdfrwt beam="2">  1       -1 0.61342118E-02 0.79369599E+02</pdfrwt>
<totfact> 0.14532728E+05</totfact>
</mgrwt>
</event>
<event>
 8    1  0.1226832E-020  0.8151088E+02  0.7818608E-02  0.1324818E+00
         -1   -1    0    0    0  501 -0.00000000000E+00  0.00000000000E+00  0.13167407082E+01  0.13167503538E+01  0.50400000000E-02 0.  1.
          2   -1    0    0  501    0  0.00000000000E+00 -0.00000000000E+00 -0.12614479003E+04  0.12614479003E+04  0.25500000000E-02 0. -1.
         24    2    1    2    0    0 -0.35527136788E-14 -0.17763568394E-14 -0.12601311596E+04  0.12627646507E+04  0.81510880092E+02 0.  0.
         66    2    3    3    0    0 -0.24830000223E+02  0.11674309564E+02 -0.10967967341E+04  0.10971416930E+04  0.19999985307E+01 0.  0.
        -13    1    3    3    0    0  0.24830000223E+02 -0.11674309564E+02 -0.16333442549E+03  0.16562295773E+03  0.10566000000E+00 0.  1.
         13    1    4    4    0    0 -0.10964763286E+02  0.55327536955E+01 -0.47756138111E+03  0.47771929131E+03  0.10566000000E+00 0. -1.
        -13    1    4    4    0    0 -0.31425933975E+01  0.93775769481E+00 -0.12063754207E+03  0.12068215694E+03  0.10566000000E+00 0.  1.
        -14    1    4    4    0    0 -0.10722643539E+02  0.52037981737E+01 -0.49859781095E+03  0.49874024470E+03  0.00000000000E+00 0.  1.
<mgrwt>
<rscale>  0 0.81510880E+02</rscale>
<asrwt>0</asrwt>
<pdfrwt beam="1">  1        2 0.19406794E+00 0.81510880E+02</pdfrwt>
<pdfrwt beam="2">  1       -1 0.20257725E-03 0.81510880E+02</pdfrwt>
<totfact> 0.33150220E+05</totfact>
</mgrwt>
</event>
<event>
 8    1  0.1226832E-020  0.8036698E+02  0.7818608E-02  0.1328013E+00
          2   -1    0    0  501    0  0.00000000000E+00  0.00000000000E+00  0.18038405620E+02  0.18038405800E+02  0.25500000000E-02 0. -1.
         -1   -1    0    0    0  501 -0.00000000000E+00 -0.00000000000E+00 -0.89515265909E+02  0.89515266051E+02  0.50400000000E-02 0.  1.
         24    2    1    2    0    0  0.17763568394E-14  0.00000000000E+00 -0.71476860289E+02  0.10755367185E+03  0.80366975630E+02 0.  0.
         66    2    3    3    0    0  0.13394160623E+02 -0.11263871638E+02  0.12611113527E+02  0.21663760642E+02  0.19999994295E+01 0.  0.
        -13    1    3    3    0    0 -0.13394160623E+02  0.11263871638E+02 -0.84087973816E+02  0.85889911209E+02  0.10566000000E+00 0.  1.
         13    1    4    4    0    0  0.57028928830E+01 -0.42550456426E+01  0.46683610497E+01  0.85107672734E+01  0.10566000000E+00 0. -1.
        -13    1    4    4    0    0  0.52305002670E+01 -0.43974892205E+01  0.45168337131E+01  0.81920080149E+01  0.10566000000E+00 0.  1.
        -14    1    4    4    0    0  0.24607674728E+01 -0.26113367745E+01  0.34259187638E+01  0.49609853539E+01  0.00000000000E+00 0.  1.
<mgrwt>
<rscale>  0 0.80366976E+02</rscale>
<asrwt>0</asrwt>
<pdfrwt beam="1">  1        2 0.27751394E-02 0.80366976E+02</pdfrwt>
<pdfrwt beam="2">  1       -1 0.13771579E-01 0.80366976E+02</pdfrwt>
<totfact> 0.11996131E+05</totfact>
</mgrwt>
</event>
<event>
 8    1  0.1226832E-020  0.8047972E+02  0.7818608E-02  0.1327696E+00
          2   -1    0    0  501    0  0.00000000000E+00  0.00000000000E+00  0.33304698682E+03  0.33304698683E+03  0.25500000000E-02 0. -1.
         -1   -1    0    0    0  501 -0.00000000000E+00 -0.00000000000E+00 -0.48619139491E+01  0.48619165614E+01  0.50400000000E-02 0.  1.
         24    2    1    2    0    0  0.00000000000E+00  0.00000000000E+00  0.32818507287E+03  0.33790890339E+03  0.80479717543E+02 0.  0.
         66    2    3    3    0    0  0.26577715030E+02  0.22337646429E+02  0.24940680042E+03  0.25181957329E+03  0.20000020537E+01 0.  0.
        -13    1    3    3    0    0 -0.26577715030E+02 -0.22337646429E+02  0.78778272451E+02  0.86089330109E+02  0.10566000000E+00 0.  1.
         13    1    4    4    0    0  0.15519265753E+02  0.11848882020E+02  0.13979657171E+03  0.14115359095E+03  0.10566000000E+00 0.  1.
        -13    1    4    4    0    0  0.88226495274E+01  0.80914189980E+01  0.85968521183E+02  0.86798087562E+02  0.10566000000E+00 0. -1.
        -14    1    4    4    0    0  0.22357997495E+01  0.23973454110E+01  0.23641707536E+02  0.23867894770E+02  0.00000000000E+00 0.  1.
<mgrwt>
<rscale>  0 0.80479718E+02</rscale>
<asrwt>0</asrwt>
<pdfrwt beam="1">  1        2 0.51237999E-01 0.80479718E+02</pdfrwt>
<pdfrwt beam="2">  1       -1 0.74798696E-03 0.80479718E+02</pdfrwt>
<totfact> 0.26063171E+05</totfact>
</mgrwt>
</event>
<event>
 8    1  0.1226832E-020  0.8052753E+02  0.7818608E-02  0.1327561E+00
          2   -1    0    0  501    0  0.00000000000E+00  0.00000000000E+00  0.82526003642E+03  0.82526003642E+03  0.25500000000E-02 0. -1.
         -1   -1    0    0    0  501 -0.00000000000E+00 -0.00000000000E+00 -0.19644332960E+01  0.19644397614E+01  0.50400000000E-02 0.  1.
         24    2    1    2    0    0 -0.22204460493E-15  0.00000000000E+00  0.82329560312E+03  0.82722447618E+03  0.80527534898E+02 0.  0.
         66    2    3    3    0    0  0.18371291952E+01 -0.29093845975E+02  0.69683081032E+03  0.69744319132E+03  0.19999988759E+01 0.  0.
        -13    1    3    3    0    0 -0.18371291952E+01  0.29093845975E+02  0.12646479280E+03  0.12978128486E+03  0.10566000000E+00 0.  1.
         13    1    4    4    0    0  0.10556596381E+00 -0.12220611895E+02  0.29728982898E+03  0.29754093513E+03  0.10566000000E+00 0. -1.
        -13    1    4    4    0    0  0.26733199504E+00 -0.10488729999E+01  0.21755225739E+02  0.21782392245E+02  0.10566000000E+00 0.  1.
         14    1    4    4    0    0  0.14642312364E+01 -0.15824361079E+02  0.37778575560E+03  0.37811986394E+03  0.00000000000E+00 0. -1.
<mgrwt>
<rscale>  0 0.80527535E+02</rscale>
<asrwt>0</asrwt>
<pdfrwt beam="1">  1        2 0.12696283E+00 0.80527535E+02</pdfrwt>
<pdfrwt beam="2">  1       -1 0.30222162E-03 0.80527535E+02</pdfrwt>
<totfact> 0.33957395E+05</totfact>
</mgrwt>
</event>
<event>
 8    1  0.1226832E-020  0.8129330E+02  0.7818608E-02  0.1325421E+00
          2   -1    0    0  501    0  0.00000000000E+00  0.00000000000E+00  0.12064706844E+03  0.12064706847E+03  0.25500000000E-02 0. -1.
         -1   -1    0    0    0  501 -0.00000000000E+00 -0.00000000000E+00 -0.13694077287E+02  0.13694078215E+02  0.50400000000E-02 0.  1.
         24    2    1    2    0    0 -0.35527136788E-14 -0.17763568394E-14  0.10695299116E+03  0.13434114669E+03  0.81293304616E+02 0.  0.
         66    2    3    3    0    0  0.30331834112E+02  0.96617103827E+01  0.95209901330E+02  0.10041062752E+03  0.19999999106E+01 0.  0.
        -13    1    3    3    0    0 -0.30331834112E+02 -0.96617103827E+01  0.11743089827E+02  0.33930519165E+02  0.10566000000E+00 0.  1.
         13    1    4    4    0    0  0.26069843361E+01  0.11617366235E+01  0.93337559868E+01  0.97609509869E+01  0.10566000000E+00 0. -1.
        -13    1    4    4    0    0  0.66770669504E+01  0.15927771310E+01  0.21398544463E+02  0.22472850981E+02  0.10566000000E+00 0.  1.
        -14    1    4    4    0    0  0.21047782825E+02  0.69071966282E+01  0.64477600880E+02  0.68176825552E+02  0.00000000000E+00 0.  1.
<mgrwt>
<rscale>  0 0.81293305E+02</rscale>
<asrwt>0</asrwt>
<pdfrwt beam="1">  1        2 0.18561087E-01 0.81293305E+02</pdfrwt>
<pdfrwt beam="2">  1       -1 0.21067813E-02 0.81293305E+02</pdfrwt>
<totfact> 0.17932448E+05</totfact>
</mgrwt>
</event>
<event>
 8    1  0.1226832E-020  0.7968269E+02  0.7818608E-02  0.1329954E+00
         -1   -1    0    0    0  501 -0.00000000000E+00  0.00000000000E+00  0.64297930162E+02  0.64297930359E+02  0.50400000000E-02 0.  1.
          2   -1    0    0  501    0  0.00000000000E+00 -0.00000000000E+00 -0.24687153894E+02  0.24687154026E+02  0.25500000000E-02 0. -1.
         24    2    1    2    0    0  0.00000000000E+00  0.00000000000E+00  0.39610776268E+02  0.88985084385E+02  0.79682693519E+02 0.  0.
         66    2    3    3    0    0  0.10454876234E+02 -0.13384866729E+01 -0.23060328038E+02  0.25433731428E+02  0.19999953727E+01 0.  0.
        -13    1    3    3    0    0 -0.10454876234E+02  0.13384866729E+01  0.62671104306E+02  0.63551352957E+02  0.10566000000E+00 0.  1.
         13    1    4    4    0    0  0.62172538611E+01 -0.10233908752E+01 -0.13641968641E+02  0.15027176944E+02  0.10566000000E+00 0. -1.
        -13    1    4    4    0    0  0.12505981800E+01 -0.63204670737E+00 -0.25883092912E+01  0.29451634709E+01  0.10566000000E+00 0.  1.
         14    1    4    4    0    0  0.29870241929E+01  0.31695090964E+00 -0.68300501059E+01  0.74613910136E+01  0.00000000000E+00 0. -1.
<mgrwt>
<rscale>  0 0.79682694E+02</rscale>
<asrwt>0</asrwt>
<pdfrwt beam="1">  1        2 0.37980237E-02 0.79682694E+02</pdfrwt>
<pdfrwt beam="2">  1       -1 0.98919893E-02 0.79682694E+02</pdfrwt>
<totfact> 0.13094748E+05</totfact>
</mgrwt>
</event>
<event>
 8    1  0.1226832E-020  0.7701946E+02  0.7818608E-02  0.1337729E+00
         -1   -1    0    0    0  501 -0.00000000000E+00  0.00000000000E+00  0.17192405119E+03  0.17192405126E+03  0.50400000000E-02 0.  1.
          2   -1    0    0  501    0  0.00000000000E+00 -0.00000000000E+00 -0.86258977505E+01  0.86258981274E+01  0.25500000000E-02 0. -1.
         24    2    1    2    0    0  0.00000000000E+00 -0.35527136788E-14  0.16329815344E+03  0.18054994939E+03  0.77019460583E+02 0.  0.
         66    2    3    3    0    0  0.24081148794E+02  0.28673181890E+02  0.10253205346E+03  0.10917360066E+03  0.20000020707E+01 0.  0.
        -13    1    3    3    0    0 -0.24081148794E+02 -0.28673181890E+02  0.60766099978E+02  0.71376348726E+02  0.10566000000E+00 0.  1.
         13    1    4    4    0    0  0.10385592271E+02  0.12131244867E+02  0.42134771400E+02  0.45059713202E+02  0.10566000000E+00 0. -1.
        -13    1    4    4    0    0  0.13374116298E+02  0.16383477057E+02  0.59219780239E+02  0.62883056882E+02  0.10566000000E+00 0.  1.
        -14    1    4    4    0    0  0.32144022471E+00  0.15845996520E+00  0.11775018218E+01  0.12308305809E+01  0.00000000000E+00 0.  1.
<mgrwt>
<rscale>  0 0.77019461E+02</rscale>
<asrwt>0</asrwt>
<pdfrwt beam="1">  1        2 0.13270613E-02 0.77019461E+02</pdfrwt>
<pdfrwt beam="2">  1       -1 0.26449853E-01 0.77019461E+02</pdfrwt>
<totfact> 0.11456056E+05</totfact>
</mgrwt>
</event>
<event>
 8    1  0.1226832E-020  0.8012341E+02  0.7818608E-02  0.1328702E+00
          2   -1    0    0  501    0  0.00000000000E+00  0.00000000000E+00  0.14353194020E+02  0.14353194247E+02  0.25500000000E-02 0. -1.
         -1   -1    0    0    0  501 -0.00000000000E+00 -0.00000000000E+00 -0.11181762916E+03  0.11181762927E+03  0.50400000000E-02 0.  1.
         24    2    1    2    0    0  0.00000000000E+00  0.35527136788E-14 -0.97464435140E+02  0.12617082352E+03  0.80123408506E+02 0.  0.
         66    2    3    3    0    0  0.25186189877E+02  0.28084665359E+02 -0.27644836204E+02  0.46811639121E+02  0.19999999074E+01 0.  0.
        -13    1    3    3    0    0 -0.25186189877E+02 -0.28084665359E+02 -0.69819598936E+02  0.79359184399E+02  0.10566000000E+00 0.  1.
         13    1    4    4    0    0  0.65064199181E+01  0.67756977601E+01 -0.64488117902E+01  0.11394819780E+02  0.10566000000E+00 0. -1.
        -13    1    4    4    0    0  0.11283182390E+02  0.12042194462E+02 -0.12892209857E+02  0.20941463448E+02  0.10566000000E+00 0.  1.
        -14    1    4    4    0    0  0.73965875690E+01  0.92667731368E+01 -0.83038145562E+01  0.14475355893E+02  0.00000000000E+00 0.  1.
<mgrwt>
<rscale>  0 0.80123409E+02</rscale>
<asrwt>0</asrwt>
<pdfrwt beam="1">  1        2 0.22081838E-02 0.80123409E+02</pdfrwt>
<pdfrwt beam="2">  1       -1 0.17202712E-01 0.80123409E+02</pdfrwt>
<totfact> 0.11522885E+05</totfact>
</mgrwt>
</event>
<event>
 8    1  0.1226832E-020  0.7937657E+02  0.7818608E-02  0.1330830E+00
         -1   -1    0    0    0  501 -0.00000000000E+00  0.00000000000E+00  0.36840964800E+02  0.36840965145E+02  0.50400000000E-02 0.  1.
          2   -1    0    0  501    0  0.00000000000E+00 -0.00000000000E+00 -0.42755665802E+02  0.42755665878E+02  0.25500000000E-02 0. -1.
         24    2    1    2    0    0  0.11102230246E-15  0.00000000000E+00 -0.59147010020E+01  0.79596631023E+02  0.79376570739E+02 0.  0.
         66    2    3    3    0    0 -0.70858168409E+00 -0.21828579914E+02 -0.36159409646E+02  0.42290565109E+02  0.20000005512E+01 0.  0.
        -13    1    3    3    0    0  0.70858168409E+00  0.21828579914E+02  0.30244708644E+02  0.37306065915E+02  0.10566000000E+00 0.  1.
         13    1    4    4    0    0  0.50079603415E+00 -0.63024184814E+01 -0.96491222938E+01  0.11536377267E+02  0.10566000000E+00 0. -1.
        -13    1    4    4    0    0 -0.10535733584E+01 -0.95541462333E+01 -0.16077416297E+02  0.18731956809E+02  0.10566000000E+00 0.  1.
         14    1    4    4    0    0 -0.15580435984E+00 -0.59720151990E+01 -0.10432871055E+02  0.12022231032E+02  0.00000000000E+00 0. -1.
<mgrwt>
<rscale>  0 0.79376571E+02</rscale>
<asrwt>0</asrwt>
<pdfrwt beam="1">  1        2 0.65777948E-02 0.79376571E+02</pdfrwt>
<pdfrwt beam="2">  1       -1 0.56678408E-02 0.79376571E+02</pdfrwt>
<totfact> 0.14768059E+05</totfact>
</mgrwt>
</event>
<event>
 8    1  0.1226832E-020  0.8122496E+02  0.7818608E-02  0.1325611E+00
         -1   -1    0    0    0  501 -0.00000000000E+00  0.00000000000E+00  0.80408110510E+01  0.80408126306E+01  0.50400000000E-02 0.  1.
          2   -1    0    0  501    0  0.00000000000E+00 -0.00000000000E+00 -0.20512526962E+03  0.20512526963E+03  0.25500000000E-02 0. -1.
         24    2    1    2    0    0 -0.14210854715E-13 -0.88817841970E-15 -0.19708445857E+03  0.21316608227E+03  0.81224964262E+02 0.  0.
         66    2    3    3    0    0 -0.37792592288E+02 -0.27552840894E+01 -0.13676817159E+03  0.14193450738E+03  0.20000004770E+01 0.  0.
        -13    1    3    3    0    0  0.37792592288E+02  0.27552840894E+01 -0.60316286977E+02  0.71231574888E+02  0.10566000000E+00 0.  1.
         13    1    4    4    0    0 -0.30855764501E+02 -0.23997319809E+01 -0.11215308505E+03  0.11634501522E+03  0.10566000000E+00 0. -1.
        -13    1    4    4    0    0 -0.64737639308E+01 -0.53587993092E+00 -0.22947222485E+02  0.23849171276E+02  0.10566000000E+00 0.  1.
        -14    1    4    4    0    0 -0.46306385589E+00  0.18032782246E+00 -0.16678640583E+01  0.17403208828E+01  0.00000000000E+00 0.  1.
<mgrwt>
<rscale>  0 0.81224964E+02</rscale>
<asrwt>0</asrwt>
<pdfrwt beam="1">  1        2 0.31557730E-01 0.81224964E+02</pdfrwt>
<pdfrwt beam="2">  1       -1 0.12370481E-02 0.81224964E+02</pdfrwt>
<totfact> 0.21378751E+05</totfact>
</mgrwt>
</event>
<event>
 8    1  0.1226832E-020  0.7536400E+02  0.7818608E-02  0.1342748E+00
          2   -1    0    0  501    0  0.00000000000E+00  0.00000000000E+00  0.15485673737E+02  0.15485673947E+02  0.25500000000E-02 0. -1.
         -1   -1    0    0    0  501 -0.00000000000E+00 -0.00000000000E+00 -0.91693346343E+02  0.91693346481E+02  0.50400000000E-02 0.  1.
         24    2    1    2    0    0 -0.44408920985E-15  0.00000000000E+00 -0.76207672606E+02  0.10717902043E+03  0.75364003715E+02 0.  0.
         66    2    3    3    0    0 -0.36570389688E+01  0.34428464965E+02 -0.17073376938E+02  0.38654796813E+02  0.19999956766E+01 0.  0.
        -13    1    3    3    0    0  0.36570389688E+01 -0.34428464965E+02 -0.59134295668E+02  0.68524223615E+02  0.10566000000E+00 0.  1.
         13    1    4    4    0    0 -0.16915212409E+00  0.56714815904E+01 -0.24120079738E+01  0.61663005419E+01  0.10566000000E+00 0. -1.
        -13    1    4    4    0    0 -0.40075375902E+00  0.17964997244E+01 -0.11648604435E+01  0.21808435807E+01  0.10566000000E+00 0.  1.
         14    1    4    4    0    0 -0.30871330857E+01  0.26960483651E+02 -0.13496508521E+02  0.30307652691E+02  0.00000000000E+00 0. -1.
<mgrwt>
<rscale>  0 0.75364004E+02</rscale>
<asrwt>0</asrwt>
<pdfrwt beam="1">  1        2 0.23824114E-02 0.75364004E+02</pdfrwt>
<pdfrwt beam="2">  1       -1 0.14106668E-01 0.75364004E+02</pdfrwt>
<totfact> 0.14002041E+05</totfact>
</mgrwt>
</event>
<event>
 8    1  0.1226832E-020  0.8130964E+02  0.7818608E-02  0.1325375E+00
         -1   -1    0    0    0  501 -0.00000000000E+00  0.00000000000E+00  0.18114307888E+01  0.18114378002E+01  0.50400000000E-02 0.  1.
          2   -1    0    0  501    0  0.00000000000E+00 -0.00000000000E+00 -0.91243398508E+03  0.91243398508E+03  0.25500000000E-02 0. -1.
         24    2    1    2    0    0  0.00000000000E+00  0.35527136788E-14 -0.91062255429E+03  0.91424542288E+03  0.81309635838E+02 0.  0.
         66    2    3    3    0    0 -0.17850549326E+02  0.25238622959E+02 -0.75204803885E+03  0.75268577968E+03  0.19999991743E+01 0.  0.
        -13    1    3    3    0    0  0.17850549326E+02 -0.25238622959E+02 -0.15857451544E+03  0.16155964320E+03  0.10566000000E+00 0.  1.
         13    1    4    4    0    0 -0.77748631581E+01  0.96083849243E+01 -0.29710286267E+03  0.29735986906E+03  0.10566000000E+00 0. -1.
        -13    1    4    4    0    0 -0.16053064011E+01  0.27005659024E+01 -0.70100093650E+02  0.70170537682E+02  0.10566000000E+00 0.  1.
         14    1    4    4    0    0 -0.84703797667E+01  0.12929672133E+02 -0.38484508254E+03  0.38515537294E+03  0.00000000000E+00 0. -1.
<mgrwt>
<rscale>  0 0.81309636E+02</rscale>
<asrwt>0</asrwt>
<pdfrwt beam="1">  1        2 0.14037409E+00 0.81309636E+02</pdfrwt>
<pdfrwt beam="2">  1       -1 0.27868293E-03 0.81309636E+02</pdfrwt>
<totfact> 0.33551322E+05</totfact>
</mgrwt>
</event>
<event>
 8    1  0.1226832E-020  0.7918688E+02  0.7818608E-02  0.1331375E+00
         -1   -1    0    0    0  501 -0.00000000000E+00  0.00000000000E+00  0.78915335821E+02  0.78915335982E+02  0.50400000000E-02 0.  1.
          2   -1    0    0  501    0  0.00000000000E+00 -0.00000000000E+00 -0.19864838327E+02  0.19864838490E+02  0.25500000000E-02 0. -1.
         24    2    1    2    0    0  0.00000000000E+00 -0.88817841970E-15  0.59050497494E+02  0.98780174472E+02  0.79186877792E+02 0.  0.
         66    2    3    3    0    0 -0.26791317779E+02 -0.42331743033E+01 -0.63928334374E+01  0.27938553934E+02  0.20000008741E+01 0.  0.
        -13    1    3    3    0    0  0.26791317779E+02  0.42331743033E+01  0.65443330932E+02  0.70841620539E+02  0.10566000000E+00 0.  1.
         13    1    4    4    0    0 -0.30563414685E+01 -0.14379753328E+00 -0.11106806440E+01  0.32567892825E+01  0.10566000000E+00 0. -1.
        -13    1    4    4    0    0 -0.76483902633E+01 -0.17491829819E+01 -0.14329256352E+01  0.79763371692E+01  0.10566000000E+00 0.  1.
        -14    1    4    4    0    0 -0.16086586048E+02 -0.23401937881E+01 -0.38492271582E+01  0.16705427482E+02  0.00000000000E+00 0.  1.
<mgrwt>
<rscale>  0 0.79186878E+02</rscale>
<asrwt>0</asrwt>
<pdfrwt beam="1">  1        2 0.30561290E-02 0.79186878E+02</pdfrwt>
<pdfrwt beam="2">  1       -1 0.12140821E-01 0.79186878E+02</pdfrwt>
<totfact> 0.12767679E+05</totfact>
</mgrwt>
</event>
<event>
 8    1  0.1226832E-020  0.8044732E+02  0.7818608E-02  0.1327787E+00
          2   -1    0    0  501    0  0.00000000000E+00  0.00000000000E+00  0.67964289998E+03  0.67964289998E+03  0.25500000000E-02 0. -1.
         -1   -1    0    0    0  501 -0.00000000000E+00 -0.00000000000E+00 -0.23805753636E+01  0.23805806988E+01  0.50400000000E-02 0.  1.
         24    2    1    2    0    0  0.00000000000E+00  0.00000000000E+00  0.67726232461E+03  0.68202348068E+03  0.80447323504E+02 0.  0.
         66    2    3    3    0    0  0.16083215673E+02  0.27295208824E+02  0.54861234316E+03  0.54952998219E+03  0.20000009052E+01 0.  0.
        -13    1    3    3    0    0 -0.16083215673E+02 -0.27295208824E+02  0.12864998145E+03  0.13249349849E+03  0.10566000000E+00 0.  1.
         13    1    4    4    0    0  0.34286166874E+01  0.53471188038E+01  0.10239568723E+03  0.10259256806E+03  0.10566000000E+00 0. -1.
        -13    1    4    4    0    0  0.11352660990E+02  0.18829509843E+02  0.38357139636E+03  0.38420106796E+03  0.10566000000E+00 0.  1.
        -14    1    4    4    0    0  0.13019379961E+01  0.31185801772E+01  0.62645259571E+02  0.62736346176E+02  0.00000000000E+00 0.  1.
<mgrwt>
<rscale>  0 0.80447324E+02</rscale>
<asrwt>0</asrwt>
<pdfrwt beam="1">  1        2 0.10456048E+00 0.80447324E+02</pdfrwt>
<pdfrwt beam="2">  1       -1 0.36624265E-03 0.80447324E+02</pdfrwt>
<totfact> 0.32743023E+05</totfact>
</mgrwt>
</event>
<event>
 8    1  0.1226832E-020  0.8164444E+02  0.7818608E-02  0.1324448E+00
         -1   -1    0    0    0  501 -0.00000000000E+00  0.00000000000E+00  0.27926111385E+01  0.27926156865E+01  0.50400000000E-02 0.  1.
          2   -1    0    0  501    0  0.00000000000E+00 -0.00000000000E+00 -0.59673620017E+03  0.59673620018E+03  0.25500000000E-02 0. -1.
         24    2    1    2    0    0  0.35527136788E-14  0.00000000000E+00 -0.59394358903E+03  0.59952881586E+03  0.81644437026E+02 0.  0.
         66    2    3    3    0    0 -0.25333507878E+02  0.15358394476E+02 -0.50312263402E+03  0.50399806722E+03  0.19999997418E+01 0.  0.
        -13    1    3    3    0    0  0.25333507878E+02 -0.15358394476E+02 -0.90820955011E+02  0.95530748638E+02  0.10566000000E+00 0.  1.
         13    1    4    4    0    0 -0.79145822492E+01  0.47208888235E+01 -0.14594028584E+03  0.14623100082E+03  0.10566000000E+00 0.  1.
        -13    1    4    4    0    0 -0.16300557232E+01  0.70704335028E+00 -0.35063118027E+02  0.35108266858E+02  0.10566000000E+00 0. -1.
         14    1    4    4    0    0 -0.15788869906E+02  0.99304623022E+01 -0.32211923015E+03  0.32265879955E+03  0.00000000000E+00 0. -1.
<mgrwt>
<rscale>  0 0.81644437E+02</rscale>
<asrwt>0</asrwt>
<pdfrwt beam="1">  1        2 0.91805468E-01 0.81644437E+02</pdfrwt>
<pdfrwt beam="2">  1       -1 0.42963331E-03 0.81644437E+02</pdfrwt>
<totfact> 0.30456795E+05</totfact>
</mgrwt>
</event>
<event>
 8    1  0.1226832E-020  0.8395873E+02  0.7818608E-02  0.1318178E+00
         -1   -1    0    0    0  501 -0.00000000000E+00  0.00000000000E+00  0.62074272324E+02  0.62074272528E+02  0.50400000000E-02 0.  1.
          2   -1    0    0  501    0  0.00000000000E+00 -0.00000000000E+00 -0.28389654464E+02  0.28389654578E+02  0.25500000000E-02 0. -1.
         24    2    1    2    0    0  0.35527136788E-14  0.00000000000E+00  0.33684617860E+02  0.90463927107E+02  0.83958731691E+02 0.  0.
         66    2    3    3    0    0 -0.26511725531E+02 -0.75093824600E+01 -0.17238124883E+02  0.32564019438E+02  0.19999992247E+01 0.  0.
        -13    1    3    3    0    0  0.26511725531E+02  0.75093824600E+01  0.50922742743E+02  0.57899907669E+02  0.10566000000E+00 0.  1.
         13    1    4    4    0    0 -0.66380777111E+00 -0.22583325133E+00 -0.80900481072E+00  0.10757761076E+01  0.10566000000E+00 0.  1.
        -13    1    4    4    0    0 -0.83787872633E+01 -0.26538092461E+01 -0.54768534787E+01  0.10356344316E+02  0.10566000000E+00 0. -1.
         14    1    4    4    0    0 -0.17469130496E+02 -0.46297399625E+01 -0.10952266594E+02  0.21131899015E+02  0.00000000000E+00 0. -1.
<mgrwt>
<rscale>  0 0.83958732E+02</rscale>
<asrwt>0</asrwt>
<pdfrwt beam="1">  1        2 0.43676392E-02 0.83958732E+02</pdfrwt>
<pdfrwt beam="2">  1       -1 0.95498881E-02 0.83958732E+02</pdfrwt>
<totfact> 0.11613033E+05</totfact>
</mgrwt>
</event>
<event>
 8    1  0.1226832E-020  0.8086294E+02  0.7818608E-02  0.1326620E+00
          2   -1    0    0  501    0  0.00000000000E+00  0.00000000000E+00  0.17404487142E+04  0.17404487142E+04  0.25500000000E-02 0. -1.
         -1   -1    0    0    0  501 -0.00000000000E+00 -0.00000000000E+00 -0.93923590588E+00  0.93924942827E+00  0.50400000000E-02 0.  1.
         24    2    1    2    0    0  0.00000000000E+00 -0.17763568394E-14  0.17395094783E+04  0.17413879636E+04  0.80862938363E+02 0.  0.
         66    2    3    3    0    0  0.97420367791E+01  0.14796699367E+02  0.16523516228E+04  0.16524478010E+04  0.20000045390E+01 0.  0.
        -13    1    3    3    0    0 -0.97420367791E+01 -0.14796699367E+02  0.87157855444E+02  0.88940162595E+02  0.10566000000E+00 0.  1.
         13    1    4    4    0    0  0.26058290234E+01  0.29513185254E+01  0.33579195444E+03  0.33581505097E+03  0.10566000000E+00 0. -1.
        -13    1    4    4    0    0  0.10884744294E+01  0.20585382752E+01  0.18828526899E+03  0.18829969740E+03  0.10566000000E+00 0.  1.
         14    1    4    4    0    0  0.60477333262E+01  0.97868425665E+01  0.11282743994E+04  0.11283330526E+04  0.00000000000E+00 0. -1.
<mgrwt>
<rscale>  0 0.80862938E+02</rscale>
<asrwt>0</asrwt>
<pdfrwt beam="1">  1        2 0.26776374E+00 0.80862938E+02</pdfrwt>
<pdfrwt beam="2">  1       -1 0.14449758E-03 0.80862938E+02</pdfrwt>
<totfact> 0.30042656E+05</totfact>
</mgrwt>
</event>
<event>
 8    1  0.1226832E-020  0.7905189E+02  0.7818608E-02  0.1331764E+00
          2   -1    0    0  501    0  0.00000000000E+00  0.00000000000E+00  0.11059208622E+04  0.11059208622E+04  0.25500000000E-02 0. -1.
         -1   -1    0    0    0  501 -0.00000000000E+00 -0.00000000000E+00 -0.14126646681E+01  0.14126736587E+01  0.50400000000E-02 0.  1.
         24    2    1    2    0    0  0.00000000000E+00  0.00000000000E+00  0.11045081975E+04  0.11073335359E+04  0.79051889470E+02 0.  0.
         66    2    3    3    0    0 -0.13874700901E+02  0.13142347700E+02  0.10368484016E+04  0.10370264396E+04  0.20000014088E+01 0.  0.
        -13    1    3    3    0    0  0.13874700901E+02 -0.13142347700E+02  0.67659795955E+02  0.70307096234E+02  0.10566000000E+00 0.  1.
         13    1    4    4    0    0 -0.30963991930E+00  0.21495042645E+00  0.20382817802E+02  0.20386576617E+02  0.10566000000E+00 0. -1.
        -13    1    4    4    0    0 -0.58100869201E+01  0.67269507880E+01  0.49217938006E+03  0.49225964926E+03  0.10566000000E+00 0. -1.
         14    1    4    4    0    0 -0.77549740618E+01  0.62004464860E+01  0.52428620374E+03  0.52438021376E+03  0.00000000000E+00 0. -1.
<mgrwt>
<rscale>  0 0.79051889E+02</rscale>
<asrwt>0</asrwt>
<pdfrwt beam="1">  1        2 0.17014216E+00 0.79051889E+02</pdfrwt>
<pdfrwt beam="2">  1       -1 0.21733309E-03 0.79051889E+02</pdfrwt>
<totfact> 0.36352777E+05</totfact>
</mgrwt>
</event>
<event>
 8    1  0.1226832E-020  0.7802706E+02  0.7818608E-02  0.1334745E+00
          2   -1    0    0  501    0  0.00000000000E+00  0.00000000000E+00  0.10173687916E+03  0.10173687920E+03  0.25500000000E-02 0. -1.
         -1   -1    0    0    0  501 -0.00000000000E+00 -0.00000000000E+00 -0.14960704170E+02  0.14960705019E+02  0.50400000000E-02 0.  1.
         24    2    1    2    0    0  0.00000000000E+00  0.35527136788E-14  0.86776174995E+02  0.11669758422E+03  0.78027056942E+02 0.  0.
         66    2    3    3    0    0  0.32524075426E+02  0.18753095677E+02  0.27690865944E+02  0.46693448699E+02  0.20000037240E+01 0.  0.
        -13    1    3    3    0    0 -0.32524075426E+02 -0.18753095677E+02  0.59085309051E+02  0.70004135517E+02  0.10566000000E+00 0.  1.
         13    1    4    4    0    0  0.19660220328E+02  0.11493194061E+02  0.15886530436E+02  0.27767080985E+02  0.10566000000E+00 0. -1.
        -13    1    4    4    0    0  0.71098252559E+01  0.35598230796E+01  0.64630681941E+01  0.10247164000E+02  0.10566000000E+00 0.  1.
         14    1    4    4    0    0  0.57540298421E+01  0.37000785358E+01  0.53412673136E+01  0.86792037141E+01  0.00000000000E+00 0. -1.
<mgrwt>
<rscale>  0 0.78027057E+02</rscale>
<asrwt>0</asrwt>
<pdfrwt beam="1">  1        2 0.15651828E-01 0.78027057E+02</pdfrwt>
<pdfrwt beam="2">  1       -1 0.23016468E-02 0.78027057E+02</pdfrwt>
<totfact> 0.19041592E+05</totfact>
</mgrwt>
</event>
<event>
 8    1  0.1226832E-020  0.7963850E+02  0.7818608E-02  0.1330080E+00
         -1   -1    0    0    0  501 -0.00000000000E+00  0.00000000000E+00  0.42655289690E+01  0.42655319465E+01  0.50400000000E-02 0.  1.
          2   -1    0    0  501    0  0.00000000000E+00 -0.00000000000E+00 -0.37171755069E+03  0.37171755070E+03  0.25500000000E-02 0. -1.
         24    2    1    2    0    0  0.88817841970E-15 -0.35527136788E-14 -0.36745202172E+03  0.37598308264E+03  0.79638496775E+02 0.  0.
         66    2    3    3    0    0  0.64648578917E+01  0.21875360586E+02 -0.33778503096E+03  0.33856026483E+03  0.19999983782E+01 0.  0.
        -13    1    3    3    0    0 -0.64648578917E+01 -0.21875360586E+02 -0.29666990762E+02  0.37422817816E+02  0.10566000000E+00 0.  1.
         13    1    4    4    0    0  0.14009898615E+01  0.55700729299E+01 -0.87427156038E+02  0.87615679316E+02  0.10566000000E+00 0. -1.
        -13    1    4    4    0    0  0.11319925000E+01  0.20575677195E+01 -0.38605082349E+02  0.38676589032E+02  0.10566000000E+00 0.  1.
         14    1    4    4    0    0  0.39318755302E+01  0.14247719937E+02 -0.21175279257E+03  0.21226799648E+03  0.00000000000E+00 0. -1.
<mgrwt>
<rscale>  0 0.79638497E+02</rscale>
<asrwt>0</asrwt>
<pdfrwt beam="1">  1        2 0.57187290E-01 0.79638497E+02</pdfrwt>
<pdfrwt beam="2">  1       -1 0.65623575E-03 0.79638497E+02</pdfrwt>
<totfact> 0.27860124E+05</totfact>
</mgrwt>
</event>
<event>
 8    1  0.1226832E-020  0.8138448E+02  0.7818608E-02  0.1325168E+00
         -1   -1    0    0    0  501 -0.00000000000E+00  0.00000000000E+00  0.63040074237E+02  0.63040074438E+02  0.50400000000E-02 0.  1.
          2   -1    0    0  501    0  0.00000000000E+00 -0.00000000000E+00 -0.26266760448E+02  0.26266760572E+02  0.25500000000E-02 0. -1.
         24    2    1    2    0    0  0.17763568394E-14  0.35527136788E-14  0.36773313789E+02  0.89306835010E+02  0.81384483610E+02 0.  0.
         66    2    3    3    0    0 -0.14065454986E+02 -0.31992987822E+02 -0.44224307190E+01  0.35283795265E+02  0.20000052674E+01 0.  0.
        -13    1    3    3    0    0  0.14065454986E+02  0.31992987822E+02  0.41195744508E+02  0.54023039745E+02  0.10566000000E+00 0.  1.
         13    1    4    4    0    0 -0.80308019637E+01 -0.18505424689E+02 -0.23414652469E+01  0.20308573230E+02  0.10566000000E+00 0. -1.
        -13    1    4    4    0    0 -0.26980117968E+01 -0.64221396591E+01 -0.15921828086E+01  0.71462826412E+01  0.10566000000E+00 0.  1.
         14    1    4    4    0    0 -0.33366412259E+01 -0.70654234740E+01 -0.48878266357E+00  0.78289393937E+01  0.00000000000E+00 0. -1.
<mgrwt>
<rscale>  0 0.81384484E+02</rscale>
<asrwt>0</asrwt>
<pdfrwt beam="1">  1        2 0.40410401E-02 0.81384484E+02</pdfrwt>
<pdfrwt beam="2">  1       -1 0.96984729E-02 0.81384484E+02</pdfrwt>
<totfact> 0.12486686E+05</totfact>
</mgrwt>
</event>
<event>
 8    1  0.1226832E-020  0.7045732E+02  0.7818608E-02  0.1358545E+00
         -1   -1    0    0    0  501 -0.00000000000E+00  0.00000000000E+00  0.49226005671E+03  0.49226005674E+03  0.50400000000E-02 0.  1.
          2   -1    0    0  501    0  0.00000000000E+00 -0.00000000000E+00 -0.25211430341E+01  0.25211443237E+01  0.25500000000E-02 0. -1.
         24    2    1    2    0    0 -0.35527136788E-14  0.00000000000E+00  0.48973891368E+03  0.49478120106E+03  0.70457315826E+02 0.  0.
         66    2    3    3    0    0  0.28057290147E+02 -0.19913419278E+02  0.29728669416E+03  0.29927768764E+03  0.19999996004E+01 0.  0.
        -13    1    3    3    0    0 -0.28057290147E+02  0.19913419278E+02  0.19245221952E+03  0.19550351342E+03  0.10566000000E+00 0.  1.
         13    1    4    4    0    0  0.19065977903E+02 -0.12682504097E+02  0.19418313177E+03  0.19552866095E+03  0.10566000000E+00 0. -1.
        -13    1    4    4    0    0  0.20164825111E+01 -0.17786039065E+01  0.22169891146E+02  0.22332596603E+02  0.10566000000E+00 0. -1.
         14    1    4    4    0    0  0.69748297331E+01 -0.54523112741E+01  0.80933671236E+02  0.81416430085E+02  0.00000000000E+00 0. -1.
<mgrwt>
<rscale>  0 0.70457316E+02</rscale>
<asrwt>0</asrwt>
<pdfrwt beam="1">  1        2 0.38786855E-03 0.70457316E+02</pdfrwt>
<pdfrwt beam="2">  1       -1 0.75732259E-01 0.70457316E+02</pdfrwt>
<totfact> 0.93421649E+04</totfact>
</mgrwt>
</event>
<event>
 8    1  0.1226832E-020  0.7982423E+02  0.7818608E-02  0.1329551E+00
          2   -1    0    0  501    0  0.00000000000E+00  0.00000000000E+00  0.41843679751E+03  0.41843679752E+03  0.25500000000E-02 0. -1.
         -1   -1    0    0    0  501 -0.00000000000E+00 -0.00000000000E+00 -0.38069693995E+01  0.38069727357E+01  0.50400000000E-02 0.  1.
         24    2    1    2    0    0  0.00000000000E+00 -0.88817841970E-15  0.41462982811E+03  0.42224377026E+03  0.79824226642E+02 0.  0.
         66    2    3    3    0    0 -0.22249114810E+02  0.73299136718E+01  0.37821346738E+03  0.37894350193E+03  0.20000002129E+01 0.  0.
        -13    1    3    3    0    0  0.22249114810E+02 -0.73299136718E+01  0.36416360731E+02  0.43300268327E+02  0.10566000000E+00 0.  1.
         13    1    4    4    0    0 -0.77931463241E+01  0.20388703000E+01  0.13812824368E+03  0.13836297549E+03  0.10566000000E+00 0. -1.
        -13    1    4    4    0    0 -0.81548730540E+01  0.35303233316E+01  0.13748295131E+03  0.13776987408E+03  0.10566000000E+00 0.  1.
        -14    1    4    4    0    0 -0.63010954317E+01  0.17607200402E+01  0.10260227239E+03  0.10281065236E+03  0.00000000000E+00 0.  1.
<mgrwt>
<rscale>  0 0.79824227E+02</rscale>
<asrwt>0</asrwt>
<pdfrwt beam="1">  1        2 0.64374856E-01 0.79824227E+02</pdfrwt>
<pdfrwt beam="2">  1       -1 0.58568819E-03 0.79824227E+02</pdfrwt>
<totfact> 0.28864456E+05</totfact>
</mgrwt>
</event>
<event>
 8    1  0.1226832E-020  0.8206226E+02  0.7818608E-02  0.1323299E+00
          2   -1    0    0  501    0  0.00000000000E+00  0.00000000000E+00  0.54972536306E+03  0.54972536307E+03  0.25500000000E-02 0. -1.
         -1   -1    0    0    0  501 -0.00000000000E+00 -0.00000000000E+00 -0.30625339094E+01  0.30625380566E+01  0.50400000000E-02 0.  1.
         24    2    1    2    0    0  0.35527136788E-14  0.35527136788E-14  0.54666282915E+03  0.55278790112E+03  0.82062262048E+02 0.  0.
         66    2    3    3    0    0 -0.18623773603E+02 -0.31713720161E+02  0.39566648811E+03  0.39737711913E+03  0.20000000913E+01 0.  0.
        -13    1    3    3    0    0  0.18623773603E+02  0.31713720161E+02  0.15099634104E+03  0.15541078200E+03  0.10566000000E+00 0.  1.
         13    1    4    4    0    0 -0.56038394661E+01 -0.94442021437E+01  0.12519271293E+03  0.12567347574E+03  0.10566000000E+00 0. -1.
        -13    1    4    4    0    0 -0.33302226147E+01 -0.62156221547E+01  0.78629255602E+02  0.78944888004E+02  0.10566000000E+00 0.  1.
        -14    1    4    4    0    0 -0.96897115222E+01 -0.16053895863E+02  0.19184451958E+03  0.19275875538E+03  0.00000000000E+00 0.  1.
<mgrwt>
<rscale>  0 0.82062262E+02</rscale>
<asrwt>0</asrwt>
<pdfrwt beam="1">  1        2 0.84573138E-01 0.82062262E+02</pdfrwt>
<pdfrwt beam="2">  1       -1 0.47115936E-03 0.82062262E+02</pdfrwt>
<totfact> 0.29344992E+05</totfact>
</mgrwt>
</event>
<event>
 8    1  0.1226832E-020  0.7558262E+02  0.7818608E-02  0.1342076E+00
          2   -1    0    0  501    0  0.00000000000E+00  0.00000000000E+00  0.75286268288E+02  0.75286268331E+02  0.25500000000E-02 0. -1.
         -1   -1    0    0    0  501 -0.00000000000E+00 -0.00000000000E+00 -0.18970034876E+02  0.18970035546E+02  0.50400000000E-02 0.  1.
         24    2    1    2    0    0  0.00000000000E+00  0.17763568394E-14  0.56316233412E+02  0.94256303877E+02  0.75582621513E+02 0.  0.
         66    2    3    3    0    0  0.20652532012E+02  0.76934850539E+01  0.66421394996E+02  0.70010845633E+02  0.20000005567E+01 0.  0.
        -13    1    3    3    0    0 -0.20652532012E+02 -0.76934850539E+01 -0.10105161584E+02  0.24245458244E+02  0.10566000000E+00 0.  1.
         13    1    4    4    0    0  0.80079248014E+01  0.22831337984E+01  0.26615108861E+02  0.27887537419E+02  0.10566000000E+00 0. -1.
        -13    1    4    4    0    0  0.21567216680E+01  0.89788212329E+00  0.59144758993E+01  0.63600180707E+01  0.10566000000E+00 0.  1.
        -14    1    4    4    0    0  0.10487885543E+02  0.45124691322E+01  0.33891810236E+02  0.35763290144E+02  0.00000000000E+00 0.  1.
<mgrwt>
<rscale>  0 0.75582622E+02</rscale>
<asrwt>0</asrwt>
<pdfrwt beam="1">  1        2 0.11582503E-01 0.75582622E+02</pdfrwt>
<pdfrwt beam="2">  1       -1 0.29184670E-02 0.75582622E+02</pdfrwt>
<totfact> 0.19155359E+05</totfact>
</mgrwt>
</event>
<event>
 8    1  0.1226832E-020  0.8084019E+02  0.7818608E-02  0.1326684E+00
         -1   -1    0    0    0  501 -0.00000000000E+00  0.00000000000E+00  0.42306681635E+01  0.42306711655E+01  0.50400000000E-02 0.  1.
          2   -1    0    0  501    0  0.00000000000E+00 -0.00000000000E+00 -0.38617618493E+03  0.38617618494E+03  0.25500000000E-02 0. -1.
         24    2    1    2    0    0  0.00000000000E+00  0.00000000000E+00 -0.38194551677E+03  0.39040685611E+03  0.80840185026E+02 0.  0.
         66    2    3    3    0    0 -0.27850874010E+01  0.37800761880E+02 -0.25854929201E+03  0.26132047511E+03  0.20000002532E+01 0.  0.
        -13    1    3    3    0    0  0.27850874010E+01 -0.37800761880E+02 -0.12339622476E+03  0.12908638100E+03  0.10566000000E+00 0.  1.
         13    1    4    4    0    0 -0.47133013711E+00  0.84561264513E+01 -0.58767978816E+02  0.59375202945E+02  0.10566000000E+00 0.  1.
        -13    1    4    4    0    0 -0.14216105537E+01  0.24023359830E+02 -0.16000336495E+03  0.16180306163E+03  0.10566000000E+00 0. -1.
        -14    1    4    4    0    0 -0.89214671024E+00  0.53212755989E+01 -0.39777948248E+02  0.40142210535E+02  0.00000000000E+00 0.  1.
<mgrwt>
<rscale>  0 0.80840185E+02</rscale>
<asrwt>0</asrwt>
<pdfrwt beam="1">  1        2 0.59411693E-01 0.80840185E+02</pdfrwt>
<pdfrwt beam="2">  1       -1 0.65087256E-03 0.80840185E+02</pdfrwt>
<totfact> 0.27154839E+05</totfact>
</mgrwt>
</event>
<event>
 8    1  0.1226832E-020  0.7965010E+02  0.7818608E-02  0.1330047E+00
         -1   -1    0    0    0  501 -0.00000000000E+00  0.00000000000E+00  0.79901277746E+02  0.79901277904E+02  0.50400000000E-02 0.  1.
          2   -1    0    0  501    0  0.00000000000E+00 -0.00000000000E+00 -0.19849929284E+02  0.19849929448E+02  0.25500000000E-02 0. -1.
         24    2    1    2    0    0 -0.35527136788E-14  0.00000000000E+00  0.60051348461E+02  0.99751207353E+02  0.79650103053E+02 0.  0.
         66    2    3    3    0    0 -0.26356322128E+02  0.14749068064E+01 -0.72583192612E+01  0.27450214281E+02  0.19999998361E+01 0.  0.
        -13    1    3    3    0    0  0.26356322128E+02 -0.14749068064E+01  0.67309667722E+02  0.72300993072E+02  0.10566000000E+00 0.  1.
         13    1    4    4    0    0 -0.18620472965E+02  0.14451281030E+01 -0.55005862192E+01  0.19469926077E+02  0.10566000000E+00 0. -1.
        -13    1    4    4    0    0 -0.75633820232E+01 -0.96325506392E-01 -0.16570196823E+01  0.77440883579E+01  0.10566000000E+00 0.  1.
        -14    1    4    4    0    0 -0.17246714026E+00  0.12610420972E+00 -0.10071335968E+00  0.23619984546E+00  0.00000000000E+00 0.  1.
<mgrwt>
<rscale>  0 0.79650103E+02</rscale>
<asrwt>0</asrwt>
<pdfrwt beam="1">  1        2 0.30538352E-02 0.79650103E+02</pdfrwt>
<pdfrwt beam="2">  1       -1 0.12292505E-01 0.79650103E+02</pdfrwt>
<totfact> 0.12553879E+05</totfact>
</mgrwt>
</event>
<event>
 8    1  0.1240352E-020  0.7921495E+02  0.7818608E-02  0.1331294E+00
         -1   -1    0    0    0  501 -0.00000000000E+00  0.00000000000E+00  0.91416816515E+01  0.91416830408E+01  0.50400000000E-02 0.  1.
          2   -1    0    0  501    0  0.00000000000E+00 -0.00000000000E+00 -0.17160430549E+03  0.17160430551E+03  0.25500000000E-02 0. -1.
         24    2    1    2    0    0 -0.55511151231E-16  0.35527136788E-14 -0.16246262384E+03  0.18074598855E+03  0.79214949552E+02 0.  0.
         66    2    3    3    0    0 -0.39278476221E+00 -0.17177400719E+02 -0.16264554064E+03  0.16356279916E+03  0.20000007823E+01 0.  0.
        -13    1    3    3    0    0  0.39278476221E+00  0.17177400719E+02  0.18291679440E+00  0.17183189398E+02  0.10566000000E+00 0.  1.
         13    1    4    4    0    0 -0.36031287468E+00 -0.90405363380E+01 -0.88223207576E+02  0.88686000258E+02  0.10566000000E+00 0. -1.
        -13    1    4    4    0    0 -0.58909269082E+00 -0.54410831902E+01 -0.47692368856E+02  0.48005474975E+02  0.10566000000E+00 0.  1.
        -14    1    4    4    0    0  0.55662080329E+00 -0.26957811903E+01 -0.26729964206E+02  0.26871323923E+02  0.00000000000E+00 0.  1.
<mgrwt>
<rscale>  0 0.79214950E+02</rscale>
<asrwt>0</asrwt>
<pdfrwt beam="1">  1        2 0.26400660E-01 0.79214950E+02</pdfrwt>
<pdfrwt beam="2">  1       -1 0.14064128E-02 0.79214950E+02</pdfrwt>
<totfact> 0.21488136E+05</totfact>
</mgrwt>
</event>
<event>
 8    1  0.1226832E-020  0.7964066E+02  0.7818608E-02  0.1330074E+00
          2   -1    0    0  501    0  0.00000000000E+00  0.00000000000E+00  0.77188781142E+01  0.77188785355E+01  0.25500000000E-02 0. -1.
         -1   -1    0    0    0  501 -0.00000000000E+00 -0.00000000000E+00 -0.20542605952E+03  0.20542605958E+03  0.50400000000E-02 0.  1.
         24    2    1    2    0    0  0.00000000000E+00 -0.35527136788E-14 -0.19770718140E+03  0.21314493811E+03  0.79640662136E+02 0.  0.
         66    2    3    3    0    0  0.19349010743E+02  0.28982240857E+02 -0.47484233318E+02  0.58933071524E+02  0.20000009262E+01 0.  0.
        -13    1    3    3    0    0 -0.19349010743E+02 -0.28982240857E+02 -0.15022294809E+03  0.15421186659E+03  0.10566000000E+00 0.  1.
         13    1    4    4    0    0  0.93349594202E+01  0.15210589013E+02 -0.23753757243E+02  0.29711203824E+02  0.10566000000E+00 0. -1.
        -13    1    4    4    0    0  0.72415180741E+01  0.10619526153E+02 -0.17803423052E+02  0.21958755796E+02  0.10566000000E+00 0.  1.
         14    1    4    4    0    0  0.27725332487E+01  0.31521256906E+01 -0.59270530229E+01  0.72631119034E+01  0.00000000000E+00 0. -1.
<mgrwt>
<rscale>  0 0.79640662E+02</rscale>
<asrwt>0</asrwt>
<pdfrwt beam="1">  1        2 0.11875199E-02 0.79640662E+02</pdfrwt>
<pdfrwt beam="2">  1       -1 0.31604005E-01 0.79640662E+02</pdfrwt>
<totfact> 0.99932509E+04</totfact>
</mgrwt>
</event>
<event>
 8    1  0.1226832E-020  0.8143534E+02  0.7818608E-02  0.1325027E+00
          2   -1    0    0  501    0  0.00000000000E+00  0.00000000000E+00  0.25867919512E+03  0.25867919513E+03  0.25500000000E-02 0. -1.
         -1   -1    0    0    0  501 -0.00000000000E+00 -0.00000000000E+00 -0.64092068205E+01  0.64092088021E+01  0.50400000000E-02 0.  1.
         24    2    1    2    0    0  0.00000000000E+00  0.00000000000E+00  0.25226998830E+03  0.26508840393E+03  0.81435341861E+02 0.  0.
         66    2    3    3    0    0  0.34616010133E+02  0.21386407250E+02  0.12449709196E+03  0.13099302454E+03  0.19999996192E+01 0.  0.
        -13    1    3    3    0    0 -0.34616010133E+02 -0.21386407250E+02  0.12777289634E+03  0.13409537939E+03  0.10566000000E+00 0.  1.
         13    1    4    4    0    0  0.10458108088E+02  0.70500089983E+01  0.39502682922E+02  0.41467430277E+02  0.10566000000E+00 0.  1.
        -13    1    4    4    0    0  0.87440887484E+01  0.53724046247E+01  0.29188848217E+02  0.30940618025E+02  0.10566000000E+00 0. -1.
         14    1    4    4    0    0  0.15413813296E+02  0.89639936271E+01  0.55805560823E+02  0.58584976238E+02  0.00000000000E+00 0. -1.
<mgrwt>
<rscale>  0 0.81435342E+02</rscale>
<asrwt>0</asrwt>
<pdfrwt beam="1">  1        2 0.39796797E-01 0.81435342E+02</pdfrwt>
<pdfrwt beam="2">  1       -1 0.98603204E-03 0.81435342E+02</pdfrwt>
<totfact> 0.23058757E+05</totfact>
</mgrwt>
</event>
<event>
 8    1  0.1226832E-020  0.7618842E+02  0.7818608E-02  0.1340230E+00
          2   -1    0    0  501    0  0.00000000000E+00  0.00000000000E+00  0.25563437121E+03  0.25563437122E+03  0.25500000000E-02 0. -1.
         -1   -1    0    0    0  501 -0.00000000000E+00 -0.00000000000E+00 -0.56767343273E+01  0.56767365646E+01  0.50400000000E-02 0.  1.
         24    2    1    2    0    0  0.17763568394E-14  0.00000000000E+00  0.24995763688E+03  0.26131110779E+03  0.76188416554E+02 0.  0.
         66    2    3    3    0    0 -0.12341896035E+02  0.31955425939E+02  0.18201304939E+03  0.18521938827E+03  0.20000000733E+01 0.  0.
        -13    1    3    3    0    0  0.12341896035E+02 -0.31955425939E+02  0.67944587498E+02  0.76091719516E+02  0.10566000000E+00 0.  1.
         13    1    4    4    0    0 -0.77382225556E+01  0.21381814362E+02  0.11880348641E+03  0.12096008276E+03  0.10566000000E+00 0. -1.
        -13    1    4    4    0    0 -0.18639608744E+00  0.37016029528E+00  0.17044587345E+01  0.17573007025E+01  0.10566000000E+00 0.  1.
         14    1    4    4    0    0 -0.44172773919E+01  0.10203451282E+02  0.61505104240E+02  0.62502004809E+02  0.00000000000E+00 0. -1.
<mgrwt>
<rscale>  0 0.76188417E+02</rscale>
<asrwt>0</asrwt>
<pdfrwt beam="1">  1        2 0.39328360E-01 0.76188417E+02</pdfrwt>
<pdfrwt beam="2">  1       -1 0.87334402E-03 0.76188417E+02</pdfrwt>
<totfact> 0.27344487E+05</totfact>
</mgrwt>
</event>
<event>
 8    1  0.1226832E-020  0.7923669E+02  0.7818608E-02  0.1331232E+00
         -1   -1    0    0    0  501 -0.00000000000E+00  0.00000000000E+00  0.40954851080E+02  0.40954851390E+02  0.50400000000E-02 0.  1.
          2   -1    0    0  501    0  0.00000000000E+00 -0.00000000000E+00 -0.38325456329E+02  0.38325456414E+02  0.25500000000E-02 0. -1.
         24    2    1    2    0    0  0.00000000000E+00  0.00000000000E+00  0.26293947513E+01  0.79280307804E+02  0.79236692818E+02 0.  0.
         66    2    3    3    0    0 -0.10732158899E+01 -0.12292397752E+02 -0.36326360792E+02  0.38416914787E+02  0.20000046292E+01 0.  0.
        -13    1    3    3    0    0  0.10732158899E+01  0.12292397752E+02  0.38955755544E+02  0.40863393017E+02  0.10566000000E+00 0.  1.
         13    1    4    4    0    0 -0.97546044461E-01 -0.39603452390E+00 -0.22358052589E+01  0.22751588442E+01  0.10566000000E+00 0. -1.
        -13    1    4    4    0    0 -0.57454149324E+00 -0.19391635140E+01 -0.63864543669E+01  0.66998818257E+01  0.10566000000E+00 0.  1.
        -14    1    4    4    0    0 -0.40112835216E+00 -0.99571997142E+01 -0.27704101166E+02  0.29441874117E+02  0.00000000000E+00 0.  1.
<mgrwt>
<rscale>  0 0.79236693E+02</rscale>
<asrwt>0</asrwt>
<pdfrwt beam="1">  1        2 0.58962241E-02 0.79236693E+02</pdfrwt>
<pdfrwt beam="2">  1       -1 0.63007463E-02 0.79236693E+02</pdfrwt>
<totfact> 0.14510990E+05</totfact>
</mgrwt>
</event>
<event>
 8    1  0.1226832E-020  0.6949133E+02  0.7818608E-02  0.1361831E+00
         -1   -1    0    0    0  501 -0.00000000000E+00  0.00000000000E+00  0.18191213334E+03  0.18191213341E+03  0.50400000000E-02 0.  1.
          2   -1    0    0  501    0  0.00000000000E+00 -0.00000000000E+00 -0.66365080642E+01  0.66365085541E+01  0.25500000000E-02 0. -1.
         24    2    1    2    0    0  0.00000000000E+00 -0.71054273576E-14  0.17527562528E+03  0.18854864197E+03  0.69491334501E+02 0.  0.
         66    2    3    3    0    0 -0.17570664975E+02 -0.27991719861E+02  0.58868786211E+02  0.67541088508E+02  0.19999996035E+01 0.  0.
        -13    1    3    3    0    0  0.17570664975E+02  0.27991719861E+02  0.11640683907E+03  0.12100755346E+03  0.10566000000E+00 0.  1.
         13    1    4    4    0    0 -0.63911698510E+01 -0.92424073396E+01  0.20020423837E+02  0.22958607975E+02  0.10566000000E+00 0. -1.
        -13    1    4    4    0    0 -0.11014889316E+02 -0.18492348912E+02  0.37893969506E+02  0.43580486962E+02  0.10566000000E+00 0.  1.
        -14    1    4    4    0    0 -0.16460580812E+00 -0.25696360925E+00  0.95439286834E+00  0.10019935707E+01  0.00000000000E+00 0.  1.
<mgrwt>
<rscale>  0 0.69491335E+02</rscale>
<asrwt>0</asrwt>
<pdfrwt beam="1">  1        2 0.10210013E-02 0.69491335E+02</pdfrwt>
<pdfrwt beam="2">  1       -1 0.27986481E-01 0.69491335E+02</pdfrwt>
<totfact> 0.14626017E+05</totfact>
</mgrwt>
</event>
<event>
 8    1  0.1226832E-020  0.8410464E+02  0.7818608E-02  0.1317791E+00
         -1   -1    0    0    0  501 -0.00000000000E+00  0.00000000000E+00  0.25778214179E+02  0.25778214671E+02  0.50400000000E-02 0.  1.
          2   -1    0    0  501    0  0.00000000000E+00 -0.00000000000E+00 -0.68600464367E+02  0.68600464414E+02  0.25500000000E-02 0. -1.
         24    2    1    2    0    0  0.35527136788E-14  0.00000000000E+00 -0.42822250188E+02  0.94378679086E+02  0.84104636940E+02 0.  0.
         66    2    3    3    0    0 -0.12550366084E+02 -0.24184903244E+02 -0.57331746002E+02  0.63508663430E+02  0.19999992987E+01 0.  0.
        -13    1    3    3    0    0  0.12550366084E+02  0.24184903244E+02  0.14509495814E+02  0.30870015656E+02  0.10566000000E+00 0.  1.
         13    1    4    4    0    0 -0.90100882961E+01 -0.17963698435E+02 -0.42669817709E+02  0.47165672474E+02  0.10566000000E+00 0. -1.
        -13    1    4    4    0    0 -0.12569382591E+01 -0.14390793309E+01 -0.42043838100E+01  0.46193993511E+01  0.10566000000E+00 0.  1.
        -14    1    4    4    0    0 -0.22833395288E+01 -0.47821254782E+01 -0.10457544484E+02  0.11723591605E+02  0.00000000000E+00 0.  1.
<mgrwt>
<rscale>  0 0.84104637E+02</rscale>
<asrwt>0</asrwt>
<pdfrwt beam="1">  1        2 0.10553918E-01 0.84104637E+02</pdfrwt>
<pdfrwt beam="2">  1       -1 0.39658792E-02 0.84104637E+02</pdfrwt>
<totfact> 0.14024688E+05</totfact>
</mgrwt>
</event>
<event>
 8    1  0.1226832E-020  0.8036741E+02  0.7818608E-02  0.1328012E+00
          2   -1    0    0  501    0  0.00000000000E+00  0.00000000000E+00  0.16478450505E+03  0.16478450507E+03  0.25500000000E-02 0. -1.
         -1   -1    0    0    0  501 -0.00000000000E+00 -0.00000000000E+00 -0.97990416077E+01  0.97990429038E+01  0.50400000000E-02 0.  1.
         24    2    1    2    0    0 -0.17763568394E-14  0.00000000000E+00  0.15498546344E+03  0.17458354797E+03  0.80367414693E+02 0.  0.
         66    2    3    3    0    0  0.10554713527E+02  0.38384955547E+02  0.89018688403E+02  0.97535294501E+02  0.19999996165E+01 0.  0.
        -13    1    3    3    0    0 -0.10554713527E+02 -0.38384955547E+02  0.65966775036E+02  0.77048253469E+02  0.10566000000E+00 0.  1.
         13    1    4    4    0    0  0.34897627682E+01  0.12876388828E+02  0.28462204418E+02  0.31433868324E+02  0.10566000000E+00 0. -1.
        -13    1    4    4    0    0  0.13853303634E+01  0.55333094185E+01  0.14361612254E+02  0.15453275507E+02  0.10566000000E+00 0.  1.
        -14    1    4    4    0    0  0.56796203950E+01  0.19975257300E+02  0.46194871731E+02  0.50648150670E+02  0.00000000000E+00 0.  1.
<mgrwt>
<rscale>  0 0.80367415E+02</rscale>
<asrwt>0</asrwt>
<pdfrwt beam="1">  1        2 0.25351461E-01 0.80367415E+02</pdfrwt>
<pdfrwt beam="2">  1       -1 0.15075450E-02 0.80367415E+02</pdfrwt>
<totfact> 0.20405228E+05</totfact>
</mgrwt>
</event>
<event>
 8    1  0.1226832E-020  0.6991668E+02  0.7818608E-02  0.1360377E+00
          2   -1    0    0  501    0  0.00000000000E+00  0.00000000000E+00  0.12776006964E+02  0.12776007219E+02  0.25500000000E-02 0. -1.
         -1   -1    0    0    0  501 -0.00000000000E+00 -0.00000000000E+00 -0.95654741484E+02  0.95654741617E+02  0.50400000000E-02 0.  1.
         24    2    1    2    0    0  0.35527136788E-14  0.35527136788E-14 -0.82878734520E+02  0.10843074884E+03  0.69916683684E+02 0.  0.
         66    2    3    3    0    0 -0.15825204982E+02 -0.28266098552E+02 -0.21212592396E+02  0.38773490142E+02  0.20000053950E+01 0.  0.
        -13    1    3    3    0    0  0.15825204982E+02  0.28266098552E+02 -0.61666142125E+02  0.69657258693E+02  0.10566000000E+00 0.  1.
         13    1    4    4    0    0 -0.42190527324E+01 -0.61839237589E+01 -0.52635365907E+01  0.91519014686E+01  0.10566000000E+00 0. -1.
        -13    1    4    4    0    0 -0.41872694928E+01 -0.79983669435E+01 -0.62549768918E+01  0.10983760718E+02  0.10566000000E+00 0.  1.
         14    1    4    4    0    0 -0.74188827572E+01 -0.14083807850E+02 -0.96940789131E+01  0.18637827955E+02  0.00000000000E+00 0. -1.
<mgrwt>
<rscale>  0 0.69916684E+02</rscale>
<asrwt>0</asrwt>
<pdfrwt beam="1">  1        2 0.19655396E-02 0.69916684E+02</pdfrwt>
<pdfrwt beam="2">  1       -1 0.14716114E-01 0.69916684E+02</pdfrwt>
<totfact> 0.16723097E+05</totfact>
</mgrwt>
</event>
<event>
 8    1  0.1226832E-020  0.8025425E+02  0.7818608E-02  0.1328331E+00
          2   -1    0    0  501    0  0.00000000000E+00  0.00000000000E+00  0.55013843872E+03  0.55013843872E+03  0.25500000000E-02 0. -1.
         -1   -1    0    0    0  501 -0.00000000000E+00 -0.00000000000E+00 -0.29268721007E+01  0.29268764401E+01  0.50400000000E-02 0.  1.
         24    2    1    2    0    0  0.00000000000E+00  0.71054273576E-14  0.54721156662E+03  0.55306531516E+03  0.80254247225E+02 0.  0.
         66    2    3    3    0    0  0.26406033428E+02  0.23675303599E+02  0.40277222441E+03  0.40433558262E+03  0.20000032170E+01 0.  0.
        -13    1    3    3    0    0 -0.26406033428E+02 -0.23675303599E+02  0.14443934221E+03  0.14872973255E+03  0.10566000000E+00 0.  1.
         13    1    4    4    0    0  0.13117443014E+02  0.12874337153E+02  0.20677446640E+03  0.20758975646E+03  0.10566000000E+00 0. -1.
        -13    1    4    4    0    0  0.49110820644E+01  0.43771254275E+01  0.73143973624E+02  0.73439294629E+02  0.10566000000E+00 0.  1.
        -14    1    4    4    0    0  0.83775083500E+01  0.64238410184E+01  0.12285378438E+03  0.12330653152E+03  0.00000000000E+00 0.  1.
<mgrwt>
<rscale>  0 0.80254247E+02</rscale>
<asrwt>0</asrwt>
<pdfrwt beam="1">  1        2 0.84636658E-01 0.80254247E+02</pdfrwt>
<pdfrwt beam="2">  1       -1 0.45028849E-03 0.80254247E+02</pdfrwt>
<totfact> 0.31107318E+05</totfact>
</mgrwt>
</event>
<event>
 8    1  0.1226832E-020  0.7924782E+02  0.7818608E-02  0.1331200E+00
          2   -1    0    0  501    0  0.00000000000E+00  0.00000000000E+00  0.83090775951E+02  0.83090775990E+02  0.25500000000E-02 0. -1.
         -1   -1    0    0    0  501 -0.00000000000E+00 -0.00000000000E+00 -0.18895647704E+02  0.18895648377E+02  0.50400000000E-02 0.  1.
         24    2    1    2    0    0  0.00000000000E+00  0.00000000000E+00  0.64195128246E+02  0.10198642437E+03  0.79247815519E+02 0.  0.
         66    2    3    3    0    0 -0.59305483320E+01 -0.28686475210E+02  0.66408400738E+02  0.72609647779E+02  0.19999996270E+01 0.  0.
        -13    1    3    3    0    0  0.59305483320E+01  0.28686475210E+02 -0.22132724919E+01  0.29376776587E+02  0.10566000000E+00 0.  1.
         13    1    4    4    0    0 -0.14260955157E+01 -0.56568961760E+01  0.14080977138E+02  0.15242024273E+02  0.10566000000E+00 0. -1.
        -13    1    4    4    0    0 -0.41632807120E+01 -0.22144858005E+02  0.50743858891E+02  0.55521869759E+02  0.10566000000E+00 0.  1.
        -14    1    4    4    0    0 -0.34117210437E+00 -0.88472102960E+00  0.15835647101E+01  0.18457537474E+01  0.00000000000E+00 0.  1.
<mgrwt>
<rscale>  0 0.79247816E+02</rscale>
<asrwt>0</asrwt>
<pdfrwt beam="1">  1        2 0.12783196E-01 0.79247816E+02</pdfrwt>
<pdfrwt beam="2">  1       -1 0.29070228E-02 0.79247816E+02</pdfrwt>
<totfact> 0.17294359E+05</totfact>
</mgrwt>
</event>
<event>
 8    1  0.1226832E-020  0.7989687E+02  0.7818608E-02  0.1329344E+00
         -1   -1    0    0    0  501 -0.00000000000E+00  0.00000000000E+00  0.58286473973E+01  0.58286495763E+01  0.50400000000E-02 0.  1.
          2   -1    0    0  501    0  0.00000000000E+00 -0.00000000000E+00 -0.27379889354E+03  0.27379889355E+03  0.25500000000E-02 0. -1.
         24    2    1    2    0    0 -0.88817841970E-15  0.00000000000E+00 -0.26797024614E+03  0.27962754313E+03  0.79896871392E+02 0.  0.
         66    2    3    3    0    0  0.53622095484E+01 -0.36416962597E+02 -0.18816671411E+03  0.19174373719E+03  0.19999998379E+01 0.  0.
        -13    1    3    3    0    0 -0.53622095484E+01  0.36416962597E+02 -0.79803532039E+02  0.87883805937E+02  0.10566000000E+00 0.  1.
         13    1    4    4    0    0  0.30043125875E+01 -0.17381727780E+02 -0.91603829799E+02  0.93286779088E+02  0.10566000000E+00 0. -1.
        -13    1    4    4    0    0  0.16085857222E+01 -0.81901313696E+01 -0.41424300493E+02  0.42256947775E+02  0.10566000000E+00 0.  1.
        -14    1    4    4    0    0  0.74931123869E+00 -0.10845103448E+02 -0.55138583813E+02  0.56200010330E+02  0.00000000000E+00 0.  1.
<mgrwt>
<rscale>  0 0.79896871E+02</rscale>
<asrwt>0</asrwt>
<pdfrwt beam="1">  1        2 0.42122897E-01 0.79896871E+02</pdfrwt>
<pdfrwt beam="2">  1       -1 0.89671537E-03 0.79896871E+02</pdfrwt>
<totfact> 0.24747952E+05</totfact>
</mgrwt>
</event>
<event>
 8    1  0.1226832E-020  0.8065363E+02  0.7818608E-02  0.1327207E+00
          2   -1    0    0  501    0  0.00000000000E+00  0.00000000000E+00  0.69991461190E+02  0.69991461236E+02  0.25500000000E-02 0. -1.
         -1   -1    0    0    0  501 -0.00000000000E+00 -0.00000000000E+00 -0.23235003906E+02  0.23235004453E+02  0.50400000000E-02 0.  1.
         24    2    1    2    0    0  0.00000000000E+00  0.00000000000E+00  0.46756457284E+02  0.93226465689E+02  0.80653627366E+02 0.  0.
         66    2    3    3    0    0 -0.22801317510E+02  0.25084176701E+02  0.48588005240E+02  0.59278244338E+02  0.19999994266E+01 0.  0.
        -13    1    3    3    0    0  0.22801317510E+02 -0.25084176701E+02 -0.18315479564E+01  0.33948221351E+02  0.10566000000E+00 0.  1.
         13    1    4    4    0    0 -0.90659482920E+01  0.87266564824E+01  0.18119477293E+02  0.22060656682E+02  0.10566000000E+00 0. -1.
        -13    1    4    4    0    0 -0.43132307563E+01  0.50574196673E+01  0.88961274679E+01  0.11105570729E+02  0.10566000000E+00 0.  1.
         14    1    4    4    0    0 -0.94221384613E+01  0.11300100551E+02  0.21572400479E+02  0.26112016928E+02  0.00000000000E+00 0. -1.
<mgrwt>
<rscale>  0 0.80653627E+02</rscale>
<asrwt>0</asrwt>
<pdfrwt beam="1">  1        2 0.10767917E-01 0.80653627E+02</pdfrwt>
<pdfrwt beam="2">  1       -1 0.35746160E-02 0.80653627E+02</pdfrwt>
<totfact> 0.15794091E+05</totfact>
</mgrwt>
</event>
<event>
 8    1  0.1226832E-020  0.8076346E+02  0.7818608E-02  0.1326899E+00
          2   -1    0    0  501    0  0.00000000000E+00  0.00000000000E+00  0.15310980131E+02  0.15310980343E+02  0.25500000000E-02 0. -1.
         -1   -1    0    0    0  501 -0.00000000000E+00 -0.00000000000E+00 -0.10650423475E+03  0.10650423487E+03  0.50400000000E-02 0.  1.
         24    2    1    2    0    0  0.00000000000E+00  0.00000000000E+00 -0.91193254621E+02  0.12181521521E+03  0.80763463084E+02 0.  0.
         66    2    3    3    0    0 -0.30130108593E+02 -0.21134082655E+02 -0.20648367600E+02  0.42247224525E+02  0.20000004928E+01 0.  0.
        -13    1    3    3    0    0  0.30130108593E+02  0.21134082655E+02 -0.70544887021E+02  0.79567990689E+02  0.10566000000E+00 0.  1.
         13    1    4    4    0    0 -0.12309748650E+02 -0.78924238793E+01 -0.85908967289E+01  0.16959803570E+02  0.10566000000E+00 0.  1.
        -13    1    4    4    0    0 -0.82265496471E+01 -0.64257988068E+01 -0.51336998587E+01  0.11633273300E+02  0.10566000000E+00 0. -1.
         14    1    4    4    0    0 -0.95938102966E+01 -0.68158599691E+01 -0.69237710122E+01  0.13654147654E+02  0.00000000000E+00 0. -1.
<mgrwt>
<rscale>  0 0.80763463E+02</rscale>
<asrwt>0</asrwt>
<pdfrwt beam="1">  1        2 0.23555355E-02 0.80763463E+02</pdfrwt>
<pdfrwt beam="2">  1       -1 0.16385266E-01 0.80763463E+02</pdfrwt>
<totfact> 0.11418153E+05</totfact>
</mgrwt>
</event>
<event>
 8    1  0.1226832E-020  0.7867911E+02  0.7818608E-02  0.1332842E+00
         -1   -1    0    0    0  501 -0.00000000000E+00  0.00000000000E+00  0.49028166765E+01  0.49028192670E+01  0.50400000000E-02 0.  1.
          2   -1    0    0  501    0  0.00000000000E+00 -0.00000000000E+00 -0.31565532890E+03  0.31565532891E+03  0.25500000000E-02 0. -1.
         24    2    1    2    0    0 -0.88817841970E-15  0.00000000000E+00 -0.31075251222E+03  0.32055814817E+03  0.78679111011E+02 0.  0.
         66    2    3    3    0    0 -0.63037202846E+01  0.33712994356E+02 -0.23377115324E+03  0.23628215116E+03  0.19999981926E+01 0.  0.
        -13    1    3    3    0    0  0.63037202846E+01 -0.33712994356E+02 -0.76981358981E+02  0.84275997013E+02  0.10566000000E+00 0.  1.
         13    1    4    4    0    0 -0.32366412465E+00  0.33906697185E+01 -0.23087481385E+02  0.23337616852E+02  0.10566000000E+00 0.  1.
        -13    1    4    4    0    0 -0.19553873603E+01  0.12569197067E+02 -0.90762389550E+02  0.91649499592E+02  0.10566000000E+00 0.  1.
         14    1    4    4    0    0 -0.40246687997E+01  0.17753127571E+02 -0.11992128231E+03  0.12129503472E+03  0.00000000000E+00 0. -1.
<mgrwt>
<rscale>  0 0.78679111E+02</rscale>
<asrwt>0</asrwt>
<pdfrwt beam="1">  1        2 0.48562343E-01 0.78679111E+02</pdfrwt>
<pdfrwt beam="2">  1       -1 0.75427994E-03 0.78679111E+02</pdfrwt>
<totfact> 0.27124613E+05</totfact>
</mgrwt>
</event>
<event>
 8    1  0.1226832E-020  0.8125658E+02  0.7818608E-02  0.1325523E+00
          2   -1    0    0  501    0  0.00000000000E+00  0.00000000000E+00  0.90252039290E+02  0.90252039326E+02  0.25500000000E-02 0. -1.
         -1   -1    0    0    0  501 -0.00000000000E+00 -0.00000000000E+00 -0.18289425941E+02  0.18289426636E+02  0.50400000000E-02 0.  1.
         24    2    1    2    0    0  0.35527136788E-14 -0.71054273576E-14  0.71962613348E+02  0.10854146596E+03  0.81256581968E+02 0.  0.
         66    2    3    3    0    0  0.17306970990E+02 -0.33386139457E+02  0.56457925926E+02  0.67865034839E+02  0.20000002964E+01 0.  0.
        -13    1    3    3    0    0 -0.17306970990E+02  0.33386139457E+02  0.15504687422E+02  0.40676431122E+02  0.10566000000E+00 0.  1.
         13    1    4    4    0    0  0.68135458631E+01 -0.13304629470E+02  0.23139596572E+02  0.27547952122E+02  0.10566000000E+00 0. -1.
        -13    1    4    4    0    0  0.83749863171E+01 -0.14754595111E+02  0.25168230569E+02  0.30352750562E+02  0.10566000000E+00 0.  1.
        -14    1    4    4    0    0  0.21184388099E+01 -0.53269148761E+01  0.81500987854E+01  0.99643321553E+01  0.00000000000E+00 0.  1.
<mgrwt>
<rscale>  0 0.81256582E+02</rscale>
<asrwt>0</asrwt>
<pdfrwt beam="1">  1        2 0.13884929E-01 0.81256582E+02</pdfrwt>
<pdfrwt beam="2">  1       -1 0.28137579E-02 0.81256582E+02</pdfrwt>
<totfact> 0.16526431E+05</totfact>
</mgrwt>
</event>
<event>
 8    1  0.1226832E-020  0.7894198E+02  0.7818608E-02  0.1332081E+00
          2   -1    0    0  501    0  0.00000000000E+00  0.00000000000E+00  0.29127969962E+03  0.29127969964E+03  0.25500000000E-02 0. -1.
         -1   -1    0    0    0  501 -0.00000000000E+00 -0.00000000000E+00 -0.53486695978E+01  0.53486719723E+01  0.50400000000E-02 0.  1.
         24    2    1    2    0    0  0.35527136788E-14  0.00000000000E+00  0.28593103003E+03  0.29662837161E+03  0.78941984461E+02 0.  0.
         66    2    3    3    0    0 -0.10611050860E+02 -0.15062977843E+02  0.27411236891E+03  0.27473819992E+03  0.20000010127E+01 0.  0.
        -13    1    3    3    0    0  0.10611050860E+02  0.15062977843E+02  0.11818661114E+02  0.21890171685E+02  0.10566000000E+00 0.  1.
         13    1    4    4    0    0 -0.63800843229E+01 -0.10066244026E+02  0.17498476451E+03  0.17539017566E+03  0.10566000000E+00 0. -1.
        -13    1    4    4    0    0 -0.18310243048E+01 -0.27151838681E+01  0.44882038465E+02  0.45001482357E+02  0.10566000000E+00 0.  1.
        -14    1    4    4    0    0 -0.23999422324E+01 -0.22815499489E+01  0.54245565942E+02  0.54346541908E+02  0.00000000000E+00 0.  1.
<mgrwt>
<rscale>  0 0.78941984E+02</rscale>
<asrwt>0</asrwt>
<pdfrwt beam="1">  1        2 0.44812261E-01 0.78941984E+02</pdfrwt>
<pdfrwt beam="2">  1       -1 0.82287244E-03 0.78941984E+02</pdfrwt>
<totfact> 0.26119296E+05</totfact>
</mgrwt>
</event>
<event>
 8    1  0.1226832E-020  0.7991158E+02  0.7818608E-02  0.1329303E+00
          2   -1    0    0  501    0  0.00000000000E+00  0.00000000000E+00  0.79715175328E+03  0.79715175328E+03  0.25500000000E-02 0. -1.
         -1   -1    0    0    0  501 -0.00000000000E+00 -0.00000000000E+00 -0.20027083264E+01  0.20027146682E+01  0.50400000000E-02 0.  1.
         24    2    1    2    0    0  0.88817841970E-15  0.35527136788E-14  0.79514904495E+03  0.79915446795E+03  0.79911575867E+02 0.  0.
         66    2    3    3    0    0  0.75000356869E+01  0.29559757677E+02  0.65560078798E+03  0.65631274786E+03  0.20000000650E+01 0.  0.
        -13    1    3    3    0    0 -0.75000356869E+01 -0.29559757677E+02  0.13954825697E+03  0.14284172009E+03  0.10566000000E+00 0.  1.
         13    1    4    4    0    0  0.73828757338E-01  0.11610632277E+01  0.21371273739E+02  0.21403177889E+02  0.10566000000E+00 0. -1.
        -13    1    4    4    0    0  0.26117947860E+00  0.49724370387E+00  0.12172951976E+02  0.12186360813E+02  0.10566000000E+00 0.  1.
         14    1    4    4    0    0  0.71650274510E+01  0.27901450745E+02  0.62205656226E+03  0.62272320916E+03  0.00000000000E+00 0. -1.
<mgrwt>
<rscale>  0 0.79911576E+02</rscale>
<asrwt>0</asrwt>
<pdfrwt beam="1">  1        2 0.12263888E+00 0.79911576E+02</pdfrwt>
<pdfrwt beam="2">  1       -1 0.30810908E-03 0.79911576E+02</pdfrwt>
<totfact> 0.34443228E+05</totfact>
</mgrwt>
</event>
<event>
 8    1  0.1226832E-020  0.8163383E+02  0.7818608E-02  0.1324478E+00
          2   -1    0    0  501    0  0.00000000000E+00  0.00000000000E+00  0.10152957649E+03  0.10152957652E+03  0.25500000000E-02 0. -1.
         -1   -1    0    0    0  501 -0.00000000000E+00 -0.00000000000E+00 -0.16409212305E+02  0.16409213079E+02  0.50400000000E-02 0.  1.
         24    2    1    2    0    0 -0.71054273576E-14  0.00000000000E+00  0.85120364181E+02  0.11793878960E+03  0.81633826894E+02 0.  0.
         66    2    3    3    0    0  0.34906371108E+02 -0.20838525934E+02  0.47445734271E+02  0.62512371618E+02  0.19999994425E+01 0.  0.
        -13    1    3    3    0    0 -0.34906371108E+02  0.20838525934E+02  0.37674629910E+02  0.55426417979E+02  0.10566000000E+00 0.  1.
         13    1    4    4    0    0  0.19828413473E+02 -0.11420982090E+02  0.26088004730E+02  0.34701584511E+02  0.10566000000E+00 0. -1.
        -13    1    4    4    0    0  0.66017174626E+01 -0.45230179781E+01  0.89316388805E+01  0.11992735393E+02  0.10566000000E+00 0.  1.
        -14    1    4    4    0    0  0.84762401724E+01 -0.48945258667E+01  0.12426090661E+02  0.15818051714E+02  0.00000000000E+00 0.  1.
<mgrwt>
<rscale>  0 0.81633827E+02</rscale>
<asrwt>0</asrwt>
<pdfrwt beam="1">  1        2 0.15619935E-01 0.81633827E+02</pdfrwt>
<pdfrwt beam="2">  1       -1 0.25244943E-02 0.81633827E+02</pdfrwt>
<totfact> 0.16862338E+05</totfact>
</mgrwt>
</event>
<event>
 8    1  0.1226832E-020  0.8138828E+02  0.7818608E-02  0.1325157E+00
         -1   -1    0    0    0  501 -0.00000000000E+00  0.00000000000E+00  0.19104639533E+01  0.19104706013E+01  0.50400000000E-02 0.  1.
          2   -1    0    0  501    0  0.00000000000E+00 -0.00000000000E+00 -0.86681053732E+03  0.86681053733E+03  0.25500000000E-02 0. -1.
         24    2    1    2    0    0  0.00000000000E+00  0.00000000000E+00 -0.86490007337E+03  0.86872100793E+03  0.81388283559E+02 0.  0.
         66    2    3    3    0    0  0.11840122315E+02  0.21201190787E+02 -0.78093262262E+03  0.78131263913E+03  0.19999996089E+01 0.  0.
        -13    1    3    3    0    0 -0.11840122315E+02 -0.21201190787E+02 -0.83967450749E+02  0.87408368801E+02  0.10566000000E+00 0.  1.
         13    1    4    4    0    0  0.37789468062E+01  0.65804765961E+01 -0.25759395249E+03  0.25770572099E+03  0.10566000000E+00 0. -1.
        -13    1    4    4    0    0  0.60955966254E+01  0.98560316621E+01 -0.35184808097E+03  0.35203889118E+03  0.10566000000E+00 0.  1.
        -14    1    4    4    0    0  0.19655788830E+01  0.47646825291E+01 -0.17149058917E+03  0.17156802695E+03  0.00000000000E+00 0.  1.
<mgrwt>
<rscale>  0 0.81388284E+02</rscale>
<asrwt>0</asrwt>
<pdfrwt beam="1">  1        2 0.13335515E+00 0.81388284E+02</pdfrwt>
<pdfrwt beam="2">  1       -1 0.29391874E-03 0.81388284E+02</pdfrwt>
<totfact> 0.33266905E+05</totfact>
</mgrwt>
</event>
<event>
 8    1  0.1226832E-020  0.8269810E+02  0.7818608E-02  0.1321564E+00
         -1   -1    0    0    0  501 -0.00000000000E+00  0.00000000000E+00  0.12771808364E+03  0.12771808374E+03  0.50400000000E-02 0.  1.
          2   -1    0    0  501    0  0.00000000000E+00 -0.00000000000E+00 -0.13386858972E+02  0.13386859214E+02  0.25500000000E-02 0. -1.
         24    2    1    2    0    0 -0.35527136788E-14  0.00000000000E+00  0.11433122467E+03  0.14110494295E+03  0.82698101501E+02 0.  0.
         66    2    3    3    0    0 -0.26575555684E+02  0.26759172899E+02  0.86025530707E+02  0.93950547944E+02  0.20000078283E+01 0.  0.
        -13    1    3    3    0    0  0.26575555684E+02 -0.26759172899E+02  0.28305693962E+02  0.47154395011E+02  0.10566000000E+00 0.  1.
         13    1    4    4    0    0 -0.47531454024E+00  0.49032552015E+00  0.12363593528E+01  0.14163656000E+01  0.10566000000E+00 0. -1.
        -13    1    4    4    0    0 -0.71880403181E+01  0.63579138441E+01  0.22234105396E+02  0.24216886647E+02  0.10566000000E+00 0.  1.
         14    1    4    4    0    0 -0.18912200825E+02  0.19910933535E+02  0.62555065959E+02  0.68317295697E+02  0.00000000000E+00 0. -1.
<mgrwt>
<rscale>  0 0.82698102E+02</rscale>
<asrwt>0</asrwt>
<pdfrwt beam="1">  1        2 0.20595166E-02 0.82698102E+02</pdfrwt>
<pdfrwt beam="2">  1       -1 0.19648937E-01 0.82698102E+02</pdfrwt>
<totfact> 0.10322441E+05</totfact>
</mgrwt>
</event>
<event>
 8    1  0.1584676E-020  0.7751922E+02  0.7818608E-02  0.1336243E+00
          2   -1    0    0  501    0  0.00000000000E+00  0.00000000000E+00  0.82413123918E+03  0.82413123918E+03  0.25500000000E-02 0. -1.
         -1   -1    0    0    0  501 -0.00000000000E+00 -0.00000000000E+00 -0.18228947386E+01  0.18229017060E+01  0.50400000000E-02 0.  1.
         24    2    1    2    0    0  0.17763568394E-14  0.00000000000E+00  0.82230834444E+03  0.82595414089E+03  0.77519220296E+02 0.  0.
         66    2    3    3    0    0  0.93692637323E+01 -0.26858628122E+02  0.69153636933E+03  0.69212406338E+03  0.19999993751E+01 0.  0.
        -13    1    3    3    0    0 -0.93692637323E+01  0.26858628122E+02  0.13077197511E+03  0.13383007751E+03  0.10566000000E+00 0.  1.
         13    1    4    4    0    0  0.50020371104E+01 -0.13336323321E+02  0.34650109671E+03  0.34679374141E+03  0.10566000000E+00 0.  1.
        -13    1    4    4    0    0  0.34777387238E+01 -0.11429209592E+02  0.29972061196E+03  0.29995862698E+03  0.10566000000E+00 0. -1.
        -14    1    4    4    0    0  0.88948789798E+00 -0.20930952093E+01  0.45314660651E+02  0.45371694989E+02  0.00000000000E+00 0.  1.
<mgrwt>
<rscale>  0 0.77519220E+02</rscale>
<asrwt>0</asrwt>
<pdfrwt beam="1">  1        2 0.12678936E+00 0.77519220E+02</pdfrwt>
<pdfrwt beam="2">  1       -1 0.28044602E-03 0.77519220E+02</pdfrwt>
<totfact> 0.37474300E+05</totfact>
</mgrwt>
</event>
<event>
 8    1  0.1226832E-020  0.8121480E+02  0.7818608E-02  0.1325639E+00
         -1   -1    0    0    0  501 -0.00000000000E+00  0.00000000000E+00  0.70116452065E+01  0.70116470178E+01  0.50400000000E-02 0.  1.
          2   -1    0    0  501    0  0.00000000000E+00 -0.00000000000E+00 -0.23517457659E+03  0.23517457661E+03  0.25500000000E-02 0. -1.
         24    2    1    2    0    0 -0.71054273576E-14  0.00000000000E+00 -0.22816293139E+03  0.24218622362E+03  0.81214799480E+02 0.  0.
         66    2    3    3    0    0  0.36839132310E+02  0.83403823831E+01 -0.15840870165E+03  0.16286190593E+03  0.19999992457E+01 0.  0.
        -13    1    3    3    0    0 -0.36839132310E+02 -0.83403823831E+01 -0.69754229738E+02  0.79324317697E+02  0.10566000000E+00 0.  1.
         13    1    4    4    0    0  0.16400697278E+02  0.38429307655E+01 -0.67838521705E+02  0.69898692257E+02  0.10566000000E+00 0. -1.
        -13    1    4    4    0    0  0.72381024958E+01  0.19692877457E+01 -0.30780426317E+02  0.31681446152E+02  0.10566000000E+00 0.  1.
         14    1    4    4    0    0  0.13200332536E+02  0.25281638719E+01 -0.59789753625E+02  0.61281767518E+02  0.00000000000E+00 0. -1.
<mgrwt>
<rscale>  0 0.81214799E+02</rscale>
<asrwt>0</asrwt>
<pdfrwt beam="1">  1        2 0.36180698E-01 0.81214799E+02</pdfrwt>
<pdfrwt beam="2">  1       -1 0.10787150E-02 0.81214799E+02</pdfrwt>
<totfact> 0.22444188E+05</totfact>
</mgrwt>
</event>
<event>
 8    1  0.1226832E-020  0.7832123E+02  0.7818608E-02  0.1333884E+00
         -1   -1    0    0    0  501 -0.00000000000E+00  0.00000000000E+00  0.50493167144E+02  0.50493167396E+02  0.50400000000E-02 0.  1.
          2   -1    0    0  501    0  0.00000000000E+00 -0.00000000000E+00 -0.30371509191E+02  0.30371509298E+02  0.25500000000E-02 0. -1.
         24    2    1    2    0    0  0.00000000000E+00  0.00000000000E+00  0.20121657954E+02  0.80864676693E+02  0.78321228399E+02 0.  0.
         66    2    3    3    0    0 -0.16069311460E+02  0.29940977179E+02 -0.99760394952E+01  0.35471203142E+02  0.20000007772E+01 0.  0.
        -13    1    3    3    0    0  0.16069311460E+02 -0.29940977179E+02  0.30097697449E+02  0.45393473551E+02  0.10566000000E+00 0.  1.
         13    1    4    4    0    0 -0.58035162377E+01  0.98057448705E+01 -0.32250571165E+01  0.11842533117E+02  0.10566000000E+00 0. -1.
        -13    1    4    4    0    0 -0.91064827503E+00  0.25729886201E+01 -0.54930127999E+00  0.27861167693E+01  0.10566000000E+00 0.  1.
         14    1    4    4    0    0 -0.93551469477E+01  0.17562243689E+02 -0.62016810986E+01  0.20842553256E+02  0.00000000000E+00 0. -1.
<mgrwt>
<rscale>  0 0.78321228E+02</rscale>
<asrwt>0</asrwt>
<pdfrwt beam="1">  1        2 0.46725399E-02 0.78321228E+02</pdfrwt>
<pdfrwt beam="2">  1       -1 0.77681795E-02 0.78321228E+02</pdfrwt>
<totfact> 0.14311968E+05</totfact>
</mgrwt>
</event>
<event>
 8    1  0.1226832E-020  0.7536856E+02  0.7818608E-02  0.1342734E+00
         -1   -1    0    0    0  501 -0.00000000000E+00  0.00000000000E+00  0.20505535196E+01  0.20505597134E+01  0.50400000000E-02 0.  1.
          2   -1    0    0  501    0  0.00000000000E+00 -0.00000000000E+00 -0.69254600455E+03  0.69254600456E+03  0.25500000000E-02 0. -1.
         24    2    1    2    0    0  0.00000000000E+00  0.00000000000E+00 -0.69049545104E+03  0.69459656427E+03  0.75368555774E+02 0.  0.
         66    2    3    3    0    0  0.34287773504E+02  0.46818646789E+01 -0.48234966049E+03  0.48359359615E+03  0.19999996999E+01 0.  0.
        -13    1    3    3    0    0 -0.34287773504E+02 -0.46818646789E+01 -0.20814579055E+03  0.21100296812E+03  0.10566000000E+00 0.  1.
         13    1    4    4    0    0  0.11529143120E+02  0.10952947890E+01 -0.16739371421E+03  0.16779388408E+03  0.10566000000E+00 0. -1.
        -13    1    4    4    0    0  0.42680420450E+01  0.39782105966E+00 -0.63639548421E+02  0.63783835976E+02  0.10566000000E+00 0.  1.
        -14    1    4    4    0    0  0.18490588339E+02  0.31887488302E+01 -0.25131639785E+03  0.25201587610E+03  0.00000000000E+00 0.  1.
<mgrwt>
<rscale>  0 0.75368556E+02</rscale>
<asrwt>0</asrwt>
<pdfrwt beam="1">  1        2 0.10654535E+00 0.75368556E+02</pdfrwt>
<pdfrwt beam="2">  1       -1 0.31547080E-03 0.75368556E+02</pdfrwt>
<totfact> 0.38946964E+05</totfact>
</mgrwt>
</event>
<event>
 8    1  0.1226832E-020  0.7903593E+02  0.7818608E-02  0.1331810E+00
          2   -1    0    0  501    0  0.00000000000E+00  0.00000000000E+00  0.58103374660E+03  0.58103374660E+03  0.25500000000E-02 0. -1.
         -1   -1    0    0    0  501 -0.00000000000E+00 -0.00000000000E+00 -0.26877406072E+01  0.26877453327E+01  0.50400000000E-02 0.  1.
         24    2    1    2    0    0  0.00000000000E+00  0.71054273576E-14  0.57834600599E+03  0.58372149194E+03  0.79035925394E+02 0.  0.
         66    2    3    3    0    0 -0.12661503815E+02 -0.35883103917E+02  0.36743264041E+03  0.36940310782E+03  0.20000006934E+01 0.  0.
        -13    1    3    3    0    0  0.12661503815E+02  0.35883103917E+02  0.21091336558E+03  0.21431838412E+03  0.10566000000E+00 0.  1.
         13    1    4    4    0    0 -0.77891780079E+01 -0.21072946740E+02  0.21015246894E+03  0.21134997456E+03  0.10566000000E+00 0. -1.
        -13    1    4    4    0    0 -0.10342992397E+01 -0.34990739866E+01  0.33745378498E+02  0.33942230741E+02  0.10566000000E+00 0.  1.
         14    1    4    4    0    0 -0.38380265672E+01 -0.11311083190E+02  0.12353479297E+03  0.12411090252E+03  0.00000000000E+00 0. -1.
<mgrwt>
<rscale>  0 0.79035925E+02</rscale>
<asrwt>0</asrwt>
<pdfrwt beam="1">  1        2 0.89389857E-01 0.79035925E+02</pdfrwt>
<pdfrwt beam="2">  1       -1 0.41349869E-03 0.79035925E+02</pdfrwt>
<totfact> 0.32894059E+05</totfact>
</mgrwt>
</event>
<event>
 8    1  0.1226832E-020  0.7968894E+02  0.7818608E-02  0.1329937E+00
          2   -1    0    0  501    0  0.00000000000E+00  0.00000000000E+00  0.12333004995E+03  0.12333004997E+03  0.25500000000E-02 0. -1.
         -1   -1    0    0    0  501 -0.00000000000E+00 -0.00000000000E+00 -0.12872625564E+02  0.12872626551E+02  0.50400000000E-02 0.  1.
         24    2    1    2    0    0  0.00000000000E+00  0.00000000000E+00  0.11045742438E+03  0.13620267652E+03  0.79688935812E+02 0.  0.
         66    2    3    3    0    0 -0.12327782280E+02 -0.20317056698E+02  0.10987213947E+03  0.11243061874E+03  0.19999973647E+01 0.  0.
        -13    1    3    3    0    0  0.12327782280E+02  0.20317056698E+02  0.58528491192E+00  0.23772057784E+02  0.10566000000E+00 0.  1.
         13    1    4    4    0    0 -0.15579591090E+01 -0.22986088540E+01  0.13828964815E+02  0.14105398652E+02  0.10566000000E+00 0. -1.
        -13    1    4    4    0    0 -0.81740313568E+00 -0.88627725835E+00  0.43077288926E+01  0.44745198080E+01  0.10566000000E+00 0.  1.
        -14    1    4    4    0    0 -0.99524200357E+01 -0.17132170586E+02  0.91735445763E+02  0.93850700279E+02  0.00000000000E+00 0.  1.
<mgrwt>
<rscale>  0 0.79688936E+02</rscale>
<asrwt>0</asrwt>
<pdfrwt beam="1">  1        2 0.18973854E-01 0.79688936E+02</pdfrwt>
<pdfrwt beam="2">  1       -1 0.19804040E-02 0.79688936E+02</pdfrwt>
<totfact> 0.19037653E+05</totfact>
</mgrwt>
</event>
<event>
 8    1  0.1226832E-020  0.7582083E+02  0.7818608E-02  0.1341348E+00
         -1   -1    0    0    0  501 -0.00000000000E+00  0.00000000000E+00  0.25629121967E+02  0.25629122462E+02  0.50400000000E-02 0.  1.
          2   -1    0    0  501    0  0.00000000000E+00 -0.00000000000E+00 -0.56076815667E+02  0.56076815725E+02  0.25500000000E-02 0. -1.
         24    2    1    2    0    0  0.17763568394E-14 -0.71054273576E-14 -0.30447693700E+02  0.81705938187E+02  0.75820830142E+02 0.  0.
         66    2    3    3    0    0 -0.15192676237E+02  0.29818968063E+02 -0.34366508537E+02  0.48010886008E+02  0.19999996712E+01 0.  0.
        -13    1    3    3    0    0  0.15192676237E+02 -0.29818968063E+02  0.39188148365E+01  0.33695052179E+02  0.10566000000E+00 0.  1.
         13    1    4    4    0    0 -0.75314565097E+01  0.13972492150E+02 -0.15721601456E+02  0.22341291154E+02  0.10566000000E+00 0. -1.
        -13    1    4    4    0    0 -0.78556078286E+00  0.11974649263E+01 -0.19184244470E+01  0.23963606547E+01  0.10566000000E+00 0.  1.
         14    1    4    4    0    0 -0.68756589445E+01  0.14649010987E+02 -0.16726482634E+02  0.23273234200E+02  0.00000000000E+00 0. -1.
<mgrwt>
<rscale>  0 0.75820830E+02</rscale>
<asrwt>0</asrwt>
<pdfrwt beam="1">  1        2 0.86272024E-02 0.75820830E+02</pdfrwt>
<pdfrwt beam="2">  1       -1 0.39429419E-02 0.75820830E+02</pdfrwt>
<totfact> 0.17733484E+05</totfact>
</mgrwt>
</event>
<event>
 8    1  0.1226832E-020  0.7954884E+02  0.7818608E-02  0.1330337E+00
          2   -1    0    0  501    0  0.00000000000E+00  0.00000000000E+00  0.38830868392E+03  0.38830868393E+03  0.25500000000E-02 0. -1.
         -1   -1    0    0    0  501 -0.00000000000E+00 -0.00000000000E+00 -0.40740882307E+01  0.40740913482E+01  0.50400000000E-02 0.  1.
         24    2    1    2    0    0  0.35527136788E-14 -0.35527136788E-14  0.38423459569E+03  0.39238277528E+03  0.79548839145E+02 0.  0.
         66    2    3    3    0    0  0.12677390534E+02 -0.24367138092E+02  0.33396175353E+03  0.33509539907E+03  0.20000023900E+01 0.  0.
        -13    1    3    3    0    0 -0.12677390534E+02  0.24367138092E+02  0.50272842165E+02  0.57287376209E+02  0.10566000000E+00 0.  1.
         13    1    4    4    0    0  0.51415968982E+01 -0.91884451440E+01  0.12890071828E+03  0.12933008111E+03  0.10566000000E+00 0. -1.
        -13    1    4    4    0    0  0.16698788817E+01 -0.32259263389E+01  0.37212463303E+02  0.37389486294E+02  0.10566000000E+00 0.  1.
         14    1    4    4    0    0  0.58659147540E+01 -0.11952766609E+02  0.16784857194E+03  0.16837583166E+03  0.00000000000E+00 0. -1.
<mgrwt>
<rscale>  0 0.79548839E+02</rscale>
<asrwt>0</asrwt>
<pdfrwt beam="1">  1        2 0.59739803E-01 0.79548839E+02</pdfrwt>
<pdfrwt beam="2">  1       -1 0.62678299E-03 0.79548839E+02</pdfrwt>
<totfact> 0.28377215E+05</totfact>
</mgrwt>
</event>
<event>
 8    1  0.1226832E-020  0.8227561E+02  0.7818608E-02  0.1322715E+00
         -1   -1    0    0    0  501 -0.00000000000E+00  0.00000000000E+00  0.39275285638E+02  0.39275285962E+02  0.50400000000E-02 0.  1.
          2   -1    0    0  501    0  0.00000000000E+00 -0.00000000000E+00 -0.43088644866E+02  0.43088644942E+02  0.25500000000E-02 0. -1.
         24    2    1    2    0    0  0.35527136788E-14  0.00000000000E+00 -0.38133592280E+01  0.82363930904E+02  0.82275606381E+02 0.  0.
         66    2    3    3    0    0  0.29244910391E+02 -0.10409794427E+02 -0.28893842860E+02  0.42455655734E+02  0.19999861868E+01 0.  0.
        -13    1    3    3    0    0 -0.29244910391E+02  0.10409794427E+02  0.25080483632E+02  0.39908275170E+02  0.10566000000E+00 0.  1.
         13    1    4    4    0    0  0.10751440433E+02 -0.40040348563E+01 -0.10267322654E+02  0.15396585499E+02  0.10566000000E+00 0.  1.
        -13    1    4    4    0    0  0.10235442504E+02 -0.33982424977E+01 -0.92630764161E+01  0.14217175671E+02  0.10566000000E+00 0. -1.
         14    1    4    4    0    0  0.82580274539E+01 -0.30075170726E+01 -0.93634437900E+01  0.12841894564E+02  0.00000000000E+00 0. -1.
<mgrwt>
<rscale>  0 0.82275606E+02</rscale>
<asrwt>0</asrwt>
<pdfrwt beam="1">  1        2 0.66290224E-02 0.82275606E+02</pdfrwt>
<pdfrwt beam="2">  1       -1 0.60423516E-02 0.82275606E+02</pdfrwt>
<totfact> 0.13397696E+05</totfact>
</mgrwt>
</event>
<event>
 8    1  0.1226832E-020  0.8269354E+02  0.7818608E-02  0.1321577E+00
          2   -1    0    0  501    0  0.00000000000E+00  0.00000000000E+00  0.61580584539E+03  0.61580584539E+03  0.25500000000E-02 0. -1.
         -1   -1    0    0    0  501 -0.00000000000E+00 -0.00000000000E+00 -0.27761248846E+01  0.27761294596E+01  0.50400000000E-02 0.  1.
         24    2    1    2    0    0  0.00000000000E+00  0.88817841970E-15  0.61302972050E+03  0.61858197485E+03  0.82693539000E+02 0.  0.
         66    2    3    3    0    0  0.36602263260E+02 -0.62779966647E+01  0.44225467054E+03  0.44381565152E+03  0.19999999997E+01 0.  0.
        -13    1    3    3    0    0 -0.36602263260E+02  0.62779966647E+01  0.17077504996E+03  0.17476632333E+03  0.10566000000E+00 0.  1.
         13    1    4    4    0    0  0.20839888298E+02 -0.28734729481E+01  0.24464771503E+03  0.24555055167E+03  0.10566000000E+00 0. -1.
        -13    1    4    4    0    0  0.15132159417E+02 -0.31248952795E+01  0.18913062424E+03  0.18976077416E+03  0.10566000000E+00 0.  1.
         14    1    4    4    0    0  0.63021554504E+00 -0.27962843719E+00  0.84763312752E+01  0.85043256984E+01  0.00000000000E+00 0. -1.
<mgrwt>
<rscale>  0 0.82693539E+02</rscale>
<asrwt>0</asrwt>
<pdfrwt beam="1">  1        2 0.94739418E-01 0.82693539E+02</pdfrwt>
<pdfrwt beam="2">  1       -1 0.42709623E-03 0.82693539E+02</pdfrwt>
<totfact> 0.29715832E+05</totfact>
</mgrwt>
</event>
<event>
 8    1  0.1226832E-020  0.8143739E+02  0.7818608E-02  0.1325021E+00
          2   -1    0    0  501    0  0.00000000000E+00  0.00000000000E+00  0.82566643700E+01  0.82566647638E+01  0.25500000000E-02 0. -1.
         -1   -1    0    0    0  501 -0.00000000000E+00 -0.00000000000E+00 -0.20080894610E+03  0.20080894616E+03  0.50400000000E-02 0.  1.
         24    2    1    2    0    0  0.00000000000E+00 -0.71054273576E-14 -0.19255228173E+03  0.20906561093E+03  0.81437389894E+02 0.  0.
         66    2    3    3    0    0 -0.20148487371E+02 -0.35334019618E+02 -0.93135181248E+02  0.10164947844E+03  0.19999989423E+01 0.  0.
        -13    1    3    3    0    0  0.20148487371E+02  0.35334019618E+02 -0.99417100480E+02  0.10741613248E+03  0.10566000000E+00 0.  1.
         13    1    4    4    0    0 -0.11797902541E+01 -0.26128513928E+01 -0.71135527599E+01  0.76702473460E+01  0.10566000000E+00 0.  1.
        -13    1    4    4    0    0 -0.11747408073E+02 -0.19580349679E+02 -0.50490087136E+02  0.55413461839E+02  0.10566000000E+00 0. -1.
         14    1    4    4    0    0 -0.72212890438E+01 -0.13140818546E+02 -0.35531541353E+02  0.38565769257E+02  0.00000000000E+00 0. -1.
<mgrwt>
<rscale>  0 0.81437390E+02</rscale>
<asrwt>0</asrwt>
<pdfrwt beam="1">  1        2 0.12702562E-02 0.81437390E+02</pdfrwt>
<pdfrwt beam="2">  1       -1 0.30893680E-01 0.81437390E+02</pdfrwt>
<totfact> 0.95071748E+04</totfact>
</mgrwt>
</event>
<event>
 8    1  0.1226832E-020  0.7980167E+02  0.7818608E-02  0.1329615E+00
          2   -1    0    0  501    0  0.00000000000E+00  0.00000000000E+00  0.27071700329E+02  0.27071700450E+02  0.25500000000E-02 0. -1.
         -1   -1    0    0    0  501 -0.00000000000E+00 -0.00000000000E+00 -0.58809629699E+02  0.58809629915E+02  0.50400000000E-02 0.  1.
         24    2    1    2    0    0 -0.88817841970E-15 -0.35527136788E-14 -0.31737929369E+02  0.85881330364E+02  0.79801671314E+02 0.  0.
         66    2    3    3    0    0 -0.75006638835E+01 -0.18416349238E+02  0.21318025147E+02  0.29221226661E+02  0.20000033722E+01 0.  0.
        -13    1    3    3    0    0  0.75006638835E+01  0.18416349238E+02 -0.53055954516E+02  0.56660103703E+02  0.10566000000E+00 0.  1.
         13    1    4    4    0    0 -0.29618741350E+01 -0.80782951977E+01  0.84349662816E+01  0.12049538244E+02  0.10566000000E+00 0. -1.
        -13    1    4    4    0    0 -0.75272303977E+00 -0.26993524674E+01  0.36771195090E+01  0.46244424136E+01  0.10566000000E+00 0.  1.
         14    1    4    4    0    0 -0.37860667087E+01 -0.76387015727E+01  0.92059393564E+01  0.12547246004E+02  0.00000000000E+00 0. -1.
<mgrwt>
<rscale>  0 0.79801671E+02</rscale>
<asrwt>0</asrwt>
<pdfrwt beam="1">  1        2 0.41648770E-02 0.79801671E+02</pdfrwt>
<pdfrwt beam="2">  1       -1 0.90476353E-02 0.79801671E+02</pdfrwt>
<totfact> 0.13278262E+05</totfact>
</mgrwt>
</event>
<event>
 8    1  0.1226832E-020  0.8046356E+02  0.7818608E-02  0.1327741E+00
          2   -1    0    0  501    0  0.00000000000E+00  0.00000000000E+00  0.18897469212E+02  0.18897469384E+02  0.25500000000E-02 0. -1.
         -1   -1    0    0    0  501 -0.00000000000E+00 -0.00000000000E+00 -0.85651484705E+02  0.85651484853E+02  0.50400000000E-02 0.  1.
         24    2    1    2    0    0  0.00000000000E+00  0.00000000000E+00 -0.66754015493E+02  0.10454895424E+03  0.80463564720E+02 0.  0.
         66    2    3    3    0    0 -0.56796344284E+01  0.38274269940E+02 -0.19198926621E+02  0.43240915381E+02  0.19999982121E+01 0.  0.
        -13    1    3    3    0    0  0.56796344284E+01 -0.38274269940E+02 -0.47555088872E+02  0.61308038856E+02  0.10566000000E+00 0.  1.
         13    1    4    4    0    0 -0.27518798059E+01  0.19446532993E+02 -0.97344503544E+01  0.21920565131E+02  0.10566000000E+00 0. -1.
        -13    1    4    4    0    0 -0.16647005847E+01  0.66230185924E+01 -0.36124881622E+01  0.77263728922E+01  0.10566000000E+00 0.  1.
         14    1    4    4    0    0 -0.12630540378E+01  0.12204718355E+02 -0.58519881045E+01  0.13593977358E+02  0.00000000000E+00 0. -1.
<mgrwt>
<rscale>  0 0.80463565E+02</rscale>
<asrwt>0</asrwt>
<pdfrwt beam="1">  1        2 0.29073030E-02 0.80463565E+02</pdfrwt>
<pdfrwt beam="2">  1       -1 0.13177151E-01 0.80463565E+02</pdfrwt>
<totfact> 0.12070342E+05</totfact>
</mgrwt>
</event>
<event>
 8    1  0.1226832E-020  0.7971215E+02  0.7818608E-02  0.1329870E+00
          2   -1    0    0  501    0  0.00000000000E+00  0.00000000000E+00  0.41142684360E+02  0.41142684439E+02  0.25500000000E-02 0. -1.
         -1   -1    0    0    0  501 -0.00000000000E+00 -0.00000000000E+00 -0.38609699720E+02  0.38609700049E+02  0.50400000000E-02 0.  1.
         24    2    1    2    0    0 -0.35527136788E-14 -0.35527136788E-14  0.25329846401E+01  0.79752384487E+02  0.79712149765E+02 0.  0.
         66    2    3    3    0    0 -0.21771031892E+02 -0.19513833154E+02  0.28331527757E+02  0.40760801998E+02  0.20000001041E+01 0.  0.
        -13    1    3    3    0    0  0.21771031892E+02  0.19513833154E+02 -0.25798543117E+02  0.38991582489E+02  0.10566000000E+00 0.  1.
         13    1    4    4    0    0 -0.95910511345E+01 -0.88312603660E+01  0.13341445659E+02  0.18654349568E+02  0.10566000000E+00 0. -1.
        -13    1    4    4    0    0 -0.45796562124E+01 -0.41901390500E+01  0.65414848582E+01  0.90184646403E+01  0.10566000000E+00 0.  1.
         14    1    4    4    0    0 -0.76003245455E+01 -0.64924337380E+01  0.84485972402E+01  0.13087987789E+02  0.00000000000E+00 0. -1.
<mgrwt>
<rscale>  0 0.79712150E+02</rscale>
<asrwt>0</asrwt>
<pdfrwt beam="1">  1        2 0.63296437E-02 0.79712150E+02</pdfrwt>
<pdfrwt beam="2">  1       -1 0.59399539E-02 0.79712150E+02</pdfrwt>
<totfact> 0.14481609E+05</totfact>
</mgrwt>
</event>
<event>
 8    1  0.1226832E-020  0.7769575E+02  0.7818608E-02  0.1335721E+00
         -1   -1    0    0    0  501 -0.00000000000E+00  0.00000000000E+00  0.28833469897E+02  0.28833470338E+02  0.50400000000E-02 0.  1.
          2   -1    0    0  501    0  0.00000000000E+00 -0.00000000000E+00 -0.52340475356E+02  0.52340475418E+02  0.25500000000E-02 0. -1.
         24    2    1    2    0    0  0.00000000000E+00 -0.22204460493E-15 -0.23507005458E+02  0.81173945755E+02  0.77695753834E+02 0.  0.
         66    2    3    3    0    0  0.24970519129E+02 -0.19670865330E+01 -0.42749770901E+02  0.49587691769E+02  0.20000019586E+01 0.  0.
        -13    1    3    3    0    0 -0.24970519129E+02  0.19670865330E+01  0.19242765443E+02  0.31586253987E+02  0.10566000000E+00 0.  1.
         13    1    4    4    0    0  0.12557427271E+02 -0.10535276609E+01 -0.23111333858E+02  0.26323826032E+02  0.10566000000E+00 0.  1.
        -13    1    4    4    0    0  0.83179744571E+01 -0.95988134429E+00 -0.13397687808E+02  0.15799344097E+02  0.10566000000E+00 0.  1.
         14    1    4    4    0    0  0.40951174007E+01  0.46322472143E-01 -0.62407492351E+01  0.74645216399E+01  0.00000000000E+00 0. -1.
<mgrwt>
<rscale>  0 0.77695754E+02</rscale>
<asrwt>0</asrwt>
<pdfrwt beam="1">  1        2 0.80523808E-02 0.77695754E+02</pdfrwt>
<pdfrwt beam="2">  1       -1 0.44359185E-02 0.77695754E+02</pdfrwt>
<totfact> 0.16346703E+05</totfact>
</mgrwt>
</event>
<event>
 8    1  0.1226832E-020  0.8048119E+02  0.7818608E-02  0.1327691E+00
         -1   -1    0    0    0  501 -0.00000000000E+00  0.00000000000E+00  0.14116592493E+02  0.14116593393E+02  0.50400000000E-02 0.  1.
          2   -1    0    0  501    0  0.00000000000E+00 -0.00000000000E+00 -0.11470937633E+03  0.11470937636E+03  0.25500000000E-02 0. -1.
         24    2    1    2    0    0 -0.17763568394E-14  0.00000000000E+00 -0.10059278383E+03  0.12882596975E+03  0.80481192351E+02 0.  0.
         66    2    3    3    0    0  0.88376495757E+01 -0.12437043741E+02 -0.10988783176E+03  0.11095999127E+03  0.19999968529E+01 0.  0.
        -13    1    3    3    0    0 -0.88376495757E+01  0.12437043741E+02  0.92950479235E+01  0.17865978478E+02  0.10566000000E+00 0.  1.
         13    1    4    4    0    0  0.13406026137E+01 -0.14303595230E+01 -0.15416505532E+02  0.15541008673E+02  0.10566000000E+00 0. -1.
        -13    1    4    4    0    0  0.29517860538E+01 -0.56344425088E+01 -0.42547814718E+02  0.43020782008E+02  0.10566000000E+00 0.  1.
        -14    1    4    4    0    0  0.45452609082E+01 -0.53722417088E+01 -0.51923511507E+02  0.52398200589E+02  0.00000000000E+00 0.  1.
<mgrwt>
<rscale>  0 0.80481192E+02</rscale>
<asrwt>0</asrwt>
<pdfrwt beam="1">  1        2 0.17647596E-01 0.80481192E+02</pdfrwt>
<pdfrwt beam="2">  1       -1 0.21717836E-02 0.80481192E+02</pdfrwt>
<totfact> 0.18145261E+05</totfact>
</mgrwt>
</event>
<event>
 8    1  0.1226832E-020  0.8001684E+02  0.7818608E-02  0.1329004E+00
          2   -1    0    0  501    0  0.00000000000E+00  0.00000000000E+00  0.90446282739E+02  0.90446282775E+02  0.25500000000E-02 0. -1.
         -1   -1    0    0    0  501 -0.00000000000E+00 -0.00000000000E+00 -0.17697507534E+02  0.17697508252E+02  0.50400000000E-02 0.  1.
         24    2    1    2    0    0  0.00000000000E+00  0.00000000000E+00  0.72748775205E+02  0.10814379103E+03  0.80016843501E+02 0.  0.
         66    2    3    3    0    0  0.13925230824E+02 -0.10775615195E+02  0.84913214159E+02  0.86742607054E+02  0.20000008265E+01 0.  0.
        -13    1    3    3    0    0 -0.13925230824E+02  0.10775615195E+02 -0.12164438954E+02  0.21401183973E+02  0.10566000000E+00 0.  1.
         13    1    4    4    0    0  0.83274281742E+01 -0.59214274930E+01  0.50271918500E+02  0.51299964105E+02  0.10566000000E+00 0. -1.
        -13    1    4    4    0    0  0.95509657663E+00 -0.69237667241E+00  0.76078249738E+01  0.76994649031E+01  0.10566000000E+00 0.  1.
         14    1    4    4    0    0  0.46427060727E+01 -0.41618110297E+01  0.27033470686E+02  0.27743178045E+02  0.00000000000E+00 0. -1.
<mgrwt>
<rscale>  0 0.80016844E+02</rscale>
<asrwt>0</asrwt>
<pdfrwt beam="1">  1        2 0.13914813E-01 0.80016844E+02</pdfrwt>
<pdfrwt beam="2">  1       -1 0.27226935E-02 0.80016844E+02</pdfrwt>
<totfact> 0.17233909E+05</totfact>
</mgrwt>
</event>
<event>
 8    1  0.1226832E-020  0.8247043E+02  0.7818608E-02  0.1322183E+00
          2   -1    0    0  501    0  0.00000000000E+00  0.00000000000E+00  0.11805312657E+03  0.11805312660E+03  0.25500000000E-02 0. -1.
         -1   -1    0    0    0  501 -0.00000000000E+00 -0.00000000000E+00 -0.14403201890E+02  0.14403202772E+02  0.50400000000E-02 0.  1.
         24    2    1    2    0    0  0.00000000000E+00  0.00000000000E+00  0.10364992468E+03  0.13245632937E+03  0.82470432908E+02 0.  0.
         66    2    3    3    0    0 -0.17509395738E+02  0.36685967265E+02  0.40974181180E+02  0.57752252369E+02  0.19999992694E+01 0.  0.
        -13    1    3    3    0    0  0.17509395738E+02 -0.36685967265E+02  0.62675743503E+02  0.74704077004E+02  0.10566000000E+00 0.  1.
         13    1    4    4    0    0 -0.99362557396E+01  0.20988752968E+02  0.24287608567E+02  0.33602916886E+02  0.10566000000E+00 0. -1.
        -13    1    4    4    0    0 -0.30474622316E+01  0.55810293602E+01  0.56069989307E+01  0.84784736726E+01  0.10566000000E+00 0.  1.
         14    1    4    4    0    0 -0.45256777664E+01  0.10116184936E+02  0.11079573682E+02  0.15670861811E+02  0.00000000000E+00 0. -1.
<mgrwt>
<rscale>  0 0.82470433E+02</rscale>
<asrwt>0</asrwt>
<pdfrwt beam="1">  1        2 0.18162020E-01 0.82470433E+02</pdfrwt>
<pdfrwt beam="2">  1       -1 0.22158773E-02 0.82470433E+02</pdfrwt>
<totfact> 0.17143950E+05</totfact>
</mgrwt>
</event>
<event>
 8    1  0.1226832E-020  0.8030332E+02  0.7818608E-02  0.1328193E+00
         -1   -1    0    0    0  501 -0.00000000000E+00  0.00000000000E+00  0.63288670221E+02  0.63288670422E+02  0.50400000000E-02 0.  1.
          2   -1    0    0  501    0  0.00000000000E+00 -0.00000000000E+00 -0.25473055489E+02  0.25473055617E+02  0.25500000000E-02 0. -1.
         24    2    1    2    0    0  0.35527136788E-14  0.35527136788E-14  0.37815614732E+02  0.88761726038E+02  0.80303320552E+02 0.  0.
         66    2    3    3    0    0 -0.28693919327E+02 -0.24090882652E+02  0.30381190947E+01  0.37642287464E+02  0.20000011313E+01 0.  0.
        -13    1    3    3    0    0  0.28693919327E+02  0.24090882652E+02  0.34777495637E+02  0.51119438574E+02  0.10566000000E+00 0.  1.
         13    1    4    4    0    0 -0.62394028179E+01 -0.54818917379E+01  0.15674451459E+00  0.83076481286E+01  0.10566000000E+00 0. -1.
        -13    1    4    4    0    0 -0.73692137088E+01 -0.65083424210E+01  0.15048496943E+01  0.99468371050E+01  0.10566000000E+00 0.  1.
        -14    1    4    4    0    0 -0.15085302801E+02 -0.12100648493E+02  0.13765248858E+01  0.19387802230E+02  0.00000000000E+00 0.  1.
<mgrwt>
<rscale>  0 0.80303321E+02</rscale>
<asrwt>0</asrwt>
<pdfrwt beam="1">  1        2 0.39189317E-02 0.80303321E+02</pdfrwt>
<pdfrwt beam="2">  1       -1 0.97367184E-02 0.80303321E+02</pdfrwt>
<totfact> 0.12889707E+05</totfact>
</mgrwt>
</event>
<event>
 8    1  0.1226832E-020  0.7999170E+02  0.7818608E-02  0.1329075E+00
          2   -1    0    0  501    0  0.00000000000E+00  0.00000000000E+00  0.13809763109E+03  0.13809763111E+03  0.25500000000E-02 0. -1.
         -1   -1    0    0    0  501 -0.00000000000E+00 -0.00000000000E+00 -0.11583602927E+02  0.11583604024E+02  0.50400000000E-02 0.  1.
         24    2    1    2    0    0  0.00000000000E+00  0.00000000000E+00  0.12651402816E+03  0.14968123513E+03  0.79991704758E+02 0.  0.
         66    2    3    3    0    0 -0.19181491581E+02 -0.10311864913E+01  0.12888681786E+03  0.13032576408E+03  0.19999999966E+01 0.  0.
        -13    1    3    3    0    0  0.19181491581E+02  0.10311864913E+01 -0.23727896976E+01  0.19355471057E+02  0.10566000000E+00 0.  1.
         13    1    4    4    0    0 -0.58132881032E+01 -0.74685228836E+00  0.42639062217E+02  0.43040131246E+02  0.10566000000E+00 0. -1.
        -13    1    4    4    0    0 -0.39862300824E+01  0.33585534995E+00  0.23829834075E+02  0.24163505234E+02  0.10566000000E+00 0.  1.
         14    1    4    4    0    0 -0.93819733959E+01 -0.62018955287E+00  0.62417921565E+02  0.63122127597E+02  0.00000000000E+00 0. -1.
<mgrwt>
<rscale>  0 0.79991705E+02</rscale>
<asrwt>0</asrwt>
<pdfrwt beam="1">  1        2 0.21245789E-01 0.79991705E+02</pdfrwt>
<pdfrwt beam="2">  1       -1 0.17820929E-02 0.79991705E+02</pdfrwt>
<totfact> 0.19515290E+05</totfact>
</mgrwt>
</event>
<event>
 8    1  0.1226832E-020  0.8509279E+02  0.7818608E-02  0.1315190E+00
          2   -1    0    0  501    0  0.00000000000E+00  0.00000000000E+00  0.29477831892E+03  0.29477831893E+03  0.25500000000E-02 0. -1.
         -1   -1    0    0    0  501 -0.00000000000E+00 -0.00000000000E+00 -0.61408707871E+01  0.61408728554E+01  0.50400000000E-02 0.  1.
         24    2    1    2    0    0  0.00000000000E+00  0.00000000000E+00  0.28863744813E+03  0.30091919178E+03  0.85092793588E+02 0.  0.
         66    2    3    3    0    0  0.37801541586E+02 -0.15530499285E+02  0.18594681482E+03  0.19039530166E+03  0.19999995721E+01 0.  0.
        -13    1    3    3    0    0 -0.37801541586E+02  0.15530499285E+02  0.10269063331E+03  0.11052389012E+03  0.10566000000E+00 0.  1.
         13    1    4    4    0    0  0.13149058402E+02 -0.62182765409E+01  0.63684460001E+02  0.65324469456E+02  0.10566000000E+00 0. -1.
        -13    1    4    4    0    0  0.20562195231E+01 -0.74293183528E+00  0.10338990905E+02  0.10568154210E+02  0.10566000000E+00 0.  1.
         14    1    4    4    0    0  0.22596263662E+02 -0.85692909087E+01  0.11192336391E+03  0.11450267799E+03  0.00000000000E+00 0. -1.
<mgrwt>
<rscale>  0 0.85092794E+02</rscale>
<asrwt>0</asrwt>
<pdfrwt beam="1">  1        2 0.45350503E-01 0.85092794E+02</pdfrwt>
<pdfrwt beam="2">  1       -1 0.94474967E-03 0.85092794E+02</pdfrwt>
<totfact> 0.21536770E+05</totfact>
</mgrwt>
</event>
<event>
 8    1  0.1226832E-020  0.7986800E+02  0.7818608E-02  0.1329426E+00
          2   -1    0    0  501    0  0.00000000000E+00  0.00000000000E+00  0.53646500719E+03  0.53646500719E+03  0.25500000000E-02 0. -1.
         -1   -1    0    0    0  501 -0.00000000000E+00 -0.00000000000E+00 -0.29726512227E+01  0.29726554953E+01  0.50400000000E-02 0.  1.
         24    2    1    2    0    0  0.00000000000E+00  0.00000000000E+00  0.53349235596E+03  0.53943766269E+03  0.79868003946E+02 0.  0.
         66    2    3    3    0    0  0.25265913086E+02 -0.68662378313E+01  0.47034619403E+03  0.47107860684E+03  0.19999983232E+01 0.  0.
        -13    1    3    3    0    0 -0.25265913086E+02  0.68662378313E+01  0.63146161929E+02  0.68359055848E+02  0.10566000000E+00 0.  1.
         13    1    4    4    0    0  0.12370146873E+01 -0.19573104024E+00  0.26031254879E+02  0.26061579203E+02  0.10566000000E+00 0. -1.
        -13    1    4    4    0    0  0.59347716836E+01 -0.22484706628E+01  0.10659733370E+03  0.10678614073E+03  0.10566000000E+00 0.  1.
         14    1    4    4    0    0  0.18094126715E+02 -0.44220361283E+01  0.33771760545E+03  0.33823088691E+03  0.00000000000E+00 0. -1.
<mgrwt>
<rscale>  0 0.79868004E+02</rscale>
<asrwt>0</asrwt>
<pdfrwt beam="1">  1        2 0.82532992E-01 0.79868004E+02</pdfrwt>
<pdfrwt beam="2">  1       -1 0.45733176E-03 0.79868004E+02</pdfrwt>
<totfact> 0.31261434E+05</totfact>
</mgrwt>
</event>
<event>
 8    1  0.1226832E-020  0.7992809E+02  0.7818608E-02  0.1329256E+00
         -1   -1    0    0    0  501 -0.00000000000E+00  0.00000000000E+00  0.11715579871E+02  0.11715580955E+02  0.50400000000E-02 0.  1.
          2   -1    0    0  501    0  0.00000000000E+00 -0.00000000000E+00 -0.13632487164E+03  0.13632487167E+03  0.25500000000E-02 0. -1.
         24    2    1    2    0    0  0.00000000000E+00  0.00000000000E+00 -0.12460929177E+03  0.14804045262E+03  0.79928092787E+02 0.  0.
         66    2    3    3    0    0  0.95094668917E+01 -0.23048674796E+02 -0.12013152346E+03  0.12270800419E+03  0.19999982281E+01 0.  0.
        -13    1    3    3    0    0 -0.95094668917E+01  0.23048674796E+02 -0.44777683098E+01  0.25332448430E+02  0.10566000000E+00 0.  1.
         13    1    4    4    0    0  0.50900151244E+01 -0.11618559935E+02 -0.57072098073E+02  0.58464816184E+02  0.10566000000E+00 0. -1.
        -13    1    4    4    0    0  0.51255042410E+00 -0.86791165251E+00 -0.50159981091E+01  0.51173606127E+01  0.10566000000E+00 0.  1.
        -14    1    4    4    0    0  0.39069013432E+01 -0.10562203209E+02 -0.58043427281E+02  0.59125827396E+02  0.00000000000E+00 0.  1.
<mgrwt>
<rscale>  0 0.79928093E+02</rscale>
<asrwt>0</asrwt>
<pdfrwt beam="1">  1        2 0.20973056E-01 0.79928093E+02</pdfrwt>
<pdfrwt beam="2">  1       -1 0.18023971E-02 0.79928093E+02</pdfrwt>
<totfact> 0.19477551E+05</totfact>
</mgrwt>
</event>
<event>
 8    1  0.1226832E-020  0.7906418E+02  0.7818608E-02  0.1331728E+00
         -1   -1    0    0    0  501 -0.00000000000E+00  0.00000000000E+00  0.62791016863E+01  0.62791037090E+01  0.50400000000E-02 0.  1.
          2   -1    0    0  501    0  0.00000000000E+00 -0.00000000000E+00 -0.24888686391E+03  0.24888686393E+03  0.25500000000E-02 0. -1.
         24    2    1    2    0    0  0.35527136788E-14 -0.35527136788E-14 -0.24260776223E+03  0.25516596763E+03  0.79064181185E+02 0.  0.
         66    2    3    3    0    0 -0.17888271200E+02  0.31787935541E+02 -0.72402606901E+02  0.81096242651E+02  0.19999983893E+01 0.  0.
        -13    1    3    3    0    0  0.17888271200E+02 -0.31787935541E+02 -0.17020515533E+03  0.17406972498E+03  0.10566000000E+00 0.  1.
         13    1    4    4    0    0 -0.10927314642E+01  0.12720415755E+01 -0.33756216210E+01  0.37706945231E+01  0.10566000000E+00 0.  1.
        -13    1    4    4    0    0 -0.99997451708E+01  0.17731295185E+02 -0.41428199038E+02  0.46159512259E+02  0.10566000000E+00 0. -1.
         14    1    4    4    0    0 -0.67957945654E+01  0.12784598781E+02 -0.27598786241E+02  0.31166035868E+02  0.00000000000E+00 0. -1.
<mgrwt>
<rscale>  0 0.79064181E+02</rscale>
<asrwt>0</asrwt>
<pdfrwt beam="1">  1        2 0.38290279E-01 0.79064181E+02</pdfrwt>
<pdfrwt beam="2">  1       -1 0.96601600E-03 0.79064181E+02</pdfrwt>
<totfact> 0.24578549E+05</totfact>
</mgrwt>
</event>
<event>
 8    1  0.1226832E-020  0.7822321E+02  0.7818608E-02  0.1334171E+00
         -1   -1    0    0    0  501 -0.00000000000E+00  0.00000000000E+00  0.11517129325E+02  0.11517130427E+02  0.50400000000E-02 0.  1.
          2   -1    0    0  501    0  0.00000000000E+00 -0.00000000000E+00 -0.13282108102E+03  0.13282108104E+03  0.25500000000E-02 0. -1.
         24    2    1    2    0    0  0.00000000000E+00  0.00000000000E+00 -0.12130395169E+03  0.14433821147E+03  0.78223210071E+02 0.  0.
         66    2    3    3    0    0  0.15782598233E+02  0.15169314849E+01 -0.12661280192E+03  0.12761736989E+03  0.20000001160E+01 0.  0.
        -13    1    3    3    0    0 -0.15782598233E+02 -0.15169314849E+01  0.53088502292E+01  0.16720841573E+02  0.10566000000E+00 0.  1.
         13    1    4    4    0    0  0.23588994666E+01  0.23181413476E-01 -0.15038265549E+02  0.15222533916E+02  0.10566000000E+00 0. -1.
        -13    1    4    4    0    0  0.40463771406E+01 -0.30274233739E-01 -0.34909653433E+02  0.35143550636E+02  0.10566000000E+00 0.  1.
        -14    1    4    4    0    0  0.93773216263E+01  0.15240243051E+01 -0.76664882939E+02  0.77251285342E+02  0.00000000000E+00 0.  1.
<mgrwt>
<rscale>  0 0.78223210E+02</rscale>
<asrwt>0</asrwt>
<pdfrwt beam="1">  1        2 0.20434011E-01 0.78223210E+02</pdfrwt>
<pdfrwt beam="2">  1       -1 0.17718662E-02 0.78223210E+02</pdfrwt>
<totfact> 0.20459285E+05</totfact>
</mgrwt>
</event>
<event>
 8    1  0.1226832E-020  0.7897472E+02  0.7818608E-02  0.1331986E+00
          2   -1    0    0  501    0  0.00000000000E+00  0.00000000000E+00  0.13362483670E+03  0.13362483673E+03  0.25500000000E-02 0. -1.
         -1   -1    0    0    0  501 -0.00000000000E+00 -0.00000000000E+00 -0.11668874373E+02  0.11668875461E+02  0.50400000000E-02 0.  1.
         24    2    1    2    0    0  0.00000000000E+00  0.00000000000E+00  0.12195596233E+03  0.14529371219E+03  0.78974717814E+02 0.  0.
         66    2    3    3    0    0  0.17917363664E+02 -0.31819700439E+02  0.88534697657E+02  0.95791011727E+02  0.19999954622E+01 0.  0.
        -13    1    3    3    0    0 -0.17917363664E+02  0.31819700439E+02  0.33421264675E+02  0.49502700463E+02  0.10566000000E+00 0.  1.
         13    1    4    4    0    0  0.78624210441E+01 -0.14780317243E+02  0.39541871232E+02  0.42940030124E+02  0.10566000000E+00 0.  1.
        -13    1    4    4    0    0  0.54281818866E+01 -0.10193634946E+02  0.29403848036E+02  0.31590707421E+02  0.10566000000E+00 0. -1.
        -14    1    4    4    0    0  0.46267607330E+01 -0.68457482490E+01  0.19588978388E+02  0.21260274181E+02  0.00000000000E+00 0.  1.
<mgrwt>
<rscale>  0 0.78974718E+02</rscale>
<asrwt>0</asrwt>
<pdfrwt beam="1">  1        2 0.20557667E-01 0.78974718E+02</pdfrwt>
<pdfrwt beam="2">  1       -1 0.17952116E-02 0.78974718E+02</pdfrwt>
<totfact> 0.19983745E+05</totfact>
</mgrwt>
</event>
<event>
 8    1  0.1226832E-020  0.7930727E+02  0.7818608E-02  0.1331029E+00
         -1   -1    0    0    0  501 -0.00000000000E+00  0.00000000000E+00  0.85479707519E+01  0.85479722378E+01  0.50400000000E-02 0.  1.
          2   -1    0    0  501    0  0.00000000000E+00 -0.00000000000E+00 -0.18395135148E+03  0.18395135150E+03  0.25500000000E-02 0. -1.
         24    2    1    2    0    0  0.00000000000E+00 -0.35527136788E-14 -0.17540338073E+03  0.19249932374E+03  0.79307273739E+02 0.  0.
         66    2    3    3    0    0 -0.52827889917E+01  0.31102973379E+02 -0.14596616596E+03  0.14935000636E+03  0.19999957069E+01 0.  0.
        -13    1    3    3    0    0  0.52827889917E+01 -0.31102973379E+02 -0.29437214773E+02  0.43149317378E+02  0.10566000000E+00 0.  1.
         13    1    4    4    0    0 -0.92130375607E+00  0.66103717011E+01 -0.32512567037E+02  0.33190721505E+02  0.10566000000E+00 0. -1.
        -13    1    4    4    0    0 -0.20043250867E+01  0.97648530809E+01 -0.48748581350E+02  0.49757461977E+02  0.10566000000E+00 0.  1.
        -14    1    4    4    0    0 -0.23571601490E+01  0.14727748597E+02 -0.64705017570E+02  0.66401822878E+02  0.00000000000E+00 0.  1.
<mgrwt>
<rscale>  0 0.79307274E+02</rscale>
<asrwt>0</asrwt>
<pdfrwt beam="1">  1        2 0.28300205E-01 0.79307274E+02</pdfrwt>
<pdfrwt beam="2">  1       -1 0.13150727E-02 0.79307274E+02</pdfrwt>
<totfact> 0.21930306E+05</totfact>
</mgrwt>
</event>
<event>
 8    1  0.1226832E-020  0.8024632E+02  0.7818608E-02  0.1328354E+00
         -1   -1    0    0    0  501 -0.00000000000E+00  0.00000000000E+00  0.51812965280E+02  0.51812965525E+02  0.50400000000E-02 0.  1.
          2   -1    0    0  501    0  0.00000000000E+00 -0.00000000000E+00 -0.31070757107E+02  0.31070757211E+02  0.25500000000E-02 0. -1.
         24    2    1    2    0    0  0.00000000000E+00  0.00000000000E+00  0.20742208174E+02  0.82883722737E+02  0.80246322625E+02 0.  0.
         66    2    3    3    0    0 -0.15434432282E+02 -0.13810418999E+01 -0.27820852341E+02  0.31908130664E+02  0.20000002271E+01 0.  0.
        -13    1    3    3    0    0  0.15434432282E+02  0.13810418999E+01  0.48563060514E+02  0.50975592073E+02  0.10566000000E+00 0.  1.
         13    1    4    4    0    0 -0.21556169875E+01 -0.26629302203E-01 -0.45404370376E+01  0.50273378885E+01  0.10566000000E+00 0. -1.
        -13    1    4    4    0    0 -0.81242835939E+01 -0.45475250165E+00 -0.12819741531E+02  0.15184456549E+02  0.10566000000E+00 0.  1.
        -14    1    4    4    0    0 -0.51545317005E+01 -0.89966009610E+00 -0.10460673773E+02  0.11696336226E+02  0.00000000000E+00 0.  1.
<mgrwt>
<rscale>  0 0.80246323E+02</rscale>
<asrwt>0</asrwt>
<pdfrwt beam="1">  1        2 0.47801165E-02 0.80246323E+02</pdfrwt>
<pdfrwt beam="2">  1       -1 0.79712255E-02 0.80246323E+02</pdfrwt>
<totfact> 0.13432742E+05</totfact>
</mgrwt>
</event>
<event>
 8    1  0.1226832E-020  0.7729735E+02  0.7818608E-02  0.1336901E+00
          2   -1    0    0  501    0  0.00000000000E+00  0.00000000000E+00  0.54919161281E+02  0.54919161340E+02  0.25500000000E-02 0. -1.
         -1   -1    0    0    0  501 -0.00000000000E+00 -0.00000000000E+00 -0.27198525205E+02  0.27198525672E+02  0.50400000000E-02 0.  1.
         24    2    1    2    0    0 -0.44408920985E-15  0.00000000000E+00  0.27720636076E+02  0.82117687012E+02  0.77297353485E+02 0.  0.
         66    2    3    3    0    0  0.26848398814E+01 -0.38340261247E+02  0.98198575455E+01  0.39719184282E+02  0.20000000363E+01 0.  0.
        -13    1    3    3    0    0 -0.26848398814E+01  0.38340261247E+02  0.17900778531E+02  0.42398502730E+02  0.10566000000E+00 0.  1.
         13    1    4    4    0    0  0.49809380004E+00 -0.17695880663E+02  0.44516318249E+01  0.18254327701E+02  0.10566000000E+00 0. -1.
        -13    1    4    4    0    0  0.10985978494E+00 -0.35439812086E+00  0.12762772740E+00  0.40634969277E+00  0.10566000000E+00 0.  1.
         14    1    4    4    0    0  0.20768862964E+01 -0.20289982463E+02  0.52405979932E+01  0.21058506888E+02  0.00000000000E+00 0. -1.
<mgrwt>
<rscale>  0 0.77297353E+02</rscale>
<asrwt>0</asrwt>
<pdfrwt beam="1">  1        2 0.84491018E-02 0.77297353E+02</pdfrwt>
<pdfrwt beam="2">  1       -1 0.41843885E-02 0.77297353E+02</pdfrwt>
<totfact> 0.16752617E+05</totfact>
</mgrwt>
</event>
<event>
 8    1  0.1226832E-020  0.8097243E+02  0.7818608E-02  0.1326314E+00
          2   -1    0    0  501    0  0.00000000000E+00  0.00000000000E+00  0.28616897923E+02  0.28616898037E+02  0.25500000000E-02 0. -1.
         -1   -1    0    0    0  501 -0.00000000000E+00 -0.00000000000E+00 -0.57278518476E+02  0.57278518698E+02  0.50400000000E-02 0.  1.
         24    2    1    2    0    0  0.00000000000E+00  0.35527136788E-14 -0.28661620553E+02  0.85895416735E+02  0.80972428168E+02 0.  0.
         66    2    3    3    0    0  0.21783356560E+02  0.13630501145E+02  0.18814846505E+02  0.31910870124E+02  0.19999996340E+01 0.  0.
        -13    1    3    3    0    0 -0.21783356560E+02 -0.13630501145E+02 -0.47476467058E+02  0.53984546612E+02  0.10566000000E+00 0.  1.
         13    1    4    4    0    0  0.12882922006E+02  0.86289996131E+01  0.11798736621E+02  0.19484626340E+02  0.10566000000E+00 0. -1.
        -13    1    4    4    0    0  0.35433087799E+01  0.19952357243E+01  0.22308091015E+01  0.46393615928E+01  0.10566000000E+00 0.  1.
         14    1    4    4    0    0  0.53571257741E+01  0.30062658077E+01  0.47853007829E+01  0.77868821906E+01  0.00000000000E+00 0. -1.
<mgrwt>
<rscale>  0 0.80972428E+02</rscale>
<asrwt>0</asrwt>
<pdfrwt beam="1">  1        2 0.44025997E-02 0.80972428E+02</pdfrwt>
<pdfrwt beam="2">  1       -1 0.88120798E-02 0.80972428E+02</pdfrwt>
<totfact> 0.12885179E+05</totfact>
</mgrwt>
</event>
<event>
 8    1  0.1226832E-020  0.7923124E+02  0.7818608E-02  0.1331247E+00
          2   -1    0    0  501    0  0.00000000000E+00  0.00000000000E+00  0.92054375835E+02  0.92054375870E+02  0.25500000000E-02 0. -1.
         -1   -1    0    0    0  501 -0.00000000000E+00 -0.00000000000E+00 -0.17048590627E+02  0.17048591372E+02  0.50400000000E-02 0.  1.
         24    2    1    2    0    0  0.00000000000E+00  0.00000000000E+00  0.75005785208E+02  0.10910296724E+03  0.79231241605E+02 0.  0.
         66    2    3    3    0    0  0.12096216249E+02 -0.37292120043E+02  0.45115560969E+02  0.59803298541E+02  0.20000025090E+01 0.  0.
        -13    1    3    3    0    0 -0.12096216249E+02  0.37292120043E+02  0.29890224239E+02  0.49299668700E+02  0.10566000000E+00 0.  1.
         13    1    4    4    0    0  0.27609426004E+01 -0.92009908686E+01  0.10287357542E+02  0.14075579073E+02  0.10566000000E+00 0. -1.
        -13    1    4    4    0    0  0.63788270755E+01 -0.17739964383E+02  0.22842612097E+02  0.29617424983E+02  0.10566000000E+00 0.  1.
        -14    1    4    4    0    0  0.29564465727E+01 -0.10351164792E+02  0.11985591330E+02  0.16110294486E+02  0.00000000000E+00 0.  1.
<mgrwt>
<rscale>  0 0.79231242E+02</rscale>
<asrwt>0</asrwt>
<pdfrwt beam="1">  1        2 0.14162212E-01 0.79231242E+02</pdfrwt>
<pdfrwt beam="2">  1       -1 0.26228602E-02 0.79231242E+02</pdfrwt>
<totfact> 0.17780772E+05</totfact>
</mgrwt>
</event>
<event>
 8    1  0.1226832E-020  0.7822822E+02  0.7818608E-02  0.1334156E+00
         -1   -1    0    0    0  501 -0.00000000000E+00  0.00000000000E+00  0.56103409144E+01  0.56103431782E+01  0.50400000000E-02 0.  1.
          2   -1    0    0  501    0  0.00000000000E+00 -0.00000000000E+00 -0.27269525995E+03  0.27269525996E+03  0.25500000000E-02 0. -1.
         24    2    1    2    0    0 -0.35527136788E-14  0.00000000000E+00 -0.26708491903E+03  0.27830560314E+03  0.78228222291E+02 0.  0.
         66    2    3    3    0    0  0.24350927604E+02 -0.19271929053E+02 -0.21808316559E+03  0.22029217427E+03  0.20000013735E+01 0.  0.
        -13    1    3    3    0    0 -0.24350927604E+02  0.19271929053E+02 -0.49001753439E+02  0.58013428865E+02  0.10566000000E+00 0.  1.
         13    1    4    4    0    0  0.11526944684E+02 -0.97941019110E+01 -0.10245420039E+03  0.10356480690E+03  0.10566000000E+00 0. -1.
        -13    1    4    4    0    0  0.87725973310E+01 -0.65650429912E+01 -0.76157172626E+02  0.76941434610E+02  0.10566000000E+00 0.  1.
        -14    1    4    4    0    0  0.40513855891E+01 -0.29127841505E+01 -0.39471792576E+02  0.39785932764E+02  0.00000000000E+00 0.  1.
<mgrwt>
<rscale>  0 0.78228222E+02</rscale>
<asrwt>0</asrwt>
<pdfrwt beam="1">  1        2 0.41953107E-01 0.78228222E+02</pdfrwt>
<pdfrwt beam="2">  1       -1 0.86312976E-03 0.78228222E+02</pdfrwt>
<totfact> 0.26118025E+05</totfact>
</mgrwt>
</event>
<event>
 8    1  0.1226832E-020  0.8330301E+02  0.7818608E-02  0.1319931E+00
         -1   -1    0    0    0  501 -0.00000000000E+00  0.00000000000E+00  0.22885954244E+02  0.22885954799E+02  0.50400000000E-02 0.  1.
          2   -1    0    0  501    0  0.00000000000E+00 -0.00000000000E+00 -0.75804039422E+02  0.75804039465E+02  0.25500000000E-02 0. -1.
         24    2    1    2    0    0 -0.35527136788E-14  0.35527136788E-14 -0.52918085178E+02  0.98689994264E+02  0.83303008523E+02 0.  0.
         66    2    3    3    0    0  0.14828160831E+02 -0.26477122133E+02 -0.60231873956E+02  0.67474372848E+02  0.20000002419E+01 0.  0.
        -13    1    3    3    0    0 -0.14828160831E+02  0.26477122133E+02  0.73137887777E+01  0.31215621416E+02  0.10566000000E+00 0.  1.
         13    1    4    4    0    0  0.10483691986E+02 -0.19604160391E+02 -0.43287908306E+02  0.48662974343E+02  0.10566000000E+00 0. -1.
        -13    1    4    4    0    0  0.36756010766E+01 -0.56123754918E+01 -0.13266159006E+02  0.14866436720E+02  0.10566000000E+00 0.  1.
         14    1    4    4    0    0  0.66886776789E+00 -0.12605862506E+01 -0.36778066435E+01  0.39449617860E+01  0.00000000000E+00 0. -1.
<mgrwt>
<rscale>  0 0.83303009E+02</rscale>
<asrwt>0</asrwt>
<pdfrwt beam="1">  1        2 0.11662160E-01 0.83303009E+02</pdfrwt>
<pdfrwt beam="2">  1       -1 0.35209161E-02 0.83303009E+02</pdfrwt>
<totfact> 0.14760026E+05</totfact>
</mgrwt>
</event>
<event>
 8    1  0.1226832E-020  0.8175688E+02  0.7818608E-02  0.1324138E+00
         -1   -1    0    0    0  501 -0.00000000000E+00  0.00000000000E+00  0.83513727910E+01  0.83513743118E+01  0.50400000000E-02 0.  1.
          2   -1    0    0  501    0  0.00000000000E+00 -0.00000000000E+00 -0.20009246567E+03  0.20009246569E+03  0.25500000000E-02 0. -1.
         24    2    1    2    0    0  0.00000000000E+00  0.00000000000E+00 -0.19174109288E+03  0.20844384000E+03  0.81756881880E+02 0.  0.
         66    2    3    3    0    0 -0.24869400862E+02 -0.83226526593E+01 -0.17579396424E+03  0.17775058793E+03  0.20000002140E+01 0.  0.
        -13    1    3    3    0    0  0.24869400862E+02  0.83226526593E+01 -0.15947128641E+02  0.30693252067E+02  0.10566000000E+00 0.  1.
         13    1    4    4    0    0 -0.25776827784E+01 -0.12296417453E+01 -0.18035190934E+02  0.18260222984E+02  0.10566000000E+00 0.  1.
        -13    1    4    4    0    0 -0.15038894654E+02 -0.54221747599E+01 -0.10562544015E+03  0.10682842835E+03  0.10566000000E+00 0. -1.
        -14    1    4    4    0    0 -0.72528234299E+01 -0.16708361541E+01 -0.52133333150E+02  0.52661936601E+02  0.00000000000E+00 0.  1.
<mgrwt>
<rscale>  0 0.81756882E+02</rscale>
<asrwt>0</asrwt>
<pdfrwt beam="1">  1        2 0.30783453E-01 0.81756882E+02</pdfrwt>
<pdfrwt beam="2">  1       -1 0.12848269E-02 0.81756882E+02</pdfrwt>
<totfact> 0.20831711E+05</totfact>
</mgrwt>
</event>
<event>
 8    1  0.1226832E-020  0.8070861E+02  0.7818608E-02  0.1327052E+00
          2   -1    0    0  501    0  0.00000000000E+00  0.00000000000E+00  0.37269584642E+03  0.37269584643E+03  0.25500000000E-02 0. -1.
         -1   -1    0    0    0  501 -0.00000000000E+00 -0.00000000000E+00 -0.43694323795E+01  0.43694352862E+01  0.50400000000E-02 0.  1.
         24    2    1    2    0    0  0.00000000000E+00  0.00000000000E+00  0.36832641404E+03  0.37706528172E+03  0.80708607935E+02 0.  0.
         66    2    3    3    0    0  0.98431612641E+01  0.24388644039E+02  0.32711581209E+03  0.32817746463E+03  0.19999983534E+01 0.  0.
        -13    1    3    3    0    0 -0.98431612641E+01 -0.24388644039E+02  0.41210601954E+02  0.48887817083E+02  0.10566000000E+00 0.  1.
         13    1    4    4    0    0  0.47287946948E+01  0.10413908232E+02  0.14982698797E+03  0.15026293113E+03  0.10566000000E+00 0. -1.
        -13    1    4    4    0    0  0.25348769816E+01  0.56970193997E+01  0.75403990191E+02  0.75661446801E+02  0.10566000000E+00 0. -1.
        -14    1    4    4    0    0  0.25794895877E+01  0.82777164072E+01  0.10188483393E+03  0.10225308670E+03  0.00000000000E+00 0.  1.
<mgrwt>
<rscale>  0 0.80708608E+02</rscale>
<asrwt>0</asrwt>
<pdfrwt beam="1">  1        2 0.57337804E-01 0.80708608E+02</pdfrwt>
<pdfrwt beam="2">  1       -1 0.67222081E-03 0.80708608E+02</pdfrwt>
<totfact> 0.26929568E+05</totfact>
</mgrwt>
</event>
<event>
 8    1  0.1226832E-020  0.8595480E+02  0.7818608E-02  0.1312954E+00
         -1   -1    0    0    0  501 -0.00000000000E+00  0.00000000000E+00  0.94634671044E+01  0.94634684465E+01  0.50400000000E-02 0.  1.
          2   -1    0    0  501    0  0.00000000000E+00 -0.00000000000E+00 -0.19517759693E+03  0.19517759695E+03  0.25500000000E-02 0. -1.
         24    2    1    2    0    0 -0.35527136788E-14 -0.44408920985E-15 -0.18571412983E+03  0.20464106539E+03  0.85954799915E+02 0.  0.
         66    2    3    3    0    0 -0.24956839294E+02 -0.35589530803E+01 -0.17570772659E+03  0.17751821074E+03  0.19999969703E+01 0.  0.
        -13    1    3    3    0    0  0.24956839294E+02  0.35589530803E+01 -0.10006403237E+02  0.27122854650E+02  0.10566000000E+00 0.  1.
         13    1    4    4    0    0 -0.75666100664E+01 -0.19320097941E+01 -0.54284813219E+02  0.54843763182E+02  0.10566000000E+00 0. -1.
        -13    1    4    4    0    0 -0.26741054593E+01 -0.57272374044E-01 -0.17932017225E+02  0.18130706714E+02  0.10566000000E+00 0.  1.
         14    1    4    4    0    0 -0.14716123769E+02 -0.15696709122E+01 -0.10349089615E+03  0.10454374085E+03  0.00000000000E+00 0. -1.
<mgrwt>
<rscale>  0 0.85954800E+02</rscale>
<asrwt>0</asrwt>
<pdfrwt beam="1">  1        2 0.30027320E-01 0.85954800E+02</pdfrwt>
<pdfrwt beam="2">  1       -1 0.14559183E-02 0.85954800E+02</pdfrwt>
<totfact> 0.18083552E+05</totfact>
</mgrwt>
</event>
<event>
 8    1  0.1226832E-020  0.8246046E+02  0.7818608E-02  0.1322211E+00
         -1   -1    0    0    0  501 -0.00000000000E+00  0.00000000000E+00  0.69690357443E+01  0.69690375667E+01  0.50400000000E-02 0.  1.
          2   -1    0    0  501    0  0.00000000000E+00 -0.00000000000E+00 -0.24392634798E+03  0.24392634799E+03  0.25500000000E-02 0. -1.
         24    2    1    2    0    0  0.00000000000E+00 -0.88817841970E-15 -0.23695731223E+03  0.25089538556E+03  0.82460455209E+02 0.  0.
         66    2    3    3    0    0 -0.20775184659E+02 -0.69191965453E+01 -0.22475428455E+03  0.22582730571E+03  0.20000006284E+01 0.  0.
        -13    1    3    3    0    0  0.20775184659E+02  0.69191965453E+01 -0.12203027680E+02  0.25068079844E+02  0.10566000000E+00 0.  1.
         13    1    4    4    0    0 -0.10536191185E+02 -0.37745494672E+01 -0.12365418424E+03  0.12415968344E+03  0.10566000000E+00 0. -1.
        -13    1    4    4    0    0 -0.98521609993E+00 -0.15981761920E+00 -0.92113303000E+01  0.92658492523E+01  0.10566000000E+00 0.  1.
         14    1    4    4    0    0 -0.92537773740E+01 -0.29848294589E+01 -0.91888770012E+02  0.92401773018E+02  0.00000000000E+00 0. -1.
<mgrwt>
<rscale>  0 0.82460455E+02</rscale>
<asrwt>0</asrwt>
<pdfrwt beam="1">  1        2 0.37527124E-01 0.82460455E+02</pdfrwt>
<pdfrwt beam="2">  1       -1 0.10721597E-02 0.82460455E+02</pdfrwt>
<totfact> 0.21844814E+05</totfact>
</mgrwt>
</event>
<event>
 8    1  0.1226832E-020  0.7922877E+02  0.7818608E-02  0.1331254E+00
         -1   -1    0    0    0  501 -0.00000000000E+00  0.00000000000E+00  0.66562263471E+01  0.66562282552E+01  0.50400000000E-02 0.  1.
          2   -1    0    0  501    0  0.00000000000E+00 -0.00000000000E+00 -0.23576412498E+03  0.23576412499E+03  0.25500000000E-02 0. -1.
         24    2    1    2    0    0  0.00000000000E+00  0.00000000000E+00 -0.22910789863E+03  0.24242035325E+03  0.79228772888E+02 0.  0.
         66    2    3    3    0    0 -0.18400029688E+02 -0.10188832226E+02 -0.21725033540E+03  0.21827524268E+03  0.19999851146E+01 0.  0.
        -13    1    3    3    0    0  0.18400029688E+02  0.10188832226E+02 -0.11857563236E+02  0.24145110573E+02  0.10566000000E+00 0.  1.
         13    1    4    4    0    0 -0.51502525238E+01 -0.29139062428E+01 -0.54192514121E+02  0.54514729215E+02  0.10566000000E+00 0. -1.
        -13    1    4    4    0    0 -0.51515731747E+00 -0.21405696445E+00 -0.81906438332E+01  0.82102995002E+01  0.10566000000E+00 0.  1.
         14    1    4    4    0    0 -0.12734619847E+02 -0.70608690185E+01 -0.15486717744E+03  0.15555021396E+03  0.00000000000E+00 0. -1.
<mgrwt>
<rscale>  0 0.79228773E+02</rscale>
<asrwt>0</asrwt>
<pdfrwt beam="1">  1        2 0.36271398E-01 0.79228773E+02</pdfrwt>
<pdfrwt beam="2">  1       -1 0.10240352E-02 0.79228773E+02</pdfrwt>
<totfact> 0.23976905E+05</totfact>
</mgrwt>
</event>
<event>
 8    1  0.1226832E-020  0.8013145E+02  0.7818608E-02  0.1328679E+00
         -1   -1    0    0    0  501 -0.00000000000E+00  0.00000000000E+00  0.44701659578E+01  0.44701687990E+01  0.50400000000E-02 0.  1.
          2   -1    0    0  501    0  0.00000000000E+00 -0.00000000000E+00 -0.35910565134E+03  0.35910565135E+03  0.25500000000E-02 0. -1.
         24    2    1    2    0    0  0.00000000000E+00  0.00000000000E+00 -0.35463548538E+03  0.36357582014E+03  0.80131451403E+02 0.  0.
         66    2    3    3    0    0 -0.68659276196E+01 -0.38526781019E+02 -0.21587512515E+03  0.21940265151E+03  0.20000038988E+01 0.  0.
        -13    1    3    3    0    0  0.68659276196E+01  0.38526781019E+02 -0.13876036023E+03  0.14417316863E+03  0.10566000000E+00 0.  1.
         13    1    4    4    0    0 -0.40916534587E+01 -0.20971959435E+02 -0.12064509841E+03  0.12252271481E+03  0.10566000000E+00 0. -1.
        -13    1    4    4    0    0 -0.86014514808E+00 -0.58827705874E+01 -0.29289958915E+02  0.29887450489E+02  0.10566000000E+00 0.  1.
        -14    1    4    4    0    0 -0.19141290128E+01 -0.11672050997E+02 -0.65940067820E+02  0.66992486209E+02  0.00000000000E+00 0.  1.
<mgrwt>
<rscale>  0 0.80131451E+02</rscale>
<asrwt>0</asrwt>
<pdfrwt beam="1">  1        2 0.55247000E-01 0.80131451E+02</pdfrwt>
<pdfrwt beam="2">  1       -1 0.68771835E-03 0.80131451E+02</pdfrwt>
<totfact> 0.27080813E+05</totfact>
</mgrwt>
</event>
<event>
 8    1  0.1226832E-020  0.8009618E+02  0.7818608E-02  0.1328779E+00
         -1   -1    0    0    0  501 -0.00000000000E+00  0.00000000000E+00  0.34173471582E+02  0.34173471954E+02  0.50400000000E-02 0.  1.
          2   -1    0    0  501    0  0.00000000000E+00 -0.00000000000E+00 -0.46932589986E+02  0.46932590056E+02  0.25500000000E-02 0. -1.
         24    2    1    2    0    0  0.00000000000E+00  0.00000000000E+00 -0.12759118404E+02  0.81106062009E+02  0.80096180884E+02 0.  0.
         66    2    3    3    0    0 -0.11022079043E+02 -0.11328314278E+02 -0.43617062771E+02  0.46435601594E+02  0.19999999375E+01 0.  0.
        -13    1    3    3    0    0  0.11022079043E+02  0.11328314278E+02  0.30857944367E+02  0.34670460416E+02  0.10566000000E+00 0.  1.
         13    1    4    4    0    0 -0.15635899620E+01 -0.10914997031E+01 -0.67529758034E+01  0.70178366616E+01  0.10566000000E+00 0.  1.
        -13    1    4    4    0    0 -0.36972511473E+01 -0.38979543764E+01 -0.15187882315E+02  0.16110451502E+02  0.10566000000E+00 0. -1.
        -14    1    4    4    0    0 -0.57612379340E+01 -0.63388601986E+01 -0.21676204653E+02  0.23307313430E+02  0.00000000000E+00 0.  1.
<mgrwt>
<rscale>  0 0.80096181E+02</rscale>
<asrwt>0</asrwt>
<pdfrwt beam="1">  1        2 0.72203984E-02 0.80096181E+02</pdfrwt>
<pdfrwt beam="2">  1       -1 0.52574572E-02 0.80096181E+02</pdfrwt>
<totfact> 0.14691796E+05</totfact>
</mgrwt>
</event>
<event>
 8    1  0.1226832E-020  0.7831000E+02  0.7818608E-02  0.1333917E+00
         -1   -1    0    0    0  501 -0.00000000000E+00  0.00000000000E+00  0.44981802646E+01  0.44981830881E+01  0.50400000000E-02 0.  1.
          2   -1    0    0  501    0  0.00000000000E+00 -0.00000000000E+00 -0.34082975382E+03  0.34082975383E+03  0.25500000000E-02 0. -1.
         24    2    1    2    0    0  0.00000000000E+00 -0.88817841970E-15 -0.33633157356E+03  0.34532793692E+03  0.78310003484E+02 0.  0.
         66    2    3    3    0    0  0.32207477284E+02 -0.63293080150E+01 -0.26220683427E+03  0.26426086671E+03  0.20000016923E+01 0.  0.
        -13    1    3    3    0    0 -0.32207477284E+02  0.63293080150E+01 -0.74124739290E+02  0.81067070206E+02  0.10566000000E+00 0.  1.
         13    1    4    4    0    0  0.13010606537E+02 -0.27810213080E+01 -0.10974393915E+03  0.11054751605E+03  0.10566000000E+00 0. -1.
        -13    1    4    4    0    0  0.11490247611E+02 -0.25518809279E+01 -0.87966599519E+02  0.88750615104E+02  0.10566000000E+00 0.  1.
        -14    1    4    4    0    0  0.77066231356E+01 -0.99640577912E+00 -0.64496295604E+02  0.64962735559E+02  0.00000000000E+00 0.  1.
<mgrwt>
<rscale>  0 0.78310003E+02</rscale>
<asrwt>0</asrwt>
<pdfrwt beam="1">  1        2 0.52435327E-01 0.78310003E+02</pdfrwt>
<pdfrwt beam="2">  1       -1 0.69202822E-03 0.78310003E+02</pdfrwt>
<totfact> 0.28227464E+05</totfact>
</mgrwt>
</event>
<event>
 8    1  0.1226832E-020  0.7874500E+02  0.7818608E-02  0.1332651E+00
          2   -1    0    0  501    0  0.00000000000E+00  0.00000000000E+00  0.64682376725E+03  0.64682376725E+03  0.25500000000E-02 0. -1.
         -1   -1    0    0    0  501 -0.00000000000E+00 -0.00000000000E+00 -0.23966218839E+01  0.23966271833E+01  0.50400000000E-02 0.  1.
         24    2    1    2    0    0  0.66613381478E-15  0.00000000000E+00  0.64442714536E+03  0.64922039444E+03  0.78744999015E+02 0.  0.
         66    2    3    3    0    0 -0.17535368323E+01  0.22120243738E+02  0.59031410861E+03  0.59073439624E+03  0.20000000847E+01 0.  0.
        -13    1    3    3    0    0  0.17535368323E+01 -0.22120243738E+02  0.54113036757E+02  0.58485998201E+02  0.10566000000E+00 0.  1.
         13    1    4    4    0    0  0.14590678863E+00  0.22212570748E+01  0.54238878457E+02  0.54284642139E+02  0.10566000000E+00 0. -1.
        -13    1    4    4    0    0  0.86382787833E-01  0.20955526923E+00  0.57781871437E+01  0.57835962947E+01  0.10566000000E+00 0.  1.
         14    1    4    4    0    0 -0.19858264087E+01  0.19689431394E+02  0.53029704301E+03  0.53066615780E+03  0.00000000000E+00 0. -1.
<mgrwt>
<rscale>  0 0.78744999E+02</rscale>
<asrwt>0</asrwt>
<pdfrwt beam="1">  1        2 0.99511346E-01 0.78744999E+02</pdfrwt>
<pdfrwt beam="2">  1       -1 0.36871148E-03 0.78744999E+02</pdfrwt>
<totfact> 0.34192832E+05</totfact>
</mgrwt>
</event>
<event>
 8    1  0.1226832E-020  0.8020056E+02  0.7818608E-02  0.1328483E+00
         -1   -1    0    0    0  501 -0.00000000000E+00  0.00000000000E+00  0.32829482394E+02  0.32829482781E+02  0.50400000000E-02 0.  1.
          2   -1    0    0  501    0  0.00000000000E+00 -0.00000000000E+00 -0.48981355086E+02  0.48981355153E+02  0.25500000000E-02 0. -1.
         24    2    1    2    0    0  0.00000000000E+00  0.00000000000E+00 -0.16151872692E+02  0.81810837934E+02  0.80200562417E+02 0.  0.
         66    2    3    3    0    0  0.21879140978E+02 -0.50821261952E+01 -0.41936210090E+02  0.47614814251E+02  0.20000007028E+01 0.  0.
        -13    1    3    3    0    0 -0.21879140978E+02  0.50821261952E+01  0.25784337398E+02  0.34196023683E+02  0.10566000000E+00 0.  1.
         13    1    4    4    0    0  0.13700628323E+02 -0.35683381208E+01 -0.26392156866E+02  0.29949914214E+02  0.10566000000E+00 0.  1.
        -13    1    4    4    0    0  0.36580945799E+01 -0.12342376372E+01 -0.72986812941E+01  0.82575366284E+01  0.10566000000E+00 0. -1.
        -14    1    4    4    0    0  0.45204180750E+01 -0.27955043713E+00 -0.82453719308E+01  0.94073634084E+01  0.00000000000E+00 0.  1.
<mgrwt>
<rscale>  0 0.80200562E+02</rscale>
<asrwt>0</asrwt>
<pdfrwt beam="1">  1        2 0.75355932E-02 0.80200562E+02</pdfrwt>
<pdfrwt beam="2">  1       -1 0.50506896E-02 0.80200562E+02</pdfrwt>
<totfact> 0.14774616E+05</totfact>
</mgrwt>
</event>
<event>
 8    1  0.1226832E-020  0.7689314E+02  0.7818608E-02  0.1338107E+00
         -1   -1    0    0    0  501 -0.00000000000E+00  0.00000000000E+00  0.13576587792E+01  0.13576681341E+01  0.50400000000E-02 0.  1.
          2   -1    0    0  501    0  0.00000000000E+00 -0.00000000000E+00 -0.10887372375E+04  0.10887372375E+04  0.25500000000E-02 0. -1.
         24    2    1    2    0    0 -0.17763568394E-14 -0.17763568394E-14 -0.10873795787E+04  0.10900949057E+04  0.76893140637E+02 0.  0.
         66    2    3    3    0    0  0.12856630758E+02  0.12591469660E+02 -0.10252932384E+04  0.10254531012E+04  0.19999973358E+01 0.  0.
        -13    1    3    3    0    0 -0.12856630758E+02 -0.12591469660E+02 -0.62086340370E+02  0.64641804486E+02  0.10566000000E+00 0.  1.
         13    1    4    4    0    0  0.27351970450E+00  0.22606139957E+00 -0.34845723901E+02  0.34847690813E+02  0.10566000000E+00 0.  1.
        -13    1    4    4    0    0  0.92869937358E+01  0.95525289042E+01 -0.77121943991E+03  0.77133451545E+03  0.10566000000E+00 0. -1.
         14    1    4    4    0    0  0.32961173179E+01  0.28128793567E+01 -0.21922807456E+03  0.21927089491E+03  0.00000000000E+00 0. -1.
<mgrwt>
<rscale>  0 0.76893141E+02</rscale>
<asrwt>0</asrwt>
<pdfrwt beam="1">  1        2 0.16749734E+00 0.76893141E+02</pdfrwt>
<pdfrwt beam="2">  1       -1 0.20887217E-03 0.76893141E+02</pdfrwt>
<totfact> 0.39072475E+05</totfact>
</mgrwt>
</event>
<event>
 8    1  0.1226832E-020  0.8137617E+02  0.7818608E-02  0.1325191E+00
         -1   -1    0    0    0  501 -0.00000000000E+00  0.00000000000E+00  0.15586220559E+02  0.15586221374E+02  0.50400000000E-02 0.  1.
          2   -1    0    0  501    0  0.00000000000E+00 -0.00000000000E+00 -0.10621691389E+03  0.10621691392E+03  0.25500000000E-02 0. -1.
         24    2    1    2    0    0 -0.35527136788E-14  0.00000000000E+00 -0.90630693329E+02  0.12180313529E+03  0.81376170921E+02 0.  0.
         66    2    3    3    0    0 -0.31134345180E+02  0.12021093640E+02 -0.80114012673E+02  0.86810766436E+02  0.20000001535E+01 0.  0.
        -13    1    3    3    0    0  0.31134345180E+02 -0.12021093640E+02 -0.10516680656E+02  0.34992368856E+02  0.10566000000E+00 0.  1.
         13    1    4    4    0    0 -0.17409969124E+02  0.73377299076E+01 -0.44210164822E+02  0.48078052609E+02  0.10566000000E+00 0. -1.
        -13    1    4    4    0    0 -0.11049268492E+02  0.34253718873E+01 -0.29031979589E+02  0.31251984091E+02  0.10566000000E+00 0.  1.
         14    1    4    4    0    0 -0.26751075634E+01  0.12579918453E+01 -0.68718682623E+01  0.74807297353E+01  0.00000000000E+00 0. -1.
<mgrwt>
<rscale>  0 0.81376171E+02</rscale>
<asrwt>0</asrwt>
<pdfrwt beam="1">  1        2 0.16341063E-01 0.81376171E+02</pdfrwt>
<pdfrwt beam="2">  1       -1 0.23978802E-02 0.81376171E+02</pdfrwt>
<totfact> 0.17226184E+05</totfact>
</mgrwt>
</event>
<event>
 8    1  0.1226832E-020  0.7867617E+02  0.7818608E-02  0.1332851E+00
         -1   -1    0    0    0  501 -0.00000000000E+00  0.00000000000E+00  0.47241079717E+02  0.47241079986E+02  0.50400000000E-02 0.  1.
          2   -1    0    0  501    0  0.00000000000E+00 -0.00000000000E+00 -0.32757185783E+02  0.32757185882E+02  0.25500000000E-02 0. -1.
         24    2    1    2    0    0  0.00000000000E+00  0.00000000000E+00  0.14483893934E+02  0.79998265867E+02  0.78676167664E+02 0.  0.
         66    2    3    3    0    0  0.30404449829E+02 -0.24206574874E+02  0.13269929750E+02  0.41115445630E+02  0.19999993028E+01 0.  0.
        -13    1    3    3    0    0 -0.30404449829E+02  0.24206574874E+02  0.12139641843E+01  0.38882820238E+02  0.10566000000E+00 0.  1.
         13    1    4    4    0    0  0.17419231407E+02 -0.14808544728E+02  0.72240824918E+01  0.23977513459E+02  0.10566000000E+00 0. -1.
        -13    1    4    4    0    0  0.49497564019E+01 -0.37091864782E+01  0.21358337757E+01  0.65445475566E+01  0.10566000000E+00 0.  1.
        -14    1    4    4    0    0  0.80354620207E+01 -0.56888436675E+01  0.39100134824E+01  0.10593384614E+02  0.00000000000E+00 0.  1.
<mgrwt>
<rscale>  0 0.78676168E+02</rscale>
<asrwt>0</asrwt>
<pdfrwt beam="1">  1        2 0.50395671E-02 0.78676168E+02</pdfrwt>
<pdfrwt beam="2">  1       -1 0.72678585E-02 0.78676168E+02</pdfrwt>
<totfact> 0.14343307E+05</totfact>
</mgrwt>
</event>
<event>
 8    1  0.1226832E-020  0.7936819E+02  0.7818608E-02  0.1330854E+00
          2   -1    0    0  501    0  0.00000000000E+00  0.00000000000E+00  0.39691560730E+02  0.39691560812E+02  0.25500000000E-02 0. -1.
         -1   -1    0    0    0  501 -0.00000000000E+00 -0.00000000000E+00 -0.39676630131E+02  0.39676630452E+02  0.50400000000E-02 0.  1.
         24    2    1    2    0    0  0.00000000000E+00 -0.17763568394E-14  0.14930599035E-01  0.79368191264E+02  0.79368189860E+02 0.  0.
         66    2    3    3    0    0  0.26906376501E+02 -0.84976728831E+01  0.27876071179E+02  0.39714466858E+02  0.19999981472E+01 0.  0.
        -13    1    3    3    0    0 -0.26906376501E+02  0.84976728831E+01 -0.27861140580E+02  0.39653724406E+02  0.10566000000E+00 0.  1.
         13    1    4    4    0    0  0.25120982562E+01 -0.88401670943E+00  0.25717623608E+01  0.37036804489E+01  0.10566000000E+00 0. -1.
        -13    1    4    4    0    0  0.12545531087E+02 -0.40161244785E+01  0.14329221803E+02  0.19464258722E+02  0.10566000000E+00 0.  1.
        -14    1    4    4    0    0  0.11848747157E+02 -0.35975316951E+01  0.10975087015E+02  0.16546527687E+02  0.00000000000E+00 0.  1.
<mgrwt>
<rscale>  0 0.79368190E+02</rscale>
<asrwt>0</asrwt>
<pdfrwt beam="1">  1        2 0.61063940E-02 0.79368190E+02</pdfrwt>
<pdfrwt beam="2">  1       -1 0.61040970E-02 0.79368190E+02</pdfrwt>
<totfact> 0.14547937E+05</totfact>
</mgrwt>
</event>
<event>
 8    1  0.1226832E-020  0.8043866E+02  0.7818608E-02  0.1327811E+00
          2   -1    0    0  501    0  0.00000000000E+00  0.00000000000E+00  0.13126927250E+04  0.13126927250E+04  0.25500000000E-02 0. -1.
         -1   -1    0    0    0  501 -0.00000000000E+00 -0.00000000000E+00 -0.12322668423E+01  0.12322771491E+01  0.50400000000E-02 0.  1.
         24    2    1    2    0    0  0.00000000000E+00  0.11102230246E-15  0.13114604582E+04  0.13139250021E+04  0.80438659658E+02 0.  0.
         66    2    3    3    0    0 -0.25335551393E+02  0.44792649517E+00  0.11657861328E+04  0.11660632051E+04  0.19999988000E+01 0.  0.
        -13    1    3    3    0    0  0.25335551393E+02 -0.44792649517E+00  0.14567432533E+03  0.14786179705E+03  0.10566000000E+00 0.  1.
         13    1    4    4    0    0 -0.23806428861E+01  0.34833011223E+00  0.91769769208E+02  0.91801364363E+02  0.10566000000E+00 0. -1.
        -13    1    4    4    0    0 -0.15419599665E+02 -0.22830701573E+00  0.72258496702E+03  0.72274951533E+03  0.10566000000E+00 0.  1.
         14    1    4    4    0    0 -0.75353088420E+01  0.32790339867E+00  0.35143139659E+03  0.35151232540E+03  0.00000000000E+00 0. -1.
<mgrwt>
<rscale>  0 0.80438660E+02</rscale>
<asrwt>0</asrwt>
<pdfrwt beam="1">  1        2 0.20195383E+00 0.80438660E+02</pdfrwt>
<pdfrwt beam="2">  1       -1 0.18957927E-03 0.80438660E+02</pdfrwt>
<totfact> 0.34062627E+05</totfact>
</mgrwt>
</event>
<event>
 8    1  0.1226832E-020  0.7961529E+02  0.7818608E-02  0.1330147E+00
          2   -1    0    0  501    0  0.00000000000E+00  0.00000000000E+00  0.15538153088E+04  0.15538153088E+04  0.25500000000E-02 0. -1.
         -1   -1    0    0    0  501 -0.00000000000E+00 -0.00000000000E+00 -0.10198372815E+01  0.10198497352E+01  0.50400000000E-02 0.  1.
         24    2    1    2    0    0  0.00000000000E+00  0.00000000000E+00  0.15527954715E+04  0.15548351585E+04  0.79615286566E+02 0.  0.
         66    2    3    3    0    0  0.43246788880E+01  0.14049553114E+02  0.14988257563E+04  0.14988991762E+04  0.20000019984E+01 0.  0.
        -13    1    3    3    0    0 -0.43246788880E+01 -0.14049553114E+02  0.53969715199E+02  0.55935982274E+02  0.10566000000E+00 0.  1.
         13    1    4    4    0    0  0.36820281304E+01  0.10458613397E+02  0.11535519020E+04  0.11536051932E+04  0.10566000000E+00 0. -1.
        -13    1    4    4    0    0  0.57403589800E+00  0.33571185835E+01  0.33458826803E+03  0.33460561865E+03  0.10566000000E+00 0.  1.
        -14    1    4    4    0    0  0.68614859667E-01  0.23382113294E+00  0.10685586208E+02  0.10688364371E+02  0.00000000000E+00 0.  1.
<mgrwt>
<rscale>  0 0.79615287E+02</rscale>
<asrwt>0</asrwt>
<pdfrwt beam="1">  1        2 0.23904923E+00 0.79615287E+02</pdfrwt>
<pdfrwt beam="2">  1       -1 0.15689853E-03 0.79615287E+02</pdfrwt>
<totfact> 0.33196582E+05</totfact>
</mgrwt>
</event>
<event>
 8    1  0.1226832E-020  0.8229785E+02  0.7818608E-02  0.1322654E+00
         -1   -1    0    0    0  501 -0.00000000000E+00  0.00000000000E+00  0.35612513768E+01  0.35612549432E+01  0.50400000000E-02 0.  1.
          2   -1    0    0  501    0  0.00000000000E+00 -0.00000000000E+00 -0.47546016597E+03  0.47546016597E+03  0.25500000000E-02 0. -1.
         24    2    1    2    0    0  0.35527136788E-14 -0.71054273576E-14 -0.47189891459E+03  0.47902142092E+03  0.82297849948E+02 0.  0.
         66    2    3    3    0    0 -0.27222018324E+02  0.30020637943E+02 -0.27681255311E+03  0.27977038182E+03  0.19999991965E+01 0.  0.
        -13    1    3    3    0    0  0.27222018324E+02 -0.30020637943E+02 -0.19508636148E+03  0.19925103910E+03  0.10566000000E+00 0.  1.
         13    1    4    4    0    0 -0.66709085011E+01  0.69544768229E+01 -0.63867069925E+02  0.64590088658E+02  0.10566000000E+00 0. -1.
        -13    1    4    4    0    0 -0.19846582446E+01  0.25878505512E+01 -0.25395142926E+02  0.25603911558E+02  0.10566000000E+00 0.  1.
        -14    1    4    4    0    0 -0.18566451579E+02  0.20478310569E+02 -0.18755034026E+03  0.18957638160E+03  0.00000000000E+00 0.  1.
<mgrwt>
<rscale>  0 0.82297850E+02</rscale>
<asrwt>0</asrwt>
<pdfrwt beam="1">  1        2 0.73147668E-01 0.82297850E+02</pdfrwt>
<pdfrwt beam="2">  1       -1 0.54788548E-03 0.82297850E+02</pdfrwt>
<totfact> 0.27824858E+05</totfact>
</mgrwt>
</event>
<event>
 8    1  0.1226832E-020  0.7996649E+02  0.7818608E-02  0.1329147E+00
          2   -1    0    0  501    0  0.00000000000E+00  0.00000000000E+00  0.44094201968E+02  0.44094202042E+02  0.25500000000E-02 0. -1.
         -1   -1    0    0    0  501 -0.00000000000E+00 -0.00000000000E+00 -0.36255559144E+02  0.36255559494E+02  0.50400000000E-02 0.  1.
         24    2    1    2    0    0 -0.17763568394E-14  0.17763568394E-14  0.78386428243E+01  0.80349761537E+02  0.79966492093E+02 0.  0.
         66    2    3    3    0    0 -0.14127853417E+02 -0.97519837103E+01  0.40177355060E+02  0.43736909947E+02  0.20000009143E+01 0.  0.
        -13    1    3    3    0    0  0.14127853417E+02  0.97519837103E+01 -0.32338712235E+02  0.36612851590E+02  0.10566000000E+00 0.  1.
         13    1    4    4    0    0 -0.29579024423E-02 -0.13023698833E+00  0.40900039125E+00  0.44205856847E+00  0.10566000000E+00 0.  1.
        -13    1    4    4    0    0 -0.49335496703E+01 -0.37943698192E+01  0.15077788070E+02  0.16312204382E+02  0.10566000000E+00 0.  1.
         14    1    4    4    0    0 -0.91913458439E+01 -0.58273769028E+01  0.24690566598E+02  0.26982646996E+02  0.00000000000E+00 0. -1.
<mgrwt>
<rscale>  0 0.79966492E+02</rscale>
<asrwt>0</asrwt>
<pdfrwt beam="1">  1        2 0.67837233E-02 0.79966492E+02</pdfrwt>
<pdfrwt beam="2">  1       -1 0.55777784E-02 0.79966492E+02</pdfrwt>
<totfact> 0.14563552E+05</totfact>
</mgrwt>
</event>
<event>
 8    1  0.1226832E-020  0.7669079E+02  0.7818608E-02  0.1338714E+00
          2   -1    0    0  501    0  0.00000000000E+00  0.00000000000E+00  0.13320652669E+03  0.13320652672E+03  0.25500000000E-02 0. -1.
         -1   -1    0    0    0  501 -0.00000000000E+00 -0.00000000000E+00 -0.11038267802E+02  0.11038268952E+02  0.50400000000E-02 0.  1.
         24    2    1    2    0    0  0.00000000000E+00  0.00000000000E+00  0.12216825889E+03  0.14424479567E+03  0.76690792129E+02 0.  0.
         66    2    3    3    0    0  0.11749294155E+02  0.26381309631E+02  0.10849733851E+03  0.11229288432E+03  0.19999983144E+01 0.  0.
        -13    1    3    3    0    0 -0.11749294155E+02 -0.26381309631E+02  0.13670920379E+02  0.31951911352E+02  0.10566000000E+00 0.  1.
         13    1    4    4    0    0  0.35448329423E+01  0.69930808350E+01  0.27972474673E+02  0.29050637231E+02  0.10566000000E+00 0. -1.
        -13    1    4    4    0    0  0.66698218222E+01  0.14407455927E+02  0.61524211194E+02  0.63539759493E+02  0.10566000000E+00 0.  1.
         14    1    4    4    0    0  0.15346393903E+01  0.49807728688E+01  0.19000652647E+02  0.19702487595E+02  0.00000000000E+00 0. -1.
<mgrwt>
<rscale>  0 0.76690792E+02</rscale>
<asrwt>0</asrwt>
<pdfrwt beam="1">  1        2 0.20493312E-01 0.76690792E+02</pdfrwt>
<pdfrwt beam="2">  1       -1 0.16981951E-02 0.76690792E+02</pdfrwt>
<totfact> 0.21580183E+05</totfact>
</mgrwt>
</event>
<event>
 8    1  0.1226832E-020  0.7681646E+02  0.7818608E-02  0.1338337E+00
         -1   -1    0    0    0  501 -0.00000000000E+00  0.00000000000E+00  0.82048813433E+02  0.82048813588E+02  0.50400000000E-02 0.  1.
          2   -1    0    0  501    0  0.00000000000E+00 -0.00000000000E+00 -0.17979446950E+02  0.17979447131E+02  0.25500000000E-02 0. -1.
         24    2    1    2    0    0  0.00000000000E+00  0.00000000000E+00  0.64069366483E+02  0.10002826072E+03  0.76816464518E+02 0.  0.
         66    2    3    3    0    0  0.35280804584E+02 -0.52834628095E+01  0.50496550839E+02  0.61859128690E+02  0.20000010385E+01 0.  0.
        -13    1    3    3    0    0 -0.35280804584E+02  0.52834628095E+01  0.13572815644E+02  0.38169132030E+02  0.10566000000E+00 0.  1.
         13    1    4    4    0    0  0.50582199401E+01 -0.89488137346E+00  0.64872423320E+01  0.82753778612E+01  0.10566000000E+00 0. -1.
        -13    1    4    4    0    0  0.11206541226E+01 -0.27251936118E+00  0.13380458458E+01  0.17696505830E+01  0.10566000000E+00 0.  1.
         14    1    4    4    0    0  0.29101930522E+02 -0.41160620749E+01  0.42671262662E+02  0.51814100245E+02  0.00000000000E+00 0. -1.
<mgrwt>
<rscale>  0 0.76816465E+02</rscale>
<asrwt>0</asrwt>
<pdfrwt beam="1">  1        2 0.27660688E-02 0.76816465E+02</pdfrwt>
<pdfrwt beam="2">  1       -1 0.12622895E-01 0.76816465E+02</pdfrwt>
<totfact> 0.13656180E+05</totfact>
</mgrwt>
</event>
<event>
 8    1  0.1226832E-020  0.7941101E+02  0.7818608E-02  0.1330731E+00
         -1   -1    0    0    0  501 -0.00000000000E+00  0.00000000000E+00  0.66256252873E+02  0.66256253064E+02  0.50400000000E-02 0.  1.
          2   -1    0    0  501    0  0.00000000000E+00 -0.00000000000E+00 -0.23794388288E+02  0.23794388425E+02  0.25500000000E-02 0. -1.
         24    2    1    2    0    0 -0.35527136788E-14  0.35527136788E-14  0.42461864584E+02  0.90050641489E+02  0.79411007352E+02 0.  0.
         66    2    3    3    0    0  0.25190492282E+02  0.30572452744E+02  0.23851608118E+02  0.46283204073E+02  0.20000003219E+01 0.  0.
        -13    1    3    3    0    0 -0.25190492282E+02 -0.30572452744E+02  0.18610256466E+02  0.43767437416E+02  0.10566000000E+00 0.  1.
         13    1    4    4    0    0  0.16915892508E+02  0.21082802826E+02  0.16373302817E+02  0.31602661336E+02  0.10566000000E+00 0. -1.
        -13    1    4    4    0    0  0.71563695140E+00  0.69232959372E+00  0.32218722126E+00  0.10518674601E+01  0.10566000000E+00 0.  1.
         14    1    4    4    0    0  0.75589628233E+01  0.87973203239E+01  0.71561180799E+01  0.13628675277E+02  0.00000000000E+00 0. -1.
<mgrwt>
<rscale>  0 0.79411007E+02</rscale>
<asrwt>0</asrwt>
<pdfrwt beam="1">  1        2 0.36606751E-02 0.79411007E+02</pdfrwt>
<pdfrwt beam="2">  1       -1 0.10193270E-01 0.79411007E+02</pdfrwt>
<totfact> 0.13126653E+05</totfact>
</mgrwt>
</event>
<event>
 8    1  0.1226832E-020  0.7948823E+02  0.7818608E-02  0.1330510E+00
          2   -1    0    0  501    0  0.00000000000E+00  0.00000000000E+00  0.16674941193E+02  0.16674941388E+02  0.25500000000E-02 0. -1.
         -1   -1    0    0    0  501 -0.00000000000E+00 -0.00000000000E+00 -0.94728657976E+02  0.94728658110E+02  0.50400000000E-02 0.  1.
         24    2    1    2    0    0 -0.71054273576E-14  0.00000000000E+00 -0.78053716784E+02  0.11140359950E+03  0.79488233578E+02 0.  0.
         66    2    3    3    0    0  0.33602360172E+02  0.25519969100E+01 -0.95878049600E+01  0.35093550728E+02  0.20000003497E+01 0.  0.
        -13    1    3    3    0    0 -0.33602360172E+02 -0.25519969100E+01 -0.68465911824E+02  0.76310048770E+02  0.10566000000E+00 0.  1.
         13    1    4    4    0    0  0.65386970541E+01  0.75093066134E+00 -0.14020665090E+01  0.67301865171E+01  0.10566000000E+00 0. -1.
        -13    1    4    4    0    0  0.20801693323E+02  0.15628597717E+01 -0.57337843002E+01  0.21634241891E+02  0.10566000000E+00 0.  1.
        -14    1    4    4    0    0  0.62619697951E+01  0.23820647698E+00 -0.24519541508E+01  0.67291223201E+01  0.00000000000E+00 0.  1.
<mgrwt>
<rscale>  0 0.79488234E+02</rscale>
<asrwt>0</asrwt>
<pdfrwt beam="1">  1        2 0.25653756E-02 0.79488234E+02</pdfrwt>
<pdfrwt beam="2">  1       -1 0.14573639E-01 0.79488234E+02</pdfrwt>
<totfact> 0.12183114E+05</totfact>
</mgrwt>
</event>
<event>
 8    1  0.1226832E-020  0.8256231E+02  0.7818608E-02  0.1321933E+00
          2   -1    0    0  501    0  0.00000000000E+00  0.00000000000E+00  0.10881806543E+02  0.10881806841E+02  0.25500000000E-02 0. -1.
         -1   -1    0    0    0  501 -0.00000000000E+00 -0.00000000000E+00 -0.15660393890E+03  0.15660393898E+03  0.50400000000E-02 0.  1.
         24    2    1    2    0    0  0.00000000000E+00  0.35527136788E-14 -0.14572213236E+03  0.16748574582E+03  0.82562310983E+02 0.  0.
         66    2    3    3    0    0  0.36764370381E+02 -0.18701153885E+02 -0.74691530636E+02  0.85347389185E+02  0.20000014558E+01 0.  0.
        -13    1    3    3    0    0 -0.36764370381E+02  0.18701153885E+02 -0.71030601721E+02  0.82138356637E+02  0.10566000000E+00 0.  1.
         13    1    4    4    0    0  0.34037115553E+02 -0.17185448659E+02 -0.69166663784E+02  0.78980398985E+02  0.10566000000E+00 0. -1.
        -13    1    4    4    0    0  0.11691710995E+01 -0.85491455290E+00 -0.21986769765E+01  0.26349923027E+01  0.10566000000E+00 0.  1.
         14    1    4    4    0    0  0.15580837280E+01 -0.66079067348E+00 -0.33261898759E+01  0.37319978977E+01  0.00000000000E+00 0. -1.
<mgrwt>
<rscale>  0 0.82562311E+02</rscale>
<asrwt>0</asrwt>
<pdfrwt beam="1">  1        2 0.16741242E-02 0.82562311E+02</pdfrwt>
<pdfrwt beam="2">  1       -1 0.24092912E-01 0.82562311E+02</pdfrwt>
<totfact> 0.98497867E+04</totfact>
</mgrwt>
</event>
<event>
 8    1  0.1226832E-020  0.8030501E+02  0.7818608E-02  0.1328188E+00
         -1   -1    0    0    0  501 -0.00000000000E+00  0.00000000000E+00  0.24637817676E+02  0.24637818192E+02  0.50400000000E-02 0.  1.
          2   -1    0    0  501    0  0.00000000000E+00 -0.00000000000E+00 -0.65436944898E+02  0.65436944948E+02  0.25500000000E-02 0. -1.
         24    2    1    2    0    0  0.00000000000E+00  0.00000000000E+00 -0.40799127222E+02  0.90074763139E+02  0.80305007145E+02 0.  0.
         66    2    3    3    0    0  0.17053689965E+02  0.17889894219E+02 -0.55870452541E+02  0.61125969253E+02  0.19999983582E+01 0.  0.
        -13    1    3    3    0    0 -0.17053689965E+02 -0.17889894219E+02  0.15071325319E+02  0.28948793886E+02  0.10566000000E+00 0.  1.
         13    1    4    4    0    0  0.82407472245E+01  0.75462321343E+01 -0.24752406462E+02  0.27157840930E+02  0.10566000000E+00 0. -1.
        -13    1    4    4    0    0  0.65031501067E+00  0.11177358729E+01 -0.32105924746E+01  0.34628472632E+01  0.10566000000E+00 0.  1.
         14    1    4    4    0    0  0.81626277294E+01  0.92259262117E+01 -0.27907453604E+02  0.30505281060E+02  0.00000000000E+00 0. -1.
<mgrwt>
<rscale>  0 0.80305007E+02</rscale>
<asrwt>0</asrwt>
<pdfrwt beam="1">  1        2 0.10067222E-01 0.80305007E+02</pdfrwt>
<pdfrwt beam="2">  1       -1 0.37904336E-02 0.80305007E+02</pdfrwt>
<totfact> 0.15722930E+05</totfact>
</mgrwt>
</event>
<event>
 8    1  0.1226832E-020  0.7986011E+02  0.7818608E-02  0.1329449E+00
          2   -1    0    0  501    0  0.00000000000E+00  0.00000000000E+00  0.21396234003E+03  0.21396234004E+03  0.25500000000E-02 0. -1.
         -1   -1    0    0    0  501 -0.00000000000E+00 -0.00000000000E+00 -0.74518217637E+01  0.74518234681E+01  0.50400000000E-02 0.  1.
         24    2    1    2    0    0  0.00000000000E+00  0.00000000000E+00  0.20651051826E+03  0.22141416351E+03  0.79860113008E+02 0.  0.
         66    2    3    3    0    0  0.10007541254E+02  0.10442168627E+02  0.20643446587E+03  0.20695018358E+03  0.20000033956E+01 0.  0.
        -13    1    3    3    0    0 -0.10007541254E+02 -0.10442168627E+02  0.76052390494E-01  0.14463979936E+02  0.10566000000E+00 0.  1.
         13    1    4    4    0    0  0.25840121894E+01  0.37245700497E+01  0.68503762012E+02  0.68653667891E+02  0.10566000000E+00 0.  1.
        -13    1    4    4    0    0  0.99592696794E+00  0.10759953164E+01  0.16734520559E+02  0.16798957671E+02  0.10566000000E+00 0. -1.
         14    1    4    4    0    0  0.64276020971E+01  0.56416032610E+01  0.12119618330E+03  0.12149755801E+03  0.00000000000E+00 0. -1.
<mgrwt>
<rscale>  0 0.79860113E+02</rscale>
<asrwt>0</asrwt>
<pdfrwt beam="1">  1        2 0.32917279E-01 0.79860113E+02</pdfrwt>
<pdfrwt beam="2">  1       -1 0.11464344E-02 0.79860113E+02</pdfrwt>
<totfact> 0.22689225E+05</totfact>
</mgrwt>
</event>
<event>
 8    1  0.1226832E-020  0.7992464E+02  0.7818608E-02  0.1329265E+00
          2   -1    0    0  501    0  0.00000000000E+00  0.00000000000E+00  0.25322385732E+02  0.25322385860E+02  0.25500000000E-02 0. -1.
         -1   -1    0    0    0  501 -0.00000000000E+00 -0.00000000000E+00 -0.63066207920E+02  0.63066208121E+02  0.50400000000E-02 0.  1.
         24    2    1    2    0    0  0.00000000000E+00  0.00000000000E+00 -0.37743822188E+02  0.88388593982E+02  0.79924635956E+02 0.  0.
         66    2    3    3    0    0 -0.35191862412E+02 -0.97029347285E+01 -0.97059294765E+00  0.36572615026E+02  0.19999991912E+01 0.  0.
        -13    1    3    3    0    0  0.35191862412E+02  0.97029347285E+01 -0.36773229240E+02  0.51815978956E+02  0.10566000000E+00 0.  1.
         13    1    4    4    0    0 -0.16941618353E+02 -0.43108865370E+01 -0.59361389175E+00  0.17491875732E+02  0.10566000000E+00 0. -1.
        -13    1    4    4    0    0 -0.16596851543E+02 -0.50668169583E+01  0.29402481617E-02  0.17353365319E+02  0.10566000000E+00 0.  1.
        -14    1    4    4    0    0 -0.16533925163E+01 -0.32523123324E+00 -0.37991930406E+00  0.17273739739E+01  0.00000000000E+00 0.  1.
<mgrwt>
<rscale>  0 0.79924636E+02</rscale>
<asrwt>0</asrwt>
<pdfrwt beam="1">  1        2 0.38957517E-02 0.79924636E+02</pdfrwt>
<pdfrwt beam="2">  1       -1 0.97024935E-02 0.79924636E+02</pdfrwt>
<totfact> 0.13047984E+05</totfact>
</mgrwt>
</event>
<event>
 8    1  0.1226832E-020  0.8090695E+02  0.7818608E-02  0.1326497E+00
          2   -1    0    0  501    0  0.00000000000E+00  0.00000000000E+00  0.12969364583E+02  0.12969364833E+02  0.25500000000E-02 0. -1.
         -1   -1    0    0    0  501 -0.00000000000E+00 -0.00000000000E+00 -0.12618070914E+03  0.12618070924E+03  0.50400000000E-02 0.  1.
         24    2    1    2    0    0  0.69388939039E-16  0.71054273576E-14 -0.11321134455E+03  0.13915007407E+03  0.80906950122E+02 0.  0.
         66    2    3    3    0    0 -0.11714567019E+00 -0.37394860193E+02 -0.30213897722E+02  0.48117241331E+02  0.20000014368E+01 0.  0.
        -13    1    3    3    0    0  0.11714567019E+00  0.37394860193E+02 -0.82997446831E+02  0.91032832739E+02  0.10566000000E+00 0.  1.
         13    1    4    4    0    0  0.20564521179E+00 -0.38502966529E+01 -0.31673706267E+01  0.49910394700E+01  0.10566000000E+00 0. -1.
        -13    1    4    4    0    0  0.36607522990E+00 -0.44580435729E+01 -0.30868995685E+01  0.54358326458E+01  0.10566000000E+00 0.  1.
         14    1    4    4    0    0 -0.68886611188E+00 -0.29086519967E+02 -0.23959627527E+02  0.37690369215E+02  0.00000000000E+00 0. -1.
<mgrwt>
<rscale>  0 0.80906950E+02</rscale>
<asrwt>0</asrwt>
<pdfrwt beam="1">  1        2 0.19952870E-02 0.80906950E+02</pdfrwt>
<pdfrwt beam="2">  1       -1 0.19412416E-01 0.80906950E+02</pdfrwt>
<totfact> 0.10938252E+05</totfact>
</mgrwt>
</event>
<event>
 8    1  0.1226832E-020  0.8331745E+02  0.7818608E-02  0.1319892E+00
          2   -1    0    0  501    0  0.00000000000E+00  0.00000000000E+00  0.78129319626E+03  0.78129319627E+03  0.25500000000E-02 0. -1.
         -1   -1    0    0    0  501 -0.00000000000E+00 -0.00000000000E+00 -0.22212496335E+01  0.22212553514E+01  0.50400000000E-02 0.  1.
         24    2    1    2    0    0 -0.35527136788E-14 -0.35527136788E-14  0.77907194663E+03  0.78351445162E+03  0.83317452374E+02 0.  0.
         66    2    3    3    0    0  0.16791044213E+02  0.30315253371E+02  0.60676345848E+03  0.60775558270E+03  0.19999995280E+01 0.  0.
        -13    1    3    3    0    0 -0.16791044213E+02 -0.30315253371E+02  0.17230848815E+03  0.17575886892E+03  0.10566000000E+00 0.  1.
         13    1    4    4    0    0  0.51845909486E+01  0.92816982240E+01  0.19810181443E+03  0.19838691981E+03  0.10566000000E+00 0.  1.
        -13    1    4    4    0    0  0.64524420521E+01  0.11648962956E+02  0.21713772426E+03  0.21754570740E+03  0.10566000000E+00 0. -1.
         14    1    4    4    0    0  0.51540112127E+01  0.93845921917E+01  0.19152391978E+03  0.19182295549E+03  0.00000000000E+00 0. -1.
<mgrwt>
<rscale>  0 0.83317452E+02</rscale>
<asrwt>0</asrwt>
<pdfrwt beam="1">  1        2 0.12019902E+00 0.83317452E+02</pdfrwt>
<pdfrwt beam="2">  1       -1 0.34173095E-03 0.83317452E+02</pdfrwt>
<totfact> 0.30786287E+05</totfact>
</mgrwt>
</event>
<event>
 8    1  0.1226832E-020  0.7988900E+02  0.7818608E-02  0.1329367E+00
         -1   -1    0    0    0  501 -0.00000000000E+00  0.00000000000E+00  0.95485202342E+02  0.95485202475E+02  0.50400000000E-02 0.  1.
          2   -1    0    0  501    0  0.00000000000E+00 -0.00000000000E+00 -0.16710054184E+02  0.16710054379E+02  0.25500000000E-02 0. -1.
         24    2    1    2    0    0  0.00000000000E+00 -0.35527136788E-14  0.78775148157E+02  0.11219525685E+03  0.79888996071E+02 0.  0.
         66    2    3    3    0    0 -0.17627048693E+02 -0.28593178334E+02  0.91191745834E+01  0.34863190339E+02  0.20000006510E+01 0.  0.
        -13    1    3    3    0    0  0.17627048693E+02  0.28593178334E+02  0.69655973574E+02  0.77332066515E+02  0.10566000000E+00 0.  1.
         13    1    4    4    0    0 -0.41214114331E+01 -0.63146107454E+01  0.24349593041E+01  0.79246786632E+01  0.10566000000E+00 0. -1.
        -13    1    4    4    0    0 -0.82752625467E+01 -0.14580130552E+02  0.37458365186E+01  0.17178551522E+02  0.10566000000E+00 0.  1.
        -14    1    4    4    0    0 -0.52303747136E+01 -0.76984370365E+01  0.29383787607E+01  0.97599601531E+01  0.00000000000E+00 0.  1.
<mgrwt>
<rscale>  0 0.79888996E+02</rscale>
<asrwt>0</asrwt>
<pdfrwt beam="1">  1        2 0.25707776E-02 0.79888996E+02</pdfrwt>
<pdfrwt beam="2">  1       -1 0.14690031E-01 0.79888996E+02</pdfrwt>
<totfact> 0.12011515E+05</totfact>
</mgrwt>
</event>
<event>
 8    1  0.1226832E-020  0.8017232E+02  0.7818608E-02  0.1328563E+00
         -1   -1    0    0    0  501 -0.00000000000E+00  0.00000000000E+00  0.12699928226E+01  0.12700028232E+01  0.50400000000E-02 0.  1.
          2   -1    0    0  501    0  0.00000000000E+00 -0.00000000000E+00 -0.12652779444E+04  0.12652779444E+04  0.25500000000E-02 0. -1.
         24    2    1    2    0    0  0.00000000000E+00  0.00000000000E+00 -0.12640079516E+04  0.12665479473E+04  0.80172320481E+02 0.  0.
         66    2    3    3    0    0 -0.22221620517E+02 -0.14937961328E+02 -0.11031479616E+04  0.11034746795E+04  0.20000023964E+01 0.  0.
        -13    1    3    3    0    0  0.22221620517E+02  0.14937961328E+02 -0.16085998998E+03  0.16307326773E+03  0.10566000000E+00 0.  1.
         13    1    4    4    0    0 -0.84283709244E+01 -0.63047407339E+01 -0.42199717025E+03  0.42212842839E+03  0.10566000000E+00 0.  1.
        -13    1    4    4    0    0 -0.17267337568E+01 -0.72339524408E+00 -0.69213043754E+02  0.69238439467E+02  0.10566000000E+00 0. -1.
         14    1    4    4    0    0 -0.12066515836E+02 -0.79098253504E+01 -0.61193774763E+03  0.61210781168E+03  0.00000000000E+00 0. -1.
<mgrwt>
<rscale>  0 0.80172320E+02</rscale>
<asrwt>0</asrwt>
<pdfrwt beam="1">  1        2 0.19465714E+00 0.80172320E+02</pdfrwt>
<pdfrwt beam="2">  1       -1 0.19538529E-03 0.80172320E+02</pdfrwt>
<totfact> 0.34591207E+05</totfact>
</mgrwt>
</event>
<event>
 8    1  0.1226832E-020  0.7951427E+02  0.7818608E-02  0.1330436E+00
         -1   -1    0    0    0  501 -0.00000000000E+00  0.00000000000E+00  0.10621531271E+03  0.10621531283E+03  0.50400000000E-02 0.  1.
          2   -1    0    0  501    0  0.00000000000E+00 -0.00000000000E+00 -0.14881375250E+02  0.14881375468E+02  0.25500000000E-02 0. -1.
         24    2    1    2    0    0  0.00000000000E+00 -0.11102230246E-15  0.91333937457E+02  0.12109668829E+03  0.79514274093E+02 0.  0.
         66    2    3    3    0    0  0.38090254277E+02  0.40817738107E+00  0.28493062838E+02  0.47611854713E+02  0.19999998970E+01 0.  0.
        -13    1    3    3    0    0 -0.38090254277E+02 -0.40817738107E+00  0.62840874619E+02  0.73484833582E+02  0.10566000000E+00 0.  1.
         13    1    4    4    0    0  0.26053377203E+02  0.56778872181E+00  0.19768409918E+02  0.32709357108E+02  0.10566000000E+00 0. -1.
        -13    1    4    4    0    0  0.19047496926E+01  0.32839217509E+00  0.13000356107E+01  0.23317738820E+01  0.10566000000E+00 0.  1.
         14    1    4    4    0    0  0.10132127382E+02 -0.48800351582E+00  0.74246173096E+01  0.12570723722E+02  0.00000000000E+00 0. -1.
<mgrwt>
<rscale>  0 0.79514274E+02</rscale>
<asrwt>0</asrwt>
<pdfrwt beam="1">  1        2 0.22894424E-02 0.79514274E+02</pdfrwt>
<pdfrwt beam="2">  1       -1 0.16340817E-01 0.79514274E+02</pdfrwt>
<totfact> 0.11878739E+05</totfact>
</mgrwt>
</event>
<event>
 8    1  0.1226832E-020  0.8056236E+02  0.7818608E-02  0.1327463E+00
          2   -1    0    0  501    0  0.00000000000E+00  0.00000000000E+00  0.35697734264E+03  0.35697734265E+03  0.25500000000E-02 0. -1.
         -1   -1    0    0    0  501 -0.00000000000E+00 -0.00000000000E+00 -0.45453111819E+01  0.45453139761E+01  0.50400000000E-02 0.  1.
         24    2    1    2    0    0  0.00000000000E+00  0.00000000000E+00  0.35243203146E+03  0.36152265662E+03  0.80562363766E+02 0.  0.
         66    2    3    3    0    0 -0.16618136059E+02  0.92201718050E+01  0.33557607442E+03  0.33611973423E+03  0.20000015748E+01 0.  0.
        -13    1    3    3    0    0  0.16618136059E+02 -0.92201718050E+01  0.16855957040E+02  0.25402922390E+02  0.10566000000E+00 0.  1.
         13    1    4    4    0    0 -0.37173555281E+01  0.27896255315E+01  0.79242524731E+02  0.79378773186E+02  0.10566000000E+00 0. -1.
        -13    1    4    4    0    0 -0.22642515889E+00  0.24431328485E+00  0.73217611360E+01  0.73300960091E+01  0.10566000000E+00 0. -1.
        -14    1    4    4    0    0 -0.12674355372E+02  0.61862329887E+01  0.24901178855E+03  0.24941086504E+03  0.00000000000E+00 0.  1.
<mgrwt>
<rscale>  0 0.80562364E+02</rscale>
<asrwt>0</asrwt>
<pdfrwt beam="1">  1        2 0.54919626E-01 0.80562364E+02</pdfrwt>
<pdfrwt beam="2">  1       -1 0.69927842E-03 0.80562364E+02</pdfrwt>
<totfact> 0.26646968E+05</totfact>
</mgrwt>
</event>
<event>
 8    1  0.1226832E-020  0.8173948E+02  0.7818608E-02  0.1324186E+00
         -1   -1    0    0    0  501 -0.00000000000E+00  0.00000000000E+00  0.25476090539E+03  0.25476090544E+03  0.50400000000E-02 0.  1.
          2   -1    0    0  501    0  0.00000000000E+00 -0.00000000000E+00 -0.65564824545E+01  0.65564829503E+01  0.25500000000E-02 0. -1.
         24    2    1    2    0    0  0.55511151231E-16  0.00000000000E+00  0.24820442294E+03  0.26131738839E+03  0.81739475839E+02 0.  0.
         66    2    3    3    0    0  0.29779204669E+00  0.38237535539E+02  0.78276597357E+02  0.87140251906E+02  0.20000010460E+01 0.  0.
        -13    1    3    3    0    0 -0.29779204669E+00 -0.38237535539E+02  0.16992782558E+03  0.17417713649E+03  0.10566000000E+00 0.  1.
         13    1    4    4    0    0 -0.28380698151E-02  0.26726077790E+02  0.54489723928E+02  0.60691221934E+02  0.10566000000E+00 0. -1.
        -13    1    4    4    0    0  0.23156401609E+00  0.11092217681E+02  0.23271481490E+02  0.25781076971E+02  0.10566000000E+00 0.  1.
         14    1    4    4    0    0  0.69066100413E-01  0.41924006771E+00  0.51539193930E+00  0.66795300111E+00  0.00000000000E+00 0. -1.
<mgrwt>
<rscale>  0 0.81739476E+02</rscale>
<asrwt>0</asrwt>
<pdfrwt beam="1">  1        2 0.10086895E-02 0.81739476E+02</pdfrwt>
<pdfrwt beam="2">  1       -1 0.39193992E-01 0.81739476E+02</pdfrwt>
<totfact> 0.87063544E+04</totfact>
</mgrwt>
</event>
<event>
 8    1  0.1226832E-020  0.7968296E+02  0.7818608E-02  0.1329954E+00
          2   -1    0    0  501    0  0.00000000000E+00  0.00000000000E+00  0.17180018077E+03  0.17180018079E+03  0.25500000000E-02 0. -1.
         -1   -1    0    0    0  501 -0.00000000000E+00 -0.00000000000E+00 -0.92394742853E+01  0.92394756600E+01  0.50400000000E-02 0.  1.
         24    2    1    2    0    0 -0.35527136788E-14  0.00000000000E+00  0.16256070648E+03  0.18103965645E+03  0.79682958744E+02 0.  0.
         66    2    3    3    0    0  0.12596489053E+02 -0.36488786924E+02  0.59159280565E+02  0.70667698262E+02  0.19999982671E+01 0.  0.
        -13    1    3    3    0    0 -0.12596489053E+02  0.36488786924E+02  0.10340142592E+03  0.11037195818E+03  0.10566000000E+00 0.  1.
         13    1    4    4    0    0  0.29786919201E+01 -0.10382320925E+02  0.15888968700E+02  0.19212904094E+02  0.10566000000E+00 0.  1.
        -13    1    4    4    0    0  0.71662873209E+00 -0.13647390172E+01  0.26204001572E+01  0.30419944682E+01  0.10566000000E+00 0. -1.
         14    1    4    4    0    0  0.89011684007E+01 -0.24741726982E+02  0.40649911707E+02  0.48412799700E+02  0.00000000000E+00 0. -1.
<mgrwt>
<rscale>  0 0.79682959E+02</rscale>
<asrwt>0</asrwt>
<pdfrwt beam="1">  1        2 0.26430797E-01 0.79682959E+02</pdfrwt>
<pdfrwt beam="2">  1       -1 0.14214577E-02 0.79682959E+02</pdfrwt>
<totfact> 0.21164064E+05</totfact>
</mgrwt>
</event>
<event>
 8    1  0.1226832E-020  0.8060580E+02  0.7818608E-02  0.1327341E+00
         -1   -1    0    0    0  501 -0.00000000000E+00  0.00000000000E+00  0.20823603930E+02  0.20823604540E+02  0.50400000000E-02 0.  1.
          2   -1    0    0  501    0  0.00000000000E+00 -0.00000000000E+00 -0.78003958179E+02  0.78003958221E+02  0.25500000000E-02 0. -1.
         24    2    1    2    0    0 -0.17763568394E-14 -0.35527136788E-14 -0.57180354249E+02  0.98827562761E+02  0.80605795382E+02 0.  0.
         66    2    3    3    0    0  0.12986335044E+02  0.18958620413E+02 -0.69165024609E+02  0.72910046030E+02  0.19999992759E+01 0.  0.
        -13    1    3    3    0    0 -0.12986335044E+02 -0.18958620413E+02  0.11984670360E+02  0.25917516731E+02  0.10566000000E+00 0.  1.
         13    1    4    4    0    0  0.67058307499E+01  0.95053070094E+01 -0.33952078465E+02  0.35889745381E+02  0.10566000000E+00 0. -1.
        -13    1    4    4    0    0  0.87242866654E+00  0.18056000943E+01 -0.76559333869E+01  0.79149102041E+01  0.10566000000E+00 0.  1.
        -14    1    4    4    0    0  0.54080756273E+01  0.76477133093E+01 -0.27557012757E+02  0.29105390445E+02  0.00000000000E+00 0.  1.
<mgrwt>
<rscale>  0 0.80605795E+02</rscale>
<asrwt>0</asrwt>
<pdfrwt beam="1">  1        2 0.12000609E-01 0.80605795E+02</pdfrwt>
<pdfrwt beam="2">  1       -1 0.32036315E-02 0.80605795E+02</pdfrwt>
<totfact> 0.16253798E+05</totfact>
</mgrwt>
</event>
<event>
 8    1  0.1226832E-020  0.7782020E+02  0.7818608E-02  0.1335354E+00
          2   -1    0    0  501    0  0.00000000000E+00  0.00000000000E+00  0.11367991304E+03  0.11367991307E+03  0.25500000000E-02 0. -1.
         -1   -1    0    0    0  501 -0.00000000000E+00 -0.00000000000E+00 -0.13318060919E+02  0.13318061873E+02  0.50400000000E-02 0.  1.
         24    2    1    2    0    0  0.00000000000E+00  0.00000000000E+00  0.10036185212E+03  0.12699797494E+03  0.77820204819E+02 0.  0.
         66    2    3    3    0    0 -0.25657909690E+02 -0.20305449951E+02  0.84498392864E+02  0.90634529958E+02  0.19999992185E+01 0.  0.
        -13    1    3    3    0    0  0.25657909690E+02  0.20305449951E+02  0.15863459256E+02  0.36363444982E+02  0.10566000000E+00 0.  1.
         13    1    4    4    0    0 -0.12249055640E+01 -0.10220865508E+01  0.40950376865E+01  0.43960837398E+01  0.10566000000E+00 0. -1.
        -13    1    4    4    0    0 -0.19536031825E+02 -0.16247671060E+02  0.66434008668E+02  0.71127575708E+02  0.10566000000E+00 0.  1.
        -14    1    4    4    0    0 -0.48969723006E+01 -0.30356923405E+01  0.13969346509E+02  0.15110870511E+02  0.00000000000E+00 0.  1.
<mgrwt>
<rscale>  0 0.77820205E+02</rscale>
<asrwt>0</asrwt>
<pdfrwt beam="1">  1        2 0.17489217E-01 0.77820205E+02</pdfrwt>
<pdfrwt beam="2">  1       -1 0.20489325E-02 0.77820205E+02</pdfrwt>
<totfact> 0.19794963E+05</totfact>
</mgrwt>
</event>
<event>
 8    1  0.1226832E-020  0.7454449E+02  0.7818608E-02  0.1345287E+00
         -1   -1    0    0    0  501 -0.00000000000E+00  0.00000000000E+00  0.31393656034E+02  0.31393656438E+02  0.50400000000E-02 0.  1.
          2   -1    0    0  501    0  0.00000000000E+00 -0.00000000000E+00 -0.44251619703E+02  0.44251619777E+02  0.25500000000E-02 0. -1.
         24    2    1    2    0    0  0.00000000000E+00  0.35527136788E-14 -0.12857963670E+02  0.75645276215E+02  0.74544487280E+02 0.  0.
         66    2    3    3    0    0  0.12223407868E+02  0.26887569791E+02 -0.29459239971E+02  0.41763619702E+02  0.20000004371E+01 0.  0.
        -13    1    3    3    0    0 -0.12223407868E+02 -0.26887569791E+02  0.16601276302E+02  0.33881656513E+02  0.10566000000E+00 0.  1.
         13    1    4    4    0    0  0.61084391990E+01  0.13488085481E+02 -0.15377023933E+02  0.21347259976E+02  0.10566000000E+00 0. -1.
        -13    1    4    4    0    0  0.38787749989E+01  0.83616234138E+01 -0.96319507354E+01  0.13332189641E+02  0.10566000000E+00 0.  1.
         14    1    4    4    0    0  0.22361936697E+01  0.50378608962E+01 -0.44502653028E+01  0.70841700857E+01  0.00000000000E+00 0. -1.
<mgrwt>
<rscale>  0 0.74544487E+02</rscale>
<asrwt>0</asrwt>
<pdfrwt beam="1">  1        2 0.68079416E-02 0.74544487E+02</pdfrwt>
<pdfrwt beam="2">  1       -1 0.48297933E-02 0.74544487E+02</pdfrwt>
<totfact> 0.17662660E+05</totfact>
</mgrwt>
</event>
<event>
 8    1  0.1226832E-020  0.7835185E+02  0.7818608E-02  0.1333795E+00
          2   -1    0    0  501    0  0.00000000000E+00  0.00000000000E+00  0.75790875487E+03  0.75790875487E+03  0.25500000000E-02 0. -1.
         -1   -1    0    0    0  501 -0.00000000000E+00 -0.00000000000E+00 -0.20249809368E+01  0.20249872088E+01  0.50400000000E-02 0.  1.
         24    2    1    2    0    0  0.00000000000E+00  0.00000000000E+00  0.75588377393E+03  0.75993374208E+03  0.78351851675E+02 0.  0.
         66    2    3    3    0    0 -0.28690167711E+02  0.17558376031E+02  0.57248847474E+03  0.57347927252E+03  0.20000001580E+01 0.  0.
        -13    1    3    3    0    0  0.28690167711E+02 -0.17558376031E+02  0.18339529919E+03  0.18645446956E+03  0.10566000000E+00 0.  1.
         13    1    4    4    0    0 -0.32544921582E+01  0.21992321285E+01  0.63032633923E+02  0.63154987486E+02  0.10566000000E+00 0. -1.
        -13    1    4    4    0    0 -0.24846718495E+01  0.15254658885E+01  0.42334783610E+02  0.42435194211E+02  0.10566000000E+00 0.  1.
         14    1    4    4    0    0 -0.22951003703E+02  0.13833678014E+02  0.46712105721E+03  0.46788909082E+03  0.00000000000E+00 0. -1.
<mgrwt>
<rscale>  0 0.78351852E+02</rscale>
<asrwt>0</asrwt>
<pdfrwt beam="1">  1        2 0.11660136E+00 0.78351852E+02</pdfrwt>
<pdfrwt beam="2">  1       -1 0.31153599E-03 0.78351852E+02</pdfrwt>
<totfact> 0.35912857E+05</totfact>
</mgrwt>
</event>
<event>
 8    1  0.1226832E-020  0.8254505E+02  0.7818608E-02  0.1321980E+00
         -1   -1    0    0    0  501 -0.00000000000E+00  0.00000000000E+00  0.49307746125E+01  0.49307771883E+01  0.50400000000E-02 0.  1.
          2   -1    0    0  501    0  0.00000000000E+00 -0.00000000000E+00 -0.34546718577E+03  0.34546718578E+03  0.25500000000E-02 0. -1.
         24    2    1    2    0    0 -0.71054273576E-14  0.35527136788E-14 -0.34053641116E+03  0.35039796297E+03  0.82545049082E+02 0.  0.
         66    2    3    3    0    0 -0.31461296819E+02  0.15171446443E+02 -0.26350810170E+03  0.26582043873E+03  0.19999997104E+01 0.  0.
        -13    1    3    3    0    0  0.31461296819E+02 -0.15171446443E+02 -0.77028309453E+02  0.84577524237E+02  0.10566000000E+00 0.  1.
         13    1    4    4    0    0 -0.10155596311E+02  0.51418890958E+01 -0.89265643286E+02  0.89988562580E+02  0.10566000000E+00 0. -1.
        -13    1    4    4    0    0 -0.18481317984E+02  0.89063550046E+01 -0.15470936911E+03  0.15606371240E+03  0.10566000000E+00 0.  1.
        -14    1    4    4    0    0 -0.28243825234E+01  0.11232023429E+01 -0.19533089309E+02  0.19768163752E+02  0.00000000000E+00 0.  1.
<mgrwt>
<rscale>  0 0.82545049E+02</rscale>
<asrwt>0</asrwt>
<pdfrwt beam="1">  1        2 0.53148779E-01 0.82545049E+02</pdfrwt>
<pdfrwt beam="2">  1       -1 0.75858118E-03 0.82545049E+02</pdfrwt>
<totfact> 0.24710462E+05</totfact>
</mgrwt>
</event>
<event>
 8    1  0.1226832E-020  0.8011169E+02  0.7818608E-02  0.1328735E+00
         -1   -1    0    0    0  501 -0.00000000000E+00  0.00000000000E+00  0.29716271761E+01  0.29716314501E+01  0.50400000000E-02 0.  1.
          2   -1    0    0  501    0  0.00000000000E+00 -0.00000000000E+00 -0.53992966235E+03  0.53992966236E+03  0.25500000000E-02 0. -1.
         24    2    1    2    0    0  0.00000000000E+00  0.35527136788E-14 -0.53695803518E+03  0.54290129381E+03  0.80111692521E+02 0.  0.
         66    2    3    3    0    0 -0.24430746576E+02 -0.31297263586E+02 -0.30325788896E+03  0.30585246004E+03  0.20000022054E+01 0.  0.
        -13    1    3    3    0    0  0.24430746576E+02  0.31297263586E+02 -0.23370014622E+03  0.23704883377E+03  0.10566000000E+00 0.  1.
         13    1    4    4    0    0 -0.59346192786E+01 -0.65748882647E+01 -0.68775776548E+02  0.69343835093E+02  0.10566000000E+00 0. -1.
        -13    1    4    4    0    0 -0.10938823093E+02 -0.13852323111E+02 -0.13197512748E+03  0.13315025402E+03  0.10566000000E+00 0.  1.
         14    1    4    4    0    0 -0.75573042037E+01 -0.10870052211E+02 -0.10250698493E+03  0.10335837093E+03  0.00000000000E+00 0. -1.
<mgrwt>
<rscale>  0 0.80111693E+02</rscale>
<asrwt>0</asrwt>
<pdfrwt beam="1">  1        2 0.83066024E-01 0.80111693E+02</pdfrwt>
<pdfrwt beam="2">  1       -1 0.45717417E-03 0.80111693E+02</pdfrwt>
<totfact> 0.31075166E+05</totfact>
</mgrwt>
</event>
<event>
 8    1  0.1226832E-020  0.7648211E+02  0.7818608E-02  0.1339342E+00
          2   -1    0    0  501    0  0.00000000000E+00  0.00000000000E+00  0.21017508708E+04  0.21017508708E+04  0.25500000000E-02 0. -1.
         -1   -1    0    0    0  501 -0.00000000000E+00 -0.00000000000E+00 -0.69578129907E+00  0.69579955285E+00  0.50400000000E-02 0.  1.
         24    2    1    2    0    0  0.00000000000E+00  0.00000000000E+00  0.21010550895E+04  0.21024466704E+04  0.76482106185E+02 0.  0.
         66    2    3    3    0    0  0.14243457401E+02 -0.31110445081E+01  0.20222922941E+04  0.20223458353E+04  0.20000024596E+01 0.  0.
        -13    1    3    3    0    0 -0.14243457401E+02  0.31110445081E+01  0.78762795403E+02  0.80100835080E+02  0.10566000000E+00 0.  1.
         13    1    4    4    0    0  0.78213631530E+01 -0.18939993203E+01  0.10461665656E+04  0.10461975220E+04  0.10566000000E+00 0. -1.
        -13    1    4    4    0    0  0.15633566662E+01 -0.81049697163E+00  0.25522860003E+03  0.25523469675E+03  0.10566000000E+00 0.  1.
        -14    1    4    4    0    0  0.48587375822E+01 -0.40654821619E+00  0.72089712851E+03  0.72091361654E+03  0.00000000000E+00 0.  1.
<mgrwt>
<rscale>  0 0.76482106E+02</rscale>
<asrwt>0</asrwt>
<pdfrwt beam="1">  1        2 0.32334109E+00 0.76482106E+02</pdfrwt>
<pdfrwt beam="2">  1       -1 0.10704640E-03 0.76482106E+02</pdfrwt>
<totfact> 0.29712497E+05</totfact>
</mgrwt>
</event>
<event>
 8    1  0.1226832E-020  0.8115200E+02  0.7818608E-02  0.1325814E+00
          2   -1    0    0  501    0  0.00000000000E+00  0.00000000000E+00  0.14799279407E+02  0.14799279627E+02  0.25500000000E-02 0. -1.
         -1   -1    0    0    0  501 -0.00000000000E+00 -0.00000000000E+00 -0.11124945537E+03  0.11124945549E+03  0.50400000000E-02 0.  1.
         24    2    1    2    0    0  0.35527136788E-14 -0.35527136788E-14 -0.96450175965E+02  0.12604873511E+03  0.81152000469E+02 0.  0.
         66    2    3    3    0    0 -0.24672136726E+02  0.20510956129E+02 -0.97353503612E+01  0.33588550193E+02  0.20000013717E+01 0.  0.
        -13    1    3    3    0    0  0.24672136726E+02 -0.20510956129E+02 -0.86714825604E+02  0.92460184920E+02  0.10566000000E+00 0.  1.
         13    1    4    4    0    0 -0.10575250143E+02  0.87032023038E+01 -0.37823164873E+01  0.14209107219E+02  0.10566000000E+00 0. -1.
        -13    1    4    4    0    0 -0.15574189236E+01  0.19139291711E+01 -0.79198302535E+00  0.25936614512E+01  0.10566000000E+00 0.  1.
        -14    1    4    4    0    0 -0.12539467660E+02  0.98938246539E+01 -0.51610508485E+01  0.16785781523E+02  0.00000000000E+00 0.  1.
<mgrwt>
<rscale>  0 0.81152000E+02</rscale>
<asrwt>0</asrwt>
<pdfrwt beam="1">  1        2 0.22768123E-02 0.81152000E+02</pdfrwt>
<pdfrwt beam="2">  1       -1 0.17115300E-01 0.81152000E+02</pdfrwt>
<totfact> 0.11173439E+05</totfact>
</mgrwt>
</event>
<event>
 8    1  0.1226832E-020  0.8032778E+02  0.7818608E-02  0.1328124E+00
         -1   -1    0    0    0  501 -0.00000000000E+00  0.00000000000E+00  0.21831965066E+01  0.21832023241E+01  0.50400000000E-02 0.  1.
          2   -1    0    0  501    0  0.00000000000E+00 -0.00000000000E+00 -0.73888717126E+03  0.73888717127E+03  0.25500000000E-02 0. -1.
         24    2    1    2    0    0  0.00000000000E+00  0.00000000000E+00 -0.73670397475E+03  0.74107037359E+03  0.80327779711E+02 0.  0.
         66    2    3    3    0    0  0.11517648523E+02  0.22033480388E+02 -0.65929565892E+03  0.65976730471E+03  0.20000007603E+01 0.  0.
        -13    1    3    3    0    0 -0.11517648523E+02 -0.22033480388E+02 -0.77408315833E+02  0.81303068881E+02  0.10566000000E+00 0.  1.
         13    1    4    4    0    0  0.72011136378E+01  0.14138669683E+02 -0.40860539207E+03  0.40891335954E+03  0.10566000000E+00 0. -1.
        -13    1    4    4    0    0  0.14627682505E+01  0.29762766351E+01 -0.79342614520E+02  0.79411961042E+02  0.10566000000E+00 0.  1.
         14    1    4    4    0    0  0.28537666343E+01  0.49185340701E+01 -0.17134765233E+03  0.17144198413E+03  0.00000000000E+00 0. -1.
<mgrwt>
<rscale>  0 0.80327780E+02</rscale>
<asrwt>0</asrwt>
<pdfrwt beam="1">  1        2 0.11367475E+00 0.80327780E+02</pdfrwt>
<pdfrwt beam="2">  1       -1 0.33587743E-03 0.80327780E+02</pdfrwt>
<totfact> 0.33491323E+05</totfact>
</mgrwt>
</event>
<event>
 8    1  0.1226832E-020  0.7902561E+02  0.7818608E-02  0.1331840E+00
         -1   -1    0    0    0  501 -0.00000000000E+00  0.00000000000E+00  0.20124819983E+01  0.20124883093E+01  0.50400000000E-02 0.  1.
          2   -1    0    0  501    0  0.00000000000E+00 -0.00000000000E+00 -0.77578799477E+03  0.77578799478E+03  0.25500000000E-02 0. -1.
         24    2    1    2    0    0  0.17763568394E-14  0.35527136788E-14 -0.77377551278E+03  0.77780048309E+03  0.79025611796E+02 0.  0.
         66    2    3    3    0    0  0.94403933891E+01 -0.27906988152E+02 -0.64592331566E+03  0.64659790504E+03  0.20000182768E+01 0.  0.
        -13    1    3    3    0    0 -0.94403933891E+01  0.27906988152E+02 -0.12785219711E+03  0.13120257805E+03  0.10566000000E+00 0.  1.
         13    1    4    4    0    0  0.56257515719E+01 -0.16107572893E+02 -0.37985966445E+03  0.38024265781E+03  0.10566000000E+00 0. -1.
        -13    1    4    4    0    0  0.36830254934E+01 -0.10084231282E+02 -0.22709267726E+03  0.22734632530E+03  0.10566000000E+00 0.  1.
        -14    1    4    4    0    0  0.13161632385E+00 -0.17151839781E+01 -0.38970973957E+02  0.39008921930E+02  0.00000000000E+00 0.  1.
<mgrwt>
<rscale>  0 0.79025612E+02</rscale>
<asrwt>0</asrwt>
<pdfrwt beam="1">  1        2 0.11935176E+00 0.79025612E+02</pdfrwt>
<pdfrwt beam="2">  1       -1 0.30961372E-03 0.79025612E+02</pdfrwt>
<totfact> 0.35281376E+05</totfact>
</mgrwt>
</event>
<event>
 8    1  0.1226832E-020  0.7933270E+02  0.7818608E-02  0.1330956E+00
         -1   -1    0    0    0  501 -0.00000000000E+00  0.00000000000E+00  0.13870482117E+01  0.13870573684E+01  0.50400000000E-02 0.  1.
          2   -1    0    0  501    0  0.00000000000E+00 -0.00000000000E+00 -0.11343614263E+04  0.11343614263E+04  0.25500000000E-02 0. -1.
         24    2    1    2    0    0  0.00000000000E+00  0.17763568394E-14 -0.11329743781E+04  0.11357484837E+04  0.79332696645E+02 0.  0.
         66    2    3    3    0    0 -0.24299312860E+02  0.86441184998E+01 -0.99781995887E+03  0.99815522225E+03  0.19999993199E+01 0.  0.
        -13    1    3    3    0    0  0.24299312860E+02 -0.86441184998E+01 -0.13515441923E+03  0.13759326143E+03  0.10566000000E+00 0.  1.
         13    1    4    4    0    0 -0.99165045556E+01  0.38468501614E+01 -0.38012870861E+03  0.38027750603E+03  0.10566000000E+00 0. -1.
        -13    1    4    4    0    0 -0.11137811971E+02  0.38577551905E+01 -0.46919356300E+03  0.46934160678E+03  0.10566000000E+00 0.  1.
         14    1    4    4    0    0 -0.32449963335E+01  0.93951314795E+00 -0.14849768725E+03  0.14853610943E+03  0.00000000000E+00 0. -1.
<mgrwt>
<rscale>  0 0.79332697E+02</rscale>
<asrwt>0</asrwt>
<pdfrwt beam="1">  1        2 0.17451640E+00 0.79332697E+02</pdfrwt>
<pdfrwt beam="2">  1       -1 0.21339365E-03 0.79332697E+02</pdfrwt>
<totfact> 0.35977047E+05</totfact>
</mgrwt>
</event>
<event>
 8    1  0.1226832E-020  0.7794485E+02  0.7818608E-02  0.1334987E+00
          2   -1    0    0  501    0  0.00000000000E+00  0.00000000000E+00  0.50271927349E+03  0.50271927349E+03  0.25500000000E-02 0. -1.
         -1   -1    0    0    0  501 -0.00000000000E+00 -0.00000000000E+00 -0.30212660112E+01  0.30212702150E+01  0.50400000000E-02 0.  1.
         24    2    1    2    0    0  0.00000000000E+00 -0.17763568394E-14  0.49969800748E+03  0.50574054371E+03  0.77944845085E+02 0.  0.
         66    2    3    3    0    0  0.12290279255E+02  0.15868391180E+02  0.46657423222E+03  0.46701003308E+03  0.20000040871E+01 0.  0.
        -13    1    3    3    0    0 -0.12290279255E+02 -0.15868391180E+02  0.33123775253E+02  0.38730510633E+02  0.10566000000E+00 0.  1.
         13    1    4    4    0    0  0.28505803329E+01  0.40394281451E+01  0.11583060774E+03  0.11593611880E+03  0.10566000000E+00 0.  1.
        -13    1    4    4    0    0  0.56862902688E+01  0.61544340884E+01  0.20638682203E+03  0.20655687456E+03  0.10566000000E+00 0.  1.
         14    1    4    4    0    0  0.37534086532E+01  0.56745289470E+01  0.14435680245E+03  0.14451703972E+03  0.00000000000E+00 0. -1.
<mgrwt>
<rscale>  0 0.77944845E+02</rscale>
<asrwt>0</asrwt>
<pdfrwt beam="1">  1        2 0.77341411E-01 0.77944845E+02</pdfrwt>
<pdfrwt beam="2">  1       -1 0.46481058E-03 0.77944845E+02</pdfrwt>
<totfact> 0.32641756E+05</totfact>
</mgrwt>
</event>
<event>
 8    1  0.1226832E-020  0.8143433E+02  0.7818608E-02  0.1325030E+00
          2   -1    0    0  501    0  0.00000000000E+00  0.00000000000E+00  0.35881679978E+03  0.35881679979E+03  0.25500000000E-02 0. -1.
         -1   -1    0    0    0  501 -0.00000000000E+00 -0.00000000000E+00 -0.46204270431E+01  0.46204297919E+01  0.50400000000E-02 0.  1.
         24    2    1    2    0    0  0.00000000000E+00  0.35527136788E-14  0.35419637274E+03  0.36343722958E+03  0.81434325598E+02 0.  0.
         66    2    3    3    0    0  0.48196770241E+01  0.23587707470E+02  0.32361889637E+03  0.32451933581E+03  0.19999997966E+01 0.  0.
        -13    1    3    3    0    0 -0.48196770241E+01 -0.23587707470E+02  0.30577476371E+02  0.38917893771E+02  0.10566000000E+00 0.  1.
         13    1    4    4    0    0 -0.51318983999E-01  0.10318978504E+01  0.11332662850E+02  0.11380151938E+02  0.10566000000E+00 0. -1.
        -13    1    4    4    0    0  0.26222811720E+01  0.11014356661E+02  0.14746450425E+03  0.14789855844E+03  0.10566000000E+00 0.  1.
         14    1    4    4    0    0  0.22487148360E+01  0.11541452959E+02  0.16482172926E+03  0.16524062543E+03  0.00000000000E+00 0. -1.
<mgrwt>
<rscale>  0 0.81434326E+02</rscale>
<asrwt>0</asrwt>
<pdfrwt beam="1">  1        2 0.55202591E-01 0.81434326E+02</pdfrwt>
<pdfrwt beam="2">  1       -1 0.71083506E-03 0.81434326E+02</pdfrwt>
<totfact> 0.25953645E+05</totfact>
</mgrwt>
</event>
<event>
 8    1  0.1226832E-020  0.7779505E+02  0.7818608E-02  0.1335428E+00
          2   -1    0    0  501    0  0.00000000000E+00  0.00000000000E+00  0.11257792126E+03  0.11257792129E+03  0.25500000000E-02 0. -1.
         -1   -1    0    0    0  501 -0.00000000000E+00 -0.00000000000E+00 -0.13439736215E+02  0.13439737160E+02  0.50400000000E-02 0.  1.
         24    2    1    2    0    0  0.00000000000E+00  0.35527136788E-14  0.99138185041E+02  0.12601765845E+03  0.77795054514E+02 0.  0.
         66    2    3    3    0    0 -0.15307667154E+02  0.22971553754E+02  0.93933943250E+02  0.97926516564E+02  0.19999990630E+01 0.  0.
        -13    1    3    3    0    0  0.15307667154E+02 -0.22971553754E+02  0.52042417913E+01  0.28091141882E+02  0.10566000000E+00 0.  1.
         13    1    4    4    0    0 -0.91271026807E+01  0.13367772500E+02  0.55618485173E+02  0.57926059782E+02  0.10566000000E+00 0. -1.
        -13    1    4    4    0    0 -0.36707401956E+01  0.66996156299E+01  0.26240584768E+02  0.27330178122E+02  0.10566000000E+00 0.  1.
        -14    1    4    4    0    0 -0.25098242778E+01  0.29041656243E+01  0.12074873309E+02  0.12670278660E+02  0.00000000000E+00 0.  1.
<mgrwt>
<rscale>  0 0.77795055E+02</rscale>
<asrwt>0</asrwt>
<pdfrwt beam="1">  1        2 0.17319681E-01 0.77795055E+02</pdfrwt>
<pdfrwt beam="2">  1       -1 0.20676517E-02 0.77795055E+02</pdfrwt>
<totfact> 0.19755903E+05</totfact>
</mgrwt>
</event>
<event>
 8    1  0.1226832E-020  0.7826813E+02  0.7818608E-02  0.1334039E+00
          2   -1    0    0  501    0  0.00000000000E+00  0.00000000000E+00  0.21317113328E+02  0.21317113481E+02  0.25500000000E-02 0. -1.
         -1   -1    0    0    0  501 -0.00000000000E+00 -0.00000000000E+00 -0.71842514339E+02  0.71842514516E+02  0.50400000000E-02 0.  1.
         24    2    1    2    0    0  0.00000000000E+00 -0.35527136788E-14 -0.50525401011E+02  0.93159627997E+02  0.78268129792E+02 0.  0.
         66    2    3    3    0    0  0.39249368245E+01  0.20412238883E+02  0.14150811225E+02  0.25225187405E+02  0.19999990096E+01 0.  0.
        -13    1    3    3    0    0 -0.39249368245E+01 -0.20412238883E+02 -0.64676212236E+02  0.67934440591E+02  0.10566000000E+00 0.  1.
         13    1    4    4    0    0  0.11873229408E+01  0.57577921104E+01  0.34773659722E+01  0.68311890541E+01  0.10566000000E+00 0. -1.
        -13    1    4    4    0    0  0.52469455164E-01  0.32935450779E+01  0.20623343110E+01  0.38877473001E+01  0.10566000000E+00 0.  1.
        -14    1    4    4    0    0  0.26851444286E+01  0.11360901694E+02  0.86111109415E+01  0.14506251051E+02  0.00000000000E+00 0.  1.
<mgrwt>
<rscale>  0 0.78268130E+02</rscale>
<asrwt>0</asrwt>
<pdfrwt beam="1">  1        2 0.32795559E-02 0.78268130E+02</pdfrwt>
<pdfrwt beam="2">  1       -1 0.11052694E-01 0.78268130E+02</pdfrwt>
<totfact> 0.13386631E+05</totfact>
</mgrwt>
</event>
<event>
 8    1  0.1226832E-020  0.8441269E+02  0.7818608E-02  0.1316976E+00
          2   -1    0    0  501    0  0.00000000000E+00  0.00000000000E+00  0.44419469543E+02  0.44419469616E+02  0.25500000000E-02 0. -1.
         -1   -1    0    0    0  501 -0.00000000000E+00 -0.00000000000E+00 -0.40103488274E+02  0.40103488591E+02  0.50400000000E-02 0.  1.
         24    2    1    2    0    0  0.35527136788E-14  0.44408920985E-15  0.43159812685E+01  0.84522958207E+02  0.84412693179E+02 0.  0.
         66    2    3    3    0    0  0.28031806890E+02  0.27043547915E+01  0.33605236374E+02  0.43890860538E+02  0.19999986732E+01 0.  0.
        -13    1    3    3    0    0 -0.28031806890E+02 -0.27043547915E+01 -0.29289255105E+02  0.40632097669E+02  0.10566000000E+00 0.  1.
         13    1    4    4    0    0  0.15084334043E+02  0.14004445260E+01  0.16997939406E+02  0.22769266270E+02  0.10566000000E+00 0. -1.
        -13    1    4    4    0    0  0.39898374175E+01  0.69058232558E+00  0.46121645337E+01  0.61383167308E+01  0.10566000000E+00 0.  1.
         14    1    4    4    0    0  0.89576354294E+01  0.61332793988E+00  0.11995132434E+02  0.14983277537E+02  0.00000000000E+00 0. -1.
<mgrwt>
<rscale>  0 0.84412693E+02</rscale>
<asrwt>0</asrwt>
<pdfrwt beam="1">  1        2 0.68337645E-02 0.84412693E+02</pdfrwt>
<pdfrwt beam="2">  1       -1 0.61697675E-02 0.84412693E+02</pdfrwt>
<totfact> 0.12560477E+05</totfact>
</mgrwt>
</event>
<event>
 8    1  0.1226832E-020  0.7572808E+02  0.7818608E-02  0.1341631E+00
          2   -1    0    0  501    0  0.00000000000E+00  0.00000000000E+00  0.10849712110E+04  0.10849712110E+04  0.25500000000E-02 0. -1.
         -1   -1    0    0    0  501 -0.00000000000E+00 -0.00000000000E+00 -0.13213993078E+01  0.13214089194E+01  0.50400000000E-02 0.  1.
         24    2    1    2    0    0  0.00000000000E+00  0.00000000000E+00  0.10836498117E+04  0.10862926200E+04  0.75728077471E+02 0.  0.
         66    2    3    3    0    0  0.19164906623E+02 -0.11566179471E+01  0.10099009098E+04  0.10100853821E+04  0.19999980200E+01 0.  0.
        -13    1    3    3    0    0 -0.19164906623E+02  0.11566179471E+01  0.73748901927E+02  0.76207237914E+02  0.10566000000E+00 0.  1.
         13    1    4    4    0    0  0.31015724791E+01 -0.47264890223E+00  0.14114693834E+03  0.14118184202E+03  0.10566000000E+00 0. -1.
        -13    1    4    4    0    0  0.34828961834E+01 -0.14334308545E+00  0.16386980187E+03  0.16390690724E+03  0.10566000000E+00 0.  1.
        -14    1    4    4    0    0  0.12580437961E+02 -0.54062595946E+00  0.70488416960E+03  0.70499663279E+03  0.00000000000E+00 0.  1.
<mgrwt>
<rscale>  0 0.75728077E+02</rscale>
<asrwt>0</asrwt>
<pdfrwt beam="1">  1        2 0.16691907E+00 0.75728077E+02</pdfrwt>
<pdfrwt beam="2">  1       -1 0.20329243E-03 0.75728077E+02</pdfrwt>
<totfact> 0.40647236E+05</totfact>
</mgrwt>
</event>
<event>
 8    1  0.1226832E-020  0.8128235E+02  0.7818608E-02  0.1325451E+00
          2   -1    0    0  501    0  0.00000000000E+00  0.00000000000E+00  0.31029406104E+03  0.31029406106E+03  0.25500000000E-02 0. -1.
         -1   -1    0    0    0  501 -0.00000000000E+00 -0.00000000000E+00 -0.53230300936E+01  0.53230324796E+01  0.50400000000E-02 0.  1.
         24    2    1    2    0    0 -0.17763568394E-14 -0.17763568394E-14  0.30497103095E+03  0.31561709353E+03  0.81282347481E+02 0.  0.
         66    2    3    3    0    0  0.13697240647E+02  0.10891348035E+02  0.29490130911E+03  0.29542684031E+03  0.19999994022E+01 0.  0.
        -13    1    3    3    0    0 -0.13697240647E+02 -0.10891348035E+02  0.10069721844E+02  0.20190253228E+02  0.10566000000E+00 0.  1.
         13    1    4    4    0    0  0.34827541045E+01  0.32128185264E+01  0.70542790229E+02  0.70701825976E+02  0.10566000000E+00 0. -1.
        -13    1    4    4    0    0  0.62794831716E+01  0.51758662784E+01  0.14956149516E+03  0.14978275435E+03  0.10566000000E+00 0.  1.
         14    1    4    4    0    0  0.39350033704E+01  0.25026632298E+01  0.74797023716E+02  0.74942259985E+02  0.00000000000E+00 0. -1.
<mgrwt>
<rscale>  0 0.81282347E+02</rscale>
<asrwt>0</asrwt>
<pdfrwt beam="1">  1        2 0.47737547E-01 0.81282347E+02</pdfrwt>
<pdfrwt beam="2">  1       -1 0.81892791E-03 0.81282347E+02</pdfrwt>
<totfact> 0.24753389E+05</totfact>
</mgrwt>
</event>
<event>
 8    1  0.1226832E-020  0.7678865E+02  0.7818608E-02  0.1338420E+00
         -1   -1    0    0    0  501 -0.00000000000E+00  0.00000000000E+00  0.61762714923E+01  0.61762735487E+01  0.50400000000E-02 0.  1.
          2   -1    0    0  501    0  0.00000000000E+00 -0.00000000000E+00 -0.23867536325E+03  0.23867536327E+03  0.25500000000E-02 0. -1.
         24    2    1    2    0    0  0.35527136788E-14  0.00000000000E+00 -0.23249909176E+03  0.24485163682E+03  0.76788647479E+02 0.  0.
         66    2    3    3    0    0  0.25688699960E+02 -0.22952522604E+02 -0.17019565665E+03  0.17365854171E+03  0.19999920436E+01 0.  0.
        -13    1    3    3    0    0 -0.25688699960E+02  0.22952522604E+02 -0.62303435113E+02  0.71193095104E+02  0.10566000000E+00 0.  1.
         13    1    4    4    0    0  0.18377573353E+02 -0.16020654006E+02 -0.12072225481E+03  0.12315953283E+03  0.10566000000E+00 0. -1.
        -13    1    4    4    0    0  0.32097258310E+01 -0.36284607534E+01 -0.25035610261E+02  0.25500215931E+02  0.10566000000E+00 0.  1.
        -14    1    4    4    0    0  0.41014007765E+01 -0.33034078445E+01 -0.24437791580E+02  0.24998792952E+02  0.00000000000E+00 0.  1.
<mgrwt>
<rscale>  0 0.76788647E+02</rscale>
<asrwt>0</asrwt>
<pdfrwt beam="1">  1        2 0.36719280E-01 0.76788647E+02</pdfrwt>
<pdfrwt beam="2">  1       -1 0.95019596E-03 0.76788647E+02</pdfrwt>
<totfact> 0.26142139E+05</totfact>
</mgrwt>
</event>
<event>
 8    1  0.1226832E-020  0.8039629E+02  0.7818608E-02  0.1327931E+00
          2   -1    0    0  501    0  0.00000000000E+00  0.00000000000E+00  0.21099464779E+02  0.21099464933E+02  0.25500000000E-02 0. -1.
         -1   -1    0    0    0  501 -0.00000000000E+00 -0.00000000000E+00 -0.76584439071E+02  0.76584439237E+02  0.50400000000E-02 0.  1.
         24    2    1    2    0    0  0.17763568394E-14 -0.17763568394E-14 -0.55484974291E+02  0.97683904170E+02  0.80396285746E+02 0.  0.
         66    2    3    3    0    0 -0.13492803056E+02  0.12858996036E+02  0.15480377973E+02  0.24311553115E+02  0.19999998220E+01 0.  0.
        -13    1    3    3    0    0  0.13492803056E+02 -0.12858996036E+02 -0.70965352264E+02  0.73372351055E+02  0.10566000000E+00 0.  1.
         13    1    4    4    0    0 -0.18602910607E+01  0.16271425746E+01  0.20031593157E+01  0.31830939459E+01  0.10566000000E+00 0. -1.
        -13    1    4    4    0    0 -0.10960657025E+02  0.10146543035E+02  0.11886680526E+02  0.19089072160E+02  0.10566000000E+00 0.  1.
        -14    1    4    4    0    0 -0.67185497057E+00  0.10853104270E+01  0.15905381307E+01  0.20393870083E+01  0.00000000000E+00 0.  1.
<mgrwt>
<rscale>  0 0.80396286E+02</rscale>
<asrwt>0</asrwt>
<pdfrwt beam="1">  1        2 0.32460715E-02 0.80396286E+02</pdfrwt>
<pdfrwt beam="2">  1       -1 0.11782221E-01 0.80396286E+02</pdfrwt>
<totfact> 0.12373955E+05</totfact>
</mgrwt>
</event>
<event>
 8    1  0.1226832E-020  0.7913076E+02  0.7818608E-02  0.1331536E+00
         -1   -1    0    0    0  501 -0.00000000000E+00  0.00000000000E+00  0.10136803314E+02  0.10136804567E+02  0.50400000000E-02 0.  1.
          2   -1    0    0  501    0  0.00000000000E+00 -0.00000000000E+00 -0.15442927008E+03  0.15442927010E+03  0.25500000000E-02 0. -1.
         24    2    1    2    0    0  0.88817841970E-15  0.71054273576E-14 -0.14429246677E+03  0.16456607467E+03  0.79130758662E+02 0.  0.
         66    2    3    3    0    0 -0.57796969912E+01 -0.39078413928E+02 -0.68658607995E+02  0.79237186892E+02  0.20000005981E+01 0.  0.
        -13    1    3    3    0    0  0.57796969912E+01  0.39078413928E+02 -0.75633858770E+02  0.85328887775E+02  0.10566000000E+00 0.  1.
         13    1    4    4    0    0 -0.13436105280E+01 -0.89627415025E+01 -0.16949782069E+02  0.19220881892E+02  0.10566000000E+00 0.  1.
        -13    1    4    4    0    0 -0.28393748647E+01 -0.15352588315E+02 -0.26933628135E+02  0.31131904955E+02  0.10566000000E+00 0. -1.
        -14    1    4    4    0    0 -0.15967115985E+01 -0.14763084110E+02 -0.24775197791E+02  0.28884400045E+02  0.00000000000E+00 0.  1.
<mgrwt>
<rscale>  0 0.79130759E+02</rscale>
<asrwt>0</asrwt>
<pdfrwt beam="1">  1        2 0.23758348E-01 0.79130759E+02</pdfrwt>
<pdfrwt beam="2">  1       -1 0.15595084E-02 0.79130759E+02</pdfrwt>
<totfact> 0.20813525E+05</totfact>
</mgrwt>
</event>
<event>
 8    1  0.1226832E-020  0.7733227E+02  0.7818608E-02  0.1336797E+00
          2   -1    0    0  501    0  0.00000000000E+00  0.00000000000E+00  0.91351498277E+01  0.91351501836E+01  0.25500000000E-02 0. -1.
         -1   -1    0    0    0  501 -0.00000000000E+00 -0.00000000000E+00 -0.16366122053E+03  0.16366122061E+03  0.50400000000E-02 0.  1.
         24    2    1    2    0    0 -0.44408920985E-15  0.00000000000E+00 -0.15452607071E+03  0.17279637079E+03  0.77332265142E+02 0.  0.
         66    2    3    3    0    0  0.23052827268E+01 -0.30417465900E+02 -0.24318204922E+02  0.39062919346E+02  0.20000042543E+01 0.  0.
        -13    1    3    3    0    0 -0.23052827268E+01  0.30417465900E+02 -0.13020786578E+03  0.13373345145E+03  0.10566000000E+00 0.  1.
         13    1    4    4    0    0  0.36538219004E+00 -0.11361497171E+02 -0.99331550295E+01  0.15096219890E+02  0.10566000000E+00 0. -1.
        -13    1    4    4    0    0  0.36247006710E+00 -0.44476705100E+01 -0.37257421886E+01  0.58142477077E+01  0.10566000000E+00 0.  1.
         14    1    4    4    0    0  0.15774304696E+01 -0.14608298219E+02 -0.10659307703E+02  0.18152451748E+02  0.00000000000E+00 0. -1.
<mgrwt>
<rscale>  0 0.77332265E+02</rscale>
<asrwt>0</asrwt>
<pdfrwt beam="1">  1        2 0.14054078E-02 0.77332265E+02</pdfrwt>
<pdfrwt beam="2">  1       -1 0.25178647E-01 0.77332265E+02</pdfrwt>
<totfact> 0.11490287E+05</totfact>
</mgrwt>
</event>
<event>
 8    1  0.1226832E-020  0.8024968E+02  0.7818608E-02  0.1328344E+00
          2   -1    0    0  501    0  0.00000000000E+00  0.00000000000E+00  0.30141808138E+04  0.30141808138E+04  0.25500000000E-02 0. -1.
         -1   -1    0    0    0  501 -0.00000000000E+00 -0.00000000000E+00 -0.53413087219E+00  0.53415465010E+00  0.50400000000E-02 0.  1.
         24    2    1    2    0    0  0.00000000000E+00  0.00000000000E+00  0.30136466829E+04  0.30147149684E+04  0.80249682129E+02 0.  0.
         66    2    3    3    0    0  0.11777823621E+02  0.37769230740E+01  0.29407255449E+04  0.29407522359E+04  0.20000001811E+01 0.  0.
        -13    1    3    3    0    0 -0.11777823621E+02 -0.37769230740E+01  0.72921137953E+02  0.73962732518E+02  0.10566000000E+00 0.  1.
         13    1    4    4    0    0  0.57541530370E+01  0.24350580838E+01  0.15122809520E+04  0.15122938632E+04  0.10566000000E+00 0. -1.
        -13    1    4    4    0    0  0.22822498893E+01  0.24873262558E+00  0.42563183612E+03  0.42563804061E+03  0.10566000000E+00 0.  1.
        -14    1    4    4    0    0  0.37414206945E+01  0.10931323647E+01  0.10028127568E+04  0.10028203321E+04  0.00000000000E+00 0.  1.
<mgrwt>
<rscale>  0 0.80249682E+02</rscale>
<asrwt>0</asrwt>
<pdfrwt beam="1">  1        2 0.46372205E+00 0.80249682E+02</pdfrwt>
<pdfrwt beam="2">  1       -1 0.82175469E-04 0.80249682E+02</pdfrwt>
<totfact> 0.14137644E+05</totfact>
</mgrwt>
</event>
<event>
 8    1  0.1226832E-020  0.7914636E+02  0.7818608E-02  0.1331492E+00
         -1   -1    0    0    0  501 -0.00000000000E+00  0.00000000000E+00  0.17523885516E+02  0.17523886241E+02  0.50400000000E-02 0.  1.
          2   -1    0    0  501    0  0.00000000000E+00 -0.00000000000E+00 -0.89365821648E+02  0.89365821684E+02  0.25500000000E-02 0. -1.
         24    2    1    2    0    0  0.00000000000E+00  0.00000000000E+00 -0.71841936132E+02  0.10688970793E+03  0.79146357296E+02 0.  0.
         66    2    3    3    0    0  0.15321006773E+02 -0.35914911339E+02 -0.44422927543E+02  0.59177788020E+02  0.19999996009E+01 0.  0.
        -13    1    3    3    0    0 -0.15321006773E+02  0.35914911339E+02 -0.27419008589E+02  0.47711919906E+02  0.10566000000E+00 0.  1.
         13    1    4    4    0    0  0.58528683307E+01 -0.15350770733E+02 -0.18924427536E+02  0.25060872917E+02  0.10566000000E+00 0. -1.
        -13    1    4    4    0    0  0.85770210834E+01 -0.18551016589E+02 -0.23491237939E+02  0.31137677035E+02  0.10566000000E+00 0.  1.
        -14    1    4    4    0    0  0.89111735860E+00 -0.20131240177E+01 -0.20072620677E+01  0.29792380680E+01  0.00000000000E+00 0.  1.
<mgrwt>
<rscale>  0 0.79146357E+02</rscale>
<asrwt>0</asrwt>
<pdfrwt beam="1">  1        2 0.13748588E-01 0.79146357E+02</pdfrwt>
<pdfrwt beam="2">  1       -1 0.26959825E-02 0.79146357E+02</pdfrwt>
<totfact> 0.17690355E+05</totfact>
</mgrwt>
</event>
<event>
 8    1  0.1226832E-020  0.7855040E+02  0.7818608E-02  0.1333216E+00
          2   -1    0    0  501    0  0.00000000000E+00  0.00000000000E+00  0.41937580136E+03  0.41937580136E+03  0.25500000000E-02 0. -1.
         -1   -1    0    0    0  501 -0.00000000000E+00 -0.00000000000E+00 -0.36781820166E+01  0.36781854697E+01  0.50400000000E-02 0.  1.
         24    2    1    2    0    0  0.35527136788E-14 -0.35527136788E-14  0.41569761934E+03  0.42305398683E+03  0.78550398161E+02 0.  0.
         66    2    3    3    0    0  0.25884410226E+02 -0.21907946214E+02  0.31442196451E+03  0.31625169179E+03  0.19999994446E+01 0.  0.
        -13    1    3    3    0    0 -0.25884410226E+02  0.21907946214E+02  0.10127565483E+03  0.10680229504E+03  0.10566000000E+00 0.  1.
         13    1    4    4    0    0  0.16333214961E+02 -0.13815116148E+02  0.19732739887E+03  0.19848361357E+03  0.10566000000E+00 0. -1.
        -13    1    4    4    0    0  0.59056831482E+01 -0.55595126394E+01  0.71967664983E+02  0.72423347350E+02  0.10566000000E+00 0.  1.
         14    1    4    4    0    0  0.36455121164E+01 -0.25333174263E+01  0.45126900648E+02  0.45344730872E+02  0.00000000000E+00 0. -1.
<mgrwt>
<rscale>  0 0.78550398E+02</rscale>
<asrwt>0</asrwt>
<pdfrwt beam="1">  1        2 0.64519359E-01 0.78550398E+02</pdfrwt>
<pdfrwt beam="2">  1       -1 0.56587438E-03 0.78550398E+02</pdfrwt>
<totfact> 0.30124567E+05</totfact>
</mgrwt>
</event>
<event>
 8    1  0.1226832E-020  0.8195239E+02  0.7818608E-02  0.1323600E+00
         -1   -1    0    0    0  501 -0.00000000000E+00  0.00000000000E+00  0.21076337355E+01  0.21076397616E+01  0.50400000000E-02 0.  1.
          2   -1    0    0  501    0  0.00000000000E+00 -0.00000000000E+00 -0.79664993051E+03  0.79664993052E+03  0.25500000000E-02 0. -1.
         24    2    1    2    0    0  0.17763568394E-14  0.00000000000E+00 -0.79454229678E+03  0.79875757028E+03  0.81952392943E+02 0.  0.
         66    2    3    3    0    0  0.11140428187E+02 -0.73488618363E+01 -0.77485665201E+03  0.77497415832E+03  0.19999969780E+01 0.  0.
        -13    1    3    3    0    0 -0.11140428187E+02  0.73488618363E+01 -0.19685644767E+02  0.23783411959E+02  0.10566000000E+00 0.  1.
         13    1    4    4    0    0  0.74097214979E+01 -0.46709502597E+01 -0.55042573058E+03  0.55049542941E+03  0.10566000000E+00 0. -1.
        -13    1    4    4    0    0  0.74652971414E+00 -0.33056832468E+00 -0.46733995850E+02  0.46741246391E+02  0.10566000000E+00 0. -1.
        -14    1    4    4    0    0  0.29841769754E+01 -0.23473432519E+01 -0.17769692557E+03  0.17773748252E+03  0.00000000000E+00 0.  1.
<mgrwt>
<rscale>  0 0.81952393E+02</rscale>
<asrwt>0</asrwt>
<pdfrwt beam="1">  1        2 0.12256129E+00 0.81952393E+02</pdfrwt>
<pdfrwt beam="2">  1       -1 0.32425244E-03 0.81952393E+02</pdfrwt>
<totfact> 0.32253162E+05</totfact>
</mgrwt>
</event>
<event>
 8    1  0.1226832E-020  0.8065558E+02  0.7818608E-02  0.1327201E+00
         -1   -1    0    0    0  501 -0.00000000000E+00  0.00000000000E+00  0.41868942808E+01  0.41868973143E+01  0.50400000000E-02 0.  1.
          2   -1    0    0  501    0  0.00000000000E+00 -0.00000000000E+00 -0.38843346939E+03  0.38843346940E+03  0.25500000000E-02 0. -1.
         24    2    1    2    0    0  0.00000000000E+00 -0.55511151231E-16 -0.38424657511E+03  0.39262036672E+03  0.80655575595E+02 0.  0.
         66    2    3    3    0    0 -0.23031792922E+02  0.34420152693E+00 -0.35323008222E+03  0.35398597847E+03  0.20000017348E+01 0.  0.
        -13    1    3    3    0    0  0.23031792922E+02 -0.34420152693E+00 -0.31016492891E+02  0.38634388246E+02  0.10566000000E+00 0.  1.
         13    1    4    4    0    0 -0.91222147739E+00 -0.76853440030E-01 -0.13060919928E+02  0.13093389472E+02  0.10566000000E+00 0. -1.
        -13    1    4    4    0    0 -0.82937037924E+01 -0.70411273990E+00 -0.12916322939E+03  0.12943118746E+03  0.10566000000E+00 0.  1.
        -14    1    4    4    0    0 -0.13825867652E+02  0.11251677069E+01 -0.21100593291E+03  0.21146140154E+03  0.00000000000E+00 0.  1.
<mgrwt>
<rscale>  0 0.80655576E+02</rscale>
<asrwt>0</asrwt>
<pdfrwt beam="1">  1        2 0.59758967E-01 0.80655576E+02</pdfrwt>
<pdfrwt beam="2">  1       -1 0.64413812E-03 0.80655576E+02</pdfrwt>
<totfact> 0.27373919E+05</totfact>
</mgrwt>
</event>
<event>
 8    1  0.1226832E-020  0.7981489E+02  0.7818608E-02  0.1329578E+00
         -1   -1    0    0    0  501 -0.00000000000E+00  0.00000000000E+00  0.99278258746E+02  0.99278258874E+02  0.50400000000E-02 0.  1.
          2   -1    0    0  501    0  0.00000000000E+00 -0.00000000000E+00 -0.16041822964E+02  0.16041823166E+02  0.25500000000E-02 0. -1.
         24    2    1    2    0    0 -0.44408920985E-15  0.35527136788E-14  0.83236435782E+02  0.11532008204E+03  0.79814892596E+02 0.  0.
         66    2    3    3    0    0  0.29435298053E+01 -0.31217442218E+02  0.60352067973E+01  0.31994011767E+02  0.20000003896E+01 0.  0.
        -13    1    3    3    0    0 -0.29435298053E+01  0.31217442218E+02  0.77201228985E+02  0.83326070273E+02  0.10566000000E+00 0.  1.
         13    1    4    4    0    0  0.17595570294E+01 -0.19363717368E+02  0.37966919983E+01  0.19810997588E+02  0.10566000000E+00 0. -1.
        -13    1    4    4    0    0 -0.15867679191E+00 -0.39888306470E+01  0.88647747167E+00  0.40905934286E+01  0.10566000000E+00 0.  1.
         14    1    4    4    0    0  0.13426495678E+01 -0.78648942022E+01  0.13520373273E+01  0.80924207508E+01  0.00000000000E+00 0. -1.
<mgrwt>
<rscale>  0 0.79814893E+02</rscale>
<asrwt>0</asrwt>
<pdfrwt beam="1">  1        2 0.24679727E-02 0.79814893E+02</pdfrwt>
<pdfrwt beam="2">  1       -1 0.15273579E-01 0.79814893E+02</pdfrwt>
<totfact> 0.11940116E+05</totfact>
</mgrwt>
</event>
<event>
 8    1  0.1226832E-020  0.8194307E+02  0.7818608E-02  0.1323626E+00
          2   -1    0    0  501    0  0.00000000000E+00  0.00000000000E+00  0.32824680295E+03  0.32824680296E+03  0.25500000000E-02 0. -1.
         -1   -1    0    0    0  501 -0.00000000000E+00 -0.00000000000E+00 -0.51140363649E+01  0.51140388484E+01  0.50400000000E-02 0.  1.
         24    2    1    2    0    0 -0.17763568394E-14  0.88817841970E-15  0.32313276659E+03  0.33336084181E+03  0.81943065663E+02 0.  0.
         66    2    3    3    0    0  0.94933161696E+01 -0.78738954458E+01  0.32050672950E+03  0.32075019091E+03  0.20000077827E+01 0.  0.
        -13    1    3    3    0    0 -0.94933161696E+01  0.78738954458E+01  0.26260370880E+01  0.12610650904E+02  0.10566000000E+00 0.  1.
         13    1    4    4    0    0  0.42108537867E+01 -0.45560078791E+01  0.14746361573E+03  0.14759409753E+03  0.10566000000E+00 0. -1.
        -13    1    4    4    0    0  0.51269442899E+01 -0.32942827988E+01  0.16799507800E+03  0.16810560744E+03  0.10566000000E+00 0.  1.
        -14    1    4    4    0    0  0.15551809297E+00 -0.23604767870E-01  0.50480357683E+01  0.50504859351E+01  0.00000000000E+00 0.  1.
<mgrwt>
<rscale>  0 0.81943066E+02</rscale>
<asrwt>0</asrwt>
<pdfrwt beam="1">  1        2 0.50499506E-01 0.81943066E+02</pdfrwt>
<pdfrwt beam="2">  1       -1 0.78677506E-03 0.81943066E+02</pdfrwt>
<totfact> 0.24730636E+05</totfact>
</mgrwt>
</event>
<event>
 8    1  0.1226832E-020  0.8331365E+02  0.7818608E-02  0.1319902E+00
         -1   -1    0    0    0  501 -0.00000000000E+00  0.00000000000E+00  0.28348772718E+01  0.28348817520E+01  0.50400000000E-02 0.  1.
          2   -1    0    0  501    0  0.00000000000E+00 -0.00000000000E+00 -0.61212169774E+03  0.61212169774E+03  0.25500000000E-02 0. -1.
         24    2    1    2    0    0 -0.44408920985E-15  0.35527136788E-14 -0.60928682047E+03  0.61495657949E+03  0.83313654767E+02 0.  0.
         66    2    3    3    0    0 -0.36908960897E+01 -0.21388388385E+02 -0.56705454345E+03  0.56747329552E+03  0.20000003852E+01 0.  0.
        -13    1    3    3    0    0  0.36908960897E+01  0.21388388385E+02 -0.42232277011E+02  0.47483283977E+02  0.10566000000E+00 0.  1.
         13    1    4    4    0    0 -0.40123407983E-01 -0.16240011448E+00 -0.70019187188E+01  0.70047136605E+01  0.10566000000E+00 0. -1.
        -13    1    4    4    0    0 -0.15110476905E+00 -0.12243763205E+01 -0.41752810790E+02  0.41771165927E+02  0.10566000000E+00 0.  1.
         14    1    4    4    0    0 -0.34996679127E+01 -0.20001611950E+02 -0.51829981395E+03  0.51869741593E+03  0.00000000000E+00 0. -1.
<mgrwt>
<rscale>  0 0.83313655E+02</rscale>
<asrwt>0</asrwt>
<pdfrwt beam="1">  1        2 0.94172464E-01 0.83313655E+02</pdfrwt>
<pdfrwt beam="2">  1       -1 0.43613580E-03 0.83313655E+02</pdfrwt>
<totfact> 0.29094133E+05</totfact>
</mgrwt>
</event>
<event>
 8    1  0.1226832E-020  0.7779501E+02  0.7818608E-02  0.1335428E+00
          2   -1    0    0  501    0  0.00000000000E+00  0.00000000000E+00  0.15677310543E+03  0.15677310545E+03  0.25500000000E-02 0. -1.
         -1   -1    0    0    0  501 -0.00000000000E+00 -0.00000000000E+00 -0.96509908229E+01  0.96509921389E+01  0.50400000000E-02 0.  1.
         24    2    1    2    0    0  0.00000000000E+00  0.00000000000E+00  0.14712211461E+03  0.16642409759E+03  0.77795010458E+02 0.  0.
         66    2    3    3    0    0 -0.20904273208E+02 -0.32230001154E+02  0.86310607570E+02  0.94494881239E+02  0.19999971530E+01 0.  0.
        -13    1    3    3    0    0  0.20904273208E+02  0.32230001154E+02  0.60811507042E+02  0.71929216355E+02  0.10566000000E+00 0.  1.
         13    1    4    4    0    0 -0.15719340041E+02 -0.25382279246E+02  0.65715522882E+02  0.72179629140E+02  0.10566000000E+00 0. -1.
        -13    1    4    4    0    0 -0.28872652150E+01 -0.39123156419E+01  0.11738611111E+02  0.12706245273E+02  0.10566000000E+00 0.  1.
         14    1    4    4    0    0 -0.22976679515E+01 -0.29354062660E+01  0.88564735771E+01  0.96090068261E+01  0.00000000000E+00 0. -1.
<mgrwt>
<rscale>  0 0.77795010E+02</rscale>
<asrwt>0</asrwt>
<pdfrwt beam="1">  1        2 0.24118938E-01 0.77795010E+02</pdfrwt>
<pdfrwt beam="2">  1       -1 0.14847680E-02 0.77795010E+02</pdfrwt>
<totfact> 0.21879239E+05</totfact>
</mgrwt>
</event>
<event>
 8    1  0.1226832E-020  0.8688145E+02  0.7818608E-02  0.1310584E+00
          2   -1    0    0  501    0  0.00000000000E+00  0.00000000000E+00  0.14373364986E+02  0.14373365212E+02  0.25500000000E-02 0. -1.
         -1   -1    0    0    0  501 -0.00000000000E+00 -0.00000000000E+00 -0.13129121110E+03  0.13129121120E+03  0.50400000000E-02 0.  1.
         24    2    1    2    0    0  0.00000000000E+00  0.00000000000E+00 -0.11691784612E+03  0.14566457641E+03  0.86881448426E+02 0.  0.
         66    2    3    3    0    0 -0.19311170382E+02  0.15843024122E+02  0.10508250586E+01  0.25080409716E+02  0.20000008510E+01 0.  0.
        -13    1    3    3    0    0  0.19311170382E+02 -0.15843024122E+02 -0.11796867117E+03  0.12058416670E+03  0.10566000000E+00 0.  1.
         13    1    4    4    0    0 -0.93124917290E+01  0.84327610237E+01  0.94020523377E+00  0.12598774171E+02  0.10566000000E+00 0. -1.
        -13    1    4    4    0    0 -0.70353435692E+00  0.39514395173E+00 -0.17709575496E+00  0.83284228758E+00  0.10566000000E+00 0.  1.
        -14    1    4    4    0    0 -0.92951442956E+01  0.70151191463E+01  0.28771557977E+00  0.11648793258E+02  0.00000000000E+00 0.  1.
<mgrwt>
<rscale>  0 0.86881448E+02</rscale>
<asrwt>0</asrwt>
<pdfrwt beam="1">  1        2 0.22112870E-02 0.86881448E+02</pdfrwt>
<pdfrwt beam="2">  1       -1 0.20198647E-01 0.86881448E+02</pdfrwt>
<totfact> 0.90557386E+04</totfact>
</mgrwt>
</event>
<event>
 8    1  0.1226832E-020  0.8000623E+02  0.7818608E-02  0.1329034E+00
          2   -1    0    0  501    0  0.00000000000E+00  0.00000000000E+00  0.46699868921E+02  0.46699868990E+02  0.25500000000E-02 0. -1.
         -1   -1    0    0    0  501 -0.00000000000E+00 -0.00000000000E+00 -0.34266673350E+02  0.34266673720E+02  0.50400000000E-02 0.  1.
         24    2    1    2    0    0 -0.44408920985E-15 -0.71054273576E-14  0.12433195571E+02  0.80966542711E+02  0.80006229048E+02 0.  0.
         66    2    3    3    0    0 -0.19800001160E+01 -0.35920486624E+02  0.23866578672E+02  0.43218229200E+02  0.19999994908E+01 0.  0.
        -13    1    3    3    0    0  0.19800001160E+01  0.35920486624E+02 -0.11433383101E+02  0.37748313511E+02  0.10566000000E+00 0.  1.
         13    1    4    4    0    0 -0.30404012299E+00 -0.61346720009E+01  0.37616266705E+01  0.72033075875E+01  0.10566000000E+00 0. -1.
        -13    1    4    4    0    0  0.14578008376E+00 -0.81399202464E+01  0.60196460791E+01  0.10125554622E+02  0.10566000000E+00 0.  1.
         14    1    4    4    0    0 -0.18217400768E+01 -0.21645894376E+02  0.14085305922E+02  0.25889366991E+02  0.00000000000E+00 0. -1.
<mgrwt>
<rscale>  0 0.80006229E+02</rscale>
<asrwt>0</asrwt>
<pdfrwt beam="1">  1        2 0.71845952E-02 0.80006229E+02</pdfrwt>
<pdfrwt beam="2">  1       -1 0.52717960E-02 0.80006229E+02</pdfrwt>
<totfact> 0.14721566E+05</totfact>
</mgrwt>
</event>
<event>
 8    1  0.1226832E-020  0.7668887E+02  0.7818608E-02  0.1338719E+00
          2   -1    0    0  501    0  0.00000000000E+00  0.00000000000E+00  0.32866373410E+02  0.32866373509E+02  0.25500000000E-02 0. -1.
         -1   -1    0    0    0  501 -0.00000000000E+00 -0.00000000000E+00 -0.44735564088E+02  0.44735564372E+02  0.50400000000E-02 0.  1.
         24    2    1    2    0    0  0.00000000000E+00  0.00000000000E+00 -0.11869190679E+02  0.77601937881E+02  0.76688871914E+02 0.  0.
         66    2    3    3    0    0  0.16187885729E+02 -0.34597041499E+02 -0.28547234295E+01  0.38355604183E+02  0.20000003824E+01 0.  0.
        -13    1    3    3    0    0 -0.16187885729E+02  0.34597041499E+02 -0.90144672490E+01  0.39246333697E+02  0.10566000000E+00 0.  1.
         13    1    4    4    0    0  0.13775369137E+02 -0.28324945426E+02 -0.23967280722E+01  0.31588269939E+02  0.10566000000E+00 0. -1.
        -13    1    4    4    0    0  0.10841771501E+01 -0.22468734481E+01  0.55374137969E-01  0.24976210111E+01  0.10566000000E+00 0.  1.
        -14    1    4    4    0    0  0.13283394417E+01 -0.40252226252E+01 -0.51336949528E+00  0.42697132332E+01  0.00000000000E+00 0.  1.
<mgrwt>
<rscale>  0 0.76688872E+02</rscale>
<asrwt>0</asrwt>
<pdfrwt beam="1">  1        2 0.50563652E-02 0.76688872E+02</pdfrwt>
<pdfrwt beam="2">  1       -1 0.68823945E-02 0.76688872E+02</pdfrwt>
<totfact> 0.15409320E+05</totfact>
</mgrwt>
</event>
<event>
 8    1  0.1226832E-020  0.8126186E+02  0.7818608E-02  0.1325508E+00
          2   -1    0    0  501    0  0.00000000000E+00  0.00000000000E+00  0.25877825867E+03  0.25877825868E+03  0.25500000000E-02 0. -1.
         -1   -1    0    0    0  501 -0.00000000000E+00 -0.00000000000E+00 -0.63794864746E+01  0.63794884655E+01  0.50400000000E-02 0.  1.
         24    2    1    2    0    0  0.00000000000E+00  0.71054273576E-14  0.25239877220E+03  0.26515774715E+03  0.81261864776E+02 0.  0.
         66    2    3    3    0    0  0.13103842879E+01  0.39258477614E+02  0.15985801314E+03  0.16462542189E+03  0.19999988236E+01 0.  0.
        -13    1    3    3    0    0 -0.13103842879E+01 -0.39258477614E+02  0.92540759057E+02  0.10053232526E+03  0.10566000000E+00 0.  1.
         13    1    4    4    0    0  0.69059412691E+00  0.32933359148E+02  0.13182599496E+03  0.13587931106E+03  0.10566000000E+00 0. -1.
        -13    1    4    4    0    0  0.10351377067E+00  0.67961293215E+00  0.28026109194E+01  0.28876254673E+01  0.10566000000E+00 0.  1.
         14    1    4    4    0    0  0.51627639029E+00  0.56455055343E+01  0.25229407265E+02  0.25858485357E+02  0.00000000000E+00 0. -1.
<mgrwt>
<rscale>  0 0.81261865E+02</rscale>
<asrwt>0</asrwt>
<pdfrwt beam="1">  1        2 0.39812041E-01 0.81261865E+02</pdfrwt>
<pdfrwt beam="2">  1       -1 0.98145958E-03 0.81261865E+02</pdfrwt>
<totfact> 0.23191760E+05</totfact>
</mgrwt>
</event>
<event>
 8    1  0.1226832E-020  0.7516081E+02  0.7818608E-02  0.1343374E+00
          2   -1    0    0  501    0  0.00000000000E+00  0.00000000000E+00  0.47011198196E+02  0.47011198266E+02  0.25500000000E-02 0. -1.
         -1   -1    0    0    0  501 -0.00000000000E+00 -0.00000000000E+00 -0.30041496675E+02  0.30041497097E+02  0.50400000000E-02 0.  1.
         24    2    1    2    0    0  0.00000000000E+00 -0.88817841970E-15  0.16969701522E+02  0.77052695363E+02  0.75160808224E+02 0.  0.
         66    2    3    3    0    0  0.33707864749E+02 -0.49796380300E+01 -0.76946913139E+01  0.34988929734E+02  0.19999971609E+01 0.  0.
        -13    1    3    3    0    0 -0.33707864749E+02  0.49796380300E+01  0.24664392836E+02  0.42063765629E+02  0.10566000000E+00 0.  1.
         13    1    4    4    0    0  0.33327211488E+01 -0.20207910579E+00 -0.57399775888E+00  0.33894695284E+01  0.10566000000E+00 0. -1.
        -13    1    4    4    0    0  0.15521573080E+01 -0.17042062329E+00 -0.47351320266E-01  0.15657719121E+01  0.10566000000E+00 0.  1.
         14    1    4    4    0    0  0.28822986293E+02 -0.46071383009E+01 -0.70733422348E+01  0.30033688294E+02  0.00000000000E+00 0. -1.
<mgrwt>
<rscale>  0 0.75160808E+02</rscale>
<asrwt>0</asrwt>
<pdfrwt beam="1">  1        2 0.72324921E-02 0.75160808E+02</pdfrwt>
<pdfrwt beam="2">  1       -1 0.46217688E-02 0.75160808E+02</pdfrwt>
<totfact> 0.17487504E+05</totfact>
</mgrwt>
</event>
<event>
 8    1  0.1226832E-020  0.7975359E+02  0.7818608E-02  0.1329752E+00
         -1   -1    0    0    0  501 -0.00000000000E+00  0.00000000000E+00  0.64694478460E+00  0.64696441627E+00  0.50400000000E-02 0.  1.
          2   -1    0    0  501    0  0.00000000000E+00 -0.00000000000E+00 -0.24579140624E+04  0.24579140624E+04  0.25500000000E-02 0. -1.
         24    2    1    2    0    0  0.00000000000E+00  0.00000000000E+00 -0.24572671176E+04  0.24585610269E+04  0.79753590970E+02 0.  0.
         66    2    3    3    0    0 -0.81912819689E+01  0.12444686134E+02 -0.23688290629E+04  0.23688767584E+04  0.20000007197E+01 0.  0.
        -13    1    3    3    0    0  0.81912819689E+01 -0.12444686134E+02 -0.88438054769E+02  0.89684268457E+02  0.10566000000E+00 0.  1.
         13    1    4    4    0    0 -0.31952141167E+01  0.53975101540E+01 -0.94331127926E+03  0.94333213835E+03  0.10566000000E+00 0. -1.
        -13    1    4    4    0    0 -0.31171240329E+00  0.12360251269E+01 -0.19386882903E+03  0.19387304856E+03  0.10566000000E+00 0.  1.
        -14    1    4    4    0    0 -0.46843554489E+01  0.58111508534E+01 -0.12316489546E+04  0.12316715715E+04  0.00000000000E+00 0.  1.
<mgrwt>
<rscale>  0 0.79753591E+02</rscale>
<asrwt>0</asrwt>
<pdfrwt beam="1">  1        2 0.37813315E+00 0.79753591E+02</pdfrwt>
<pdfrwt beam="2">  1       -1 0.99533445E-04 0.79753591E+02</pdfrwt>
<totfact> 0.21741549E+05</totfact>
</mgrwt>
</event>
<event>
 8    1  0.1226832E-020  0.8089946E+02  0.7818608E-02  0.1326518E+00
          2   -1    0    0  501    0  0.00000000000E+00  0.00000000000E+00  0.51291021385E+03  0.51291021385E+03  0.25500000000E-02 0. -1.
         -1   -1    0    0    0  501 -0.00000000000E+00 -0.00000000000E+00 -0.31899924590E+01  0.31899964404E+01  0.50400000000E-02 0.  1.
         24    2    1    2    0    0  0.35527136788E-14  0.00000000000E+00  0.50972022139E+03  0.51610021030E+03  0.80899462133E+02 0.  0.
         66    2    3    3    0    0 -0.31287311190E+02 -0.19157662346E+02  0.36332917629E+03  0.36518214935E+03  0.19999993364E+01 0.  0.
        -13    1    3    3    0    0  0.31287311190E+02  0.19157662346E+02  0.14639104510E+03  0.15091806094E+03  0.10566000000E+00 0.  1.
         13    1    4    4    0    0 -0.58005092173E+01 -0.39401764422E+01  0.66335647354E+02  0.66705323412E+02  0.10566000000E+00 0. -1.
        -13    1    4    4    0    0 -0.49463065071E+01 -0.34638694741E+01  0.64237103283E+02  0.64520391676E+02  0.10566000000E+00 0.  1.
         14    1    4    4    0    0 -0.20540495465E+02 -0.11753616430E+02  0.23275642565E+03  0.23395643426E+03  0.00000000000E+00 0. -1.
<mgrwt>
<rscale>  0 0.80899462E+02</rscale>
<asrwt>0</asrwt>
<pdfrwt beam="1">  1        2 0.78909286E-01 0.80899462E+02</pdfrwt>
<pdfrwt beam="2">  1       -1 0.49076824E-03 0.80899462E+02</pdfrwt>
<totfact> 0.29815986E+05</totfact>
</mgrwt>
</event>
<event>
 8    1  0.1226832E-020  0.8119144E+02  0.7818608E-02  0.1325704E+00
         -1   -1    0    0    0  501 -0.00000000000E+00  0.00000000000E+00  0.78883583619E+01  0.78883599719E+01  0.50400000000E-02 0.  1.
          2   -1    0    0  501    0  0.00000000000E+00 -0.00000000000E+00 -0.20891702515E+03  0.20891702517E+03  0.25500000000E-02 0. -1.
         24    2    1    2    0    0  0.00000000000E+00  0.00000000000E+00 -0.20102866679E+03  0.21680538514E+03  0.81191441384E+02 0.  0.
         66    2    3    3    0    0  0.29579083594E+02  0.25617519424E+02 -0.12918950212E+03  0.13500039610E+03  0.20000001414E+01 0.  0.
        -13    1    3    3    0    0 -0.29579083594E+02 -0.25617519424E+02 -0.71839164668E+02  0.81804989041E+02  0.10566000000E+00 0.  1.
         13    1    4    4    0    0  0.66426463415E+01  0.66390891535E+01 -0.29971940802E+02  0.31409085544E+02  0.10566000000E+00 0. -1.
        -13    1    4    4    0    0  0.35336658922E+01  0.28653511499E+01 -0.16228708445E+02  0.16854648430E+02  0.10566000000E+00 0.  1.
        -14    1    4    4    0    0  0.19402771361E+02  0.16113079121E+02 -0.82988852874E+02  0.86736662125E+02  0.00000000000E+00 0.  1.
<mgrwt>
<rscale>  0 0.81191441E+02</rscale>
<asrwt>0</asrwt>
<pdfrwt beam="1">  1        2 0.32141077E-01 0.81191441E+02</pdfrwt>
<pdfrwt beam="2">  1       -1 0.12135939E-02 0.81191441E+02</pdfrwt>
<totfact> 0.21539769E+05</totfact>
</mgrwt>
</event>
<event>
 8    1  0.1363364E-020  0.8013870E+02  0.7818608E-02  0.1328658E+00
         -1   -1    0    0    0  501 -0.00000000000E+00  0.00000000000E+00  0.19154572264E+01  0.19154638570E+01  0.50400000000E-02 0.  1.
          2   -1    0    0  501    0  0.00000000000E+00 -0.00000000000E+00 -0.83820726411E+03  0.83820726412E+03  0.25500000000E-02 0. -1.
         24    2    1    2    0    0  0.00000000000E+00 -0.71054273576E-14 -0.83629180689E+03  0.84012272797E+03  0.80138703462E+02 0.  0.
         66    2    3    3    0    0  0.30451380660E+01  0.31032794596E+02 -0.68179480331E+03  0.68251041092E+03  0.19999997261E+01 0.  0.
        -13    1    3    3    0    0 -0.30451380660E+01 -0.31032794596E+02 -0.15449700358E+03  0.15761231705E+03  0.10566000000E+00 0.  1.
         13    1    4    4    0    0  0.20667138139E+01  0.18312725442E+02 -0.40420074380E+03  0.40462066145E+03  0.10566000000E+00 0. -1.
        -13    1    4    4    0    0  0.80235405095E+00  0.10572209696E+02 -0.23979187003E+03  0.24002618083E+03  0.10566000000E+00 0.  1.
        -14    1    4    4    0    0  0.17607020116E+00  0.21478594579E+01 -0.37802189475E+02  0.37863568639E+02  0.00000000000E+00 0.  1.
<mgrwt>
<rscale>  0 0.80138703E+02</rscale>
<asrwt>0</asrwt>
<pdfrwt beam="1">  1        2 0.12895467E+00 0.80138703E+02</pdfrwt>
<pdfrwt beam="2">  1       -1 0.29468691E-03 0.80138703E+02</pdfrwt>
<totfact> 0.34469323E+05</totfact>
</mgrwt>
</event>
<event>
 8    1  0.1226832E-020  0.8146636E+02  0.7818608E-02  0.1324941E+00
         -1   -1    0    0    0  501 -0.00000000000E+00  0.00000000000E+00  0.30319431690E+03  0.30319431694E+03  0.50400000000E-02 0.  1.
          2   -1    0    0  501    0  0.00000000000E+00 -0.00000000000E+00 -0.54723705755E+01  0.54723711696E+01  0.25500000000E-02 0. -1.
         24    2    1    2    0    0  0.00000000000E+00  0.00000000000E+00  0.29772194632E+03  0.30866668811E+03  0.81466355181E+02 0.  0.
         66    2    3    3    0    0 -0.37555522906E+02 -0.14411999273E+02  0.17263136795E+03  0.17726734646E+03  0.19999744208E+01 0.  0.
        -13    1    3    3    0    0  0.37555522906E+02  0.14411999273E+02  0.12509057837E+03  0.13139934165E+03  0.10566000000E+00 0.  1.
         13    1    4    4    0    0 -0.14599870772E+02 -0.54108248968E+01  0.66834580798E+02  0.68624380559E+02  0.10566000000E+00 0. -1.
        -13    1    4    4    0    0 -0.13949097927E+01 -0.53057639089E+00  0.50301788347E+01  0.52479660613E+01  0.10566000000E+00 0.  1.
         14    1    4    4    0    0 -0.21560742341E+02 -0.84705979852E+01  0.10076660832E+03  0.10339499984E+03  0.00000000000E+00 0. -1.
<mgrwt>
<rscale>  0 0.81466355E+02</rscale>
<asrwt>0</asrwt>
<pdfrwt beam="1">  1        2 0.84190297E-03 0.81466355E+02</pdfrwt>
<pdfrwt beam="2">  1       -1 0.46645293E-01 0.81466355E+02</pdfrwt>
<totfact> 0.82142387E+04</totfact>
</mgrwt>
</event>
<event>
 8    1  0.1226832E-020  0.8088173E+02  0.7818608E-02  0.1326568E+00
         -1   -1    0    0    0  501 -0.00000000000E+00  0.00000000000E+00  0.11778527231E+02  0.11778528309E+02  0.50400000000E-02 0.  1.
          2   -1    0    0  501    0  0.00000000000E+00 -0.00000000000E+00 -0.13885127740E+03  0.13885127742E+03  0.25500000000E-02 0. -1.
         24    2    1    2    0    0  0.35527136788E-14  0.00000000000E+00 -0.12707275017E+03  0.15062980573E+03  0.80881731804E+02 0.  0.
         66    2    3    3    0    0  0.23986602071E+02  0.13006372899E+02 -0.11910102545E+03  0.12220301601E+03  0.20000108160E+01 0.  0.
        -13    1    3    3    0    0 -0.23986602071E+02 -0.13006372899E+02 -0.79717247152E+01  0.28426789722E+02  0.10566000000E+00 0.  1.
         13    1    4    4    0    0  0.40682071030E+01  0.26409240207E+01 -0.21078595656E+02  0.21629682097E+02  0.10566000000E+00 0. -1.
        -13    1    4    4    0    0  0.10371788015E+02  0.54343681824E+01 -0.54556534894E+02  0.55799041281E+02  0.10566000000E+00 0.  1.
         14    1    4    4    0    0  0.95466069533E+01  0.49310806960E+01 -0.43465894903E+02  0.44774292634E+02  0.00000000000E+00 0. -1.
<mgrwt>
<rscale>  0 0.80881732E+02</rscale>
<asrwt>0</asrwt>
<pdfrwt beam="1">  1        2 0.21361734E-01 0.80881732E+02</pdfrwt>
<pdfrwt beam="2">  1       -1 0.18120813E-02 0.80881732E+02</pdfrwt>
<totfact> 0.18981854E+05</totfact>
</mgrwt>
</event>
<event>
 8    1  0.1226832E-020  0.8002605E+02  0.7818608E-02  0.1328978E+00
          2   -1    0    0  501    0  0.00000000000E+00  0.00000000000E+00  0.14250701931E+02  0.14250702159E+02  0.25500000000E-02 0. -1.
         -1   -1    0    0    0  501 -0.00000000000E+00 -0.00000000000E+00 -0.11234831054E+03  0.11234831065E+03  0.50400000000E-02 0.  1.
         24    2    1    2    0    0  0.00000000000E+00 -0.35527136788E-14 -0.98097608608E+02  0.12659901281E+03  0.80026053446E+02 0.  0.
         66    2    3    3    0    0  0.17566738369E+02  0.26962226335E+02 -0.11526733578E+02  0.34240583237E+02  0.20000018949E+01 0.  0.
        -13    1    3    3    0    0 -0.17566738369E+02 -0.26962226335E+02 -0.86570875030E+02  0.92358429574E+02  0.10566000000E+00 0.  1.
         13    1    4    4    0    0  0.65700672107E+01  0.11096022202E+02 -0.47897589058E+01  0.13756469252E+02  0.10566000000E+00 0. -1.
        -13    1    4    4    0    0  0.10740820406E+02  0.15231856665E+02 -0.66741886563E+01  0.19797238159E+02  0.10566000000E+00 0.  1.
         14    1    4    4    0    0  0.25585075199E+00  0.63434746756E+00 -0.62786015635E-01  0.68687582623E+00  0.00000000000E+00 0. -1.
<mgrwt>
<rscale>  0 0.80026053E+02</rscale>
<asrwt>0</asrwt>
<pdfrwt beam="1">  1        2 0.21924158E-02 0.80026053E+02</pdfrwt>
<pdfrwt beam="2">  1       -1 0.17284355E-01 0.80026053E+02</pdfrwt>
<totfact> 0.11545821E+05</totfact>
</mgrwt>
</event>
<event>
 8    1  0.1226832E-020  0.8181717E+02  0.7818608E-02  0.1323972E+00
          2   -1    0    0  501    0  0.00000000000E+00  0.00000000000E+00  0.13039570326E+04  0.13039570326E+04  0.25500000000E-02 0. -1.
         -1   -1    0    0    0  501 -0.00000000000E+00 -0.00000000000E+00 -0.12834055700E+01  0.12834154661E+01  0.50400000000E-02 0.  1.
         24    2    1    2    0    0  0.00000000000E+00 -0.17763568394E-14  0.13026736271E+04  0.13052404481E+04  0.81817166384E+02 0.  0.
         66    2    3    3    0    0  0.20862343364E+02 -0.13852159996E+02  0.11672822047E+04  0.11675525106E+04  0.20000000190E+01 0.  0.
        -13    1    3    3    0    0 -0.20862343364E+02  0.13852159996E+02  0.13539142237E+03  0.13768793746E+03  0.10566000000E+00 0.  1.
         13    1    4    4    0    0  0.10895939649E+02 -0.70016862716E+01  0.62399206631E+03  0.62412647363E+03  0.10566000000E+00 0. -1.
        -13    1    4    4    0    0  0.33589250898E+01 -0.29998261531E+01  0.20009600069E+03  0.20014670118E+03  0.10566000000E+00 0.  1.
        -14    1    4    4    0    0  0.66074786254E+01 -0.38506475715E+01  0.34319413769E+03  0.34327933583E+03  0.00000000000E+00 0.  1.
<mgrwt>
<rscale>  0 0.81817166E+02</rscale>
<asrwt>0</asrwt>
<pdfrwt beam="1">  1        2 0.20060961E+00 0.81817166E+02</pdfrwt>
<pdfrwt beam="2">  1       -1 0.19744696E-03 0.81817166E+02</pdfrwt>
<totfact> 0.32633852E+05</totfact>
</mgrwt>
</event>
<event>
 8    1  0.1226832E-020  0.7819354E+02  0.7818608E-02  0.1334257E+00
          2   -1    0    0  501    0  0.00000000000E+00  0.00000000000E+00  0.75622250673E+02  0.75622250716E+02  0.25500000000E-02 0. -1.
         -1   -1    0    0    0  501 -0.00000000000E+00 -0.00000000000E+00 -0.20213063397E+02  0.20213064025E+02  0.50400000000E-02 0.  1.
         24    2    1    2    0    0  0.00000000000E+00  0.00000000000E+00  0.55409187276E+02  0.95835314741E+02  0.78193538844E+02 0.  0.
         66    2    3    3    0    0 -0.11262601607E+02  0.15055722013E+02  0.69699488197E+02  0.72218692951E+02  0.19999990764E+01 0.  0.
        -13    1    3    3    0    0  0.11262601607E+02 -0.15055722013E+02 -0.14290300922E+02  0.23616621790E+02  0.10566000000E+00 0.  1.
         13    1    4    4    0    0 -0.94290280944E+01  0.13009525897E+02  0.58534955021E+02  0.60700135570E+02  0.10566000000E+00 0. -1.
        -13    1    4    4    0    0 -0.15634282800E+00  0.29288576743E-01  0.47676035024E+00  0.51358092620E+00  0.10566000000E+00 0. -1.
         14    1    4    4    0    0 -0.16772306849E+01  0.20169075396E+01  0.10687772826E+02  0.11004976455E+02  0.00000000000E+00 0. -1.
<mgrwt>
<rscale>  0 0.78193539E+02</rscale>
<asrwt>0</asrwt>
<pdfrwt beam="1">  1        2 0.11634193E-01 0.78193539E+02</pdfrwt>
<pdfrwt beam="2">  1       -1 0.31097021E-02 0.78193539E+02</pdfrwt>
<totfact> 0.17504076E+05</totfact>
</mgrwt>
</event>
<event>
 8    1  0.1226832E-020  0.8009714E+02  0.7818608E-02  0.1328776E+00
         -1   -1    0    0    0  501 -0.00000000000E+00  0.00000000000E+00  0.24554904447E+02  0.24554904964E+02  0.50400000000E-02 0.  1.
          2   -1    0    0  501    0  0.00000000000E+00 -0.00000000000E+00 -0.65318428571E+02  0.65318428621E+02  0.25500000000E-02 0. -1.
         24    2    1    2    0    0  0.00000000000E+00  0.00000000000E+00 -0.40763524124E+02  0.89873333585E+02  0.80097135971E+02 0.  0.
         66    2    3    3    0    0 -0.33214697985E+02 -0.20740152192E+02 -0.29681950756E+02  0.49177111309E+02  0.20000002267E+01 0.  0.
        -13    1    3    3    0    0  0.33214697985E+02  0.20740152192E+02 -0.11081573368E+02  0.40696222276E+02  0.10566000000E+00 0.  1.
         13    1    4    4    0    0 -0.16771757742E+02 -0.10737796712E+02 -0.14906726293E+02  0.24875968097E+02  0.10566000000E+00 0. -1.
        -13    1    4    4    0    0 -0.11043152564E+02 -0.66712577421E+01 -0.10686516923E+02  0.16753199885E+02  0.10566000000E+00 0.  1.
         14    1    4    4    0    0 -0.53997876791E+01 -0.33310977380E+01 -0.40887075397E+01  0.75479433268E+01  0.00000000000E+00 0. -1.
<mgrwt>
<rscale>  0 0.80097136E+02</rscale>
<asrwt>0</asrwt>
<pdfrwt beam="1">  1        2 0.10048989E-01 0.80097136E+02</pdfrwt>
<pdfrwt beam="2">  1       -1 0.37776777E-02 0.80097136E+02</pdfrwt>
<totfact> 0.15827069E+05</totfact>
</mgrwt>
</event>
<event>
 8    1  0.1226832E-020  0.7689918E+02  0.7818608E-02  0.1338089E+00
         -1   -1    0    0    0  501 -0.00000000000E+00  0.00000000000E+00  0.17130396660E+02  0.17130397402E+02  0.50400000000E-02 0.  1.
          2   -1    0    0  501    0  0.00000000000E+00 -0.00000000000E+00 -0.86301041521E+02  0.86301041559E+02  0.25500000000E-02 0. -1.
         24    2    1    2    0    0  0.22204460493E-15 -0.35527136788E-14 -0.69170644861E+02  0.10343143896E+03  0.76899183709E+02 0.  0.
         66    2    3    3    0    0  0.11965230525E+01 -0.19156754716E+02 -0.79379111893E+02  0.81691225488E+02  0.19999995210E+01 0.  0.
        -13    1    3    3    0    0 -0.11965230525E+01  0.19156754716E+02  0.10208467032E+02  0.21740213473E+02  0.10566000000E+00 0.  1.
         13    1    4    4    0    0  0.44538930021E+00 -0.68171187189E+01 -0.30242736315E+02  0.31004930948E+02  0.10566000000E+00 0. -1.
        -13    1    4    4    0    0  0.81524354520E+00 -0.64724488538E+01 -0.28048249697E+02  0.28797095188E+02  0.10566000000E+00 0.  1.
         14    1    4    4    0    0 -0.64109792916E-01 -0.58671871433E+01 -0.21088125882E+02  0.21889199352E+02  0.00000000000E+00 0. -1.
<mgrwt>
<rscale>  0 0.76899184E+02</rscale>
<asrwt>0</asrwt>
<pdfrwt beam="1">  1        2 0.13277083E-01 0.76899184E+02</pdfrwt>
<pdfrwt beam="2">  1       -1 0.26354458E-02 0.76899184E+02</pdfrwt>
<totfact> 0.18934389E+05</totfact>
</mgrwt>
</event>
<event>
 8    1  0.1226832E-020  0.8077211E+02  0.7818608E-02  0.1326874E+00
         -1   -1    0    0    0  501 -0.00000000000E+00  0.00000000000E+00  0.64259877644E+01  0.64259897409E+01  0.50400000000E-02 0.  1.
          2   -1    0    0  501    0  0.00000000000E+00 -0.00000000000E+00 -0.25381825835E+03  0.25381825836E+03  0.25500000000E-02 0. -1.
         24    2    1    2    0    0  0.00000000000E+00  0.00000000000E+00 -0.24739227058E+03  0.26024424810E+03  0.80772106111E+02 0.  0.
         66    2    3    3    0    0 -0.21580224232E+02 -0.24007156528E+02 -0.20183218412E+03  0.20440714319E+03  0.19999994371E+01 0.  0.
        -13    1    3    3    0    0  0.21580224232E+02  0.24007156528E+02 -0.45560086467E+02  0.55837104916E+02  0.10566000000E+00 0.  1.
         13    1    4    4    0    0 -0.45281199898E+01 -0.59250185798E+01 -0.44847675152E+02  0.45463555144E+02  0.10566000000E+00 0. -1.
        -13    1    4    4    0    0 -0.10445519641E+02 -0.11423841869E+02 -0.94736407613E+02  0.95992766056E+02  0.10566000000E+00 0.  1.
        -14    1    4    4    0    0 -0.66065846010E+01 -0.66582960789E+01 -0.62248101353E+02  0.62950821986E+02  0.00000000000E+00 0.  1.
<mgrwt>
<rscale>  0 0.80772106E+02</rscale>
<asrwt>0</asrwt>
<pdfrwt beam="1">  1        2 0.39048955E-01 0.80772106E+02</pdfrwt>
<pdfrwt beam="2">  1       -1 0.98861385E-03 0.80772106E+02</pdfrwt>
<totfact> 0.23399835E+05</totfact>
</mgrwt>
</event>
<event>
 8    1  0.1226832E-020  0.8355124E+02  0.7818608E-02  0.1319265E+00
         -1   -1    0    0    0  501 -0.00000000000E+00  0.00000000000E+00  0.32665838592E+02  0.32665838981E+02  0.50400000000E-02 0.  1.
          2   -1    0    0  501    0  0.00000000000E+00 -0.00000000000E+00 -0.53425913411E+02  0.53425913472E+02  0.25500000000E-02 0. -1.
         24    2    1    2    0    0  0.00000000000E+00 -0.35527136788E-14 -0.20760074819E+02  0.86091752453E+02  0.83551236580E+02 0.  0.
         66    2    3    3    0    0  0.23118428422E+02  0.30785599877E+02 -0.27032136122E+02  0.47084511977E+02  0.19999980763E+01 0.  0.
        -13    1    3    3    0    0 -0.23118428422E+02 -0.30785599877E+02  0.62720613035E+01  0.39007240476E+02  0.10566000000E+00 0.  1.
         13    1    4    4    0    0  0.77719437621E+01  0.10180562453E+02 -0.90598321927E+01  0.15688807638E+02  0.10566000000E+00 0. -1.
        -13    1    4    4    0    0  0.64828729508E+01  0.89587994532E+01 -0.86917695615E+01  0.14065765229E+02  0.10566000000E+00 0.  1.
        -14    1    4    4    0    0  0.88636117091E+01  0.11646237972E+02 -0.92805343681E+01  0.17329939111E+02  0.00000000000E+00 0.  1.
<mgrwt>
<rscale>  0 0.83551237E+02</rscale>
<asrwt>0</asrwt>
<pdfrwt beam="1">  1        2 0.82193713E-02 0.83551237E+02</pdfrwt>
<pdfrwt beam="2">  1       -1 0.50255137E-02 0.83551237E+02</pdfrwt>
<totfact> 0.13460669E+05</totfact>
</mgrwt>
</event>
<event>
 8    1  0.1226832E-020  0.7916644E+02  0.7818608E-02  0.1331434E+00
          2   -1    0    0  501    0  0.00000000000E+00  0.00000000000E+00  0.98664364294E+02  0.98664364327E+02  0.25500000000E-02 0. -1.
         -1   -1    0    0    0  501 -0.00000000000E+00 -0.00000000000E+00 -0.15880416241E+02  0.15880417040E+02  0.50400000000E-02 0.  1.
         24    2    1    2    0    0  0.00000000000E+00 -0.35527136788E-14  0.82783948053E+02  0.11454478137E+03  0.79166437858E+02 0.  0.
         66    2    3    3    0    0 -0.26625107024E+02  0.22015532684E+02  0.69296551703E+02  0.77457033690E+02  0.19999966890E+01 0.  0.
        -13    1    3    3    0    0  0.26625107024E+02 -0.22015532684E+02  0.13487396351E+02  0.37087747677E+02  0.10566000000E+00 0.  1.
         13    1    4    4    0    0 -0.13500894657E+02  0.10393508744E+02  0.35471840606E+02  0.39351770234E+02  0.10566000000E+00 0. -1.
        -13    1    4    4    0    0 -0.10067393114E+02  0.87887457016E+01  0.25102044361E+02  0.28437971978E+02  0.10566000000E+00 0.  1.
        -14    1    4    4    0    0 -0.30568192537E+01  0.28332782384E+01  0.87226667363E+01  0.96672914779E+01  0.00000000000E+00 0.  1.
<mgrwt>
<rscale>  0 0.79166438E+02</rscale>
<asrwt>0</asrwt>
<pdfrwt beam="1">  1        2 0.15179133E-01 0.79166438E+02</pdfrwt>
<pdfrwt beam="2">  1       -1 0.24431410E-02 0.79166438E+02</pdfrwt>
<totfact> 0.18161814E+05</totfact>
</mgrwt>
</event>
<event>
 8    1  0.1226832E-020  0.7889631E+02  0.7818608E-02  0.1332213E+00
         -1   -1    0    0    0  501 -0.00000000000E+00  0.00000000000E+00  0.48098571781E+01  0.48098598186E+01  0.50400000000E-02 0.  1.
          2   -1    0    0  501    0  0.00000000000E+00 -0.00000000000E+00 -0.32353487298E+03  0.32353487299E+03  0.25500000000E-02 0. -1.
         24    2    1    2    0    0  0.35527136788E-14  0.17763568394E-14 -0.31872501581E+03  0.32834473281E+03  0.78896310848E+02 0.  0.
         66    2    3    3    0    0 -0.29419625043E+02 -0.91828679039E+01 -0.26177135678E+03  0.26358695458E+03  0.19999989619E+01 0.  0.
        -13    1    3    3    0    0  0.29419625043E+02  0.91828679039E+01 -0.56953659027E+02  0.64757778230E+02  0.10566000000E+00 0.  1.
         13    1    4    4    0    0 -0.73541044137E+01 -0.18326348288E+01 -0.68645675049E+02  0.69062879096E+02  0.10566000000E+00 0. -1.
        -13    1    4    4    0    0 -0.13732996764E+02 -0.47770269319E+01 -0.12471924244E+03  0.12556399079E+03  0.10566000000E+00 0.  1.
        -14    1    4    4    0    0 -0.83325238662E+01 -0.25732061432E+01 -0.68406439296E+02  0.68960084694E+02  0.00000000000E+00 0.  1.
<mgrwt>
<rscale>  0 0.78896311E+02</rscale>
<asrwt>0</asrwt>
<pdfrwt beam="1">  1        2 0.49774579E-01 0.78896311E+02</pdfrwt>
<pdfrwt beam="2">  1       -1 0.73997849E-03 0.78896311E+02</pdfrwt>
<totfact> 0.27169978E+05</totfact>
</mgrwt>
</event>
<event>
 8    1  0.1226832E-020  0.7834156E+02  0.7818608E-02  0.1333825E+00
          2   -1    0    0  501    0  0.00000000000E+00  0.00000000000E+00  0.11127326648E+03  0.11127326651E+03  0.25500000000E-02 0. -1.
         -1   -1    0    0    0  501 -0.00000000000E+00 -0.00000000000E+00 -0.13789025859E+02  0.13789026780E+02  0.50400000000E-02 0.  1.
         24    2    1    2    0    0  0.00000000000E+00  0.00000000000E+00  0.97484240617E+02  0.12506229329E+03  0.78341560063E+02 0.  0.
         66    2    3    3    0    0 -0.16207516887E+02 -0.35616567705E+02  0.50464426982E+02  0.63889607084E+02  0.20000009929E+01 0.  0.
        -13    1    3    3    0    0  0.16207516887E+02  0.35616567705E+02  0.47019813636E+02  0.61172686202E+02  0.10566000000E+00 0.  1.
         13    1    4    4    0    0 -0.56197324840E+01 -0.12307914417E+02  0.18214541816E+02  0.22690236845E+02  0.10566000000E+00 0. -1.
        -13    1    4    4    0    0 -0.68134463261E+01 -0.14041041612E+02  0.20524020721E+02  0.25784113151E+02  0.10566000000E+00 0.  1.
        -14    1    4    4    0    0 -0.37743380767E+01 -0.92676116764E+01  0.11725864445E+02  0.15415257088E+02  0.00000000000E+00 0.  1.
<mgrwt>
<rscale>  0 0.78341560E+02</rscale>
<asrwt>0</asrwt>
<pdfrwt beam="1">  1        2 0.17118964E-01 0.78341560E+02</pdfrwt>
<pdfrwt beam="2">  1       -1 0.21213887E-02 0.78341560E+02</pdfrwt>
<totfact> 0.19325435E+05</totfact>
</mgrwt>
</event>
<event>
 8    1  0.1226832E-020  0.7824168E+02  0.7818608E-02  0.1334117E+00
          2   -1    0    0  501    0  0.00000000000E+00  0.00000000000E+00  0.16224336605E+03  0.16224336607E+03  0.25500000000E-02 0. -1.
         -1   -1    0    0    0  501 -0.00000000000E+00 -0.00000000000E+00 -0.94329898064E+01  0.94329911528E+01  0.50400000000E-02 0.  1.
         24    2    1    2    0    0  0.00000000000E+00  0.00000000000E+00  0.15281037625E+03  0.17167635723E+03  0.78241680335E+02 0.  0.
         66    2    3    3    0    0  0.85584249455E+01  0.27047154289E+02  0.13547964761E+03  0.13843240271E+03  0.20000027052E+01 0.  0.
        -13    1    3    3    0    0 -0.85584249455E+01 -0.27047154289E+02  0.17330728635E+02  0.33243954515E+02  0.10566000000E+00 0.  1.
         13    1    4    4    0    0  0.81101125786E+01  0.24335900197E+02  0.12175545499E+03  0.12442834061E+03  0.10566000000E+00 0.  1.
        -13    1    4    4    0    0  0.30179938171E+00  0.17857877361E+01  0.79526880525E+01  0.81569928284E+01  0.10566000000E+00 0. -1.
        -14    1    4    4    0    0  0.14651298515E+00  0.92546635604E+00  0.57715045715E+01  0.58470692701E+01  0.00000000000E+00 0.  1.
<mgrwt>
<rscale>  0 0.78241680E+02</rscale>
<asrwt>0</asrwt>
<pdfrwt beam="1">  1        2 0.24960518E-01 0.78241680E+02</pdfrwt>
<pdfrwt beam="2">  1       -1 0.14512293E-02 0.78241680E+02</pdfrwt>
<totfact> 0.21793399E+05</totfact>
</mgrwt>
</event>
<event>
 8    1  0.1226832E-020  0.8428248E+02  0.7818608E-02  0.1317320E+00
          2   -1    0    0  501    0  0.00000000000E+00  0.00000000000E+00  0.31221428099E+02  0.31221428203E+02  0.25500000000E-02 0. -1.
         -1   -1    0    0    0  501 -0.00000000000E+00 -0.00000000000E+00 -0.56880290274E+02  0.56880290497E+02  0.50400000000E-02 0.  1.
         24    2    1    2    0    0  0.71054273576E-14 -0.35527136788E-14 -0.25658862175E+02  0.88101718700E+02  0.84282475223E+02 0.  0.
         66    2    3    3    0    0  0.32642339237E+02 -0.21676757213E+02  0.33057729398E+01  0.39374258624E+02  0.19999983179E+01 0.  0.
        -13    1    3    3    0    0 -0.32642339237E+02  0.21676757213E+02 -0.28964635115E+02  0.48727460077E+02  0.10566000000E+00 0.  1.
         13    1    4    4    0    0  0.11850207851E+02 -0.80576019158E+01  0.19877137667E+01  0.14467706964E+02  0.10566000000E+00 0.  1.
        -13    1    4    4    0    0  0.28323057219E+01 -0.20023690475E+01  0.45312004782E+00  0.34997027471E+01  0.10566000000E+00 0. -1.
        -14    1    4    4    0    0  0.17959825664E+02 -0.11616786250E+02  0.86493912531E+00  0.21406848912E+02  0.00000000000E+00 0.  1.
<mgrwt>
<rscale>  0 0.84282475E+02</rscale>
<asrwt>0</asrwt>
<pdfrwt beam="1">  1        2 0.48032967E-02 0.84282475E+02</pdfrwt>
<pdfrwt beam="2">  1       -1 0.87508139E-02 0.84282475E+02</pdfrwt>
<totfact> 0.11713554E+05</totfact>
</mgrwt>
</event>
<event>
 8    1  0.1226832E-020  0.8154941E+02  0.7818608E-02  0.1324711E+00
          2   -1    0    0  501    0  0.00000000000E+00  0.00000000000E+00  0.19674555233E+03  0.19674555235E+03  0.25500000000E-02 0. -1.
         -1   -1    0    0    0  501 -0.00000000000E+00 -0.00000000000E+00 -0.84503881718E+01  0.84503896747E+01  0.50400000000E-02 0.  1.
         24    2    1    2    0    0  0.00000000000E+00  0.88817841970E-15  0.18829516416E+03  0.20519594202E+03  0.81549406967E+02 0.  0.
         66    2    3    3    0    0 -0.15113630572E+02  0.46920221315E+01  0.18869239582E+03  0.18936540641E+03  0.20000006733E+01 0.  0.
        -13    1    3    3    0    0  0.15113630572E+02 -0.46920221315E+01 -0.39723166335E+00  0.15830535613E+02  0.10566000000E+00 0.  1.
         13    1    4    4    0    0 -0.12164286453E+02  0.30620529104E+01  0.15252777825E+03  0.15304274022E+03  0.10566000000E+00 0. -1.
        -13    1    4    4    0    0 -0.19732970408E+01  0.12431031056E+01  0.24751748905E+02  0.24861605830E+02  0.10566000000E+00 0.  1.
        -14    1    4    4    0    0 -0.97604707869E+00  0.38686611550E+00  0.11412868669E+02  0.11461060359E+02  0.00000000000E+00 0.  1.
<mgrwt>
<rscale>  0 0.81549407E+02</rscale>
<asrwt>0</asrwt>
<pdfrwt beam="1">  1        2 0.30268543E-01 0.81549407E+02</pdfrwt>
<pdfrwt beam="2">  1       -1 0.13000600E-02 0.81549407E+02</pdfrwt>
<totfact> 0.20849525E+05</totfact>
</mgrwt>
</event>
<event>
 8    1  0.1226832E-020  0.7928736E+02  0.7818608E-02  0.1331086E+00
         -1   -1    0    0    0  501 -0.00000000000E+00  0.00000000000E+00  0.13336838748E+03  0.13336838758E+03  0.50400000000E-02 0.  1.
          2   -1    0    0  501    0  0.00000000000E+00 -0.00000000000E+00 -0.11784060534E+02  0.11784060810E+02  0.25500000000E-02 0. -1.
         24    2    1    2    0    0  0.00000000000E+00  0.00000000000E+00  0.12158432695E+03  0.14515244839E+03  0.79287355319E+02 0.  0.
         66    2    3    3    0    0 -0.17613696602E+02  0.29327293633E+02  0.24249257989E+02  0.41980459587E+02  0.20000035741E+01 0.  0.
        -13    1    3    3    0    0  0.17613696602E+02 -0.29327293633E+02  0.97335068960E+02  0.10317198880E+03  0.10566000000E+00 0.  1.
         13    1    4    4    0    0 -0.28677184232E+01  0.40083176902E+01  0.32247083070E+01  0.58906983764E+01  0.10566000000E+00 0. -1.
        -13    1    4    4    0    0 -0.10763192557E+01  0.13561498202E+01  0.14846475336E+01  0.22831880803E+01  0.10566000000E+00 0.  1.
        -14    1    4    4    0    0 -0.13669658923E+02  0.23962826122E+02  0.19539902149E+02  0.33806573130E+02  0.00000000000E+00 0.  1.
<mgrwt>
<rscale>  0 0.79287355E+02</rscale>
<asrwt>0</asrwt>
<pdfrwt beam="1">  1        2 0.18129324E-02 0.79287355E+02</pdfrwt>
<pdfrwt beam="2">  1       -1 0.20518214E-01 0.79287355E+02</pdfrwt>
<totfact> 0.11358725E+05</totfact>
</mgrwt>
</event>
<event>
 8    1  0.1226832E-020  0.7974293E+02  0.7818608E-02  0.1329783E+00
          2   -1    0    0  501    0  0.00000000000E+00  0.00000000000E+00  0.47595707421E+03  0.47595707422E+03  0.25500000000E-02 0. -1.
         -1   -1    0    0    0  501 -0.00000000000E+00 -0.00000000000E+00 -0.33400757866E+01  0.33400795891E+01  0.50400000000E-02 0.  1.
         24    2    1    2    0    0  0.00000000000E+00  0.00000000000E+00  0.47261699843E+03  0.47929715381E+03  0.79742927259E+02 0.  0.
         66    2    3    3    0    0  0.14337468667E+02 -0.95053588900E+01  0.45248601976E+03  0.45281730635E+03  0.19999986792E+01 0.  0.
        -13    1    3    3    0    0 -0.14337468667E+02  0.95053588900E+01  0.20130978664E+02  0.26479847459E+02  0.10566000000E+00 0.  1.
         13    1    4    4    0    0  0.84998080796E+01 -0.63455521261E+01  0.27278005735E+03  0.27298623339E+03  0.10566000000E+00 0. -1.
        -13    1    4    4    0    0  0.32026070872E+01 -0.15938925164E+01  0.84434765517E+02  0.84510579086E+02  0.10566000000E+00 0.  1.
        -14    1    4    4    0    0  0.26350535006E+01 -0.15659142475E+01  0.95271196894E+02  0.95320493872E+02  0.00000000000E+00 0.  1.
<mgrwt>
<rscale>  0 0.79742927E+02</rscale>
<asrwt>0</asrwt>
<pdfrwt beam="1">  1        2 0.73224190E-01 0.79742927E+02</pdfrwt>
<pdfrwt beam="2">  1       -1 0.51385794E-03 0.79742927E+02</pdfrwt>
<totfact> 0.30223046E+05</totfact>
</mgrwt>
</event>
<event>
 8    1  0.1226832E-020  0.7913340E+02  0.7818608E-02  0.1331529E+00
          2   -1    0    0  501    0  0.00000000000E+00  0.00000000000E+00  0.34889506659E+03  0.34889506660E+03  0.25500000000E-02 0. -1.
         -1   -1    0    0    0  501 -0.00000000000E+00 -0.00000000000E+00 -0.44870889880E+01  0.44870918185E+01  0.50400000000E-02 0.  1.
         24    2    1    2    0    0  0.00000000000E+00  0.00000000000E+00  0.34440797760E+03  0.35338215842E+03  0.79133399094E+02 0.  0.
         66    2    3    3    0    0  0.38062994903E+02 -0.21686046552E+01  0.21915500583E+03  0.22245541352E+03  0.19999995218E+01 0.  0.
        -13    1    3    3    0    0 -0.38062994903E+02  0.21686046552E+01  0.12525297178E+03  0.13092674490E+03  0.10566000000E+00 0.  1.
         13    1    4    4    0    0  0.17431857837E+02 -0.46143985238E+00  0.95992666856E+02  0.97563752740E+02  0.10566000000E+00 0. -1.
        -13    1    4    4    0    0  0.77536517361E+01 -0.66540856635E+00  0.48103318987E+02  0.48728865628E+02  0.10566000000E+00 0.  1.
         14    1    4    4    0    0  0.12877485329E+02 -0.10417562365E+01  0.75059019982E+02  0.76162795151E+02  0.00000000000E+00 0. -1.
<mgrwt>
<rscale>  0 0.79133399E+02</rscale>
<asrwt>0</asrwt>
<pdfrwt beam="1">  1        2 0.53676173E-01 0.79133399E+02</pdfrwt>
<pdfrwt beam="2">  1       -1 0.69032149E-03 0.79133399E+02</pdfrwt>
<totfact> 0.27696954E+05</totfact>
</mgrwt>
</event>
<event>
 8    1  0.1226832E-020  0.8043459E+02  0.7818608E-02  0.1327823E+00
          2   -1    0    0  501    0  0.00000000000E+00  0.00000000000E+00  0.29552075622E+02  0.29552075732E+02  0.25500000000E-02 0. -1.
         -1   -1    0    0    0  501 -0.00000000000E+00 -0.00000000000E+00 -0.54731543139E+02  0.54731543371E+02  0.50400000000E-02 0.  1.
         24    2    1    2    0    0  0.00000000000E+00 -0.88817841970E-15 -0.25179467517E+02  0.84283619103E+02  0.80434587490E+02 0.  0.
         66    2    3    3    0    0  0.34130778872E+02 -0.68783144832E+01  0.84433410977E+01  0.35881907359E+02  0.19999975775E+01 0.  0.
        -13    1    3    3    0    0 -0.34130778872E+02  0.68783144832E+01 -0.33622808615E+02  0.48401711744E+02  0.10566000000E+00 0.  1.
         13    1    4    4    0    0  0.92044274839E+01 -0.17358030258E+01  0.24842506571E+01  0.96910867716E+01  0.10566000000E+00 0. -1.
        -13    1    4    4    0    0  0.80741746503E+00  0.31668832988E-01  0.59172339542E-02  0.81493860325E+00  0.10566000000E+00 0. -1.
        -14    1    4    4    0    0  0.24118933923E+02 -0.51741802904E+01  0.59531732066E+01  0.25375881985E+02  0.00000000000E+00 0.  1.
<mgrwt>
<rscale>  0 0.80434587E+02</rscale>
<asrwt>0</asrwt>
<pdfrwt beam="1">  1        2 0.45464732E-02 0.80434587E+02</pdfrwt>
<pdfrwt beam="2">  1       -1 0.84202375E-02 0.80434587E+02</pdfrwt>
<totfact> 0.13212923E+05</totfact>
</mgrwt>
</event>
<event>
 8    1  0.1226832E-020  0.8008149E+02  0.7818608E-02  0.1328820E+00
         -1   -1    0    0    0  501 -0.00000000000E+00  0.00000000000E+00  0.38532110083E+01  0.38532143044E+01  0.50400000000E-02 0.  1.
          2   -1    0    0  501    0  0.00000000000E+00 -0.00000000000E+00 -0.41608431497E+03  0.41608431497E+03  0.25500000000E-02 0. -1.
         24    2    1    2    0    0  0.00000000000E+00  0.00000000000E+00 -0.41223110396E+03  0.41993752928E+03  0.80081492407E+02 0.  0.
         66    2    3    3    0    0 -0.61065923949E+01 -0.24983906174E+02 -0.36699835059E+03  0.36790389420E+03  0.19999980057E+01 0.  0.
        -13    1    3    3    0    0  0.61065923949E+01  0.24983906174E+02 -0.45232753367E+02  0.52033635080E+02  0.10566000000E+00 0.  1.
         13    1    4    4    0    0 -0.46635455933E+01 -0.18615356497E+02 -0.26523851091E+03  0.26593186908E+03  0.10566000000E+00 0. -1.
        -13    1    4    4    0    0 -0.13983227068E+01 -0.54451913189E+01 -0.90349121094E+02  0.90523920934E+02  0.10566000000E+00 0.  1.
         14    1    4    4    0    0 -0.44724094734E-01 -0.92335835767E+00 -0.11410718584E+02  0.11448104188E+02  0.00000000000E+00 0. -1.
<mgrwt>
<rscale>  0 0.80081492E+02</rscale>
<asrwt>0</asrwt>
<pdfrwt beam="1">  1        2 0.64012936E-01 0.80081492E+02</pdfrwt>
<pdfrwt beam="2">  1       -1 0.59280228E-03 0.80081492E+02</pdfrwt>
<totfact> 0.28567342E+05</totfact>
</mgrwt>
</event>
<event>
 8    1  0.1226832E-020  0.8012200E+02  0.7818608E-02  0.1328706E+00
         -1   -1    0    0    0  501 -0.00000000000E+00  0.00000000000E+00  0.29830454101E+03  0.29830454105E+03  0.50400000000E-02 0.  1.
          2   -1    0    0  501    0  0.00000000000E+00 -0.00000000000E+00 -0.53800176561E+01  0.53800182604E+01  0.25500000000E-02 0. -1.
         24    2    1    2    0    0  0.00000000000E+00  0.00000000000E+00  0.29292452335E+03  0.30368455931E+03  0.80122001866E+02 0.  0.
         66    2    3    3    0    0 -0.34487564246E+02  0.10063971134E+02  0.79581831525E+02  0.87338098923E+02  0.20000029753E+01 0.  0.
        -13    1    3    3    0    0  0.34487564246E+02 -0.10063971134E+02  0.21334269183E+03  0.21634646039E+03  0.10566000000E+00 0.  1.
         13    1    4    4    0    0 -0.16696825763E+02  0.51894937138E+01  0.39238613821E+02  0.42958058780E+02  0.10566000000E+00 0. -1.
        -13    1    4    4    0    0 -0.11396967390E+02  0.27793115688E+01  0.26910638074E+02  0.29356584339E+02  0.10566000000E+00 0.  1.
         14    1    4    4    0    0 -0.63937710939E+01  0.20951658510E+01  0.13432579631E+02  0.15023455803E+02  0.00000000000E+00 0. -1.
<mgrwt>
<rscale>  0 0.80122002E+02</rscale>
<asrwt>0</asrwt>
<pdfrwt beam="1">  1        2 0.82769538E-03 0.80122002E+02</pdfrwt>
<pdfrwt beam="2">  1       -1 0.45892990E-01 0.80122002E+02</pdfrwt>
<totfact> 0.86293125E+04</totfact>
</mgrwt>
</event>
<event>
 8    1  0.1226832E-020  0.8074853E+02  0.7818608E-02  0.1326941E+00
          2   -1    0    0  501    0  0.00000000000E+00  0.00000000000E+00  0.22991294969E+03  0.22991294970E+03  0.25500000000E-02 0. -1.
         -1   -1    0    0    0  501 -0.00000000000E+00 -0.00000000000E+00 -0.70899929240E+01  0.70899947154E+01  0.50400000000E-02 0.  1.
         24    2    1    2    0    0  0.00000000000E+00  0.00000000000E+00  0.22282295676E+03  0.23700294441E+03  0.80748533123E+02 0.  0.
         66    2    3    3    0    0  0.25268501542E+02  0.14509760547E+02  0.19340166019E+03  0.19559456148E+03  0.19999986915E+01 0.  0.
        -13    1    3    3    0    0 -0.25268501542E+02 -0.14509760547E+02  0.29421296570E+02  0.41408382934E+02  0.10566000000E+00 0.  1.
         13    1    4    4    0    0  0.11925599964E+02  0.59317544699E+01  0.85388330596E+02  0.86420968588E+02  0.10566000000E+00 0. -1.
        -13    1    4    4    0    0  0.12052757375E+02  0.75320102033E+01  0.96933182502E+02  0.97969654343E+02  0.10566000000E+00 0.  1.
        -14    1    4    4    0    0  0.12901442035E+01  0.10459958741E+01  0.11080147093E+02  0.11203938551E+02  0.00000000000E+00 0.  1.
<mgrwt>
<rscale>  0 0.80748533E+02</rscale>
<asrwt>0</asrwt>
<pdfrwt beam="1">  1        2 0.35371220E-01 0.80748533E+02</pdfrwt>
<pdfrwt beam="2">  1       -1 0.10907684E-02 0.80748533E+02</pdfrwt>
<totfact> 0.22604503E+05</totfact>
</mgrwt>
</event>
<event>
 8    1  0.1226832E-020  0.7986552E+02  0.7818608E-02  0.1329433E+00
         -1   -1    0    0    0  501 -0.00000000000E+00  0.00000000000E+00  0.13379729235E+01  0.13379824161E+01  0.50400000000E-02 0.  1.
          2   -1    0    0  501    0  0.00000000000E+00 -0.00000000000E+00 -0.11918176409E+04  0.11918176409E+04  0.25500000000E-02 0. -1.
         24    2    1    2    0    0  0.00000000000E+00  0.00000000000E+00 -0.11904796680E+04  0.11931556233E+04  0.79865521923E+02 0.  0.
         66    2    3    3    0    0  0.26236268602E+02 -0.68023727969E+01 -0.10332178165E+04  0.10335751885E+04  0.19999993487E+01 0.  0.
        -13    1    3    3    0    0 -0.26236268602E+02  0.68023727969E+01 -0.15726185152E+03  0.15958043481E+03  0.10566000000E+00 0.  1.
         13    1    4    4    0    0  0.11429533393E+02 -0.37176003531E+01 -0.43946417277E+03  0.43962850806E+03  0.10566000000E+00 0. -1.
        -13    1    4    4    0    0  0.11580322994E+02 -0.21162625622E+01 -0.46352423416E+03  0.46367370992E+03  0.10566000000E+00 0.  1.
        -14    1    4    4    0    0  0.32264122153E+01 -0.96850988153E+00 -0.13022940955E+03  0.13027297056E+03  0.00000000000E+00 0.  1.
<mgrwt>
<rscale>  0 0.79865522E+02</rscale>
<asrwt>0</asrwt>
<pdfrwt beam="1">  1        2 0.18335571E+00 0.79865522E+02</pdfrwt>
<pdfrwt beam="2">  1       -1 0.20584367E-03 0.79865522E+02</pdfrwt>
<totfact> 0.35217212E+05</totfact>
</mgrwt>
</event>
<event>
 8    1  0.1226832E-020  0.7757106E+02  0.7818608E-02  0.1336089E+00
          2   -1    0    0  501    0  0.00000000000E+00  0.00000000000E+00  0.12502724605E+04  0.12502724605E+04  0.25500000000E-02 0. -1.
         -1   -1    0    0    0  501 -0.00000000000E+00 -0.00000000000E+00 -0.12031864052E+01  0.12031969612E+01  0.50400000000E-02 0.  1.
         24    2    1    2    0    0  0.00000000000E+00  0.00000000000E+00  0.12490692741E+04  0.12514756575E+04  0.77571062496E+02 0.  0.
         66    2    3    3    0    0 -0.13825654017E+02 -0.15146826485E+02  0.11555686206E+04  0.11557523142E+04  0.19999996750E+01 0.  0.
        -13    1    3    3    0    0  0.13825654017E+02  0.15146826485E+02  0.93500653556E+02  0.95723343240E+02  0.10566000000E+00 0.  1.
         13    1    4    4    0    0 -0.12538448774E+00 -0.53526570582E+00  0.35987405583E+02  0.35991759547E+02  0.10566000000E+00 0.  1.
        -13    1    4    4    0    0 -0.10533656719E+01 -0.98858935088E+00  0.86222563265E+02  0.86234728898E+02  0.10566000000E+00 0. -1.
        -14    1    4    4    0    0 -0.12646903857E+02 -0.13622971428E+02  0.10333586517E+04  0.10335258258E+04  0.00000000000E+00 0.  1.
<mgrwt>
<rscale>  0 0.77571062E+02</rscale>
<asrwt>0</asrwt>
<pdfrwt beam="1">  1        2 0.19234915E+00 0.77571062E+02</pdfrwt>
<pdfrwt beam="2">  1       -1 0.18510686E-03 0.77571062E+02</pdfrwt>
<totfact> 0.37750541E+05</totfact>
</mgrwt>
</event>
<event>
 8    1  0.1615246E-020  0.7876620E+02  0.7818608E-02  0.1332590E+00
         -1   -1    0    0    0  501 -0.00000000000E+00  0.00000000000E+00  0.53890759653E+02  0.53890759888E+02  0.50400000000E-02 0.  1.
          2   -1    0    0  501    0  0.00000000000E+00 -0.00000000000E+00 -0.28780972360E+02  0.28780972473E+02  0.25500000000E-02 0. -1.
         24    2    1    2    0    0  0.00000000000E+00  0.00000000000E+00  0.25109787293E+02  0.82671732361E+02  0.78766197786E+02 0.  0.
         66    2    3    3    0    0 -0.23825978789E+02  0.11189450138E+02 -0.18147766902E+02  0.32034708173E+02  0.20000061360E+01 0.  0.
        -13    1    3    3    0    0  0.23825978789E+02 -0.11189450138E+02  0.43257554195E+02  0.50637024188E+02  0.10566000000E+00 0.  1.
         13    1    4    4    0    0 -0.14588199975E+02  0.71700227441E+01 -0.10824480642E+02  0.19529601887E+02  0.10566000000E+00 0. -1.
        -13    1    4    4    0    0 -0.62388148493E+01  0.32208597284E+01 -0.48069976241E+01  0.85097084738E+01  0.10566000000E+00 0.  1.
        -14    1    4    4    0    0 -0.29989639646E+01  0.79856766585E+00 -0.25162886359E+01  0.39953978121E+01  0.00000000000E+00 0.  1.
<mgrwt>
<rscale>  0 0.78766198E+02</rscale>
<asrwt>0</asrwt>
<pdfrwt beam="1">  1        2 0.44278420E-02 0.78766198E+02</pdfrwt>
<pdfrwt beam="2">  1       -1 0.82908861E-02 0.78766198E+02</pdfrwt>
<totfact> 0.13940372E+05</totfact>
</mgrwt>
</event>
<event>
 8    1  0.1226832E-020  0.7968021E+02  0.7818608E-02  0.1329961E+00
         -1   -1    0    0    0  501 -0.00000000000E+00  0.00000000000E+00  0.42860583713E+02  0.42860584009E+02  0.50400000000E-02 0.  1.
          2   -1    0    0  501    0  0.00000000000E+00 -0.00000000000E+00 -0.37032483909E+02  0.37032483996E+02  0.25500000000E-02 0. -1.
         24    2    1    2    0    0 -0.17763568394E-14  0.00000000000E+00  0.58280998039E+01  0.79893068005E+02  0.79680208132E+02 0.  0.
         66    2    3    3    0    0  0.15515795032E+02  0.28476394486E+02 -0.20245264524E+02  0.38282054681E+02  0.20000091404E+01 0.  0.
        -13    1    3    3    0    0 -0.15515795032E+02 -0.28476394486E+02  0.26073364328E+02  0.41611013324E+02  0.10566000000E+00 0.  1.
         13    1    4    4    0    0  0.73372541660E+01  0.13866917601E+02 -0.10301704967E+02  0.18768670483E+02  0.10566000000E+00 0. -1.
        -13    1    4    4    0    0  0.34838030477E+01  0.71928536697E+01 -0.42717988109E+01  0.90627510561E+01  0.10566000000E+00 0.  1.
         14    1    4    4    0    0  0.46947378181E+01  0.74166232157E+01 -0.56717607468E+01  0.10450633142E+02  0.00000000000E+00 0. -1.
<mgrwt>
<rscale>  0 0.79680208E+02</rscale>
<asrwt>0</asrwt>
<pdfrwt beam="1">  1        2 0.56973053E-02 0.79680208E+02</pdfrwt>
<pdfrwt beam="2">  1       -1 0.65939360E-02 0.79680208E+02</pdfrwt>
<totfact> 0.14189545E+05</totfact>
</mgrwt>
</event>
<event>
 8    1  0.1226832E-020  0.7984819E+02  0.7818608E-02  0.1329483E+00
          2   -1    0    0  501    0  0.00000000000E+00  0.00000000000E+00  0.20841178703E+03  0.20841178704E+03  0.25500000000E-02 0. -1.
         -1   -1    0    0    0  501 -0.00000000000E+00 -0.00000000000E+00 -0.76479994354E+01  0.76480010961E+01  0.50400000000E-02 0.  1.
         24    2    1    2    0    0  0.00000000000E+00  0.00000000000E+00  0.20076378759E+03  0.21605978814E+03  0.79848191228E+02 0.  0.
         66    2    3    3    0    0 -0.27083402137E+02  0.10274067381E+02  0.17468954918E+03  0.17708615340E+03  0.20000004083E+01 0.  0.
        -13    1    3    3    0    0  0.27083402137E+02 -0.10274067381E+02  0.26074238410E+02  0.38973634736E+02  0.10566000000E+00 0.  1.
         13    1    4    4    0    0 -0.13575918903E+02  0.56083519383E+01  0.86198836916E+02  0.87441465193E+02  0.10566000000E+00 0. -1.
        -13    1    4    4    0    0 -0.34543159607E+01  0.17212512526E+01  0.23329709797E+02  0.23647019429E+02  0.10566000000E+00 0.  1.
         14    1    4    4    0    0 -0.10053167273E+02  0.29444641903E+01  0.65161002469E+02  0.65997668779E+02  0.00000000000E+00 0. -1.
<mgrwt>
<rscale>  0 0.79848191E+02</rscale>
<asrwt>0</asrwt>
<pdfrwt beam="1">  1        2 0.32063353E-01 0.79848191E+02</pdfrwt>
<pdfrwt beam="2">  1       -1 0.11766154E-02 0.79848191E+02</pdfrwt>
<totfact> 0.22489979E+05</totfact>
</mgrwt>
</event>
<event>
 8    1  0.1226832E-020  0.7967346E+02  0.7818608E-02  0.1329981E+00
         -1   -1    0    0    0  501 -0.00000000000E+00  0.00000000000E+00  0.25105493492E+02  0.25105493998E+02  0.50400000000E-02 0.  1.
          2   -1    0    0  501    0  0.00000000000E+00 -0.00000000000E+00 -0.63211871002E+02  0.63211871053E+02  0.25500000000E-02 0. -1.
         24    2    1    2    0    0  0.00000000000E+00  0.35527136788E-14 -0.38106377510E+02  0.88317365051E+02  0.79673464608E+02 0.  0.
         66    2    3    3    0    0  0.74977917023E+01  0.30855849740E+02 -0.45684195503E+02  0.55671770660E+02  0.19999965167E+01 0.  0.
        -13    1    3    3    0    0 -0.74977917023E+01 -0.30855849740E+02  0.75778179929E+01  0.32645594391E+02  0.10566000000E+00 0.  1.
         13    1    4    4    0    0  0.36517434455E+01  0.12836401789E+02 -0.18849580737E+02  0.23096023447E+02  0.10566000000E+00 0. -1.
        -13    1    4    4    0    0  0.13740787175E+01  0.49437498034E+01 -0.66710513039E+01  0.84168191126E+01  0.10566000000E+00 0.  1.
        -14    1    4    4    0    0  0.24719695393E+01  0.13075698148E+02 -0.20163563462E+02  0.24158928100E+02  0.00000000000E+00 0.  1.
<mgrwt>
<rscale>  0 0.79673465E+02</rscale>
<asrwt>0</asrwt>
<pdfrwt beam="1">  1        2 0.97249032E-02 0.79673465E+02</pdfrwt>
<pdfrwt beam="2">  1       -1 0.38623837E-02 0.79673465E+02</pdfrwt>
<totfact> 0.15932502E+05</totfact>
</mgrwt>
</event>
<event>
 8    1  0.1226832E-020  0.7985585E+02  0.7818608E-02  0.1329461E+00
         -1   -1    0    0    0  501 -0.00000000000E+00  0.00000000000E+00  0.12314761913E+03  0.12314761924E+03  0.50400000000E-02 0.  1.
          2   -1    0    0  501    0  0.00000000000E+00 -0.00000000000E+00 -0.12945758054E+02  0.12945758306E+02  0.25500000000E-02 0. -1.
         24    2    1    2    0    0  0.00000000000E+00  0.35527136788E-14  0.11020186108E+03  0.13609337754E+03  0.79855852794E+02 0.  0.
         66    2    3    3    0    0  0.24025623036E+02  0.20614351841E+02  0.13737765765E+02  0.34567445323E+02  0.20000009614E+01 0.  0.
        -13    1    3    3    0    0 -0.24025623036E+02 -0.20614351841E+02  0.96464095313E+02  0.10152593222E+03  0.10566000000E+00 0.  1.
         13    1    4    4    0    0  0.16089953740E+01  0.12562980729E+01  0.74745214806E+00  0.21764649574E+01  0.10566000000E+00 0. -1.
        -13    1    4    4    0    0  0.39510740553E+01  0.25616490036E+01  0.20317268526E+01  0.51295331023E+01  0.10566000000E+00 0.  1.
        -14    1    4    4    0    0  0.18465553607E+02  0.16796404765E+02  0.10958586764E+02  0.27261447263E+02  0.00000000000E+00 0.  1.
<mgrwt>
<rscale>  0 0.79855853E+02</rscale>
<asrwt>0</asrwt>
<pdfrwt beam="1">  1        2 0.19916551E-02 0.79855853E+02</pdfrwt>
<pdfrwt beam="2">  1       -1 0.18945788E-01 0.79855853E+02</pdfrwt>
<totfact> 0.11368123E+05</totfact>
</mgrwt>
</event>
<event>
 8    1  0.1226832E-020  0.7999744E+02  0.7818608E-02  0.1329059E+00
         -1   -1    0    0    0  501 -0.00000000000E+00  0.00000000000E+00  0.17640043824E+01  0.17640115824E+01  0.50400000000E-02 0.  1.
          2   -1    0    0  501    0  0.00000000000E+00 -0.00000000000E+00 -0.90696730909E+03  0.90696730909E+03  0.25500000000E-02 0. -1.
         24    2    1    2    0    0  0.00000000000E+00  0.00000000000E+00 -0.90520330471E+03  0.90873132067E+03  0.79997439483E+02 0.  0.
         66    2    3    3    0    0  0.63487282517E+01 -0.25371074481E+02 -0.79628947692E+03  0.79672136211E+03  0.20000043056E+01 0.  0.
        -13    1    3    3    0    0 -0.63487282517E+01  0.25371074481E+02 -0.10891382779E+03  0.11200995857E+03  0.10566000000E+00 0.  1.
         13    1    4    4    0    0  0.12297739209E+01 -0.56340745094E+01 -0.19827230334E+03  0.19835617605E+03  0.10566000000E+00 0. -1.
        -13    1    4    4    0    0  0.23543647441E+00 -0.59812073683E+00 -0.17945750528E+02  0.17957569568E+02  0.10566000000E+00 0.  1.
         14    1    4    4    0    0  0.48835178563E+01 -0.19138879234E+02 -0.58007142305E+03  0.58040761649E+03  0.00000000000E+00 0. -1.
<mgrwt>
<rscale>  0 0.79997439E+02</rscale>
<asrwt>0</asrwt>
<pdfrwt beam="1">  1        2 0.13953306E+00 0.79997439E+02</pdfrwt>
<pdfrwt beam="2">  1       -1 0.27138657E-03 0.79997439E+02</pdfrwt>
<totfact> 0.34978507E+05</totfact>
</mgrwt>
</event>
<event>
 8    1  0.1226832E-020  0.8771487E+02  0.7818608E-02  0.1308482E+00
         -1   -1    0    0    0  501 -0.00000000000E+00  0.00000000000E+00  0.21636898161E+03  0.21636898167E+03  0.50400000000E-02 0.  1.
          2   -1    0    0  501    0  0.00000000000E+00 -0.00000000000E+00 -0.88897897949E+01  0.88897901606E+01  0.25500000000E-02 0. -1.
         24    2    1    2    0    0  0.00000000000E+00 -0.35527136788E-14  0.20747919182E+03  0.22525877183E+03  0.87714874736E+02 0.  0.
         66    2    3    3    0    0 -0.30275566959E+02 -0.20047972309E+02  0.40734680243E+02  0.54606275651E+02  0.20000043975E+01 0.  0.
        -13    1    3    3    0    0  0.30275566959E+02  0.20047972309E+02  0.16674451157E+03  0.17065249618E+03  0.10566000000E+00 0.  1.
         13    1    4    4    0    0 -0.22419125513E+02 -0.14646109795E+02  0.30459126201E+02  0.40557308267E+02  0.10566000000E+00 0. -1.
        -13    1    4    4    0    0 -0.25474137037E+01 -0.17796065686E+01  0.39994311259E+01  0.50658592048E+01  0.10566000000E+00 0. -1.
        -14    1    4    4    0    0 -0.53090277432E+01 -0.36222559452E+01  0.62761229160E+01  0.89831081796E+01  0.00000000000E+00 0.  1.
<mgrwt>
<rscale>  0 0.87714875E+02</rscale>
<asrwt>0</asrwt>
<pdfrwt beam="1">  1        2 0.13676599E-02 0.87714875E+02</pdfrwt>
<pdfrwt beam="2">  1       -1 0.33287538E-01 0.87714875E+02</pdfrwt>
<totfact> 0.76834514E+04</totfact>
</mgrwt>
</event>
<event>
 8    1  0.1226832E-020  0.7858694E+02  0.7818608E-02  0.1333110E+00
          2   -1    0    0  501    0  0.00000000000E+00  0.00000000000E+00  0.22864216643E+03  0.22864216644E+03  0.25500000000E-02 0. -1.
         -1   -1    0    0    0  501 -0.00000000000E+00 -0.00000000000E+00 -0.67528079247E+01  0.67528098055E+01  0.50400000000E-02 0.  1.
         24    2    1    2    0    0  0.00000000000E+00 -0.35527136788E-14  0.22188935850E+03  0.23539497625E+03  0.78586941827E+02 0.  0.
         66    2    3    3    0    0  0.22112897977E+02 -0.31991486363E+02  0.12729527188E+03  0.13311844989E+03  0.20000000529E+01 0.  0.
        -13    1    3    3    0    0 -0.22112897977E+02  0.31991486363E+02  0.94594086623E+02  0.10227652636E+03  0.10566000000E+00 0.  1.
         13    1    4    4    0    0  0.46377449489E+01 -0.66826492855E+01  0.24831693715E+02  0.26130263230E+02  0.10566000000E+00 0. -1.
        -13    1    4    4    0    0  0.14385031470E+02 -0.20214688986E+02  0.81242393035E+02  0.84946455907E+02  0.10566000000E+00 0.  1.
        -14    1    4    4    0    0  0.30901215578E+01 -0.50941480917E+01  0.21221185131E+02  0.22041730749E+02  0.00000000000E+00 0.  1.
<mgrwt>
<rscale>  0 0.78586942E+02</rscale>
<asrwt>0</asrwt>
<pdfrwt beam="1">  1        2 0.35175719E-01 0.78586942E+02</pdfrwt>
<pdfrwt beam="2">  1       -1 0.10388937E-02 0.78586942E+02</pdfrwt>
<totfact> 0.24229865E+05</totfact>
</mgrwt>
</event>
<event>
 8    1  0.1226832E-020  0.8126224E+02  0.7818608E-02  0.1325507E+00
         -1   -1    0    0    0  501 -0.00000000000E+00  0.00000000000E+00  0.23151850141E+01  0.23151904999E+01  0.50400000000E-02 0.  1.
          2   -1    0    0  501    0  0.00000000000E+00 -0.00000000000E+00 -0.71306864005E+03  0.71306864005E+03  0.25500000000E-02 0. -1.
         24    2    1    2    0    0  0.35527136788E-14  0.35527136788E-14 -0.71075345503E+03  0.71538383055E+03  0.81262237068E+02 0.  0.
         66    2    3    3    0    0 -0.26888510719E+02 -0.17821189030E+02 -0.57271539287E+03  0.57362662772E+03  0.20000007336E+01 0.  0.
        -13    1    3    3    0    0  0.26888510719E+02  0.17821189030E+02 -0.13803806216E+03  0.14175720284E+03  0.10566000000E+00 0.  1.
         13    1    4    4    0    0 -0.29239535624E+01 -0.17222277662E+01 -0.64676729100E+02  0.64765778186E+02  0.10566000000E+00 0. -1.
        -13    1    4    4    0    0 -0.15825028991E+02 -0.99335143217E+01 -0.31951003531E+03  0.32005590149E+03  0.10566000000E+00 0.  1.
         14    1    4    4    0    0 -0.81395281661E+01 -0.61654469416E+01 -0.18852862847E+03  0.18880494804E+03  0.00000000000E+00 0. -1.
<mgrwt>
<rscale>  0 0.81262237E+02</rscale>
<asrwt>0</asrwt>
<pdfrwt beam="1">  1        2 0.10970269E+00 0.81262237E+02</pdfrwt>
<pdfrwt beam="2">  1       -1 0.35618330E-03 0.81262237E+02</pdfrwt>
<totfact> 0.32250993E+05</totfact>
</mgrwt>
</event>
<event>
 8    1  0.1226832E-020  0.7945246E+02  0.7818608E-02  0.1330612E+00
         -1   -1    0    0    0  501 -0.00000000000E+00  0.00000000000E+00  0.47070919792E+02  0.47070920062E+02  0.50400000000E-02 0.  1.
          2   -1    0    0  501    0  0.00000000000E+00 -0.00000000000E+00 -0.33527566996E+02  0.33527567093E+02  0.25500000000E-02 0. -1.
         24    2    1    2    0    0 -0.35527136788E-14  0.44408920985E-15  0.13543352796E+02  0.80598487155E+02  0.79452462056E+02 0.  0.
         66    2    3    3    0    0  0.31552600519E+02 -0.34533866529E+01 -0.17414942221E+02  0.36259794422E+02  0.20000000315E+01 0.  0.
        -13    1    3    3    0    0 -0.31552600519E+02  0.34533866529E+01  0.30958295017E+02  0.44338692733E+02  0.10566000000E+00 0.  1.
         13    1    4    4    0    0  0.50963464551E+01 -0.76730419679E+00 -0.29969269577E+01  0.59627374709E+01  0.10566000000E+00 0. -1.
        -13    1    4    4    0    0  0.22343788397E+02 -0.18070015205E+01 -0.12601558253E+02  0.25716153851E+02  0.10566000000E+00 0.  1.
        -14    1    4    4    0    0  0.41124656662E+01 -0.87908093562E+00 -0.18164570098E+01  0.45809031005E+01  0.00000000000E+00 0.  1.
<mgrwt>
<rscale>  0 0.79452462E+02</rscale>
<asrwt>0</asrwt>
<pdfrwt beam="1">  1        2 0.51580873E-02 0.79452462E+02</pdfrwt>
<pdfrwt beam="2">  1       -1 0.72416799E-02 0.79452462E+02</pdfrwt>
<totfact> 0.14020888E+05</totfact>
</mgrwt>
</event>
<event>
 8    1  0.1226832E-020  0.7938906E+02  0.7818608E-02  0.1330794E+00
         -1   -1    0    0    0  501 -0.00000000000E+00  0.00000000000E+00  0.22226094395E+02  0.22226094967E+02  0.50400000000E-02 0.  1.
          2   -1    0    0  501    0  0.00000000000E+00 -0.00000000000E+00 -0.70892156793E+02  0.70892156839E+02  0.25500000000E-02 0. -1.
         24    2    1    2    0    0  0.00000000000E+00 -0.71054273576E-14 -0.48666062398E+02  0.93118251805E+02  0.79389062156E+02 0.  0.
         66    2    3    3    0    0 -0.97727940800E+01 -0.35001953316E+02 -0.43005356354E+02  0.56339195306E+02  0.20000031222E+01 0.  0.
        -13    1    3    3    0    0  0.97727940800E+01  0.35001953316E+02 -0.56607060439E+01  0.36779056500E+02  0.10566000000E+00 0.  1.
         13    1    4    4    0    0 -0.25473850945E+01 -0.77531673949E+01 -0.85950195226E+01  0.11852691682E+02  0.10566000000E+00 0. -1.
        -13    1    4    4    0    0 -0.61808069255E+00 -0.19766766976E+01 -0.25483612411E+01  0.32855111566E+01  0.10566000000E+00 0. -1.
         14    1    4    4    0    0 -0.66073282929E+01 -0.25272109223E+02 -0.31861975590E+02  0.41200992467E+02  0.00000000000E+00 0. -1.
<mgrwt>
<rscale>  0 0.79389062E+02</rscale>
<asrwt>0</asrwt>
<pdfrwt beam="1">  1        2 0.10906486E-01 0.79389062E+02</pdfrwt>
<pdfrwt beam="2">  1       -1 0.34193992E-02 0.79389062E+02</pdfrwt>
<totfact> 0.16535941E+05</totfact>
</mgrwt>
</event>
<event>
 8    1  0.1226832E-020  0.7889077E+02  0.7818608E-02  0.1332229E+00
          2   -1    0    0  501    0  0.00000000000E+00  0.00000000000E+00  0.82108010601E+03  0.82108010601E+03  0.25500000000E-02 0. -1.
         -1   -1    0    0    0  501 -0.00000000000E+00 -0.00000000000E+00 -0.18949861783E+01  0.18949928806E+01  0.50400000000E-02 0.  1.
         24    2    1    2    0    0  0.35527136788E-14 -0.35527136788E-14  0.81918511983E+03  0.82297509890E+03  0.78890765282E+02 0.  0.
         66    2    3    3    0    0  0.22713019341E+02 -0.23091796093E+02  0.64423974968E+03  0.64505656136E+03  0.20000001788E+01 0.  0.
        -13    1    3    3    0    0 -0.22713019341E+02  0.23091796093E+02  0.17494537015E+03  0.17791853753E+03  0.10566000000E+00 0.  1.
         13    1    4    4    0    0  0.10172700203E+02 -0.10191340448E+02  0.28038494239E+03  0.28075447340E+03  0.10566000000E+00 0. -1.
        -13    1    4    4    0    0  0.10905179356E+02 -0.11711799400E+02  0.32841461011E+03  0.32880428294E+03  0.10566000000E+00 0.  1.
        -14    1    4    4    0    0  0.16351397817E+01 -0.11886562445E+01  0.35440197174E+02  0.35497805023E+02  0.00000000000E+00 0.  1.
<mgrwt>
<rscale>  0 0.78890765E+02</rscale>
<asrwt>0</asrwt>
<pdfrwt beam="1">  1        2 0.12631985E+00 0.78890765E+02</pdfrwt>
<pdfrwt beam="2">  1       -1 0.29153723E-03 0.78890765E+02</pdfrwt>
<totfact> 0.35788221E+05</totfact>
</mgrwt>
</event>
<event>
 8    1  0.1226832E-020  0.7715314E+02  0.7818608E-02  0.1337330E+00
          2   -1    0    0  501    0  0.00000000000E+00  0.00000000000E+00  0.26255057941E+02  0.26255058064E+02  0.25500000000E-02 0. -1.
         -1   -1    0    0    0  501 -0.00000000000E+00 -0.00000000000E+00 -0.56680579100E+02  0.56680579324E+02  0.50400000000E-02 0.  1.
         24    2    1    2    0    0  0.00000000000E+00  0.00000000000E+00 -0.30425521159E+02  0.82935637388E+02  0.77153143884E+02 0.  0.
         66    2    3    3    0    0  0.23739969648E+02  0.17516924249E+02  0.11450456046E+02  0.31710278190E+02  0.20000012982E+01 0.  0.
        -13    1    3    3    0    0 -0.23739969648E+02 -0.17516924249E+02 -0.41875977205E+02  0.51225359198E+02  0.10566000000E+00 0.  1.
         13    1    4    4    0    0  0.17179453834E+02  0.12597051303E+02  0.73785278063E+01  0.22544914553E+02  0.10566000000E+00 0. -1.
        -13    1    4    4    0    0  0.33913139888E+01  0.22997403578E+01  0.19990637504E+01  0.45603986884E+01  0.10566000000E+00 0.  1.
         14    1    4    4    0    0  0.31692018251E+01  0.26201325884E+01  0.20728644897E+01  0.46049649490E+01  0.00000000000E+00 0. -1.
<mgrwt>
<rscale>  0 0.77153144E+02</rscale>
<asrwt>0</asrwt>
<pdfrwt beam="1">  1        2 0.40392397E-02 0.77153144E+02</pdfrwt>
<pdfrwt beam="2">  1       -1 0.87200892E-02 0.77153144E+02</pdfrwt>
<totfact> 0.14513453E+05</totfact>
</mgrwt>
</event>
<event>
 8    1  0.1226832E-020  0.8172048E+02  0.7818608E-02  0.1324239E+00
          2   -1    0    0  501    0  0.00000000000E+00  0.00000000000E+00  0.21816267068E+03  0.21816267070E+03  0.25500000000E-02 0. -1.
         -1   -1    0    0    0  501 -0.00000000000E+00 -0.00000000000E+00 -0.76528161980E+01  0.76528178576E+01  0.50400000000E-02 0.  1.
         24    2    1    2    0    0  0.00000000000E+00 -0.17763568394E-14  0.21050985449E+03  0.22581548856E+03  0.81720475012E+02 0.  0.
         66    2    3    3    0    0  0.31139415345E+02  0.15957885884E+02  0.16349337288E+03  0.16720765617E+03  0.19999994200E+01 0.  0.
        -13    1    3    3    0    0 -0.31139415345E+02 -0.15957885884E+02  0.47016481608E+02  0.58607832384E+02  0.10566000000E+00 0.  1.
         13    1    4    4    0    0  0.20557994598E+02  0.10983803052E+02  0.11057991824E+03  0.11300975424E+03  0.10566000000E+00 0. -1.
        -13    1    4    4    0    0  0.16508829858E+01  0.10911499573E+01  0.81561358252E+01  0.83934342492E+01  0.10566000000E+00 0.  1.
         14    1    4    4    0    0  0.89305377616E+01  0.38829328744E+01  0.44757318814E+02  0.45804467684E+02  0.00000000000E+00 0. -1.
<mgrwt>
<rscale>  0 0.81720475E+02</rscale>
<asrwt>0</asrwt>
<pdfrwt beam="1">  1        2 0.33563484E-01 0.81720475E+02</pdfrwt>
<pdfrwt beam="2">  1       -1 0.11773566E-02 0.81720475E+02</pdfrwt>
<totfact> 0.21498780E+05</totfact>
</mgrwt>
</event>
<event>
 8    1  0.1226832E-020  0.8144155E+02  0.7818608E-02  0.1325010E+00
          2   -1    0    0  501    0  0.00000000000E+00  0.00000000000E+00  0.14021433116E+03  0.14021433119E+03  0.25500000000E-02 0. -1.
         -1   -1    0    0    0  501 -0.00000000000E+00 -0.00000000000E+00 -0.11826049361E+02  0.11826050435E+02  0.50400000000E-02 0.  1.
         24    2    1    2    0    0 -0.35527136788E-14 -0.35527136788E-14  0.12838828180E+03  0.15204038162E+03  0.81441554131E+02 0.  0.
         66    2    3    3    0    0 -0.12544316826E+02 -0.18829035290E+02  0.12738369208E+03  0.12939280296E+03  0.19999989843E+01 0.  0.
        -13    1    3    3    0    0  0.12544316826E+02  0.18829035290E+02  0.10045897235E+01  0.22647578660E+02  0.10566000000E+00 0.  1.
         13    1    4    4    0    0 -0.78974878584E+01 -0.10794232753E+02  0.73011282350E+02  0.74226304566E+02  0.10566000000E+00 0. -1.
        -13    1    4    4    0    0 -0.39106226442E+01 -0.62616473833E+01  0.41491249559E+02  0.42143043927E+02  0.10566000000E+00 0.  1.
        -14    1    4    4    0    0 -0.73620632302E+00 -0.17731551545E+01  0.12881160172E+02  0.13023454470E+02  0.00000000000E+00 0.  1.
<mgrwt>
<rscale>  0 0.81441554E+02</rscale>
<asrwt>0</asrwt>
<pdfrwt beam="1">  1        2 0.21571436E-01 0.81441554E+02</pdfrwt>
<pdfrwt beam="2">  1       -1 0.18193923E-02 0.81441554E+02</pdfrwt>
<totfact> 0.18694158E+05</totfact>
</mgrwt>
</event>
<event>
 8    1  0.1226832E-020  0.7941886E+02  0.7818608E-02  0.1330709E+00
          2   -1    0    0  501    0  0.00000000000E+00  0.00000000000E+00  0.10410070369E+03  0.10410070372E+03  0.25500000000E-02 0. -1.
         -1   -1    0    0    0  501 -0.00000000000E+00 -0.00000000000E+00 -0.15147242401E+02  0.15147243239E+02  0.50400000000E-02 0.  1.
         24    2    1    2    0    0  0.00000000000E+00  0.00000000000E+00  0.88953461288E+02  0.11924794696E+03  0.79418855311E+02 0.  0.
         66    2    3    3    0    0 -0.29376595878E+01  0.20310399643E+02  0.95505088492E+02  0.97705496760E+02  0.19999979494E+01 0.  0.
        -13    1    3    3    0    0  0.29376595878E+01 -0.20310399643E+02 -0.65516272042E+01  0.21542450199E+02  0.10566000000E+00 0.  1.
         13    1    4    4    0    0 -0.20363452386E+00  0.66435430127E+00  0.33369220822E+01  0.34101388058E+01  0.10566000000E+00 0.  1.
        -13    1    4    4    0    0 -0.24267098112E+00  0.12175931289E+01  0.40950523894E+01  0.42804252523E+01  0.10566000000E+00 0.  1.
         14    1    4    4    0    0 -0.24913540828E+01  0.18428452213E+02  0.88073114021E+02  0.90014932702E+02  0.00000000000E+00 0. -1.
<mgrwt>
<rscale>  0 0.79418855E+02</rscale>
<asrwt>0</asrwt>
<pdfrwt beam="1">  1        2 0.16015493E-01 0.79418855E+02</pdfrwt>
<pdfrwt beam="2">  1       -1 0.23303450E-02 0.79418855E+02</pdfrwt>
<totfact> 0.18280962E+05</totfact>
</mgrwt>
</event>
<event>
 8    1  0.1226832E-020  0.7960540E+02  0.7818608E-02  0.1330175E+00
          2   -1    0    0  501    0  0.00000000000E+00  0.00000000000E+00  0.18957176074E+03  0.18957176076E+03  0.25500000000E-02 0. -1.
         -1   -1    0    0    0  501 -0.00000000000E+00 -0.00000000000E+00 -0.83570187281E+01  0.83570202479E+01  0.50400000000E-02 0.  1.
         24    2    1    2    0    0 -0.88817841970E-15 -0.71054273576E-14  0.18121474201E+03  0.19792878101E+03  0.79605399489E+02 0.  0.
         66    2    3    3    0    0 -0.78626901311E+01 -0.35117309870E+02  0.13280111248E+03  0.13760517006E+03  0.20000009462E+01 0.  0.
        -13    1    3    3    0    0  0.78626901311E+01  0.35117309870E+02  0.48413629535E+02  0.60323610944E+02  0.10566000000E+00 0.  1.
         13    1    4    4    0    0 -0.29730735869E+01 -0.14665588201E+02  0.53802370648E+02  0.55844649656E+02  0.10566000000E+00 0. -1.
        -13    1    4    4    0    0 -0.12575415339E+01 -0.80398166041E+01  0.30684186581E+02  0.31745086737E+02  0.10566000000E+00 0.  1.
         14    1    4    4    0    0 -0.36320750102E+01 -0.12411905065E+02  0.48314555249E+02  0.50015433670E+02  0.00000000000E+00 0. -1.
<mgrwt>
<rscale>  0 0.79605399E+02</rscale>
<asrwt>0</asrwt>
<pdfrwt beam="1">  1        2 0.29164881E-01 0.79605399E+02</pdfrwt>
<pdfrwt beam="2">  1       -1 0.12856955E-02 0.79605399E+02</pdfrwt>
<totfact> 0.21938853E+05</totfact>
</mgrwt>
</event>
<event>
 8    1  0.1226832E-020  0.7949466E+02  0.7818608E-02  0.1330492E+00
          2   -1    0    0  501    0  0.00000000000E+00  0.00000000000E+00  0.13480938570E+03  0.13480938573E+03  0.25500000000E-02 0. -1.
         -1   -1    0    0    0  501 -0.00000000000E+00 -0.00000000000E+00 -0.11719142112E+02  0.11719143196E+02  0.50400000000E-02 0.  1.
         24    2    1    2    0    0  0.00000000000E+00  0.00000000000E+00  0.12309024359E+03  0.14652852892E+03  0.79494664733E+02 0.  0.
         66    2    3    3    0    0  0.26149910554E+02  0.19832256975E+02  0.10282951068E+03  0.10795853151E+03  0.20000047797E+01 0.  0.
        -13    1    3    3    0    0 -0.26149910554E+02 -0.19832256975E+02  0.20260732907E+02  0.38569997416E+02  0.10566000000E+00 0.  1.
         13    1    4    4    0    0  0.78301245295E+01  0.57649648270E+01  0.30210542981E+02  0.31736945991E+02  0.10566000000E+00 0. -1.
        -13    1    4    4    0    0  0.10003400723E+00  0.25176402121E+00  0.93826158853E+00  0.98228853657E+00  0.10566000000E+00 0.  1.
        -14    1    4    4    0    0  0.18219752017E+02  0.13815528126E+02  0.71680706115E+02  0.75239296981E+02  0.00000000000E+00 0.  1.
<mgrwt>
<rscale>  0 0.79494665E+02</rscale>
<asrwt>0</asrwt>
<pdfrwt beam="1">  1        2 0.20739905E-01 0.79494665E+02</pdfrwt>
<pdfrwt beam="2">  1       -1 0.18029450E-02 0.79494665E+02</pdfrwt>
<totfact> 0.19692283E+05</totfact>
</mgrwt>
</event>
<event>
 8    1  0.1226832E-020  0.7908840E+02  0.7818608E-02  0.1331659E+00
         -1   -1    0    0    0  501 -0.00000000000E+00  0.00000000000E+00  0.54007866099E+01  0.54007889616E+01  0.50400000000E-02 0.  1.
          2   -1    0    0  501    0  0.00000000000E+00 -0.00000000000E+00 -0.28953991143E+03  0.28953991144E+03  0.25500000000E-02 0. -1.
         24    2    1    2    0    0  0.00000000000E+00 -0.35527136788E-14 -0.28413912482E+03  0.29494070040E+03  0.79088396750E+02 0.  0.
         66    2    3    3    0    0 -0.21459119770E+02 -0.30923098513E+02 -0.18706738153E+03  0.19082698203E+03  0.19999992981E+01 0.  0.
        -13    1    3    3    0    0  0.21459119770E+02  0.30923098513E+02 -0.97071743290E+02  0.10411371837E+03  0.10566000000E+00 0.  1.
         13    1    4    4    0    0 -0.65018667453E+01 -0.95589847431E+01 -0.54937668302E+02  0.56140956734E+02  0.10566000000E+00 0. -1.
        -13    1    4    4    0    0 -0.70684808477E+01 -0.99828314998E+01 -0.65511276407E+02  0.66643520666E+02  0.10566000000E+00 0.  1.
        -14    1    4    4    0    0 -0.78887721769E+01 -0.11381282270E+02 -0.66618436817E+02  0.68042504631E+02  0.00000000000E+00 0.  1.
<mgrwt>
<rscale>  0 0.79088397E+02</rscale>
<asrwt>0</asrwt>
<pdfrwt beam="1">  1        2 0.44544590E-01 0.79088397E+02</pdfrwt>
<pdfrwt beam="2">  1       -1 0.83089066E-03 0.79088397E+02</pdfrwt>
<totfact> 0.25936524E+05</totfact>
</mgrwt>
</event>
<event>
 8    1  0.1226832E-020  0.8045126E+02  0.7818608E-02  0.1327776E+00
         -1   -1    0    0    0  501 -0.00000000000E+00  0.00000000000E+00  0.95613614951E+01  0.95613628234E+01  0.50400000000E-02 0.  1.
          2   -1    0    0  501    0  0.00000000000E+00 -0.00000000000E+00 -0.16923333527E+03  0.16923333529E+03  0.25500000000E-02 0. -1.
         24    2    1    2    0    0  0.35527136788E-14  0.00000000000E+00 -0.15967197378E+03  0.17879469812E+03  0.80451257691E+02 0.  0.
         66    2    3    3    0    0 -0.26970194774E+02  0.11095685329E+02 -0.14137739786E+03  0.14436784361E+03  0.20000010337E+01 0.  0.
        -13    1    3    3    0    0  0.26970194774E+02 -0.11095685329E+02 -0.18294575919E+02  0.34426854506E+02  0.10566000000E+00 0.  1.
         13    1    4    4    0    0 -0.21925438073E+02  0.84947752647E+01 -0.11197450267E+03  0.11441672279E+03  0.10566000000E+00 0. -1.
        -13    1    4    4    0    0 -0.47584805211E+01  0.23615248403E+01 -0.26801390640E+02  0.27322987405E+02  0.10566000000E+00 0.  1.
         14    1    4    4    0    0 -0.28627618002E+00  0.23938522447E+00 -0.26015045490E+01  0.26281334166E+01  0.00000000000E+00 0. -1.
<mgrwt>
<rscale>  0 0.80451258E+02</rscale>
<asrwt>0</asrwt>
<pdfrwt beam="1">  1        2 0.26035896E-01 0.80451258E+02</pdfrwt>
<pdfrwt beam="2">  1       -1 0.14709789E-02 0.80451258E+02</pdfrwt>
<totfact> 0.20529848E+05</totfact>
</mgrwt>
</event>
<event>
 8    1  0.1226832E-020  0.8005964E+02  0.7818608E-02  0.1328882E+00
         -1   -1    0    0    0  501 -0.00000000000E+00  0.00000000000E+00  0.67104267321E+02  0.67104267510E+02  0.50400000000E-02 0.  1.
          2   -1    0    0  501    0  0.00000000000E+00 -0.00000000000E+00 -0.23879055698E+02  0.23879055834E+02  0.25500000000E-02 0. -1.
         24    2    1    2    0    0  0.71054273576E-14  0.88817841970E-15  0.43225211624E+02  0.90983323344E+02  0.80059641561E+02 0.  0.
         66    2    3    3    0    0 -0.36598036989E+02  0.60864955654E+01  0.46203580609E+01  0.37440745686E+02  0.19999972944E+01 0.  0.
        -13    1    3    3    0    0  0.36598036989E+02 -0.60864955654E+01  0.38604853563E+02  0.53542577659E+02  0.10566000000E+00 0.  1.
         13    1    4    4    0    0 -0.20719991590E+01  0.71182153811E+00  0.29836674014E+00  0.22136072742E+01  0.10566000000E+00 0. -1.
        -13    1    4    4    0    0 -0.98058349208E+01  0.18687824140E+01  0.16259322254E+01  0.10114423653E+02  0.10566000000E+00 0. -1.
         14    1    4    4    0    0 -0.24720202909E+02  0.35058916133E+01  0.26960590954E+01  0.25112714758E+02  0.00000000000E+00 0. -1.
<mgrwt>
<rscale>  0 0.80059642E+02</rscale>
<asrwt>0</asrwt>
<pdfrwt beam="1">  1        2 0.36737009E-02 0.80059642E+02</pdfrwt>
<pdfrwt beam="2">  1       -1 0.10323733E-01 0.80059642E+02</pdfrwt>
<totfact> 0.12836065E+05</totfact>
</mgrwt>
</event>
<event>
 8    1  0.1226832E-020  0.7980497E+02  0.7818608E-02  0.1329606E+00
          2   -1    0    0  501    0  0.00000000000E+00  0.00000000000E+00  0.29790977336E+02  0.29790977445E+02  0.25500000000E-02 0. -1.
         -1   -1    0    0    0  501 -0.00000000000E+00 -0.00000000000E+00 -0.53445994814E+02  0.53445995052E+02  0.50400000000E-02 0.  1.
         24    2    1    2    0    0  0.00000000000E+00  0.00000000000E+00 -0.23655017478E+02  0.83236972497E+02  0.79804973144E+02 0.  0.
         66    2    3    3    0    0  0.25355783409E+02 -0.27072250953E+02 -0.27106336359E+02  0.45984519020E+02  0.19999986931E+01 0.  0.
        -13    1    3    3    0    0 -0.25355783409E+02  0.27072250953E+02  0.34513188803E+01  0.37252453477E+02  0.10566000000E+00 0.  1.
         13    1    4    4    0    0  0.69060405840E+01 -0.75030011995E+01 -0.73272023742E+01  0.12557367647E+02  0.10566000000E+00 0. -1.
        -13    1    4    4    0    0  0.61683853560E+01 -0.72512450980E+01 -0.77872767121E+01  0.12299690077E+02  0.10566000000E+00 0.  1.
         14    1    4    4    0    0  0.12281357469E+02 -0.12318004656E+02 -0.11991857272E+02  0.21127461296E+02  0.00000000000E+00 0. -1.
<mgrwt>
<rscale>  0 0.79804973E+02</rscale>
<asrwt>0</asrwt>
<pdfrwt beam="1">  1        2 0.45832273E-02 0.79804973E+02</pdfrwt>
<pdfrwt beam="2">  1       -1 0.82224608E-02 0.79804973E+02</pdfrwt>
<totfact> 0.13528922E+05</totfact>
</mgrwt>
</event>
<event>
 8    1  0.1226832E-020  0.7684119E+02  0.7818608E-02  0.1338262E+00
         -1   -1    0    0    0  501 -0.00000000000E+00  0.00000000000E+00  0.51652485241E+01  0.51652509830E+01  0.50400000000E-02 0.  1.
          2   -1    0    0  501    0  0.00000000000E+00 -0.00000000000E+00 -0.28578330307E+03  0.28578330308E+03  0.25500000000E-02 0. -1.
         24    2    1    2    0    0  0.00000000000E+00  0.00000000000E+00 -0.28061805454E+03  0.29094855406E+03  0.76841190614E+02 0.  0.
         66    2    3    3    0    0 -0.16082732809E+02  0.83188089104E+01 -0.26859776722E+03  0.26921481652E+03  0.19999998594E+01 0.  0.
        -13    1    3    3    0    0  0.16082732809E+02 -0.83188089104E+01 -0.12020287318E+02  0.21733737542E+02  0.10566000000E+00 0.  1.
         13    1    4    4    0    0 -0.22319221310E+01  0.14724595948E+01 -0.32228319903E+02  0.32339223575E+02  0.10566000000E+00 0. -1.
        -13    1    4    4    0    0 -0.78949940582E+01  0.34865792787E+01 -0.12822607679E+03  0.12851624450E+03  0.10566000000E+00 0.  1.
         14    1    4    4    0    0 -0.59558166194E+01  0.33597700370E+01 -0.10814337053E+03  0.10835934844E+03  0.00000000000E+00 0. -1.
<mgrwt>
<rscale>  0 0.76841191E+02</rscale>
<asrwt>0</asrwt>
<pdfrwt beam="1">  1        2 0.43966650E-01 0.76841191E+02</pdfrwt>
<pdfrwt beam="2">  1       -1 0.79465404E-03 0.76841191E+02</pdfrwt>
<totfact> 0.27836711E+05</totfact>
</mgrwt>
</event>
<event>
 8    1  0.1226832E-020  0.7984904E+02  0.7818608E-02  0.1329480E+00
          2   -1    0    0  501    0  0.00000000000E+00  0.00000000000E+00  0.24692139473E+03  0.24692139475E+03  0.25500000000E-02 0. -1.
         -1   -1    0    0    0  501 -0.00000000000E+00 -0.00000000000E+00 -0.64553619335E+01  0.64553639010E+01  0.50400000000E-02 0.  1.
         24    2    1    2    0    0  0.17763568394E-14  0.00000000000E+00  0.24046603280E+03  0.25337675865E+03  0.79849038142E+02 0.  0.
         66    2    3    3    0    0  0.87976747146E+01 -0.20833788040E+02  0.22461507399E+03  0.22575955633E+03  0.20000017492E+01 0.  0.
        -13    1    3    3    0    0 -0.87976747146E+01  0.20833788040E+02  0.15850958808E+02  0.27617202314E+02  0.10566000000E+00 0.  1.
         13    1    4    4    0    0  0.10773137408E+01 -0.30514918564E+01  0.34615790466E+02  0.34766885410E+02  0.10566000000E+00 0. -1.
        -13    1    4    4    0    0  0.15509944219E+01 -0.24461358765E+01  0.32004918019E+02  0.32135885018E+02  0.10566000000E+00 0.  1.
        -14    1    4    4    0    0  0.61693665519E+01 -0.15336160307E+02  0.15799436550E+03  0.15885678590E+03  0.00000000000E+00 0.  1.
<mgrwt>
<rscale>  0 0.79849038E+02</rscale>
<asrwt>0</asrwt>
<pdfrwt beam="1">  1        2 0.37987901E-01 0.79849038E+02</pdfrwt>
<pdfrwt beam="2">  1       -1 0.99313292E-03 0.79849038E+02</pdfrwt>
<totfact> 0.23881027E+05</totfact>
</mgrwt>
</event>
<event>
 8    1  0.1226832E-020  0.8105593E+02  0.7818608E-02  0.1326081E+00
         -1   -1    0    0    0  501 -0.00000000000E+00  0.00000000000E+00  0.54423622336E+01  0.54423645673E+01  0.50400000000E-02 0.  1.
          2   -1    0    0  501    0  0.00000000000E+00 -0.00000000000E+00 -0.30180198356E+03  0.30180198357E+03  0.25500000000E-02 0. -1.
         24    2    1    2    0    0  0.00000000000E+00  0.00000000000E+00 -0.29635962132E+03  0.30724434814E+03  0.81055933219E+02 0.  0.
         66    2    3    3    0    0  0.17997980526E+02 -0.36187757608E+02 -0.13821952653E+03  0.14402124362E+03  0.19999986806E+01 0.  0.
        -13    1    3    3    0    0 -0.17997980526E+02  0.36187757608E+02 -0.15814009479E+03  0.16322310452E+03  0.10566000000E+00 0.  1.
         13    1    4    4    0    0  0.10131221643E+01 -0.28304633010E+01 -0.91930670964E+01  0.96727237990E+01  0.10566000000E+00 0. -1.
        -13    1    4    4    0    0  0.16385665635E+02 -0.32107295307E+02 -0.12468912699E+03  0.12979506156E+03  0.10566000000E+00 0.  1.
        -14    1    4    4    0    0  0.59919272720E+00 -0.12499989995E+01 -0.43373324440E+01  0.45534582630E+01  0.00000000000E+00 0.  1.
<mgrwt>
<rscale>  0 0.81055933E+02</rscale>
<asrwt>0</asrwt>
<pdfrwt beam="1">  1        2 0.46431061E-01 0.81055933E+02</pdfrwt>
<pdfrwt beam="2">  1       -1 0.83728692E-03 0.81055933E+02</pdfrwt>
<totfact> 0.24685882E+05</totfact>
</mgrwt>
</event>
<event>
 8    1  0.1226832E-020  0.8081427E+02  0.7818608E-02  0.1326756E+00
         -1   -1    0    0    0  501 -0.00000000000E+00  0.00000000000E+00  0.17390762737E+01  0.17390835768E+01  0.50400000000E-02 0.  1.
          2   -1    0    0  501    0  0.00000000000E+00 -0.00000000000E+00 -0.93885070268E+03  0.93885070268E+03  0.25500000000E-02 0. -1.
         24    2    1    2    0    0  0.00000000000E+00  0.17763568394E-14 -0.93711162641E+03  0.94058978626E+03  0.80814266508E+02 0.  0.
         66    2    3    3    0    0 -0.22929434191E+02  0.13780348600E+02 -0.82092125060E+03  0.82135945642E+03  0.20000009160E+01 0.  0.
        -13    1    3    3    0    0  0.22929434191E+02 -0.13780348600E+02 -0.11619037581E+03  0.11923032984E+03  0.10566000000E+00 0.  1.
         13    1    4    4    0    0 -0.59689545024E+01  0.34307731822E+01 -0.19675018921E+03  0.19687063453E+03  0.10566000000E+00 0. -1.
        -13    1    4    4    0    0 -0.49438296974E+00  0.30852727796E+00 -0.26697035894E+02  0.26703604498E+02  0.10566000000E+00 0.  1.
         14    1    4    4    0    0 -0.16466096719E+02  0.10041048139E+02 -0.59747402549E+03  0.59778521738E+03  0.00000000000E+00 0. -1.
<mgrwt>
<rscale>  0 0.80814267E+02</rscale>
<asrwt>0</asrwt>
<pdfrwt beam="1">  1        2 0.14443817E+00 0.80814267E+02</pdfrwt>
<pdfrwt beam="2">  1       -1 0.26755151E-03 0.80814267E+02</pdfrwt>
<totfact> 0.34179404E+05</totfact>
</mgrwt>
</event>
<event>
 8    1  0.1226832E-020  0.7991324E+02  0.7818608E-02  0.1329298E+00
         -1   -1    0    0    0  501 -0.00000000000E+00  0.00000000000E+00  0.31295665356E+01  0.31295705939E+01  0.50400000000E-02 0.  1.
          2   -1    0    0  501    0  0.00000000000E+00 -0.00000000000E+00 -0.51014427929E+03  0.51014427929E+03  0.25500000000E-02 0. -1.
         24    2    1    2    0    0  0.00000000000E+00  0.35527136788E-14 -0.50701471275E+03  0.51327384989E+03  0.79913240653E+02 0.  0.
         66    2    3    3    0    0  0.21841095893E+02 -0.28553313618E+02 -0.36532080946E+03  0.36709075038E+03  0.19999999097E+01 0.  0.
        -13    1    3    3    0    0 -0.21841095893E+02  0.28553313618E+02 -0.14169390329E+03  0.14618309951E+03  0.10566000000E+00 0.  1.
         13    1    4    4    0    0  0.59141851267E+01 -0.66945538060E+01 -0.90448354199E+02  0.90888451289E+02  0.10566000000E+00 0. -1.
        -13    1    4    4    0    0  0.17154265959E+01 -0.26919857151E+01 -0.29457597026E+02  0.29630232232E+02  0.10566000000E+00 0.  1.
         14    1    4    4    0    0  0.14211484170E+02 -0.19166774097E+02 -0.24541485824E+03  0.24657206686E+03  0.00000000000E+00 0. -1.
<mgrwt>
<rscale>  0 0.79913241E+02</rscale>
<asrwt>0</asrwt>
<pdfrwt beam="1">  1        2 0.78483669E-01 0.79913241E+02</pdfrwt>
<pdfrwt beam="2">  1       -1 0.48147249E-03 0.79913241E+02</pdfrwt>
<totfact> 0.30732473E+05</totfact>
</mgrwt>
</event>
<event>
 8    1  0.1226832E-020  0.7812879E+02  0.7818608E-02  0.1334447E+00
         -1   -1    0    0    0  501 -0.00000000000E+00  0.00000000000E+00  0.41042166363E+02  0.41042166673E+02  0.50400000000E-02 0.  1.
          2   -1    0    0  501    0  0.00000000000E+00 -0.00000000000E+00 -0.37181928553E+02  0.37181928640E+02  0.25500000000E-02 0. -1.
         24    2    1    2    0    0 -0.55511151231E-16  0.35527136788E-14  0.38602378104E+01  0.78224095313E+02  0.78128788879E+02 0.  0.
         66    2    3    3    0    0 -0.37101082701E+00 -0.18515398601E+02 -0.32477159169E+02  0.37439598042E+02  0.19999998652E+01 0.  0.
        -13    1    3    3    0    0  0.37101082701E+00  0.18515398601E+02  0.36337396980E+02  0.40784497271E+02  0.10566000000E+00 0.  1.
         13    1    4    4    0    0 -0.93286782709E+00 -0.86169528155E+01 -0.14256214955E+02  0.16684512192E+02  0.10566000000E+00 0. -1.
        -13    1    4    4    0    0  0.26348614597E+00 -0.13393447646E+01 -0.27438228093E+01  0.30664306599E+01  0.10566000000E+00 0.  1.
         14    1    4    4    0    0  0.29837085411E+00 -0.85591010206E+01 -0.15477121405E+02  0.17688655190E+02  0.00000000000E+00 0. -1.
<mgrwt>
<rscale>  0 0.78128789E+02</rscale>
<asrwt>0</asrwt>
<pdfrwt beam="1">  1        2 0.57202967E-02 0.78128789E+02</pdfrwt>
<pdfrwt beam="2">  1       -1 0.63141795E-02 0.78128789E+02</pdfrwt>
<totfact> 0.14995340E+05</totfact>
</mgrwt>
</event>
<event>
 8    1  0.1226832E-020  0.8054340E+02  0.7818608E-02  0.1327516E+00
         -1   -1    0    0    0  501 -0.00000000000E+00  0.00000000000E+00  0.94492682328E+02  0.94492682463E+02  0.50400000000E-02 0.  1.
          2   -1    0    0  501    0  0.00000000000E+00 -0.00000000000E+00 -0.17163337921E+02  0.17163338111E+02  0.25500000000E-02 0. -1.
         24    2    1    2    0    0  0.17763568394E-14  0.00000000000E+00  0.77329344407E+02  0.11165602057E+03  0.80543400871E+02 0.  0.
         66    2    3    3    0    0 -0.15500493883E+02 -0.27365696808E+02  0.38748240880E+01  0.31751550162E+02  0.20000008871E+01 0.  0.
        -13    1    3    3    0    0  0.15500493883E+02  0.27365696808E+02  0.73454520319E+02  0.79904470412E+02  0.10566000000E+00 0.  1.
         13    1    4    4    0    0 -0.71820048426E+01 -0.11670121418E+02  0.10411383588E+01  0.13742927657E+02  0.10566000000E+00 0. -1.
        -13    1    4    4    0    0 -0.43454182656E+01 -0.73556656220E+01  0.15083874644E+01  0.86761093483E+01  0.10566000000E+00 0.  1.
        -14    1    4    4    0    0 -0.39730707746E+01 -0.83399097683E+01  0.13252982647E+01  0.93325131563E+01  0.00000000000E+00 0.  1.
<mgrwt>
<rscale>  0 0.80543401E+02</rscale>
<asrwt>0</asrwt>
<pdfrwt beam="1">  1        2 0.26405137E-02 0.80543401E+02</pdfrwt>
<pdfrwt beam="2">  1       -1 0.14537335E-01 0.80543401E+02</pdfrwt>
<totfact> 0.11796281E+05</totfact>
</mgrwt>
</event>
<event>
 8    1  0.1226832E-020  0.8092818E+02  0.7818608E-02  0.1326438E+00
          2   -1    0    0  501    0  0.00000000000E+00  0.00000000000E+00  0.77114903594E+03  0.77114903594E+03  0.25500000000E-02 0. -1.
         -1   -1    0    0    0  501 -0.00000000000E+00 -0.00000000000E+00 -0.21232473169E+01  0.21232532987E+01  0.50400000000E-02 0.  1.
         24    2    1    2    0    0  0.00000000000E+00 -0.44408920985E-15  0.76902578862E+03  0.77327228924E+03  0.80928176451E+02 0.  0.
         66    2    3    3    0    0  0.25301342052E+02 -0.33193330061E+01  0.68450170589E+03  0.68498011741E+03  0.19999995684E+01 0.  0.
        -13    1    3    3    0    0 -0.25301342052E+02  0.33193330061E+01  0.84524082732E+02  0.88292171833E+02  0.10566000000E+00 0.  1.
         13    1    4    4    0    0  0.55093373347E+01 -0.40598864265E+00  0.13484042709E+03  0.13495358301E+03  0.10566000000E+00 0. -1.
        -13    1    4    4    0    0  0.19133300571E+02 -0.25947578237E+01  0.52843224263E+03  0.52878489216E+03  0.10566000000E+00 0.  1.
        -14    1    4    4    0    0  0.65870414642E+00 -0.31858653980E+00  0.21229036162E+02  0.21241642237E+02  0.00000000000E+00 0.  1.
<mgrwt>
<rscale>  0 0.80928176E+02</rscale>
<asrwt>0</asrwt>
<pdfrwt beam="1">  1        2 0.11863839E+00 0.80928176E+02</pdfrwt>
<pdfrwt beam="2">  1       -1 0.32665367E-03 0.80928176E+02</pdfrwt>
<totfact> 0.33129383E+05</totfact>
</mgrwt>
</event>
<event>
 8    1  0.1226832E-020  0.8447730E+02  0.7818608E-02  0.1316805E+00
          2   -1    0    0  501    0  0.00000000000E+00  0.00000000000E+00  0.60710702052E+03  0.60710702053E+03  0.25500000000E-02 0. -1.
         -1   -1    0    0    0  501 -0.00000000000E+00 -0.00000000000E+00 -0.29386949536E+01  0.29386992755E+01  0.50400000000E-02 0.  1.
         24    2    1    2    0    0  0.35527136788E-14  0.00000000000E+00  0.60416832557E+03  0.61004571980E+03  0.84477302452E+02 0.  0.
         66    2    3    3    0    0  0.20159627218E+02  0.15915018263E+02  0.54418663101E+03  0.54479609742E+03  0.20000026144E+01 0.  0.
        -13    1    3    3    0    0 -0.20159627218E+02 -0.15915018263E+02  0.59981694555E+02  0.65249622387E+02  0.10566000000E+00 0.  1.
         13    1    4    4    0    0  0.34042035898E+01  0.28466573172E+01  0.88835127855E+02  0.88945956429E+02  0.10566000000E+00 0. -1.
        -13    1    4    4    0    0  0.86346155258E+01  0.77935574789E+01  0.24847980923E+03  0.24875193041E+03  0.10566000000E+00 0.  1.
         14    1    4    4    0    0  0.81208081020E+01  0.52748034668E+01  0.20687169393E+03  0.20709821058E+03  0.00000000000E+00 0. -1.
<mgrwt>
<rscale>  0 0.84477302E+02</rscale>
<asrwt>0</asrwt>
<pdfrwt beam="1">  1        2 0.93401097E-01 0.84477302E+02</pdfrwt>
<pdfrwt beam="2">  1       -1 0.45210717E-03 0.84477302E+02</pdfrwt>
<totfact> 0.27994825E+05</totfact>
</mgrwt>
</event>
<event>
 8    1  0.1226832E-020  0.7777617E+02  0.7818608E-02  0.1335483E+00
         -1   -1    0    0    0  501 -0.00000000000E+00  0.00000000000E+00  0.39059877845E+01  0.39059910362E+01  0.50400000000E-02 0.  1.
          2   -1    0    0  501    0  0.00000000000E+00 -0.00000000000E+00 -0.38717027219E+03  0.38717027220E+03  0.25500000000E-02 0. -1.
         24    2    1    2    0    0 -0.17763568394E-14  0.00000000000E+00 -0.38326428441E+03  0.39107626324E+03  0.77776165788E+02 0.  0.
         66    2    3    3    0    0 -0.14798210425E+02  0.29253962824E+02 -0.29669036253E+03  0.29850285191E+03  0.20000007838E+01 0.  0.
        -13    1    3    3    0    0  0.14798210425E+02 -0.29253962824E+02 -0.86573921874E+02  0.92573411330E+02  0.10566000000E+00 0.  1.
         13    1    4    4    0    0 -0.67787842664E+01  0.15080442746E+02 -0.15416891045E+03  0.15505300959E+03  0.10566000000E+00 0. -1.
        -13    1    4    4    0    0 -0.69928833451E+01  0.11983308992E+02 -0.12165329977E+03  0.12244197247E+03  0.10566000000E+00 0.  1.
        -14    1    4    4    0    0 -0.10265428135E+01  0.21902110867E+01 -0.20868152314E+02  0.21007869853E+02  0.00000000000E+00 0.  1.
<mgrwt>
<rscale>  0 0.77776166E+02</rscale>
<asrwt>0</asrwt>
<pdfrwt beam="1">  1        2 0.59564627E-01 0.77776166E+02</pdfrwt>
<pdfrwt beam="2">  1       -1 0.60092176E-03 0.77776166E+02</pdfrwt>
<totfact> 0.30064497E+05</totfact>
</mgrwt>
</event>
<event>
 8    1  0.1226832E-020  0.7945401E+02  0.7818608E-02  0.1330608E+00
          2   -1    0    0  501    0  0.00000000000E+00  0.00000000000E+00  0.22148550985E+03  0.22148550986E+03  0.25500000000E-02 0. -1.
         -1   -1    0    0    0  501 -0.00000000000E+00 -0.00000000000E+00 -0.71256792170E+01  0.71256809994E+01  0.50400000000E-02 0.  1.
         24    2    1    2    0    0  0.00000000000E+00  0.88817841970E-15  0.21435983063E+03  0.22861119086E+03  0.79454009334E+02 0.  0.
         66    2    3    3    0    0 -0.32231047394E+02 -0.66444565837E+01  0.17114914904E+03  0.17429578433E+03  0.19999994832E+01 0.  0.
        -13    1    3    3    0    0  0.32231047394E+02  0.66444565837E+01  0.43210681591E+02  0.54315406534E+02  0.10566000000E+00 0.  1.
         13    1    4    4    0    0 -0.12342837043E+02 -0.29266042830E+01  0.63598788323E+02  0.64851581932E+02  0.10566000000E+00 0.  1.
        -13    1    4    4    0    0 -0.63471160514E+01 -0.83856203748E+00  0.31533770423E+02  0.32177304263E+02  0.10566000000E+00 0. -1.
         14    1    4    4    0    0 -0.13541094300E+02 -0.28792902632E+01  0.76016590295E+02  0.77266898134E+02  0.00000000000E+00 0. -1.
<mgrwt>
<rscale>  0 0.79454009E+02</rscale>
<asrwt>0</asrwt>
<pdfrwt beam="1">  1        2 0.34074693E-01 0.79454009E+02</pdfrwt>
<pdfrwt beam="2">  1       -1 0.10962585E-02 0.79454009E+02</pdfrwt>
<totfact> 0.23277466E+05</totfact>
</mgrwt>
</event>
<event>
 8    1  0.1226832E-020  0.8203019E+02  0.7818608E-02  0.1323387E+00
         -1   -1    0    0    0  501 -0.00000000000E+00  0.00000000000E+00  0.17226907954E+01  0.17226981681E+01  0.50400000000E-02 0.  1.
          2   -1    0    0  501    0  0.00000000000E+00 -0.00000000000E+00 -0.97651559184E+03  0.97651559185E+03  0.25500000000E-02 0. -1.
         24    2    1    2    0    0  0.00000000000E+00  0.00000000000E+00 -0.97479290105E+03  0.97823829002E+03  0.82030190281E+02 0.  0.
         66    2    3    3    0    0 -0.19346299769E+02 -0.11774286007E+02 -0.89512745818E+03  0.89541614879E+03  0.20000000168E+01 0.  0.
        -13    1    3    3    0    0  0.19346299769E+02  0.11774286007E+02 -0.79665442871E+02  0.82822141228E+02  0.10566000000E+00 0.  1.
         13    1    4    4    0    0 -0.11994013239E+02 -0.79205390343E+01 -0.59518326004E+03  0.59535679680E+03  0.10566000000E+00 0. -1.
        -13    1    4    4    0    0 -0.28451387430E+01 -0.16319358279E+01 -0.11318431231E+03  0.11323187602E+03  0.10566000000E+00 0.  1.
         14    1    4    4    0    0 -0.45071477869E+01 -0.22218111446E+01 -0.18675988582E+03  0.18682747597E+03  0.00000000000E+00 0. -1.
<mgrwt>
<rscale>  0 0.82030190E+02</rscale>
<asrwt>0</asrwt>
<pdfrwt beam="1">  1        2 0.15023273E+00 0.82030190E+02</pdfrwt>
<pdfrwt beam="2">  1       -1 0.26503070E-03 0.82030190E+02</pdfrwt>
<totfact> 0.32969815E+05</totfact>
</mgrwt>
</event>
<event>
 8    1  0.1226832E-020  0.7772375E+02  0.7818608E-02  0.1335638E+00
         -1   -1    0    0    0  501 -0.00000000000E+00  0.00000000000E+00  0.19366863624E+01  0.19366929204E+01  0.50400000000E-02 0.  1.
          2   -1    0    0  501    0  0.00000000000E+00 -0.00000000000E+00 -0.77980755292E+03  0.77980755292E+03  0.25500000000E-02 0. -1.
         24    2    1    2    0    0  0.00000000000E+00  0.17763568394E-14 -0.77787086655E+03  0.78174424584E+03  0.77723747156E+02 0.  0.
         66    2    3    3    0    0 -0.12138646877E+02  0.13103935195E+02 -0.73603676755E+03  0.73625619390E+03  0.20000024380E+01 0.  0.
        -13    1    3    3    0    0  0.12138646877E+02 -0.13103935195E+02 -0.41834099005E+02  0.45488051939E+02  0.10566000000E+00 0.  1.
         13    1    4    4    0    0 -0.20499739551E+01  0.19358562226E+01 -0.12472941295E+03  0.12476132234E+03  0.10566000000E+00 0. -1.
        -13    1    4    4    0    0 -0.80496280032E+01  0.97954516231E+01 -0.51794955623E+03  0.51810472045E+03  0.10566000000E+00 0.  1.
        -14    1    4    4    0    0 -0.20390449185E+01  0.13726273489E+01 -0.93357798365E+02  0.93390151117E+02  0.00000000000E+00 0.  1.
<mgrwt>
<rscale>  0 0.77723747E+02</rscale>
<asrwt>0</asrwt>
<pdfrwt beam="1">  1        2 0.11997014E+00 0.77723747E+02</pdfrwt>
<pdfrwt beam="2">  1       -1 0.29795288E-03 0.77723747E+02</pdfrwt>
<totfact> 0.36869256E+05</totfact>
</mgrwt>
</event>
<event>
 8    1  0.1226832E-020  0.8090084E+02  0.7818608E-02  0.1326514E+00
          2   -1    0    0  501    0  0.00000000000E+00  0.00000000000E+00  0.82053079283E+03  0.82053079283E+03  0.25500000000E-02 0. -1.
         -1   -1    0    0    0  501 -0.00000000000E+00 -0.00000000000E+00 -0.19941161047E+01  0.19941224738E+01  0.50400000000E-02 0.  1.
         24    2    1    2    0    0  0.00000000000E+00 -0.17763568394E-14  0.81853667672E+03  0.82252491531E+03  0.80900835332E+02 0.  0.
         66    2    3    3    0    0  0.28596296366E+01  0.11877591873E+02  0.80131004242E+03  0.80140566429E+03  0.19999971718E+01 0.  0.
        -13    1    3    3    0    0 -0.28596296366E+01 -0.11877591873E+02  0.17226634301E+02  0.21119251022E+02  0.10566000000E+00 0.  1.
         13    1    4    4    0    0  0.14970211928E+01  0.52002098430E+01  0.34168091856E+03  0.34172378397E+03  0.10566000000E+00 0. -1.
        -13    1    4    4    0    0  0.78620482260E+00  0.11531805534E+01  0.10294503602E+03  0.10295455089E+03  0.10566000000E+00 0.  1.
        -14    1    4    4    0    0  0.57640362118E+00  0.55242014764E+01  0.35668408784E+03  0.35672732943E+03  0.00000000000E+00 0.  1.
<mgrwt>
<rscale>  0 0.80900835E+02</rscale>
<asrwt>0</asrwt>
<pdfrwt beam="1">  1        2 0.12623581E+00 0.80900835E+02</pdfrwt>
<pdfrwt beam="2">  1       -1 0.30678684E-03 0.80900835E+02</pdfrwt>
<totfact> 0.33520982E+05</totfact>
</mgrwt>
</event>
<event>
 8    1  0.1226832E-020  0.8026678E+02  0.7818608E-02  0.1328296E+00
          2   -1    0    0  501    0  0.00000000000E+00  0.00000000000E+00  0.10741678440E+02  0.10741678743E+02  0.25500000000E-02 0. -1.
         -1   -1    0    0    0  501 -0.00000000000E+00 -0.00000000000E+00 -0.14994760002E+03  0.14994760010E+03  0.50400000000E-02 0.  1.
         24    2    1    2    0    0 -0.71054273576E-14  0.00000000000E+00 -0.13920592158E+03  0.16068927885E+03  0.80266778517E+02 0.  0.
         66    2    3    3    0    0 -0.33758145849E+02  0.13561284616E+02 -0.10345236129E+03  0.10968095512E+03  0.20000022451E+01 0.  0.
        -13    1    3    3    0    0  0.33758145849E+02 -0.13561284616E+02 -0.35753560292E+02  0.51008323725E+02  0.10566000000E+00 0.  1.
         13    1    4    4    0    0 -0.10905792381E+02  0.39082969946E+01 -0.32050656355E+02  0.34080299730E+02  0.10566000000E+00 0. -1.
        -13    1    4    4    0    0 -0.13045614486E+02  0.61889528136E+01 -0.40797243769E+02  0.43277216378E+02  0.10566000000E+00 0.  1.
        -14    1    4    4    0    0 -0.98067389822E+01  0.34640348076E+01 -0.30604461163E+02  0.32323439014E+02  0.00000000000E+00 0.  1.
<mgrwt>
<rscale>  0 0.80266779E+02</rscale>
<asrwt>0</asrwt>
<pdfrwt beam="1">  1        2 0.16525660E-02 0.80266779E+02</pdfrwt>
<pdfrwt beam="2">  1       -1 0.23068860E-01 0.80266779E+02</pdfrwt>
<totfact> 0.10697823E+05</totfact>
</mgrwt>
</event>
<event>
 8    1  0.1226832E-020  0.7628825E+02  0.7818608E-02  0.1339928E+00
          2   -1    0    0  501    0  0.00000000000E+00  0.00000000000E+00  0.60546067761E+02  0.60546067815E+02  0.25500000000E-02 0. -1.
         -1   -1    0    0    0  501 -0.00000000000E+00 -0.00000000000E+00 -0.24030865663E+02  0.24030866191E+02  0.50400000000E-02 0.  1.
         24    2    1    2    0    0 -0.35527136788E-14 -0.22204460493E-15  0.36515202099E+02  0.84576934006E+02  0.76288254546E+02 0.  0.
         66    2    3    3    0    0  0.24768717001E+02  0.16961455783E+01  0.50336797894E+02  0.56161904074E+02  0.19999988397E+01 0.  0.
        -13    1    3    3    0    0 -0.24768717001E+02 -0.16961455783E+01 -0.13821595795E+02  0.28415029932E+02  0.10566000000E+00 0.  1.
         13    1    4    4    0    0  0.11735317756E+02  0.13087665598E+01  0.24737881247E+02  0.27411758159E+02  0.10566000000E+00 0. -1.
        -13    1    4    4    0    0  0.45770387846E+01 -0.22010667931E+00  0.81468185295E+01  0.93477027752E+01  0.10566000000E+00 0.  1.
         14    1    4    4    0    0  0.84563604602E+01  0.60748569778E+00  0.17452098118E+02  0.19402443141E+02  0.00000000000E+00 0. -1.
<mgrwt>
<rscale>  0 0.76288255E+02</rscale>
<asrwt>0</asrwt>
<pdfrwt beam="1">  1        2 0.93147796E-02 0.76288255E+02</pdfrwt>
<pdfrwt beam="2">  1       -1 0.36970564E-02 0.76288255E+02</pdfrwt>
<totfact> 0.17743132E+05</totfact>
</mgrwt>
</event>
<event>
 8    1  0.1226832E-020  0.7980041E+02  0.7818608E-02  0.1329619E+00
          2   -1    0    0  501    0  0.00000000000E+00  0.00000000000E+00  0.41126664875E+02  0.41126664954E+02  0.25500000000E-02 0. -1.
         -1   -1    0    0    0  501 -0.00000000000E+00 -0.00000000000E+00 -0.38710317506E+02  0.38710317835E+02  0.50400000000E-02 0.  1.
         24    2    1    2    0    0  0.00000000000E+00  0.00000000000E+00  0.24163473688E+01  0.79836982789E+02  0.79800407807E+02 0.  0.
         66    2    3    3    0    0  0.37769513928E+02 -0.12227034182E+02  0.49502658918E+01  0.40056730724E+02  0.19999991633E+01 0.  0.
        -13    1    3    3    0    0 -0.37769513928E+02  0.12227034182E+02 -0.25339185230E+01  0.39780252065E+02  0.10566000000E+00 0.  1.
         13    1    4    4    0    0  0.28163997345E+02 -0.87553462434E+01  0.42397198832E+01  0.29796865993E+02  0.10566000000E+00 0. -1.
        -13    1    4    4    0    0  0.52875473744E+01 -0.19502269270E+01  0.70540036074E-01  0.56371697009E+01  0.10566000000E+00 0.  1.
        -14    1    4    4    0    0  0.43179692089E+01 -0.15214610114E+01  0.64000597250E+00  0.46226950303E+01  0.00000000000E+00 0.  1.
<mgrwt>
<rscale>  0 0.79800408E+02</rscale>
<asrwt>0</asrwt>
<pdfrwt beam="1">  1        2 0.63271792E-02 0.79800408E+02</pdfrwt>
<pdfrwt beam="2">  1       -1 0.59554335E-02 0.79800408E+02</pdfrwt>
<totfact> 0.14436291E+05</totfact>
</mgrwt>
</event>
<event>
 8    1  0.1226832E-020  0.8022823E+02  0.7818608E-02  0.1328405E+00
          2   -1    0    0  501    0  0.00000000000E+00  0.00000000000E+00  0.11023531593E+04  0.11023531593E+04  0.25500000000E-02 0. -1.
         -1   -1    0    0    0  501 -0.00000000000E+00 -0.00000000000E+00 -0.14597293355E+01  0.14597380362E+01  0.50400000000E-02 0.  1.
         24    2    1    2    0    0 -0.35527136788E-14  0.00000000000E+00  0.11008934299E+04  0.11038128973E+04  0.80228225664E+02 0.  0.
         66    2    3    3    0    0 -0.15034303556E+02 -0.65038091431E+01  0.10542041744E+04  0.10543333301E+04  0.19999994679E+01 0.  0.
        -13    1    3    3    0    0  0.15034303556E+02  0.65038091431E+01  0.46689255587E+02  0.49479567178E+02  0.10566000000E+00 0.  1.
         13    1    4    4    0    0 -0.37766230689E+01 -0.17116683091E+01  0.30675433260E+03  0.30678237306E+03  0.10566000000E+00 0. -1.
        -13    1    4    4    0    0 -0.14430252834E+01 -0.93058387055E+00  0.88569442012E+02  0.88586147510E+02  0.10566000000E+00 0.  1.
        -14    1    4    4    0    0 -0.98146552034E+01 -0.38615569635E+01  0.65888039975E+03  0.65896480957E+03  0.00000000000E+00 0.  1.
<mgrwt>
<rscale>  0 0.80228226E+02</rscale>
<asrwt>0</asrwt>
<pdfrwt beam="1">  1        2 0.16959217E+00 0.80228226E+02</pdfrwt>
<pdfrwt beam="2">  1       -1 0.22457523E-03 0.80228226E+02</pdfrwt>
<totfact> 0.34989680E+05</totfact>
</mgrwt>
</event>
<event>
 8    1  0.1226832E-020  0.7843219E+02  0.7818608E-02  0.1333560E+00
          2   -1    0    0  501    0  0.00000000000E+00  0.00000000000E+00  0.51151565766E+03  0.51151565767E+03  0.25500000000E-02 0. -1.
         -1   -1    0    0    0  501 -0.00000000000E+00 -0.00000000000E+00 -0.30065573053E+01  0.30065615296E+01  0.50400000000E-02 0.  1.
         24    2    1    2    0    0 -0.17763568394E-14  0.35527136788E-14  0.50850910035E+03  0.51452221920E+03  0.78432193025E+02 0.  0.
         66    2    3    3    0    0 -0.10967275495E+02  0.31040553528E+02  0.39390428895E+03  0.39528266596E+03  0.20000147827E+01 0.  0.
        -13    1    3    3    0    0  0.10967275495E+02 -0.31040553528E+02  0.11460481141E+03  0.11923955324E+03  0.10566000000E+00 0.  1.
         13    1    4    4    0    0 -0.20382480476E+01  0.70797859036E+01  0.94306374530E+02  0.94593769692E+02  0.10566000000E+00 0. -1.
        -13    1    4    4    0    0 -0.15346937597E+01  0.37675866508E+01  0.43790747035E+02  0.43979434785E+02  0.10566000000E+00 0.  1.
         14    1    4    4    0    0 -0.73943336878E+01  0.20193180973E+02  0.25580716738E+03  0.25670946148E+03  0.00000000000E+00 0. -1.
<mgrwt>
<rscale>  0 0.78432193E+02</rscale>
<asrwt>0</asrwt>
<pdfrwt beam="1">  1        2 0.78694634E-01 0.78432193E+02</pdfrwt>
<pdfrwt beam="2">  1       -1 0.46254809E-03 0.78432193E+02</pdfrwt>
<totfact> 0.32293267E+05</totfact>
</mgrwt>
</event>
<event>
 8    1  0.1226832E-020  0.8108244E+02  0.7818608E-02  0.1326007E+00
         -1   -1    0    0    0  501 -0.00000000000E+00  0.00000000000E+00  0.20609515031E+02  0.20609515648E+02  0.50400000000E-02 0.  1.
          2   -1    0    0  501    0  0.00000000000E+00 -0.00000000000E+00 -0.79749119302E+02  0.79749119343E+02  0.25500000000E-02 0. -1.
         24    2    1    2    0    0 -0.17763568394E-14 -0.71054273576E-14 -0.59139604271E+02  0.10035863499E+03  0.81082444609E+02 0.  0.
         66    2    3    3    0    0  0.14286335517E+02  0.36788660051E+02 -0.40937235026E+02  0.56897821595E+02  0.19999999476E+01 0.  0.
        -13    1    3    3    0    0 -0.14286335517E+02 -0.36788660051E+02 -0.18202369245E+02  0.43460813396E+02  0.10566000000E+00 0.  1.
         13    1    4    4    0    0  0.55728356367E+01  0.13036920712E+02 -0.14719854397E+02  0.20437785501E+02  0.10566000000E+00 0. -1.
        -13    1    4    4    0    0  0.66169539821E+01  0.17669293367E+02 -0.20376890338E+02  0.27770790986E+02  0.10566000000E+00 0.  1.
        -14    1    4    4    0    0  0.20965458978E+01  0.60824459716E+01 -0.58404902916E+01  0.86892451079E+01  0.00000000000E+00 0.  1.
<mgrwt>
<rscale>  0 0.81082445E+02</rscale>
<asrwt>0</asrwt>
<pdfrwt beam="1">  1        2 0.12269095E-01 0.81082445E+02</pdfrwt>
<pdfrwt beam="2">  1       -1 0.31706947E-02 0.81082445E+02</pdfrwt>
<totfact> 0.16088035E+05</totfact>
</mgrwt>
</event>
<event>
 8    1  0.1226832E-020  0.8046490E+02  0.7818608E-02  0.1327737E+00
          2   -1    0    0  501    0  0.00000000000E+00  0.00000000000E+00  0.19112646185E+03  0.19112646187E+03  0.25500000000E-02 0. -1.
         -1   -1    0    0    0  501 -0.00000000000E+00 -0.00000000000E+00 -0.84689988254E+01  0.84690003250E+01  0.50400000000E-02 0.  1.
         24    2    1    2    0    0  0.00000000000E+00  0.00000000000E+00  0.18265746303E+03  0.19959546219E+03  0.80464897497E+02 0.  0.
         66    2    3    3    0    0  0.34155815049E+02  0.20513192034E+02  0.77973108354E+02  0.87585480378E+02  0.19999994112E+01 0.  0.
        -13    1    3    3    0    0 -0.34155815049E+02 -0.20513192034E+02  0.10468435467E+03  0.11200998182E+03  0.10566000000E+00 0.  1.
         13    1    4    4    0    0  0.35864442322E+01  0.22718908081E+01  0.84967325787E+01  0.94989314465E+01  0.10566000000E+00 0. -1.
        -13    1    4    4    0    0  0.19428122049E+02  0.12408275624E+02  0.43822424986E+02  0.49515990609E+02  0.10566000000E+00 0.  1.
        -14    1    4    4    0    0  0.11141248768E+02  0.58330256013E+01  0.25653950789E+02  0.28570558323E+02  0.00000000000E+00 0.  1.
<mgrwt>
<rscale>  0 0.80464897E+02</rscale>
<asrwt>0</asrwt>
<pdfrwt beam="1">  1        2 0.29404071E-01 0.80464897E+02</pdfrwt>
<pdfrwt beam="2">  1       -1 0.13029230E-02 0.80464897E+02</pdfrwt>
<totfact> 0.21385318E+05</totfact>
</mgrwt>
</event>
<event>
 8    1  0.1226832E-020  0.7771460E+02  0.7818608E-02  0.1335665E+00
         -1   -1    0    0    0  501 -0.00000000000E+00  0.00000000000E+00  0.32165179606E+01  0.32165219092E+01  0.50400000000E-02 0.  1.
          2   -1    0    0  501    0  0.00000000000E+00 -0.00000000000E+00 -0.46941719510E+03  0.46941719510E+03  0.25500000000E-02 0. -1.
         24    2    1    2    0    0  0.00000000000E+00  0.17763568394E-14 -0.46620067714E+03  0.47263371701E+03  0.77714600271E+02 0.  0.
         66    2    3    3    0    0 -0.24087796466E+02  0.15361330082E+02 -0.39320221135E+03  0.39424379693E+03  0.20000003526E+01 0.  0.
        -13    1    3    3    0    0  0.24087796466E+02 -0.15361330082E+02 -0.72998465783E+02  0.78389920087E+02  0.10566000000E+00 0.  1.
         13    1    4    4    0    0 -0.89159810482E+00  0.81698599349E+00 -0.16594658635E+02  0.16638998544E+02  0.10566000000E+00 0. -1.
        -13    1    4    4    0    0 -0.44732276209E+01  0.29706772313E+01 -0.82617662135E+02  0.82792052452E+02  0.10566000000E+00 0.  1.
         14    1    4    4    0    0 -0.18722970740E+02  0.11573666858E+02 -0.29398989058E+03  0.29481274593E+03  0.00000000000E+00 0. -1.
<mgrwt>
<rscale>  0 0.77714600E+02</rscale>
<asrwt>0</asrwt>
<pdfrwt beam="1">  1        2 0.72217976E-01 0.77714600E+02</pdfrwt>
<pdfrwt beam="2">  1       -1 0.49484960E-03 0.77714600E+02</pdfrwt>
<totfact> 0.32173624E+05</totfact>
</mgrwt>
</event>
<event>
 8    1  0.1226832E-020  0.7473062E+02  0.7818608E-02  0.1344707E+00
         -1   -1    0    0    0  501 -0.00000000000E+00  0.00000000000E+00  0.91083094764E+01  0.91083108709E+01  0.50400000000E-02 0.  1.
          2   -1    0    0  501    0  0.00000000000E+00 -0.00000000000E+00 -0.15328488884E+03  0.15328488887E+03  0.25500000000E-02 0. -1.
         24    2    1    2    0    0  0.00000000000E+00 -0.55511151231E-16 -0.14417657937E+03  0.16239319974E+03  0.74730618105E+02 0.  0.
         66    2    3    3    0    0  0.37224023311E+02 -0.30111607248E+00 -0.78453916702E+02  0.86860437743E+02  0.20000041921E+01 0.  0.
        -13    1    3    3    0    0 -0.37224023311E+02  0.30111607248E+00 -0.65722662666E+02  0.75532761993E+02  0.10566000000E+00 0.  1.
         13    1    4    4    0    0  0.19426185649E+02  0.41042851565E+00 -0.42030099966E+02  0.46304272024E+02  0.10566000000E+00 0.  1.
        -13    1    4    4    0    0  0.10129484064E+02 -0.24444368352E+00 -0.19759420094E+02  0.22206126330E+02  0.10566000000E+00 0. -1.
        -14    1    4    4    0    0  0.76683535977E+01 -0.46710090461E+00 -0.16664396641E+02  0.18350039389E+02  0.00000000000E+00 0.  1.
<mgrwt>
<rscale>  0 0.74730618E+02</rscale>
<asrwt>0</asrwt>
<pdfrwt beam="1">  1        2 0.23582289E-01 0.74730618E+02</pdfrwt>
<pdfrwt beam="2">  1       -1 0.14012786E-02 0.74730618E+02</pdfrwt>
<totfact> 0.24149039E+05</totfact>
</mgrwt>
</event>
<event>
 8    1  0.1226832E-020  0.7885695E+02  0.7818608E-02  0.1332327E+00
          2   -1    0    0  501    0  0.00000000000E+00  0.00000000000E+00  0.34484375041E+03  0.34484375042E+03  0.25500000000E-02 0. -1.
         -1   -1    0    0    0  501 -0.00000000000E+00 -0.00000000000E+00 -0.45081402473E+01  0.45081430646E+01  0.50400000000E-02 0.  1.
         24    2    1    2    0    0  0.00000000000E+00  0.88817841970E-15  0.34033561016E+03  0.34935189349E+03  0.78856946023E+02 0.  0.
         66    2    3    3    0    0 -0.15826677629E+02  0.67661065052E+01  0.32730455695E+03  0.32776292793E+03  0.19999998082E+01 0.  0.
        -13    1    3    3    0    0  0.15826677629E+02 -0.67661065052E+01  0.13031053210E+02  0.21588965557E+02  0.10566000000E+00 0.  1.
         13    1    4    4    0    0 -0.79517145819E+00  0.32336936496E+00  0.17791263149E+02  0.17812273125E+02  0.10566000000E+00 0. -1.
        -13    1    4    4    0    0 -0.34159956709E+01  0.92986826246E+00  0.56532663892E+02  0.56643507414E+02  0.10566000000E+00 0.  1.
         14    1    4    4    0    0 -0.11615510500E+02  0.55128688778E+01  0.25298062991E+03  0.25330714739E+03  0.00000000000E+00 0. -1.
<mgrwt>
<rscale>  0 0.78856946E+02</rscale>
<asrwt>0</asrwt>
<pdfrwt beam="1">  1        2 0.53052896E-01 0.78856946E+02</pdfrwt>
<pdfrwt beam="2">  1       -1 0.69356012E-03 0.78856946E+02</pdfrwt>
<totfact> 0.27835102E+05</totfact>
</mgrwt>
</event>
<event>
 8    1  0.1226832E-020  0.7975651E+02  0.7818608E-02  0.1329744E+00
         -1   -1    0    0    0  501 -0.00000000000E+00  0.00000000000E+00  0.67480073483E+02  0.67480073671E+02  0.50400000000E-02 0.  1.
          2   -1    0    0  501    0  0.00000000000E+00 -0.00000000000E+00 -0.23566588796E+02  0.23566588933E+02  0.25500000000E-02 0. -1.
         24    2    1    2    0    0  0.00000000000E+00  0.00000000000E+00  0.43913484687E+02  0.91046662604E+02  0.79756508412E+02 0.  0.
         66    2    3    3    0    0 -0.17105919880E+02 -0.31554156821E+02  0.21983840968E+01  0.36015416126E+02  0.19999996150E+01 0.  0.
        -13    1    3    3    0    0  0.17105919880E+02  0.31554156821E+02  0.41715100590E+02  0.55031246478E+02  0.10566000000E+00 0.  1.
         13    1    4    4    0    0 -0.75032278904E+01 -0.12208845509E+02  0.12059353953E+01  0.14381230185E+02  0.10566000000E+00 0. -1.
        -13    1    4    4    0    0 -0.21361642017E+01 -0.37070753060E+01  0.32336158831E+00  0.42920078720E+01  0.10566000000E+00 0.  1.
        -14    1    4    4    0    0 -0.74665277879E+01 -0.15638236007E+02  0.66908711320E+00  0.17342178069E+02  0.00000000000E+00 0.  1.
<mgrwt>
<rscale>  0 0.79756508E+02</rscale>
<asrwt>0</asrwt>
<pdfrwt beam="1">  1        2 0.36256291E-02 0.79756508E+02</pdfrwt>
<pdfrwt beam="2">  1       -1 0.10381550E-01 0.79756508E+02</pdfrwt>
<totfact> 0.12941349E+05</totfact>
</mgrwt>
</event>
<event>
 8    1  0.1226832E-020  0.8124223E+02  0.7818608E-02  0.1325563E+00
          2   -1    0    0  501    0  0.00000000000E+00  0.00000000000E+00  0.19188625807E+03  0.19188625809E+03  0.25500000000E-02 0. -1.
         -1   -1    0    0    0  501 -0.00000000000E+00 -0.00000000000E+00 -0.85992342550E+01  0.85992357320E+01  0.50400000000E-02 0.  1.
         24    2    1    2    0    0  0.00000000000E+00  0.00000000000E+00  0.18328702382E+03  0.20048549382E+03  0.81242231216E+02 0.  0.
         66    2    3    3    0    0 -0.31135246538E+01 -0.40405601351E+02  0.97623239792E+02  0.10571945711E+03  0.20000019978E+01 0.  0.
        -13    1    3    3    0    0  0.31135246538E+01  0.40405601351E+02  0.85663784026E+02  0.94766036712E+02  0.10566000000E+00 0.  1.
         13    1    4    4    0    0 -0.13028887791E+01 -0.12563784807E+02  0.32647276086E+02  0.35005742496E+02  0.10566000000E+00 0. -1.
        -13    1    4    4    0    0 -0.12890266884E+01 -0.21707176283E+02  0.50726419764E+02  0.55190976781E+02  0.10566000000E+00 0.  1.
         14    1    4    4    0    0 -0.52160918617E+00 -0.61346402600E+01  0.14249543942E+02  0.15522737833E+02  0.00000000000E+00 0. -1.
<mgrwt>
<rscale>  0 0.81242231E+02</rscale>
<asrwt>0</asrwt>
<pdfrwt beam="1">  1        2 0.29520958E-01 0.81242231E+02</pdfrwt>
<pdfrwt beam="2">  1       -1 0.13229594E-02 0.81242231E+02</pdfrwt>
<totfact> 0.20877170E+05</totfact>
</mgrwt>
</event>
<event>
 8    1  0.1226832E-020  0.8127850E+02  0.7818608E-02  0.1325462E+00
          2   -1    0    0  501    0  0.00000000000E+00  0.00000000000E+00  0.54649319402E+02  0.54649319461E+02  0.25500000000E-02 0. -1.
         -1   -1    0    0    0  501 -0.00000000000E+00 -0.00000000000E+00 -0.30220845811E+02  0.30220846231E+02  0.50400000000E-02 0.  1.
         24    2    1    2    0    0  0.00000000000E+00  0.00000000000E+00  0.24428473591E+02  0.84870165692E+02  0.81278500864E+02 0.  0.
         66    2    3    3    0    0 -0.51799368471E+01 -0.15547074823E+02  0.51025591505E+02  0.53629789147E+02  0.20000035671E+01 0.  0.
        -13    1    3    3    0    0  0.51799368471E+01  0.15547074823E+02 -0.26597117914E+02  0.31240376545E+02  0.10566000000E+00 0.  1.
         13    1    4    4    0    0 -0.18790434794E+01 -0.82368610942E+01  0.25066913084E+02  0.26452560948E+02  0.10566000000E+00 0. -1.
        -13    1    4    4    0    0 -0.14705793995E+01 -0.28748543028E+01  0.95754396682E+01  0.10105820101E+02  0.10566000000E+00 0.  1.
         14    1    4    4    0    0 -0.18303139682E+01 -0.44353594257E+01  0.16383238753E+02  0.17071408099E+02  0.00000000000E+00 0. -1.
<mgrwt>
<rscale>  0 0.81278501E+02</rscale>
<asrwt>0</asrwt>
<pdfrwt beam="1">  1        2 0.84075877E-02 0.81278501E+02</pdfrwt>
<pdfrwt beam="2">  1       -1 0.46493609E-02 0.81278501E+02</pdfrwt>
<totfact> 0.14592835E+05</totfact>
</mgrwt>
</event>
<event>
 8    1  0.1226832E-020  0.7897407E+02  0.7818608E-02  0.1331988E+00
          2   -1    0    0  501    0  0.00000000000E+00  0.00000000000E+00  0.13311681595E+03  0.13311681598E+03  0.25500000000E-02 0. -1.
         -1   -1    0    0    0  501 -0.00000000000E+00 -0.00000000000E+00 -0.11713214058E+02  0.11713215142E+02  0.50400000000E-02 0.  1.
         24    2    1    2    0    0  0.35527136788E-14 -0.35527136788E-14  0.12140360190E+03  0.14483003112E+03  0.78974067650E+02 0.  0.
         66    2    3    3    0    0  0.16426896368E+02 -0.27876671535E+02  0.10216669690E+03  0.10718668618E+03  0.19999999309E+01 0.  0.
        -13    1    3    3    0    0 -0.16426896368E+02  0.27876671535E+02  0.19236904997E+02  0.37643344936E+02  0.10566000000E+00 0.  1.
         13    1    4    4    0    0  0.67908653165E+00 -0.11410106526E+01  0.34669683968E+01  0.37140406200E+01  0.10566000000E+00 0. -1.
        -13    1    4    4    0    0  0.17319323338E+01 -0.22573737064E+01  0.98147816407E+01  0.10219414286E+02  0.10566000000E+00 0.  1.
         14    1    4    4    0    0  0.14015877502E+02 -0.24478287175E+02  0.88884946862E+02  0.93253231279E+02  0.00000000000E+00 0. -1.
<mgrwt>
<rscale>  0 0.78974068E+02</rscale>
<asrwt>0</asrwt>
<pdfrwt beam="1">  1        2 0.20479511E-01 0.78974068E+02</pdfrwt>
<pdfrwt beam="2">  1       -1 0.18020330E-02 0.78974068E+02</pdfrwt>
<totfact> 0.19960604E+05</totfact>
</mgrwt>
</event>
<event>
 8    1  0.1226832E-020  0.8063996E+02  0.7818608E-02  0.1327245E+00
          2   -1    0    0  501    0  0.00000000000E+00  0.00000000000E+00  0.47965487189E+01  0.47965493967E+01  0.25500000000E-02 0. -1.
         -1   -1    0    0    0  501 -0.00000000000E+00 -0.00000000000E+00 -0.33893132905E+03  0.33893132909E+03  0.50400000000E-02 0.  1.
         24    2    1    2    0    0  0.00000000000E+00  0.17763568394E-14 -0.33413478033E+03  0.34372787848E+03  0.80639959203E+02 0.  0.
         66    2    3    3    0    0  0.39319111583E+02  0.80475037457E+01 -0.18250358767E+03  0.18687513033E+03  0.19999926154E+01 0.  0.
        -13    1    3    3    0    0 -0.39319111583E+02 -0.80475037457E+01 -0.15163119266E+03  0.15685274815E+03  0.10566000000E+00 0.  1.
         13    1    4    4    0    0  0.26940467616E+02  0.63705985519E+01 -0.12599005235E+03  0.12899565022E+03  0.10566000000E+00 0. -1.
        -13    1    4    4    0    0  0.55232220286E+01  0.70205919296E+00 -0.24222379417E+02  0.24854249081E+02  0.10566000000E+00 0.  1.
        -14    1    4    4    0    0  0.68554219392E+01  0.97484600080E+00 -0.32291155906E+02  0.33025231028E+02  0.00000000000E+00 0.  1.
<mgrwt>
<rscale>  0 0.80639959E+02</rscale>
<asrwt>0</asrwt>
<pdfrwt beam="1">  1        2 0.73793089E-03 0.80639959E+02</pdfrwt>
<pdfrwt beam="2">  1       -1 0.52143263E-01 0.80639959E+02</pdfrwt>
<totfact> 0.80397614E+04</totfact>
</mgrwt>
</event>
<event>
 8    1  0.1226832E-020  0.8035837E+02  0.7818608E-02  0.1328037E+00
          2   -1    0    0  501    0  0.00000000000E+00  0.00000000000E+00  0.17113316446E+02  0.17113316636E+02  0.25500000000E-02 0. -1.
         -1   -1    0    0    0  501 -0.00000000000E+00 -0.00000000000E+00 -0.94333960244E+02  0.94333960379E+02  0.50400000000E-02 0.  1.
         24    2    1    2    0    0  0.00000000000E+00  0.00000000000E+00 -0.77220643799E+02  0.11144727701E+03  0.80358370599E+02 0.  0.
         66    2    3    3    0    0 -0.11209991570E+02  0.18509733726E+02  0.82761075966E+01  0.23254421200E+02  0.19999986928E+01 0.  0.
        -13    1    3    3    0    0  0.11209991570E+02 -0.18509733726E+02 -0.85496751395E+02  0.88192855815E+02  0.10566000000E+00 0.  1.
         13    1    4    4    0    0 -0.32373792277E+01  0.53678089947E+01  0.23803661193E+01  0.67060647600E+01  0.10566000000E+00 0. -1.
        -13    1    4    4    0    0 -0.65229393868E+01  0.93975133810E+01  0.45850718999E+01  0.12324611327E+02  0.10566000000E+00 0.  1.
        -14    1    4    4    0    0 -0.14496729554E+01  0.37444113503E+01  0.13106695773E+01  0.42237451129E+01  0.00000000000E+00 0.  1.
<mgrwt>
<rscale>  0 0.80358371E+02</rscale>
<asrwt>0</asrwt>
<pdfrwt beam="1">  1        2 0.26328180E-02 0.80358371E+02</pdfrwt>
<pdfrwt beam="2">  1       -1 0.14512917E-01 0.80358371E+02</pdfrwt>
<totfact> 0.11868144E+05</totfact>
</mgrwt>
</event>
<event>
 8    1  0.1226832E-020  0.8072269E+02  0.7818608E-02  0.1327013E+00
          2   -1    0    0  501    0  0.00000000000E+00  0.00000000000E+00  0.11757450775E+03  0.11757450778E+03  0.25500000000E-02 0. -1.
         -1   -1    0    0    0  501 -0.00000000000E+00 -0.00000000000E+00 -0.13855367517E+02  0.13855368434E+02  0.50400000000E-02 0.  1.
         24    2    1    2    0    0  0.35527136788E-14  0.00000000000E+00  0.10371914023E+03  0.13142987621E+03  0.80722687705E+02 0.  0.
         66    2    3    3    0    0 -0.28384247855E+02  0.16834920508E+02  0.89654678932E+02  0.95556483418E+02  0.19999985358E+01 0.  0.
        -13    1    3    3    0    0  0.28384247855E+02 -0.16834920508E+02  0.14064461302E+02  0.35873392794E+02  0.10566000000E+00 0.  1.
         13    1    4    4    0    0 -0.25631661212E+02  0.15415751789E+02  0.79615249131E+02  0.85048377516E+02  0.10566000000E+00 0. -1.
        -13    1    4    4    0    0 -0.24393384909E+01  0.13099813310E+01  0.88968904476E+01  0.93183822112E+01  0.10566000000E+00 0.  1.
         14    1    4    4    0    0 -0.31324815175E+00  0.10918738764E+00  0.11425393526E+01  0.11897236916E+01  0.00000000000E+00 0. -1.
<mgrwt>
<rscale>  0 0.80722688E+02</rscale>
<asrwt>0</asrwt>
<pdfrwt beam="1">  1        2 0.18088386E-01 0.80722688E+02</pdfrwt>
<pdfrwt beam="2">  1       -1 0.21315951E-02 0.80722688E+02</pdfrwt>
<totfact> 0.18132603E+05</totfact>
</mgrwt>
</event>
<event>
 8    1  0.1226832E-020  0.7930058E+02  0.7818608E-02  0.1331048E+00
         -1   -1    0    0    0  501 -0.00000000000E+00  0.00000000000E+00  0.16403583962E+01  0.16403661389E+01  0.50400000000E-02 0.  1.
          2   -1    0    0  501    0  0.00000000000E+00 -0.00000000000E+00 -0.95841351718E+03  0.95841351719E+03  0.25500000000E-02 0. -1.
         24    2    1    2    0    0  0.00000000000E+00  0.17763568394E-14 -0.95677315879E+03  0.96005388333E+03  0.79300577004E+02 0.  0.
         66    2    3    3    0    0  0.24153547329E+02 -0.11313034113E+02 -0.83346716053E+03  0.83389620834E+03  0.20000000238E+01 0.  0.
        -13    1    3    3    0    0 -0.24153547329E+02  0.11313034113E+02 -0.12330599825E+03  0.12615767499E+03  0.10566000000E+00 0.  1.
         13    1    4    4    0    0  0.18346983395E+02 -0.81288148088E+01 -0.63844730174E+03  0.63876259885E+03  0.10566000000E+00 0. -1.
        -13    1    4    4    0    0  0.12264978764E+01 -0.37405660643E+00 -0.35926516058E+02  0.35949547083E+02  0.10566000000E+00 0.  1.
         14    1    4    4    0    0  0.45800660577E+01 -0.28101626975E+01 -0.15909334274E+03  0.15918406240E+03  0.00000000000E+00 0. -1.
<mgrwt>
<rscale>  0 0.79300577E+02</rscale>
<asrwt>0</asrwt>
<pdfrwt beam="1">  1        2 0.14744779E+00 0.79300577E+02</pdfrwt>
<pdfrwt beam="2">  1       -1 0.25236419E-03 0.79300577E+02</pdfrwt>
<totfact> 0.35956806E+05</totfact>
</mgrwt>
</event>
<event>
 8    1  0.1226832E-020  0.8366206E+02  0.7818608E-02  0.1318969E+00
          2   -1    0    0  501    0  0.00000000000E+00  0.00000000000E+00  0.13601630680E+03  0.13601630683E+03  0.25500000000E-02 0. -1.
         -1   -1    0    0    0  501 -0.00000000000E+00 -0.00000000000E+00 -0.12864892187E+02  0.12864893174E+02  0.50400000000E-02 0.  1.
         24    2    1    2    0    0  0.00000000000E+00  0.17763568394E-14  0.12315141462E+03  0.14888120000E+03  0.83662063037E+02 0.  0.
         66    2    3    3    0    0  0.39072620098E+02  0.14687768430E+02  0.57464017371E+02  0.71052892145E+02  0.20000017623E+01 0.  0.
        -13    1    3    3    0    0 -0.39072620098E+02 -0.14687768430E+02  0.65687397245E+02  0.77828307855E+02  0.10566000000E+00 0.  1.
         13    1    4    4    0    0  0.32538520947E+02  0.12627830039E+02  0.47063824474E+02  0.58593789561E+02  0.10566000000E+00 0. -1.
        -13    1    4    4    0    0  0.47608271763E+01  0.16155050326E+01  0.74431411105E+01  0.89825856822E+01  0.10566000000E+00 0.  1.
         14    1    4    4    0    0  0.17732719741E+01  0.44443335854E+00  0.29570517866E+01  0.34765169025E+01  0.00000000000E+00 0. -1.
<mgrwt>
<rscale>  0 0.83662063E+02</rscale>
<asrwt>0</asrwt>
<pdfrwt beam="1">  1        2 0.20925586E-01 0.83662063E+02</pdfrwt>
<pdfrwt beam="2">  1       -1 0.19792142E-02 0.83662063E+02</pdfrwt>
<totfact> 0.17233491E+05</totfact>
</mgrwt>
</event>
<event>
 8    1  0.1226832E-020  0.8290058E+02  0.7818608E-02  0.1321016E+00
          2   -1    0    0  501    0  0.00000000000E+00  0.00000000000E+00  0.17848678183E+03  0.17848678184E+03  0.25500000000E-02 0. -1.
         -1   -1    0    0    0  501 -0.00000000000E+00 -0.00000000000E+00 -0.96260705278E+01  0.96260718472E+01  0.50400000000E-02 0.  1.
         24    2    1    2    0    0  0.00000000000E+00  0.00000000000E+00  0.16886071130E+03  0.18811285369E+03  0.82900578429E+02 0.  0.
         66    2    3    3    0    0  0.28863351085E+02  0.29715663479E+02  0.84279193921E+02  0.93931337789E+02  0.19999997491E+01 0.  0.
        -13    1    3    3    0    0 -0.28863351085E+02 -0.29715663479E+02  0.84581517377E+02  0.94181515902E+02  0.10566000000E+00 0.  1.
         13    1    4    4    0    0  0.16832223186E+02  0.17915391412E+02  0.49120933532E+02  0.54928701622E+02  0.10566000000E+00 0. -1.
        -13    1    4    4    0    0  0.44772276208E+01  0.43887326308E+01  0.11938770531E+02  0.13485249242E+02  0.10566000000E+00 0.  1.
         14    1    4    4    0    0  0.75539002779E+01  0.74115394357E+01  0.23219489858E+02  0.25517386925E+02  0.00000000000E+00 0. -1.
<mgrwt>
<rscale>  0 0.82900578E+02</rscale>
<asrwt>0</asrwt>
<pdfrwt beam="1">  1        2 0.27459505E-01 0.82900578E+02</pdfrwt>
<pdfrwt beam="2">  1       -1 0.14809340E-02 0.82900578E+02</pdfrwt>
<totfact> 0.19303460E+05</totfact>
</mgrwt>
</event>
<event>
 8    1  0.1226832E-020  0.8054533E+02  0.7818608E-02  0.1327511E+00
          2   -1    0    0  501    0  0.00000000000E+00  0.00000000000E+00  0.12458279296E+03  0.12458279298E+03  0.25500000000E-02 0. -1.
         -1   -1    0    0    0  501 -0.00000000000E+00 -0.00000000000E+00 -0.13018550758E+02  0.13018551733E+02  0.50400000000E-02 0.  1.
         24    2    1    2    0    0 -0.71054273576E-14 -0.88817841970E-15  0.11156424220E+03  0.13760134472E+03  0.80545328420E+02 0.  0.
         66    2    3    3    0    0 -0.38188188327E+02 -0.41796975751E+01  0.35310628248E+02  0.52217315741E+02  0.19999990924E+01 0.  0.
        -13    1    3    3    0    0  0.38188188327E+02  0.41796975751E+01  0.76253613951E+02  0.85384028976E+02  0.10566000000E+00 0.  1.
         13    1    4    4    0    0 -0.25066517252E+02 -0.18576448483E+01  0.23500324917E+02  0.34410137558E+02  0.10566000000E+00 0. -1.
        -13    1    4    4    0    0 -0.70072117013E+01 -0.12315644872E+01  0.62093859316E+01  0.94438024438E+01  0.10566000000E+00 0.  1.
         14    1    4    4    0    0 -0.61144593739E+01 -0.10904882396E+01  0.56009173994E+01  0.83633757389E+01  0.00000000000E+00 0. -1.
<mgrwt>
<rscale>  0 0.80545328E+02</rscale>
<asrwt>0</asrwt>
<pdfrwt beam="1">  1        2 0.19166583E-01 0.80545328E+02</pdfrwt>
<pdfrwt beam="2">  1       -1 0.20028541E-02 0.80545328E+02</pdfrwt>
<totfact> 0.18559778E+05</totfact>
</mgrwt>
</event>
<event>
 8    1  0.1226832E-020  0.7916841E+02  0.7818608E-02  0.1331428E+00
         -1   -1    0    0    0  501 -0.00000000000E+00  0.00000000000E+00  0.24326614129E+01  0.24326666338E+01  0.50400000000E-02 0.  1.
          2   -1    0    0  501    0  0.00000000000E+00 -0.00000000000E+00 -0.64411255196E+03  0.64411255196E+03  0.25500000000E-02 0. -1.
         24    2    1    2    0    0  0.88817841970E-15 -0.71054273576E-14 -0.64167989054E+03  0.64654521859E+03  0.79168413906E+02 0.  0.
         66    2    3    3    0    0  0.51657566352E+01 -0.21604060409E+02 -0.58836927808E+03  0.58879183746E+03  0.19999995946E+01 0.  0.
        -13    1    3    3    0    0 -0.51657566352E+01  0.21604060409E+02 -0.53310612462E+02  0.57753381138E+02  0.10566000000E+00 0.  1.
         13    1    4    4    0    0  0.33463685424E+01 -0.11124484217E+02 -0.31567298994E+03  0.31588668866E+03  0.10566000000E+00 0. -1.
        -13    1    4    4    0    0  0.18452568103E+01 -0.88363791510E+01 -0.22795085603E+03  0.22812954762E+03  0.10566000000E+00 0.  1.
        -14    1    4    4    0    0 -0.25868717450E-01 -0.16431970411E+01 -0.44745432110E+02  0.44775601174E+02  0.00000000000E+00 0.  1.
<mgrwt>
<rscale>  0 0.79168414E+02</rscale>
<asrwt>0</asrwt>
<pdfrwt beam="1">  1        2 0.99094103E-01 0.79168414E+02</pdfrwt>
<pdfrwt beam="2">  1       -1 0.37425652E-03 0.79168414E+02</pdfrwt>
<totfact> 0.33683560E+05</totfact>
</mgrwt>
</event>
<event>
 8    1  0.1226832E-020  0.8009874E+02  0.7818608E-02  0.1328771E+00
          2   -1    0    0  501    0  0.00000000000E+00  0.00000000000E+00  0.82583232292E+03  0.82583232293E+03  0.25500000000E-02 0. -1.
         -1   -1    0    0    0  501 -0.00000000000E+00 -0.00000000000E+00 -0.19422216395E+01  0.19422281788E+01  0.50400000000E-02 0.  1.
         24    2    1    2    0    0  0.00000000000E+00  0.00000000000E+00  0.82389010128E+03  0.82777455111E+03  0.80098741971E+02 0.  0.
         66    2    3    3    0    0  0.10484855766E+02 -0.33154075207E+02  0.61702684999E+03  0.61800910876E+03  0.19999992693E+01 0.  0.
        -13    1    3    3    0    0 -0.10484855766E+02  0.33154075207E+02  0.20686325130E+03  0.20976544235E+03  0.10566000000E+00 0.  1.
         13    1    4    4    0    0  0.59393828984E+01 -0.20796965043E+02  0.38261379060E+03  0.38322462596E+03  0.10566000000E+00 0. -1.
        -13    1    4    4    0    0  0.41232880165E+01 -0.11808793323E+02  0.22155645273E+03  0.22190926527E+03  0.10566000000E+00 0.  1.
        -14    1    4    4    0    0  0.42218485144E+00 -0.54831684111E+00  0.12856606658E+02  0.12875217519E+02  0.00000000000E+00 0.  1.
<mgrwt>
<rscale>  0 0.80098742E+02</rscale>
<asrwt>0</asrwt>
<pdfrwt beam="1">  1        2 0.12705146E+00 0.80098742E+02</pdfrwt>
<pdfrwt beam="2">  1       -1 0.29880306E-03 0.80098742E+02</pdfrwt>
<totfact> 0.34435531E+05</totfact>
</mgrwt>
</event>
<event>
 8    1  0.1226832E-020  0.8445034E+02  0.7818608E-02  0.1316876E+00
         -1   -1    0    0    0  501 -0.00000000000E+00  0.00000000000E+00  0.65522189452E+01  0.65522208836E+01  0.50400000000E-02 0.  1.
          2   -1    0    0  501    0  0.00000000000E+00 -0.00000000000E+00 -0.27211617794E+03  0.27211617795E+03  0.25500000000E-02 0. -1.
         24    2    1    2    0    0 -0.17763568394E-14 -0.35527136788E-14 -0.26556395900E+03  0.27866839884E+03  0.84450341577E+02 0.  0.
         66    2    3    3    0    0 -0.11505928432E+02 -0.16625248774E+02 -0.25508996208E+03  0.25589778046E+03  0.20000010651E+01 0.  0.
        -13    1    3    3    0    0  0.11505928432E+02  0.16625248774E+02 -0.10473996918E+02  0.22770618379E+02  0.10566000000E+00 0.  1.
         13    1    4    4    0    0 -0.41154301045E+01 -0.58968140978E+01 -0.99029608129E+02  0.99290400501E+02  0.10566000000E+00 0. -1.
        -13    1    4    4    0    0 -0.53343773800E+01 -0.69849970289E+01 -0.10114439158E+03  0.10152558731E+03  0.10566000000E+00 0.  1.
         14    1    4    4    0    0 -0.20561209474E+01 -0.37434376476E+01 -0.54915962367E+02  0.55081792649E+02  0.00000000000E+00 0. -1.
<mgrwt>
<rscale>  0 0.84450342E+02</rscale>
<asrwt>0</asrwt>
<pdfrwt beam="1">  1        2 0.41864019E-01 0.84450342E+02</pdfrwt>
<pdfrwt beam="2">  1       -1 0.10080340E-02 0.84450342E+02</pdfrwt>
<totfact> 0.21340370E+05</totfact>
</mgrwt>
</event>
<event>
 8    1  0.1226832E-020  0.7949709E+02  0.7818608E-02  0.1330485E+00
          2   -1    0    0  501    0  0.00000000000E+00  0.00000000000E+00  0.10288318757E+04  0.10288318757E+04  0.25500000000E-02 0. -1.
         -1   -1    0    0    0  501 -0.00000000000E+00 -0.00000000000E+00 -0.15356665664E+01  0.15356748369E+01  0.50400000000E-02 0.  1.
         24    2    1    2    0    0  0.00000000000E+00  0.35527136788E-14  0.10272962091E+04  0.10303675505E+04  0.79497093693E+02 0.  0.
         66    2    3    3    0    0 -0.91603579538E+01  0.22035917384E+02  0.92556505639E+03  0.92587481196E+03  0.20000009150E+01 0.  0.
        -13    1    3    3    0    0  0.91603579538E+01 -0.22035917384E+02  0.10173115273E+03  0.10449273857E+03  0.10566000000E+00 0.  1.
         13    1    4    4    0    0 -0.37259228632E+01  0.97275544935E+01  0.36974892324E+03  0.36989564098E+03  0.10566000000E+00 0. -1.
        -13    1    4    4    0    0 -0.10697026979E+01  0.28639588845E+01  0.12759623268E+03  0.12763289655E+03  0.10566000000E+00 0.  1.
         14    1    4    4    0    0 -0.43647323928E+01  0.94444040061E+01  0.42821990047E+03  0.42834627443E+03  0.00000000000E+00 0. -1.
<mgrwt>
<rscale>  0 0.79497094E+02</rscale>
<asrwt>0</asrwt>
<pdfrwt beam="1">  1        2 0.15828107E+00 0.79497094E+02</pdfrwt>
<pdfrwt beam="2">  1       -1 0.23625817E-03 0.79497094E+02</pdfrwt>
<totfact> 0.35844764E+05</totfact>
</mgrwt>
</event>
<event>
 8    1  0.1226832E-020  0.7784885E+02  0.7818608E-02  0.1335269E+00
          2   -1    0    0  501    0  0.00000000000E+00  0.00000000000E+00  0.96200783172E+03  0.96200783172E+03  0.25500000000E-02 0. -1.
         -1   -1    0    0    0  501 -0.00000000000E+00 -0.00000000000E+00 -0.15749425960E+01  0.15749506603E+01  0.50400000000E-02 0.  1.
         24    2    1    2    0    0 -0.17763568394E-14  0.00000000000E+00  0.96043288912E+03  0.96358278238E+03  0.77848853525E+02 0.  0.
         66    2    3    3    0    0  0.13919327784E+02 -0.21372495177E+02  0.84405828089E+03  0.84444592058E+03  0.20000000180E+01 0.  0.
        -13    1    3    3    0    0 -0.13919327784E+02  0.21372495177E+02  0.11637460823E+03  0.11913686181E+03  0.10566000000E+00 0.  1.
         13    1    4    4    0    0  0.47063612988E+01 -0.70495341104E+01  0.25868324883E+03  0.25882210137E+03  0.10566000000E+00 0. -1.
        -13    1    4    4    0    0  0.34854718025E+01 -0.52839514249E+01  0.19936640116E+03  0.19946689382E+03  0.10566000000E+00 0.  1.
         14    1    4    4    0    0  0.57274946825E+01 -0.90390096421E+01  0.38600863090E+03  0.38615692539E+03  0.00000000000E+00 0. -1.
<mgrwt>
<rscale>  0 0.77848854E+02</rscale>
<asrwt>0</asrwt>
<pdfrwt beam="1">  1        2 0.14800122E+00 0.77848854E+02</pdfrwt>
<pdfrwt beam="2">  1       -1 0.24229945E-03 0.77848854E+02</pdfrwt>
<totfact> 0.37730175E+05</totfact>
</mgrwt>
</event>
<event>
 8    1  0.1226832E-020  0.7937812E+02  0.7818608E-02  0.1330826E+00
         -1   -1    0    0    0  501 -0.00000000000E+00  0.00000000000E+00  0.60270977699E+01  0.60270998772E+01  0.50400000000E-02 0.  1.
          2   -1    0    0  501    0  0.00000000000E+00 -0.00000000000E+00 -0.26135648617E+03  0.26135648618E+03  0.25500000000E-02 0. -1.
         24    2    1    2    0    0 -0.17763568394E-14 -0.17763568394E-14 -0.25532938840E+03  0.26738358606E+03  0.79378117345E+02 0.  0.
         66    2    3    3    0    0  0.12562045075E+02  0.11353408549E+02 -0.24856606028E+03  0.24915013785E+03  0.20000015614E+01 0.  0.
        -13    1    3    3    0    0 -0.12562045075E+02 -0.11353408549E+02 -0.67633281151E+01  0.18233448203E+02  0.10566000000E+00 0.  1.
         13    1    4    4    0    0  0.24995727430E+01  0.21366096111E+01 -0.46794618587E+02  0.46910131713E+02  0.10566000000E+00 0. -1.
        -13    1    4    4    0    0  0.38936780735E+01  0.45848034103E+01 -0.94925165156E+02  0.95115610155E+02  0.10566000000E+00 0.  1.
        -14    1    4    4    0    0  0.61687942580E+01  0.46319955278E+01 -0.10684627654E+03  0.10712439599E+03  0.00000000000E+00 0.  1.
<mgrwt>
<rscale>  0 0.79378117E+02</rscale>
<asrwt>0</asrwt>
<pdfrwt beam="1">  1        2 0.40208682E-01 0.79378117E+02</pdfrwt>
<pdfrwt beam="2">  1       -1 0.92724618E-03 0.79378117E+02</pdfrwt>
<totfact> 0.24754935E+05</totfact>
</mgrwt>
</event>
<event>
 8    1  0.1226832E-020  0.8416423E+02  0.7818608E-02  0.1317633E+00
          2   -1    0    0  501    0  0.00000000000E+00  0.00000000000E+00  0.63548375660E+03  0.63548375661E+03  0.25500000000E-02 0. -1.
         -1   -1    0    0    0  501 -0.00000000000E+00 -0.00000000000E+00 -0.27867002889E+01  0.27867048466E+01  0.50400000000E-02 0.  1.
         24    2    1    2    0    0  0.00000000000E+00  0.00000000000E+00  0.63269705631E+03  0.63827046145E+03  0.84164225756E+02 0.  0.
         66    2    3    3    0    0  0.34987050798E+02 -0.21068301745E+02  0.39271561074E+03  0.39483859738E+03  0.20000004818E+01 0.  0.
        -13    1    3    3    0    0 -0.34987050798E+02  0.21068301745E+02  0.23998144557E+03  0.24343186407E+03  0.10566000000E+00 0.  1.
         13    1    4    4    0    0  0.13157157370E+02 -0.73712633405E+01  0.14940084961E+03  0.15016015231E+03  0.10566000000E+00 0. -1.
        -13    1    4    4    0    0  0.14307554361E+02 -0.90179280049E+01  0.16472578933E+03  0.16559174487E+03  0.10566000000E+00 0.  1.
        -14    1    4    4    0    0  0.75223390666E+01 -0.46791103999E+01  0.78588971802E+02  0.79086700197E+02  0.00000000000E+00 0.  1.
<mgrwt>
<rscale>  0 0.84164226E+02</rscale>
<asrwt>0</asrwt>
<pdfrwt beam="1">  1        2 0.97766706E-01 0.84164226E+02</pdfrwt>
<pdfrwt beam="2">  1       -1 0.42872359E-03 0.84164226E+02</pdfrwt>
<totfact> 0.28617846E+05</totfact>
</mgrwt>
</event>
<event>
 8    1  0.1226832E-020  0.7942644E+02  0.7818608E-02  0.1330687E+00
          2   -1    0    0  501    0  0.00000000000E+00  0.00000000000E+00  0.66649312832E+03  0.66649312833E+03  0.25500000000E-02 0. -1.
         -1   -1    0    0    0  501 -0.00000000000E+00 -0.00000000000E+00 -0.23663231461E+01  0.23663285134E+01  0.50400000000E-02 0.  1.
         24    2    1    2    0    0  0.00000000000E+00 -0.35527136788E-14  0.66412680518E+03  0.66885945684E+03  0.79426441765E+02 0.  0.
         66    2    3    3    0    0  0.24610043557E+02 -0.28082076572E+02  0.44552963675E+03  0.44709609089E+03  0.20000001429E+01 0.  0.
        -13    1    3    3    0    0 -0.24610043557E+02  0.28082076572E+02  0.21859716843E+03  0.22176336595E+03  0.10566000000E+00 0.  1.
         13    1    4    4    0    0  0.55399434403E+01 -0.72682958085E+01  0.11464934454E+03  0.11501305345E+03  0.10566000000E+00 0. -1.
        -13    1    4    4    0    0  0.78023751934E+01 -0.87801583093E+01  0.13432276788E+03  0.13483540104E+03  0.10566000000E+00 0.  1.
         14    1    4    4    0    0  0.11267724923E+02 -0.12033622454E+02  0.19655752432E+03  0.19724763639E+03  0.00000000000E+00 0. -1.
<mgrwt>
<rscale>  0 0.79426442E+02</rscale>
<asrwt>0</asrwt>
<pdfrwt beam="1">  1        2 0.10253751E+00 0.79426442E+02</pdfrwt>
<pdfrwt beam="2">  1       -1 0.36404974E-03 0.79426442E+02</pdfrwt>
<totfact> 0.33688293E+05</totfact>
</mgrwt>
</event>
<event>
 8    1  0.1241073E-020  0.8050180E+02  0.7818608E-02  0.1327633E+00
         -1   -1    0    0    0  501 -0.00000000000E+00  0.00000000000E+00  0.38928672239E+01  0.38928704865E+01  0.50400000000E-02 0.  1.
          2   -1    0    0  501    0  0.00000000000E+00 -0.00000000000E+00 -0.41618024152E+03  0.41618024153E+03  0.25500000000E-02 0. -1.
         24    2    1    2    0    0 -0.35527136788E-14  0.00000000000E+00 -0.41228737430E+03  0.42007311201E+03  0.80501803914E+02 0.  0.
         66    2    3    3    0    0 -0.25646956289E+02 -0.30822076393E+02 -0.22306905264E+03  0.22665297042E+03  0.19999985899E+01 0.  0.
        -13    1    3    3    0    0  0.25646956289E+02  0.30822076393E+02 -0.18921832166E+03  0.19342014160E+03  0.10566000000E+00 0.  1.
         13    1    4    4    0    0 -0.10196637259E+02 -0.12334908574E+02 -0.92037065881E+02  0.93418167617E+02  0.10566000000E+00 0. -1.
        -13    1    4    4    0    0 -0.13947028298E+02 -0.16048384161E+02 -0.11568882096E+03  0.11762646255E+03  0.10566000000E+00 0.  1.
        -14    1    4    4    0    0 -0.15032907321E+01 -0.24387836580E+01 -0.15343165792E+02  0.15608340247E+02  0.00000000000E+00 0.  1.
<mgrwt>
<rscale>  0 0.80501804E+02</rscale>
<asrwt>0</asrwt>
<pdfrwt beam="1">  1        2 0.64027695E-01 0.80501804E+02</pdfrwt>
<pdfrwt beam="2">  1       -1 0.59890323E-03 0.80501804E+02</pdfrwt>
<totfact> 0.28181634E+05</totfact>
</mgrwt>
</event>
<event>
 8    1  0.1429722E-020  0.7939512E+02  0.7818608E-02  0.1330777E+00
          2   -1    0    0  501    0  0.00000000000E+00  0.00000000000E+00  0.31322507654E+03  0.31322507655E+03  0.25500000000E-02 0. -1.
         -1   -1    0    0    0  501 -0.00000000000E+00 -0.00000000000E+00 -0.50311930924E+01  0.50311956168E+01  0.50400000000E-02 0.  1.
         24    2    1    2    0    0  0.00000000000E+00  0.00000000000E+00  0.30819388344E+03  0.31825627216E+03  0.79395119366E+02 0.  0.
         66    2    3    3    0    0 -0.33022387124E+01  0.15585324881E+02  0.29983556097E+03  0.30026516740E+03  0.19999989371E+01 0.  0.
        -13    1    3    3    0    0  0.33022387124E+01 -0.15585324881E+02  0.83583224719E+01  0.17991104767E+02  0.10566000000E+00 0.  1.
         13    1    4    4    0    0 -0.10197868431E+01  0.57738076439E+01  0.11848052161E+03  0.11862555368E+03  0.10566000000E+00 0. -1.
        -13    1    4    4    0    0 -0.17938454551E+01  0.64623241495E+01  0.13027452197E+03  0.13044708412E+03  0.10566000000E+00 0.  1.
        -14    1    4    4    0    0 -0.48860641421E+00  0.33491930882E+01  0.51080517384E+02  0.51192529599E+02  0.00000000000E+00 0.  1.
<mgrwt>
<rscale>  0 0.79395119E+02</rscale>
<asrwt>0</asrwt>
<pdfrwt beam="1">  1        2 0.48188481E-01 0.79395119E+02</pdfrwt>
<pdfrwt beam="2">  1       -1 0.77402979E-03 0.79395119E+02</pdfrwt>
<totfact> 0.26415362E+05</totfact>
</mgrwt>
</event>
<event>
 8    1  0.1226832E-020  0.8099889E+02  0.7818608E-02  0.1326240E+00
         -1   -1    0    0    0  501 -0.00000000000E+00  0.00000000000E+00  0.65281357769E+01  0.65281377225E+01  0.50400000000E-02 0.  1.
          2   -1    0    0  501    0  0.00000000000E+00 -0.00000000000E+00 -0.25125165981E+03  0.25125165982E+03  0.25500000000E-02 0. -1.
         24    2    1    2    0    0  0.00000000000E+00 -0.44408920985E-15 -0.24472352403E+03  0.25777979754E+03  0.80998893864E+02 0.  0.
         66    2    3    3    0    0 -0.98297095348E+01  0.23786977603E+01 -0.24716127316E+03  0.24737618387E+03  0.20000000164E+01 0.  0.
        -13    1    3    3    0    0  0.98297095348E+01 -0.23786977603E+01  0.24377491361E+01  0.10403613673E+02  0.10566000000E+00 0.  1.
         13    1    4    4    0    0 -0.45739768241E+01  0.11050171108E+01 -0.10949167010E+03  0.10959278860E+03  0.10566000000E+00 0. -1.
        -13    1    4    4    0    0 -0.31608611929E+01  0.92149152222E+00 -0.99710428320E+02  0.99764827820E+02  0.10566000000E+00 0.  1.
        -14    1    4    4    0    0 -0.20948715178E+01  0.35218912733E+00 -0.37959174744E+02  0.38018567452E+02  0.00000000000E+00 0.  1.
<mgrwt>
<rscale>  0 0.80998894E+02</rscale>
<asrwt>0</asrwt>
<pdfrwt beam="1">  1        2 0.38654094E-01 0.80998894E+02</pdfrwt>
<pdfrwt beam="2">  1       -1 0.10043289E-02 0.80998894E+02</pdfrwt>
<totfact> 0.23143237E+05</totfact>
</mgrwt>
</event>
<event>
 8    1  0.1226832E-020  0.7845680E+02  0.7818608E-02  0.1333489E+00
          2   -1    0    0  501    0  0.00000000000E+00  0.00000000000E+00  0.63188629122E+03  0.63188629122E+03  0.25500000000E-02 0. -1.
         -1   -1    0    0    0  501 -0.00000000000E+00 -0.00000000000E+00 -0.24353524879E+01  0.24353577031E+01  0.50400000000E-02 0.  1.
         24    2    1    2    0    0  0.00000000000E+00 -0.35527136788E-14  0.62945093873E+03  0.63432164893E+03  0.78456803582E+02 0.  0.
         66    2    3    3    0    0 -0.94431171151E+01 -0.27948300230E+02  0.52366953069E+03  0.52450362947E+03  0.20000015327E+01 0.  0.
        -13    1    3    3    0    0  0.94431171151E+01  0.27948300230E+02  0.10578140804E+03  0.10981801946E+03  0.10566000000E+00 0.  1.
         13    1    4    4    0    0 -0.21904888555E+01 -0.68971686659E+01  0.12275700308E+03  0.12297016770E+03  0.10566000000E+00 0. -1.
        -13    1    4    4    0    0 -0.33297282360E+01 -0.10809443259E+02  0.21605486787E+03  0.21635075283E+03  0.10566000000E+00 0.  1.
        -14    1    4    4    0    0 -0.39229000236E+01 -0.10241688305E+02  0.18485765974E+03  0.18518270894E+03  0.00000000000E+00 0.  1.
<mgrwt>
<rscale>  0 0.78456804E+02</rscale>
<asrwt>0</asrwt>
<pdfrwt beam="1">  1        2 0.97213425E-01 0.78456804E+02</pdfrwt>
<pdfrwt beam="2">  1       -1 0.37466944E-03 0.78456804E+02</pdfrwt>
<totfact> 0.34311423E+05</totfact>
</mgrwt>
</event>
<event>
 8    1  0.1226832E-020  0.8138038E+02  0.7818608E-02  0.1325179E+00
         -1   -1    0    0    0  501 -0.00000000000E+00  0.00000000000E+00  0.44464764206E+01  0.44464792769E+01  0.50400000000E-02 0.  1.
          2   -1    0    0  501    0  0.00000000000E+00 -0.00000000000E+00 -0.37236025502E+03  0.37236025502E+03  0.25500000000E-02 0. -1.
         24    2    1    2    0    0  0.00000000000E+00  0.00000000000E+00 -0.36791377859E+03  0.37680673430E+03  0.81380381756E+02 0.  0.
         66    2    3    3    0    0  0.19301599320E+01 -0.21563091420E+02 -0.34345620927E+03  0.34414366203E+03  0.19999998048E+01 0.  0.
        -13    1    3    3    0    0 -0.19301599320E+01  0.21563091420E+02 -0.24457569323E+02  0.32663072271E+02  0.10566000000E+00 0.  1.
         13    1    4    4    0    0  0.61744904947E+00 -0.15089095302E+02 -0.23529574097E+03  0.23577989508E+03  0.10566000000E+00 0. -1.
        -13    1    4    4    0    0  0.12809373073E+01 -0.55319485499E+01 -0.90259109693E+02  0.90437609996E+02  0.10566000000E+00 0.  1.
        -14    1    4    4    0    0  0.31773575192E-01 -0.94204756754E+00 -0.17901358612E+02  0.17926156959E+02  0.00000000000E+00 0.  1.
<mgrwt>
<rscale>  0 0.81380382E+02</rscale>
<asrwt>0</asrwt>
<pdfrwt beam="1">  1        2 0.57286169E-01 0.81380382E+02</pdfrwt>
<pdfrwt beam="2">  1       -1 0.68407381E-03 0.81380382E+02</pdfrwt>
<totfact> 0.26343063E+05</totfact>
</mgrwt>
</event>
<event>
 8    1  0.1226832E-020  0.7985269E+02  0.7818608E-02  0.1329470E+00
          2   -1    0    0  501    0  0.00000000000E+00  0.00000000000E+00  0.56682947811E+02  0.56682947869E+02  0.25500000000E-02 0. -1.
         -1   -1    0    0    0  501 -0.00000000000E+00 -0.00000000000E+00 -0.28123323465E+02  0.28123323917E+02  0.50400000000E-02 0.  1.
         24    2    1    2    0    0  0.35527136788E-14  0.00000000000E+00  0.28559624346E+02  0.84806271786E+02  0.79852686814E+02 0.  0.
         66    2    3    3    0    0 -0.20047735875E+02 -0.31475186614E+02  0.29289721447E+02  0.47481436999E+02  0.19999977389E+01 0.  0.
        -13    1    3    3    0    0  0.20047735875E+02  0.31475186614E+02 -0.73009710068E+00  0.37324834787E+02  0.10566000000E+00 0.  1.
         13    1    4    4    0    0 -0.16504039687E+02 -0.26274570379E+02  0.23545731573E+02  0.38950597093E+02  0.10566000000E+00 0. -1.
        -13    1    4    4    0    0 -0.31574711829E+01 -0.44040593790E+01  0.48612357548E+01  0.72806689516E+01  0.10566000000E+00 0.  1.
         14    1    4    4    0    0 -0.38622500571E+00 -0.79655685552E+00  0.88275411900E+00  0.12501709538E+01  0.00000000000E+00 0. -1.
<mgrwt>
<rscale>  0 0.79852687E+02</rscale>
<asrwt>0</asrwt>
<pdfrwt beam="1">  1        2 0.87204534E-02 0.79852687E+02</pdfrwt>
<pdfrwt beam="2">  1       -1 0.43266652E-02 0.79852687E+02</pdfrwt>
<totfact> 0.15442409E+05</totfact>
</mgrwt>
</event>
<event>
 8    1  0.1226832E-020  0.7868573E+02  0.7818608E-02  0.1332823E+00
          2   -1    0    0  501    0  0.00000000000E+00  0.00000000000E+00  0.25796479123E+03  0.25796479124E+03  0.25500000000E-02 0. -1.
         -1   -1    0    0    0  501 -0.00000000000E+00 -0.00000000000E+00 -0.60002784887E+01  0.60002806054E+01  0.50400000000E-02 0.  1.
         24    2    1    2    0    0  0.00000000000E+00 -0.71054273576E-14  0.25196451274E+03  0.26396507185E+03  0.78685725992E+02 0.  0.
         66    2    3    3    0    0 -0.98348036668E+01 -0.19629050346E+02  0.23548103094E+03  0.23651075858E+03  0.20000030558E+01 0.  0.
        -13    1    3    3    0    0  0.98348036668E+01  0.19629050346E+02  0.16483481806E+02  0.27454313270E+02  0.10566000000E+00 0.  1.
         13    1    4    4    0    0 -0.31190514880E+00 -0.45532566575E+00  0.90026979810E+01  0.90202184706E+01  0.10566000000E+00 0. -1.
        -13    1    4    4    0    0 -0.48228238337E+00 -0.88575077749E+00  0.87534014037E+01  0.88119436509E+01  0.10566000000E+00 0.  1.
         14    1    4    4    0    0 -0.90406161347E+01 -0.18287973903E+02  0.21772493155E+03  0.21867859646E+03  0.00000000000E+00 0. -1.
<mgrwt>
<rscale>  0 0.78685726E+02</rscale>
<asrwt>0</asrwt>
<pdfrwt beam="1">  1        2 0.39686886E-01 0.78685726E+02</pdfrwt>
<pdfrwt beam="2">  1       -1 0.92312004E-03 0.78685726E+02</pdfrwt>
<totfact> 0.25211561E+05</totfact>
</mgrwt>
</event>
<event>
 8    1  0.1226832E-020  0.7844086E+02  0.7818608E-02  0.1333535E+00
         -1   -1    0    0    0  501 -0.00000000000E+00  0.00000000000E+00  0.51222380650E+01  0.51222405445E+01  0.50400000000E-02 0.  1.
          2   -1    0    0  501    0  0.00000000000E+00 -0.00000000000E+00 -0.30030659037E+03  0.30030659038E+03  0.25500000000E-02 0. -1.
         24    2    1    2    0    0  0.00000000000E+00  0.00000000000E+00 -0.29518435230E+03  0.30542883092E+03  0.78440862531E+02 0.  0.
         66    2    3    3    0    0 -0.84454057192E+01  0.20418244972E+02 -0.27373990439E+03  0.27463751533E+03  0.19999919928E+01 0.  0.
        -13    1    3    3    0    0  0.84454057192E+01 -0.20418244972E+02 -0.21444447918E+02  0.30791315594E+02  0.10566000000E+00 0.  1.
         13    1    4    4    0    0 -0.53670611788E+01  0.14828463341E+02 -0.20051390388E+03  0.20113310390E+03  0.10566000000E+00 0. -1.
        -13    1    4    4    0    0 -0.23905301607E+01  0.44280239214E+01 -0.59204942230E+02  0.59418501991E+02  0.10566000000E+00 0.  1.
         14    1    4    4    0    0 -0.68781437974E+00  0.11617577088E+01 -0.14021058271E+02  0.14085909436E+02  0.00000000000E+00 0. -1.
<mgrwt>
<rscale>  0 0.78440863E+02</rscale>
<asrwt>0</asrwt>
<pdfrwt beam="1">  1        2 0.46201000E-01 0.78440863E+02</pdfrwt>
<pdfrwt beam="2">  1       -1 0.78803705E-03 0.78440863E+02</pdfrwt>
<totfact> 0.26853118E+05</totfact>
</mgrwt>
</event>
<event>
 8    1  0.1226832E-020  0.8110241E+02  0.7818608E-02  0.1325952E+00
         -1   -1    0    0    0  501 -0.00000000000E+00  0.00000000000E+00  0.31943536192E+01  0.31943575952E+01  0.50400000000E-02 0.  1.
          2   -1    0    0  501    0  0.00000000000E+00 -0.00000000000E+00 -0.51478303251E+03  0.51478303252E+03  0.25500000000E-02 0. -1.
         24    2    1    2    0    0  0.00000000000E+00  0.35527136788E-14 -0.51158867890E+03  0.51797739012E+03  0.81102406238E+02 0.  0.
         66    2    3    3    0    0 -0.25716306097E+02 -0.29658385183E+02 -0.32027692304E+03  0.32267980358E+03  0.20000003071E+01 0.  0.
        -13    1    3    3    0    0  0.25716306097E+02  0.29658385183E+02 -0.19131175586E+03  0.19529758653E+03  0.10566000000E+00 0.  1.
         13    1    4    4    0    0 -0.56767284999E+01 -0.58329846454E+01 -0.70312505369E+02  0.70782120141E+02  0.10566000000E+00 0. -1.
        -13    1    4    4    0    0 -0.98484321925E+01 -0.12439994497E+02 -0.12611909087E+03  0.12711326180E+03  0.10566000000E+00 0.  1.
        -14    1    4    4    0    0 -0.10191145405E+02 -0.11385406041E+02 -0.12384532680E+03  0.12478442164E+03  0.00000000000E+00 0.  1.
<mgrwt>
<rscale>  0 0.81102406E+02</rscale>
<asrwt>0</asrwt>
<pdfrwt beam="1">  1        2 0.79197324E-01 0.81102406E+02</pdfrwt>
<pdfrwt beam="2">  1       -1 0.49143973E-03 0.81102406E+02</pdfrwt>
<totfact> 0.29655629E+05</totfact>
</mgrwt>
</event>
<event>
 8    1  0.1226832E-020  0.7840789E+02  0.7818608E-02  0.1333631E+00
          2   -1    0    0  501    0  0.00000000000E+00  0.00000000000E+00  0.18327535795E+03  0.18327535797E+03  0.25500000000E-02 0. -1.
         -1   -1    0    0    0  501 -0.00000000000E+00 -0.00000000000E+00 -0.83860118607E+01  0.83860133752E+01  0.50400000000E-02 0.  1.
         24    2    1    2    0    0  0.00000000000E+00 -0.35527136788E-14  0.17488934609E+03  0.19166137134E+03  0.78407894306E+02 0.  0.
         66    2    3    3    0    0  0.61998258002E+01  0.21194897295E+02  0.16660693700E+03  0.16807597383E+03  0.20000032872E+01 0.  0.
        -13    1    3    3    0    0 -0.61998258002E+01 -0.21194897295E+02  0.82824090924E+01  0.23585397510E+02  0.10566000000E+00 0.  1.
         13    1    4    4    0    0  0.85393676080E+00  0.43230927703E+01  0.30739502907E+02  0.31053929576E+02  0.10566000000E+00 0.  1.
        -13    1    4    4    0    0  0.24816068142E+01  0.78015879025E+01  0.57687472534E+02  0.58265588451E+02  0.10566000000E+00 0. -1.
         14    1    4    4    0    0  0.28642822252E+01  0.90702166220E+01  0.78179961555E+02  0.78756455805E+02  0.00000000000E+00 0. -1.
<mgrwt>
<rscale>  0 0.78407894E+02</rscale>
<asrwt>0</asrwt>
<pdfrwt beam="1">  1        2 0.28196207E-01 0.78407894E+02</pdfrwt>
<pdfrwt beam="2">  1       -1 0.12901559E-02 0.78407894E+02</pdfrwt>
<totfact> 0.22572032E+05</totfact>
</mgrwt>
</event>
<event>
 8    1  0.1226832E-020  0.8086863E+02  0.7818608E-02  0.1326604E+00
          2   -1    0    0  501    0  0.00000000000E+00  0.00000000000E+00  0.23621071443E+02  0.23621071581E+02  0.25500000000E-02 0. -1.
         -1   -1    0    0    0  501 -0.00000000000E+00 -0.00000000000E+00 -0.69215065449E+02  0.69215065632E+02  0.50400000000E-02 0.  1.
         24    2    1    2    0    0  0.00000000000E+00 -0.35527136788E-14 -0.45593994006E+02  0.92836137213E+02  0.80868634731E+02 0.  0.
         66    2    3    3    0    0 -0.20002234947E+02 -0.31327087208E+02 -0.46069541752E+01  0.37505997200E+02  0.20000008391E+01 0.  0.
        -13    1    3    3    0    0  0.20002234947E+02  0.31327087208E+02 -0.40987039831E+02  0.55330140014E+02  0.10566000000E+00 0.  1.
         13    1    4    4    0    0 -0.63216070807E+01 -0.96763062064E+01 -0.22839545055E+01  0.11782242151E+02  0.10566000000E+00 0. -1.
        -13    1    4    4    0    0 -0.78869184195E+00 -0.13641028628E+01 -0.49371682622E-01  0.15800041267E+01  0.10566000000E+00 0. -1.
         14    1    4    4    0    0 -0.12891936024E+02 -0.20286678139E+02 -0.22736279871E+01  0.24143750922E+02  0.00000000000E+00 0. -1.
<mgrwt>
<rscale>  0 0.80868635E+02</rscale>
<asrwt>0</asrwt>
<pdfrwt beam="1">  1        2 0.36340110E-02 0.80868635E+02</pdfrwt>
<pdfrwt beam="2">  1       -1 0.10648472E-01 0.80868635E+02</pdfrwt>
<totfact> 0.12447360E+05</totfact>
</mgrwt>
</event>
<event>
 8    1  0.1226832E-020  0.7950159E+02  0.7818608E-02  0.1330472E+00
         -1   -1    0    0    0  501 -0.00000000000E+00  0.00000000000E+00  0.43054474557E+01  0.43054504057E+01  0.50400000000E-02 0.  1.
          2   -1    0    0  501    0  0.00000000000E+00 -0.00000000000E+00 -0.36700605548E+03  0.36700605549E+03  0.25500000000E-02 0. -1.
         24    2    1    2    0    0  0.00000000000E+00 -0.88817841970E-15 -0.36270060803E+03  0.37131150590E+03  0.79501593371E+02 0.  0.
         66    2    3    3    0    0  0.91885096168E+01  0.74854923419E+01 -0.35855335358E+03  0.35875474724E+03  0.19999999215E+01 0.  0.
        -13    1    3    3    0    0 -0.91885096168E+01 -0.74854923419E+01 -0.41472544532E+01  0.12556758663E+02  0.10566000000E+00 0.  1.
         13    1    4    4    0    0  0.54051643754E+01  0.48384546793E+01 -0.20779934154E+03  0.20792595786E+03  0.10566000000E+00 0. -1.
        -13    1    4    4    0    0 -0.25062684967E-01  0.16486549307E+00 -0.49720402892E+01  0.49759579422E+01  0.10566000000E+00 0.  1.
         14    1    4    4    0    0  0.38084079264E+01  0.24821721695E+01 -0.14578197175E+03  0.14585283143E+03  0.00000000000E+00 0. -1.
<mgrwt>
<rscale>  0 0.79501593E+02</rscale>
<asrwt>0</asrwt>
<pdfrwt beam="1">  1        2 0.56462446E-01 0.79501593E+02</pdfrwt>
<pdfrwt beam="2">  1       -1 0.66237705E-03 0.79501593E+02</pdfrwt>
<totfact> 0.27859716E+05</totfact>
</mgrwt>
</event>
<event>
 8    1  0.1226832E-020  0.7995391E+02  0.7818608E-02  0.1329182E+00
         -1   -1    0    0    0  501 -0.00000000000E+00  0.00000000000E+00  0.14273872064E+02  0.14273872953E+02  0.50400000000E-02 0.  1.
          2   -1    0    0  501    0  0.00000000000E+00 -0.00000000000E+00 -0.11196380709E+03  0.11196380712E+03  0.25500000000E-02 0. -1.
         24    2    1    2    0    0  0.17763568394E-14  0.00000000000E+00 -0.97689935028E+02  0.12623768007E+03  0.79953914630E+02 0.  0.
         66    2    3    3    0    0 -0.10574160074E+02  0.38410557330E+02 -0.44147131351E+02  0.59499184697E+02  0.19999993367E+01 0.  0.
        -13    1    3    3    0    0  0.10574160074E+02 -0.38410557330E+02 -0.53542803676E+02  0.66738495377E+02  0.10566000000E+00 0.  1.
         13    1    4    4    0    0 -0.21587746689E+01  0.68585008509E+01 -0.77896656294E+01  0.10601386544E+02  0.10566000000E+00 0. -1.
        -13    1    4    4    0    0 -0.71730260850E+00  0.17782234426E+01 -0.26049500748E+01  0.32362834505E+01  0.10566000000E+00 0.  1.
        -14    1    4    4    0    0 -0.76980827963E+01  0.29773833036E+02 -0.33752515647E+02  0.45661514703E+02  0.00000000000E+00 0.  1.
<mgrwt>
<rscale>  0 0.79953915E+02</rscale>
<asrwt>0</asrwt>
<pdfrwt beam="1">  1        2 0.17225201E-01 0.79953915E+02</pdfrwt>
<pdfrwt beam="2">  1       -1 0.21959805E-02 0.79953915E+02</pdfrwt>
<totfact> 0.18335964E+05</totfact>
</mgrwt>
</event>
<event>
 8    1  0.1226832E-020  0.8082199E+02  0.7818608E-02  0.1326735E+00
         -1   -1    0    0    0  501 -0.00000000000E+00  0.00000000000E+00  0.27124321743E+01  0.27124368567E+01  0.50400000000E-02 0.  1.
          2   -1    0    0  501    0  0.00000000000E+00 -0.00000000000E+00 -0.60206013920E+03  0.60206013920E+03  0.25500000000E-02 0. -1.
         24    2    1    2    0    0  0.00000000000E+00  0.00000000000E+00 -0.59934770702E+03  0.60477257606E+03  0.80821994777E+02 0.  0.
         66    2    3    3    0    0  0.29159895011E+01  0.11582393935E+02 -0.58853953117E+03  0.58866411017E+03  0.20000016897E+01 0.  0.
        -13    1    3    3    0    0 -0.29159895011E+01 -0.11582393935E+02 -0.10808175851E+02  0.16108465889E+02  0.10566000000E+00 0.  1.
         13    1    4    4    0    0  0.14021050717E+01  0.50037223071E+01 -0.21999869644E+03  0.22006008438E+03  0.10566000000E+00 0. -1.
        -13    1    4    4    0    0  0.10213207136E+01  0.23274962379E+01 -0.14114897895E+03  0.14117190144E+03  0.10566000000E+00 0.  1.
         14    1    4    4    0    0  0.49256371584E+00  0.42511753897E+01 -0.22739185578E+03  0.22743212435E+03  0.00000000000E+00 0. -1.
<mgrwt>
<rscale>  0 0.80821995E+02</rscale>
<asrwt>0</asrwt>
<pdfrwt beam="1">  1        2 0.92624531E-01 0.80821995E+02</pdfrwt>
<pdfrwt beam="2">  1       -1 0.41729810E-03 0.80821995E+02</pdfrwt>
<totfact> 0.31348666E+05</totfact>
</mgrwt>
</event>
<event>
 8    1  0.1226832E-020  0.7907071E+02  0.7818608E-02  0.1331710E+00
         -1   -1    0    0    0  501 -0.00000000000E+00  0.00000000000E+00  0.45182895228E+01  0.45182923338E+01  0.50400000000E-02 0.  1.
          2   -1    0    0  501    0  0.00000000000E+00 -0.00000000000E+00 -0.34593703052E+03  0.34593703053E+03  0.25500000000E-02 0. -1.
         24    2    1    2    0    0  0.35527136788E-14  0.35527136788E-14 -0.34141874100E+03  0.35045532286E+03  0.79070706453E+02 0.  0.
         66    2    3    3    0    0 -0.16105335868E+02 -0.21376862294E+02 -0.29963284859E+03  0.30083250499E+03  0.20000054425E+01 0.  0.
        -13    1    3    3    0    0  0.16105335868E+02  0.21376862294E+02 -0.41785892406E+02  0.49622817868E+02  0.10566000000E+00 0.  1.
         13    1    4    4    0    0 -0.67126446680E+01 -0.83723743074E+01 -0.12895159859E+03  0.12939738094E+03  0.10566000000E+00 0. -1.
        -13    1    4    4    0    0 -0.19675181694E+01 -0.26321865709E+01 -0.32024498979E+02  0.32192844434E+02  0.10566000000E+00 0.  1.
         14    1    4    4    0    0 -0.74251730303E+01 -0.10372301416E+02 -0.13865675102E+03  0.13924227962E+03  0.00000000000E+00 0. -1.
<mgrwt>
<rscale>  0 0.79070706E+02</rscale>
<asrwt>0</asrwt>
<pdfrwt beam="1">  1        2 0.53221061E-01 0.79070706E+02</pdfrwt>
<pdfrwt beam="2">  1       -1 0.69512196E-03 0.79070706E+02</pdfrwt>
<totfact> 0.27670132E+05</totfact>
</mgrwt>
</event>
<event>
 8    1  0.1226832E-020  0.7899558E+02  0.7818608E-02  0.1331926E+00
         -1   -1    0    0    0  501 -0.00000000000E+00  0.00000000000E+00  0.38231448408E+01  0.38231481629E+01  0.50400000000E-02 0.  1.
          2   -1    0    0  501    0  0.00000000000E+00 -0.00000000000E+00 -0.40806059858E+03  0.40806059859E+03  0.25500000000E-02 0. -1.
         24    2    1    2    0    0  0.00000000000E+00  0.00000000000E+00 -0.40423745374E+03  0.41188374675E+03  0.78995581091E+02 0.  0.
         66    2    3    3    0    0 -0.88327112437E+01 -0.31730886275E+02 -0.31566966781E+03  0.31738967392E+03  0.20000009911E+01 0.  0.
        -13    1    3    3    0    0  0.88327112437E+01  0.31730886275E+02 -0.88567785924E+02  0.94494072826E+02  0.10566000000E+00 0.  1.
         13    1    4    4    0    0 -0.33971681967E+01 -0.13666889796E+02 -0.12696757046E+03  0.12774623180E+03  0.10566000000E+00 0. -1.
        -13    1    4    4    0    0 -0.32090026606E+01 -0.10729344180E+02 -0.11462665109E+03  0.11517246559E+03  0.10566000000E+00 0.  1.
         14    1    4    4    0    0 -0.22265403864E+01 -0.73346522989E+01 -0.74075446264E+02  0.74470976532E+02  0.00000000000E+00 0. -1.
<mgrwt>
<rscale>  0 0.78995581E+02</rscale>
<asrwt>0</asrwt>
<pdfrwt beam="1">  1        2 0.62778519E-01 0.78995581E+02</pdfrwt>
<pdfrwt beam="2">  1       -1 0.58817671E-03 0.78995581E+02</pdfrwt>
<totfact> 0.29404621E+05</totfact>
</mgrwt>
</event>
<event>
 8    1  0.1226832E-020  0.7766736E+02  0.7818608E-02  0.1335805E+00
          2   -1    0    0  501    0  0.00000000000E+00  0.00000000000E+00  0.28392518920E+03  0.28392518921E+03  0.25500000000E-02 0. -1.
         -1   -1    0    0    0  501 -0.00000000000E+00 -0.00000000000E+00 -0.53114500831E+01  0.53114524743E+01  0.50400000000E-02 0.  1.
         24    2    1    2    0    0 -0.17763568394E-14  0.71054273576E-14  0.27861373912E+03  0.28923664168E+03  0.77667362958E+02 0.  0.
         66    2    3    3    0    0 -0.92709678766E+01  0.37384311398E+02  0.15706850776E+03  0.16173451616E+03  0.20000008265E+01 0.  0.
        -13    1    3    3    0    0  0.92709678766E+01 -0.37384311398E+02  0.12154523135E+03  0.12750212552E+03  0.10566000000E+00 0.  1.
         13    1    4    4    0    0 -0.18680478211E+01  0.55578535120E+01  0.22671583184E+02  0.23417753659E+02  0.10566000000E+00 0. -1.
        -13    1    4    4    0    0 -0.39186308950E+00  0.95348945275E+00  0.43329900161E+01  0.44551840963E+01  0.10566000000E+00 0.  1.
         14    1    4    4    0    0 -0.70110569660E+01  0.30872968433E+02  0.13006393456E+03  0.13386157841E+03  0.00000000000E+00 0. -1.
<mgrwt>
<rscale>  0 0.77667363E+02</rscale>
<asrwt>0</asrwt>
<pdfrwt beam="1">  1        2 0.43680807E-01 0.77667363E+02</pdfrwt>
<pdfrwt beam="2">  1       -1 0.81714620E-03 0.77667363E+02</pdfrwt>
<totfact> 0.27005489E+05</totfact>
</mgrwt>
</event>
<event>
 8    1  0.1226832E-020  0.8031764E+02  0.7818608E-02  0.1328152E+00
         -1   -1    0    0    0  501 -0.00000000000E+00  0.00000000000E+00  0.14131644934E+01  0.14131734808E+01  0.50400000000E-02 0.  1.
          2   -1    0    0  501    0  0.00000000000E+00 -0.00000000000E+00 -0.11412158843E+04  0.11412158843E+04  0.25500000000E-02 0. -1.
         24    2    1    2    0    0  0.35527136788E-14  0.00000000000E+00 -0.11398027198E+04  0.11426290578E+04  0.80317641978E+02 0.  0.
         66    2    3    3    0    0 -0.23650971491E+02 -0.86295404657E+01 -0.10149022351E+04  0.10152164224E+04  0.19999997275E+01 0.  0.
        -13    1    3    3    0    0  0.23650971491E+02  0.86295404657E+01 -0.12490048464E+03  0.12741263536E+03  0.10566000000E+00 0.  1.
         13    1    4    4    0    0 -0.95253046403E+01 -0.34989753178E+01 -0.41967670947E+03  0.41979938768E+03  0.10566000000E+00 0. -1.
        -13    1    4    4    0    0 -0.13084237464E+02 -0.50065509012E+01 -0.54100843217E+03  0.54118979819E+03  0.10566000000E+00 0.  1.
        -14    1    4    4    0    0 -0.10414293867E+01 -0.12401424677E+00 -0.54217093498E+02  0.54227236534E+02  0.00000000000E+00 0.  1.
<mgrwt>
<rscale>  0 0.80317642E+02</rscale>
<asrwt>0</asrwt>
<pdfrwt beam="1">  1        2 0.17557094E+00 0.80317642E+02</pdfrwt>
<pdfrwt beam="2">  1       -1 0.21741153E-03 0.80317642E+02</pdfrwt>
<totfact> 0.34830368E+05</totfact>
</mgrwt>
</event>
<event>
 8    1  0.1226832E-020  0.7617133E+02  0.7818608E-02  0.1340282E+00
         -1   -1    0    0    0  501 -0.00000000000E+00  0.00000000000E+00  0.13297133025E+02  0.13297133980E+02  0.50400000000E-02 0.  1.
          2   -1    0    0  501    0  0.00000000000E+00 -0.00000000000E+00 -0.10908500859E+03  0.10908500862E+03  0.25500000000E-02 0. -1.
         24    2    1    2    0    0  0.00000000000E+00  0.00000000000E+00 -0.95787875560E+02  0.12238214260E+03  0.76171331365E+02 0.  0.
         66    2    3    3    0    0  0.15457730912E+02  0.16882829125E+02 -0.96779696798E+02  0.99470000889E+02  0.20000000638E+01 0.  0.
        -13    1    3    3    0    0 -0.15457730912E+02 -0.16882829125E+02  0.99182123755E+00  0.22912141707E+02  0.10566000000E+00 0.  1.
         13    1    4    4    0    0  0.77115527113E+01  0.72910373038E+01 -0.42553503333E+02  0.43857029996E+02  0.10566000000E+00 0. -1.
        -13    1    4    4    0    0  0.66959654756E+00  0.98692851364E+00 -0.56725441765E+01  0.57975261015E+01  0.10566000000E+00 0.  1.
         14    1    4    4    0    0  0.70765816527E+01  0.86048633074E+01 -0.48553649289E+02  0.49815444791E+02  0.00000000000E+00 0. -1.
<mgrwt>
<rscale>  0 0.76171331E+02</rscale>
<asrwt>0</asrwt>
<pdfrwt beam="1">  1        2 0.16782308E-01 0.76171331E+02</pdfrwt>
<pdfrwt beam="2">  1       -1 0.20457129E-02 0.76171331E+02</pdfrwt>
<totfact> 0.20707106E+05</totfact>
</mgrwt>
</event>
<event>
 8    1  0.1226832E-020  0.7999470E+02  0.7818608E-02  0.1329066E+00
          2   -1    0    0  501    0  0.00000000000E+00  0.00000000000E+00  0.14033729677E+03  0.14033729679E+03  0.25500000000E-02 0. -1.
         -1   -1    0    0    0  501 -0.00000000000E+00 -0.00000000000E+00 -0.11399592890E+02  0.11399594004E+02  0.50400000000E-02 0.  1.
         24    2    1    2    0    0  0.00000000000E+00  0.35527136788E-14  0.12893770388E+03  0.15173689080E+03  0.79994703244E+02 0.  0.
         66    2    3    3    0    0  0.23447506933E+02 -0.22386609210E+02  0.10886571699E+03  0.11360761497E+03  0.19999976438E+01 0.  0.
        -13    1    3    3    0    0 -0.23447506933E+02  0.22386609210E+02  0.20071986891E+02  0.38129275827E+02  0.10566000000E+00 0.  1.
         13    1    4    4    0    0  0.21566681392E+02 -0.20249369112E+02  0.99283879816E+02  0.10359758033E+03  0.10566000000E+00 0. -1.
        -13    1    4    4    0    0  0.16730748784E+00 -0.68911464284E-01  0.76305585911E+00  0.79130200626E+00  0.10566000000E+00 0. -1.
         14    1    4    4    0    0  0.17135180531E+01 -0.20683286334E+01  0.88187813125E+01  0.92187326293E+01  0.00000000000E+00 0. -1.
<mgrwt>
<rscale>  0 0.79994703E+02</rscale>
<asrwt>0</asrwt>
<pdfrwt beam="1">  1        2 0.21590354E-01 0.79994703E+02</pdfrwt>
<pdfrwt beam="2">  1       -1 0.17537836E-02 0.79994703E+02</pdfrwt>
<totfact> 0.19612474E+05</totfact>
</mgrwt>
</event>
<event>
 8    1  0.1226832E-020  0.7865026E+02  0.7818608E-02  0.1332926E+00
         -1   -1    0    0    0  501 -0.00000000000E+00  0.00000000000E+00  0.50227833435E+01  0.50227858721E+01  0.50400000000E-02 0.  1.
          2   -1    0    0  501    0  0.00000000000E+00 -0.00000000000E+00 -0.30789017252E+03  0.30789017253E+03  0.25500000000E-02 0. -1.
         24    2    1    2    0    0  0.00000000000E+00  0.35527136788E-14 -0.30286738918E+03  0.31291295840E+03  0.78650264524E+02 0.  0.
         66    2    3    3    0    0  0.98644730453E+01 -0.30520486140E+02 -0.24187594656E+03  0.24400160129E+03  0.20000011688E+01 0.  0.
        -13    1    3    3    0    0 -0.98644730453E+01  0.30520486140E+02 -0.60991442614E+02  0.68911357111E+02  0.10566000000E+00 0.  1.
         13    1    4    4    0    0  0.39252846492E+01 -0.11955831230E+02 -0.10199770566E+03  0.10277107027E+03  0.10566000000E+00 0. -1.
        -13    1    4    4    0    0  0.75534790667E+00 -0.28002629274E+01 -0.20980155382E+02  0.21179945864E+02  0.10566000000E+00 0.  1.
         14    1    4    4    0    0  0.51838404894E+01 -0.15764391983E+02 -0.11889808552E+03  0.12005058516E+03  0.00000000000E+00 0. -1.
<mgrwt>
<rscale>  0 0.78650265E+02</rscale>
<asrwt>0</asrwt>
<pdfrwt beam="1">  1        2 0.47367704E-01 0.78650265E+02</pdfrwt>
<pdfrwt beam="2">  1       -1 0.77273634E-03 0.78650265E+02</pdfrwt>
<totfact> 0.26907750E+05</totfact>
</mgrwt>
</event>
<event>
 8    1  0.1226832E-020  0.7827688E+02  0.7818608E-02  0.1334014E+00
          2   -1    0    0  501    0  0.00000000000E+00  0.00000000000E+00  0.54572572427E+03  0.54572572427E+03  0.25500000000E-02 0. -1.
         -1   -1    0    0    0  501 -0.00000000000E+00 -0.00000000000E+00 -0.28069341056E+01  0.28069386304E+01  0.50400000000E-02 0.  1.
         24    2    1    2    0    0  0.00000000000E+00  0.00000000000E+00  0.54291879016E+03  0.54853266290E+03  0.78276877566E+02 0.  0.
         66    2    3    3    0    0  0.29848858354E+02  0.20471545484E+02  0.37552213095E+03  0.37726768925E+03  0.20000007984E+01 0.  0.
        -13    1    3    3    0    0 -0.29848858354E+02 -0.20471545484E+02  0.16739665921E+03  0.17126497365E+03  0.10566000000E+00 0.  1.
         13    1    4    4    0    0  0.23724427887E+02  0.17106755592E+02  0.30381091019E+03  0.30521561212E+03  0.10566000000E+00 0. -1.
        -13    1    4    4    0    0  0.11870397135E+01  0.79897265641E+00  0.14184995758E+02  0.14257373154E+02  0.10566000000E+00 0.  1.
         14    1    4    4    0    0  0.49373907528E+01  0.25658172349E+01  0.57526225003E+02  0.57794703984E+02  0.00000000000E+00 0. -1.
<mgrwt>
<rscale>  0 0.78276878E+02</rscale>
<asrwt>0</asrwt>
<pdfrwt beam="1">  1        2 0.83957846E-01 0.78276878E+02</pdfrwt>
<pdfrwt beam="2">  1       -1 0.43183615E-03 0.78276878E+02</pdfrwt>
<totfact> 0.33112912E+05</totfact>
</mgrwt>
</event>
<event>
 8    1  0.1226832E-020  0.8006128E+02  0.7818608E-02  0.1328878E+00
         -1   -1    0    0    0  501 -0.00000000000E+00  0.00000000000E+00  0.80856724429E+02  0.80856724586E+02  0.50400000000E-02 0.  1.
          2   -1    0    0  501    0  0.00000000000E+00 -0.00000000000E+00 -0.19818414968E+02  0.19818415132E+02  0.25500000000E-02 0. -1.
         24    2    1    2    0    0  0.00000000000E+00  0.00000000000E+00  0.61038309462E+02  0.10067513972E+03  0.80061279876E+02 0.  0.
         66    2    3    3    0    0  0.84733224638E+01 -0.34556892876E+02  0.75407312971E+01  0.36425796746E+02  0.20000003273E+01 0.  0.
        -13    1    3    3    0    0 -0.84733224638E+01  0.34556892876E+02  0.53497578165E+02  0.64249342972E+02  0.10566000000E+00 0.  1.
         13    1    4    4    0    0  0.69986499904E+01 -0.29122271235E+02  0.60127078364E+01  0.30549166979E+02  0.10566000000E+00 0. -1.
        -13    1    4    4    0    0  0.95064543097E-01 -0.21405735089E+00 -0.24451270784E-01  0.25810795623E+00  0.10566000000E+00 0. -1.
         14    1    4    4    0    0  0.13796079303E+01 -0.52205642902E+01  0.15524747314E+01  0.56185218110E+01  0.00000000000E+00 0. -1.
<mgrwt>
<rscale>  0 0.80061280E+02</rscale>
<asrwt>0</asrwt>
<pdfrwt beam="1">  1        2 0.30489869E-02 0.80061280E+02</pdfrwt>
<pdfrwt beam="2">  1       -1 0.12439496E-01 0.80061280E+02</pdfrwt>
<totfact> 0.12365573E+05</totfact>
</mgrwt>
</event>
<event>
 8    1  0.1226832E-020  0.7959141E+02  0.7818608E-02  0.1330215E+00
          2   -1    0    0  501    0  0.00000000000E+00  0.00000000000E+00  0.65243769062E+02  0.65243769112E+02  0.25500000000E-02 0. -1.
         -1   -1    0    0    0  501 -0.00000000000E+00 -0.00000000000E+00 -0.24273554667E+02  0.24273555190E+02  0.50400000000E-02 0.  1.
         24    2    1    2    0    0  0.11102230246E-15  0.00000000000E+00  0.40970214395E+02  0.89517324302E+02  0.79591412116E+02 0.  0.
         66    2    3    3    0    0 -0.75619865370E+00 -0.13993964349E+02  0.62359169383E+02  0.63945827785E+02  0.20000025998E+01 0.  0.
        -13    1    3    3    0    0  0.75619865370E+00  0.13993964349E+02 -0.21388954988E+02  0.25571496517E+02  0.10566000000E+00 0.  1.
         13    1    4    4    0    0 -0.11790663461E+01 -0.65568210999E+01  0.28630245208E+02  0.29395309236E+02  0.10566000000E+00 0.  1.
        -13    1    4    4    0    0  0.92939203589E-01 -0.63850659920E+01  0.28922080223E+02  0.29618838496E+02  0.10566000000E+00 0. -1.
         14    1    4    4    0    0  0.32992848879E+00 -0.10520772572E+01  0.48068439523E+01  0.49316800530E+01  0.00000000000E+00 0. -1.
<mgrwt>
<rscale>  0 0.79591412E+02</rscale>
<asrwt>0</asrwt>
<pdfrwt beam="1">  1        2 0.10037503E-01 0.79591412E+02</pdfrwt>
<pdfrwt beam="2">  1       -1 0.37343931E-02 0.79591412E+02</pdfrwt>
<totfact> 0.16096935E+05</totfact>
</mgrwt>
</event>
<event>
 8    1  0.1226832E-020  0.7868819E+02  0.7818608E-02  0.1332816E+00
          2   -1    0    0  501    0  0.00000000000E+00  0.00000000000E+00  0.27474378406E+03  0.27474378407E+03  0.25500000000E-02 0. -1.
         -1   -1    0    0    0  501 -0.00000000000E+00 -0.00000000000E+00 -0.56341853431E+01  0.56341875973E+01  0.50400000000E-02 0.  1.
         24    2    1    2    0    0  0.35527136788E-14  0.00000000000E+00  0.26910959872E+03  0.28037797167E+03  0.78688187651E+02 0.  0.
         66    2    3    3    0    0 -0.13900268909E+02  0.19888009591E+02  0.24488072606E+03  0.24608803386E+03  0.20000019939E+01 0.  0.
        -13    1    3    3    0    0  0.13900268909E+02 -0.19888009591E+02  0.24228872654E+02  0.34289937815E+02  0.10566000000E+00 0.  1.
         13    1    4    4    0    0 -0.44904933232E+01  0.70251623750E+01  0.89792839529E+02  0.90179169609E+02  0.10566000000E+00 0. -1.
        -13    1    4    4    0    0 -0.49036093376E+01  0.71787289969E+01  0.79697079570E+02  0.80169914498E+02  0.10566000000E+00 0.  1.
        -14    1    4    4    0    0 -0.45061662484E+01  0.56841182189E+01  0.75390806966E+02  0.75738949750E+02  0.00000000000E+00 0.  1.
<mgrwt>
<rscale>  0 0.78688188E+02</rscale>
<asrwt>0</asrwt>
<pdfrwt beam="1">  1        2 0.42268275E-01 0.78688188E+02</pdfrwt>
<pdfrwt beam="2">  1       -1 0.86679792E-03 0.78688188E+02</pdfrwt>
<totfact> 0.25789562E+05</totfact>
</mgrwt>
</event>
<event>
 8    1  0.1290864E-020  0.7985346E+02  0.7818608E-02  0.1329468E+00
         -1   -1    0    0    0  501 -0.00000000000E+00  0.00000000000E+00  0.21686859294E+02  0.21686859880E+02  0.50400000000E-02 0.  1.
          2   -1    0    0  501    0  0.00000000000E+00 -0.00000000000E+00 -0.73507352531E+02  0.73507352576E+02  0.25500000000E-02 0. -1.
         24    2    1    2    0    0  0.00000000000E+00  0.00000000000E+00 -0.51820493237E+02  0.95194212455E+02  0.79853456817E+02 0.  0.
         66    2    3    3    0    0 -0.94032406130E+01 -0.14712328965E+02 -0.68697594605E+02  0.70910035050E+02  0.20000021672E+01 0.  0.
        -13    1    3    3    0    0  0.94032406130E+01  0.14712328965E+02  0.16877101368E+02  0.24284177405E+02  0.10566000000E+00 0.  1.
         13    1    4    4    0    0 -0.50165826294E+01 -0.76784452617E+01 -0.37367837383E+02  0.38477149812E+02  0.10566000000E+00 0. -1.
        -13    1    4    4    0    0 -0.18034478288E+01 -0.40838626178E+01 -0.16725239726E+02  0.17311128382E+02  0.10566000000E+00 0.  1.
        -14    1    4    4    0    0 -0.25832101547E+01 -0.29500210857E+01 -0.14604517496E+02  0.15121756856E+02  0.00000000000E+00 0.  1.
<mgrwt>
<rscale>  0 0.79853457E+02</rscale>
<asrwt>0</asrwt>
<pdfrwt beam="1">  1        2 0.11308823E-01 0.79853457E+02</pdfrwt>
<pdfrwt beam="2">  1       -1 0.33364400E-02 0.79853457E+02</pdfrwt>
<totfact> 0.16423414E+05</totfact>
</mgrwt>
</event>
<event>
 8    1  0.1226832E-020  0.7172230E+02  0.7818608E-02  0.1354332E+00
          2   -1    0    0  501    0  0.00000000000E+00  0.00000000000E+00  0.32573933461E+01  0.32573943442E+01  0.25500000000E-02 0. -1.
         -1   -1    0    0    0  501 -0.00000000000E+00 -0.00000000000E+00 -0.39480093531E+03  0.39480093534E+03  0.50400000000E-02 0.  1.
         24    2    1    2    0    0  0.00000000000E+00  0.00000000000E+00 -0.39154354196E+03  0.39805832968E+03  0.71722301825E+02 0.  0.
         66    2    3    3    0    0 -0.13135332607E+02 -0.33322470332E+02 -0.20172680583E+03  0.20489174750E+03  0.20000032095E+01 0.  0.
        -13    1    3    3    0    0  0.13135332607E+02  0.33322470332E+02 -0.18981673614E+03  0.19316658218E+03  0.10566000000E+00 0.  1.
         13    1    4    4    0    0 -0.44688434603E+01 -0.11076803641E+02 -0.67607114136E+02  0.68654200065E+02  0.10566000000E+00 0. -1.
        -13    1    4    4    0    0 -0.16013386661E+01 -0.30743981448E+01 -0.17217920721E+02  0.17563717359E+02  0.10566000000E+00 0.  1.
        -14    1    4    4    0    0 -0.70651504803E+01 -0.19171268547E+02 -0.11690177097E+03  0.11867383007E+03  0.00000000000E+00 0.  1.
<mgrwt>
<rscale>  0 0.71722302E+02</rscale>
<asrwt>0</asrwt>
<pdfrwt beam="1">  1        2 0.50113783E-03 0.71722302E+02</pdfrwt>
<pdfrwt beam="2">  1       -1 0.60738568E-01 0.71722302E+02</pdfrwt>
<totfact> 0.10095146E+05</totfact>
</mgrwt>
</event>
<event>
 8    1  0.1226832E-020  0.8136039E+02  0.7818608E-02  0.1325235E+00
          2   -1    0    0  501    0  0.00000000000E+00  0.00000000000E+00  0.27176045536E+03  0.27176045538E+03  0.25500000000E-02 0. -1.
         -1   -1    0    0    0  501 -0.00000000000E+00 -0.00000000000E+00 -0.60894732360E+01  0.60894753217E+01  0.50400000000E-02 0.  1.
         24    2    1    2    0    0  0.00000000000E+00  0.00000000000E+00  0.26567098213E+03  0.27784993070E+03  0.81360391124E+02 0.  0.
         66    2    3    3    0    0 -0.22792655412E+02 -0.23555705478E+01  0.24760329340E+03  0.24866934823E+03  0.19999978729E+01 0.  0.
        -13    1    3    3    0    0  0.22792655412E+02  0.23555705478E+01  0.18067688727E+02  0.29180582470E+02  0.10566000000E+00 0.  1.
         13    1    4    4    0    0 -0.13927003621E+02 -0.70572782788E+00  0.15685466223E+03  0.15747334920E+03  0.10566000000E+00 0. -1.
        -13    1    4    4    0    0 -0.14920865113E+01 -0.30994362074E+00  0.15499887141E+02  0.15574981625E+02  0.10566000000E+00 0.  1.
         14    1    4    4    0    0 -0.73735652795E+01 -0.13398990992E+01  0.75248744035E+02  0.75621017405E+02  0.00000000000E+00 0. -1.
<mgrwt>
<rscale>  0 0.81360391E+02</rscale>
<asrwt>0</asrwt>
<pdfrwt beam="1">  1        2 0.41809297E-01 0.81360391E+02</pdfrwt>
<pdfrwt beam="2">  1       -1 0.93684228E-03 0.81360391E+02</pdfrwt>
<totfact> 0.23531577E+05</totfact>
</mgrwt>
</event>
<event>
 8    1  0.1226832E-020  0.8061092E+02  0.7818608E-02  0.1327327E+00
          2   -1    0    0  501    0  0.00000000000E+00  0.00000000000E+00  0.30379830755E+03  0.30379830756E+03  0.25500000000E-02 0. -1.
         -1   -1    0    0    0  501 -0.00000000000E+00 -0.00000000000E+00 -0.53473956865E+01  0.53473980617E+01  0.50400000000E-02 0.  1.
         24    2    1    2    0    0 -0.22204460493E-15 -0.17763568394E-14  0.29845091186E+03  0.30914570562E+03  0.80610920554E+02 0.  0.
         66    2    3    3    0    0 -0.13281447832E+01  0.14588117877E+02  0.29321767081E+03  0.29359015588E+03  0.20000004896E+01 0.  0.
        -13    1    3    3    0    0  0.13281447832E+01 -0.14588117877E+02  0.52332410480E+01  0.15555549738E+02  0.10566000000E+00 0.  1.
         13    1    4    4    0    0 -0.13555797473E+01  0.13138810908E+02  0.26024262989E+03  0.26057763435E+03  0.10566000000E+00 0. -1.
        -13    1    4    4    0    0  0.29558402136E+00  0.69073723325E+00  0.14211141025E+02  0.14231380155E+02  0.10566000000E+00 0.  1.
         14    1    4    4    0    0 -0.26814905721E+00  0.75856973591E+00  0.18763899901E+02  0.18781141378E+02  0.00000000000E+00 0. -1.
<mgrwt>
<rscale>  0 0.80610921E+02</rscale>
<asrwt>0</asrwt>
<pdfrwt beam="1">  1        2 0.46738196E-01 0.80610921E+02</pdfrwt>
<pdfrwt beam="2">  1       -1 0.82267654E-03 0.80610921E+02</pdfrwt>
<totfact> 0.25104999E+05</totfact>
</mgrwt>
</event>
<event>
 8    1  0.1226832E-020  0.7973453E+02  0.7818608E-02  0.1329806E+00
          2   -1    0    0  501    0  0.00000000000E+00  0.00000000000E+00  0.12068239293E+03  0.12068239296E+03  0.25500000000E-02 0. -1.
         -1   -1    0    0    0  501 -0.00000000000E+00 -0.00000000000E+00 -0.13170096423E+02  0.13170097387E+02  0.50400000000E-02 0.  1.
         24    2    1    2    0    0  0.00000000000E+00  0.88817841970E-15  0.10751229651E+03  0.13385249035E+03  0.79734529982E+02 0.  0.
         66    2    3    3    0    0 -0.18560520419E+02 -0.65864072269E+01  0.11193104953E+03  0.11366808497E+03  0.20000032982E+01 0.  0.
        -13    1    3    3    0    0  0.18560520419E+02  0.65864072269E+01 -0.44187530157E+01  0.20184405383E+02  0.10566000000E+00 0.  1.
         13    1    4    4    0    0 -0.48861730880E+01 -0.11357032813E+01  0.31441983419E+02  0.31839817756E+02  0.10566000000E+00 0. -1.
        -13    1    4    4    0    0 -0.93275292640E+01 -0.37834349628E+01  0.57063391639E+02  0.57944447634E+02  0.10566000000E+00 0.  1.
         14    1    4    4    0    0 -0.43468180675E+01 -0.16672689827E+01  0.23425674469E+02  0.23883819575E+02  0.00000000000E+00 0. -1.
<mgrwt>
<rscale>  0 0.79734530E+02</rscale>
<asrwt>0</asrwt>
<pdfrwt beam="1">  1        2 0.18566522E-01 0.79734530E+02</pdfrwt>
<pdfrwt beam="2">  1       -1 0.20261688E-02 0.79734530E+02</pdfrwt>
<totfact> 0.18884912E+05</totfact>
</mgrwt>
</event>
<event>
 8    1  0.1226832E-020  0.7354646E+02  0.7818608E-02  0.1348432E+00
         -1   -1    0    0    0  501 -0.00000000000E+00  0.00000000000E+00  0.15870312506E+01  0.15870392535E+01  0.50400000000E-02 0.  1.
          2   -1    0    0  501    0  0.00000000000E+00 -0.00000000000E+00 -0.85207325562E+03  0.85207325562E+03  0.25500000000E-02 0. -1.
         24    2    1    2    0    0 -0.35527136788E-14  0.88817841970E-15 -0.85048622437E+03  0.85366029487E+03  0.73546456120E+02 0.  0.
         66    2    3    3    0    0 -0.24491160787E+02  0.74423309810E+01 -0.73156594348E+03  0.73201634880E+03  0.19999997522E+01 0.  0.
        -13    1    3    3    0    0  0.24491160787E+02 -0.74423309810E+01 -0.11892028088E+03  0.12164394608E+03  0.10566000000E+00 0.  1.
         13    1    4    4    0    0 -0.12413948830E+02  0.31599634072E+01 -0.36589434075E+03  0.36611852077E+03  0.10566000000E+00 0. -1.
        -13    1    4    4    0    0 -0.76428953902E+00  0.18882105481E+00 -0.30613544283E+02  0.30623847725E+02  0.10566000000E+00 0.  1.
         14    1    4    4    0    0 -0.11312922419E+02  0.40935465190E+01 -0.33505805844E+03  0.33527398030E+03  0.00000000000E+00 0. -1.
<mgrwt>
<rscale>  0 0.73546456E+02</rscale>
<asrwt>0</asrwt>
<pdfrwt beam="1">  1        2 0.13108783E+00 0.73546456E+02</pdfrwt>
<pdfrwt beam="2">  1       -1 0.24415995E-03 0.73546456E+02</pdfrwt>
<totfact> 0.43139606E+05</totfact>
</mgrwt>
</event>
<event>
 8    1  0.1226832E-020  0.8103329E+02  0.7818608E-02  0.1326144E+00
          2   -1    0    0  501    0  0.00000000000E+00  0.00000000000E+00  0.10078137405E+03  0.10078137408E+03  0.25500000000E-02 0. -1.
         -1   -1    0    0    0  501 -0.00000000000E+00 -0.00000000000E+00 -0.16288710092E+02  0.16288710872E+02  0.50400000000E-02 0.  1.
         24    2    1    2    0    0  0.00000000000E+00  0.00000000000E+00  0.84492663958E+02  0.11707008495E+03  0.81033292717E+02 0.  0.
         66    2    3    3    0    0 -0.11453171685E+02  0.18903121556E+02  0.91287917895E+02  0.93946724768E+02  0.19999986696E+01 0.  0.
        -13    1    3    3    0    0  0.11453171685E+02 -0.18903121556E+02 -0.67952539372E+01  0.23123360187E+02  0.10566000000E+00 0.  1.
         13    1    4    4    0    0 -0.33723067691E+01  0.65283180330E+01  0.30102249411E+02  0.30986254580E+02  0.10566000000E+00 0. -1.
        -13    1    4    4    0    0 -0.59461977925E+01  0.98248299867E+01  0.49138008223E+02  0.50462258854E+02  0.10566000000E+00 0.  1.
        -14    1    4    4    0    0 -0.21346671234E+01  0.25499735367E+01  0.12047660261E+02  0.12498211334E+02  0.00000000000E+00 0.  1.
<mgrwt>
<rscale>  0 0.81033293E+02</rscale>
<asrwt>0</asrwt>
<pdfrwt beam="1">  1        2 0.15504827E-01 0.81033293E+02</pdfrwt>
<pdfrwt beam="2">  1       -1 0.25059555E-02 0.81033293E+02</pdfrwt>
<totfact> 0.17163886E+05</totfact>
</mgrwt>
</event>
<event>
 8    1  0.1226832E-020  0.8244959E+02  0.7818608E-02  0.1322240E+00
         -1   -1    0    0    0  501 -0.00000000000E+00  0.00000000000E+00  0.30302553282E+01  0.30302595195E+01  0.50400000000E-02 0.  1.
          2   -1    0    0  501    0  0.00000000000E+00 -0.00000000000E+00 -0.56083805406E+03  0.56083805407E+03  0.25500000000E-02 0. -1.
         24    2    1    2    0    0  0.00000000000E+00  0.00000000000E+00 -0.55780779873E+03  0.56386831359E+03  0.82449589081E+02 0.  0.
         66    2    3    3    0    0  0.47172869868E+01  0.38568584738E+02 -0.37276115844E+03  0.37478616537E+03  0.19999970968E+01 0.  0.
        -13    1    3    3    0    0 -0.47172869868E+01 -0.38568584738E+02 -0.18504664030E+03  0.18908214822E+03  0.10566000000E+00 0.  1.
         13    1    4    4    0    0  0.29490973321E+01  0.21258899210E+02 -0.20067751585E+03  0.20182198717E+03  0.10566000000E+00 0. -1.
        -13    1    4    4    0    0  0.31944289659E+00  0.98764260358E+00 -0.10758038357E+02  0.10808516781E+02  0.10566000000E+00 0. -1.
         14    1    4    4    0    0  0.14487467581E+01  0.16322042924E+02 -0.16132560423E+03  0.16215566142E+03  0.00000000000E+00 0. -1.
<mgrwt>
<rscale>  0 0.82449589E+02</rscale>
<asrwt>0</asrwt>
<pdfrwt beam="1">  1        2 0.86282695E-01 0.82449589E+02</pdfrwt>
<pdfrwt beam="2">  1       -1 0.46619390E-03 0.82449589E+02</pdfrwt>
<totfact> 0.29160221E+05</totfact>
</mgrwt>
</event>
<event>
 8    1  0.1226832E-020  0.8135020E+02  0.7818608E-02  0.1325263E+00
         -1   -1    0    0    0  501 -0.00000000000E+00  0.00000000000E+00  0.54140744679E+01  0.54140768138E+01  0.50400000000E-02 0.  1.
          2   -1    0    0  501    0  0.00000000000E+00 -0.00000000000E+00 -0.30558560714E+03  0.30558560715E+03  0.25500000000E-02 0. -1.
         24    2    1    2    0    0  0.71054273576E-14  0.35527136788E-14 -0.30017153267E+03  0.31099968397E+03  0.81350196062E+02 0.  0.
         66    2    3    3    0    0 -0.33001405416E+02 -0.19422943007E+02 -0.20233077801E+03  0.20593223938E+03  0.20000029670E+01 0.  0.
        -13    1    3    3    0    0  0.33001405416E+02  0.19422943007E+02 -0.97840754666E+02  0.10506744459E+03  0.10566000000E+00 0.  1.
         13    1    4    4    0    0 -0.21808394792E+02 -0.13592806972E+02 -0.13633783703E+03  0.13873855792E+03  0.10566000000E+00 0. -1.
        -13    1    4    4    0    0 -0.51276756022E+01 -0.30137388962E+01 -0.29734797376E+02  0.30324000696E+02  0.10566000000E+00 0.  1.
         14    1    4    4    0    0 -0.60653350214E+01 -0.28163971381E+01 -0.36258143607E+02  0.36869680763E+02  0.00000000000E+00 0. -1.
<mgrwt>
<rscale>  0 0.81350196E+02</rscale>
<asrwt>0</asrwt>
<pdfrwt beam="1">  1        2 0.47013157E-01 0.81350196E+02</pdfrwt>
<pdfrwt beam="2">  1       -1 0.83293496E-03 0.81350196E+02</pdfrwt>
<totfact> 0.24562809E+05</totfact>
</mgrwt>
</event>
<event>
 8    1  0.1226832E-020  0.8025987E+02  0.7818608E-02  0.1328316E+00
         -1   -1    0    0    0  501 -0.00000000000E+00  0.00000000000E+00  0.99758719569E+01  0.99758732301E+01  0.50400000000E-02 0.  1.
          2   -1    0    0  501    0  0.00000000000E+00 -0.00000000000E+00 -0.16143065341E+03  0.16143065343E+03  0.25500000000E-02 0. -1.
         24    2    1    2    0    0  0.00000000000E+00 -0.35527136788E-14 -0.15145478145E+03  0.17140652666E+03  0.80259868905E+02 0.  0.
         66    2    3    3    0    0  0.17220524983E+02  0.24824812746E+02 -0.13209980448E+03  0.13552555529E+03  0.19999962882E+01 0.  0.
        -13    1    3    3    0    0 -0.17220524983E+02 -0.24824812746E+02 -0.19354976972E+02  0.35880971367E+02  0.10566000000E+00 0.  1.
         13    1    4    4    0    0  0.10112435578E+02  0.14944241326E+02 -0.81383265396E+02  0.83359695013E+02  0.10566000000E+00 0. -1.
        -13    1    4    4    0    0  0.98220492303E+00  0.15842134159E+01 -0.65188060307E+01  0.67808889358E+01  0.10566000000E+00 0.  1.
         14    1    4    4    0    0  0.61258844818E+01  0.82963580046E+01 -0.44197733051E+02  0.45384971342E+02  0.00000000000E+00 0. -1.
<mgrwt>
<rscale>  0 0.80259869E+02</rscale>
<asrwt>0</asrwt>
<pdfrwt beam="1">  1        2 0.24835483E-01 0.80259869E+02</pdfrwt>
<pdfrwt beam="2">  1       -1 0.15347498E-02 0.80259869E+02</pdfrwt>
<totfact> 0.20339235E+05</totfact>
</mgrwt>
</event>
<event>
 8    1  0.1226832E-020  0.8104140E+02  0.7818608E-02  0.1326122E+00
         -1   -1    0    0    0  501 -0.00000000000E+00  0.00000000000E+00  0.34412116117E+01  0.34412153025E+01  0.50400000000E-02 0.  1.
          2   -1    0    0  501    0  0.00000000000E+00 -0.00000000000E+00 -0.47713603376E+03  0.47713603376E+03  0.25500000000E-02 0. -1.
         24    2    1    2    0    0  0.00000000000E+00  0.00000000000E+00 -0.47369482215E+03  0.48057724907E+03  0.81041395552E+02 0.  0.
         66    2    3    3    0    0 -0.73297998085E+01 -0.38517549023E+02 -0.29705580469E+03  0.29963891371E+03  0.19999911490E+01 0.  0.
        -13    1    3    3    0    0  0.73297998085E+01  0.38517549023E+02 -0.17663901746E+03  0.18093833536E+03  0.10566000000E+00 0.  1.
         13    1    4    4    0    0 -0.50294651304E+01 -0.26206041898E+02 -0.20887312064E+03  0.21057075733E+03  0.10566000000E+00 0. -1.
        -13    1    4    4    0    0 -0.50551938123E+00 -0.24364695601E+01 -0.17875321850E+02  0.18047997923E+02  0.10566000000E+00 0.  1.
         14    1    4    4    0    0 -0.17948152968E+01 -0.98750375650E+01 -0.70307362195E+02  0.71020158460E+02  0.00000000000E+00 0. -1.
<mgrwt>
<rscale>  0 0.81041396E+02</rscale>
<asrwt>0</asrwt>
<pdfrwt beam="1">  1        2 0.73405491E-01 0.81041396E+02</pdfrwt>
<pdfrwt beam="2">  1       -1 0.52941783E-03 0.81041396E+02</pdfrwt>
<totfact> 0.28999495E+05</totfact>
</mgrwt>
</event>
<event>
 8    1  0.1226832E-020  0.8314031E+02  0.7818608E-02  0.1320369E+00
          2   -1    0    0  501    0  0.00000000000E+00  0.00000000000E+00  0.36694754179E+03  0.36694754180E+03  0.25500000000E-02 0. -1.
         -1   -1    0    0    0  501 -0.00000000000E+00 -0.00000000000E+00 -0.47093306032E+01  0.47093333001E+01  0.50400000000E-02 0.  1.
         24    2    1    2    0    0  0.00000000000E+00  0.00000000000E+00  0.36223821119E+03  0.37165687510E+03  0.83140310106E+02 0.  0.
         66    2    3    3    0    0  0.24803213098E+02 -0.15237646128E+02  0.31373335167E+03  0.31508729140E+03  0.20000025394E+01 0.  0.
        -13    1    3    3    0    0 -0.24803213098E+02  0.15237646128E+02  0.48504859519E+02  0.56569583704E+02  0.10566000000E+00 0.  1.
         13    1    4    4    0    0  0.12349194321E+01 -0.97199755994E+00  0.19533710847E+02  0.19597112766E+02  0.10566000000E+00 0. -1.
        -13    1    4    4    0    0  0.82920936138E+01 -0.42795890244E+01  0.10193936142E+03  0.10236561078E+03  0.10566000000E+00 0.  1.
         14    1    4    4    0    0  0.15276200052E+02 -0.99860595438E+01  0.19226027940E+03  0.19312456786E+03  0.00000000000E+00 0. -1.
<mgrwt>
<rscale>  0 0.83140310E+02</rscale>
<asrwt>0</asrwt>
<pdfrwt beam="1">  1        2 0.56453474E-01 0.83140310E+02</pdfrwt>
<pdfrwt beam="2">  1       -1 0.72451253E-03 0.83140310E+02</pdfrwt>
<totfact> 0.24776929E+05</totfact>
</mgrwt>
</event>
<event>
 8    1  0.1226832E-020  0.8005448E+02  0.7818608E-02  0.1328897E+00
          2   -1    0    0  501    0  0.00000000000E+00  0.00000000000E+00  0.61379829329E+03  0.61379829330E+03  0.25500000000E-02 0. -1.
         -1   -1    0    0    0  501 -0.00000000000E+00 -0.00000000000E+00 -0.26102688605E+01  0.26102737262E+01  0.50400000000E-02 0.  1.
         24    2    1    2    0    0  0.35527136788E-14  0.00000000000E+00  0.61118802443E+03  0.61640856703E+03  0.80054483269E+02 0.  0.
         66    2    3    3    0    0 -0.21993779490E+02  0.27106714441E+02  0.45621258798E+03  0.45755046251E+03  0.20000006438E+01 0.  0.
        -13    1    3    3    0    0  0.21993779490E+02 -0.27106714441E+02  0.15497543645E+03  0.15885810452E+03  0.10566000000E+00 0.  1.
         13    1    4    4    0    0 -0.91915959252E+01  0.10498197922E+02  0.19103932782E+03  0.19154825380E+03  0.10566000000E+00 0. -1.
        -13    1    4    4    0    0 -0.41997356220E+01  0.57677572494E+01  0.93931216481E+02  0.94201854528E+02  0.10566000000E+00 0.  1.
        -14    1    4    4    0    0 -0.86024479426E+01  0.10840759269E+02  0.17124204368E+03  0.17180035418E+03  0.00000000000E+00 0.  1.
<mgrwt>
<rscale>  0 0.80054483E+02</rscale>
<asrwt>0</asrwt>
<pdfrwt beam="1">  1        2 0.94430555E-01 0.80054483E+02</pdfrwt>
<pdfrwt beam="2">  1       -1 0.40158000E-03 0.80054483E+02</pdfrwt>
<totfact> 0.32308068E+05</totfact>
</mgrwt>
</event>
<event>
 8    1  0.1226832E-020  0.8062223E+02  0.7818608E-02  0.1327295E+00
         -1   -1    0    0    0  501 -0.00000000000E+00  0.00000000000E+00  0.72983749038E+01  0.72983766440E+01  0.50400000000E-02 0.  1.
          2   -1    0    0  501    0  0.00000000000E+00 -0.00000000000E+00 -0.22265037357E+03  0.22265037359E+03  0.25500000000E-02 0. -1.
         24    2    1    2    0    0  0.17763568394E-14  0.00000000000E+00 -0.21535199867E+03  0.22994875023E+03  0.80622232680E+02 0.  0.
         66    2    3    3    0    0  0.10477931743E+02  0.21684225099E+02 -0.19985402873E+03  0.20130977490E+03  0.19999997509E+01 0.  0.
        -13    1    3    3    0    0 -0.10477931743E+02 -0.21684225099E+02 -0.15497969940E+02  0.28638975332E+02  0.10566000000E+00 0.  1.
         13    1    4    4    0    0  0.25359415676E+01  0.50734168782E+01 -0.47657133200E+02  0.47993583606E+02  0.10566000000E+00 0. -1.
        -13    1    4    4    0    0  0.22265857747E+00  0.15326462060E+01 -0.13104130662E+02  0.13195756351E+02  0.10566000000E+00 0.  1.
        -14    1    4    4    0    0  0.77193315980E+01  0.15078162015E+02 -0.13909276487E+03  0.14012043494E+03  0.00000000000E+00 0.  1.
<mgrwt>
<rscale>  0 0.80622233E+02</rscale>
<asrwt>0</asrwt>
<pdfrwt beam="1">  1        2 0.34253898E-01 0.80622233E+02</pdfrwt>
<pdfrwt beam="2">  1       -1 0.11228272E-02 0.80622233E+02</pdfrwt>
<totfact> 0.22441047E+05</totfact>
</mgrwt>
</event>
<event>
 8    1  0.1226832E-020  0.7808616E+02  0.7818608E-02  0.1334572E+00
          2   -1    0    0  501    0  0.00000000000E+00  0.00000000000E+00  0.39618125776E+03  0.39618125776E+03  0.25500000000E-02 0. -1.
         -1   -1    0    0    0  501 -0.00000000000E+00 -0.00000000000E+00 -0.38476364059E+01  0.38476397069E+01  0.50400000000E-02 0.  1.
         24    2    1    2    0    0  0.00000000000E+00  0.22204460493E-15  0.39233362135E+03  0.40002889747E+03  0.78086159915E+02 0.  0.
         66    2    3    3    0    0 -0.12733436307E+02 -0.16497545464E+01  0.38504490901E+03  0.38526412243E+03  0.19999977295E+01 0.  0.
        -13    1    3    3    0    0  0.12733436307E+02  0.16497545464E+01  0.72887123399E+01  0.14764775036E+02  0.10566000000E+00 0.  1.
         13    1    4    4    0    0 -0.79473523575E+01 -0.34827903828E+00  0.23760230716E+03  0.23773546063E+03  0.10566000000E+00 0. -1.
        -13    1    4    4    0    0 -0.41760315826E+01 -0.14289970722E+01  0.12952553287E+03  0.12960075656E+03  0.10566000000E+00 0.  1.
        -14    1    4    4    0    0 -0.61005236696E+00  0.12752156401E+00  0.17917068982E+02  0.17927905247E+02  0.00000000000E+00 0.  1.
<mgrwt>
<rscale>  0 0.78086160E+02</rscale>
<asrwt>0</asrwt>
<pdfrwt beam="1">  1        2 0.60950978E-01 0.78086160E+02</pdfrwt>
<pdfrwt beam="2">  1       -1 0.59194417E-03 0.78086160E+02</pdfrwt>
<totfact> 0.29995489E+05</totfact>
</mgrwt>
</event>
<event>
 8    1  0.1226832E-020  0.8248835E+02  0.7818608E-02  0.1322135E+00
         -1   -1    0    0    0  501 -0.00000000000E+00  0.00000000000E+00  0.16180421596E+01  0.16180500091E+01  0.50400000000E-02 0.  1.
          2   -1    0    0  501    0  0.00000000000E+00 -0.00000000000E+00 -0.10513185123E+04  0.10513185123E+04  0.25500000000E-02 0. -1.
         24    2    1    2    0    0  0.35527136788E-14 -0.88817841970E-15 -0.10497004701E+04  0.10529365623E+04  0.82488346089E+02 0.  0.
         66    2    3    3    0    0 -0.29644393673E+02 -0.51365130830E+01 -0.88481889327E+03  0.88533250688E+03  0.20000005253E+01 0.  0.
        -13    1    3    3    0    0  0.29644393673E+02  0.51365130830E+01 -0.16488157683E+03  0.16760405539E+03  0.10566000000E+00 0.  1.
         13    1    4    4    0    0 -0.69807830285E+01 -0.36189598918E+00 -0.20486289181E+03  0.20498214045E+03  0.10566000000E+00 0. -1.
        -13    1    4    4    0    0 -0.12219566706E+02 -0.25680623160E+01 -0.36672296386E+03  0.36693549316E+03  0.10566000000E+00 0.  1.
         14    1    4    4    0    0 -0.10444043938E+02 -0.22065547778E+01 -0.31323303761E+03  0.31341487327E+03  0.00000000000E+00 0. -1.
<mgrwt>
<rscale>  0 0.82488346E+02</rscale>
<asrwt>0</asrwt>
<pdfrwt beam="1">  1        2 0.16174076E+00 0.82488346E+02</pdfrwt>
<pdfrwt beam="2">  1       -1 0.24893101E-03 0.82488346E+02</pdfrwt>
<totfact> 0.32572524E+05</totfact>
</mgrwt>
</event>
<event>
 8    1  0.1226832E-020  0.8089052E+02  0.7818608E-02  0.1326543E+00
         -1   -1    0    0    0  501 -0.00000000000E+00  0.00000000000E+00  0.52329463857E+01  0.52329488128E+01  0.50400000000E-02 0.  1.
          2   -1    0    0  501    0  0.00000000000E+00 -0.00000000000E+00 -0.31259994293E+03  0.31259994294E+03  0.25500000000E-02 0. -1.
         24    2    1    2    0    0  0.17763568394E-14 -0.35527136788E-14 -0.30736699655E+03  0.31783289175E+03  0.80890521791E+02 0.  0.
         66    2    3    3    0    0  0.13261872752E+02 -0.18534105859E+02 -0.28494473085E+03  0.28586166231E+03  0.19999985290E+01 0.  0.
        -13    1    3    3    0    0 -0.13261872752E+02  0.18534105859E+02 -0.22422265699E+02  0.31971229442E+02  0.10566000000E+00 0.  1.
         13    1    4    4    0    0  0.37828477584E+01 -0.53262942061E+01 -0.88315126613E+02  0.88556491009E+02  0.10566000000E+00 0. -1.
        -13    1    4    4    0    0  0.48113009923E+00 -0.12862170576E+01 -0.16438417133E+02  0.16496016560E+02  0.10566000000E+00 0.  1.
        -14    1    4    4    0    0  0.89978948943E+01 -0.11921594596E+02 -0.18019118710E+03  0.18080915474E+03  0.00000000000E+00 0.  1.
<mgrwt>
<rscale>  0 0.80890522E+02</rscale>
<asrwt>0</asrwt>
<pdfrwt beam="1">  1        2 0.48092284E-01 0.80890522E+02</pdfrwt>
<pdfrwt beam="2">  1       -1 0.80506911E-03 0.80890522E+02</pdfrwt>
<totfact> 0.25136504E+05</totfact>
</mgrwt>
</event>
<event>
 8    1  0.1226832E-020  0.7983113E+02  0.7818608E-02  0.1329531E+00
          2   -1    0    0  501    0  0.00000000000E+00  0.00000000000E+00  0.54942472129E+02  0.54942472188E+02  0.25500000000E-02 0. -1.
         -1   -1    0    0    0  501 -0.00000000000E+00 -0.00000000000E+00 -0.28998557725E+02  0.28998558163E+02  0.50400000000E-02 0.  1.
         24    2    1    2    0    0  0.00000000000E+00 -0.35527136788E-14  0.25943914404E+02  0.83941030352E+02  0.79831133538E+02 0.  0.
         66    2    3    3    0    0 -0.18903730322E+02 -0.19892872523E+02  0.43421719112E+02  0.51405477202E+02  0.19999996040E+01 0.  0.
        -13    1    3    3    0    0  0.18903730322E+02  0.19892872523E+02 -0.17477804708E+02  0.32535553150E+02  0.10566000000E+00 0.  1.
         13    1    4    4    0    0 -0.12608749744E+02 -0.13531178279E+02  0.30503258798E+02  0.35672584951E+02  0.10566000000E+00 0. -1.
        -13    1    4    4    0    0 -0.27716350839E+01 -0.23589582180E+01  0.49570800308E+01  0.61506464197E+01  0.10566000000E+00 0.  1.
         14    1    4    4    0    0 -0.35233454939E+01 -0.40027360262E+01  0.79613802830E+01  0.95822458315E+01  0.00000000000E+00 0. -1.
<mgrwt>
<rscale>  0 0.79831134E+02</rscale>
<asrwt>0</asrwt>
<pdfrwt beam="1">  1        2 0.84526879E-02 0.79831134E+02</pdfrwt>
<pdfrwt beam="2">  1       -1 0.44613167E-02 0.79831134E+02</pdfrwt>
<totfact> 0.15345636E+05</totfact>
</mgrwt>
</event>
<event>
 8    1  0.1226832E-020  0.7973703E+02  0.7818608E-02  0.1329799E+00
          2   -1    0    0  501    0  0.00000000000E+00  0.00000000000E+00  0.30211932523E+03  0.30211932524E+03  0.25500000000E-02 0. -1.
         -1   -1    0    0    0  501 -0.00000000000E+00 -0.00000000000E+00 -0.52611597366E+01  0.52611621506E+01  0.50400000000E-02 0.  1.
         24    2    1    2    0    0 -0.35527136788E-14  0.35527136788E-14  0.29685816550E+03  0.30738048740E+03  0.79737027841E+02 0.  0.
         66    2    3    3    0    0  0.18978537580E+02  0.24889486490E+02  0.24356177400E+03  0.24557281848E+03  0.19999985753E+01 0.  0.
        -13    1    3    3    0    0 -0.18978537580E+02 -0.24889486490E+02  0.53296391493E+02  0.61807668914E+02  0.10566000000E+00 0.  1.
         13    1    4    4    0    0  0.25423062923E+01  0.32345052883E+01  0.32932666115E+02  0.33188808463E+02  0.10566000000E+00 0. -1.
        -13    1    4    4    0    0  0.67771132608E+00  0.72399110593E+00  0.56593414024E+01  0.57465437358E+01  0.10566000000E+00 0.  1.
        -14    1    4    4    0    0  0.15758519961E+02  0.20930990095E+02  0.20496976649E+03  0.20663746628E+03  0.00000000000E+00 0.  1.
<mgrwt>
<rscale>  0 0.79737028E+02</rscale>
<asrwt>0</asrwt>
<pdfrwt beam="1">  1        2 0.46479922E-01 0.79737028E+02</pdfrwt>
<pdfrwt beam="2">  1       -1 0.80940893E-03 0.79737028E+02</pdfrwt>
<totfact> 0.25781084E+05</totfact>
</mgrwt>
</event>
<event>
 8    1  0.1226832E-020  0.8106636E+02  0.7818608E-02  0.1326052E+00
          2   -1    0    0  501    0  0.00000000000E+00  0.00000000000E+00  0.19692158461E+03  0.19692158463E+03  0.25500000000E-02 0. -1.
         -1   -1    0    0    0  501 -0.00000000000E+00 -0.00000000000E+00 -0.83431097968E+01  0.83431113191E+01  0.50400000000E-02 0.  1.
         24    2    1    2    0    0  0.35527136788E-14 -0.17763568394E-14  0.18857847482E+03  0.20526469595E+03  0.81066357010E+02 0.  0.
         66    2    3    3    0    0  0.30467486340E+02 -0.15644150735E+02  0.14911894457E+03  0.15301459674E+03  0.20000024323E+01 0.  0.
        -13    1    3    3    0    0 -0.30467486340E+02  0.15644150735E+02  0.39459530251E+02  0.52250099213E+02  0.10566000000E+00 0.  1.
         13    1    4    4    0    0  0.21463236003E+02 -0.10999365302E+02  0.10147066991E+03  0.10429748105E+03  0.10566000000E+00 0. -1.
        -13    1    4    4    0    0  0.66336197703E+01 -0.31318575548E+01  0.34366766415E+02  0.35141133175E+02  0.10566000000E+00 0.  1.
        -14    1    4    4    0    0  0.23706305667E+01 -0.15129278787E+01  0.13281508237E+02  0.13575982509E+02  0.00000000000E+00 0.  1.
<mgrwt>
<rscale>  0 0.81066357E+02</rscale>
<asrwt>0</asrwt>
<pdfrwt beam="1">  1        2 0.30295631E-01 0.81066357E+02</pdfrwt>
<pdfrwt beam="2">  1       -1 0.12835554E-02 0.81066357E+02</pdfrwt>
<totfact> 0.21186173E+05</totfact>
</mgrwt>
</event>
<event>
 8    1  0.1226832E-020  0.8034266E+02  0.7818608E-02  0.1328082E+00
          2   -1    0    0  501    0  0.00000000000E+00  0.00000000000E+00  0.25097499022E+03  0.25097499023E+03  0.25500000000E-02 0. -1.
         -1   -1    0    0    0  501 -0.00000000000E+00 -0.00000000000E+00 -0.64298660726E+01  0.64298680479E+01  0.50400000000E-02 0.  1.
         24    2    1    2    0    0  0.17763568394E-14  0.00000000000E+00  0.24454512414E+03  0.25740485828E+03  0.80342661906E+02 0.  0.
         66    2    3    3    0    0  0.14565135374E+02 -0.34912404451E+02  0.79279229369E+02  0.87864755962E+02  0.19999945134E+01 0.  0.
        -13    1    3    3    0    0 -0.14565135374E+02  0.34912404451E+02  0.16526589478E+03  0.16954010231E+03  0.10566000000E+00 0.  1.
         13    1    4    4    0    0  0.17484369697E+01 -0.52021116032E+01  0.10722917061E+02  0.12046207341E+02  0.10566000000E+00 0. -1.
        -13    1    4    4    0    0  0.13815538974E+01 -0.27637627948E+01  0.72819915692E+01  0.79111087218E+01  0.10566000000E+00 0.  1.
        -14    1    4    4    0    0  0.11435144507E+02 -0.26946530053E+02  0.61274320738E+02  0.67907439899E+02  0.00000000000E+00 0.  1.
<mgrwt>
<rscale>  0 0.80342662E+02</rscale>
<asrwt>0</asrwt>
<pdfrwt beam="1">  1        2 0.38611536E-01 0.80342662E+02</pdfrwt>
<pdfrwt beam="2">  1       -1 0.98921034E-03 0.80342662E+02</pdfrwt>
<totfact> 0.23634563E+05</totfact>
</mgrwt>
</event>
<event>
 8    1  0.1226832E-020  0.7866365E+02  0.7818608E-02  0.1332887E+00
         -1   -1    0    0    0  501 -0.00000000000E+00  0.00000000000E+00  0.25816816387E+01  0.25816865583E+01  0.50400000000E-02 0.  1.
          2   -1    0    0  501    0  0.00000000000E+00 -0.00000000000E+00 -0.59921838442E+03  0.59921838443E+03  0.25500000000E-02 0. -1.
         24    2    1    2    0    0  0.00000000000E+00  0.00000000000E+00 -0.59663670278E+03  0.60180007098E+03  0.78663653171E+02 0.  0.
         66    2    3    3    0    0 -0.71626692971E+01 -0.31027399729E+02 -0.47479710898E+03  0.47586794185E+03  0.20000058952E+01 0.  0.
        -13    1    3    3    0    0  0.71626692971E+01  0.31027399729E+02 -0.12183959381E+03  0.12593212913E+03  0.10566000000E+00 0.  1.
         13    1    4    4    0    0 -0.48538221391E+01 -0.17774525514E+02 -0.28398240244E+03  0.28457953090E+03  0.10566000000E+00 0. -1.
        -13    1    4    4    0    0 -0.17672743090E+01 -0.10415438823E+02 -0.15034464410E+03  0.15071538674E+03  0.10566000000E+00 0.  1.
         14    1    4    4    0    0 -0.54157284905E+00 -0.28374353912E+01 -0.40470062429E+02  0.40573024213E+02  0.00000000000E+00 0. -1.
<mgrwt>
<rscale>  0 0.78663653E+02</rscale>
<asrwt>0</asrwt>
<pdfrwt beam="1">  1        2 0.92187333E-01 0.78663653E+02</pdfrwt>
<pdfrwt beam="2">  1       -1 0.39718265E-03 0.78663653E+02</pdfrwt>
<totfact> 0.33591331E+05</totfact>
</mgrwt>
</event>
<event>
 8    1  0.1226832E-020  0.8730166E+02  0.7818608E-02  0.1309521E+00
         -1   -1    0    0    0  501 -0.00000000000E+00  0.00000000000E+00  0.48446252964E+01  0.48446279180E+01  0.50400000000E-02 0.  1.
          2   -1    0    0  501    0  0.00000000000E+00 -0.00000000000E+00 -0.39330066145E+03  0.39330066146E+03  0.25500000000E-02 0. -1.
         24    2    1    2    0    0  0.00000000000E+00  0.00000000000E+00 -0.38845603615E+03  0.39814528937E+03  0.87301657649E+02 0.  0.
         66    2    3    3    0    0 -0.35795848964E+02 -0.57124875316E+01 -0.30505054023E+03  0.30720320214E+03  0.19999981127E+01 0.  0.
        -13    1    3    3    0    0  0.35795848964E+02  0.57124875316E+01 -0.83405495920E+02  0.90942087235E+02  0.10566000000E+00 0.  1.
         13    1    4    4    0    0 -0.19040573434E+02 -0.23607260634E+01 -0.15987448316E+03  0.16102166933E+03  0.10566000000E+00 0. -1.
        -13    1    4    4    0    0 -0.37471695983E+01 -0.91947982671E+00 -0.29748777738E+02  0.29998127677E+02  0.10566000000E+00 0.  1.
         14    1    4    4    0    0 -0.13008105932E+02 -0.24322816415E+01 -0.11542727933E+03  0.11618340513E+03  0.00000000000E+00 0. -1.
<mgrwt>
<rscale>  0 0.87301658E+02</rscale>
<asrwt>0</asrwt>
<pdfrwt beam="1">  1        2 0.60507769E-01 0.87301658E+02</pdfrwt>
<pdfrwt beam="2">  1       -1 0.74532748E-03 0.87301658E+02</pdfrwt>
<totfact> 0.22334176E+05</totfact>
</mgrwt>
</event>
<event>
 8    1  0.1226832E-020  0.7723330E+02  0.7818608E-02  0.1337091E+00
         -1   -1    0    0    0  501 -0.00000000000E+00  0.00000000000E+00  0.53521320413E+02  0.53521320651E+02  0.50400000000E-02 0.  1.
          2   -1    0    0  501    0  0.00000000000E+00 -0.00000000000E+00 -0.27862645360E+02  0.27862645477E+02  0.25500000000E-02 0. -1.
         24    2    1    2    0    0  0.00000000000E+00  0.00000000000E+00  0.25658675053E+02  0.81383966128E+02  0.77233298112E+02 0.  0.
         66    2    3    3    0    0  0.25860397436E+01 -0.38351938289E+02  0.16439479172E+02  0.41854692054E+02  0.19999998618E+01 0.  0.
        -13    1    3    3    0    0 -0.25860397436E+01  0.38351938289E+02  0.92191958813E+01  0.39529274074E+02  0.10566000000E+00 0.  1.
         13    1    4    4    0    0  0.12898355586E+01 -0.16217505800E+02  0.76747853882E+01  0.17988459215E+02  0.10566000000E+00 0.  1.
        -13    1    4    4    0    0  0.11136347175E+01 -0.14630594678E+02  0.53260435114E+01  0.15610009175E+02  0.10566000000E+00 0. -1.
        -14    1    4    4    0    0  0.18256946749E+00 -0.75038378105E+01  0.34386502723E+01  0.82562236641E+01  0.00000000000E+00 0.  1.
<mgrwt>
<rscale>  0 0.77233298E+02</rscale>
<asrwt>0</asrwt>
<pdfrwt beam="1">  1        2 0.42865609E-02 0.77233298E+02</pdfrwt>
<pdfrwt beam="2">  1       -1 0.82340493E-02 0.77233298E+02</pdfrwt>
<totfact> 0.14636815E+05</totfact>
</mgrwt>
</event>
<event>
 8    1  0.1226832E-020  0.7949598E+02  0.7818608E-02  0.1330488E+00
         -1   -1    0    0    0  501 -0.00000000000E+00  0.00000000000E+00  0.31677379370E+01  0.31677419464E+01  0.50400000000E-02 0.  1.
          2   -1    0    0  501    0  0.00000000000E+00 -0.00000000000E+00 -0.49874755189E+03  0.49874755190E+03  0.25500000000E-02 0. -1.
         24    2    1    2    0    0  0.17763568394E-14  0.00000000000E+00 -0.49557981395E+03  0.50191529384E+03  0.79495975972E+02 0.  0.
         66    2    3    3    0    0  0.81533295929E+01  0.24546725441E+02 -0.43828993388E+03  0.43905704032E+03  0.19999998623E+01 0.  0.
        -13    1    3    3    0    0 -0.81533295929E+01 -0.24546725441E+02 -0.57289880074E+02  0.62858253525E+02  0.10566000000E+00 0.  1.
         13    1    4    4    0    0  0.54618742118E+01  0.17456827118E+02 -0.31210093837E+03  0.31263649784E+03  0.10566000000E+00 0. -1.
        -13    1    4    4    0    0  0.25683324431E+01  0.66681856160E+01 -0.12184208149E+03  0.12205148511E+03  0.10566000000E+00 0.  1.
        -14    1    4    4    0    0  0.12312293797E+00  0.42171270741E+00 -0.43469140185E+01  0.43690573754E+01  0.00000000000E+00 0.  1.
<mgrwt>
<rscale>  0 0.79495976E+02</rscale>
<asrwt>0</asrwt>
<pdfrwt beam="1">  1        2 0.76730330E-01 0.79495976E+02</pdfrwt>
<pdfrwt beam="2">  1       -1 0.48734500E-03 0.79495976E+02</pdfrwt>
<totfact> 0.30932184E+05</totfact>
</mgrwt>
</event>
<event>
 8    1  0.1226832E-020  0.8027831E+02  0.7818608E-02  0.1328263E+00
         -1   -1    0    0    0  501 -0.00000000000E+00  0.00000000000E+00  0.26817384217E+01  0.26817431577E+01  0.50400000000E-02 0.  1.
          2   -1    0    0  501    0  0.00000000000E+00 -0.00000000000E+00 -0.60078585393E+03  0.60078585394E+03  0.25500000000E-02 0. -1.
         24    2    1    2    0    0  0.00000000000E+00  0.00000000000E+00 -0.59810411551E+03  0.60346759710E+03  0.80278314341E+02 0.  0.
         66    2    3    3    0    0 -0.27583429205E+02  0.14214137901E+02 -0.49033651904E+03  0.49132147234E+03  0.20000005194E+01 0.  0.
        -13    1    3    3    0    0  0.27583429205E+02 -0.14214137901E+02 -0.10776759647E+03  0.11214612475E+03  0.10566000000E+00 0.  1.
         13    1    4    4    0    0 -0.18521147432E+01  0.91412663339E+00 -0.26523993041E+02  0.26604498255E+02  0.10566000000E+00 0. -1.
        -13    1    4    4    0    0 -0.74021227241E+01  0.42391513311E+01 -0.13918754937E+03  0.13944872495E+03  0.10566000000E+00 0.  1.
         14    1    4    4    0    0 -0.18329191738E+02  0.90608599368E+01 -0.32462497662E+03  0.32526824914E+03  0.00000000000E+00 0. -1.
<mgrwt>
<rscale>  0 0.80278314E+02</rscale>
<asrwt>0</asrwt>
<pdfrwt beam="1">  1        2 0.92428486E-01 0.80278314E+02</pdfrwt>
<pdfrwt beam="2">  1       -1 0.41257599E-03 0.80278314E+02</pdfrwt>
<totfact> 0.31885722E+05</totfact>
</mgrwt>
</event>
<event>
 8    1  0.1226832E-020  0.8165662E+02  0.7818608E-02  0.1324415E+00
         -1   -1    0    0    0  501 -0.00000000000E+00  0.00000000000E+00  0.97929719102E+02  0.97929719232E+02  0.50400000000E-02 0.  1.
          2   -1    0    0  501    0  0.00000000000E+00 -0.00000000000E+00 -0.17021909281E+02  0.17021909472E+02  0.25500000000E-02 0. -1.
         24    2    1    2    0    0  0.00000000000E+00  0.00000000000E+00  0.80907809821E+02  0.11495162870E+03  0.81656617929E+02 0.  0.
         66    2    3    3    0    0 -0.11811992599E+02 -0.11070165060E+02 -0.12248898071E+02  0.20398706418E+02  0.19999989851E+01 0.  0.
        -13    1    3    3    0    0  0.11811992599E+02  0.11070165060E+02  0.93156707892E+02  0.94552922286E+02  0.10566000000E+00 0.  1.
         13    1    4    4    0    0 -0.46283589459E+01 -0.37418833424E+01 -0.36554941872E+01  0.69854992139E+01  0.10566000000E+00 0. -1.
        -13    1    4    4    0    0 -0.38953965208E+01 -0.39744882402E+01 -0.41004304757E+01  0.69134191936E+01  0.10566000000E+00 0.  1.
        -14    1    4    4    0    0 -0.32882371322E+01 -0.33537934776E+01 -0.44929734082E+01  0.64997880100E+01  0.00000000000E+00 0.  1.
<mgrwt>
<rscale>  0 0.81656618E+02</rscale>
<asrwt>0</asrwt>
<pdfrwt beam="1">  1        2 0.26187553E-02 0.81656618E+02</pdfrwt>
<pdfrwt beam="2">  1       -1 0.15066110E-01 0.81656618E+02</pdfrwt>
<totfact> 0.11313654E+05</totfact>
</mgrwt>
</event>
<event>
 8    1  0.1226832E-020  0.8020885E+02  0.7818608E-02  0.1328460E+00
          2   -1    0    0  501    0  0.00000000000E+00  0.00000000000E+00  0.90839314971E+03  0.90839314971E+03  0.25500000000E-02 0. -1.
         -1   -1    0    0    0  501 -0.00000000000E+00 -0.00000000000E+00 -0.17705568791E+01  0.17705640525E+01  0.50400000000E-02 0.  1.
         24    2    1    2    0    0 -0.17763568394E-14  0.00000000000E+00  0.90662259283E+03  0.91016371376E+03  0.80208852535E+02 0.  0.
         66    2    3    3    0    0  0.13639034560E+02  0.11699739229E+02  0.86011728075E+03  0.86030729615E+03  0.20000005150E+01 0.  0.
        -13    1    3    3    0    0 -0.13639034560E+02 -0.11699739229E+02  0.46505312084E+02  0.49856417619E+02  0.10566000000E+00 0.  1.
         13    1    4    4    0    0  0.62338554541E+01  0.48405074349E+01  0.39074112199E+03  0.39082083752E+03  0.10566000000E+00 0. -1.
        -13    1    4    4    0    0  0.10993992399E+01  0.50036713142E+00  0.50076815604E+02  0.50091493001E+02  0.10566000000E+00 0.  1.
         14    1    4    4    0    0  0.63057798661E+01  0.63588646631E+01  0.41929934315E+03  0.41939496562E+03  0.00000000000E+00 0. -1.
<mgrwt>
<rscale>  0 0.80208853E+02</rscale>
<asrwt>0</asrwt>
<pdfrwt beam="1">  1        2 0.13975269E+00 0.80208853E+02</pdfrwt>
<pdfrwt beam="2">  1       -1 0.27239411E-03 0.80208853E+02</pdfrwt>
<totfact> 0.34745322E+05</totfact>
</mgrwt>
</event>
<event>
 8    1  0.1226832E-020  0.8319549E+02  0.7818608E-02  0.1320220E+00
          2   -1    0    0  501    0  0.00000000000E+00  0.00000000000E+00  0.11553035015E+03  0.11553035018E+03  0.25500000000E-02 0. -1.
         -1   -1    0    0    0  501 -0.00000000000E+00 -0.00000000000E+00 -0.14977641999E+02  0.14977642847E+02  0.50400000000E-02 0.  1.
         24    2    1    2    0    0 -0.88817841970E-15  0.35527136788E-14  0.10055270815E+03  0.13050799302E+03  0.83195487420E+02 0.  0.
         66    2    3    3    0    0 -0.70192196090E+01  0.29863598171E+02  0.94319988397E+02  0.99203649888E+02  0.20000000634E+01 0.  0.
        -13    1    3    3    0    0  0.70192196090E+01 -0.29863598171E+02  0.62327197527E+01  0.31304343136E+02  0.10566000000E+00 0.  1.
         13    1    4    4    0    0 -0.43388069489E+01  0.16179427221E+02  0.49095853764E+02  0.51874975969E+02  0.10566000000E+00 0. -1.
        -13    1    4    4    0    0 -0.14908843912E+01  0.70014950611E+01  0.22344161392E+02  0.23463085511E+02  0.10566000000E+00 0.  1.
        -14    1    4    4    0    0 -0.11895282689E+01  0.66826758890E+01  0.22879973242E+02  0.23865588408E+02  0.00000000000E+00 0.  1.
<mgrwt>
<rscale>  0 0.83195487E+02</rscale>
<asrwt>0</asrwt>
<pdfrwt beam="1">  1        2 0.17773900E-01 0.83195487E+02</pdfrwt>
<pdfrwt beam="2">  1       -1 0.23042527E-02 0.83195487E+02</pdfrwt>
<totfact> 0.16638932E+05</totfact>
</mgrwt>
</event>
<event>
 8    1  0.1226832E-020  0.7859620E+02  0.7818608E-02  0.1333083E+00
         -1   -1    0    0    0  501 -0.00000000000E+00  0.00000000000E+00  0.74858384814E+01  0.74858401781E+01  0.50400000000E-02 0.  1.
          2   -1    0    0  501    0  0.00000000000E+00 -0.00000000000E+00 -0.20630159221E+03  0.20630159223E+03  0.25500000000E-02 0. -1.
         24    2    1    2    0    0  0.71054273576E-14  0.00000000000E+00 -0.19881575373E+03  0.21378743240E+03  0.78596197892E+02 0.  0.
         66    2    3    3    0    0  0.29016360440E+02  0.26463950513E+02 -0.10005414146E+03  0.10750405143E+03  0.19999999774E+01 0.  0.
        -13    1    3    3    0    0 -0.29016360440E+02 -0.26463950513E+02 -0.98761612264E+02  0.10628338097E+03  0.10566000000E+00 0.  1.
         13    1    4    4    0    0  0.17528137914E+02  0.16447409666E+02 -0.60497703851E+02  0.65097897344E+02  0.10566000000E+00 0. -1.
        -13    1    4    4    0    0  0.82315097232E+01  0.77691714522E+01 -0.28751053181E+02  0.30899061482E+02  0.10566000000E+00 0.  1.
        -14    1    4    4    0    0  0.32567128027E+01  0.22473693957E+01 -0.10805384432E+02  0.11507092605E+02  0.00000000000E+00 0.  1.
<mgrwt>
<rscale>  0 0.78596198E+02</rscale>
<asrwt>0</asrwt>
<pdfrwt beam="1">  1        2 0.31738702E-01 0.78596198E+02</pdfrwt>
<pdfrwt beam="2">  1       -1 0.11516678E-02 0.78596198E+02</pdfrwt>
<totfact> 0.23362918E+05</totfact>
</mgrwt>
</event>
<event>
 8    1  0.1226832E-020  0.7535595E+02  0.7818608E-02  0.1342772E+00
          2   -1    0    0  501    0  0.00000000000E+00  0.00000000000E+00  0.56774269231E+01  0.56774274958E+01  0.25500000000E-02 0. -1.
         -1   -1    0    0    0  501 -0.00000000000E+00 -0.00000000000E+00 -0.25004807426E+03  0.25004807431E+03  0.50400000000E-02 0.  1.
         24    2    1    2    0    0  0.88817841970E-15  0.00000000000E+00 -0.24437064733E+03  0.25572550180E+03  0.75355948632E+02 0.  0.
         66    2    3    3    0    0 -0.56505085273E+01 -0.37120609450E+02 -0.11281960724E+03  0.11892069485E+03  0.19999981373E+01 0.  0.
        -13    1    3    3    0    0  0.56505085273E+01  0.37120609450E+02 -0.13155104009E+03  0.13680480695E+03  0.10566000000E+00 0.  1.
         13    1    4    4    0    0 -0.16306530479E+01 -0.10239615983E+02 -0.30469522477E+02  0.32185582624E+02  0.10566000000E+00 0. -1.
        -13    1    4    4    0    0 -0.40685924273E+01 -0.25362473731E+02 -0.78513587270E+02  0.82608734818E+02  0.10566000000E+00 0.  1.
        -14    1    4    4    0    0  0.48736947924E-01 -0.15185197362E+01 -0.38364974945E+01  0.41263774070E+01  0.00000000000E+00 0.  1.
<mgrwt>
<rscale>  0 0.75355949E+02</rscale>
<asrwt>0</asrwt>
<pdfrwt beam="1">  1        2 0.87345054E-03 0.75355949E+02</pdfrwt>
<pdfrwt beam="2">  1       -1 0.38468926E-01 0.75355949E+02</pdfrwt>
<totfact> 0.10787322E+05</totfact>
</mgrwt>
</event>
<event>
 8    1  0.1226832E-020  0.7930163E+02  0.7818608E-02  0.1331045E+00
          2   -1    0    0  501    0  0.00000000000E+00  0.00000000000E+00  0.19604727527E+02  0.19604727693E+02  0.25500000000E-02 0. -1.
         -1   -1    0    0    0  501 -0.00000000000E+00 -0.00000000000E+00 -0.80194283059E+02  0.80194283217E+02  0.50400000000E-02 0.  1.
         24    2    1    2    0    0  0.00000000000E+00  0.00000000000E+00 -0.60589555532E+02  0.99799010911E+02  0.79301628856E+02 0.  0.
         66    2    3    3    0    0  0.71195618082E+01  0.29378697885E+02  0.19281433509E+01  0.30356445525E+02  0.19999995986E+01 0.  0.
        -13    1    3    3    0    0 -0.71195618082E+01 -0.29378697885E+02 -0.62517698883E+02  0.69442565386E+02  0.10566000000E+00 0.  1.
         13    1    4    4    0    0  0.21162271465E+01  0.80106281883E+01  0.40457445510E+00  0.82959885386E+01  0.10566000000E+00 0. -1.
        -13    1    4    4    0    0  0.34293159536E+01  0.15874161791E+02  0.17916649414E+01  0.16339230329E+02  0.10566000000E+00 0.  1.
        -14    1    4    4    0    0  0.15740187082E+01  0.54939079057E+01 -0.26809604554E+00  0.57212266569E+01  0.00000000000E+00 0.  1.
<mgrwt>
<rscale>  0 0.79301629E+02</rscale>
<asrwt>0</asrwt>
<pdfrwt beam="1">  1        2 0.30161120E-02 0.79301629E+02</pdfrwt>
<pdfrwt beam="2">  1       -1 0.12337582E-01 0.79301629E+02</pdfrwt>
<totfact> 0.12681110E+05</totfact>
</mgrwt>
</event>
<event>
 8    1  0.1226832E-020  0.8193189E+02  0.7818608E-02  0.1323657E+00
         -1   -1    0    0    0  501 -0.00000000000E+00  0.00000000000E+00  0.60826477024E+02  0.60826477233E+02  0.50400000000E-02 0.  1.
          2   -1    0    0  501    0  0.00000000000E+00 -0.00000000000E+00 -0.27590103484E+02  0.27590103602E+02  0.25500000000E-02 0. -1.
         24    2    1    2    0    0  0.00000000000E+00  0.71054273576E-14  0.33236373541E+02  0.88416580835E+02  0.81931893914E+02 0.  0.
         66    2    3    3    0    0  0.11684764643E+02  0.39207413005E+02  0.18316800958E+02  0.44869367727E+02  0.20000009043E+01 0.  0.
        -13    1    3    3    0    0 -0.11684764643E+02 -0.39207413005E+02  0.14919572583E+02  0.43547213107E+02  0.10566000000E+00 0.  1.
         13    1    4    4    0    0  0.85005550725E+01  0.29467987992E+02  0.14361418295E+02  0.33865664799E+02  0.10566000000E+00 0. -1.
        -13    1    4    4    0    0  0.13522226138E+01  0.50964593973E+01  0.18981863858E+01  0.56050584275E+01  0.10566000000E+00 0.  1.
        -14    1    4    4    0    0  0.18319869562E+01  0.46429656165E+01  0.20571962770E+01  0.53986445008E+01  0.00000000000E+00 0.  1.
<mgrwt>
<rscale>  0 0.81931894E+02</rscale>
<asrwt>0</asrwt>
<pdfrwt beam="1">  1        2 0.42446314E-02 0.81931894E+02</pdfrwt>
<pdfrwt beam="2">  1       -1 0.93579195E-02 0.81931894E+02</pdfrwt>
<totfact> 0.12373255E+05</totfact>
</mgrwt>
</event>
<event>
 8    1  0.1226832E-020  0.8209515E+02  0.7818608E-02  0.1323209E+00
         -1   -1    0    0    0  501 -0.00000000000E+00  0.00000000000E+00  0.29128068304E+02  0.29128068740E+02  0.50400000000E-02 0.  1.
          2   -1    0    0  501    0  0.00000000000E+00 -0.00000000000E+00 -0.57844670665E+02  0.57844670721E+02  0.25500000000E-02 0. -1.
         24    2    1    2    0    0 -0.71054273576E-14  0.00000000000E+00 -0.28716602361E+02  0.86972739460E+02  0.82095153073E+02 0.  0.
         66    2    3    3    0    0  0.39967132333E+02  0.73926129100E+01 -0.20253571874E+02  0.45455797839E+02  0.19999977562E+01 0.  0.
        -13    1    3    3    0    0 -0.39967132333E+02 -0.73926129100E+01 -0.84630304871E+01  0.41516941621E+02  0.10566000000E+00 0.  1.
         13    1    4    4    0    0  0.30893598092E+02  0.58931063798E+01 -0.16476029742E+02  0.35505123940E+02  0.10566000000E+00 0. -1.
        -13    1    4    4    0    0  0.18261981185E+01  0.43947563427E+00 -0.76555240702E+00  0.20311014068E+01  0.10566000000E+00 0.  1.
        -14    1    4    4    0    0  0.72473361220E+01  0.10600308959E+01 -0.30119897249E+01  0.79195724928E+01  0.00000000000E+00 0.  1.
<mgrwt>
<rscale>  0 0.82095153E+02</rscale>
<asrwt>0</asrwt>
<pdfrwt beam="1">  1        2 0.88991801E-02 0.82095153E+02</pdfrwt>
<pdfrwt beam="2">  1       -1 0.44812413E-02 0.82095153E+02</pdfrwt>
<totfact> 0.14384359E+05</totfact>
</mgrwt>
</event>
<event>
 8    1  0.1226832E-020  0.8936649E+02  0.7818608E-02  0.1304393E+00
          2   -1    0    0  501    0  0.00000000000E+00  0.00000000000E+00  0.23515585237E+02  0.23515585375E+02  0.25500000000E-02 0. -1.
         -1   -1    0    0    0  501 -0.00000000000E+00 -0.00000000000E+00 -0.84905076272E+02  0.84905076422E+02  0.50400000000E-02 0.  1.
         24    2    1    2    0    0  0.00000000000E+00  0.00000000000E+00 -0.61389491036E+02  0.10842066180E+03  0.89366494252E+02 0.  0.
         66    2    3    3    0    0  0.10049224500E+02 -0.37092972253E+02 -0.31054771619E+01  0.38607246604E+02  0.19999995846E+01 0.  0.
        -13    1    3    3    0    0 -0.10049224500E+02  0.37092972253E+02 -0.58284013874E+02  0.69813415193E+02  0.10566000000E+00 0.  1.
         13    1    4    4    0    0  0.28107600030E+01 -0.10949732403E+02 -0.13289579421E+01  0.11383070971E+02  0.10566000000E+00 0. -1.
        -13    1    4    4    0    0  0.14216035212E+01 -0.75221688073E+01 -0.36641770809E+00  0.76648161171E+01  0.10566000000E+00 0.  1.
         14    1    4    4    0    0  0.58168609763E+01 -0.18621071043E+02 -0.14101015118E+01  0.19559359516E+02  0.00000000000E+00 0. -1.
<mgrwt>
<rscale>  0 0.89366494E+02</rscale>
<asrwt>0</asrwt>
<pdfrwt beam="1">  1        2 0.36177824E-02 0.89366494E+02</pdfrwt>
<pdfrwt beam="2">  1       -1 0.13062319E-01 0.89366494E+02</pdfrwt>
<totfact> 0.93300214E+04</totfact>
</mgrwt>
</event>
<event>
 8    1  0.1226832E-020  0.7914402E+02  0.7818608E-02  0.1331498E+00
          2   -1    0    0  501    0  0.00000000000E+00  0.00000000000E+00  0.65962195663E+03  0.65962195664E+03  0.25500000000E-02 0. -1.
         -1   -1    0    0    0  501 -0.00000000000E+00 -0.00000000000E+00 -0.23739994064E+01  0.23740047563E+01  0.50400000000E-02 0.  1.
         24    2    1    2    0    0  0.00000000000E+00  0.00000000000E+00  0.65724795723E+03  0.66199596140E+03  0.79144018243E+02 0.  0.
         66    2    3    3    0    0  0.18038221506E+02  0.78831509332E+01  0.61572494294E+03  0.61604279629E+03  0.19999993269E+01 0.  0.
        -13    1    3    3    0    0 -0.18038221506E+02 -0.78831509332E+01  0.41523014290E+02  0.45953165108E+02  0.10566000000E+00 0.  1.
         13    1    4    4    0    0  0.20252360556E+01  0.46284960873E+00  0.75194626648E+02  0.75223392982E+02  0.10566000000E+00 0. -1.
        -13    1    4    4    0    0  0.76186381971E+01  0.30751075297E+01  0.24152905404E+03  0.24166877135E+03  0.10566000000E+00 0.  1.
         14    1    4    4    0    0  0.83943472533E+01  0.43451937948E+01  0.29900126225E+03  0.29915063196E+03  0.00000000000E+00 0. -1.
<mgrwt>
<rscale>  0 0.79144018E+02</rscale>
<asrwt>0</asrwt>
<pdfrwt beam="1">  1        2 0.10148039E+00 0.79144018E+02</pdfrwt>
<pdfrwt beam="2">  1       -1 0.36523075E-03 0.79144018E+02</pdfrwt>
<totfact> 0.33914328E+05</totfact>
</mgrwt>
</event>
<event>
 8    1  0.1226832E-020  0.8111840E+02  0.7818608E-02  0.1325907E+00
          2   -1    0    0  501    0  0.00000000000E+00  0.00000000000E+00  0.29929345668E+03  0.29929345669E+03  0.25500000000E-02 0. -1.
         -1   -1    0    0    0  501 -0.00000000000E+00 -0.00000000000E+00 -0.54964400639E+01  0.54964423746E+01  0.50400000000E-02 0.  1.
         24    2    1    2    0    0  0.00000000000E+00 -0.88817841970E-15  0.29379701662E+03  0.30478989906E+03  0.81118404815E+02 0.  0.
         66    2    3    3    0    0  0.15604911746E+02 -0.43208592152E+01  0.28661028574E+03  0.28707427433E+03  0.19999992777E+01 0.  0.
        -13    1    3    3    0    0 -0.15604911746E+02  0.43208592152E+01  0.71867308775E+01  0.17715624733E+02  0.10566000000E+00 0.  1.
         13    1    4    4    0    0  0.20552013836E+01 -0.93843596039E+00  0.38089880996E+02  0.38156974632E+02  0.10566000000E+00 0.  1.
        -13    1    4    4    0    0  0.99155640293E+00  0.10280751261E+00  0.21030940882E+02  0.21054818734E+02  0.10566000000E+00 0. -1.
         14    1    4    4    0    0  0.12558153959E+02 -0.34852307674E+01  0.22748946386E+03  0.22786248097E+03  0.00000000000E+00 0. -1.
<mgrwt>
<rscale>  0 0.81118405E+02</rscale>
<asrwt>0</asrwt>
<pdfrwt beam="1">  1        2 0.46045142E-01 0.81118405E+02</pdfrwt>
<pdfrwt beam="2">  1       -1 0.84560643E-03 0.81118405E+02</pdfrwt>
<totfact> 0.24561577E+05</totfact>
</mgrwt>
</event>
<event>
 8    1  0.1226832E-020  0.8115260E+02  0.7818608E-02  0.1325812E+00
         -1   -1    0    0    0  501 -0.00000000000E+00  0.00000000000E+00  0.96042617975E+01  0.96042631200E+01  0.50400000000E-02 0.  1.
          2   -1    0    0  501    0  0.00000000000E+00 -0.00000000000E+00 -0.17142765038E+03  0.17142765040E+03  0.25500000000E-02 0. -1.
         24    2    1    2    0    0  0.35527136788E-14  0.00000000000E+00 -0.16182338858E+03  0.18103191352E+03  0.81152600821E+02 0.  0.
         66    2    3    3    0    0  0.24862944105E+02  0.10508621842E+02 -0.14846961027E+03  0.15091660708E+03  0.19999990253E+01 0.  0.
        -13    1    3    3    0    0 -0.24862944105E+02 -0.10508621842E+02 -0.13353778311E+02  0.30115306438E+02  0.10566000000E+00 0.  1.
         13    1    4    4    0    0  0.10477105358E+02  0.37774020248E+01 -0.64578978382E+02  0.65532389821E+02  0.10566000000E+00 0. -1.
        -13    1    4    4    0    0  0.45281028907E+01  0.23658217715E+01 -0.28368752588E+02  0.28825303396E+02  0.10566000000E+00 0.  1.
        -14    1    4    4    0    0  0.98577358569E+01  0.43653980462E+01 -0.55521879304E+02  0.56558913867E+02  0.00000000000E+00 0.  1.
<mgrwt>
<rscale>  0 0.81152601E+02</rscale>
<asrwt>0</asrwt>
<pdfrwt beam="1">  1        2 0.26373483E-01 0.81152601E+02</pdfrwt>
<pdfrwt beam="2">  1       -1 0.14775790E-02 0.81152601E+02</pdfrwt>
<totfact> 0.20149664E+05</totfact>
</mgrwt>
</event>
<event>
 8    1  0.1226832E-020  0.8006623E+02  0.7818608E-02  0.1328864E+00
          2   -1    0    0  501    0  0.00000000000E+00  0.00000000000E+00  0.28763683707E+03  0.28763683708E+03  0.25500000000E-02 0. -1.
         -1   -1    0    0    0  501 -0.00000000000E+00 -0.00000000000E+00 -0.55717825152E+01  0.55717847947E+01  0.50400000000E-02 0.  1.
         24    2    1    2    0    0  0.00000000000E+00  0.00000000000E+00  0.28206505455E+03  0.29320862187E+03  0.80066228470E+02 0.  0.
         66    2    3    3    0    0 -0.13856464021E+02 -0.43500154989E+01  0.27763867887E+03  0.27802546688E+03  0.19999989799E+01 0.  0.
        -13    1    3    3    0    0  0.13856464021E+02  0.43500154989E+01  0.44263756824E+01  0.15183154999E+02  0.10566000000E+00 0.  1.
         13    1    4    4    0    0 -0.67488566931E+01 -0.15842345000E+01  0.14179427017E+03  0.14196366818E+03  0.10566000000E+00 0. -1.
        -13    1    4    4    0    0 -0.23235102281E+01 -0.54878795000E+00  0.37386208184E+02  0.37462509184E+02  0.10566000000E+00 0.  1.
         14    1    4    4    0    0 -0.47840971003E+01 -0.22169930489E+01  0.98458200516E+02  0.98599289511E+02  0.00000000000E+00 0. -1.
<mgrwt>
<rscale>  0 0.80066228E+02</rscale>
<asrwt>0</asrwt>
<pdfrwt beam="1">  1        2 0.44251842E-01 0.80066228E+02</pdfrwt>
<pdfrwt beam="2">  1       -1 0.85719709E-03 0.80066228E+02</pdfrwt>
<totfact> 0.25054352E+05</totfact>
</mgrwt>
</event>
<event>
 8    1  0.1226832E-020  0.8048191E+02  0.7818608E-02  0.1327689E+00
         -1   -1    0    0    0  501 -0.00000000000E+00  0.00000000000E+00  0.13673391411E+02  0.13673392339E+02  0.50400000000E-02 0.  1.
          2   -1    0    0  501    0  0.00000000000E+00 -0.00000000000E+00 -0.11842962020E+03  0.11842962023E+03  0.25500000000E-02 0. -1.
         24    2    1    2    0    0  0.00000000000E+00  0.35527136788E-14 -0.10475622879E+03  0.13210301257E+03  0.80481913864E+02 0.  0.
         66    2    3    3    0    0 -0.28841024046E+02 -0.26476987528E+02 -0.67498229543E+02  0.78056687915E+02  0.20000000650E+01 0.  0.
        -13    1    3    3    0    0  0.28841024046E+02  0.26476987528E+02 -0.37257999250E+02  0.54046324655E+02  0.10566000000E+00 0.  1.
         13    1    4    4    0    0 -0.12118423421E+02 -0.11822895360E+02 -0.29230124125E+02  0.33779407356E+02  0.10566000000E+00 0. -1.
        -13    1    4    4    0    0 -0.66332210460E+01 -0.50119002661E+01 -0.14525377977E+02  0.16736682321E+02  0.10566000000E+00 0.  1.
        -14    1    4    4    0    0 -0.10089379580E+02 -0.96421919015E+01 -0.23742727441E+02  0.27540598238E+02  0.00000000000E+00 0.  1.
<mgrwt>
<rscale>  0 0.80481914E+02</rscale>
<asrwt>0</asrwt>
<pdfrwt beam="1">  1        2 0.18219941E-01 0.80481914E+02</pdfrwt>
<pdfrwt beam="2">  1       -1 0.21035988E-02 0.80481914E+02</pdfrwt>
<totfact> 0.18317301E+05</totfact>
</mgrwt>
</event>
<event>
 8    1  0.1226832E-020  0.7913667E+02  0.7818608E-02  0.1331519E+00
          2   -1    0    0  501    0  0.00000000000E+00  0.00000000000E+00  0.31863494290E+02  0.31863494392E+02  0.25500000000E-02 0. -1.
         -1   -1    0    0    0  501 -0.00000000000E+00 -0.00000000000E+00 -0.49136261246E+02  0.49136261504E+02  0.50400000000E-02 0.  1.
         24    2    1    2    0    0  0.00000000000E+00  0.00000000000E+00 -0.17272766956E+02  0.80999755896E+02  0.79136666451E+02 0.  0.
         66    2    3    3    0    0  0.47591195002E+01  0.21386551395E+02  0.25051397405E+02  0.33340760399E+02  0.19999982654E+01 0.  0.
        -13    1    3    3    0    0 -0.47591195002E+01 -0.21386551395E+02 -0.42324164361E+02  0.47658995498E+02  0.10566000000E+00 0.  1.
         13    1    4    4    0    0  0.35011024220E+01  0.14137232692E+02  0.16490905696E+02  0.22001822676E+02  0.10566000000E+00 0. -1.
        -13    1    4    4    0    0  0.61299451336E+00  0.56662028525E+01  0.61699864702E+01  0.84000901255E+01  0.10566000000E+00 0.  1.
         14    1    4    4    0    0  0.64502256485E+00  0.15831158505E+01  0.23905052384E+01  0.29388475973E+01  0.00000000000E+00 0. -1.
<mgrwt>
<rscale>  0 0.79136666E+02</rscale>
<asrwt>0</asrwt>
<pdfrwt beam="1">  1        2 0.49020761E-02 0.79136666E+02</pdfrwt>
<pdfrwt beam="2">  1       -1 0.75594248E-02 0.79136666E+02</pdfrwt>
<totfact> 0.14035383E+05</totfact>
</mgrwt>
</event>
<event>
 8    1  0.1226832E-020  0.7901028E+02  0.7818608E-02  0.1331884E+00
         -1   -1    0    0    0  501 -0.00000000000E+00  0.00000000000E+00  0.86586790083E+01  0.86586804751E+01  0.50400000000E-02 0.  1.
          2   -1    0    0  501    0  0.00000000000E+00 -0.00000000000E+00 -0.18024178916E+03  0.18024178918E+03  0.25500000000E-02 0. -1.
         24    2    1    2    0    0  0.88817841970E-15  0.35527136788E-14 -0.17158311015E+03  0.18890046965E+03  0.79010276203E+02 0.  0.
         66    2    3    3    0    0 -0.70740669819E+01 -0.27207045034E+02 -0.15211973057E+03  0.15470836483E+03  0.19999992800E+01 0.  0.
        -13    1    3    3    0    0  0.70740669819E+01  0.27207045034E+02 -0.19463379576E+02  0.34192104816E+02  0.10566000000E+00 0.  1.
         13    1    4    4    0    0 -0.53775196120E+01 -0.21911362385E+02 -0.12484285281E+03  0.12686518269E+03  0.10566000000E+00 0. -1.
        -13    1    4    4    0    0 -0.15482324884E+01 -0.43443407307E+01 -0.21870891887E+02  0.22352122857E+02  0.10566000000E+00 0.  1.
         14    1    4    4    0    0 -0.14831488146E+00 -0.95134191860E+00 -0.54059858793E+01  0.54910592856E+01  0.00000000000E+00 0. -1.
<mgrwt>
<rscale>  0 0.79010276E+02</rscale>
<asrwt>0</asrwt>
<pdfrwt beam="1">  1        2 0.27729503E-01 0.79010276E+02</pdfrwt>
<pdfrwt beam="2">  1       -1 0.13321047E-02 0.79010276E+02</pdfrwt>
<totfact> 0.21995769E+05</totfact>
</mgrwt>
</event>
<event>
 8    1  0.1226832E-020  0.8030021E+02  0.7818608E-02  0.1328202E+00
         -1   -1    0    0    0  501 -0.00000000000E+00  0.00000000000E+00  0.28166807353E+02  0.28166807804E+02  0.50400000000E-02 0.  1.
          2   -1    0    0  501    0  0.00000000000E+00 -0.00000000000E+00 -0.57231579300E+02  0.57231579357E+02  0.25500000000E-02 0. -1.
         24    2    1    2    0    0 -0.71054273576E-14 -0.44408920985E-15 -0.29064771947E+02  0.85398387161E+02  0.80300208975E+02 0.  0.
         66    2    3    3    0    0  0.25104155033E+02  0.39811106911E+01 -0.47560235245E+02  0.53963356242E+02  0.19999995146E+01 0.  0.
        -13    1    3    3    0    0 -0.25104155033E+02 -0.39811106911E+01  0.18495463298E+02  0.31435030920E+02  0.10566000000E+00 0.  1.
         13    1    4    4    0    0  0.53034476765E+01  0.28891025365E+00 -0.10920073238E+02  0.12143689306E+02  0.10566000000E+00 0. -1.
        -13    1    4    4    0    0  0.51315551241E+01  0.89917733939E+00 -0.10208873055E+02  0.11461833665E+02  0.10566000000E+00 0.  1.
         14    1    4    4    0    0  0.14669152233E+02  0.27930230981E+01 -0.26431288951E+02  0.30357833271E+02  0.00000000000E+00 0. -1.
<mgrwt>
<rscale>  0 0.80300209E+02</rscale>
<asrwt>0</asrwt>
<pdfrwt beam="1">  1        2 0.88048583E-02 0.80300209E+02</pdfrwt>
<pdfrwt beam="2">  1       -1 0.43333550E-02 0.80300209E+02</pdfrwt>
<totfact> 0.15242183E+05</totfact>
</mgrwt>
</event>
<event>
 8    1  0.1226832E-020  0.7942645E+02  0.7818608E-02  0.1330687E+00
         -1   -1    0    0    0  501 -0.00000000000E+00  0.00000000000E+00  0.78599488001E+01  0.78599504160E+01  0.50400000000E-02 0.  1.
          2   -1    0    0  501    0  0.00000000000E+00 -0.00000000000E+00 -0.20065527773E+03  0.20065527775E+03  0.25500000000E-02 0. -1.
         24    2    1    2    0    0  0.00000000000E+00 -0.35527136788E-14 -0.19279532893E+03  0.20851522816E+03  0.79426453517E+02 0.  0.
         66    2    3    3    0    0 -0.20379486120E+02 -0.23324637485E+02 -0.16160390529E+03  0.16455754122E+03  0.19999999540E+01 0.  0.
        -13    1    3    3    0    0  0.20379486120E+02  0.23324637485E+02 -0.31191423638E+02  0.43957686938E+02  0.10566000000E+00 0.  1.
         13    1    4    4    0    0 -0.13332527020E+02 -0.15334618446E+02 -0.10544911439E+03  0.10738916933E+03  0.10566000000E+00 0. -1.
        -13    1    4    4    0    0 -0.11502716281E+01 -0.15652549010E+01 -0.82448964119E+01  0.84712825831E+01  0.10566000000E+00 0.  1.
        -14    1    4    4    0    0 -0.58966874722E+01 -0.64247641382E+01 -0.47909894487E+02  0.48697089309E+02  0.00000000000E+00 0.  1.
<mgrwt>
<rscale>  0 0.79426454E+02</rscale>
<asrwt>0</asrwt>
<pdfrwt beam="1">  1        2 0.30870039E-01 0.79426454E+02</pdfrwt>
<pdfrwt beam="2">  1       -1 0.12092232E-02 0.79426454E+02</pdfrwt>
<totfact> 0.22506732E+05</totfact>
</mgrwt>
</event>
<event>
 8    1  0.1226832E-020  0.7812539E+02  0.7818608E-02  0.1334457E+00
          2   -1    0    0  501    0  0.00000000000E+00  0.00000000000E+00  0.10346840916E+04  0.10346840916E+04  0.25500000000E-02 0. -1.
         -1   -1    0    0    0  501 -0.00000000000E+00 -0.00000000000E+00 -0.14747397114E+01  0.14747483236E+01  0.50400000000E-02 0.  1.
         24    2    1    2    0    0  0.00000000000E+00  0.00000000000E+00  0.10332093519E+04  0.10361588399E+04  0.78125391059E+02 0.  0.
         66    2    3    3    0    0 -0.84226541640E+01 -0.17926126805E+02  0.96309240432E+03  0.96329811919E+03  0.20000139776E+01 0.  0.
        -13    1    3    3    0    0  0.84226541640E+01  0.17926126805E+02  0.70116947545E+02  0.72860720711E+02  0.10566000000E+00 0.  1.
         13    1    4    4    0    0 -0.91383572368E+00 -0.11515246693E+01  0.59730438307E+02  0.59748619475E+02  0.10566000000E+00 0. -1.
        -13    1    4    4    0    0 -0.37537159586E+01 -0.91838746083E+01  0.46775522447E+03  0.46786044406E+03  0.10566000000E+00 0.  1.
         14    1    4    4    0    0 -0.37551024817E+01 -0.75907275271E+01  0.43560674154E+03  0.43568905565E+03  0.00000000000E+00 0. -1.
<mgrwt>
<rscale>  0 0.78125391E+02</rscale>
<asrwt>0</asrwt>
<pdfrwt beam="1">  1        2 0.15918205E+00 0.78125391E+02</pdfrwt>
<pdfrwt beam="2">  1       -1 0.22688386E-03 0.78125391E+02</pdfrwt>
<totfact> 0.37503067E+05</totfact>
</mgrwt>
</event>
<event>
 8    1  0.1226832E-020  0.7973557E+02  0.7818608E-02  0.1329804E+00
          2   -1    0    0  501    0  0.00000000000E+00  0.00000000000E+00  0.42180164828E+02  0.42180164905E+02  0.25500000000E-02 0. -1.
         -1   -1    0    0    0  501 -0.00000000000E+00 -0.00000000000E+00 -0.37682177288E+02  0.37682177625E+02  0.50400000000E-02 0.  1.
         24    2    1    2    0    0  0.00000000000E+00  0.17763568394E-14  0.44979875397E+01  0.79862342530E+02  0.79735574636E+02 0.  0.
         66    2    3    3    0    0 -0.17044484466E+02 -0.13906145516E+02  0.35522794303E+02  0.41830183341E+02  0.19999973492E+01 0.  0.
        -13    1    3    3    0    0  0.17044484466E+02  0.13906145516E+02 -0.31024806764E+02  0.38032159189E+02  0.10566000000E+00 0.  1.
         13    1    4    4    0    0 -0.24735570216E+01 -0.22084119679E+01  0.62710439774E+01  0.70945559664E+01  0.10566000000E+00 0. -1.
        -13    1    4    4    0    0 -0.58476117442E+01 -0.40983378799E+01  0.11980953095E+02  0.13947951017E+02  0.10566000000E+00 0.  1.
         14    1    4    4    0    0 -0.87233157002E+01 -0.75993956687E+01  0.17270797231E+02  0.20787676357E+02  0.00000000000E+00 0. -1.
<mgrwt>
<rscale>  0 0.79735575E+02</rscale>
<asrwt>0</asrwt>
<pdfrwt beam="1">  1        2 0.64892561E-02 0.79735575E+02</pdfrwt>
<pdfrwt beam="2">  1       -1 0.57972581E-02 0.79735575E+02</pdfrwt>
<totfact> 0.14544625E+05</totfact>
</mgrwt>
</event>
<event>
 8    1  0.1226832E-020  0.8090213E+02  0.7818608E-02  0.1326511E+00
         -1   -1    0    0    0  501 -0.00000000000E+00  0.00000000000E+00  0.74893218475E+01  0.74893235434E+01  0.50400000000E-02 0.  1.
          2   -1    0    0  501    0  0.00000000000E+00 -0.00000000000E+00 -0.21848284696E+03  0.21848284698E+03  0.25500000000E-02 0. -1.
         24    2    1    2    0    0  0.00000000000E+00  0.00000000000E+00 -0.21099352512E+03  0.22597217052E+03  0.80902127348E+02 0.  0.
         66    2    3    3    0    0  0.39604896225E+01 -0.13726651315E+02 -0.21119170094E+03  0.21168382310E+03  0.19999951780E+01 0.  0.
        -13    1    3    3    0    0 -0.39604896225E+01  0.13726651315E+02  0.19817582596E+00  0.14288347423E+02  0.10566000000E+00 0.  1.
         13    1    4    4    0    0  0.17109330402E+01 -0.44265520058E+01 -0.60845974552E+02  0.61030856440E+02  0.10566000000E+00 0. -1.
        -13    1    4    4    0    0  0.21446913788E+01 -0.71883099822E+01 -0.11714037997E+03  0.11738037010E+03  0.10566000000E+00 0.  1.
        -14    1    4    4    0    0  0.10486520351E+00 -0.21117893271E+01 -0.33205346417E+02  0.33272596555E+02  0.00000000000E+00 0.  1.
<mgrwt>
<rscale>  0 0.80902127E+02</rscale>
<asrwt>0</asrwt>
<pdfrwt beam="1">  1        2 0.33612741E-01 0.80902127E+02</pdfrwt>
<pdfrwt beam="2">  1       -1 0.11522037E-02 0.80902127E+02</pdfrwt>
<totfact> 0.22088904E+05</totfact>
</mgrwt>
</event>
<event>
 8    1  0.1226832E-020  0.7518524E+02  0.7818608E-02  0.1343298E+00
         -1   -1    0    0    0  501 -0.00000000000E+00  0.00000000000E+00  0.76395949147E+01  0.76395965772E+01  0.50400000000E-02 0.  1.
          2   -1    0    0  501    0  0.00000000000E+00 -0.00000000000E+00 -0.18498429805E+03  0.18498429806E+03  0.25500000000E-02 0. -1.
         24    2    1    2    0    0  0.53290705182E-14  0.44408920985E-15 -0.17734470313E+03  0.19262389464E+03  0.75185244947E+02 0.  0.
         66    2    3    3    0    0  0.11214444527E+02  0.31332653304E+01 -0.18023849993E+03  0.18062529715E+03  0.19999992057E+01 0.  0.
        -13    1    3    3    0    0 -0.11214444527E+02 -0.31332653304E+01  0.28937968006E+01  0.11998597486E+02  0.10566000000E+00 0.  1.
         13    1    4    4    0    0  0.37933262897E+01  0.92027120163E+00 -0.57471957742E+02  0.57604455679E+02  0.10566000000E+00 0. -1.
        -13    1    4    4    0    0  0.54498922482E+00  0.64813077836E+00 -0.13728882638E+02  0.13755379649E+02  0.10566000000E+00 0.  1.
        -14    1    4    4    0    0  0.68761290123E+01  0.15648633504E+01 -0.10903765955E+03  0.10926546183E+03  0.00000000000E+00 0.  1.
<mgrwt>
<rscale>  0 0.75185245E+02</rscale>
<asrwt>0</asrwt>
<pdfrwt beam="1">  1        2 0.28459119E-01 0.75185245E+02</pdfrwt>
<pdfrwt beam="2">  1       -1 0.11753226E-02 0.75185245E+02</pdfrwt>
<totfact> 0.25286701E+05</totfact>
</mgrwt>
</event>
<event>
 8    1  0.1226832E-020  0.7945705E+02  0.7818608E-02  0.1330599E+00
         -1   -1    0    0    0  501 -0.00000000000E+00  0.00000000000E+00  0.14552967151E+01  0.14553054423E+01  0.50400000000E-02 0.  1.
          2   -1    0    0  501    0  0.00000000000E+00 -0.00000000000E+00 -0.10845562422E+04  0.10845562422E+04  0.25500000000E-02 0. -1.
         24    2    1    2    0    0  0.35527136788E-14  0.00000000000E+00 -0.10831009455E+04  0.10860115476E+04  0.79457054491E+02 0.  0.
         66    2    3    3    0    0 -0.18761723207E+02  0.22382005391E+01 -0.10191627351E+04  0.10193398317E+04  0.20000043042E+01 0.  0.
        -13    1    3    3    0    0  0.18761723207E+02 -0.22382005391E+01 -0.63938210348E+02  0.66671715937E+02  0.10566000000E+00 0.  1.
         13    1    4    4    0    0 -0.67738269439E+01  0.73986980384E+00 -0.34413002320E+03  0.34419749588E+03  0.10566000000E+00 0. -1.
        -13    1    4    4    0    0 -0.60459566904E+01  0.79868356090E+00 -0.38022992651E+03  0.38027884462E+03  0.10566000000E+00 0.  1.
        -14    1    4    4    0    0 -0.59419395730E+01  0.69964717440E+00 -0.29480278539E+03  0.29486349117E+03  0.00000000000E+00 0.  1.
<mgrwt>
<rscale>  0 0.79457054E+02</rscale>
<asrwt>0</asrwt>
<pdfrwt beam="1">  1        2 0.16685416E+00 0.79457054E+02</pdfrwt>
<pdfrwt beam="2">  1       -1 0.22389334E-03 0.79457054E+02</pdfrwt>
<totfact> 0.35893525E+05</totfact>
</mgrwt>
</event>
<event>
 8    1  0.1226832E-020  0.7999401E+02  0.7818608E-02  0.1329068E+00
         -1   -1    0    0    0  501 -0.00000000000E+00  0.00000000000E+00  0.78074346860E+01  0.78074363128E+01  0.50400000000E-02 0.  1.
          2   -1    0    0  501    0  0.00000000000E+00 -0.00000000000E+00 -0.20490213558E+03  0.20490213559E+03  0.25500000000E-02 0. -1.
         24    2    1    2    0    0  0.00000000000E+00  0.00000000000E+00 -0.19709470089E+03  0.21270957191E+03  0.79994005157E+02 0.  0.
         66    2    3    3    0    0  0.20652180961E+02 -0.34188053252E+02 -0.10274505883E+03  0.11025371954E+03  0.19999985133E+01 0.  0.
        -13    1    3    3    0    0 -0.20652180961E+02  0.34188053252E+02 -0.94349642062E+02  0.10245585237E+03  0.10566000000E+00 0.  1.
         13    1    4    4    0    0  0.12155400253E+02 -0.20575649572E+02 -0.61630258307E+02  0.66101520509E+02  0.10566000000E+00 0. -1.
        -13    1    4    4    0    0  0.14835218545E+01 -0.33044665719E+01 -0.95441847290E+01  0.10208964815E+02  0.10566000000E+00 0.  1.
        -14    1    4    4    0    0  0.70132588541E+01 -0.10307937108E+02 -0.31570615794E+02  0.33943234212E+02  0.00000000000E+00 0.  1.
<mgrwt>
<rscale>  0 0.79994005E+02</rscale>
<asrwt>0</asrwt>
<pdfrwt beam="1">  1        2 0.31523401E-01 0.79994005E+02</pdfrwt>
<pdfrwt beam="2">  1       -1 0.12011441E-02 0.79994005E+02</pdfrwt>
<totfact> 0.22249655E+05</totfact>
</mgrwt>
</event>
<event>
 8    1  0.1226832E-020  0.8112467E+02  0.7818608E-02  0.1325890E+00
          2   -1    0    0  501    0  0.00000000000E+00  0.00000000000E+00  0.58250194570E+01  0.58250200151E+01  0.25500000000E-02 0. -1.
         -1   -1    0    0    0  501 -0.00000000000E+00 -0.00000000000E+00 -0.28245450227E+03  0.28245450232E+03  0.50400000000E-02 0.  1.
         24    2    1    2    0    0  0.17763568394E-14  0.00000000000E+00 -0.27662948282E+03  0.28827952233E+03  0.81124670930E+02 0.  0.
         66    2    3    3    0    0 -0.14403211264E+02  0.34442013654E+02 -0.82257941758E+02  0.90355264253E+02  0.19999991717E+01 0.  0.
        -13    1    3    3    0    0  0.14403211264E+02 -0.34442013654E+02 -0.19437154106E+03  0.19792425808E+03  0.10566000000E+00 0.  1.
         13    1    4    4    0    0 -0.45574385926E+01  0.93488507349E+01 -0.23855959598E+02  0.26024781056E+02  0.10566000000E+00 0. -1.
        -13    1    4    4    0    0 -0.77300737035E+01  0.20570100994E+02 -0.48113404244E+02  0.52894176677E+02  0.10566000000E+00 0.  1.
        -14    1    4    4    0    0 -0.21156989683E+01  0.45230619255E+01 -0.10288577915E+02  0.11436306520E+02  0.00000000000E+00 0.  1.
<mgrwt>
<rscale>  0 0.81124671E+02</rscale>
<asrwt>0</asrwt>
<pdfrwt beam="1">  1        2 0.89615711E-03 0.81124671E+02</pdfrwt>
<pdfrwt beam="2">  1       -1 0.43454528E-01 0.81124671E+02</pdfrwt>
<totfact> 0.85410427E+04</totfact>
</mgrwt>
</event>
<event>
 8    1  0.1226832E-020  0.7147929E+02  0.7818608E-02  0.1355134E+00
          2   -1    0    0  501    0  0.00000000000E+00  0.00000000000E+00  0.21817985523E+03  0.21817985525E+03  0.25500000000E-02 0. -1.
         -1   -1    0    0    0  501 -0.00000000000E+00 -0.00000000000E+00 -0.58544446469E+01  0.58544468163E+01  0.50400000000E-02 0.  1.
         24    2    1    2    0    0  0.00000000000E+00  0.00000000000E+00  0.21232541059E+03  0.22403430206E+03  0.71479287355E+02 0.  0.
         66    2    3    3    0    0  0.29480744198E+01 -0.15253519314E+02  0.20702815087E+03  0.20761988405E+03  0.20000010814E+01 0.  0.
        -13    1    3    3    0    0 -0.29480744198E+01  0.15253519314E+02  0.52972597119E+01  0.16414418014E+02  0.10566000000E+00 0.  1.
         13    1    4    4    0    0  0.10539886295E+01 -0.97127672438E+01  0.13171583265E+03  0.13207770620E+03  0.10566000000E+00 0. -1.
        -13    1    4    4    0    0  0.32039413864E+00 -0.72686372760E+00  0.82153511198E+01  0.82543407574E+01  0.10566000000E+00 0.  1.
         14    1    4    4    0    0  0.15736916517E+01 -0.48138883427E+01  0.67096967101E+02  0.67287837092E+02  0.00000000000E+00 0. -1.
<mgrwt>
<rscale>  0 0.71479287E+02</rscale>
<asrwt>0</asrwt>
<pdfrwt beam="1">  1        2 0.33566132E-01 0.71479287E+02</pdfrwt>
<pdfrwt beam="2">  1       -1 0.90068395E-03 0.71479287E+02</pdfrwt>
<totfact> 0.30536806E+05</totfact>
</mgrwt>
</event>
<event>
 8    1  0.1226832E-020  0.7960794E+02  0.7818608E-02  0.1330168E+00
          2   -1    0    0  501    0  0.00000000000E+00  0.00000000000E+00  0.40924121709E+03  0.40924121710E+03  0.25500000000E-02 0. -1.
         -1   -1    0    0    0  501 -0.00000000000E+00 -0.00000000000E+00 -0.38714463940E+01  0.38714496747E+01  0.50400000000E-02 0.  1.
         24    2    1    2    0    0  0.00000000000E+00  0.00000000000E+00  0.40536977070E+03  0.41311266678E+03  0.79607942154E+02 0.  0.
         66    2    3    3    0    0 -0.27246335966E+02 -0.21282249125E+02  0.30490593783E+03  0.30686630293E+03  0.19999998093E+01 0.  0.
        -13    1    3    3    0    0  0.27246335966E+02  0.21282249125E+02  0.10046383287E+03  0.10624636384E+03  0.10566000000E+00 0.  1.
         13    1    4    4    0    0 -0.75317718130E+01 -0.63119384509E+01  0.87258109023E+02  0.87809776836E+02  0.10566000000E+00 0. -1.
        -13    1    4    4    0    0 -0.18376232954E+02 -0.14398465833E+02  0.20551637073E+03  0.20683808053E+03  0.10566000000E+00 0.  1.
        -14    1    4    4    0    0 -0.13383311984E+01 -0.57184484176E+00  0.12131458084E+02  0.12218445571E+02  0.00000000000E+00 0.  1.
<mgrwt>
<rscale>  0 0.79607942E+02</rscale>
<asrwt>0</asrwt>
<pdfrwt beam="1">  1        2 0.62960124E-01 0.79607942E+02</pdfrwt>
<pdfrwt beam="2">  1       -1 0.59560799E-03 0.79607942E+02</pdfrwt>
<totfact> 0.28846986E+05</totfact>
</mgrwt>
</event>
<event>
 8    1  0.1226832E-020  0.7817929E+02  0.7818608E-02  0.1334299E+00
         -1   -1    0    0    0  501 -0.00000000000E+00  0.00000000000E+00  0.99260069793E+01  0.99260082588E+01  0.50400000000E-02 0.  1.
          2   -1    0    0  501    0  0.00000000000E+00 -0.00000000000E+00 -0.15393904656E+03  0.15393904659E+03  0.25500000000E-02 0. -1.
         24    2    1    2    0    0  0.00000000000E+00 -0.71054273576E-14 -0.14401303959E+03  0.16386505484E+03  0.78179285163E+02 0.  0.
         66    2    3    3    0    0  0.30955377651E+01  0.38777306315E+02 -0.79532911065E+02  0.88559278326E+02  0.19999989998E+01 0.  0.
        -13    1    3    3    0    0 -0.30955377651E+01 -0.38777306315E+02 -0.64480128520E+02  0.75305776519E+02  0.10566000000E+00 0.  1.
         13    1    4    4    0    0  0.17985534678E+01  0.29015155551E+02 -0.59101790903E+02  0.65864610363E+02  0.10566000000E+00 0. -1.
        -13    1    4    4    0    0  0.44445285573E+00  0.44393915019E+01 -0.10089021499E+02  0.11032010428E+02  0.10566000000E+00 0.  1.
         14    1    4    4    0    0  0.85253144159E+00  0.53227592622E+01 -0.10342098663E+02  0.11662657535E+02  0.00000000000E+00 0. -1.
<mgrwt>
<rscale>  0 0.78179285E+02</rscale>
<asrwt>0</asrwt>
<pdfrwt beam="1">  1        2 0.23682928E-01 0.78179285E+02</pdfrwt>
<pdfrwt beam="2">  1       -1 0.15270782E-02 0.78179285E+02</pdfrwt>
<totfact> 0.21468686E+05</totfact>
</mgrwt>
</event>
<event>
 8    1  0.1226832E-020  0.7565107E+02  0.7818608E-02  0.1341867E+00
          2   -1    0    0  501    0  0.00000000000E+00  0.00000000000E+00  0.24336857473E+04  0.24336857473E+04  0.25500000000E-02 0. -1.
         -1   -1    0    0    0  501 -0.00000000000E+00 -0.00000000000E+00 -0.58789209515E+00  0.58791369872E+00  0.50400000000E-02 0.  1.
         24    2    1    2    0    0 -0.17763568394E-14  0.00000000000E+00  0.24330978552E+04  0.24342736610E+04  0.75651065004E+02 0.  0.
         66    2    3    3    0    0  0.67796120960E+01  0.89206005588E+01  0.23790171026E+04  0.23790443280E+04  0.19999984507E+01 0.  0.
        -13    1    3    3    0    0 -0.67796120960E+01 -0.89206005588E+01  0.54080752631E+02  0.55229333001E+02  0.10566000000E+00 0.  1.
         13    1    4    4    0    0  0.40327499521E+01  0.61881207242E+01  0.16110838346E+04  0.16111007694E+04  0.10566000000E+00 0. -1.
        -13    1    4    4    0    0  0.17436828926E+01  0.11937108361E+01  0.36970536192E+03  0.36971141607E+03  0.10566000000E+00 0.  1.
        -14    1    4    4    0    0  0.10031792513E+01  0.15387689985E+01  0.39822790609E+03  0.39823214256E+03  0.00000000000E+00 0.  1.
<mgrwt>
<rscale>  0 0.75651065E+02</rscale>
<asrwt>0</asrwt>
<pdfrwt beam="1">  1        2 0.37441997E+00 0.75651065E+02</pdfrwt>
<pdfrwt beam="2">  1       -1 0.90444962E-04 0.75651065E+02</pdfrwt>
<totfact> 0.25340053E+05</totfact>
</mgrwt>
</event>
<event>
 8    1  0.1226832E-020  0.8031908E+02  0.7818608E-02  0.1328148E+00
          2   -1    0    0  501    0  0.00000000000E+00  0.00000000000E+00  0.63950084945E+03  0.63950084946E+03  0.25500000000E-02 0. -1.
         -1   -1    0    0    0  501 -0.00000000000E+00 -0.00000000000E+00 -0.25219469450E+01  0.25219519811E+01  0.50400000000E-02 0.  1.
         24    2    1    2    0    0  0.00000000000E+00  0.35527136788E-14  0.63697890251E+03  0.64202280144E+03  0.80319084454E+02 0.  0.
         66    2    3    3    0    0  0.92259273681E+01  0.22349884035E+02  0.57474350950E+03  0.57525536657E+03  0.20000006102E+01 0.  0.
        -13    1    3    3    0    0 -0.92259273681E+01 -0.22349884035E+02  0.62235393009E+02  0.66767434871E+02  0.10566000000E+00 0.  1.
         13    1    4    4    0    0  0.73246001638E+01  0.16894902632E+02  0.44668386830E+03  0.44706328061E+03  0.10566000000E+00 0. -1.
        -13    1    4    4    0    0  0.79018721406E+00  0.30524987686E+01  0.75362177308E+02  0.75428184899E+02  0.10566000000E+00 0.  1.
         14    1    4    4    0    0  0.11111399902E+01  0.24024826350E+01  0.52697463892E+02  0.52763901064E+02  0.00000000000E+00 0. -1.
<mgrwt>
<rscale>  0 0.80319084E+02</rscale>
<asrwt>0</asrwt>
<pdfrwt beam="1">  1        2 0.98384740E-01 0.80319084E+02</pdfrwt>
<pdfrwt beam="2">  1       -1 0.38799225E-03 0.80319084E+02</pdfrwt>
<totfact> 0.32383049E+05</totfact>
</mgrwt>
</event>
<event>
 8    1  0.1226832E-020  0.7728147E+02  0.7818608E-02  0.1336948E+00
         -1   -1    0    0    0  501 -0.00000000000E+00  0.00000000000E+00  0.22173490401E+01  0.22173547680E+01  0.50400000000E-02 0.  1.
          2   -1    0    0  501    0  0.00000000000E+00 -0.00000000000E+00 -0.67337370164E+03  0.67337370164E+03  0.25500000000E-02 0. -1.
         24    2    1    2    0    0  0.17763568394E-14 -0.17763568394E-14 -0.67115635260E+03  0.67559105641E+03  0.77281471711E+02 0.  0.
         66    2    3    3    0    0  0.11617947430E+02 -0.14750273027E+02 -0.63077741659E+03  0.63105997856E+03  0.20000027678E+01 0.  0.
        -13    1    3    3    0    0 -0.11617947430E+02  0.14750273027E+02 -0.40378936008E+02  0.44531077845E+02  0.10566000000E+00 0.  1.
         13    1    4    4    0    0  0.62241220396E+01 -0.85498428322E+01 -0.37125595709E+03  0.37140656476E+03  0.10566000000E+00 0. -1.
        -13    1    4    4    0    0  0.45294071130E+01 -0.46741083340E+01 -0.19817601350E+03  0.19828289465E+03  0.10566000000E+00 0.  1.
        -14    1    4    4    0    0  0.86441827726E+00 -0.15263218607E+01 -0.61345445992E+02  0.61370519155E+02  0.00000000000E+00 0.  1.
<mgrwt>
<rscale>  0 0.77281472E+02</rscale>
<asrwt>0</asrwt>
<pdfrwt beam="1">  1        2 0.10359579E+00 0.77281472E+02</pdfrwt>
<pdfrwt beam="2">  1       -1 0.34113160E-03 0.77281472E+02</pdfrwt>
<totfact> 0.36259218E+05</totfact>
</mgrwt>
</event>
<event>
 8    1  0.1226832E-020  0.8091625E+02  0.7818608E-02  0.1326471E+00
          2   -1    0    0  501    0  0.00000000000E+00  0.00000000000E+00  0.27929865878E+03  0.27929865879E+03  0.25500000000E-02 0. -1.
         -1   -1    0    0    0  501 -0.00000000000E+00 -0.00000000000E+00 -0.58606062751E+01  0.58606084423E+01  0.50400000000E-02 0.  1.
         24    2    1    2    0    0  0.00000000000E+00 -0.17763568394E-14  0.27343805251E+03  0.28515926724E+03  0.80916247638E+02 0.  0.
         66    2    3    3    0    0 -0.32669473238E+02  0.12960994787E+02  0.20724725607E+03  0.21021585815E+03  0.20000011104E+01 0.  0.
        -13    1    3    3    0    0  0.32669473238E+02 -0.12960994787E+02  0.66190796440E+02  0.74943409083E+02  0.10566000000E+00 0.  1.
         13    1    4    4    0    0 -0.18923616356E+02  0.76132133097E+01  0.11717541831E+03  0.11893760589E+03  0.10566000000E+00 0. -1.
        -13    1    4    4    0    0 -0.11982432572E+02  0.43927855281E+01  0.75983317179E+02  0.77047718387E+02  0.10566000000E+00 0. -1.
         14    1    4    4    0    0 -0.17634243096E+01  0.95499594939E+00  0.14088520574E+02  0.14230533880E+02  0.00000000000E+00 0. -1.
<mgrwt>
<rscale>  0 0.80916248E+02</rscale>
<asrwt>0</asrwt>
<pdfrwt beam="1">  1        2 0.42969033E-01 0.80916248E+02</pdfrwt>
<pdfrwt beam="2">  1       -1 0.90163174E-03 0.80916248E+02</pdfrwt>
<totfact> 0.24110706E+05</totfact>
</mgrwt>
</event>
<event>
 8    1  0.1226832E-020  0.8152385E+02  0.7818608E-02  0.1324782E+00
          2   -1    0    0  501    0  0.00000000000E+00  0.00000000000E+00  0.60034779788E+02  0.60034779842E+02  0.25500000000E-02 0. -1.
         -1   -1    0    0    0  501 -0.00000000000E+00 -0.00000000000E+00 -0.27676201628E+02  0.27676202087E+02  0.50400000000E-02 0.  1.
         24    2    1    2    0    0  0.00000000000E+00 -0.17763568394E-14  0.32358578159E+02  0.87710981929E+02  0.81523853997E+02 0.  0.
         66    2    3    3    0    0 -0.36939661140E+02 -0.13978431029E+02  0.26926104698E+02  0.47842974315E+02  0.19999944929E+01 0.  0.
        -13    1    3    3    0    0  0.36939661140E+02  0.13978431029E+02  0.54324734613E+01  0.39868007614E+02  0.10566000000E+00 0.  1.
         13    1    4    4    0    0 -0.67181829375E+01 -0.24509933135E+01  0.43769732297E+01  0.83851302252E+01  0.10566000000E+00 0. -1.
        -13    1    4    4    0    0 -0.14020333692E+01 -0.83888412741E+00  0.99197732739E+00  0.19143163796E+01  0.10566000000E+00 0. -1.
         14    1    4    4    0    0 -0.28819444833E+02 -0.10688553588E+02  0.21557154141E+02  0.37543527710E+02  0.00000000000E+00 0. -1.
<mgrwt>
<rscale>  0 0.81523854E+02</rscale>
<asrwt>0</asrwt>
<pdfrwt beam="1">  1        2 0.92361199E-02 0.81523854E+02</pdfrwt>
<pdfrwt beam="2">  1       -1 0.42578773E-02 0.81523854E+02</pdfrwt>
<totfact> 0.14788243E+05</totfact>
</mgrwt>
</event>
<event>
 8    1  0.1226832E-020  0.7955332E+02  0.7818608E-02  0.1330324E+00
          2   -1    0    0  501    0  0.00000000000E+00  0.00000000000E+00  0.72170806170E+01  0.72170810675E+01  0.25500000000E-02 0. -1.
         -1   -1    0    0    0  501 -0.00000000000E+00 -0.00000000000E+00 -0.21922750845E+03  0.21922750851E+03  0.50400000000E-02 0.  1.
         24    2    1    2    0    0 -0.22204460493E-15  0.71054273576E-14 -0.21201042783E+03  0.22644458958E+03  0.79553319466E+02 0.  0.
         66    2    3    3    0    0 -0.15160099508E+01  0.36673002949E+02 -0.62625616249E+02  0.72616632014E+02  0.20000007544E+01 0.  0.
        -13    1    3    3    0    0  0.15160099508E+01 -0.36673002949E+02 -0.14938481159E+03  0.15382795756E+03  0.10566000000E+00 0.  1.
         13    1    4    4    0    0 -0.15773711900E+01  0.17651538692E+02 -0.29954877298E+02  0.34804751918E+02  0.10566000000E+00 0. -1.
        -13    1    4    4    0    0 -0.32232229018E+00  0.10552835023E+02 -0.18038698780E+02  0.20901484072E+02  0.10566000000E+00 0.  1.
        -14    1    4    4    0    0  0.38368352942E+00  0.84686292333E+01 -0.14632040171E+02  0.16910396024E+02  0.00000000000E+00 0.  1.
<mgrwt>
<rscale>  0 0.79553319E+02</rscale>
<asrwt>0</asrwt>
<pdfrwt beam="1">  1        2 0.11103203E-02 0.79553319E+02</pdfrwt>
<pdfrwt beam="2">  1       -1 0.33727304E-01 0.79553319E+02</pdfrwt>
<totfact> 0.98184889E+04</totfact>
</mgrwt>
</event>
<event>
 8    1  0.1226832E-020  0.7977275E+02  0.7818608E-02  0.1329698E+00
         -1   -1    0    0    0  501 -0.00000000000E+00  0.00000000000E+00  0.26244535873E+01  0.26244584267E+01  0.50400000000E-02 0.  1.
          2   -1    0    0  501    0  0.00000000000E+00 -0.00000000000E+00 -0.60619152915E+03  0.60619152915E+03  0.25500000000E-02 0. -1.
         24    2    1    2    0    0 -0.17763568394E-14  0.00000000000E+00 -0.60356707556E+03  0.60881598758E+03  0.79772752442E+02 0.  0.
         66    2    3    3    0    0  0.10773486575E+02 -0.36989038460E+02 -0.38004987103E+03  0.38200282909E+03  0.19999958571E+01 0.  0.
        -13    1    3    3    0    0 -0.10773486575E+02  0.36989038460E+02 -0.22351720453E+03  0.22681315849E+03  0.10566000000E+00 0.  1.
         13    1    4    4    0    0  0.50159277956E+01 -0.19681142224E+02 -0.19743098326E+03  0.19847294829E+03  0.10566000000E+00 0. -1.
        -13    1    4    4    0    0  0.21893948921E+01 -0.56750461681E+01 -0.64069285980E+02  0.64357471742E+02  0.10566000000E+00 0.  1.
         14    1    4    4    0    0  0.35681638870E+01 -0.11632850068E+02 -0.11854960179E+03  0.11917240905E+03  0.00000000000E+00 0. -1.
<mgrwt>
<rscale>  0 0.79772752E+02</rscale>
<asrwt>0</asrwt>
<pdfrwt beam="1">  1        2 0.93260124E-01 0.79772752E+02</pdfrwt>
<pdfrwt beam="2">  1       -1 0.40376295E-03 0.79772752E+02</pdfrwt>
<totfact> 0.32494662E+05</totfact>
</mgrwt>
</event>
<event>
 8    1  0.1226832E-020  0.8026151E+02  0.7818608E-02  0.1328311E+00
         -1   -1    0    0    0  501 -0.00000000000E+00  0.00000000000E+00  0.10412048231E+02  0.10412049451E+02  0.50400000000E-02 0.  1.
          2   -1    0    0  501    0  0.00000000000E+00 -0.00000000000E+00 -0.15467441355E+03  0.15467441357E+03  0.25500000000E-02 0. -1.
         24    2    1    2    0    0  0.00000000000E+00  0.88817841970E-15 -0.14426236532E+03  0.16508646302E+03  0.80261511484E+02 0.  0.
         66    2    3    3    0    0  0.33585095017E+02  0.50969718858E+01 -0.11602767691E+03  0.12091467878E+03  0.20000012403E+01 0.  0.
        -13    1    3    3    0    0 -0.33585095017E+02 -0.50969718858E+01 -0.28234688406E+02  0.44171784242E+02  0.10566000000E+00 0.  1.
         13    1    4    4    0    0  0.18872331854E+02  0.33134757677E+01 -0.62990886404E+02  0.65840769780E+02  0.10566000000E+00 0. -1.
        -13    1    4    4    0    0  0.15829935857E+01  0.22223453889E+00 -0.49807310079E+01  0.52320265950E+01  0.10566000000E+00 0. -1.
         14    1    4    4    0    0  0.13129769577E+02  0.15612615792E+01 -0.48056059499E+02  0.49841882403E+02  0.00000000000E+00 0. -1.
<mgrwt>
<rscale>  0 0.80261511E+02</rscale>
<asrwt>0</asrwt>
<pdfrwt beam="1">  1        2 0.23796062E-01 0.80261511E+02</pdfrwt>
<pdfrwt beam="2">  1       -1 0.16018538E-02 0.80261511E+02</pdfrwt>
<totfact> 0.20055588E+05</totfact>
</mgrwt>
</event>
<event>
 8    1  0.1226832E-020  0.8042704E+02  0.7818608E-02  0.1327844E+00
          2   -1    0    0  501    0  0.00000000000E+00  0.00000000000E+00  0.97120172250E+03  0.97120172250E+03  0.25500000000E-02 0. -1.
         -1   -1    0    0    0  501 -0.00000000000E+00 -0.00000000000E+00 -0.16650745864E+01  0.16650822141E+01  0.50400000000E-02 0.  1.
         24    2    1    2    0    0 -0.88817841970E-15  0.00000000000E+00  0.96953664791E+03  0.97286680471E+03  0.80427035713E+02 0.  0.
         66    2    3    3    0    0 -0.62160802874E+01  0.21769304417E+02  0.88672517877E+03  0.88701639496E+03  0.20000005628E+01 0.  0.
        -13    1    3    3    0    0  0.62160802874E+01 -0.21769304417E+02  0.82811469140E+02  0.85850409749E+02  0.10566000000E+00 0.  1.
         13    1    4    4    0    0 -0.21345534712E+01  0.83769682889E+01  0.30948394656E+03  0.30960467416E+03  0.10566000000E+00 0. -1.
        -13    1    4    4    0    0 -0.12652229111E+01  0.56071307148E+01  0.24193165083E+03  0.24199994947E+03  0.10566000000E+00 0.  1.
        -14    1    4    4    0    0 -0.28163039052E+01  0.77852054136E+01  0.33530958138E+03  0.33541177134E+03  0.00000000000E+00 0.  1.
<mgrwt>
<rscale>  0 0.80427036E+02</rscale>
<asrwt>0</asrwt>
<pdfrwt beam="1">  1        2 0.14941594E+00 0.80427036E+02</pdfrwt>
<pdfrwt beam="2">  1       -1 0.25616542E-03 0.80427036E+02</pdfrwt>
<totfact> 0.34694652E+05</totfact>
</mgrwt>
</event>
<event>
 8    1  0.1226832E-020  0.8077163E+02  0.7818608E-02  0.1326876E+00
          2   -1    0    0  501    0  0.00000000000E+00  0.00000000000E+00  0.11545902204E+04  0.11545902204E+04  0.25500000000E-02 0. -1.
         -1   -1    0    0    0  501 -0.00000000000E+00 -0.00000000000E+00 -0.14126301045E+01  0.14126390953E+01  0.50400000000E-02 0.  1.
         24    2    1    2    0    0  0.11102230246E-15  0.35527136788E-14  0.11531775903E+04  0.11560028595E+04  0.80771631207E+02 0.  0.
         66    2    3    3    0    0 -0.95881627267E+00 -0.16292892430E+02  0.11052518456E+04  0.11053741538E+04  0.19999994465E+01 0.  0.
        -13    1    3    3    0    0  0.95881627267E+00  0.16292892430E+02  0.47925744620E+02  0.50628705630E+02  0.10566000000E+00 0.  1.
         13    1    4    4    0    0 -0.72281396983E+00 -0.64368140687E+01  0.44400971636E+03  0.44405697205E+03  0.10566000000E+00 0. -1.
        -13    1    4    4    0    0 -0.32709497829E+00 -0.68610915294E+01  0.50029927291E+03  0.50034643519E+03  0.10566000000E+00 0.  1.
         14    1    4    4    0    0  0.91092675454E-01 -0.29949868314E+01  0.16094285637E+03  0.16097074660E+03  0.00000000000E+00 0. -1.
<mgrwt>
<rscale>  0 0.80771631E+02</rscale>
<asrwt>0</asrwt>
<pdfrwt beam="1">  1        2 0.17762890E+00 0.80771631E+02</pdfrwt>
<pdfrwt beam="2">  1       -1 0.21732884E-03 0.80771631E+02</pdfrwt>
<totfact> 0.34296612E+05</totfact>
</mgrwt>
</event>
<event>
 8    1  0.1226832E-020  0.8031719E+02  0.7818608E-02  0.1328154E+00
          2   -1    0    0  501    0  0.00000000000E+00  0.00000000000E+00  0.70117502839E+02  0.70117502886E+02  0.25500000000E-02 0. -1.
         -1   -1    0    0    0  501 -0.00000000000E+00 -0.00000000000E+00 -0.23000143229E+02  0.23000143781E+02  0.50400000000E-02 0.  1.
         24    2    1    2    0    0 -0.17763568394E-14  0.00000000000E+00  0.47117359610E+02  0.93117646667E+02  0.80317187103E+02 0.  0.
         66    2    3    3    0    0 -0.89480610844E+01  0.32408654056E+02  0.48982294985E+02  0.59444544599E+02  0.20000014340E+01 0.  0.
        -13    1    3    3    0    0  0.89480610844E+01 -0.32408654056E+02 -0.18649353744E+01  0.33673102068E+02  0.10566000000E+00 0.  1.
         13    1    4    4    0    0 -0.37145761293E+01  0.12106013373E+02  0.18821074246E+02  0.22684744552E+02  0.10566000000E+00 0.  1.
        -13    1    4    4    0    0 -0.73448923928E+00  0.43000335562E+01  0.55334901150E+01  0.70470163839E+01  0.10566000000E+00 0. -1.
         14    1    4    4    0    0 -0.44989957159E+01  0.16002607127E+02  0.24627730624E+02  0.29712783663E+02  0.00000000000E+00 0. -1.
<mgrwt>
<rscale>  0 0.80317187E+02</rscale>
<asrwt>0</asrwt>
<pdfrwt beam="1">  1        2 0.10787308E-01 0.80317187E+02</pdfrwt>
<pdfrwt beam="2">  1       -1 0.35384836E-02 0.80317187E+02</pdfrwt>
<totfact> 0.15980992E+05</totfact>
</mgrwt>
</event>
<event>
 8    1  0.1226832E-020  0.7974974E+02  0.7818608E-02  0.1329763E+00
          2   -1    0    0  501    0  0.00000000000E+00  0.00000000000E+00  0.47788877388E+03  0.47788877389E+03  0.25500000000E-02 0. -1.
         -1   -1    0    0    0  501 -0.00000000000E+00 -0.00000000000E+00 -0.33271434024E+01  0.33271472197E+01  0.50400000000E-02 0.  1.
         24    2    1    2    0    0  0.35527136788E-14  0.17763568394E-14  0.47456163048E+03  0.48121592111E+03  0.79749743604E+02 0.  0.
         66    2    3    3    0    0 -0.25800261992E+02 -0.13852853704E+02  0.40051108030E+03  0.40158520957E+03  0.20000064145E+01 0.  0.
        -13    1    3    3    0    0  0.25800261992E+02  0.13852853704E+02  0.74050550179E+02  0.79630711540E+02  0.10566000000E+00 0.  1.
         13    1    4    4    0    0 -0.31587767920E+01 -0.18784467878E+01  0.47204084188E+02  0.47347050185E+02  0.10566000000E+00 0. -1.
        -13    1    4    4    0    0 -0.22231588897E+02 -0.11901555325E+02  0.34474525652E+03  0.34566630386E+03  0.10566000000E+00 0.  1.
        -14    1    4    4    0    0 -0.40989630281E+00 -0.72851590240E-01  0.85617395930E+01  0.85718555279E+01  0.00000000000E+00 0.  1.
<mgrwt>
<rscale>  0 0.79749744E+02</rscale>
<asrwt>0</asrwt>
<pdfrwt beam="1">  1        2 0.73521383E-01 0.79749744E+02</pdfrwt>
<pdfrwt beam="2">  1       -1 0.51186828E-03 0.79749744E+02</pdfrwt>
<totfact> 0.30256328E+05</totfact>
</mgrwt>
</event>
<event>
 8    1  0.1226832E-020  0.7922715E+02  0.7818608E-02  0.1331259E+00
          2   -1    0    0  501    0  0.00000000000E+00  0.00000000000E+00  0.54701585901E+03  0.54701585901E+03  0.25500000000E-02 0. -1.
         -1   -1    0    0    0  501 -0.00000000000E+00 -0.00000000000E+00 -0.28687180513E+01  0.28687224786E+01  0.50400000000E-02 0.  1.
         24    2    1    2    0    0  0.00000000000E+00  0.00000000000E+00  0.54414714095E+03  0.54988458149E+03  0.79227154132E+02 0.  0.
         66    2    3    3    0    0  0.23004935382E+02 -0.28308469186E+01  0.49499453458E+03  0.49554094687E+03  0.20000037834E+01 0.  0.
        -13    1    3    3    0    0 -0.23004935382E+02  0.28308469186E+01  0.49152606370E+02  0.54343634616E+02  0.10566000000E+00 0.  1.
         13    1    4    4    0    0  0.72932443447E+01 -0.48220567165E+00  0.15090944553E+03  0.15108638539E+03  0.10566000000E+00 0.  1.
        -13    1    4    4    0    0  0.94259556476E+01 -0.18174708025E+01  0.21961019192E+03  0.21981992494E+03  0.10566000000E+00 0. -1.
         14    1    4    4    0    0  0.62857353896E+01 -0.53117044439E+00  0.12447489713E+03  0.12463463654E+03  0.00000000000E+00 0. -1.
<mgrwt>
<rscale>  0 0.79227154E+02</rscale>
<asrwt>0</asrwt>
<pdfrwt beam="1">  1        2 0.84156259E-01 0.79227154E+02</pdfrwt>
<pdfrwt beam="2">  1       -1 0.44134172E-03 0.79227154E+02</pdfrwt>
<totfact> 0.32112998E+05</totfact>
</mgrwt>
</event>
<event>
 8    1  0.1226832E-020  0.7908957E+02  0.7818608E-02  0.1331655E+00
         -1   -1    0    0    0  501 -0.00000000000E+00  0.00000000000E+00  0.33482601701E+01  0.33482639633E+01  0.50400000000E-02 0.  1.
          2   -1    0    0  501    0  0.00000000000E+00 -0.00000000000E+00 -0.46704523904E+03  0.46704523904E+03  0.25500000000E-02 0. -1.
         24    2    1    2    0    0  0.00000000000E+00  0.00000000000E+00 -0.46369697887E+03  0.47039350301E+03  0.79089566070E+02 0.  0.
         66    2    3    3    0    0 -0.26860266428E+02  0.79243134536E+01 -0.39783922843E+03  0.39882868544E+03  0.19999996190E+01 0.  0.
        -13    1    3    3    0    0  0.26860266428E+02 -0.79243134536E+01 -0.65857750437E+02  0.71564817564E+02  0.10566000000E+00 0.  1.
         13    1    4    4    0    0 -0.81962672301E+01  0.18507386124E+01 -0.11580797034E+03  0.11611245062E+03  0.10566000000E+00 0. -1.
        -13    1    4    4    0    0 -0.57653329577E+01  0.24130085294E+01 -0.85663132604E+02  0.85890890820E+02  0.10566000000E+00 0.  1.
         14    1    4    4    0    0 -0.12898666240E+02  0.36605663118E+01 -0.19636812548E+03  0.19682534400E+03  0.00000000000E+00 0. -1.
<mgrwt>
<rscale>  0 0.79089566E+02</rscale>
<asrwt>0</asrwt>
<pdfrwt beam="1">  1        2 0.71853062E-01 0.79089566E+02</pdfrwt>
<pdfrwt beam="2">  1       -1 0.51511761E-03 0.79089566E+02</pdfrwt>
<totfact> 0.30686847E+05</totfact>
</mgrwt>
</event>
<event>
 8    1  0.1226832E-020  0.7504429E+02  0.7818608E-02  0.1343734E+00
          2   -1    0    0  501    0  0.00000000000E+00  0.00000000000E+00  0.17888894035E+02  0.17888894216E+02  0.25500000000E-02 0. -1.
         -1   -1    0    0    0  501 -0.00000000000E+00 -0.00000000000E+00 -0.78703102341E+02  0.78703102502E+02  0.50400000000E-02 0.  1.
         24    2    1    2    0    0  0.00000000000E+00 -0.35527136788E-14 -0.60814208306E+02  0.96591996718E+02  0.75044292908E+02 0.  0.
         66    2    3    3    0    0 -0.10150247898E+02  0.19473941929E+02  0.86892948984E+01  0.23701599077E+02  0.20000015772E+01 0.  0.
        -13    1    3    3    0    0  0.10150247898E+02 -0.19473941929E+02 -0.69503503204E+02  0.72890397642E+02  0.10566000000E+00 0.  1.
         13    1    4    4    0    0 -0.81456838262E+00  0.11141032065E+01  0.27337982575E+00  0.14109033168E+01  0.10566000000E+00 0.  1.
        -13    1    4    4    0    0 -0.68456369124E+01  0.13337838465E+02  0.67587519081E+01  0.16445442258E+02  0.10566000000E+00 0. -1.
         14    1    4    4    0    0 -0.24900426034E+01  0.50220002572E+01  0.16571631645E+01  0.58452535021E+01  0.00000000000E+00 0. -1.
<mgrwt>
<rscale>  0 0.75044293E+02</rscale>
<asrwt>0</asrwt>
<pdfrwt beam="1">  1        2 0.27521376E-02 0.75044293E+02</pdfrwt>
<pdfrwt beam="2">  1       -1 0.12108170E-01 0.75044293E+02</pdfrwt>
<totfact> 0.14585015E+05</totfact>
</mgrwt>
</event>
<event>
 8    1  0.1226832E-020  0.7885672E+02  0.7818608E-02  0.1332328E+00
         -1   -1    0    0    0  501 -0.00000000000E+00  0.00000000000E+00  0.10697101450E+02  0.10697102637E+02  0.50400000000E-02 0.  1.
          2   -1    0    0  501    0  0.00000000000E+00 -0.00000000000E+00 -0.14532866414E+03  0.14532866416E+03  0.25500000000E-02 0. -1.
         24    2    1    2    0    0  0.00000000000E+00  0.00000000000E+00 -0.13463156269E+03  0.15602576680E+03  0.78856719643E+02 0.  0.
         66    2    3    3    0    0  0.22368671406E+02  0.14508724543E+02 -0.99547123659E+01  0.28529928753E+02  0.19999970074E+01 0.  0.
        -13    1    3    3    0    0 -0.22368671406E+02 -0.14508724543E+02 -0.12467685032E+03  0.12749583804E+03  0.10566000000E+00 0.  1.
         13    1    4    4    0    0  0.66163028796E+01  0.38370570911E+01 -0.30710974785E+01  0.82426497362E+01  0.10566000000E+00 0. -1.
        -13    1    4    4    0    0  0.10389562564E+01  0.32079739442E+00 -0.45744415798E+00  0.11843818068E+01  0.10566000000E+00 0.  1.
        -14    1    4    4    0    0  0.14713412270E+02  0.10350870058E+02 -0.64261707294E+01  0.19102897210E+02  0.00000000000E+00 0.  1.
<mgrwt>
<rscale>  0 0.78856720E+02</rscale>
<asrwt>0</asrwt>
<pdfrwt beam="1">  1        2 0.22358255E-01 0.78856720E+02</pdfrwt>
<pdfrwt beam="2">  1       -1 0.16457081E-02 0.78856720E+02</pdfrwt>
<totfact> 0.20599669E+05</totfact>
</mgrwt>
</event>
<event>
 8    1  0.1226832E-020  0.8135071E+02  0.7818608E-02  0.1325261E+00
          2   -1    0    0  501    0  0.00000000000E+00  0.00000000000E+00  0.26057482219E+03  0.26057482220E+03  0.25500000000E-02 0. -1.
         -1   -1    0    0    0  501 -0.00000000000E+00 -0.00000000000E+00 -0.63493639880E+01  0.63493659884E+01  0.50400000000E-02 0.  1.
         24    2    1    2    0    0  0.00000000000E+00  0.00000000000E+00  0.25422545820E+03  0.26692418819E+03  0.81350713846E+02 0.  0.
         66    2    3    3    0    0  0.11650438423E+02 -0.16984813007E+02  0.24218257133E+03  0.24306504159E+03  0.19999990080E+01 0.  0.
        -13    1    3    3    0    0 -0.11650438423E+02  0.16984813007E+02  0.12042886863E+02  0.23859146598E+02  0.10566000000E+00 0.  1.
         13    1    4    4    0    0  0.48044892845E+00 -0.47536795595E+00  0.69577642907E+01  0.69913127399E+01  0.10566000000E+00 0. -1.
        -13    1    4    4    0    0  0.42888687125E+01 -0.50436099583E+01  0.81224634459E+02  0.81494078333E+02  0.10566000000E+00 0. -1.
         14    1    4    4    0    0  0.68811207819E+01 -0.11465835093E+02  0.15400017258E+03  0.15457965052E+03  0.00000000000E+00 0. -1.
<mgrwt>
<rscale>  0 0.81350714E+02</rscale>
<asrwt>0</asrwt>
<pdfrwt beam="1">  1        2 0.40088418E-01 0.81350714E+02</pdfrwt>
<pdfrwt beam="2">  1       -1 0.97682579E-03 0.81350714E+02</pdfrwt>
<totfact> 0.23183130E+05</totfact>
</mgrwt>
</event>
<event>
 8    1  0.1226832E-020  0.7846318E+02  0.7818608E-02  0.1333470E+00
          2   -1    0    0  501    0  0.00000000000E+00  0.00000000000E+00  0.11159935710E+04  0.11159935710E+04  0.25500000000E-02 0. -1.
         -1   -1    0    0    0  501 -0.00000000000E+00 -0.00000000000E+00 -0.13791410879E+01  0.13791502971E+01  0.50400000000E-02 0.  1.
         24    2    1    2    0    0  0.35527136788E-14  0.00000000000E+00  0.11146144299E+04  0.11173727213E+04  0.78463182048E+02 0.  0.
         66    2    3    3    0    0 -0.18742135338E+02 -0.17974189189E+02  0.97596129582E+03  0.97630875754E+03  0.19999994523E+01 0.  0.
        -13    1    3    3    0    0  0.18742135338E+02  0.17974189189E+02  0.13865313411E+03  0.14106396378E+03  0.10566000000E+00 0.  1.
         13    1    4    4    0    0 -0.10293398251E+02 -0.10131607781E+02  0.56901178001E+03  0.56919506365E+03  0.10566000000E+00 0. -1.
        -13    1    4    4    0    0 -0.17643189423E+01 -0.21003884296E+01  0.92463230474E+02  0.92503970761E+02  0.10566000000E+00 0.  1.
        -14    1    4    4    0    0 -0.66844181448E+01 -0.57421929775E+01  0.31448628533E+03  0.31460972313E+03  0.00000000000E+00 0.  1.
<mgrwt>
<rscale>  0 0.78463182E+02</rscale>
<asrwt>0</asrwt>
<pdfrwt beam="1">  1        2 0.17169156E+00 0.78463182E+02</pdfrwt>
<pdfrwt beam="2">  1       -1 0.21217597E-03 0.78463182E+02</pdfrwt>
<totfact> 0.37050478E+05</totfact>
</mgrwt>
</event>
<event>
 8    1  0.1226832E-020  0.8762817E+02  0.7818608E-02  0.1308699E+00
         -1   -1    0    0    0  501 -0.00000000000E+00  0.00000000000E+00  0.17839219387E+02  0.17839220099E+02  0.50400000000E-02 0.  1.
          2   -1    0    0  501    0  0.00000000000E+00 -0.00000000000E+00 -0.10760975550E+03  0.10760975553E+03  0.25500000000E-02 0. -1.
         24    2    1    2    0    0  0.00000000000E+00  0.00000000000E+00 -0.89770536109E+02  0.12544897563E+03  0.87628170883E+02 0.  0.
         66    2    3    3    0    0 -0.38864624064E+02  0.82890589574E+01 -0.18569317616E+02  0.43908849425E+02  0.19999997626E+01 0.  0.
        -13    1    3    3    0    0  0.38864624064E+02 -0.82890589574E+01 -0.71201218493E+02  0.81540126201E+02  0.10566000000E+00 0.  1.
         13    1    4    4    0    0 -0.16692057129E+01  0.58081364434E+00 -0.11930121714E+01  0.21349553340E+01  0.10566000000E+00 0.  1.
        -13    1    4    4    0    0 -0.28212082287E+02  0.56664247059E+01 -0.13092567588E+02  0.31614181090E+02  0.10566000000E+00 0. -1.
         14    1    4    4    0    0 -0.89833360636E+01  0.20418206072E+01 -0.42837378575E+01  0.10159713001E+02  0.00000000000E+00 0. -1.
<mgrwt>
<rscale>  0 0.87628171E+02</rscale>
<asrwt>0</asrwt>
<pdfrwt beam="1">  1        2 0.16555347E-01 0.87628171E+02</pdfrwt>
<pdfrwt beam="2">  1       -1 0.27444954E-02 0.87628171E+02</pdfrwt>
<totfact> 0.14168251E+05</totfact>
</mgrwt>
</event>
<event>
 8    1  0.1226832E-020  0.7985919E+02  0.7818608E-02  0.1329452E+00
          2   -1    0    0  501    0  0.00000000000E+00  0.00000000000E+00  0.16268947106E+03  0.16268947108E+03  0.25500000000E-02 0. -1.
         -1   -1    0    0    0  501 -0.00000000000E+00 -0.00000000000E+00 -0.98000958007E+01  0.98000970967E+01  0.50400000000E-02 0.  1.
         24    2    1    2    0    0  0.00000000000E+00  0.00000000000E+00  0.15288937526E+03  0.17248956818E+03  0.79859188968E+02 0.  0.
         66    2    3    3    0    0  0.50098675229E+01  0.29385914887E+02  0.13379097597E+03  0.13708630864E+03  0.19999996964E+01 0.  0.
        -13    1    3    3    0    0 -0.50098675229E+01 -0.29385914887E+02  0.19098399286E+02  0.35403259535E+02  0.10566000000E+00 0.  1.
         13    1    4    4    0    0  0.11257815097E+01  0.49869301444E+01  0.23719462691E+02  0.24264396359E+02  0.10566000000E+00 0. -1.
        -13    1    4    4    0    0  0.19915899359E+01  0.11300719343E+02  0.47555288651E+02  0.48920234370E+02  0.10566000000E+00 0.  1.
        -14    1    4    4    0    0  0.18924960773E+01  0.13098265400E+02  0.62516224632E+02  0.63901677914E+02  0.00000000000E+00 0.  1.
<mgrwt>
<rscale>  0 0.79859189E+02</rscale>
<asrwt>0</asrwt>
<pdfrwt beam="1">  1        2 0.25029149E-01 0.79859189E+02</pdfrwt>
<pdfrwt beam="2">  1       -1 0.15077072E-02 0.79859189E+02</pdfrwt>
<totfact> 0.20663538E+05</totfact>
</mgrwt>
</event>
<event>
 8    1  0.1226832E-020  0.8456104E+02  0.7818608E-02  0.1316584E+00
         -1   -1    0    0    0  501 -0.00000000000E+00  0.00000000000E+00  0.68096515800E+01  0.68096534452E+01  0.50400000000E-02 0.  1.
          2   -1    0    0  501    0  0.00000000000E+00 -0.00000000000E+00 -0.26251595199E+03  0.26251595200E+03  0.25500000000E-02 0. -1.
         24    2    1    2    0    0  0.00000000000E+00 -0.35527136788E-14 -0.25570630041E+03  0.26932560545E+03  0.84561041150E+02 0.  0.
         66    2    3    3    0    0 -0.21003913068E+01 -0.16063423541E+02 -0.25222834771E+03  0.25275597846E+03  0.20000092529E+01 0.  0.
        -13    1    3    3    0    0  0.21003913068E+01  0.16063423541E+02 -0.34779526951E+01  0.16569626987E+02  0.10566000000E+00 0.  1.
         13    1    4    4    0    0 -0.12791213679E+00 -0.58968034677E+01 -0.84809861925E+02  0.85014778106E+02  0.10566000000E+00 0.  1.
        -13    1    4    4    0    0 -0.81208760278E+00 -0.46744792569E+01 -0.69340016301E+02  0.69502224909E+02  0.10566000000E+00 0. -1.
        -14    1    4    4    0    0 -0.11603915672E+01 -0.54921408166E+01 -0.98078469488E+02  0.98238975444E+02  0.00000000000E+00 0.  1.
<mgrwt>
<rscale>  0 0.84561041E+02</rscale>
<asrwt>0</asrwt>
<pdfrwt beam="1">  1        2 0.40387062E-01 0.84561041E+02</pdfrwt>
<pdfrwt beam="2">  1       -1 0.10476391E-02 0.84561041E+02</pdfrwt>
<totfact> 0.20990423E+05</totfact>
</mgrwt>
</event>
<event>
 8    1  0.1226832E-020  0.8031033E+02  0.7818608E-02  0.1328173E+00
          2   -1    0    0  501    0  0.00000000000E+00  0.00000000000E+00  0.29720577499E+02  0.29720577608E+02  0.25500000000E-02 0. -1.
         -1   -1    0    0    0  501 -0.00000000000E+00 -0.00000000000E+00 -0.54253221608E+02  0.54253221842E+02  0.50400000000E-02 0.  1.
         24    2    1    2    0    0  0.00000000000E+00 -0.35527136788E-14 -0.24532644109E+02  0.83973799450E+02  0.80310325408E+02 0.  0.
         66    2    3    3    0    0 -0.10305621986E+02  0.31950480585E+02  0.10715226736E+02  0.35296673228E+02  0.20000007082E+01 0.  0.
        -13    1    3    3    0    0  0.10305621986E+02 -0.31950480585E+02 -0.35247870845E+02  0.48677126222E+02  0.10566000000E+00 0.  1.
         13    1    4    4    0    0 -0.38809032842E+01  0.13722177645E+02  0.48031327374E+01  0.15047950616E+02  0.10566000000E+00 0. -1.
        -13    1    4    4    0    0 -0.34346062822E+01  0.96214537521E+01  0.24890243890E+01  0.10515479022E+02  0.10566000000E+00 0.  1.
        -14    1    4    4    0    0 -0.29901124195E+01  0.86068491880E+01  0.34230696094E+01  0.97332435897E+01  0.00000000000E+00 0.  1.
<mgrwt>
<rscale>  0 0.80310325E+02</rscale>
<asrwt>0</asrwt>
<pdfrwt beam="1">  1        2 0.45723965E-02 0.80310325E+02</pdfrwt>
<pdfrwt beam="2">  1       -1 0.83466495E-02 0.80310325E+02</pdfrwt>
<totfact> 0.13285330E+05</totfact>
</mgrwt>
</event>
<event>
 8    1  0.1226832E-020  0.7847857E+02  0.7818608E-02  0.1333425E+00
         -1   -1    0    0    0  501 -0.00000000000E+00  0.00000000000E+00  0.22194350159E+03  0.22194350165E+03  0.50400000000E-02 0.  1.
          2   -1    0    0  501    0  0.00000000000E+00 -0.00000000000E+00 -0.69374483666E+01  0.69374488353E+01  0.25500000000E-02 0. -1.
         24    2    1    2    0    0  0.00000000000E+00  0.00000000000E+00  0.21500605322E+03  0.22888095048E+03  0.78478573961E+02 0.  0.
         66    2    3    3    0    0  0.20637989855E+01 -0.35867048430E+02  0.61735479522E+02  0.71456097438E+02  0.19999999827E+01 0.  0.
        -13    1    3    3    0    0 -0.20637989855E+01  0.35867048430E+02  0.15327057370E+03  0.15742485304E+03  0.10566000000E+00 0.  1.
         13    1    4    4    0    0  0.59190034161E-02 -0.67936333297E+01  0.11919068188E+02  0.13719651576E+02  0.10566000000E+00 0. -1.
        -13    1    4    4    0    0  0.79834789716E+00 -0.13319859064E+02  0.24278968154E+02  0.27704430395E+02  0.10566000000E+00 0.  1.
        -14    1    4    4    0    0  0.12595320849E+01 -0.15753556036E+02  0.25537443179E+02  0.30032015466E+02  0.00000000000E+00 0.  1.
<mgrwt>
<rscale>  0 0.78478574E+02</rscale>
<asrwt>0</asrwt>
<pdfrwt beam="1">  1        2 0.10673000E-02 0.78478574E+02</pdfrwt>
<pdfrwt beam="2">  1       -1 0.34145146E-01 0.78478574E+02</pdfrwt>
<totfact> 0.10124665E+05</totfact>
</mgrwt>
</event>
<event>
 8    1  0.1226832E-020  0.7995226E+02  0.7818608E-02  0.1329187E+00
         -1   -1    0    0    0  501 -0.00000000000E+00  0.00000000000E+00  0.32849753761E+01  0.32849792425E+01  0.50400000000E-02 0.  1.
          2   -1    0    0  501    0  0.00000000000E+00 -0.00000000000E+00 -0.48648468003E+03  0.48648468003E+03  0.25500000000E-02 0. -1.
         24    2    1    2    0    0  0.00000000000E+00 -0.71054273576E-14 -0.48319970465E+03  0.48976965927E+03  0.79952264338E+02 0.  0.
         66    2    3    3    0    0  0.11295941328E+02  0.38264947137E+02 -0.25442625276E+03  0.25754324406E+03  0.19999994428E+01 0.  0.
        -13    1    3    3    0    0 -0.11295941328E+02 -0.38264947137E+02 -0.22877345189E+03  0.23222641522E+03  0.10566000000E+00 0.  1.
         13    1    4    4    0    0  0.28270770437E+01  0.11199002594E+02 -0.77725864448E+02  0.78579457824E+02  0.10566000000E+00 0. -1.
        -13    1    4    4    0    0  0.43368390931E+01  0.12713617166E+02 -0.85179986792E+02  0.86232740584E+02  0.10566000000E+00 0.  1.
         14    1    4    4    0    0  0.41320251910E+01  0.14352327376E+02 -0.91520401516E+02  0.92731045648E+02  0.00000000000E+00 0. -1.
<mgrwt>
<rscale>  0 0.79952264E+02</rscale>
<asrwt>0</asrwt>
<pdfrwt beam="1">  1        2 0.74843740E-01 0.79952264E+02</pdfrwt>
<pdfrwt beam="2">  1       -1 0.50538151E-03 0.79952264E+02</pdfrwt>
<totfact> 0.30231574E+05</totfact>
</mgrwt>
</event>
<event>
 8    1  0.1226832E-020  0.8077919E+02  0.7818608E-02  0.1326855E+00
         -1   -1    0    0    0  501 -0.00000000000E+00  0.00000000000E+00  0.35483713260E+01  0.35483749054E+01  0.50400000000E-02 0.  1.
          2   -1    0    0  501    0  0.00000000000E+00 -0.00000000000E+00 -0.45973722674E+03  0.45973722674E+03  0.25500000000E-02 0. -1.
         24    2    1    2    0    0 -0.88817841970E-15  0.00000000000E+00 -0.45618885541E+03  0.46328560165E+03  0.80779186023E+02 0.  0.
         66    2    3    3    0    0  0.59201162181E+01 -0.17406455100E+02 -0.43432524777E+03  0.43471882097E+03  0.20000000884E+01 0.  0.
        -13    1    3    3    0    0 -0.59201162181E+01  0.17406455100E+02 -0.21863607637E+02  0.28566780675E+02  0.10566000000E+00 0.  1.
         13    1    4    4    0    0  0.16001753510E+01 -0.56091622814E+01 -0.12593805791E+03  0.12607310917E+03  0.10566000000E+00 0. -1.
        -13    1    4    4    0    0  0.43035221078E+01 -0.11372290754E+02 -0.29213807538E+03  0.29239103193E+03  0.10566000000E+00 0.  1.
        -14    1    4    4    0    0  0.16418759301E-01 -0.42500206426E+00 -0.16249114482E+02  0.16254679873E+02  0.00000000000E+00 0.  1.
<mgrwt>
<rscale>  0 0.80779186E+02</rscale>
<asrwt>0</asrwt>
<pdfrwt beam="1">  1        2 0.70728757E-01 0.80779186E+02</pdfrwt>
<pdfrwt beam="2">  1       -1 0.54590392E-03 0.80779186E+02</pdfrwt>
<totfact> 0.28889604E+05</totfact>
</mgrwt>
</event>
<event>
 8    1  0.1226832E-020  0.8022316E+02  0.7818608E-02  0.1328419E+00
         -1   -1    0    0    0  501 -0.00000000000E+00  0.00000000000E+00  0.50256810600E+01  0.50256835872E+01  0.50400000000E-02 0.  1.
          2   -1    0    0  501    0  0.00000000000E+00 -0.00000000000E+00 -0.32014335536E+03  0.32014335537E+03  0.25500000000E-02 0. -1.
         24    2    1    2    0    0  0.00000000000E+00  0.00000000000E+00 -0.31511767430E+03  0.32516903895E+03  0.80223159001E+02 0.  0.
         66    2    3    3    0    0 -0.13767147200E+02 -0.35734078883E+02 -0.20569716736E+03  0.20924096971E+03  0.20000027167E+01 0.  0.
        -13    1    3    3    0    0  0.13767147200E+02  0.35734078883E+02 -0.10942050693E+03  0.11592806924E+03  0.10566000000E+00 0.  1.
         13    1    4    4    0    0 -0.38691672741E+01 -0.11051814538E+02 -0.63198091488E+02  0.64273812643E+02  0.10566000000E+00 0. -1.
        -13    1    4    4    0    0 -0.12348371449E+01 -0.46204644501E+01 -0.25741619616E+02  0.26182353962E+02  0.10566000000E+00 0.  1.
         14    1    4    4    0    0 -0.86631427814E+01 -0.20061799895E+02 -0.11675745626E+03  0.11878480311E+03  0.00000000000E+00 0. -1.
<mgrwt>
<rscale>  0 0.80223159E+02</rscale>
<asrwt>0</asrwt>
<pdfrwt beam="1">  1        2 0.49252808E-01 0.80223159E+02</pdfrwt>
<pdfrwt beam="2">  1       -1 0.77318215E-03 0.80223159E+02</pdfrwt>
<totfact> 0.25910670E+05</totfact>
</mgrwt>
</event>
<event>
 8    1  0.1226832E-020  0.7701048E+02  0.7818608E-02  0.1337756E+00
         -1   -1    0    0    0  501 -0.00000000000E+00  0.00000000000E+00  0.24011159370E+01  0.24011212265E+01  0.50400000000E-02 0.  1.
          2   -1    0    0  501    0  0.00000000000E+00 -0.00000000000E+00 -0.61748455572E+03  0.61748455572E+03  0.25500000000E-02 0. -1.
         24    2    1    2    0    0  0.00000000000E+00  0.00000000000E+00 -0.61508343978E+03  0.61988567695E+03  0.77010483667E+02 0.  0.
         66    2    3    3    0    0 -0.24840450010E+02 -0.35831695768E+01 -0.54253106059E+03  0.54311494065E+03  0.19999992978E+01 0.  0.
        -13    1    3    3    0    0  0.24840450010E+02  0.35831695768E+01 -0.72552379195E+02  0.76770736298E+02  0.10566000000E+00 0.  1.
         13    1    4    4    0    0 -0.16130446897E+02 -0.31417152657E+01 -0.35703180862E+03  0.35740982810E+03  0.10566000000E+00 0. -1.
        -13    1    4    4    0    0 -0.36785675496E+01 -0.18908664296E+00 -0.72391100539E+02  0.72484827476E+02  0.10566000000E+00 0.  1.
         14    1    4    4    0    0 -0.50314355635E+01 -0.25236766818E+00 -0.11310815143E+03  0.11322028508E+03  0.00000000000E+00 0. -1.
<mgrwt>
<rscale>  0 0.77010484E+02</rscale>
<asrwt>0</asrwt>
<pdfrwt beam="1">  1        2 0.94997497E-01 0.77010484E+02</pdfrwt>
<pdfrwt beam="2">  1       -1 0.36940335E-03 0.77010484E+02</pdfrwt>
<totfact> 0.35787739E+05</totfact>
</mgrwt>
</event>
<event>
 8    1  0.1226832E-020  0.8328483E+02  0.7818608E-02  0.1319980E+00
         -1   -1    0    0    0  501 -0.00000000000E+00  0.00000000000E+00  0.14556586639E+02  0.14556587512E+02  0.50400000000E-02 0.  1.
          2   -1    0    0  501    0  0.00000000000E+00 -0.00000000000E+00 -0.11912757544E+03  0.11912757546E+03  0.25500000000E-02 0. -1.
         24    2    1    2    0    0  0.00000000000E+00  0.00000000000E+00 -0.10457098880E+03  0.13368416298E+03  0.83284834949E+02 0.  0.
         66    2    3    3    0    0 -0.39436980007E+02 -0.61985029611E+01 -0.71198299797E+02  0.81651054610E+02  0.19999984759E+01 0.  0.
        -13    1    3    3    0    0  0.39436980007E+02  0.61985029611E+01 -0.33372688999E+02  0.52033108365E+02  0.10566000000E+00 0.  1.
         13    1    4    4    0    0 -0.26361221474E+02 -0.49958327269E+01 -0.48589997453E+02  0.55505597545E+02  0.10566000000E+00 0. -1.
        -13    1    4    4    0    0 -0.77186917534E+01 -0.68990209278E+00 -0.13260250958E+02  0.15359022976E+02  0.10566000000E+00 0.  1.
         14    1    4    4    0    0 -0.53570667793E+01 -0.51276814136E+00 -0.93480513858E+01  0.10786434089E+02  0.00000000000E+00 0. -1.
<mgrwt>
<rscale>  0 0.83284835E+02</rscale>
<asrwt>0</asrwt>
<pdfrwt beam="1">  1        2 0.18327319E-01 0.83284835E+02</pdfrwt>
<pdfrwt beam="2">  1       -1 0.22394750E-02 0.83284835E+02</pdfrwt>
<totfact> 0.16744079E+05</totfact>
</mgrwt>
</event>
<event>
 8    1  0.1226832E-020  0.7980616E+02  0.7818608E-02  0.1329602E+00
          2   -1    0    0  501    0  0.00000000000E+00  0.00000000000E+00  0.26876450558E+03  0.26876450559E+03  0.25500000000E-02 0. -1.
         -1   -1    0    0    0  501 -0.00000000000E+00 -0.00000000000E+00 -0.59243514163E+01  0.59243535601E+01  0.50400000000E-02 0.  1.
         24    2    1    2    0    0  0.00000000000E+00  0.00000000000E+00  0.26284015416E+03  0.27468885915E+03  0.79806157040E+02 0.  0.
         66    2    3    3    0    0  0.35958514833E+02 -0.11199457137E+02  0.86386813607E+02  0.94260936738E+02  0.20000000746E+01 0.  0.
        -13    1    3    3    0    0 -0.35958514833E+02  0.11199457137E+02  0.17645334056E+03  0.18042792241E+03  0.10566000000E+00 0.  1.
         13    1    4    4    0    0  0.14201217488E+02 -0.45910097565E+01  0.34373172476E+02  0.37473698761E+02  0.10566000000E+00 0. -1.
        -13    1    4    4    0    0  0.10418974798E+02 -0.31997045880E+01  0.26821273589E+02  0.28951425289E+02  0.10566000000E+00 0.  1.
         14    1    4    4    0    0  0.11338322547E+02 -0.34087427927E+01  0.25192367542E+02  0.27835812688E+02  0.00000000000E+00 0. -1.
<mgrwt>
<rscale>  0 0.79806157E+02</rscale>
<asrwt>0</asrwt>
<pdfrwt beam="1">  1        2 0.41348389E-01 0.79806157E+02</pdfrwt>
<pdfrwt beam="2">  1       -1 0.91143878E-03 0.79806157E+02</pdfrwt>
<totfact> 0.24655712E+05</totfact>
</mgrwt>
</event>
<event>
 8    1  0.1226832E-020  0.7914399E+02  0.7818608E-02  0.1331498E+00
          2   -1    0    0  501    0  0.00000000000E+00  0.00000000000E+00  0.45672622202E+03  0.45672622202E+03  0.25500000000E-02 0. -1.
         -1   -1    0    0    0  501 -0.00000000000E+00 -0.00000000000E+00 -0.34286229324E+01  0.34286266367E+01  0.50400000000E-02 0.  1.
         24    2    1    2    0    0  0.35527136788E-14  0.17763568394E-14  0.45329759908E+03  0.46015484866E+03  0.79143991624E+02 0.  0.
         66    2    3    3    0    0  0.24038172872E+02 -0.14656619550E+02  0.38826402309E+03  0.38928858431E+03  0.20000000809E+01 0.  0.
        -13    1    3    3    0    0 -0.24038172872E+02  0.14656619550E+02  0.65033575995E+02  0.70866264346E+02  0.10566000000E+00 0.  1.
         13    1    4    4    0    0  0.57412929321E+01 -0.33652319726E+01  0.92601206790E+02  0.92840087751E+02  0.10566000000E+00 0. -1.
        -13    1    4    4    0    0  0.37923829123E+01 -0.27950951700E+01  0.73164369892E+02  0.73315966275E+02  0.10566000000E+00 0.  1.
        -14    1    4    4    0    0  0.14504497027E+02 -0.84962924072E+01  0.22249844641E+03  0.22313253029E+03  0.00000000000E+00 0.  1.
<mgrwt>
<rscale>  0 0.79143992E+02</rscale>
<asrwt>0</asrwt>
<pdfrwt beam="1">  1        2 0.70265527E-01 0.79143992E+02</pdfrwt>
<pdfrwt beam="2">  1       -1 0.52748108E-03 0.79143992E+02</pdfrwt>
<totfact> 0.30405830E+05</totfact>
</mgrwt>
</event>
<event>
 8    1  0.1226832E-020  0.7960890E+02  0.7818608E-02  0.1330165E+00
         -1   -1    0    0    0  501 -0.00000000000E+00  0.00000000000E+00  0.34525777180E+02  0.34525777547E+02  0.50400000000E-02 0.  1.
          2   -1    0    0  501    0  0.00000000000E+00 -0.00000000000E+00 -0.45890177503E+02  0.45890177574E+02  0.25500000000E-02 0. -1.
         24    2    1    2    0    0 -0.17763568394E-14  0.00000000000E+00 -0.11364400324E+02  0.80415955122E+02  0.79608895504E+02 0.  0.
         66    2    3    3    0    0 -0.12166288389E+02 -0.29334468191E+02 -0.29883996344E+02  0.43652981928E+02  0.19999991252E+01 0.  0.
        -13    1    3    3    0    0  0.12166288389E+02  0.29334468191E+02  0.18519596020E+02  0.36762973193E+02  0.10566000000E+00 0.  1.
         13    1    4    4    0    0 -0.21202940888E+01 -0.50166494879E+01 -0.46807466199E+01  0.71821286582E+01  0.10566000000E+00 0.  1.
        -13    1    4    4    0    0 -0.69509618414E+01 -0.18482829133E+02 -0.19302691142E+02  0.27614052448E+02  0.10566000000E+00 0. -1.
         14    1    4    4    0    0 -0.30950324584E+01 -0.58349895709E+01 -0.59005585825E+01  0.88568008217E+01  0.00000000000E+00 0. -1.
<mgrwt>
<rscale>  0 0.79608896E+02</rscale>
<asrwt>0</asrwt>
<pdfrwt beam="1">  1        2 0.70600273E-02 0.79608896E+02</pdfrwt>
<pdfrwt beam="2">  1       -1 0.53116581E-02 0.79608896E+02</pdfrwt>
<totfact> 0.14868850E+05</totfact>
</mgrwt>
</event>
<event>
 8    1  0.1226832E-020  0.7979345E+02  0.7818608E-02  0.1329639E+00
          2   -1    0    0  501    0  0.00000000000E+00  0.00000000000E+00  0.66073345611E+03  0.66073345611E+03  0.25500000000E-02 0. -1.
         -1   -1    0    0    0  501 -0.00000000000E+00 -0.00000000000E+00 -0.24090603164E+01  0.24090655885E+01  0.50400000000E-02 0.  1.
         24    2    1    2    0    0  0.00000000000E+00  0.00000000000E+00  0.65832439579E+03  0.66314252170E+03  0.79793445809E+02 0.  0.
         66    2    3    3    0    0 -0.32333523550E+02 -0.44893756928E+01  0.51963394533E+03  0.52066212497E+03  0.20000000885E+01 0.  0.
        -13    1    3    3    0    0  0.32333523550E+02  0.44893756928E+01  0.13869045046E+03  0.14248039673E+03  0.10566000000E+00 0.  1.
         13    1    4    4    0    0 -0.22272989908E+02 -0.27086575229E+01  0.35472523746E+03  0.35543414040E+03  0.10566000000E+00 0. -1.
        -13    1    4    4    0    0 -0.31470312362E+01 -0.62883391965E+00  0.44764003230E+02  0.44879019452E+02  0.10566000000E+00 0.  1.
         14    1    4    4    0    0 -0.69135024060E+01 -0.11518842503E+01  0.12014470464E+03  0.12034896512E+03  0.00000000000E+00 0. -1.
<mgrwt>
<rscale>  0 0.79793446E+02</rscale>
<asrwt>0</asrwt>
<pdfrwt beam="1">  1        2 0.10165132E+00 0.79793446E+02</pdfrwt>
<pdfrwt beam="2">  1       -1 0.37062501E-03 0.79793446E+02</pdfrwt>
<totfact> 0.33215609E+05</totfact>
</mgrwt>
</event>
<event>
 8    1  0.1226832E-020  0.6960219E+02  0.7818608E-02  0.1361451E+00
          2   -1    0    0  501    0  0.00000000000E+00  0.00000000000E+00  0.44862686926E+03  0.44862686927E+03  0.25500000000E-02 0. -1.
         -1   -1    0    0    0  501 -0.00000000000E+00 -0.00000000000E+00 -0.26996043948E+01  0.26996090995E+01  0.50400000000E-02 0.  1.
         24    2    1    2    0    0 -0.35527136788E-14  0.00000000000E+00  0.44592726486E+03  0.45132647836E+03  0.69602187644E+02 0.  0.
         66    2    3    3    0    0  0.27902731069E+02 -0.20332462829E+02  0.24999278027E+03  0.25237345662E+03  0.19999929436E+01 0.  0.
        -13    1    3    3    0    0 -0.27902731069E+02  0.20332462829E+02  0.19593448459E+03  0.19895302175E+03  0.10566000000E+00 0.  1.
         13    1    4    4    0    0  0.23132785078E+00 -0.20126385878E+00  0.28328833028E+01  0.28513876549E+01  0.10566000000E+00 0. -1.
        -13    1    4    4    0    0  0.10594115009E+02 -0.69031781657E+01  0.93580062020E+02  0.94430547565E+02  0.10566000000E+00 0. -1.
         14    1    4    4    0    0  0.17077288209E+02 -0.13228020804E+02  0.15357983495E+03  0.15509152140E+03  0.00000000000E+00 0. -1.
<mgrwt>
<rscale>  0 0.69602188E+02</rscale>
<asrwt>0</asrwt>
<pdfrwt beam="1">  1        2 0.69019456E-01 0.69602188E+02</pdfrwt>
<pdfrwt beam="2">  1       -1 0.41532449E-03 0.69602188E+02</pdfrwt>
<totfact> 0.42146328E+05</totfact>
</mgrwt>
</event>
<event>
 8    1  0.1226832E-020  0.7598312E+02  0.7818608E-02  0.1340853E+00
         -1   -1    0    0    0  501 -0.00000000000E+00  0.00000000000E+00  0.16650430111E+01  0.16650506390E+01  0.50400000000E-02 0.  1.
          2   -1    0    0  501    0  0.00000000000E+00 -0.00000000000E+00 -0.86685767868E+03  0.86685767868E+03  0.25500000000E-02 0. -1.
         24    2    1    2    0    0  0.00000000000E+00  0.22204460493E-15 -0.86519263567E+03  0.86852272932E+03  0.75983120064E+02 0.  0.
         66    2    3    3    0    0  0.12046567562E+02  0.11944356516E+01 -0.84420269842E+03  0.84429185859E+03  0.20000002988E+01 0.  0.
        -13    1    3    3    0    0 -0.12046567562E+02 -0.11944356516E+01 -0.20989937250E+02  0.24230870730E+02  0.10566000000E+00 0.  1.
         13    1    4    4    0    0  0.50844113381E+01  0.65540028701E-01 -0.33060817535E+03  0.33064729291E+03  0.10566000000E+00 0. -1.
        -13    1    4    4    0    0  0.19158812142E+01 -0.25600828660E+00 -0.13469358552E+03  0.13470749528E+03  0.10566000000E+00 0.  1.
         14    1    4    4    0    0  0.50462750099E+01  0.13849039095E+01 -0.37890093754E+03  0.37893707040E+03  0.00000000000E+00 0. -1.
<mgrwt>
<rscale>  0 0.75983120E+02</rscale>
<asrwt>0</asrwt>
<pdfrwt beam="1">  1        2 0.13336236E+00 0.75983120E+02</pdfrwt>
<pdfrwt beam="2">  1       -1 0.25616174E-03 0.75983120E+02</pdfrwt>
<totfact> 0.39754236E+05</totfact>
</mgrwt>
</event>
<event>
 8    1  0.1226832E-020  0.8016249E+02  0.7818608E-02  0.1328591E+00
          2   -1    0    0  501    0  0.00000000000E+00  0.00000000000E+00  0.25734370331E+03  0.25734370333E+03  0.25500000000E-02 0. -1.
         -1   -1    0    0    0  501 -0.00000000000E+00 -0.00000000000E+00 -0.62426467192E+01  0.62426487537E+01  0.50400000000E-02 0.  1.
         24    2    1    2    0    0  0.71054273576E-14  0.44408920985E-15  0.25110105659E+03  0.26358635208E+03  0.80162487362E+02 0.  0.
         66    2    3    3    0    0  0.26598237613E+02  0.34260640595E+01  0.22346390652E+03  0.22507625746E+03  0.19999995671E+01 0.  0.
        -13    1    3    3    0    0 -0.26598237613E+02 -0.34260640595E+01  0.27637150079E+02  0.38510094620E+02  0.10566000000E+00 0.  1.
         13    1    4    4    0    0  0.10106543892E+02  0.10482899504E+01  0.85511179443E+02  0.86112798787E+02  0.10566000000E+00 0. -1.
        -13    1    4    4    0    0  0.13032915722E+02  0.12778593046E+01  0.10665818240E+03  0.10745914970E+03  0.10566000000E+00 0.  1.
         14    1    4    4    0    0  0.34587779993E+01  0.10999148045E+01  0.31294544673E+02  0.31504308977E+02  0.00000000000E+00 0. -1.
<mgrwt>
<rscale>  0 0.80162487E+02</rscale>
<asrwt>0</asrwt>
<pdfrwt beam="1">  1        2 0.39591332E-01 0.80162487E+02</pdfrwt>
<pdfrwt beam="2">  1       -1 0.96040752E-03 0.80162487E+02</pdfrwt>
<totfact> 0.23989395E+05</totfact>
</mgrwt>
</event>
<event>
 8    1  0.1226832E-020  0.8020837E+02  0.7818608E-02  0.1328461E+00
         -1   -1    0    0    0  501 -0.00000000000E+00  0.00000000000E+00  0.34810713507E+01  0.34810749992E+01  0.50400000000E-02 0.  1.
          2   -1    0    0  501    0  0.00000000000E+00 -0.00000000000E+00 -0.46202581689E+03  0.46202581690E+03  0.25500000000E-02 0. -1.
         24    2    1    2    0    0  0.00000000000E+00 -0.17763568394E-14 -0.45854474554E+03  0.46550689190E+03  0.80208370768E+02 0.  0.
         66    2    3    3    0    0  0.96715513214E+01  0.11234744163E+02 -0.44552671076E+03  0.44577775672E+03  0.20000010328E+01 0.  0.
        -13    1    3    3    0    0 -0.96715513214E+01 -0.11234744163E+02 -0.13018034787E+02  0.19729135184E+02  0.10566000000E+00 0.  1.
         13    1    4    4    0    0  0.53415080078E+00  0.83060698489E+00 -0.31547900232E+02  0.31563529558E+02  0.10566000000E+00 0. -1.
        -13    1    4    4    0    0  0.74565631652E+01  0.90626651029E+01 -0.33259876005E+03  0.33280576705E+03  0.10566000000E+00 0.  1.
        -14    1    4    4    0    0  0.16808373554E+01  0.13414720750E+01 -0.81380050477E+02  0.81408460108E+02  0.00000000000E+00 0.  1.
<mgrwt>
<rscale>  0 0.80208371E+02</rscale>
<asrwt>0</asrwt>
<pdfrwt beam="1">  1        2 0.71080846E-01 0.80208371E+02</pdfrwt>
<pdfrwt beam="2">  1       -1 0.53555009E-03 0.80208371E+02</pdfrwt>
<totfact> 0.29477866E+05</totfact>
</mgrwt>
</event>
<event>
 8    1  0.1226832E-020  0.8140247E+02  0.7818608E-02  0.1325118E+00
         -1   -1    0    0    0  501 -0.00000000000E+00  0.00000000000E+00  0.89089244156E+01  0.89089258412E+01  0.50400000000E-02 0.  1.
          2   -1    0    0  501    0  0.00000000000E+00 -0.00000000000E+00 -0.18594728683E+03  0.18594728685E+03  0.25500000000E-02 0. -1.
         24    2    1    2    0    0  0.00000000000E+00  0.17763568394E-14 -0.17703836242E+03  0.19485621269E+03  0.81402468372E+02 0.  0.
         66    2    3    3    0    0  0.22025640171E+02  0.14934571512E+02 -0.16221310496E+03  0.16439361802E+03  0.19999939491E+01 0.  0.
        -13    1    3    3    0    0 -0.22025640171E+02 -0.14934571512E+02 -0.14825257462E+02  0.30462594670E+02  0.10566000000E+00 0.  1.
         13    1    4    4    0    0  0.66262360649E+01  0.37146590861E+01 -0.43707957747E+02  0.44363300497E+02  0.10566000000E+00 0. -1.
        -13    1    4    4    0    0  0.48630961563E+01  0.39688212828E+01 -0.37674676668E+02  0.38194157573E+02  0.10566000000E+00 0.  1.
         14    1    4    4    0    0  0.10536307950E+02  0.72510911427E+01 -0.80830470540E+02  0.81836159952E+02  0.00000000000E+00 0. -1.
<mgrwt>
<rscale>  0 0.81402468E+02</rscale>
<asrwt>0</asrwt>
<pdfrwt beam="1">  1        2 0.28607272E-01 0.81402468E+02</pdfrwt>
<pdfrwt beam="2">  1       -1 0.13706040E-02 0.81402468E+02</pdfrwt>
<totfact> 0.20545170E+05</totfact>
</mgrwt>
</event>
<event>
 8    1  0.1226832E-020  0.7986155E+02  0.7818608E-02  0.1329445E+00
         -1   -1    0    0    0  501 -0.00000000000E+00  0.00000000000E+00  0.22849794114E+01  0.22849849698E+01  0.50400000000E-02 0.  1.
          2   -1    0    0  501    0  0.00000000000E+00 -0.00000000000E+00 -0.69780279577E+03  0.69780279577E+03  0.25500000000E-02 0. -1.
         24    2    1    2    0    0 -0.17763568394E-14  0.00000000000E+00 -0.69551781636E+03  0.70008778074E+03  0.79861554427E+02 0.  0.
         66    2    3    3    0    0 -0.11983227670E+02  0.19069568475E+02 -0.63676018334E+03  0.63716150015E+03  0.20000004446E+01 0.  0.
        -13    1    3    3    0    0  0.11983227670E+02 -0.19069568475E+02 -0.58757633020E+02  0.62926280594E+02  0.10566000000E+00 0.  1.
         13    1    4    4    0    0 -0.28653988432E+01  0.34333915415E+01 -0.11955378199E+03  0.11963743829E+03  0.10566000000E+00 0. -1.
        -13    1    4    4    0    0 -0.19679498979E+01  0.39073621888E+01 -0.11552540401E+03  0.11560826286E+03  0.10566000000E+00 0.  1.
         14    1    4    4    0    0 -0.71498789292E+01  0.11728814744E+02 -0.40168099733E+03  0.40191579900E+03  0.00000000000E+00 0. -1.
<mgrwt>
<rscale>  0 0.79861554E+02</rscale>
<asrwt>0</asrwt>
<pdfrwt beam="1">  1        2 0.10735411E+00 0.79861554E+02</pdfrwt>
<pdfrwt beam="2">  1       -1 0.35153628E-03 0.79861554E+02</pdfrwt>
<totfact> 0.33578413E+05</totfact>
</mgrwt>
</event>
<event>
 8    1  0.1226832E-020  0.7958181E+02  0.7818608E-02  0.1330242E+00
          2   -1    0    0  501    0  0.00000000000E+00  0.00000000000E+00  0.61811741727E+03  0.61811741728E+03  0.25500000000E-02 0. -1.
         -1   -1    0    0    0  501 -0.00000000000E+00 -0.00000000000E+00 -0.25615111709E+01  0.25615161292E+01  0.50400000000E-02 0.  1.
         24    2    1    2    0    0  0.22204460493E-15  0.00000000000E+00  0.61555590610E+03  0.62067893341E+03  0.79581812236E+02 0.  0.
         66    2    3    3    0    0  0.15575821707E+01 -0.23972976789E+02  0.55512105337E+03  0.55564423292E+03  0.20000018991E+01 0.  0.
        -13    1    3    3    0    0 -0.15575821707E+01  0.23972976789E+02  0.60434852735E+02  0.65034700488E+02  0.10566000000E+00 0.  1.
         13    1    4    4    0    0  0.16482574386E+00 -0.11427181322E+02  0.26540607863E+03  0.26565203816E+03  0.10566000000E+00 0.  1.
        -13    1    4    4    0    0  0.53577000938E+00 -0.93799832049E+01  0.21661345358E+03  0.21681713625E+03  0.10566000000E+00 0. -1.
        -14    1    4    4    0    0  0.85698641744E+00 -0.31658122627E+01  0.73101521158E+02  0.73175058515E+02  0.00000000000E+00 0.  1.
<mgrwt>
<rscale>  0 0.79581812E+02</rscale>
<asrwt>0</asrwt>
<pdfrwt beam="1">  1        2 0.95095069E-01 0.79581812E+02</pdfrwt>
<pdfrwt beam="2">  1       -1 0.39407869E-03 0.79581812E+02</pdfrwt>
<totfact> 0.32871934E+05</totfact>
</mgrwt>
</event>
<event>
 8    1  0.1226832E-020  0.8052635E+02  0.7818608E-02  0.1327564E+00
          2   -1    0    0  501    0  0.00000000000E+00  0.00000000000E+00  0.53111639273E+02  0.53111639334E+02  0.25500000000E-02 0. -1.
         -1   -1    0    0    0  501 -0.00000000000E+00 -0.00000000000E+00 -0.30522936089E+02  0.30522936505E+02  0.50400000000E-02 0.  1.
         24    2    1    2    0    0  0.00000000000E+00  0.00000000000E+00  0.22588703184E+02  0.83634575840E+02  0.80526348262E+02 0.  0.
         66    2    3    3    0    0  0.23963712566E+01 -0.31503952857E+02 -0.14577879631E+02  0.34853353192E+02  0.20000033451E+01 0.  0.
        -13    1    3    3    0    0 -0.23963712566E+01  0.31503952857E+02  0.37166582815E+02  0.48781222647E+02  0.10566000000E+00 0.  1.
         13    1    4    4    0    0  0.10398495396E+01 -0.16931807085E+02 -0.70545603171E+01  0.18372407668E+02  0.10566000000E+00 0. -1.
        -13    1    4    4    0    0  0.63302790774E-01 -0.35112256270E+01 -0.21150421697E+01  0.41008877164E+01  0.10566000000E+00 0.  1.
         14    1    4    4    0    0  0.12932189263E+01 -0.11060920145E+02 -0.54082771446E+01  0.12380057808E+02  0.00000000000E+00 0. -1.
<mgrwt>
<rscale>  0 0.80526348E+02</rscale>
<asrwt>0</asrwt>
<pdfrwt beam="1">  1        2 0.81710214E-02 0.80526348E+02</pdfrwt>
<pdfrwt beam="2">  1       -1 0.46958364E-02 0.80526348E+02</pdfrwt>
<totfact> 0.14873418E+05</totfact>
</mgrwt>
</event>
<event>
 8    1  0.1226832E-020  0.7097768E+02  0.7818608E-02  0.1356800E+00
          2   -1    0    0  501    0  0.00000000000E+00  0.00000000000E+00  0.78824648848E+02  0.78824648890E+02  0.25500000000E-02 0. -1.
         -1   -1    0    0    0  501 -0.00000000000E+00 -0.00000000000E+00 -0.15977968264E+02  0.15977969059E+02  0.50400000000E-02 0.  1.
         24    2    1    2    0    0  0.35527136788E-14  0.00000000000E+00  0.62846680584E+02  0.94802617949E+02  0.70977680362E+02 0.  0.
         66    2    3    3    0    0 -0.20211285364E+02 -0.25949123054E+02  0.49147708869E+02  0.59172209118E+02  0.20000003731E+01 0.  0.
        -13    1    3    3    0    0  0.20211285364E+02  0.25949123054E+02  0.13698971715E+02  0.35630408831E+02  0.10566000000E+00 0.  1.
         13    1    4    4    0    0 -0.10044215535E+02 -0.13398718855E+02  0.25292455687E+02  0.30333667951E+02  0.10566000000E+00 0. -1.
        -13    1    4    4    0    0 -0.80332373436E+01 -0.90273504727E+01  0.17938064648E+02  0.21628945562E+02  0.10566000000E+00 0.  1.
        -14    1    4    4    0    0 -0.21338324855E+01 -0.35230537266E+01  0.59171885348E+01  0.72095956053E+01  0.00000000000E+00 0.  1.
<mgrwt>
<rscale>  0 0.70977680E+02</rscale>
<asrwt>0</asrwt>
<pdfrwt beam="1">  1        2 0.12126869E-01 0.70977680E+02</pdfrwt>
<pdfrwt beam="2">  1       -1 0.24581490E-02 0.70977680E+02</pdfrwt>
<totfact> 0.22904010E+05</totfact>
</mgrwt>
</event>
<event>
 8    1  0.1226832E-020  0.7910068E+02  0.7818608E-02  0.1331623E+00
         -1   -1    0    0    0  501 -0.00000000000E+00  0.00000000000E+00  0.95946189896E+01  0.95946203133E+01  0.50400000000E-02 0.  1.
          2   -1    0    0  501    0  0.00000000000E+00 -0.00000000000E+00 -0.16303195273E+03  0.16303195275E+03  0.25500000000E-02 0. -1.
         24    2    1    2    0    0  0.17763568394E-14  0.00000000000E+00 -0.15343733374E+03  0.17262657306E+03  0.79100684840E+02 0.  0.
         66    2    3    3    0    0 -0.82822962047E+01 -0.37051758375E+02 -0.10075328796E+03  0.10768776285E+03  0.20000004946E+01 0.  0.
        -13    1    3    3    0    0  0.82822962047E+01  0.37051758375E+02 -0.52684045777E+02  0.64938810218E+02  0.10566000000E+00 0.  1.
         13    1    4    4    0    0 -0.74502776354E+01 -0.34041659154E+02 -0.92773752935E+02  0.99102581160E+02  0.10566000000E+00 0. -1.
        -13    1    4    4    0    0 -0.33697387506E+00 -0.86933037350E+00 -0.29766884220E+01  0.31210774884E+01  0.10566000000E+00 0.  1.
         14    1    4    4    0    0 -0.49504469428E+00 -0.21407688479E+01 -0.50028466064E+01  0.54641041971E+01  0.00000000000E+00 0. -1.
<mgrwt>
<rscale>  0 0.79100685E+02</rscale>
<asrwt>0</asrwt>
<pdfrwt beam="1">  1        2 0.25081837E-01 0.79100685E+02</pdfrwt>
<pdfrwt beam="2">  1       -1 0.14760955E-02 0.79100685E+02</pdfrwt>
<totfact> 0.21206909E+05</totfact>
</mgrwt>
</event>
<event>
 8    1  0.1226832E-020  0.7985726E+02  0.7818608E-02  0.1329457E+00
          2   -1    0    0  501    0  0.00000000000E+00  0.00000000000E+00  0.10624940897E+02  0.10624941203E+02  0.25500000000E-02 0. -1.
         -1   -1    0    0    0  501 -0.00000000000E+00 -0.00000000000E+00 -0.15005217926E+03  0.15005217935E+03  0.50400000000E-02 0.  1.
         24    2    1    2    0    0  0.00000000000E+00  0.00000000000E+00 -0.13942723836E+03  0.16067712055E+03  0.79857261849E+02 0.  0.
         66    2    3    3    0    0  0.27632989928E+02  0.70005918816E+01 -0.13574415103E+02  0.31636294815E+02  0.19999962981E+01 0.  0.
        -13    1    3    3    0    0 -0.27632989928E+02 -0.70005918816E+01 -0.12585282326E+03  0.12904082573E+03  0.10566000000E+00 0.  1.
         13    1    4    4    0    0  0.24088305259E+02  0.61611021238E+01 -0.12123299154E+02  0.27662089148E+02  0.10566000000E+00 0. -1.
        -13    1    4    4    0    0  0.17546796831E+01  0.15886190166E+00 -0.90115632623E+00  0.19817630166E+01  0.10566000000E+00 0.  1.
         14    1    4    4    0    0  0.17900049861E+01  0.68062785614E+00 -0.54995962230E+00  0.19924426503E+01  0.00000000000E+00 0. -1.
<mgrwt>
<rscale>  0 0.79857262E+02</rscale>
<asrwt>0</asrwt>
<pdfrwt beam="1">  1        2 0.16346064E-02 0.79857262E+02</pdfrwt>
<pdfrwt beam="2">  1       -1 0.23084949E-01 0.79857262E+02</pdfrwt>
<totfact> 0.10835098E+05</totfact>
</mgrwt>
</event>
<event>
 8    1  0.1226832E-020  0.8118826E+02  0.7818608E-02  0.1325713E+00
          2   -1    0    0  501    0  0.00000000000E+00  0.00000000000E+00  0.21751259571E+02  0.21751259721E+02  0.25500000000E-02 0. -1.
         -1   -1    0    0    0  501 -0.00000000000E+00 -0.00000000000E+00 -0.75760367641E+02  0.75760367809E+02  0.50400000000E-02 0.  1.
         24    2    1    2    0    0 -0.35527136788E-14  0.00000000000E+00 -0.54009108070E+02  0.97511627530E+02  0.81188261152E+02 0.  0.
         66    2    3    3    0    0  0.18424558307E+02 -0.36141636689E+02 -0.27552897472E+02  0.49079979874E+02  0.20000035113E+01 0.  0.
        -13    1    3    3    0    0 -0.18424558307E+02  0.36141636689E+02 -0.26456210599E+02  0.48431647655E+02  0.10566000000E+00 0.  1.
         13    1    4    4    0    0  0.89985669460E+01 -0.16402247580E+02 -0.13490656465E+02  0.23065491728E+02  0.10566000000E+00 0. -1.
        -13    1    4    4    0    0  0.35178146626E+01 -0.78003556309E+01 -0.51636187316E+01  0.99947331335E+01  0.10566000000E+00 0.  1.
        -14    1    4    4    0    0  0.59081766982E+01 -0.11939033478E+02 -0.88986222750E+01  0.16019755013E+02  0.00000000000E+00 0.  1.
<mgrwt>
<rscale>  0 0.81188261E+02</rscale>
<asrwt>0</asrwt>
<pdfrwt beam="1">  1        2 0.33463477E-02 0.81188261E+02</pdfrwt>
<pdfrwt beam="2">  1       -1 0.11655441E-01 0.81188261E+02</pdfrwt>
<totfact> 0.12105481E+05</totfact>
</mgrwt>
</event>
<event>
 8    1  0.1226832E-020  0.7982735E+02  0.7818608E-02  0.1329542E+00
         -1   -1    0    0    0  501 -0.00000000000E+00  0.00000000000E+00  0.10523527608E+03  0.10523527620E+03  0.50400000000E-02 0.  1.
          2   -1    0    0  501    0  0.00000000000E+00 -0.00000000000E+00 -0.15138472189E+02  0.15138472404E+02  0.25500000000E-02 0. -1.
         24    2    1    2    0    0  0.00000000000E+00  0.00000000000E+00  0.90096803890E+02  0.12037374860E+03  0.79827346704E+02 0.  0.
         66    2    3    3    0    0  0.12067911462E+02  0.33842640762E+02  0.18952565470E+02  0.40671348106E+02  0.19999995185E+01 0.  0.
        -13    1    3    3    0    0 -0.12067911462E+02 -0.33842640762E+02  0.71144238420E+02  0.79702400498E+02  0.10566000000E+00 0.  1.
         13    1    4    4    0    0  0.21261550634E+01  0.79327051843E+01  0.47391278271E+01  0.94825546923E+01  0.10566000000E+00 0.  1.
        -13    1    4    4    0    0  0.75622476974E+01  0.19166735301E+02  0.10262005812E+02  0.23018932635E+02  0.10566000000E+00 0. -1.
         14    1    4    4    0    0  0.23795087012E+01  0.67432002763E+01  0.39514318312E+01  0.81698607786E+01  0.00000000000E+00 0. -1.
<mgrwt>
<rscale>  0 0.79827347E+02</rscale>
<asrwt>0</asrwt>
<pdfrwt beam="1">  1        2 0.23289957E-02 0.79827347E+02</pdfrwt>
<pdfrwt beam="2">  1       -1 0.16190043E-01 0.79827347E+02</pdfrwt>
<totfact> 0.11786472E+05</totfact>
</mgrwt>
</event>
<event>
 8    1  0.1226832E-020  0.8011125E+02  0.7818608E-02  0.1328736E+00
          2   -1    0    0  501    0  0.00000000000E+00  0.00000000000E+00  0.35786937144E+03  0.35786937145E+03  0.25500000000E-02 0. -1.
         -1   -1    0    0    0  501 -0.00000000000E+00 -0.00000000000E+00 -0.44833475333E+01  0.44833503662E+01  0.50400000000E-02 0.  1.
         24    2    1    2    0    0  0.00000000000E+00  0.00000000000E+00  0.35338602391E+03  0.36235272181E+03  0.80111254605E+02 0.  0.
         66    2    3    3    0    0  0.19629526056E+02  0.32044301307E+02  0.23919773908E+03  0.24213986437E+03  0.19999992053E+01 0.  0.
        -13    1    3    3    0    0 -0.19629526056E+02 -0.32044301307E+02  0.11418828483E+03  0.12021285745E+03  0.10566000000E+00 0.  1.
         13    1    4    4    0    0  0.98885002579E+01  0.15815563080E+02  0.12076873148E+03  0.12220070433E+03  0.10566000000E+00 0. -1.
        -13    1    4    4    0    0  0.77758614939E+01  0.12412365383E+02  0.88509573389E+02  0.89713357879E+02  0.10566000000E+00 0.  1.
         14    1    4    4    0    0  0.19651643040E+01  0.38163728435E+01  0.29919434209E+02  0.30225802154E+02  0.00000000000E+00 0. -1.
<mgrwt>
<rscale>  0 0.80111255E+02</rscale>
<asrwt>0</asrwt>
<pdfrwt beam="1">  1        2 0.55056844E-01 0.80111255E+02</pdfrwt>
<pdfrwt beam="2">  1       -1 0.68974577E-03 0.80111255E+02</pdfrwt>
<totfact> 0.27065458E+05</totfact>
</mgrwt>
</event>
<event>
 8    1  0.1226832E-020  0.7991349E+02  0.7818608E-02  0.1329297E+00
         -1   -1    0    0    0  501 -0.00000000000E+00  0.00000000000E+00  0.23564763497E+01  0.23564817394E+01  0.50400000000E-02 0.  1.
          2   -1    0    0  501    0  0.00000000000E+00 -0.00000000000E+00 -0.67751147643E+03  0.67751147644E+03  0.25500000000E-02 0. -1.
         24    2    1    2    0    0  0.88817841970E-15  0.35527136788E-14 -0.67515500008E+03  0.67986795818E+03  0.79913493344E+02 0.  0.
         66    2    3    3    0    0  0.77464170489E+01  0.28850750123E+02 -0.56322457714E+03  0.56401976655E+03  0.20000002451E+01 0.  0.
        -13    1    3    3    0    0 -0.77464170489E+01 -0.28850750123E+02 -0.11193042294E+03  0.11584819163E+03  0.10566000000E+00 0.  1.
         13    1    4    4    0    0  0.15582065704E+01  0.41754731796E+01 -0.89622565099E+02  0.89733371290E+02  0.10566000000E+00 0. -1.
        -13    1    4    4    0    0  0.13357269621E+01  0.40245424460E+01 -0.85182115883E+02  0.85287661117E+02  0.10566000000E+00 0.  1.
        -14    1    4    4    0    0  0.48524835164E+01  0.20650734498E+02 -0.38841989616E+03  0.38899873414E+03  0.00000000000E+00 0.  1.
<mgrwt>
<rscale>  0 0.79913493E+02</rscale>
<asrwt>0</asrwt>
<pdfrwt beam="1">  1        2 0.10423238E+00 0.79913493E+02</pdfrwt>
<pdfrwt beam="2">  1       -1 0.36253578E-03 0.79913493E+02</pdfrwt>
<totfact> 0.33289760E+05</totfact>
</mgrwt>
</event>
<event>
 8    1  0.1226832E-020  0.7803361E+02  0.7818608E-02  0.1334726E+00
         -1   -1    0    0    0  501 -0.00000000000E+00  0.00000000000E+00  0.13140666960E+03  0.13140666969E+03  0.50400000000E-02 0.  1.
          2   -1    0    0  501    0  0.00000000000E+00 -0.00000000000E+00 -0.11584732254E+02  0.11584732535E+02  0.25500000000E-02 0. -1.
         24    2    1    2    0    0 -0.35527136788E-14  0.00000000000E+00  0.11982193734E+03  0.14299140223E+03  0.78033610981E+02 0.  0.
         66    2    3    3    0    0 -0.28081454162E+02 -0.40188616563E+01  0.10931783649E+02  0.30466755806E+02  0.19999996914E+01 0.  0.
        -13    1    3    3    0    0  0.28081454162E+02  0.40188616563E+01  0.10889015369E+03  0.11252464642E+03  0.10566000000E+00 0.  1.
         13    1    4    4    0    0 -0.50802906559E+01 -0.82909660125E+00  0.26996255487E+01  0.58134238158E+01  0.10566000000E+00 0. -1.
        -13    1    4    4    0    0 -0.60734545377E+01 -0.72151096129E+00  0.25544949938E+01  0.66290298534E+01  0.10566000000E+00 0.  1.
        -14    1    4    4    0    0 -0.16927708968E+02 -0.24682540937E+01  0.56776631063E+01  0.18024302137E+02  0.00000000000E+00 0.  1.
<mgrwt>
<rscale>  0 0.78033611E+02</rscale>
<asrwt>0</asrwt>
<pdfrwt beam="1">  1        2 0.17822665E-02 0.78033611E+02</pdfrwt>
<pdfrwt beam="2">  1       -1 0.20216411E-01 0.78033611E+02</pdfrwt>
<totfact> 0.11865560E+05</totfact>
</mgrwt>
</event>
<event>
 8    1  0.1226832E-020  0.7779501E+02  0.7818608E-02  0.1335428E+00
          2   -1    0    0  501    0  0.00000000000E+00  0.00000000000E+00  0.17450809003E+04  0.17450809003E+04  0.25500000000E-02 0. -1.
         -1   -1    0    0    0  501 -0.00000000000E+00 -0.00000000000E+00 -0.86701026560E+00  0.86702491444E+00  0.50400000000E-02 0.  1.
         24    2    1    2    0    0  0.00000000000E+00 -0.44408920985E-15  0.17442138900E+04  0.17459479252E+04  0.77795008696E+02 0.  0.
         66    2    3    3    0    0 -0.19300782850E+02 -0.35647508809E+01  0.16257024905E+04  0.16258221967E+04  0.20000005915E+01 0.  0.
        -13    1    3    3    0    0  0.19300782850E+02  0.35647508809E+01  0.11851139950E+03  0.12012572849E+03  0.10566000000E+00 0.  1.
         13    1    4    4    0    0 -0.38837274638E+01 -0.57217491929E+00  0.31201327111E+03  0.31203798365E+03  0.10566000000E+00 0. -1.
        -13    1    4    4    0    0 -0.13385249748E+02 -0.19899271544E+01  0.11245318715E+04  0.11246132961E+04  0.10566000000E+00 0.  1.
         14    1    4    4    0    0 -0.20318056377E+01 -0.10026488072E+01  0.18915734791E+03  0.18917091692E+03  0.00000000000E+00 0. -1.
<mgrwt>
<rscale>  0 0.77795009E+02</rscale>
<asrwt>0</asrwt>
<pdfrwt beam="1">  1        2 0.26847141E+00 0.77795009E+02</pdfrwt>
<pdfrwt beam="2">  1       -1 0.13338860E-03 0.77795009E+02</pdfrwt>
<totfact> 0.33166672E+05</totfact>
</mgrwt>
</event>
<event>
 8    1  0.1226832E-020  0.7845851E+02  0.7818608E-02  0.1333484E+00
          2   -1    0    0  501    0  0.00000000000E+00  0.00000000000E+00  0.28763132971E+02  0.28763133084E+02  0.25500000000E-02 0. -1.
         -1   -1    0    0    0  501 -0.00000000000E+00 -0.00000000000E+00 -0.53503711375E+02  0.53503711612E+02  0.50400000000E-02 0.  1.
         24    2    1    2    0    0  0.00000000000E+00  0.00000000000E+00 -0.24740578403E+02  0.82266844696E+02  0.78458508248E+02 0.  0.
         66    2    3    3    0    0  0.21388692964E+02 -0.20300382240E+02  0.14708693950E+02  0.33014048237E+02  0.19999993793E+01 0.  0.
        -13    1    3    3    0    0 -0.21388692964E+02  0.20300382240E+02 -0.39449272353E+02  0.49252796459E+02  0.10566000000E+00 0.  1.
         13    1    4    4    0    0  0.47339941666E+01 -0.41676708575E+01  0.31700742691E+01  0.70597957515E+01  0.10566000000E+00 0. -1.
        -13    1    4    4    0    0  0.51060581975E+01 -0.46094983507E+01  0.42437407044E+01  0.80833040623E+01  0.10566000000E+00 0.  1.
        -14    1    4    4    0    0  0.11548640600E+02 -0.11523213032E+02  0.72948789761E+01  0.17870948424E+02  0.00000000000E+00 0.  1.
<mgrwt>
<rscale>  0 0.78458508E+02</rscale>
<asrwt>0</asrwt>
<pdfrwt beam="1">  1        2 0.44250974E-02 0.78458508E+02</pdfrwt>
<pdfrwt beam="2">  1       -1 0.82313403E-02 0.78458508E+02</pdfrwt>
<totfact> 0.14092321E+05</totfact>
</mgrwt>
</event>
<event>
 8    1  0.1226832E-020  0.7360546E+02  0.7818608E-02  0.1348245E+00
          2   -1    0    0  501    0  0.00000000000E+00  0.00000000000E+00  0.50084634293E+03  0.50084634294E+03  0.25500000000E-02 0. -1.
         -1   -1    0    0    0  501 -0.00000000000E+00 -0.00000000000E+00 -0.27043019648E+01  0.27043066613E+01  0.50400000000E-02 0.  1.
         24    2    1    2    0    0  0.00000000000E+00  0.00000000000E+00  0.49814204096E+03  0.50355064960E+03  0.73605459943E+02 0.  0.
         66    2    3    3    0    0  0.66961334978E+01  0.31909189712E+02  0.36563578239E+03  0.36709203200E+03  0.19999999375E+01 0.  0.
        -13    1    3    3    0    0 -0.66961334978E+01 -0.31909189712E+02  0.13250625857E+03  0.13645861760E+03  0.10566000000E+00 0.  1.
         13    1    4    4    0    0  0.27716213304E+01  0.16113138781E+02  0.17604457230E+03  0.17680219944E+03  0.10566000000E+00 0. -1.
        -13    1    4    4    0    0  0.29439486493E+01  0.10564671868E+02  0.12680198664E+03  0.12727542616E+03  0.10566000000E+00 0.  1.
         14    1    4    4    0    0  0.98056351820E+00  0.52313790631E+01  0.62789223452E+02  0.63014406395E+02  0.00000000000E+00 0. -1.
<mgrwt>
<rscale>  0 0.73605460E+02</rscale>
<asrwt>0</asrwt>
<pdfrwt beam="1">  1        2 0.77053235E-01 0.73605460E+02</pdfrwt>
<pdfrwt beam="2">  1       -1 0.41604708E-03 0.73605460E+02</pdfrwt>
<totfact> 0.37819744E+05</totfact>
</mgrwt>
</event>
<event>
 8    1  0.1226832E-020  0.8150228E+02  0.7818608E-02  0.1324841E+00
          2   -1    0    0  501    0  0.00000000000E+00  0.00000000000E+00  0.18246726170E+03  0.18246726172E+03  0.25500000000E-02 0. -1.
         -1   -1    0    0    0  501 -0.00000000000E+00 -0.00000000000E+00 -0.91011139114E+01  0.91011153070E+01  0.50400000000E-02 0.  1.
         24    2    1    2    0    0  0.00000000000E+00 -0.35527136788E-14  0.17336614779E+03  0.19156837702E+03  0.81502281421E+02 0.  0.
         66    2    3    3    0    0  0.92434041261E+01 -0.21767918535E+02  0.16466886993E+03  0.16637042863E+03  0.20000002241E+01 0.  0.
        -13    1    3    3    0    0 -0.92434041261E+01  0.21767918535E+02  0.86972778581E+01  0.25197948396E+02  0.10566000000E+00 0.  1.
         13    1    4    4    0    0  0.70083911784E+01 -0.15149287642E+02  0.11474191482E+03  0.11594971601E+03  0.10566000000E+00 0. -1.
        -13    1    4    4    0    0  0.37431116555E+00 -0.10466586242E+01  0.10370095105E+02  0.10430035458E+02  0.10566000000E+00 0.  1.
        -14    1    4    4    0    0  0.18607017822E+01 -0.55719722689E+01  0.39556860007E+02  0.39990677160E+02  0.00000000000E+00 0.  1.
<mgrwt>
<rscale>  0 0.81502281E+02</rscale>
<asrwt>0</asrwt>
<pdfrwt beam="1">  1        2 0.28071884E-01 0.81502281E+02</pdfrwt>
<pdfrwt beam="2">  1       -1 0.14001716E-02 0.81502281E+02</pdfrwt>
<totfact> 0.20346608E+05</totfact>
</mgrwt>
</event>
<event>
 8    1  0.1226832E-020  0.8972563E+02  0.7818608E-02  0.1303517E+00
          2   -1    0    0  501    0  0.00000000000E+00  0.00000000000E+00  0.46847976748E+03  0.46847976749E+03  0.25500000000E-02 0. -1.
         -1   -1    0    0    0  501 -0.00000000000E+00 -0.00000000000E+00 -0.42961756015E+01  0.42961785578E+01  0.50400000000E-02 0.  1.
         24    2    1    2    0    0 -0.17763568394E-14 -0.71054273576E-14  0.46418359188E+03  0.47277594605E+03  0.89725627272E+02 0.  0.
         66    2    3    3    0    0 -0.92444629925E+01 -0.41116529214E+02  0.31291875787E+03  0.31575018306E+03  0.20000005542E+01 0.  0.
        -13    1    3    3    0    0  0.92444629925E+01  0.41116529214E+02  0.15126483401E+03  0.15702576299E+03  0.10566000000E+00 0.  1.
         13    1    4    4    0    0 -0.29646230190E+01 -0.17547715521E+02  0.13283807612E+03  0.13402491165E+03  0.10566000000E+00 0. -1.
        -13    1    4    4    0    0 -0.52362977167E+01 -0.19697570574E+02  0.15126448394E+03  0.15263147895E+03  0.10566000000E+00 0.  1.
         14    1    4    4    0    0 -0.10435422568E+01 -0.38712431189E+01  0.28816197802E+02  0.29093792456E+02  0.00000000000E+00 0. -1.
<mgrwt>
<rscale>  0 0.89725627E+02</rscale>
<asrwt>0</asrwt>
<pdfrwt beam="1">  1        2 0.72073771E-01 0.89725627E+02</pdfrwt>
<pdfrwt beam="2">  1       -1 0.66095069E-03 0.89725627E+02</pdfrwt>
<totfact> 0.22068315E+05</totfact>
</mgrwt>
</event>
<event>
 8    1  0.1226832E-020  0.7880359E+02  0.7818608E-02  0.1332481E+00
         -1   -1    0    0    0  501 -0.00000000000E+00  0.00000000000E+00  0.35696680706E+01  0.35696716286E+01  0.50400000000E-02 0.  1.
          2   -1    0    0  501    0  0.00000000000E+00 -0.00000000000E+00 -0.43491461816E+03  0.43491461817E+03  0.25500000000E-02 0. -1.
         24    2    1    2    0    0 -0.17763568394E-14  0.00000000000E+00 -0.43134495009E+03  0.43848428980E+03  0.78803594020E+02 0.  0.
         66    2    3    3    0    0 -0.11905879445E+02  0.17973365799E+02 -0.39915382207E+03  0.39974062282E+03  0.20000043209E+01 0.  0.
        -13    1    3    3    0    0  0.11905879445E+02 -0.17973365799E+02 -0.32191128025E+02  0.38743666980E+02  0.10566000000E+00 0.  1.
         13    1    4    4    0    0 -0.48952497970E+01  0.72350094293E+01 -0.17135143960E+03  0.17157399526E+03  0.10566000000E+00 0. -1.
        -13    1    4    4    0    0 -0.16770731634E+01  0.33770979134E+01 -0.73448057065E+02  0.73544854445E+02  0.10566000000E+00 0.  1.
        -14    1    4    4    0    0 -0.53335564849E+01  0.73612584560E+01 -0.15435432540E+03  0.15462177312E+03  0.00000000000E+00 0.  1.
<mgrwt>
<rscale>  0 0.78803594E+02</rscale>
<asrwt>0</asrwt>
<pdfrwt beam="1">  1        2 0.66909899E-01 0.78803594E+02</pdfrwt>
<pdfrwt beam="2">  1       -1 0.54918032E-03 0.78803594E+02</pdfrwt>
<totfact> 0.30246961E+05</totfact>
</mgrwt>
</event>
<event>
 8    1  0.1226832E-020  0.7937175E+02  0.7818608E-02  0.1330844E+00
          2   -1    0    0  501    0  0.00000000000E+00  0.00000000000E+00  0.68622017672E+01  0.68622022409E+01  0.25500000000E-02 0. -1.
         -1   -1    0    0    0  501 -0.00000000000E+00 -0.00000000000E+00 -0.22951361894E+03  0.22951361900E+03  0.50400000000E-02 0.  1.
         24    2    1    2    0    0  0.00000000000E+00  0.00000000000E+00 -0.22265141718E+03  0.23637582124E+03  0.79371753768E+02 0.  0.
         66    2    3    3    0    0 -0.34002686631E+02 -0.17987600104E+02 -0.14015089937E+03  0.14534789664E+03  0.20000015297E+01 0.  0.
        -13    1    3    3    0    0  0.34002686631E+02  0.17987600104E+02 -0.82500517804E+02  0.91027924604E+02  0.10566000000E+00 0.  1.
         13    1    4    4    0    0 -0.16026085746E+02 -0.83525897460E+01 -0.64658181631E+02  0.67136374609E+02  0.10566000000E+00 0. -1.
        -13    1    4    4    0    0 -0.15384348364E+02 -0.84223988886E+01 -0.66521942738E+02  0.68795312393E+02  0.10566000000E+00 0.  1.
         14    1    4    4    0    0 -0.25922525211E+01 -0.12126114699E+01 -0.89707750044E+01  0.94162096350E+01  0.00000000000E+00 0. -1.
<mgrwt>
<rscale>  0 0.79371754E+02</rscale>
<asrwt>0</asrwt>
<pdfrwt beam="1">  1        2 0.10557236E-02 0.79371754E+02</pdfrwt>
<pdfrwt beam="2">  1       -1 0.35309782E-01 0.79371754E+02</pdfrwt>
<totfact> 0.97292562E+04</totfact>
</mgrwt>
</event>
<event>
 8    1  0.1226832E-020  0.7941373E+02  0.7818608E-02  0.1330723E+00
          2   -1    0    0  501    0  0.00000000000E+00  0.00000000000E+00  0.64695386519E+03  0.64695386520E+03  0.25500000000E-02 0. -1.
         -1   -1    0    0    0  501 -0.00000000000E+00 -0.00000000000E+00 -0.24370103875E+01  0.24370155991E+01  0.50400000000E-02 0.  1.
         24    2    1    2    0    0  0.00000000000E+00  0.00000000000E+00  0.64451685481E+03  0.64939088080E+03  0.79413726358E+02 0.  0.
         66    2    3    3    0    0 -0.22726353261E+02  0.15890344589E+02  0.55456542737E+03  0.55526192327E+03  0.20000035726E+01 0.  0.
        -13    1    3    3    0    0  0.22726353261E+02 -0.15890344589E+02  0.89951427440E+02  0.94128957533E+02  0.10566000000E+00 0.  1.
         13    1    4    4    0    0 -0.12283764901E+02  0.80630720188E+01  0.29122086482E+03  0.29159133609E+03  0.10566000000E+00 0. -1.
        -13    1    4    4    0    0 -0.99937029772E+01  0.72885198407E+01  0.24403345492E+03  0.24434675137E+03  0.10566000000E+00 0.  1.
         14    1    4    4    0    0 -0.44888538296E+00  0.53875272948E+00  0.19311107626E+02  0.19323835808E+02  0.00000000000E+00 0. -1.
<mgrwt>
<rscale>  0 0.79413726E+02</rscale>
<asrwt>0</asrwt>
<pdfrwt beam="1">  1        2 0.99531320E-01 0.79413726E+02</pdfrwt>
<pdfrwt beam="2">  1       -1 0.37492524E-03 0.79413726E+02</pdfrwt>
<totfact> 0.33451590E+05</totfact>
</mgrwt>
</event>
<event>
 8    1  0.1226832E-020  0.7889025E+02  0.7818608E-02  0.1332231E+00
          2   -1    0    0  501    0  0.00000000000E+00  0.00000000000E+00  0.23354032498E+02  0.23354032637E+02  0.25500000000E-02 0. -1.
         -1   -1    0    0    0  501 -0.00000000000E+00 -0.00000000000E+00 -0.66623086932E+02  0.66623087123E+02  0.50400000000E-02 0.  1.
         24    2    1    2    0    0  0.00000000000E+00  0.00000000000E+00 -0.43269054434E+02  0.89977119760E+02  0.78890246601E+02 0.  0.
         66    2    3    3    0    0  0.13863939360E+02  0.36721344916E+02 -0.25799508158E+02  0.47013621321E+02  0.19999953943E+01 0.  0.
        -13    1    3    3    0    0 -0.13863939360E+02 -0.36721344916E+02 -0.17469546276E+02  0.42963498439E+02  0.10566000000E+00 0.  1.
         13    1    4    4    0    0  0.11401798536E+02  0.30235053835E+02 -0.21967271644E+02  0.39073413951E+02  0.10566000000E+00 0.  1.
        -13    1    4    4    0    0  0.22946368181E+01  0.56902784318E+01 -0.32918332135E+01  0.69636166393E+01  0.10566000000E+00 0. -1.
        -14    1    4    4    0    0  0.16750400541E+00  0.79601264930E+00 -0.54040330056E+00  0.97659073154E+00  0.00000000000E+00 0.  1.
<mgrwt>
<rscale>  0 0.78890247E+02</rscale>
<asrwt>0</asrwt>
<pdfrwt beam="1">  1        2 0.35929281E-02 0.78890247E+02</pdfrwt>
<pdfrwt beam="2">  1       -1 0.10249706E-01 0.78890247E+02</pdfrwt>
<totfact> 0.13324955E+05</totfact>
</mgrwt>
</event>
<event>
 8    1  0.1226832E-020  0.7902020E+02  0.7818608E-02  0.1331855E+00
          2   -1    0    0  501    0  0.00000000000E+00  0.00000000000E+00  0.60375260883E+03  0.60375260884E+03  0.25500000000E-02 0. -1.
         -1   -1    0    0    0  501 -0.00000000000E+00 -0.00000000000E+00 -0.25855731752E+01  0.25855780874E+01  0.50400000000E-02 0.  1.
         24    2    1    2    0    0  0.35527136788E-14  0.00000000000E+00  0.60116703566E+03  0.60633818693E+03  0.79020200980E+02 0.  0.
         66    2    3    3    0    0  0.16828106012E+02  0.32540913375E+02  0.41379506753E+03  0.41541840849E+03  0.20000005043E+01 0.  0.
        -13    1    3    3    0    0 -0.16828106012E+02 -0.32540913375E+02  0.18737196813E+03  0.19091977844E+03  0.10566000000E+00 0.  1.
         13    1    4    4    0    0  0.24843953621E+01  0.52516775234E+01  0.64736100282E+02  0.64996355135E+02  0.10566000000E+00 0. -1.
        -13    1    4    4    0    0  0.36091336530E+01  0.84400722307E+01  0.10712340266E+03  0.10751602312E+03  0.10566000000E+00 0.  1.
        -14    1    4    4    0    0  0.10734576997E+02  0.18849163621E+02  0.24193556459E+03  0.24290603023E+03  0.00000000000E+00 0.  1.
<mgrwt>
<rscale>  0 0.79020201E+02</rscale>
<asrwt>0</asrwt>
<pdfrwt beam="1">  1        2 0.92885152E-01 0.79020201E+02</pdfrwt>
<pdfrwt beam="2">  1       -1 0.39778029E-03 0.79020201E+02</pdfrwt>
<totfact> 0.33268429E+05</totfact>
</mgrwt>
</event>
<event>
 8    1  0.1226832E-020  0.7801992E+02  0.7818608E-02  0.1334766E+00
         -1   -1    0    0    0  501 -0.00000000000E+00  0.00000000000E+00  0.16528770182E+02  0.16528770950E+02  0.50400000000E-02 0.  1.
          2   -1    0    0  501    0  0.00000000000E+00 -0.00000000000E+00 -0.92068367637E+02  0.92068367672E+02  0.25500000000E-02 0. -1.
         24    2    1    2    0    0  0.00000000000E+00  0.35527136788E-14 -0.75539597455E+02  0.10859713862E+03  0.78019918824E+02 0.  0.
         66    2    3    3    0    0  0.26762884377E+02 -0.19512266729E+02 -0.66414968635E+02  0.74242363871E+02  0.20000003128E+01 0.  0.
        -13    1    3    3    0    0 -0.26762884377E+02  0.19512266729E+02 -0.91246288194E+01  0.34354774751E+02  0.10566000000E+00 0.  1.
         13    1    4    4    0    0  0.15698812057E+02 -0.11362649401E+02 -0.39468222034E+02  0.43969469135E+02  0.10566000000E+00 0. -1.
        -13    1    4    4    0    0  0.47773338675E+01 -0.38745874984E+01 -0.13222963021E+02  0.14584007072E+02  0.10566000000E+00 0.  1.
        -14    1    4    4    0    0  0.62867384522E+01 -0.42750298293E+01 -0.13723783580E+02  0.15688887665E+02  0.00000000000E+00 0.  1.
<mgrwt>
<rscale>  0 0.78019919E+02</rscale>
<asrwt>0</asrwt>
<pdfrwt beam="1">  1        2 0.14164364E-01 0.78019919E+02</pdfrwt>
<pdfrwt beam="2">  1       -1 0.25428879E-02 0.78019919E+02</pdfrwt>
<totfact> 0.18530808E+05</totfact>
</mgrwt>
</event>
<event>
 8    1  0.1226832E-020  0.7963936E+02  0.7818608E-02  0.1330078E+00
         -1   -1    0    0    0  501 -0.00000000000E+00  0.00000000000E+00  0.41111477593E+02  0.41111477901E+02  0.50400000000E-02 0.  1.
          2   -1    0    0  501    0  0.00000000000E+00 -0.00000000000E+00 -0.38568470072E+02  0.38568470156E+02  0.25500000000E-02 0. -1.
         24    2    1    2    0    0  0.17763568394E-14  0.00000000000E+00  0.25430075209E+01  0.79679948057E+02  0.79639357325E+02 0.  0.
         66    2    3    3    0    0  0.13718441777E+02  0.33601753886E+02 -0.15055582581E+02  0.39343921399E+02  0.20000187862E+01 0.  0.
        -13    1    3    3    0    0 -0.13718441777E+02 -0.33601753886E+02  0.17598590102E+02  0.40336026659E+02  0.10566000000E+00 0.  1.
         13    1    4    4    0    0  0.70524025252E+01  0.18901695684E+02 -0.78757832106E+01  0.21657553101E+02  0.10566000000E+00 0. -1.
        -13    1    4    4    0    0  0.50478916921E+01  0.10323056844E+02 -0.53105685348E+01  0.12659384477E+02  0.10566000000E+00 0.  1.
        -14    1    4    4    0    0  0.16181475595E+01  0.43770013578E+01 -0.18692308354E+01  0.50269838199E+01  0.00000000000E+00 0.  1.
<mgrwt>
<rscale>  0 0.79639357E+02</rscale>
<asrwt>0</asrwt>
<pdfrwt beam="1">  1        2 0.59336108E-02 0.79639357E+02</pdfrwt>
<pdfrwt beam="2">  1       -1 0.63248428E-02 0.79639357E+02</pdfrwt>
<totfact> 0.14327302E+05</totfact>
</mgrwt>
</event>
<event>
 8    1  0.1226832E-020  0.8024078E+02  0.7818608E-02  0.1328370E+00
         -1   -1    0    0    0  501 -0.00000000000E+00  0.00000000000E+00  0.68782545042E+01  0.68782563507E+01  0.50400000000E-02 0.  1.
          2   -1    0    0  501    0  0.00000000000E+00 -0.00000000000E+00 -0.23401944187E+03  0.23401944188E+03  0.25500000000E-02 0. -1.
         24    2    1    2    0    0  0.00000000000E+00  0.00000000000E+00 -0.22714118736E+03  0.24089769823E+03  0.80240775275E+02 0.  0.
         66    2    3    3    0    0  0.67744519270E+01 -0.98289688995E+01 -0.22855600191E+03  0.22887627183E+03  0.19999921042E+01 0.  0.
        -13    1    3    3    0    0 -0.67744519270E+01  0.98289688995E+01  0.14148145468E+01  0.12021426404E+02  0.10566000000E+00 0.  1.
         13    1    4    4    0    0  0.32458955890E+01 -0.33896332257E+01 -0.94072276787E+02  0.94189329945E+02  0.10566000000E+00 0. -1.
        -13    1    4    4    0    0  0.27581433020E+01 -0.51385475635E+01 -0.11267550784E+03  0.11282638546E+03  0.10566000000E+00 0.  1.
        -14    1    4    4    0    0  0.77041303604E+00 -0.13007881104E+01 -0.21808217281E+02  0.21860556419E+02  0.00000000000E+00 0.  1.
<mgrwt>
<rscale>  0 0.80240775E+02</rscale>
<asrwt>0</asrwt>
<pdfrwt beam="1">  1        2 0.36002985E-01 0.80240775E+02</pdfrwt>
<pdfrwt beam="2">  1       -1 0.10581933E-02 0.80240775E+02</pdfrwt>
<totfact> 0.23128349E+05</totfact>
</mgrwt>
</event>
<event>
 8    1  0.1226832E-020  0.7931518E+02  0.7818608E-02  0.1331006E+00
         -1   -1    0    0    0  501 -0.00000000000E+00  0.00000000000E+00  0.16574811394E+02  0.16574812161E+02  0.50400000000E-02 0.  1.
          2   -1    0    0  501    0  0.00000000000E+00 -0.00000000000E+00 -0.94886404955E+02  0.94886404989E+02  0.25500000000E-02 0. -1.
         24    2    1    2    0    0  0.00000000000E+00  0.00000000000E+00 -0.78311593561E+02  0.11146121715E+03  0.79315176622E+02 0.  0.
         66    2    3    3    0    0 -0.32247607063E+02 -0.19756435238E+02 -0.55837635844E+02  0.67469003816E+02  0.20000011509E+01 0.  0.
        -13    1    3    3    0    0  0.32247607063E+02  0.19756435238E+02 -0.22473957716E+02  0.43992213334E+02  0.10566000000E+00 0.  1.
         13    1    4    4    0    0 -0.11944880802E+02 -0.81204637979E+01 -0.22188586504E+02  0.26475774677E+02  0.10566000000E+00 0. -1.
        -13    1    4    4    0    0 -0.16274382548E+02 -0.92884792447E+01 -0.26406785383E+02  0.32379945218E+02  0.10566000000E+00 0.  1.
         14    1    4    4    0    0 -0.40283437123E+01 -0.23474921950E+01 -0.72422639572E+01  0.86132839205E+01  0.00000000000E+00 0. -1.
<mgrwt>
<rscale>  0 0.79315177E+02</rscale>
<asrwt>0</asrwt>
<pdfrwt beam="1">  1        2 0.14597908E-01 0.79315177E+02</pdfrwt>
<pdfrwt beam="2">  1       -1 0.25499711E-02 0.79315177E+02</pdfrwt>
<totfact> 0.17877213E+05</totfact>
</mgrwt>
</event>
<event>
 8    1  0.1514079E-020  0.7989260E+02  0.7818608E-02  0.1329356E+00
          2   -1    0    0  501    0  0.00000000000E+00  0.00000000000E+00  0.12124114130E+03  0.12124114133E+03  0.25500000000E-02 0. -1.
         -1   -1    0    0    0  501 -0.00000000000E+00 -0.00000000000E+00 -0.13161431280E+02  0.13161432245E+02  0.50400000000E-02 0.  1.
         24    2    1    2    0    0  0.35527136788E-14 -0.35527136788E-14  0.10807971002E+03  0.13440257357E+03  0.79892603318E+02 0.  0.
         66    2    3    3    0    0 -0.24162176877E+02 -0.27420389834E+02  0.81095920340E+02  0.88973236800E+02  0.20000002341E+01 0.  0.
        -13    1    3    3    0    0  0.24162176877E+02  0.27420389834E+02  0.26983789682E+02  0.45429336773E+02  0.10566000000E+00 0.  1.
         13    1    4    4    0    0 -0.13676277352E+02 -0.15364301236E+02  0.45697964822E+02  0.50114044614E+02  0.10566000000E+00 0. -1.
        -13    1    4    4    0    0 -0.76965862997E+01 -0.96115998376E+01  0.27746814114E+02  0.30356500945E+02  0.10566000000E+00 0.  1.
        -14    1    4    4    0    0 -0.27893132247E+01 -0.24444887596E+01  0.76511414035E+01  0.85026912409E+01  0.00000000000E+00 0.  1.
<mgrwt>
<rscale>  0 0.79892603E+02</rscale>
<asrwt>0</asrwt>
<pdfrwt beam="1">  1        2 0.18652483E-01 0.79892603E+02</pdfrwt>
<pdfrwt beam="2">  1       -1 0.20248357E-02 0.79892603E+02</pdfrwt>
<totfact> 0.18811505E+05</totfact>
</mgrwt>
</event>
<event>
 8    1  0.1226832E-020  0.8038259E+02  0.7818608E-02  0.1327969E+00
         -1   -1    0    0    0  501 -0.00000000000E+00  0.00000000000E+00  0.34606470689E+01  0.34606507390E+01  0.50400000000E-02 0.  1.
          2   -1    0    0  501    0  0.00000000000E+00 -0.00000000000E+00 -0.46677377827E+03  0.46677377828E+03  0.25500000000E-02 0. -1.
         24    2    1    2    0    0  0.00000000000E+00  0.35527136788E-14 -0.46331313121E+03  0.47023442902E+03  0.80382589462E+02 0.  0.
         66    2    3    3    0    0  0.10382077232E+02 -0.19649980620E+02 -0.42752629387E+03  0.42810821204E+03  0.20000014569E+01 0.  0.
        -13    1    3    3    0    0 -0.10382077232E+02  0.19649980620E+02 -0.35786837339E+02  0.42126216977E+02  0.10566000000E+00 0.  1.
         13    1    4    4    0    0  0.21475855165E+01 -0.33928344199E+01 -0.69652676548E+02  0.69768402327E+02  0.10566000000E+00 0. -1.
        -13    1    4    4    0    0  0.42580964406E+01 -0.73882683917E+01 -0.17665625460E+03  0.17686198390E+03  0.10566000000E+00 0.  1.
        -14    1    4    4    0    0  0.39763952746E+01 -0.88688778086E+01 -0.18121736272E+03  0.18147782582E+03  0.00000000000E+00 0.  1.
<mgrwt>
<rscale>  0 0.80382589E+02</rscale>
<asrwt>0</asrwt>
<pdfrwt beam="1">  1        2 0.71811301E-01 0.80382589E+02</pdfrwt>
<pdfrwt beam="2">  1       -1 0.53240789E-03 0.80382589E+02</pdfrwt>
<totfact> 0.29410863E+05</totfact>
</mgrwt>
</event>
<event>
 8    1  0.1226832E-020  0.8056614E+02  0.7818608E-02  0.1327452E+00
         -1   -1    0    0    0  501 -0.00000000000E+00  0.00000000000E+00  0.56542525007E+02  0.56542525232E+02  0.50400000000E-02 0.  1.
          2   -1    0    0  501    0  0.00000000000E+00 -0.00000000000E+00 -0.28699210431E+02  0.28699210544E+02  0.25500000000E-02 0. -1.
         24    2    1    2    0    0  0.00000000000E+00  0.00000000000E+00  0.27843314577E+02  0.85241735776E+02  0.80566142712E+02 0.  0.
         66    2    3    3    0    0 -0.13903338684E+02 -0.37778501533E+02  0.14406760592E+02  0.42802718921E+02  0.19999978990E+01 0.  0.
        -13    1    3    3    0    0  0.13903338684E+02  0.37778501533E+02  0.13436553985E+02  0.42439016855E+02  0.10566000000E+00 0.  1.
         13    1    4    4    0    0 -0.42101489547E+01 -0.12637930725E+02  0.53476442240E+01  0.14354480486E+02  0.10566000000E+00 0.  1.
        -13    1    4    4    0    0 -0.41732730194E+01 -0.11284286734E+02  0.45937296025E+01  0.12878852840E+02  0.10566000000E+00 0. -1.
        -14    1    4    4    0    0 -0.55199167095E+01 -0.13856284075E+02  0.44653867655E+01  0.15569385595E+02  0.00000000000E+00 0.  1.
<mgrwt>
<rscale>  0 0.80566143E+02</rscale>
<asrwt>0</asrwt>
<pdfrwt beam="1">  1        2 0.44152632E-02 0.80566143E+02</pdfrwt>
<pdfrwt beam="2">  1       -1 0.86988499E-02 0.80566143E+02</pdfrwt>
<totfact> 0.13076337E+05</totfact>
</mgrwt>
</event>
<event>
 8    1  0.1226832E-020  0.7680204E+02  0.7818608E-02  0.1338380E+00
         -1   -1    0    0    0  501 -0.00000000000E+00  0.00000000000E+00  0.23106726596E+02  0.23106727146E+02  0.50400000000E-02 0.  1.
          2   -1    0    0  501    0  0.00000000000E+00 -0.00000000000E+00 -0.63818564571E+02  0.63818564622E+02  0.25500000000E-02 0. -1.
         24    2    1    2    0    0  0.00000000000E+00  0.17763568394E-14 -0.40711837975E+02  0.86925291769E+02  0.76802035115E+02 0.  0.
         66    2    3    3    0    0  0.21752095094E+01  0.15245107428E+02 -0.60152248065E+02  0.62124373531E+02  0.20000006239E+01 0.  0.
        -13    1    3    3    0    0 -0.21752095094E+01 -0.15245107428E+02  0.19440410090E+02  0.24800918237E+02  0.10566000000E+00 0.  1.
         13    1    4    4    0    0  0.32700982460E-01  0.29511153038E+01 -0.12636222311E+02  0.12976726444E+02  0.10566000000E+00 0. -1.
        -13    1    4    4    0    0  0.44239680063E+00  0.52379854954E+01 -0.17981752873E+02  0.18734641907E+02  0.10566000000E+00 0.  1.
         14    1    4    4    0    0  0.17001117263E+01  0.70560066290E+01 -0.29534272881E+02  0.30413005180E+02  0.00000000000E+00 0. -1.
<mgrwt>
<rscale>  0 0.76802035E+02</rscale>
<asrwt>0</asrwt>
<pdfrwt beam="1">  1        2 0.98182406E-02 0.76802035E+02</pdfrwt>
<pdfrwt beam="2">  1       -1 0.35548811E-02 0.76802035E+02</pdfrwt>
<totfact> 0.17636458E+05</totfact>
</mgrwt>
</event>
<event>
 8    1  0.1226832E-020  0.7985762E+02  0.7818608E-02  0.1329456E+00
          2   -1    0    0  501    0  0.00000000000E+00  0.00000000000E+00  0.63484081007E+02  0.63484081058E+02  0.25500000000E-02 0. -1.
         -1   -1    0    0    0  501 -0.00000000000E+00 -0.00000000000E+00 -0.25113540410E+02  0.25113540915E+02  0.50400000000E-02 0.  1.
         24    2    1    2    0    0  0.35527136788E-14  0.00000000000E+00  0.38370540597E+02  0.88597621973E+02  0.79857624768E+02 0.  0.
         66    2    3    3    0    0 -0.17309725631E+02  0.33470698514E+01  0.58912844948E+02  0.61526846031E+02  0.20000011766E+01 0.  0.
        -13    1    3    3    0    0  0.17309725631E+02 -0.33470698514E+01 -0.20542304351E+02  0.27070775942E+02  0.10566000000E+00 0.  1.
         13    1    4    4    0    0 -0.43316668772E+01  0.13750027381E+01  0.13349010360E+02  0.14101815915E+02  0.10566000000E+00 0. -1.
        -13    1    4    4    0    0 -0.61461083021E+01  0.51068946847E+00  0.21083298631E+02  0.21967068448E+02  0.10566000000E+00 0.  1.
         14    1    4    4    0    0 -0.68319504520E+01  0.14613776448E+01  0.24480535956E+02  0.25457961668E+02  0.00000000000E+00 0. -1.
<mgrwt>
<rscale>  0 0.79857625E+02</rscale>
<asrwt>0</asrwt>
<pdfrwt beam="1">  1        2 0.97667817E-02 0.79857625E+02</pdfrwt>
<pdfrwt beam="2">  1       -1 0.38636216E-02 0.79857625E+02</pdfrwt>
<totfact> 0.15848967E+05</totfact>
</mgrwt>
</event>
<event>
 8    1  0.1226832E-020  0.7430819E+02  0.7818608E-02  0.1346027E+00
         -1   -1    0    0    0  501 -0.00000000000E+00  0.00000000000E+00  0.74153530522E+02  0.74153530694E+02  0.50400000000E-02 0.  1.
          2   -1    0    0  501    0  0.00000000000E+00 -0.00000000000E+00 -0.18615791673E+02  0.18615791847E+02  0.25500000000E-02 0. -1.
         24    2    1    2    0    0  0.88817841970E-15 -0.35527136788E-14  0.55537738850E+02  0.92769322541E+02  0.74308187760E+02 0.  0.
         66    2    3    3    0    0  0.78597451460E+01 -0.29561872211E+02  0.15199590840E+01  0.30691858214E+02  0.20000006597E+01 0.  0.
        -13    1    3    3    0    0 -0.78597451460E+01  0.29561872211E+02  0.54017779766E+02  0.62077464327E+02  0.10566000000E+00 0.  1.
         13    1    4    4    0    0  0.26741735803E+01 -0.87268544114E+01  0.73240471154E+00  0.91573343803E+01  0.10566000000E+00 0. -1.
        -13    1    4    4    0    0  0.46604973702E+01 -0.16785913989E+02  0.96249724940E+00  0.17447770894E+02  0.10566000000E+00 0.  1.
        -14    1    4    4    0    0  0.52507419553E+00 -0.40491038111E+01 -0.17494287691E+00  0.40867529402E+01  0.00000000000E+00 0.  1.
<mgrwt>
<rscale>  0 0.74308188E+02</rscale>
<asrwt>0</asrwt>
<pdfrwt beam="1">  1        2 0.28639680E-02 0.74308188E+02</pdfrwt>
<pdfrwt beam="2">  1       -1 0.11408235E-01 0.74308188E+02</pdfrwt>
<totfact> 0.15115179E+05</totfact>
</mgrwt>
</event>
<event>
 8    1  0.1226832E-020  0.8072539E+02  0.7818608E-02  0.1327005E+00
         -1   -1    0    0    0  501 -0.00000000000E+00  0.00000000000E+00  0.60781999186E+01  0.60782020081E+01  0.50400000000E-02 0.  1.
          2   -1    0    0  501    0  0.00000000000E+00 -0.00000000000E+00 -0.26803112337E+03  0.26803112338E+03  0.25500000000E-02 0. -1.
         24    2    1    2    0    0 -0.17763568394E-14  0.35527136788E-14 -0.26195292345E+03  0.27410932539E+03  0.80725387340E+02 0.  0.
         66    2    3    3    0    0 -0.98248819983E+01  0.20788296908E+02 -0.24359636866E+03  0.24468729517E+03  0.19999994855E+01 0.  0.
        -13    1    3    3    0    0  0.98248819983E+01 -0.20788296908E+02 -0.18356554796E+02  0.29422030226E+02  0.10566000000E+00 0.  1.
         13    1    4    4    0    0 -0.48217248922E+01  0.11625481255E+02 -0.13884231157E+03  0.13941161893E+03  0.10566000000E+00 0. -1.
        -13    1    4    4    0    0 -0.28415677536E+01  0.51531851612E+01 -0.55337384184E+02  0.55649502037E+02  0.10566000000E+00 0.  1.
         14    1    4    4    0    0 -0.21615893525E+01  0.40096304922E+01 -0.49416672904E+02  0.49626174204E+02  0.00000000000E+00 0. -1.
<mgrwt>
<rscale>  0 0.80725387E+02</rscale>
<asrwt>0</asrwt>
<pdfrwt beam="1">  1        2 0.41235548E-01 0.80725387E+02</pdfrwt>
<pdfrwt beam="2">  1       -1 0.93510805E-03 0.80725387E+02</pdfrwt>
<totfact> 0.23901373E+05</totfact>
</mgrwt>
</event>
<event>
 8    1  0.1251077E-020  0.8037495E+02  0.7818608E-02  0.1327991E+00
         -1   -1    0    0    0  501 -0.00000000000E+00  0.00000000000E+00  0.20915923255E+01  0.20915983978E+01  0.50400000000E-02 0.  1.
          2   -1    0    0  501    0  0.00000000000E+00 -0.00000000000E+00 -0.77215371888E+03  0.77215371888E+03  0.25500000000E-02 0. -1.
         24    2    1    2    0    0  0.00000000000E+00  0.17763568394E-14 -0.77006212655E+03  0.77424531728E+03  0.80374949950E+02 0.  0.
         66    2    3    3    0    0 -0.34082042341E+02  0.11829158215E+02 -0.55528737588E+03  0.55646166481E+03  0.19999983253E+01 0.  0.
        -13    1    3    3    0    0  0.34082042341E+02 -0.11829158215E+02 -0.21477475067E+03  0.21778365247E+03  0.10566000000E+00 0.  1.
         13    1    4    4    0    0 -0.15078996041E+02  0.50333219518E+01 -0.24053854913E+03  0.24106330130E+03  0.10566000000E+00 0. -1.
        -13    1    4    4    0    0 -0.16825338953E+02  0.64693009280E+01 -0.27884919445E+03  0.27943125863E+03  0.10566000000E+00 0.  1.
        -14    1    4    4    0    0 -0.21777073468E+01  0.32653533503E+00 -0.35899632294E+02  0.35967104880E+02  0.00000000000E+00 0.  1.
<mgrwt>
<rscale>  0 0.80374950E+02</rscale>
<asrwt>0</asrwt>
<pdfrwt beam="1">  1        2 0.11879265E+00 0.80374950E+02</pdfrwt>
<pdfrwt beam="2">  1       -1 0.32178452E-03 0.80374950E+02</pdfrwt>
<totfact> 0.33733897E+05</totfact>
</mgrwt>
</event>
<event>
 8    1  0.1226832E-020  0.8026164E+02  0.7818608E-02  0.1328311E+00
          2   -1    0    0  501    0  0.00000000000E+00  0.00000000000E+00  0.98916338424E+03  0.98916338424E+03  0.25500000000E-02 0. -1.
         -1   -1    0    0    0  501 -0.00000000000E+00 -0.00000000000E+00 -0.16281220949E+01  0.16281298958E+01  0.50400000000E-02 0.  1.
         24    2    1    2    0    0  0.00000000000E+00  0.00000000000E+00  0.98753526214E+03  0.99079151414E+03  0.80261637848E+02 0.  0.
         66    2    3    3    0    0  0.17818451806E+02  0.52285011969E+01  0.93289345424E+03  0.93308039923E+03  0.20000006116E+01 0.  0.
        -13    1    3    3    0    0 -0.17818451806E+02 -0.52285011969E+01  0.54641807899E+02  0.57711114909E+02  0.10566000000E+00 0.  1.
         13    1    4    4    0    0  0.55121329032E+01  0.16928918669E+01  0.28147711940E+03  0.28153619554E+03  0.10566000000E+00 0. -1.
        -13    1    4    4    0    0  0.64165100160E+01  0.13895002023E+01  0.29859100238E+03  0.29866318852E+03  0.10566000000E+00 0.  1.
        -14    1    4    4    0    0  0.58898088872E+01  0.21461091277E+01  0.35282533247E+03  0.35288101517E+03  0.00000000000E+00 0.  1.
<mgrwt>
<rscale>  0 0.80261638E+02</rscale>
<asrwt>0</asrwt>
<pdfrwt beam="1">  1        2 0.15217945E+00 0.80261638E+02</pdfrwt>
<pdfrwt beam="2">  1       -1 0.25048015E-03 0.80261638E+02</pdfrwt>
<totfact> 0.34916358E+05</totfact>
</mgrwt>
</event>
<event>
 8    1  0.1226832E-020  0.7770231E+02  0.7818608E-02  0.1335701E+00
          2   -1    0    0  501    0  0.00000000000E+00  0.00000000000E+00  0.19881828730E+03  0.19881828732E+03  0.25500000000E-02 0. -1.
         -1   -1    0    0    0  501 -0.00000000000E+00 -0.00000000000E+00 -0.75919183971E+01  0.75919200700E+01  0.50400000000E-02 0.  1.
         24    2    1    2    0    0  0.00000000000E+00  0.00000000000E+00  0.19122636890E+03  0.20641020739E+03  0.77702313669E+02 0.  0.
         66    2    3    3    0    0  0.10517674257E+02 -0.34767638856E+02  0.13209912494E+03  0.13701674713E+03  0.20000003339E+01 0.  0.
        -13    1    3    3    0    0 -0.10517674257E+02  0.34767638856E+02  0.59127243963E+02  0.69393460255E+02  0.10566000000E+00 0.  1.
         13    1    4    4    0    0  0.30791606324E+01 -0.10579978262E+02  0.38208769486E+02  0.39766045817E+02  0.10566000000E+00 0. -1.
        -13    1    4    4    0    0  0.16699100685E+00 -0.29293090883E+00  0.17363761452E+01  0.17719651991E+01  0.10566000000E+00 0.  1.
         14    1    4    4    0    0  0.72715226175E+01 -0.23894729686E+02  0.92153979308E+02  0.95478736116E+02  0.00000000000E+00 0. -1.
<mgrwt>
<rscale>  0 0.77702314E+02</rscale>
<asrwt>0</asrwt>
<pdfrwt beam="1">  1        2 0.30587432E-01 0.77702314E+02</pdfrwt>
<pdfrwt beam="2">  1       -1 0.11679874E-02 0.77702314E+02</pdfrwt>
<totfact> 0.23770159E+05</totfact>
</mgrwt>
</event>
<event>
 8    1  0.1226832E-020  0.7929608E+02  0.7818608E-02  0.1331061E+00
          2   -1    0    0  501    0  0.00000000000E+00  0.00000000000E+00  0.12523359698E+03  0.12523359701E+03  0.25500000000E-02 0. -1.
         -1   -1    0    0    0  501 -0.00000000000E+00 -0.00000000000E+00 -0.12552279610E+02  0.12552280622E+02  0.50400000000E-02 0.  1.
         24    2    1    2    0    0 -0.88817841970E-15  0.17763568394E-14  0.11268131737E+03  0.13778587763E+03  0.79296083066E+02 0.  0.
         66    2    3    3    0    0 -0.29347955480E+01  0.13737350635E+02  0.12075335204E+03  0.12158412665E+03  0.19999993455E+01 0.  0.
        -13    1    3    3    0    0  0.29347955480E+01 -0.13737350635E+02 -0.80720346607E+01  0.16201750985E+02  0.10566000000E+00 0.  1.
         13    1    4    4    0    0  0.18277374806E+00  0.52101349448E+00  0.40220089540E+01  0.40611059290E+01  0.10566000000E+00 0. -1.
        -13    1    4    4    0    0 -0.31305904675E+00  0.27761428550E+01  0.26048557197E+02  0.26198157783E+02  0.10566000000E+00 0. -1.
         14    1    4    4    0    0 -0.28045102493E+01  0.10440194286E+02  0.90682785884E+02  0.91324862935E+02  0.00000000000E+00 0. -1.
<mgrwt>
<rscale>  0 0.79296083E+02</rscale>
<asrwt>0</asrwt>
<pdfrwt beam="1">  1        2 0.19266708E-01 0.79296083E+02</pdfrwt>
<pdfrwt beam="2">  1       -1 0.19311200E-02 0.79296083E+02</pdfrwt>
<totfact> 0.19379536E+05</totfact>
</mgrwt>
</event>
<event>
 8    1  0.1226832E-020  0.7168401E+02  0.7818608E-02  0.1354458E+00
         -1   -1    0    0    0  501 -0.00000000000E+00  0.00000000000E+00  0.26857446793E+02  0.26857447266E+02  0.50400000000E-02 0.  1.
          2   -1    0    0  501    0  0.00000000000E+00 -0.00000000000E+00 -0.47832141543E+02  0.47832141611E+02  0.25500000000E-02 0. -1.
         24    2    1    2    0    0  0.00000000000E+00  0.00000000000E+00 -0.20974694750E+02  0.74689588877E+02  0.71684007050E+02 0.  0.
         66    2    3    3    0    0 -0.22259616235E+02  0.85430122422E+01 -0.38339951502E+02  0.45193201315E+02  0.19999976915E+01 0.  0.
        -13    1    3    3    0    0  0.22259616235E+02 -0.85430122422E+01  0.17365256753E+02  0.29496387562E+02  0.10566000000E+00 0.  1.
         13    1    4    4    0    0 -0.46257142866E+01  0.21942069142E+01 -0.77390024305E+01  0.92798221588E+01  0.10566000000E+00 0. -1.
        -13    1    4    4    0    0 -0.15658211552E+02  0.61042426790E+01 -0.27272124526E+02  0.32034689133E+02  0.10566000000E+00 0.  1.
        -14    1    4    4    0    0 -0.19756903963E+01  0.24456264895E+00 -0.33288245462E+01  0.38786900225E+01  0.00000000000E+00 0.  1.
<mgrwt>
<rscale>  0 0.71684007E+02</rscale>
<asrwt>0</asrwt>
<pdfrwt beam="1">  1        2 0.73587910E-02 0.71684007E+02</pdfrwt>
<pdfrwt beam="2">  1       -1 0.41319150E-02 0.71684007E+02</pdfrwt>
<totfact> 0.19948723E+05</totfact>
</mgrwt>
</event>
<event>
 8    1  0.1226832E-020  0.8018800E+02  0.7818608E-02  0.1328519E+00
          2   -1    0    0  501    0  0.00000000000E+00  0.00000000000E+00  0.19798881386E+03  0.19798881388E+03  0.25500000000E-02 0. -1.
         -1   -1    0    0    0  501 -0.00000000000E+00 -0.00000000000E+00 -0.81192894471E+01  0.81192910114E+01  0.50400000000E-02 0.  1.
         24    2    1    2    0    0  0.00000000000E+00  0.00000000000E+00  0.18986952441E+03  0.20610810489E+03  0.80187995359E+02 0.  0.
         66    2    3    3    0    0  0.37009028585E+02  0.52300898453E+01  0.13210788387E+03  0.13730810257E+03  0.20000035341E+01 0.  0.
        -13    1    3    3    0    0 -0.37009028585E+02 -0.52300898453E+01  0.57761640539E+02  0.68800002314E+02  0.10566000000E+00 0.  1.
         13    1    4    4    0    0  0.18137853779E+02  0.25649290110E+01  0.68240836726E+02  0.70656801241E+02  0.10566000000E+00 0. -1.
        -13    1    4    4    0    0  0.39220744755E+01  0.41896469179E+00  0.13084613593E+02  0.13666619060E+02  0.10566000000E+00 0. -1.
         14    1    4    4    0    0  0.14949100331E+02  0.22461961426E+01  0.50782433555E+02  0.52984682273E+02  0.00000000000E+00 0. -1.
<mgrwt>
<rscale>  0 0.80187995E+02</rscale>
<asrwt>0</asrwt>
<pdfrwt beam="1">  1        2 0.30459817E-01 0.80187995E+02</pdfrwt>
<pdfrwt beam="2">  1       -1 0.12491216E-02 0.80187995E+02</pdfrwt>
<totfact> 0.21845589E+05</totfact>
</mgrwt>
</event>
<event>
 8    1  0.1226832E-020  0.7994773E+02  0.7818608E-02  0.1329200E+00
          2   -1    0    0  501    0  0.00000000000E+00  0.00000000000E+00  0.58061479181E+03  0.58061479182E+03  0.25500000000E-02 0. -1.
         -1   -1    0    0    0  501 -0.00000000000E+00 -0.00000000000E+00 -0.27520977879E+01  0.27521024028E+01  0.50400000000E-02 0.  1.
         24    2    1    2    0    0 -0.35527136788E-14  0.00000000000E+00  0.57786269402E+03  0.58336689422E+03  0.79947733723E+02 0.  0.
         66    2    3    3    0    0  0.25528618937E+02  0.25521789825E+02  0.41397805761E+03  0.41555373217E+03  0.19999992838E+01 0.  0.
        -13    1    3    3    0    0 -0.25528618937E+02 -0.25521789825E+02  0.16388463641E+03  0.16781316205E+03  0.10566000000E+00 0.  1.
         13    1    4    4    0    0  0.10116282947E+02  0.10134857375E+02  0.17384978851E+03  0.17443856983E+03  0.10566000000E+00 0. -1.
        -13    1    4    4    0    0  0.62803658627E+01  0.60314897968E+01  0.92227400181E+02  0.92637607766E+02  0.10566000000E+00 0.  1.
         14    1    4    4    0    0  0.91319701277E+01  0.93554426533E+01  0.14790086892E+03  0.14847755458E+03  0.00000000000E+00 0. -1.
<mgrwt>
<rscale>  0 0.79947734E+02</rscale>
<asrwt>0</asrwt>
<pdfrwt beam="1">  1        2 0.89325299E-01 0.79947734E+02</pdfrwt>
<pdfrwt beam="2">  1       -1 0.42340027E-03 0.79947734E+02</pdfrwt>
<totfact> 0.31920488E+05</totfact>
</mgrwt>
</event>
<event>
 8    1  0.1226832E-020  0.7712120E+02  0.7818608E-02  0.1337425E+00
         -1   -1    0    0    0  501 -0.00000000000E+00  0.00000000000E+00  0.31152300701E+02  0.31152301109E+02  0.50400000000E-02 0.  1.
          2   -1    0    0  501    0  0.00000000000E+00 -0.00000000000E+00 -0.47730659830E+02  0.47730659898E+02  0.25500000000E-02 0. -1.
         24    2    1    2    0    0  0.00000000000E+00  0.00000000000E+00 -0.16578359129E+02  0.78882961007E+02  0.77121200366E+02 0.  0.
         66    2    3    3    0    0 -0.12855416450E+02  0.15046565126E+02 -0.42114457044E+02  0.46575619505E+02  0.19999964949E+01 0.  0.
        -13    1    3    3    0    0  0.12855416450E+02 -0.15046565126E+02  0.25536097915E+02  0.32307341502E+02  0.10566000000E+00 0.  1.
         13    1    4    4    0    0 -0.21798751303E+01  0.27045441654E+01 -0.63084015932E+01  0.72023266673E+01  0.10566000000E+00 0.  1.
        -13    1    4    4    0    0 -0.66837829829E+01  0.67175460950E+01 -0.20384992514E+02  0.22480157124E+02  0.10566000000E+00 0. -1.
         14    1    4    4    0    0 -0.39917583364E+01  0.56244748653E+01 -0.15421062937E+02  0.16893135713E+02  0.00000000000E+00 0. -1.
<mgrwt>
<rscale>  0 0.77121200E+02</rscale>
<asrwt>0</asrwt>
<pdfrwt beam="1">  1        2 0.73431785E-02 0.77121200E+02</pdfrwt>
<pdfrwt beam="2">  1       -1 0.47926617E-02 0.77121200E+02</pdfrwt>
<totfact> 0.16354552E+05</totfact>
</mgrwt>
</event>
<event>
 8    1  0.1226832E-020  0.8128559E+02  0.7818608E-02  0.1325442E+00
          2   -1    0    0  501    0  0.00000000000E+00  0.00000000000E+00  0.10547049998E+02  0.10547050306E+02  0.25500000000E-02 0. -1.
         -1   -1    0    0    0  501 -0.00000000000E+00 -0.00000000000E+00 -0.15661598754E+03  0.15661598762E+03  0.50400000000E-02 0.  1.
         24    2    1    2    0    0  0.00000000000E+00  0.00000000000E+00 -0.14606893755E+03  0.16716303793E+03  0.81285587497E+02 0.  0.
         66    2    3    3    0    0 -0.11650668015E+02 -0.25908883822E+02 -0.13375719454E+02  0.31462965648E+02  0.20000025827E+01 0.  0.
        -13    1    3    3    0    0  0.11650668015E+02  0.25908883822E+02 -0.13269321809E+03  0.13570007228E+03  0.10566000000E+00 0.  1.
         13    1    4    4    0    0 -0.18461098013E+01 -0.46714439463E+01 -0.17965085482E+01  0.53356458786E+01  0.10566000000E+00 0. -1.
        -13    1    4    4    0    0 -0.24916522260E+01 -0.64920691131E+01 -0.37440736338E+01  0.78983886709E+01  0.10566000000E+00 0.  1.
         14    1    4    4    0    0 -0.73129059880E+01 -0.14745370763E+02 -0.78351372723E+01  0.18228931099E+02  0.00000000000E+00 0. -1.
<mgrwt>
<rscale>  0 0.81285587E+02</rscale>
<asrwt>0</asrwt>
<pdfrwt beam="1">  1        2 0.16226232E-02 0.81285587E+02</pdfrwt>
<pdfrwt beam="2">  1       -1 0.24094766E-01 0.81285587E+02</pdfrwt>
<totfact> 0.10246000E+05</totfact>
</mgrwt>
</event>
<event>
 8    1  0.1226832E-020  0.8086040E+02  0.7818608E-02  0.1326627E+00
          2   -1    0    0  501    0  0.00000000000E+00  0.00000000000E+00  0.11160263991E+04  0.11160263991E+04  0.25500000000E-02 0. -1.
         -1   -1    0    0    0  501 -0.00000000000E+00 -0.00000000000E+00 -0.14646571675E+01  0.14646658390E+01  0.50400000000E-02 0.  1.
         24    2    1    2    0    0 -0.35527136788E-14  0.00000000000E+00  0.11145617419E+04  0.11174910649E+04  0.80860396025E+02 0.  0.
         66    2    3    3    0    0  0.28614736941E+02  0.38530352624E+00  0.95182889798E+03  0.95226110007E+03  0.20000084468E+01 0.  0.
        -13    1    3    3    0    0 -0.28614736941E+02 -0.38530352624E+00  0.16273284394E+03  0.16522996486E+03  0.10566000000E+00 0.  1.
         13    1    4    4    0    0  0.83446517197E+01 -0.93379220261E-01  0.25529728216E+03  0.25543366140E+03  0.10566000000E+00 0. -1.
        -13    1    4    4    0    0  0.19812356992E+02  0.60637594844E+00  0.68246017620E+03  0.68274797725E+03  0.10566000000E+00 0.  1.
        -14    1    4    4    0    0  0.45772822906E+00 -0.12769320194E+00  0.14071439622E+02  0.14079461414E+02  0.00000000000E+00 0.  1.
<mgrwt>
<rscale>  0 0.80860396E+02</rscale>
<asrwt>0</asrwt>
<pdfrwt beam="1">  1        2 0.17169714E+00 0.80860396E+02</pdfrwt>
<pdfrwt beam="2">  1       -1 0.22533153E-03 0.80860396E+02</pdfrwt>
<totfact> 0.34267088E+05</totfact>
</mgrwt>
</event>
<event>
 8    1  0.1226832E-020  0.8087779E+02  0.7818608E-02  0.1326579E+00
          2   -1    0    0  501    0  0.00000000000E+00  0.00000000000E+00  0.31390204753E+02  0.31390204856E+02  0.25500000000E-02 0. -1.
         -1   -1    0    0    0  501 -0.00000000000E+00 -0.00000000000E+00 -0.52095999487E+02  0.52095999731E+02  0.50400000000E-02 0.  1.
         24    2    1    2    0    0  0.00000000000E+00  0.00000000000E+00 -0.20705794734E+02  0.83486204587E+02  0.80877786943E+02 0.  0.
         66    2    3    3    0    0  0.30878762812E+02  0.19981689712E+02  0.69300962634E+01  0.37480557631E+02  0.20000123794E+01 0.  0.
        -13    1    3    3    0    0 -0.30878762812E+02 -0.19981689712E+02 -0.27635890998E+02  0.46005646956E+02  0.10566000000E+00 0.  1.
         13    1    4    4    0    0  0.10595891381E+02  0.63344585657E+01  0.27941820857E+01  0.12657681345E+02  0.10566000000E+00 0. -1.
        -13    1    4    4    0    0  0.14228854372E+02  0.94189084401E+01  0.34226699894E+01  0.17404079029E+02  0.10566000000E+00 0.  1.
        -14    1    4    4    0    0  0.60540170596E+01  0.42283227067E+01  0.71324418836E+00  0.74187972571E+01  0.00000000000E+00 0.  1.
<mgrwt>
<rscale>  0 0.80877787E+02</rscale>
<asrwt>0</asrwt>
<pdfrwt beam="1">  1        2 0.48292623E-02 0.80877787E+02</pdfrwt>
<pdfrwt beam="2">  1       -1 0.80147692E-02 0.80877787E+02</pdfrwt>
<totfact> 0.13167882E+05</totfact>
</mgrwt>
</event>
<event>
 8    1  0.1226832E-020  0.7989295E+02  0.7818608E-02  0.1329355E+00
          2   -1    0    0  501    0  0.00000000000E+00  0.00000000000E+00  0.88736493298E+03  0.88736493298E+03  0.25500000000E-02 0. -1.
         -1   -1    0    0    0  501 -0.00000000000E+00 -0.00000000000E+00 -0.17982656233E+01  0.17982726861E+01  0.50400000000E-02 0.  1.
         24    2    1    2    0    0  0.35527136788E-14  0.17763568394E-14  0.88556666735E+03  0.88916320567E+03  0.79892953279E+02 0.  0.
         66    2    3    3    0    0  0.28024117102E+02  0.89974771442E+01  0.74322689554E+03  0.74381215635E+03  0.19999853452E+01 0.  0.
        -13    1    3    3    0    0 -0.28024117102E+02 -0.89974771442E+01  0.14233977181E+03  0.14535104932E+03  0.10566000000E+00 0.  1.
         13    1    4    4    0    0  0.21878395715E+01  0.59184850352E+00  0.54335842483E+02  0.54383194730E+02  0.10566000000E+00 0.  1.
        -13    1    4    4    0    0  0.19676618355E+02  0.68972966186E+01  0.51264837541E+03  0.51307222687E+03  0.10566000000E+00 0.  1.
         14    1    4    4    0    0  0.61596591754E+01  0.15083320221E+01  0.17624267765E+03  0.17635673475E+03  0.00000000000E+00 0. -1.
<mgrwt>
<rscale>  0 0.79892953E+02</rscale>
<asrwt>0</asrwt>
<pdfrwt beam="1">  1        2 0.13651801E+00 0.79892953E+02</pdfrwt>
<pdfrwt beam="2">  1       -1 0.27665613E-03 0.79892953E+02</pdfrwt>
<totfact> 0.35011747E+05</totfact>
</mgrwt>
</event>
<event>
 8    1  0.1226832E-020  0.7967769E+02  0.7818608E-02  0.1329969E+00
         -1   -1    0    0    0  501 -0.00000000000E+00  0.00000000000E+00  0.31834608671E+01  0.31834648567E+01  0.50400000000E-02 0.  1.
          2   -1    0    0  501    0  0.00000000000E+00 -0.00000000000E+00 -0.49855564701E+03  0.49855564702E+03  0.25500000000E-02 0. -1.
         24    2    1    2    0    0  0.00000000000E+00 -0.71054273576E-14 -0.49537218614E+03  0.50173911187E+03  0.79677685579E+02 0.  0.
         66    2    3    3    0    0  0.17703489746E+02  0.35559161419E+02 -0.26480998099E+03  0.26778012162E+03  0.19999986041E+01 0.  0.
        -13    1    3    3    0    0 -0.17703489746E+02 -0.35559161419E+02 -0.23056220515E+03  0.23395899025E+03  0.10566000000E+00 0.  1.
         13    1    4    4    0    0  0.74154919478E+01  0.16310673262E+02 -0.11458397729E+03  0.11597640535E+03  0.10566000000E+00 0. -1.
        -13    1    4    4    0    0  0.34981845899E+01  0.67576384974E+01 -0.53390011096E+02  0.53929652534E+02  0.10566000000E+00 0.  1.
         14    1    4    4    0    0  0.67898132078E+01  0.12490849659E+02 -0.96835992607E+02  0.97874063739E+02  0.00000000000E+00 0. -1.
<mgrwt>
<rscale>  0 0.79677686E+02</rscale>
<asrwt>0</asrwt>
<pdfrwt beam="1">  1        2 0.76700807E-01 0.79677686E+02</pdfrwt>
<pdfrwt beam="2">  1       -1 0.48976391E-03 0.79677686E+02</pdfrwt>
<totfact> 0.30744984E+05</totfact>
</mgrwt>
</event>
<event>
 8    1  0.1226832E-020  0.8401015E+02  0.7818608E-02  0.1318042E+00
          2   -1    0    0  501    0  0.00000000000E+00  0.00000000000E+00  0.16720707926E+04  0.16720707926E+04  0.25500000000E-02 0. -1.
         -1   -1    0    0    0  501 -0.00000000000E+00 -0.00000000000E+00 -0.10552282620E+01  0.10552402980E+01  0.50400000000E-02 0.  1.
         24    2    1    2    0    0  0.00000000000E+00  0.17763568394E-14  0.16710155644E+04  0.16731260329E+04  0.84010152408E+02 0.  0.
         66    2    3    3    0    0  0.11705304601E+02 -0.96680952941E+01  0.16154817134E+04  0.16155542865E+04  0.19999993126E+01 0.  0.
        -13    1    3    3    0    0 -0.11705304601E+02  0.96680952941E+01  0.55533850964E+02  0.57571746450E+02  0.10566000000E+00 0.  1.
         13    1    4    4    0    0  0.47589937075E+01 -0.43030094317E+01  0.67686574263E+03  0.67689615793E+03  0.10566000000E+00 0. -1.
        -13    1    4    4    0    0  0.53511313964E+01 -0.47172461642E+01  0.71820597409E+03  0.71824140747E+03  0.10566000000E+00 0.  1.
         14    1    4    4    0    0  0.15951794970E+01 -0.64783969830E+00  0.22040999668E+03  0.22041672107E+03  0.00000000000E+00 0. -1.
<mgrwt>
<rscale>  0 0.84010152E+02</rscale>
<asrwt>0</asrwt>
<pdfrwt beam="1">  1        2 0.25724156E+00 0.84010152E+02</pdfrwt>
<pdfrwt beam="2">  1       -1 0.16234380E-03 0.84010152E+02</pdfrwt>
<totfact> 0.27840683E+05</totfact>
</mgrwt>
</event>
<event>
 8    1  0.1226832E-020  0.8095450E+02  0.7818608E-02  0.1326364E+00
          2   -1    0    0  501    0  0.00000000000E+00  0.00000000000E+00  0.15970837621E+03  0.15970837623E+03  0.25500000000E-02 0. -1.
         -1   -1    0    0    0  501 -0.00000000000E+00 -0.00000000000E+00 -0.10258746704E+02  0.10258747942E+02  0.50400000000E-02 0.  1.
         24    2    1    2    0    0 -0.35527136788E-14 -0.17763568394E-14  0.14944962951E+03  0.16996712417E+03  0.80954502900E+02 0.  0.
         66    2    3    3    0    0 -0.20208871300E+02  0.15325506406E+02  0.14093519929E+03  0.14321312799E+03  0.20000008928E+01 0.  0.
        -13    1    3    3    0    0  0.20208871300E+02 -0.15325506406E+02  0.85144302163E+01  0.26753996183E+02  0.10566000000E+00 0.  1.
         13    1    4    4    0    0 -0.23635348373E+00  0.17001309018E+00  0.22360317878E+01  0.22573811401E+01  0.10566000000E+00 0.  1.
        -13    1    4    4    0    0 -0.31228156563E+01  0.20186062903E+01  0.18042603196E+02  0.18422091171E+02  0.10566000000E+00 0. -1.
         14    1    4    4    0    0 -0.16849702160E+02  0.13136887025E+02  0.12065656431E+03  0.12253365568E+03  0.00000000000E+00 0. -1.
<mgrwt>
<rscale>  0 0.80954503E+02</rscale>
<asrwt>0</asrwt>
<pdfrwt beam="1">  1        2 0.24570519E-01 0.80954503E+02</pdfrwt>
<pdfrwt beam="2">  1       -1 0.15782688E-02 0.80954503E+02</pdfrwt>
<totfact> 0.19809674E+05</totfact>
</mgrwt>
</event>
<event>
 8    1  0.1226832E-020  0.7903374E+02  0.7818608E-02  0.1331816E+00
          2   -1    0    0  501    0  0.00000000000E+00  0.00000000000E+00  0.21016670815E+03  0.21016670817E+03  0.25500000000E-02 0. -1.
         -1   -1    0    0    0  501 -0.00000000000E+00 -0.00000000000E+00 -0.74302100291E+01  0.74302117384E+01  0.50400000000E-02 0.  1.
         24    2    1    2    0    0  0.00000000000E+00  0.00000000000E+00  0.20273649813E+03  0.21759691991E+03  0.79033738881E+02 0.  0.
         66    2    3    3    0    0  0.38491714548E+02  0.22925109328E+01  0.77956215942E+02  0.86994478580E+02  0.20000010338E+01 0.  0.
        -13    1    3    3    0    0 -0.38491714548E+02 -0.22925109328E+01  0.12478028218E+03  0.13060244133E+03  0.10566000000E+00 0.  1.
         13    1    4    4    0    0  0.16949896165E+02  0.13272360791E+01  0.35556227603E+02  0.39412143065E+02  0.10566000000E+00 0. -1.
        -13    1    4    4    0    0  0.58105048180E+01  0.62148514016E+00  0.10714910813E+02  0.12205272950E+02  0.10566000000E+00 0.  1.
         14    1    4    4    0    0  0.15731313565E+02  0.34378971359E+00  0.31685077526E+02  0.35377062564E+02  0.00000000000E+00 0. -1.
<mgrwt>
<rscale>  0 0.79033739E+02</rscale>
<asrwt>0</asrwt>
<pdfrwt beam="1">  1        2 0.32333341E-01 0.79033739E+02</pdfrwt>
<pdfrwt beam="2">  1       -1 0.11431093E-02 0.79033739E+02</pdfrwt>
<totfact> 0.23173627E+05</totfact>
</mgrwt>
</event>
<event>
 8    1  0.1226832E-020  0.8003369E+02  0.7818608E-02  0.1328956E+00
          2   -1    0    0  501    0  0.00000000000E+00  0.00000000000E+00  0.12567328076E+02  0.12567328335E+02  0.25500000000E-02 0. -1.
         -1   -1    0    0    0  501 -0.00000000000E+00 -0.00000000000E+00 -0.12742151818E+03  0.12742151828E+03  0.50400000000E-02 0.  1.
         24    2    1    2    0    0  0.00000000000E+00  0.00000000000E+00 -0.11485419010E+03  0.13998884661E+03  0.80033694103E+02 0.  0.
         66    2    3    3    0    0 -0.21611640910E+01  0.35652970701E+02 -0.26001074702E+02  0.44225115323E+02  0.19999974252E+01 0.  0.
        -13    1    3    3    0    0  0.21611640910E+01 -0.35652970701E+02 -0.88853115398E+02  0.95763731286E+02  0.10566000000E+00 0.  1.
         13    1    4    4    0    0 -0.48056708045E+00  0.21775266386E+02 -0.15641015078E+02  0.26815027272E+02  0.10566000000E+00 0. -1.
        -13    1    4    4    0    0 -0.12070961498E+01  0.10613134496E+02 -0.82088576252E+01  0.13471904560E+02  0.10566000000E+00 0.  1.
         14    1    4    4    0    0 -0.47350086071E+00  0.32645698190E+01 -0.21512019987E+01  0.39381834908E+01  0.00000000000E+00 0. -1.
<mgrwt>
<rscale>  0 0.80033694E+02</rscale>
<asrwt>0</asrwt>
<pdfrwt beam="1">  1        2 0.19334352E-02 0.80033694E+02</pdfrwt>
<pdfrwt beam="2">  1       -1 0.19603310E-01 0.80033694E+02</pdfrwt>
<totfact> 0.11214963E+05</totfact>
</mgrwt>
</event>
<event>
 8    1  0.1226832E-020  0.8037258E+02  0.7818608E-02  0.1327997E+00
          2   -1    0    0  501    0  0.00000000000E+00  0.00000000000E+00  0.49274096640E+03  0.49274096640E+03  0.25500000000E-02 0. -1.
         -1   -1    0    0    0  501 -0.00000000000E+00 -0.00000000000E+00 -0.32774565007E+01  0.32774603759E+01  0.50400000000E-02 0.  1.
         24    2    1    2    0    0  0.88817841970E-15  0.00000000000E+00  0.48946350990E+03  0.49601842678E+03  0.80372583540E+02 0.  0.
         66    2    3    3    0    0  0.74101962880E+01 -0.25046620853E+02  0.43315764999E+03  0.43394906840E+03  0.19999999773E+01 0.  0.
        -13    1    3    3    0    0 -0.74101962880E+01  0.25046620853E+02  0.56305859908E+02  0.62069358376E+02  0.10566000000E+00 0.  1.
         13    1    4    4    0    0  0.10659930896E+01 -0.32303197185E+01  0.49488733395E+02  0.49605616656E+02  0.10566000000E+00 0. -1.
        -13    1    4    4    0    0  0.11886802014E+01 -0.28495312433E+01  0.47306464338E+02  0.47407230684E+02  0.10566000000E+00 0.  1.
         14    1    4    4    0    0  0.51555229969E+01 -0.18966769891E+02  0.33636245225E+03  0.33693622106E+03  0.00000000000E+00 0. -1.
<mgrwt>
<rscale>  0 0.80372584E+02</rscale>
<asrwt>0</asrwt>
<pdfrwt beam="1">  1        2 0.75806268E-01 0.80372584E+02</pdfrwt>
<pdfrwt beam="2">  1       -1 0.50422460E-03 0.80372584E+02</pdfrwt>
<totfact> 0.29944221E+05</totfact>
</mgrwt>
</event>
<event>
 8    1  0.1226832E-020  0.7952554E+02  0.7818608E-02  0.1330403E+00
         -1   -1    0    0    0  501 -0.00000000000E+00  0.00000000000E+00  0.23606118127E+01  0.23606171930E+01  0.50400000000E-02 0.  1.
          2   -1    0    0  501    0  0.00000000000E+00 -0.00000000000E+00 -0.66977379197E+03  0.66977379197E+03  0.25500000000E-02 0. -1.
         24    2    1    2    0    0  0.00000000000E+00  0.00000000000E+00 -0.66741318016E+03  0.67213440917E+03  0.79525536400E+02 0.  0.
         66    2    3    3    0    0  0.46295782858E+01  0.25625834562E+02 -0.58760592911E+03  0.58818606269E+03  0.20000071489E+01 0.  0.
        -13    1    3    3    0    0 -0.46295782858E+01 -0.25625834562E+02 -0.79807251045E+02  0.83948346472E+02  0.10566000000E+00 0.  1.
         13    1    4    4    0    0  0.44567048895E+01  0.22073391616E+02 -0.51377709106E+03  0.51427036401E+03  0.10566000000E+00 0. -1.
        -13    1    4    4    0    0  0.28727857854E+00  0.26862264375E+01 -0.54066887868E+02  0.54134442541E+02  0.10566000000E+00 0.  1.
        -14    1    4    4    0    0 -0.11440518225E+00  0.86621650834E+00 -0.19761950180E+02  0.19781256141E+02  0.00000000000E+00 0.  1.
<mgrwt>
<rscale>  0 0.79525536E+02</rscale>
<asrwt>0</asrwt>
<pdfrwt beam="1">  1        2 0.10304197E+00 0.79525536E+02</pdfrwt>
<pdfrwt beam="2">  1       -1 0.36317200E-03 0.79525536E+02</pdfrwt>
<totfact> 0.33619755E+05</totfact>
</mgrwt>
</event>
<event>
 8    1  0.1226832E-020  0.7996622E+02  0.7818608E-02  0.1329147E+00
          2   -1    0    0  501    0  0.00000000000E+00  0.00000000000E+00  0.45308176104E+03  0.45308176105E+03  0.25500000000E-02 0. -1.
         -1   -1    0    0    0  501 -0.00000000000E+00 -0.00000000000E+00 -0.35283881155E+01  0.35283917151E+01  0.50400000000E-02 0.  1.
         24    2    1    2    0    0  0.88817841970E-15  0.00000000000E+00  0.44955337293E+03  0.45661015277E+03  0.79966220980E+02 0.  0.
         66    2    3    3    0    0  0.74889768308E+01 -0.16290747016E+02  0.42881970152E+03  0.42919903265E+03  0.19999990846E+01 0.  0.
        -13    1    3    3    0    0 -0.74889768308E+01  0.16290747016E+02  0.20733671404E+02  0.27411120120E+02  0.10566000000E+00 0.  1.
         13    1    4    4    0    0  0.26343689074E+01 -0.69373022885E+01  0.19660262118E+03  0.19674264378E+03  0.10566000000E+00 0. -1.
        -13    1    4    4    0    0  0.33512267690E+01 -0.67274677176E+01  0.16787260523E+03  0.16804080544E+03  0.10566000000E+00 0.  1.
        -14    1    4    4    0    0  0.15033811544E+01 -0.26259770103E+01  0.64344475113E+02  0.64415583423E+02  0.00000000000E+00 0.  1.
<mgrwt>
<rscale>  0 0.79966221E+02</rscale>
<asrwt>0</asrwt>
<pdfrwt beam="1">  1        2 0.69704914E-01 0.79966221E+02</pdfrwt>
<pdfrwt beam="2">  1       -1 0.54282901E-03 0.79966221E+02</pdfrwt>
<totfact> 0.29518374E+05</totfact>
</mgrwt>
</event>
<event>
 8    1  0.1226832E-020  0.7967813E+02  0.7818608E-02  0.1329967E+00
         -1   -1    0    0    0  501 -0.00000000000E+00  0.00000000000E+00  0.22705814468E+01  0.22705870404E+01  0.50400000000E-02 0.  1.
          2   -1    0    0  501    0  0.00000000000E+00 -0.00000000000E+00 -0.69900557381E+03  0.69900557382E+03  0.25500000000E-02 0. -1.
         24    2    1    2    0    0  0.00000000000E+00 -0.35527136788E-14 -0.69673499237E+03  0.70127616086E+03  0.79678128744E+02 0.  0.
         66    2    3    3    0    0 -0.19810970089E+02 -0.27183659420E+02 -0.53606165844E+03  0.53711965848E+03  0.19999991206E+01 0.  0.
        -13    1    3    3    0    0  0.19810970089E+02  0.27183659420E+02 -0.16067333392E+03  0.16415650238E+03  0.10566000000E+00 0.  1.
         13    1    4    4    0    0 -0.13962272431E+02 -0.18104291639E+02 -0.35845351348E+03  0.35918190783E+03  0.10566000000E+00 0. -1.
        -13    1    4    4    0    0 -0.31970464477E+01 -0.50629086433E+01 -0.92562045186E+02  0.92755579471E+02  0.10566000000E+00 0.  1.
         14    1    4    4    0    0 -0.26516512103E+01 -0.40164591378E+01 -0.85046099779E+02  0.85182171173E+02  0.00000000000E+00 0. -1.
<mgrwt>
<rscale>  0 0.79678129E+02</rscale>
<asrwt>0</asrwt>
<pdfrwt beam="1">  1        2 0.10753915E+00 0.79678129E+02</pdfrwt>
<pdfrwt beam="2">  1       -1 0.34932121E-03 0.79678129E+02</pdfrwt>
<totfact> 0.33793032E+05</totfact>
</mgrwt>
</event>
<event>
 8    1  0.1226832E-020  0.7899665E+02  0.7818608E-02  0.1331923E+00
         -1   -1    0    0    0  501 -0.00000000000E+00  0.00000000000E+00  0.65381985246E+01  0.65382004672E+01  0.50400000000E-02 0.  1.
          2   -1    0    0  501    0  0.00000000000E+00 -0.00000000000E+00 -0.23861581997E+03  0.23861581998E+03  0.25500000000E-02 0. -1.
         24    2    1    2    0    0  0.00000000000E+00  0.00000000000E+00 -0.23207762144E+03  0.24515402045E+03  0.78996654153E+02 0.  0.
         66    2    3    3    0    0 -0.38683930847E+02  0.42382066431E+01 -0.95597065602E+02  0.10323375344E+03  0.19999990165E+01 0.  0.
        -13    1    3    3    0    0  0.38683930847E+02 -0.42382066431E+01 -0.13648055584E+03  0.14192026701E+03  0.10566000000E+00 0.  1.
         13    1    4    4    0    0 -0.33137523282E+01  0.36793659091E+00 -0.78003047285E+01  0.84836460157E+01  0.10566000000E+00 0. -1.
        -13    1    4    4    0    0 -0.10371596281E+02  0.13570668883E+01 -0.27954019294E+02  0.29847110391E+02  0.10566000000E+00 0.  1.
        -14    1    4    4    0    0 -0.24998582238E+02  0.25132031638E+01 -0.59842741580E+02  0.64902997033E+02  0.00000000000E+00 0.  1.
<mgrwt>
<rscale>  0 0.78996654E+02</rscale>
<asrwt>0</asrwt>
<pdfrwt beam="1">  1        2 0.36710119E-01 0.78996654E+02</pdfrwt>
<pdfrwt beam="2">  1       -1 0.10058770E-02 0.78996654E+02</pdfrwt>
<totfact> 0.24266108E+05</totfact>
</mgrwt>
</event>
<event>
 8    1  0.1226832E-020  0.7886247E+02  0.7818608E-02  0.1332311E+00
         -1   -1    0    0    0  501 -0.00000000000E+00  0.00000000000E+00  0.30782183635E+01  0.30782224896E+01  0.50400000000E-02 0.  1.
          2   -1    0    0  501    0  0.00000000000E+00 -0.00000000000E+00 -0.50510422015E+03  0.50510422016E+03  0.25500000000E-02 0. -1.
         24    2    1    2    0    0  0.00000000000E+00  0.00000000000E+00 -0.50202600179E+03  0.50818244265E+03  0.78862466002E+02 0.  0.
         66    2    3    3    0    0  0.16147300388E+02 -0.15347995311E+02 -0.46062784519E+03  0.46117058453E+03  0.20000004355E+01 0.  0.
        -13    1    3    3    0    0 -0.16147300388E+02  0.15347995311E+02 -0.41398156596E+02  0.47011858115E+02  0.10566000000E+00 0.  1.
         13    1    4    4    0    0  0.84070832186E+01 -0.78644638393E+01 -0.22763076366E+03  0.22792170710E+03  0.10566000000E+00 0. -1.
        -13    1    4    4    0    0  0.81211483728E+00 -0.12061330970E+01 -0.26116297886E+02  0.26156958288E+02  0.10566000000E+00 0.  1.
         14    1    4    4    0    0  0.69281023317E+01 -0.62773983744E+01 -0.20688078365E+03  0.20709191915E+03  0.00000000000E+00 0. -1.
<mgrwt>
<rscale>  0 0.78862466E+02</rscale>
<asrwt>0</asrwt>
<pdfrwt beam="1">  1        2 0.77708276E-01 0.78862466E+02</pdfrwt>
<pdfrwt beam="2">  1       -1 0.47357278E-03 0.78862466E+02</pdfrwt>
<totfact> 0.31710603E+05</totfact>
</mgrwt>
</event>
<event>
 8    1  0.1226832E-020  0.8182482E+02  0.7818608E-02  0.1323951E+00
         -1   -1    0    0    0  501 -0.00000000000E+00  0.00000000000E+00  0.42703464086E+02  0.42703464384E+02  0.50400000000E-02 0.  1.
          2   -1    0    0  501    0  0.00000000000E+00 -0.00000000000E+00 -0.39196477684E+02  0.39196477767E+02  0.25500000000E-02 0. -1.
         24    2    1    2    0    0  0.00000000000E+00  0.88817841970E-15  0.35069864024E+01  0.81899942150E+02  0.81824822460E+02 0.  0.
         66    2    3    3    0    0 -0.11345942674E+02 -0.59329191413E+01 -0.37112676925E+02  0.39310058873E+02  0.19999988462E+01 0.  0.
        -13    1    3    3    0    0  0.11345942674E+02  0.59329191413E+01  0.40619663327E+02  0.42589883277E+02  0.10566000000E+00 0.  1.
         13    1    4    4    0    0 -0.39930091757E+01 -0.14256688270E+01 -0.12254270138E+02  0.12967457520E+02  0.10566000000E+00 0. -1.
        -13    1    4    4    0    0 -0.43236094669E+01 -0.24487734481E+01 -0.16087143339E+02  0.16837382073E+02  0.10566000000E+00 0.  1.
        -14    1    4    4    0    0 -0.30293240309E+01 -0.20584768662E+01 -0.87712634476E+01  0.95052192800E+01  0.00000000000E+00 0.  1.
<mgrwt>
<rscale>  0 0.81824822E+02</rscale>
<asrwt>0</asrwt>
<pdfrwt beam="1">  1        2 0.60302274E-02 0.81824822E+02</pdfrwt>
<pdfrwt beam="2">  1       -1 0.65697637E-02 0.81824822E+02</pdfrwt>
<totfact> 0.13335661E+05</totfact>
</mgrwt>
</event>
<event>
 8    1  0.1226832E-020  0.8011294E+02  0.7818608E-02  0.1328731E+00
          2   -1    0    0  501    0  0.00000000000E+00  0.00000000000E+00  0.90539373336E+02  0.90539373372E+02  0.25500000000E-02 0. -1.
         -1   -1    0    0    0  501 -0.00000000000E+00 -0.00000000000E+00 -0.17721802297E+02  0.17721803014E+02  0.50400000000E-02 0.  1.
         24    2    1    2    0    0  0.35527136788E-14  0.17763568394E-14  0.72817571039E+02  0.10826117639E+03  0.80112943151E+02 0.  0.
         66    2    3    3    0    0 -0.25086091205E+02 -0.54634659699E+01  0.77937092504E+02  0.82081373170E+02  0.20000002559E+01 0.  0.
        -13    1    3    3    0    0  0.25086091205E+02  0.54634659699E+01 -0.51195214651E+01  0.26179803216E+02  0.10566000000E+00 0.  1.
         13    1    4    4    0    0 -0.12843359823E+01 -0.22968343160E+00  0.32770560480E+01  0.35288147828E+01  0.10566000000E+00 0.  1.
        -13    1    4    4    0    0 -0.18888124905E+02 -0.36519379066E+01  0.57505412291E+02  0.60638119362E+02  0.10566000000E+00 0. -1.
         14    1    4    4    0    0 -0.49136303183E+01 -0.15818446316E+01  0.17154624165E+02  0.17914439025E+02  0.00000000000E+00 0. -1.
<mgrwt>
<rscale>  0 0.80112943E+02</rscale>
<asrwt>0</asrwt>
<pdfrwt beam="1">  1        2 0.13929134E-01 0.80112943E+02</pdfrwt>
<pdfrwt beam="2">  1       -1 0.27264312E-02 0.80112943E+02</pdfrwt>
<totfact> 0.17183197E+05</totfact>
</mgrwt>
</event>
<event>
 8    1  0.1226832E-020  0.7908052E+02  0.7818608E-02  0.1331681E+00
          2   -1    0    0  501    0  0.00000000000E+00  0.00000000000E+00  0.52074298935E+03  0.52074298936E+03  0.25500000000E-02 0. -1.
         -1   -1    0    0    0  501 -0.00000000000E+00 -0.00000000000E+00 -0.30023085752E+01  0.30023128056E+01  0.50400000000E-02 0.  1.
         24    2    1    2    0    0  0.00000000000E+00  0.00000000000E+00  0.51774068078E+03  0.52374530216E+03  0.79080522302E+02 0.  0.
         66    2    3    3    0    0  0.45290408455E+01 -0.16881087672E+02  0.49374770002E+03  0.49406100292E+03  0.19999997207E+01 0.  0.
        -13    1    3    3    0    0 -0.45290408455E+01  0.16881087672E+02  0.23992980755E+02  0.29684299243E+02  0.10566000000E+00 0.  1.
         13    1    4    4    0    0  0.11836442265E+01 -0.65991110049E+01  0.19304701837E+03  0.19316343274E+03  0.10566000000E+00 0. -1.
        -13    1    4    4    0    0  0.38417483377E+00 -0.76992080633E+00  0.33555065724E+02  0.33566262349E+02  0.10566000000E+00 0.  1.
        -14    1    4    4    0    0  0.29612217852E+01 -0.95120558610E+01  0.26714561592E+03  0.26733130783E+03  0.00000000000E+00 0.  1.
<mgrwt>
<rscale>  0 0.79080522E+02</rscale>
<asrwt>0</asrwt>
<pdfrwt beam="1">  1        2 0.80114236E-01 0.79080522E+02</pdfrwt>
<pdfrwt beam="2">  1       -1 0.46189436E-03 0.79080522E+02</pdfrwt>
<totfact> 0.31786022E+05</totfact>
</mgrwt>
</event>
<event>
 8    1  0.1226832E-020  0.7900349E+02  0.7818608E-02  0.1331903E+00
         -1   -1    0    0    0  501 -0.00000000000E+00  0.00000000000E+00  0.54769578064E+02  0.54769578296E+02  0.50400000000E-02 0.  1.
          2   -1    0    0  501    0  0.00000000000E+00 -0.00000000000E+00 -0.28490046840E+02  0.28490046954E+02  0.25500000000E-02 0. -1.
         24    2    1    2    0    0  0.00000000000E+00  0.00000000000E+00  0.26279531225E+02  0.83259625250E+02  0.79003490020E+02 0.  0.
         66    2    3    3    0    0 -0.78858881681E+01 -0.16539142058E+02 -0.23702023360E+02  0.30025262147E+02  0.20000008515E+01 0.  0.
        -13    1    3    3    0    0  0.78858881681E+01  0.16539142058E+02  0.49981554585E+02  0.53234363103E+02  0.10566000000E+00 0.  1.
         13    1    4    4    0    0 -0.53800819368E+00 -0.18300482132E+01 -0.17955795309E+01  0.26217931205E+01  0.10566000000E+00 0. -1.
        -13    1    4    4    0    0 -0.99414340181E+00 -0.26532571579E+01 -0.36706976223E+01  0.46382410156E+01  0.10566000000E+00 0.  1.
         14    1    4    4    0    0 -0.63537365726E+01 -0.12055836687E+02 -0.18235746207E+02  0.22765228011E+02  0.00000000000E+00 0. -1.
<mgrwt>
<rscale>  0 0.79003490E+02</rscale>
<asrwt>0</asrwt>
<pdfrwt beam="1">  1        2 0.43830841E-02 0.79003490E+02</pdfrwt>
<pdfrwt beam="2">  1       -1 0.84260890E-02 0.79003490E+02</pdfrwt>
<totfact> 0.13795992E+05</totfact>
</mgrwt>
</event>
<event>
 8    1  0.1226832E-020  0.8276762E+02  0.7818608E-02  0.1321376E+00
          2   -1    0    0  501    0  0.00000000000E+00  0.00000000000E+00  0.15031785280E+02  0.15031785497E+02  0.25500000000E-02 0. -1.
         -1   -1    0    0    0  501 -0.00000000000E+00 -0.00000000000E+00 -0.11393321863E+03  0.11393321874E+03  0.50400000000E-02 0.  1.
         24    2    1    2    0    0  0.00000000000E+00  0.00000000000E+00 -0.98901433352E+02  0.12896500424E+03  0.82767619270E+02 0.  0.
         66    2    3    3    0    0 -0.11699391256E+02  0.39187529585E+02 -0.39864722756E+02  0.57146604141E+02  0.20000034254E+01 0.  0.
        -13    1    3    3    0    0  0.11699391256E+02 -0.39187529585E+02 -0.59036710596E+02  0.71818400099E+02  0.10566000000E+00 0.  1.
         13    1    4    4    0    0 -0.59840171846E+01  0.17276427689E+02 -0.17635588649E+02  0.25402924367E+02  0.10566000000E+00 0. -1.
        -13    1    4    4    0    0 -0.18776504697E+01  0.62430055134E+01 -0.68245338499E+01  0.94385441372E+01  0.10566000000E+00 0.  1.
         14    1    4    4    0    0 -0.38377236019E+01  0.15668096383E+02 -0.15404600257E+02  0.22305135637E+02  0.00000000000E+00 0. -1.
<mgrwt>
<rscale>  0 0.82767619E+02</rscale>
<asrwt>0</asrwt>
<pdfrwt beam="1">  1        2 0.23125824E-02 0.82767619E+02</pdfrwt>
<pdfrwt beam="2">  1       -1 0.17528187E-01 0.82767619E+02</pdfrwt>
<totfact> 0.10578201E+05</totfact>
</mgrwt>
</event>
<event>
 8    1  0.1226832E-020  0.7947607E+02  0.7818608E-02  0.1330545E+00
          2   -1    0    0  501    0  0.00000000000E+00  0.00000000000E+00  0.67473376741E+02  0.67473376790E+02  0.25500000000E-02 0. -1.
         -1   -1    0    0    0  501 -0.00000000000E+00 -0.00000000000E+00 -0.23403476084E+02  0.23403476627E+02  0.50400000000E-02 0.  1.
         24    2    1    2    0    0  0.00000000000E+00  0.71054273576E-14  0.44069900657E+02  0.90876853416E+02  0.79476074028E+02 0.  0.
         66    2    3    3    0    0 -0.16190475938E+02 -0.35515840042E+02  0.13677424732E+02  0.41407467309E+02  0.19999991671E+01 0.  0.
        -13    1    3    3    0    0  0.16190475938E+02  0.35515840042E+02  0.30392475925E+02  0.49469386108E+02  0.10566000000E+00 0.  1.
         13    1    4    4    0    0 -0.13971155482E+01 -0.32874825287E+01  0.14336296147E+01  0.38504455767E+01  0.10566000000E+00 0. -1.
        -13    1    4    4    0    0 -0.37216527928E+01 -0.65069654248E+01  0.28512415287E+01  0.80207257053E+01  0.10566000000E+00 0.  1.
         14    1    4    4    0    0 -0.11071707597E+02 -0.25721392088E+02  0.93925535886E+01  0.29536296027E+02  0.00000000000E+00 0. -1.
<mgrwt>
<rscale>  0 0.79476074E+02</rscale>
<asrwt>0</asrwt>
<pdfrwt beam="1">  1        2 0.10380519E-01 0.79476074E+02</pdfrwt>
<pdfrwt beam="2">  1       -1 0.36005349E-02 0.79476074E+02</pdfrwt>
<totfact> 0.16290564E+05</totfact>
</mgrwt>
</event>
<event>
 8    1  0.1226832E-020  0.7991506E+02  0.7818608E-02  0.1329293E+00
          2   -1    0    0  501    0  0.00000000000E+00  0.00000000000E+00  0.34934059776E+03  0.34934059777E+03  0.25500000000E-02 0. -1.
         -1   -1    0    0    0  501 -0.00000000000E+00 -0.00000000000E+00 -0.45703358733E+01  0.45703386522E+01  0.50400000000E-02 0.  1.
         24    2    1    2    0    0  0.00000000000E+00  0.00000000000E+00  0.34477026189E+03  0.35391093642E+03  0.79915063895E+02 0.  0.
         66    2    3    3    0    0 -0.35221991928E+02 -0.21203072331E+01  0.25528667846E+03  0.25772150204E+03  0.20000002202E+01 0.  0.
        -13    1    3    3    0    0  0.35221991928E+02  0.21203072331E+01  0.89483583433E+02  0.96189434380E+02  0.10566000000E+00 0.  1.
         13    1    4    4    0    0 -0.40498901175E+01 -0.26986691439E+00  0.26945751396E+02  0.27249937990E+02  0.10566000000E+00 0. -1.
        -13    1    4    4    0    0 -0.26836692894E+02 -0.11842806561E+01  0.19358509493E+03  0.19544004387E+03  0.10566000000E+00 0.  1.
        -14    1    4    4    0    0 -0.43354089164E+01 -0.66615966264E+00  0.34755832133E+02  0.35031520184E+02  0.00000000000E+00 0.  1.
<mgrwt>
<rscale>  0 0.79915064E+02</rscale>
<asrwt>0</asrwt>
<pdfrwt beam="1">  1        2 0.53744729E-01 0.79915064E+02</pdfrwt>
<pdfrwt beam="2">  1       -1 0.70312853E-03 0.79915064E+02</pdfrwt>
<totfact> 0.27006405E+05</totfact>
</mgrwt>
</event>
<event>
 8    1  0.1226832E-020  0.7488884E+02  0.7818608E-02  0.1344216E+00
         -1   -1    0    0    0  501 -0.00000000000E+00  0.00000000000E+00  0.44224583596E+01  0.44224612314E+01  0.50400000000E-02 0.  1.
          2   -1    0    0  501    0  0.00000000000E+00 -0.00000000000E+00 -0.31703725439E+03  0.31703725440E+03  0.25500000000E-02 0. -1.
         24    2    1    2    0    0  0.35527136788E-14 -0.35527136788E-14 -0.31261479603E+03  0.32145971563E+03  0.74888838133E+02 0.  0.
         66    2    3    3    0    0  0.14431615195E+02 -0.20602716309E+02 -0.27532416931E+03  0.27647810337E+03  0.19999999998E+01 0.  0.
        -13    1    3    3    0    0 -0.14431615195E+02  0.20602716309E+02 -0.37290626718E+02  0.44981612260E+02  0.10566000000E+00 0.  1.
         13    1    4    4    0    0  0.74913771887E+01 -0.11105955289E+02 -0.14082609914E+03  0.14146188299E+03  0.10566000000E+00 0. -1.
        -13    1    4    4    0    0  0.31295805125E+01 -0.34931854476E+01 -0.56851092141E+02  0.57044320141E+02  0.10566000000E+00 0.  1.
        -14    1    4    4    0    0  0.38106574937E+01 -0.60035755722E+01 -0.77646978028E+02  0.77971900240E+02  0.00000000000E+00 0.  1.
<mgrwt>
<rscale>  0 0.74888838E+02</rscale>
<asrwt>0</asrwt>
<pdfrwt beam="1">  1        2 0.48774944E-01 0.74888838E+02</pdfrwt>
<pdfrwt beam="2">  1       -1 0.68037868E-03 0.74888838E+02</pdfrwt>
<totfact> 0.30901639E+05</totfact>
</mgrwt>
</event>
<event>
 8    1  0.1226832E-020  0.7971821E+02  0.7818608E-02  0.1329853E+00
         -1   -1    0    0    0  501 -0.00000000000E+00  0.00000000000E+00  0.44805012440E+01  0.44805040787E+01  0.50400000000E-02 0.  1.
          2   -1    0    0  501    0  0.00000000000E+00 -0.00000000000E+00 -0.35459152815E+03  0.35459152816E+03  0.25500000000E-02 0. -1.
         24    2    1    2    0    0 -0.17763568394E-14  0.00000000000E+00 -0.35011102691E+03  0.35907203224E+03  0.79718211058E+02 0.  0.
         66    2    3    3    0    0 -0.12118086314E+02  0.36557197339E+02 -0.22098213409E+03  0.22432204590E+03  0.19999995466E+01 0.  0.
        -13    1    3    3    0    0  0.12118086314E+02 -0.36557197339E+02 -0.12912889282E+03  0.13474998634E+03  0.10566000000E+00 0.  1.
         13    1    4    4    0    0 -0.86848331864E+01  0.25374226310E+02 -0.15272205392E+03  0.15505906812E+03  0.10566000000E+00 0. -1.
        -13    1    4    4    0    0 -0.71633889856E+00  0.35014462294E+01 -0.22754860387E+02  0.23034063957E+02  0.10566000000E+00 0.  1.
        -14    1    4    4    0    0 -0.27169142288E+01  0.76815248002E+01 -0.45505219778E+02  0.46228913823E+02  0.00000000000E+00 0.  1.
<mgrwt>
<rscale>  0 0.79718211E+02</rscale>
<asrwt>0</asrwt>
<pdfrwt beam="1">  1        2 0.54552521E-01 0.79718211E+02</pdfrwt>
<pdfrwt beam="2">  1       -1 0.68930838E-03 0.79718211E+02</pdfrwt>
<totfact> 0.27326211E+05</totfact>
</mgrwt>
</event>
<event>
 8    1  0.1226832E-020  0.8658521E+02  0.7818608E-02  0.1311338E+00
         -1   -1    0    0    0  501 -0.00000000000E+00  0.00000000000E+00  0.37792755762E+01  0.37792789369E+01  0.50400000000E-02 0.  1.
          2   -1    0    0  501    0  0.00000000000E+00 -0.00000000000E+00 -0.49592810444E+03  0.49592810445E+03  0.25500000000E-02 0. -1.
         24    2    1    2    0    0  0.00000000000E+00 -0.35527136788E-14 -0.49214882886E+03  0.49970738338E+03  0.86585213841E+02 0.  0.
         66    2    3    3    0    0  0.26443452197E+02 -0.16719507419E+02 -0.41871219201E+03  0.41988414812E+03  0.20000018159E+01 0.  0.
        -13    1    3    3    0    0 -0.26443452197E+02  0.16719507419E+02 -0.73436636851E+02  0.79823235267E+02  0.10566000000E+00 0.  1.
         13    1    4    4    0    0  0.18625512744E+02 -0.11779414602E+02 -0.29529346301E+03  0.29611468182E+03  0.10566000000E+00 0. -1.
        -13    1    4    4    0    0  0.42638587684E+01 -0.30853171204E+01 -0.64450526093E+02  0.64665146338E+02  0.10566000000E+00 0.  1.
        -14    1    4    4    0    0  0.35540806840E+01 -0.18547756966E+01 -0.58968202914E+02  0.59104319955E+02  0.00000000000E+00 0.  1.
<mgrwt>
<rscale>  0 0.86585214E+02</rscale>
<asrwt>0</asrwt>
<pdfrwt beam="1">  1        2 0.76296580E-01 0.86585214E+02</pdfrwt>
<pdfrwt beam="2">  1       -1 0.58142767E-03 0.86585214E+02</pdfrwt>
<totfact> 0.24693675E+05</totfact>
</mgrwt>
</event>
<event>
 8    1  0.1226832E-020  0.7924411E+02  0.7818608E-02  0.1331210E+00
          2   -1    0    0  501    0  0.00000000000E+00  0.00000000000E+00  0.60676852660E+03  0.60676852660E+03  0.25500000000E-02 0. -1.
         -1   -1    0    0    0  501 -0.00000000000E+00 -0.00000000000E+00 -0.25873221236E+01  0.25873270324E+01  0.50400000000E-02 0.  1.
         24    2    1    2    0    0  0.00000000000E+00 -0.44408920985E-15  0.60418120447E+03  0.60935585363E+03  0.79244107163E+02 0.  0.
         66    2    3    3    0    0  0.16764978039E+02 -0.28453076745E+01  0.57725891606E+03  0.57751278466E+03  0.20000019312E+01 0.  0.
        -13    1    3    3    0    0 -0.16764978039E+02  0.28453076745E+01  0.26922288410E+02  0.31843068974E+02  0.10566000000E+00 0.  1.
         13    1    4    4    0    0  0.82902019247E+00 -0.31127798010E+00  0.40283041975E+02  0.40292912568E+02  0.10566000000E+00 0. -1.
        -13    1    4    4    0    0  0.11294272901E+01 -0.33221257512E-01  0.29302171609E+02  0.29324139112E+02  0.10566000000E+00 0.  1.
         14    1    4    4    0    0  0.14806530556E+02 -0.25008084369E+01  0.50767370248E+03  0.50789573298E+03  0.00000000000E+00 0. -1.
<mgrwt>
<rscale>  0 0.79244107E+02</rscale>
<asrwt>0</asrwt>
<pdfrwt beam="1">  1        2 0.93349130E-01 0.79244107E+02</pdfrwt>
<pdfrwt beam="2">  1       -1 0.39804940E-03 0.79244107E+02</pdfrwt>
<totfact> 0.33070048E+05</totfact>
</mgrwt>
</event>
<event>
 8    1  0.1226832E-020  0.7234710E+02  0.7818608E-02  0.1352289E+00
          2   -1    0    0  501    0  0.00000000000E+00  0.00000000000E+00  0.12223995818E+04  0.12223995818E+04  0.25500000000E-02 0. -1.
         -1   -1    0    0    0  501 -0.00000000000E+00 -0.00000000000E+00 -0.10704506259E+01  0.10704624907E+01  0.50400000000E-02 0.  1.
         24    2    1    2    0    0  0.00000000000E+00  0.17763568394E-14  0.12213291312E+04  0.12234700443E+04  0.72347098275E+02 0.  0.
         66    2    3    3    0    0 -0.73984256642E+01 -0.10065431559E+02  0.11847312129E+04  0.11847987578E+04  0.20000003120E+01 0.  0.
        -13    1    3    3    0    0  0.73984256642E+01  0.10065431559E+02  0.36597918314E+02  0.38671286554E+02  0.10566000000E+00 0.  1.
         13    1    4    4    0    0 -0.42703576356E+01 -0.45632149276E+01  0.56887710406E+03  0.56891144265E+03  0.10566000000E+00 0. -1.
        -13    1    4    4    0    0 -0.56080991750E+00 -0.97521336161E+00  0.80865447059E+02  0.80873340731E+02  0.10566000000E+00 0.  1.
         14    1    4    4    0    0 -0.25672581111E+01 -0.45270032697E+01  0.53498866179E+03  0.53501397441E+03  0.00000000000E+00 0. -1.
<mgrwt>
<rscale>  0 0.72347098E+02</rscale>
<asrwt>0</asrwt>
<pdfrwt beam="1">  1        2 0.18806105E+00 0.72347098E+02</pdfrwt>
<pdfrwt beam="2">  1       -1 0.16468600E-03 0.72347098E+02</pdfrwt>
<totfact> 0.45331214E+05</totfact>
</mgrwt>
</event>
<event>
 8    1  0.1226832E-020  0.7431900E+02  0.7818608E-02  0.1345993E+00
          2   -1    0    0  501    0  0.00000000000E+00  0.00000000000E+00  0.12501914873E+03  0.12501914876E+03  0.25500000000E-02 0. -1.
         -1   -1    0    0    0  501 -0.00000000000E+00 -0.00000000000E+00 -0.11044933497E+02  0.11044934647E+02  0.50400000000E-02 0.  1.
         24    2    1    2    0    0 -0.35527136788E-14  0.35527136788E-14  0.11397421524E+03  0.13606408341E+03  0.74318995246E+02 0.  0.
         66    2    3    3    0    0  0.23353211552E+02 -0.26939175361E+02  0.76030971417E+02  0.83998811156E+02  0.20000005151E+01 0.  0.
        -13    1    3    3    0    0 -0.23353211552E+02  0.26939175361E+02  0.37943243818E+02  0.52065272250E+02  0.10566000000E+00 0.  1.
         13    1    4    4    0    0  0.17989728623E+02 -0.21406539914E+02  0.59663861027E+02  0.65891257111E+02  0.10566000000E+00 0. -1.
        -13    1    4    4    0    0  0.81213234074E+00 -0.12615798274E+01  0.31044581333E+01  0.34496328698E+01  0.10566000000E+00 0.  1.
        -14    1    4    4    0    0  0.45513505878E+01 -0.42710556199E+01  0.13262652257E+02  0.14657921175E+02  0.00000000000E+00 0.  1.
<mgrwt>
<rscale>  0 0.74318995E+02</rscale>
<asrwt>0</asrwt>
<pdfrwt beam="1">  1        2 0.19233715E-01 0.74318995E+02</pdfrwt>
<pdfrwt beam="2">  1       -1 0.16992207E-02 0.74318995E+02</pdfrwt>
<totfact> 0.23000344E+05</totfact>
</mgrwt>
</event>
<event>
 8    1  0.1226832E-020  0.7918962E+02  0.7818608E-02  0.1331367E+00
         -1   -1    0    0    0  501 -0.00000000000E+00  0.00000000000E+00  0.62046751586E+01  0.62046772056E+01  0.50400000000E-02 0.  1.
          2   -1    0    0  501    0  0.00000000000E+00 -0.00000000000E+00 -0.25267217523E+03  0.25267217524E+03  0.25500000000E-02 0. -1.
         24    2    1    2    0    0  0.00000000000E+00  0.00000000000E+00 -0.24646750007E+03  0.25887685245E+03  0.79189621430E+02 0.  0.
         66    2    3    3    0    0 -0.37073934138E+02  0.73181864366E+01 -0.16167493468E+03  0.16604462338E+03  0.20000006002E+01 0.  0.
        -13    1    3    3    0    0  0.37073934138E+02 -0.73181864366E+01 -0.84792565385E+02  0.92832229068E+02  0.10566000000E+00 0.  1.
         13    1    4    4    0    0 -0.91638438748E+01  0.21830545999E+01 -0.42142299089E+02  0.43182476753E+02  0.10566000000E+00 0. -1.
        -13    1    4    4    0    0 -0.23787292186E+02  0.43114356049E+01 -0.10372358263E+03  0.10650359855E+03  0.10566000000E+00 0.  1.
        -14    1    4    4    0    0 -0.41227980773E+01  0.82369623180E+00 -0.15809052962E+02  0.16358548072E+02  0.00000000000E+00 0.  1.
<mgrwt>
<rscale>  0 0.79189621E+02</rscale>
<asrwt>0</asrwt>
<pdfrwt beam="1">  1        2 0.38872635E-01 0.79189621E+02</pdfrwt>
<pdfrwt beam="2">  1       -1 0.95456576E-03 0.79189621E+02</pdfrwt>
<totfact> 0.24609008E+05</totfact>
</mgrwt>
</event>
<event>
 8    1  0.1226832E-020  0.7870244E+02  0.7818608E-02  0.1332775E+00
          2   -1    0    0  501    0  0.00000000000E+00  0.00000000000E+00  0.13077204810E+04  0.13077204810E+04  0.25500000000E-02 0. -1.
         -1   -1    0    0    0  501 -0.00000000000E+00 -0.00000000000E+00 -0.11841302161E+01  0.11841409419E+01  0.50400000000E-02 0.  1.
         24    2    1    2    0    0  0.44408920985E-15  0.00000000000E+00  0.13065363508E+04  0.13089046219E+04  0.78702435970E+02 0.  0.
         66    2    3    3    0    0 -0.35563048377E+01  0.23004409542E+02  0.11808338594E+04  0.11810649659E+04  0.19999811690E+01 0.  0.
        -13    1    3    3    0    0  0.35563048377E+01 -0.23004409542E+02  0.12570249139E+03  0.12783965609E+03  0.10566000000E+00 0.  1.
         13    1    4    4    0    0 -0.11848527625E+01  0.91527361099E+01  0.50805520571E+03  0.50813903576E+03  0.10566000000E+00 0. -1.
        -13    1    4    4    0    0 -0.23112314950E+00  0.21773549697E+01  0.11744567757E+03  0.11746613400E+03  0.10566000000E+00 0.  1.
        -14    1    4    4    0    0 -0.21403289257E+01  0.11674318463E+02  0.55533297611E+03  0.55545979609E+03  0.00000000000E+00 0.  1.
<mgrwt>
<rscale>  0 0.78702436E+02</rscale>
<asrwt>0</asrwt>
<pdfrwt beam="1">  1        2 0.20118865E+00 0.78702436E+02</pdfrwt>
<pdfrwt beam="2">  1       -1 0.18217391E-03 0.78702436E+02</pdfrwt>
<totfact> 0.36075295E+05</totfact>
</mgrwt>
</event>
<event>
 8    1  0.1226832E-020  0.7925549E+02  0.7818608E-02  0.1331178E+00
         -1   -1    0    0    0  501 -0.00000000000E+00  0.00000000000E+00  0.77978876194E+01  0.77978892481E+01  0.50400000000E-02 0.  1.
          2   -1    0    0  501    0  0.00000000000E+00 -0.00000000000E+00 -0.20138248530E+03  0.20138248532E+03  0.25500000000E-02 0. -1.
         24    2    1    2    0    0  0.00000000000E+00 -0.35527136788E-14 -0.19358459768E+03  0.20918037456E+03  0.79255489675E+02 0.  0.
         66    2    3    3    0    0  0.24366946704E+02 -0.28430806172E+02 -0.13088912503E+03  0.13615440462E+03  0.20000038630E+01 0.  0.
        -13    1    3    3    0    0 -0.24366946704E+02  0.28430806172E+02 -0.62695472653E+02  0.73025969945E+02  0.10566000000E+00 0.  1.
         13    1    4    4    0    0  0.17821343485E+02 -0.19846630705E+02 -0.95090744741E+02  0.98761074991E+02  0.10566000000E+00 0. -1.
        -13    1    4    4    0    0  0.90521794450E+00 -0.14031600348E+01 -0.55151919510E+01  0.57634003767E+01  0.10566000000E+00 0. -1.
         14    1    4    4    0    0  0.56403852744E+01 -0.71810154321E+01 -0.30283188336E+02  0.31629929251E+02  0.00000000000E+00 0. -1.
<mgrwt>
<rscale>  0 0.79255490E+02</rscale>
<asrwt>0</asrwt>
<pdfrwt beam="1">  1        2 0.30981917E-01 0.79255490E+02</pdfrwt>
<pdfrwt beam="2">  1       -1 0.11996753E-02 0.79255490E+02</pdfrwt>
<totfact> 0.22663393E+05</totfact>
</mgrwt>
</event>
<event>
 8    1  0.1226832E-020  0.7778308E+02  0.7818608E-02  0.1335463E+00
          2   -1    0    0  501    0  0.00000000000E+00  0.00000000000E+00  0.10960539482E+03  0.10960539485E+03  0.25500000000E-02 0. -1.
         -1   -1    0    0    0  501 -0.00000000000E+00 -0.00000000000E+00 -0.13799976149E+02  0.13799977069E+02  0.50400000000E-02 0.  1.
         24    2    1    2    0    0  0.00000000000E+00 -0.88817841970E-15  0.95805418675E+02  0.12340537192E+03  0.77783080243E+02 0.  0.
         66    2    3    3    0    0  0.32705663744E+02 -0.45966373234E+01  0.80439138679E+02  0.86978414315E+02  0.20000024480E+01 0.  0.
        -13    1    3    3    0    0 -0.32705663744E+02  0.45966373234E+01  0.15366279997E+02  0.36426957608E+02  0.10566000000E+00 0.  1.
         13    1    4    4    0    0  0.14207464923E+02 -0.21294558719E+01  0.32553965178E+02  0.35583120362E+02  0.10566000000E+00 0. -1.
        -13    1    4    4    0    0  0.33992271002E+01 -0.54193879829E+00  0.91844691256E+01  0.98088775961E+01  0.10566000000E+00 0.  1.
         14    1    4    4    0    0  0.15098971721E+02 -0.19252426533E+01  0.38700704375E+02  0.41586416357E+02  0.00000000000E+00 0. -1.
<mgrwt>
<rscale>  0 0.77783080E+02</rscale>
<asrwt>0</asrwt>
<pdfrwt beam="1">  1        2 0.16862369E-01 0.77783080E+02</pdfrwt>
<pdfrwt beam="2">  1       -1 0.21230732E-02 0.77783080E+02</pdfrwt>
<totfact> 0.19611671E+05</totfact>
</mgrwt>
</event>
<event>
 8    1  0.1226832E-020  0.7973633E+02  0.7818608E-02  0.1329801E+00
          2   -1    0    0  501    0  0.00000000000E+00  0.00000000000E+00  0.56738540983E+03  0.56738540983E+03  0.25500000000E-02 0. -1.
         -1   -1    0    0    0  501 -0.00000000000E+00 -0.00000000000E+00 -0.28013923993E+01  0.28013969330E+01  0.50400000000E-02 0.  1.
         24    2    1    2    0    0  0.88817841970E-15  0.17763568394E-14  0.56458401743E+03  0.57018680676E+03  0.79736327197E+02 0.  0.
         66    2    3    3    0    0 -0.65518769380E+01 -0.10470938399E+02  0.55334567854E+03  0.55348713409E+03  0.20000011219E+01 0.  0.
        -13    1    3    3    0    0  0.65518769380E+01  0.10470938399E+02  0.11238338885E+02  0.16699672670E+02  0.10566000000E+00 0.  1.
         13    1    4    4    0    0 -0.24795161129E+01 -0.29659533849E+01  0.15263378663E+03  0.15268277200E+03  0.10566000000E+00 0. -1.
        -13    1    4    4    0    0 -0.28964143276E+01 -0.53132490255E+01  0.30577880510E+03  0.30583869710E+03  0.10566000000E+00 0.  1.
        -14    1    4    4    0    0 -0.11759464975E+01 -0.21917359890E+01  0.94933086803E+02  0.94965664989E+02  0.00000000000E+00 0.  1.
<mgrwt>
<rscale>  0 0.79736327E+02</rscale>
<asrwt>0</asrwt>
<pdfrwt beam="1">  1        2 0.87290013E-01 0.79736327E+02</pdfrwt>
<pdfrwt beam="2">  1       -1 0.43098404E-03 0.79736327E+02</pdfrwt>
<totfact> 0.31927113E+05</totfact>
</mgrwt>
</event>
<event>
 8    1  0.1226832E-020  0.7785106E+02  0.7818608E-02  0.1335263E+00
          2   -1    0    0  501    0  0.00000000000E+00  0.00000000000E+00  0.24985217065E+02  0.24985217195E+02  0.25500000000E-02 0. -1.
         -1   -1    0    0    0  501 -0.00000000000E+00 -0.00000000000E+00 -0.60643727394E+02  0.60643727604E+02  0.50400000000E-02 0.  1.
         24    2    1    2    0    0  0.00000000000E+00  0.00000000000E+00 -0.35658510330E+02  0.85628944798E+02  0.77851055409E+02 0.  0.
         66    2    3    3    0    0  0.36902139179E+02  0.12050107950E+02 -0.15098092944E+02  0.41700424396E+02  0.20000016650E+01 0.  0.
        -13    1    3    3    0    0 -0.36902139179E+02 -0.12050107950E+02 -0.20560417386E+02  0.43928520402E+02  0.10566000000E+00 0.  1.
         13    1    4    4    0    0  0.46469892501E+01  0.18098766489E+01 -0.21521371235E+01  0.54325887760E+01  0.10566000000E+00 0. -1.
        -13    1    4    4    0    0  0.19984617364E+02  0.67175972457E+01 -0.73371252809E+01  0.22323879935E+02  0.10566000000E+00 0.  1.
        -14    1    4    4    0    0  0.12270532566E+02  0.35226340551E+01 -0.56088305393E+01  0.13943955685E+02  0.00000000000E+00 0.  1.
<mgrwt>
<rscale>  0 0.77851055E+02</rscale>
<asrwt>0</asrwt>
<pdfrwt beam="1">  1        2 0.38438796E-02 0.77851055E+02</pdfrwt>
<pdfrwt beam="2">  1       -1 0.93298042E-02 0.77851055E+02</pdfrwt>
<totfact> 0.14016534E+05</totfact>
</mgrwt>
</event>
<event>
 8    1  0.1226832E-020  0.7429853E+02  0.7818608E-02  0.1346057E+00
          2   -1    0    0  501    0  0.00000000000E+00  0.00000000000E+00  0.66472237582E+02  0.66472237631E+02  0.25500000000E-02 0. -1.
         -1   -1    0    0    0  501 -0.00000000000E+00 -0.00000000000E+00 -0.20761568307E+02  0.20761568918E+02  0.50400000000E-02 0.  1.
         24    2    1    2    0    0 -0.17763568394E-14  0.17763568394E-14  0.45710669276E+02  0.87233806550E+02  0.74298531072E+02 0.  0.
         66    2    3    3    0    0 -0.68815829480E+01 -0.10074905319E+02  0.64035741571E+02  0.65218372424E+02  0.20000005140E+01 0.  0.
        -13    1    3    3    0    0  0.68815829480E+01  0.10074905319E+02 -0.18325072295E+02  0.22015434125E+02  0.10566000000E+00 0.  1.
         13    1    4    4    0    0 -0.38215364170E+01 -0.46453505185E+01  0.32280934890E+02  0.32836768164E+02  0.10566000000E+00 0. -1.
        -13    1    4    4    0    0 -0.40322266457E+00 -0.12796375158E+01  0.89407785462E+01  0.90415012988E+01  0.10566000000E+00 0.  1.
        -14    1    4    4    0    0 -0.26568238664E+01 -0.41499172847E+01  0.22814028135E+02  0.23340102962E+02  0.00000000000E+00 0.  1.
<mgrwt>
<rscale>  0 0.74298531E+02</rscale>
<asrwt>0</asrwt>
<pdfrwt beam="1">  1        2 0.10226498E-01 0.74298531E+02</pdfrwt>
<pdfrwt beam="2">  1       -1 0.31940875E-02 0.74298531E+02</pdfrwt>
<totfact> 0.19464820E+05</totfact>
</mgrwt>
</event>
<event>
 8    1  0.1226832E-020  0.8005766E+02  0.7818608E-02  0.1328888E+00
          2   -1    0    0  501    0  0.00000000000E+00  0.00000000000E+00  0.17428338590E+03  0.17428338592E+03  0.25500000000E-02 0. -1.
         -1   -1    0    0    0  501 -0.00000000000E+00 -0.00000000000E+00 -0.91936892008E+01  0.91936905823E+01  0.50400000000E-02 0.  1.
         24    2    1    2    0    0 -0.35527136788E-14 -0.17763568394E-14  0.16508969670E+03  0.18347707650E+03  0.80057664500E+02 0.  0.
         66    2    3    3    0    0 -0.23591399658E+02 -0.14271153308E+02  0.14902249027E+03  0.15156491203E+03  0.19999998175E+01 0.  0.
        -13    1    3    3    0    0  0.23591399658E+02  0.14271153308E+02  0.16067206432E+02  0.31912164469E+02  0.10566000000E+00 0.  1.
         13    1    4    4    0    0 -0.29715095154E+01 -0.16918079665E+01  0.20266312423E+02  0.20553020855E+02  0.10566000000E+00 0. -1.
        -13    1    4    4    0    0 -0.22166108263E+01 -0.19146181569E+01  0.16538939239E+02  0.16796630657E+02  0.10566000000E+00 0.  1.
         14    1    4    4    0    0 -0.18403279316E+02 -0.10664727184E+02  0.11221723861E+03  0.11421526052E+03  0.00000000000E+00 0. -1.
<mgrwt>
<rscale>  0 0.80057664E+02</rscale>
<asrwt>0</asrwt>
<pdfrwt beam="1">  1        2 0.26812827E-01 0.80057664E+02</pdfrwt>
<pdfrwt beam="2">  1       -1 0.14144139E-02 0.80057664E+02</pdfrwt>
<totfact> 0.21003735E+05</totfact>
</mgrwt>
</event>
<event>
 8    1  0.1226832E-020  0.8215487E+02  0.7818608E-02  0.1323045E+00
         -1   -1    0    0    0  501 -0.00000000000E+00  0.00000000000E+00  0.13378739699E+01  0.13378834631E+01  0.50400000000E-02 0.  1.
          2   -1    0    0  501    0  0.00000000000E+00 -0.00000000000E+00 -0.12612173332E+04  0.12612173333E+04  0.25500000000E-02 0. -1.
         24    2    1    2    0    0 -0.35527136788E-14  0.00000000000E+00 -0.12598794593E+04  0.12625552167E+04  0.82154874110E+02 0.  0.
         66    2    3    3    0    0  0.26638926534E+02 -0.54716109609E+01 -0.11029320089E+04  0.11032690456E+04  0.20000004987E+01 0.  0.
        -13    1    3    3    0    0 -0.26638926534E+02  0.54716109609E+01 -0.15694745043E+03  0.15928617107E+03  0.10566000000E+00 0.  1.
         13    1    4    4    0    0  0.67534974488E+01 -0.15837107710E+01 -0.28448551319E+03  0.28457009022E+03  0.10566000000E+00 0.  1.
        -13    1    4    4    0    0  0.72644309944E+01 -0.10482627152E+01 -0.32531861662E+03  0.32540142024E+03  0.10566000000E+00 0. -1.
        -14    1    4    4    0    0  0.12620998091E+02 -0.28396374746E+01 -0.49312787904E+03  0.49329753519E+03  0.00000000000E+00 0.  1.
<mgrwt>
<rscale>  0 0.82154874E+02</rscale>
<asrwt>0</asrwt>
<pdfrwt beam="1">  1        2 0.19403248E+00 0.82154874E+02</pdfrwt>
<pdfrwt beam="2">  1       -1 0.20582850E-03 0.82154874E+02</pdfrwt>
<totfact> 0.32479065E+05</totfact>
</mgrwt>
</event>
<event>
 8    1  0.1226832E-020  0.8055937E+02  0.7818608E-02  0.1327471E+00
         -1   -1    0    0    0  501 -0.00000000000E+00  0.00000000000E+00  0.42269895763E+01  0.42269925810E+01  0.50400000000E-02 0.  1.
          2   -1    0    0  501    0  0.00000000000E+00 -0.00000000000E+00 -0.38383169949E+03  0.38383169950E+03  0.25500000000E-02 0. -1.
         24    2    1    2    0    0  0.00000000000E+00  0.35527136788E-14 -0.37960470991E+03  0.38805869208E+03  0.80559373817E+02 0.  0.
         66    2    3    3    0    0 -0.87007114522E+01 -0.20746057214E+02 -0.35072105018E+03  0.35144751573E+03  0.20000018357E+01 0.  0.
        -13    1    3    3    0    0  0.87007114522E+01  0.20746057214E+02 -0.28883659737E+02  0.36611176348E+02  0.10566000000E+00 0.  1.
         13    1    4    4    0    0 -0.73901828455E+01 -0.18125255600E+02 -0.30711426708E+03  0.30773742688E+03  0.10566000000E+00 0. -1.
        -13    1    4    4    0    0 -0.13211800218E+01 -0.25234614251E+01 -0.43085995283E+02  0.43180175170E+02  0.10566000000E+00 0.  1.
         14    1    4    4    0    0  0.10651415131E-01 -0.97340189800E-01 -0.52078781056E+00  0.52991368053E+00  0.00000000000E+00 0. -1.
<mgrwt>
<rscale>  0 0.80559374E+02</rscale>
<asrwt>0</asrwt>
<pdfrwt beam="1">  1        2 0.59051003E-01 0.80559374E+02</pdfrwt>
<pdfrwt beam="2">  1       -1 0.65030662E-03 0.80559374E+02</pdfrwt>
<totfact> 0.27344242E+05</totfact>
</mgrwt>
</event>
<event>
 8    1  0.1226832E-020  0.8281313E+02  0.7818608E-02  0.1321253E+00
         -1   -1    0    0    0  501 -0.00000000000E+00  0.00000000000E+00  0.12759647679E+01  0.12759747217E+01  0.50400000000E-02 0.  1.
          2   -1    0    0  501    0  0.00000000000E+00 -0.00000000000E+00 -0.13436868140E+04  0.13436868140E+04  0.25500000000E-02 0. -1.
         24    2    1    2    0    0  0.17763568394E-14  0.00000000000E+00 -0.13424108492E+04  0.13449627887E+04  0.82813132512E+02 0.  0.
         66    2    3    3    0    0  0.15546416764E+02  0.12614354327E+02 -0.12597970797E+04  0.12599577354E+04  0.19999947447E+01 0.  0.
        -13    1    3    3    0    0 -0.15546416764E+02 -0.12614354327E+02 -0.82613769530E+02  0.85005053316E+02  0.10566000000E+00 0.  1.
         13    1    4    4    0    0  0.13006808624E+02  0.10728367703E+02 -0.10564445253E+04  0.10565790652E+04  0.10566000000E+00 0. -1.
        -13    1    4    4    0    0  0.87336005585E+00  0.76012182034E+00 -0.98256164527E+02  0.98263042771E+02  0.10566000000E+00 0.  1.
         14    1    4    4    0    0  0.16662480840E+01  0.11258648038E+01 -0.10509638987E+03  0.10511562737E+03  0.00000000000E+00 0. -1.
<mgrwt>
<rscale>  0 0.82813133E+02</rscale>
<asrwt>0</asrwt>
<pdfrwt beam="1">  1        2 0.20671992E+00 0.82813133E+02</pdfrwt>
<pdfrwt beam="2">  1       -1 0.19630411E-03 0.82813133E+02</pdfrwt>
<totfact> 0.31418157E+05</totfact>
</mgrwt>
</event>
<event>
 8    1  0.1226832E-020  0.7885313E+02  0.7818608E-02  0.1332338E+00
         -1   -1    0    0    0  501 -0.00000000000E+00  0.00000000000E+00  0.20253766507E+03  0.20253766514E+03  0.50400000000E-02 0.  1.
          2   -1    0    0  501    0  0.00000000000E+00 -0.00000000000E+00 -0.76748888154E+01  0.76748892391E+01  0.25500000000E-02 0. -1.
         24    2    1    2    0    0  0.00000000000E+00 -0.35527136788E-14  0.19486277626E+03  0.21021255438E+03  0.78853132125E+02 0.  0.
         66    2    3    3    0    0  0.16486553796E+02  0.31526369393E+02  0.52352304709E+02  0.63328368404E+02  0.20000033079E+01 0.  0.
        -13    1    3    3    0    0 -0.16486553796E+02 -0.31526369393E+02  0.14251047155E+03  0.14688418597E+03  0.10566000000E+00 0.  1.
         13    1    4    4    0    0  0.10048584732E+02  0.19397360463E+02  0.32646828857E+02  0.39281780083E+02  0.10566000000E+00 0. -1.
        -13    1    4    4    0    0  0.11280698313E+01  0.19890877578E+01  0.25918012902E+01  0.34579776772E+01  0.10566000000E+00 0. -1.
        -14    1    4    4    0    0  0.53098992325E+01  0.10139921172E+02  0.17113674562E+02  0.20588610644E+02  0.00000000000E+00 0.  1.
<mgrwt>
<rscale>  0 0.78853132E+02</rscale>
<asrwt>0</asrwt>
<pdfrwt beam="1">  1        2 0.11807520E-02 0.78853132E+02</pdfrwt>
<pdfrwt beam="2">  1       -1 0.31159645E-01 0.78853132E+02</pdfrwt>
<totfact> 0.10293774E+05</totfact>
</mgrwt>
</event>
<event>
 8    1  0.1226832E-020  0.7833998E+02  0.7818608E-02  0.1333829E+00
         -1   -1    0    0    0  501 -0.00000000000E+00  0.00000000000E+00  0.56371679533E+02  0.56371679758E+02  0.50400000000E-02 0.  1.
          2   -1    0    0  501    0  0.00000000000E+00 -0.00000000000E+00 -0.27217353162E+02  0.27217353281E+02  0.25500000000E-02 0. -1.
         24    2    1    2    0    0 -0.35527136788E-14 -0.17763568394E-14  0.29154326371E+02  0.83589033039E+02  0.78339975098E+02 0.  0.
         66    2    3    3    0    0 -0.27637247800E+02 -0.12461743280E+02 -0.11834802835E+02  0.32606365508E+02  0.20000004896E+01 0.  0.
        -13    1    3    3    0    0  0.27637247800E+02  0.12461743280E+02  0.40989129205E+02  0.50982667531E+02  0.10566000000E+00 0.  1.
         13    1    4    4    0    0 -0.62087037932E+00 -0.16471112695E+00 -0.43326262772E+00  0.78197846738E+00  0.10566000000E+00 0.  1.
        -13    1    4    4    0    0 -0.50020831202E+01 -0.18037858434E+01 -0.17929846683E+01  0.56125250081E+01  0.10566000000E+00 0.  1.
         14    1    4    4    0    0 -0.22014294301E+02 -0.10493246310E+02 -0.96085555385E+01  0.26211862033E+02  0.00000000000E+00 0. -1.
<mgrwt>
<rscale>  0 0.78339975E+02</rscale>
<asrwt>0</asrwt>
<pdfrwt beam="1">  1        2 0.41872851E-02 0.78339975E+02</pdfrwt>
<pdfrwt beam="2">  1       -1 0.86725661E-02 0.78339975E+02</pdfrwt>
<totfact> 0.14001498E+05</totfact>
</mgrwt>
</event>
<event>
 8    1  0.1226832E-020  0.8224089E+02  0.7818608E-02  0.1322810E+00
          2   -1    0    0  501    0  0.00000000000E+00  0.00000000000E+00  0.90445426257E+03  0.90445426257E+03  0.25500000000E-02 0. -1.
         -1   -1    0    0    0  501 -0.00000000000E+00 -0.00000000000E+00 -0.18695118542E+01  0.18695186478E+01  0.50400000000E-02 0.  1.
         24    2    1    2    0    0  0.00000000000E+00 -0.88817841970E-15  0.90258475071E+03  0.90632378122E+03  0.82240891184E+02 0.  0.
         66    2    3    3    0    0 -0.19205249237E+02 -0.63830735623E+01  0.84572702041E+03  0.84597149969E+03  0.20000029412E+01 0.  0.
        -13    1    3    3    0    0  0.19205249237E+02  0.63830735623E+01  0.56857730306E+02  0.60352281531E+02  0.10566000000E+00 0.  1.
         13    1    4    4    0    0 -0.11638033447E+02 -0.43224392092E+01  0.52780411246E+03  0.52795011090E+03  0.10566000000E+00 0. -1.
        -13    1    4    4    0    0 -0.12565007381E+01 -0.70109439102E+00  0.66184637209E+02  0.66200360225E+02  0.10566000000E+00 0.  1.
         14    1    4    4    0    0 -0.63107150518E+01 -0.13595399621E+01  0.25173827074E+03  0.25182102857E+03  0.00000000000E+00 0. -1.
<mgrwt>
<rscale>  0 0.82240891E+02</rscale>
<asrwt>0</asrwt>
<pdfrwt beam="1">  1        2 0.13914666E+00 0.82240891E+02</pdfrwt>
<pdfrwt beam="2">  1       -1 0.28761805E-03 0.82240891E+02</pdfrwt>
<totfact> 0.32541687E+05</totfact>
</mgrwt>
</event>
<event>
 8    1  0.1226832E-020  0.7827920E+02  0.7818608E-02  0.1334007E+00
          2   -1    0    0  501    0  0.00000000000E+00  0.00000000000E+00  0.74788124340E+03  0.74788124340E+03  0.25500000000E-02 0. -1.
         -1   -1    0    0    0  501 -0.00000000000E+00 -0.00000000000E+00 -0.20483276201E+01  0.20483338207E+01  0.50400000000E-02 0.  1.
         24    2    1    2    0    0  0.88817841970E-15  0.35527136788E-14  0.74583291578E+03  0.74992957722E+03  0.78279196062E+02 0.  0.
         66    2    3    3    0    0 -0.61409615930E+01  0.23669115522E+02  0.66562419176E+03  0.66607619917E+03  0.20000002263E+01 0.  0.
        -13    1    3    3    0    0  0.61409615930E+01 -0.23669115522E+02  0.80208724016E+02  0.83853378055E+02  0.10566000000E+00 0.  1.
         13    1    4    4    0    0 -0.15628733604E+01  0.73859589576E+01  0.18983839979E+03  0.18998848428E+03  0.10566000000E+00 0. -1.
        -13    1    4    4    0    0 -0.25432448001E+01  0.73135184328E+01  0.20885838128E+03  0.20900189052E+03  0.10566000000E+00 0.  1.
        -14    1    4    4    0    0 -0.20348434325E+01  0.89696381316E+01  0.26692741070E+03  0.26708582437E+03  0.00000000000E+00 0.  1.
<mgrwt>
<rscale>  0 0.78279196E+02</rscale>
<asrwt>0</asrwt>
<pdfrwt beam="1">  1        2 0.11505877E+00 0.78279196E+02</pdfrwt>
<pdfrwt beam="2">  1       -1 0.31512749E-03 0.78279196E+02</pdfrwt>
<totfact> 0.35903765E+05</totfact>
</mgrwt>
</event>
<event>
 8    1  0.1226832E-020  0.7708426E+02  0.7818608E-02  0.1337536E+00
          2   -1    0    0  501    0  0.00000000000E+00  0.00000000000E+00  0.15677339466E+03  0.15677339468E+03  0.25500000000E-02 0. -1.
         -1   -1    0    0    0  501 -0.00000000000E+00 -0.00000000000E+00 -0.94754315594E+01  0.94754328998E+01  0.50400000000E-02 0.  1.
         24    2    1    2    0    0 -0.35527136788E-14  0.17763568394E-14  0.14729796310E+03  0.16624882758E+03  0.77084257395E+02 0.  0.
         66    2    3    3    0    0  0.28237321181E+02 -0.11416075921E+02  0.12454468905E+03  0.12823046700E+03  0.19999999135E+01 0.  0.
        -13    1    3    3    0    0 -0.28237321181E+02  0.11416075921E+02  0.22753274042E+02  0.38018360572E+02  0.10566000000E+00 0.  1.
         13    1    4    4    0    0  0.74700698468E+01 -0.24237696160E+01  0.31551704920E+02  0.32514579038E+02  0.10566000000E+00 0. -1.
        -13    1    4    4    0    0  0.12176577628E+02 -0.56631784172E+01  0.57354528263E+02  0.58905803694E+02  0.10566000000E+00 0.  1.
        -14    1    4    4    0    0  0.85906737059E+01 -0.33291278883E+01  0.35638455872E+02  0.36810084272E+02  0.00000000000E+00 0.  1.
<mgrwt>
<rscale>  0 0.77084257E+02</rscale>
<asrwt>0</asrwt>
<pdfrwt beam="1">  1        2 0.24118982E-01 0.77084257E+02</pdfrwt>
<pdfrwt beam="2">  1       -1 0.14577589E-02 0.77084257E+02</pdfrwt>
<totfact> 0.22416247E+05</totfact>
</mgrwt>
</event>
<event>
 8    1  0.1226832E-020  0.7962293E+02  0.7818608E-02  0.1330125E+00
         -1   -1    0    0    0  501 -0.00000000000E+00  0.00000000000E+00  0.52411624136E+01  0.52411648368E+01  0.50400000000E-02 0.  1.
          2   -1    0    0  501    0  0.00000000000E+00 -0.00000000000E+00 -0.30240477191E+03  0.30240477192E+03  0.25500000000E-02 0. -1.
         24    2    1    2    0    0  0.17763568394E-14 -0.71054273576E-14 -0.29716360950E+03  0.30764593676E+03  0.79622933848E+02 0.  0.
         66    2    3    3    0    0  0.13015889289E+02 -0.36979460976E+02 -0.17489614483E+03  0.17924719070E+03  0.19999977191E+01 0.  0.
        -13    1    3    3    0    0 -0.13015889289E+02  0.36979460976E+02 -0.12226746467E+03  0.12839874606E+03  0.10566000000E+00 0.  1.
         13    1    4    4    0    0  0.12206991922E+01 -0.31238529608E+01 -0.15823115457E+02  0.16175002647E+02  0.10566000000E+00 0. -1.
        -13    1    4    4    0    0  0.17694430416E+01 -0.71709325334E+01 -0.32450105159E+02  0.33280229731E+02  0.10566000000E+00 0. -1.
        -14    1    4    4    0    0  0.10025747056E+02 -0.26684675482E+02 -0.12662292421E+03  0.12979195832E+03  0.00000000000E+00 0.  1.
<mgrwt>
<rscale>  0 0.79622934E+02</rscale>
<asrwt>0</asrwt>
<pdfrwt beam="1">  1        2 0.46523798E-01 0.79622934E+02</pdfrwt>
<pdfrwt beam="2">  1       -1 0.80633310E-03 0.79622934E+02</pdfrwt>
<totfact> 0.25886839E+05</totfact>
</mgrwt>
</event>
<event>
 8    1  0.1226832E-020  0.8163979E+02  0.7818608E-02  0.1324461E+00
          2   -1    0    0  501    0  0.00000000000E+00  0.00000000000E+00  0.13938012743E+02  0.13938012977E+02  0.25500000000E-02 0. -1.
         -1   -1    0    0    0  501 -0.00000000000E+00 -0.00000000000E+00 -0.11954817071E+03  0.11954817081E+03  0.50400000000E-02 0.  1.
         24    2    1    2    0    0 -0.35527136788E-14 -0.17763568394E-14 -0.10561015796E+03  0.13348618379E+03  0.81639792979E+02 0.  0.
         66    2    3    3    0    0 -0.13497899899E+02 -0.15056413536E+02  0.50955572265E+01  0.20948832523E+02  0.19999975975E+01 0.  0.
        -13    1    3    3    0    0  0.13497899899E+02  0.15056413536E+02 -0.11070571519E+03  0.11253735126E+03  0.10566000000E+00 0.  1.
         13    1    4    4    0    0 -0.70879961119E+01 -0.71923203325E+01  0.26972236508E+01  0.10452527929E+02  0.10566000000E+00 0. -1.
        -13    1    4    4    0    0 -0.17837266638E+01 -0.18167380137E+01  0.10865485111E+01  0.27701930482E+01  0.10566000000E+00 0.  1.
        -14    1    4    4    0    0 -0.46261771232E+01 -0.60473551900E+01  0.13117850646E+01  0.77261115462E+01  0.00000000000E+00 0.  1.
<mgrwt>
<rscale>  0 0.81639793E+02</rscale>
<asrwt>0</asrwt>
<pdfrwt beam="1">  1        2 0.21443098E-02 0.81639793E+02</pdfrwt>
<pdfrwt beam="2">  1       -1 0.18392026E-01 0.81639793E+02</pdfrwt>
<totfact> 0.10828571E+05</totfact>
</mgrwt>
</event>
<event>
 8    1  0.1226832E-020  0.7930076E+02  0.7818608E-02  0.1331048E+00
          2   -1    0    0  501    0  0.00000000000E+00  0.00000000000E+00  0.86358759100E+03  0.86358759100E+03  0.25500000000E-02 0. -1.
         -1   -1    0    0    0  501 -0.00000000000E+00 -0.00000000000E+00 -0.18204866724E+01  0.18204936490E+01  0.50400000000E-02 0.  1.
         24    2    1    2    0    0  0.00000000000E+00  0.35527136788E-14  0.86176710432E+03  0.86540808465E+03  0.79300762172E+02 0.  0.
         66    2    3    3    0    0  0.18838184796E+01  0.21827498260E+02  0.79147702843E+03  0.79178271956E+03  0.19999993797E+01 0.  0.
        -13    1    3    3    0    0 -0.18838184796E+01 -0.21827498260E+02  0.70290075890E+02  0.73625365093E+02  0.10566000000E+00 0.  1.
         13    1    4    4    0    0  0.42082294910E+00  0.37688426592E+01  0.11246685862E+03  0.11253082564E+03  0.10566000000E+00 0. -1.
        -13    1    4    4    0    0  0.35847279190E+00  0.51467060661E+01  0.19534113755E+03  0.19540928399E+03  0.10566000000E+00 0. -1.
         14    1    4    4    0    0  0.11045227386E+01  0.12911949534E+02  0.48366903226E+03  0.48384260993E+03  0.00000000000E+00 0. -1.
<mgrwt>
<rscale>  0 0.79300762E+02</rscale>
<asrwt>0</asrwt>
<pdfrwt beam="1">  1        2 0.13285976E+00 0.79300762E+02</pdfrwt>
<pdfrwt beam="2">  1       -1 0.28007514E-03 0.79300762E+02</pdfrwt>
<totfact> 0.35572612E+05</totfact>
</mgrwt>
</event>
<event>
 8    1  0.1226832E-020  0.7938484E+02  0.7818608E-02  0.1330806E+00
          2   -1    0    0  501    0  0.00000000000E+00  0.00000000000E+00  0.96667226402E+02  0.96667226435E+02  0.25500000000E-02 0. -1.
         -1   -1    0    0    0  501 -0.00000000000E+00 -0.00000000000E+00 -0.16298060459E+02  0.16298061238E+02  0.50400000000E-02 0.  1.
         24    2    1    2    0    0  0.00000000000E+00 -0.35527136788E-14  0.80369165943E+02  0.11296528767E+03  0.79384843546E+02 0.  0.
         66    2    3    3    0    0  0.19923584085E+02 -0.24479960109E+02  0.74399719626E+02  0.80842661643E+02  0.20000028450E+01 0.  0.
        -13    1    3    3    0    0 -0.19923584085E+02  0.24479960109E+02  0.59694463168E+01  0.32122626031E+02  0.10566000000E+00 0.  1.
         13    1    4    4    0    0  0.45865440590E+01 -0.55207008196E+01  0.18104459298E+02  0.19475552225E+02  0.10566000000E+00 0. -1.
        -13    1    4    4    0    0  0.55648540613E+01 -0.65239339896E+01  0.18192485319E+02  0.20112359423E+02  0.10566000000E+00 0.  1.
        -14    1    4    4    0    0  0.97721859648E+01 -0.12435325300E+02  0.38102775008E+02  0.41254749995E+02  0.00000000000E+00 0.  1.
<mgrwt>
<rscale>  0 0.79384844E+02</rscale>
<asrwt>0</asrwt>
<pdfrwt beam="1">  1        2 0.14871881E-01 0.79384844E+02</pdfrwt>
<pdfrwt beam="2">  1       -1 0.25073939E-02 0.79384844E+02</pdfrwt>
<totfact> 0.17926576E+05</totfact>
</mgrwt>
</event>
<event>
 8    1  0.1226832E-020  0.7466112E+02  0.7818608E-02  0.1344924E+00
         -1   -1    0    0    0  501 -0.00000000000E+00  0.00000000000E+00  0.15394190856E+01  0.15394273360E+01  0.50400000000E-02 0.  1.
          2   -1    0    0  501    0  0.00000000000E+00 -0.00000000000E+00 -0.90525508861E+03  0.90525508861E+03  0.25500000000E-02 0. -1.
         24    2    1    2    0    0 -0.17763568394E-14  0.00000000000E+00 -0.90371566952E+03  0.90679451595E+03  0.74661119818E+02 0.  0.
         66    2    3    3    0    0 -0.13170620311E+02  0.14812627175E+02 -0.83600242168E+03  0.83623975523E+03  0.20000001577E+01 0.  0.
        -13    1    3    3    0    0  0.13170620311E+02 -0.14812627175E+02 -0.67713247839E+02  0.70554760720E+02  0.10566000000E+00 0.  1.
         13    1    4    4    0    0 -0.24597793624E+01  0.24005738375E+01 -0.15884909402E+03  0.15888630874E+03  0.10566000000E+00 0. -1.
        -13    1    4    4    0    0 -0.12662084545E+01  0.82935586362E+00 -0.65025511746E+02  0.65043212227E+02  0.10566000000E+00 0.  1.
         14    1    4    4    0    0 -0.94446324943E+01  0.11582697474E+02 -0.61212781591E+03  0.61231023426E+03  0.00000000000E+00 0. -1.
<mgrwt>
<rscale>  0 0.74661120E+02</rscale>
<asrwt>0</asrwt>
<pdfrwt beam="1">  1        2 0.13926959E+00 0.74661120E+02</pdfrwt>
<pdfrwt beam="2">  1       -1 0.23683506E-03 0.74661120E+02</pdfrwt>
<totfact> 0.41810847E+05</totfact>
</mgrwt>
</event>
<event>
 8    1  0.1226832E-020  0.8005260E+02  0.7818608E-02  0.1328902E+00
         -1   -1    0    0    0  501 -0.00000000000E+00  0.00000000000E+00  0.85384151823E+02  0.85384151972E+02  0.50400000000E-02 0.  1.
          2   -1    0    0  501    0  0.00000000000E+00 -0.00000000000E+00 -0.18763490032E+02  0.18763490205E+02  0.25500000000E-02 0. -1.
         24    2    1    2    0    0 -0.17763568394E-14 -0.17763568394E-14  0.66620661791E+02  0.10414764218E+03  0.80052600166E+02 0.  0.
         66    2    3    3    0    0 -0.14378317795E+02 -0.74971805214E+01 -0.14242428357E+02  0.21674651138E+02  0.19999995183E+01 0.  0.
        -13    1    3    3    0    0  0.14378317795E+02  0.74971805214E+01  0.80863090149E+02  0.82472991038E+02  0.10566000000E+00 0.  1.
         13    1    4    4    0    0 -0.95193392852E+00 -0.50919887388E+00 -0.13886075614E+01  0.17620603544E+01  0.10566000000E+00 0.  1.
        -13    1    4    4    0    0 -0.59682782648E+01 -0.39079243440E+01 -0.62737891640E+01  0.95007269530E+01  0.10566000000E+00 0.  1.
         14    1    4    4    0    0 -0.74581056016E+01 -0.30800573035E+01 -0.65800316317E+01  0.10411863831E+02  0.00000000000E+00 0. -1.
<mgrwt>
<rscale>  0 0.80052600E+02</rscale>
<asrwt>0</asrwt>
<pdfrwt beam="1">  1        2 0.28866908E-02 0.80052600E+02</pdfrwt>
<pdfrwt beam="2">  1       -1 0.13136024E-01 0.80052600E+02</pdfrwt>
<totfact> 0.12232164E+05</totfact>
</mgrwt>
</event>
<event>
 8    1  0.1226832E-020  0.8215867E+02  0.7818608E-02  0.1323035E+00
         -1   -1    0    0    0  501 -0.00000000000E+00  0.00000000000E+00  0.42581218532E+03  0.42581218534E+03  0.50400000000E-02 0.  1.
          2   -1    0    0  501    0  0.00000000000E+00 -0.00000000000E+00 -0.39630424523E+01  0.39630432727E+01  0.25500000000E-02 0. -1.
         24    2    1    2    0    0  0.00000000000E+00  0.00000000000E+00  0.42184914286E+03  0.42977522862E+03  0.82158674523E+02 0.  0.
         66    2    3    3    0    0 -0.36166292290E+02 -0.15250914331E+02  0.27402098814E+03  0.27682502241E+03  0.20000013647E+01 0.  0.
        -13    1    3    3    0    0  0.36166292290E+02  0.15250914331E+02  0.14782815472E+03  0.15295020620E+03  0.10566000000E+00 0.  1.
         13    1    4    4    0    0 -0.13178799609E+02 -0.55829714532E+01  0.96145136589E+02  0.97204674698E+02  0.10566000000E+00 0. -1.
        -13    1    4    4    0    0 -0.20889910192E+02 -0.89257357899E+01  0.16437796928E+03  0.16594030570E+03  0.10566000000E+00 0.  1.
         14    1    4    4    0    0 -0.20975824900E+01 -0.74220708790E+00  0.13497882270E+02  0.13680042012E+02  0.00000000000E+00 0. -1.
<mgrwt>
<rscale>  0 0.82158675E+02</rscale>
<asrwt>0</asrwt>
<pdfrwt beam="1">  1        2 0.60969917E-03 0.82158675E+02</pdfrwt>
<pdfrwt beam="2">  1       -1 0.65509538E-01 0.82158675E+02</pdfrwt>
<totfact> 0.68472433E+04</totfact>
</mgrwt>
</event>
<event>
 8    1  0.1226832E-020  0.8131782E+02  0.7818608E-02  0.1325353E+00
         -1   -1    0    0    0  501 -0.00000000000E+00  0.00000000000E+00  0.97424852412E+01  0.97424865449E+01  0.50400000000E-02 0.  1.
          2   -1    0    0  501    0  0.00000000000E+00 -0.00000000000E+00 -0.16968428538E+03  0.16968428540E+03  0.25500000000E-02 0. -1.
         24    2    1    2    0    0  0.00000000000E+00  0.00000000000E+00 -0.15994180014E+03  0.17942677195E+03  0.81317815137E+02 0.  0.
         66    2    3    3    0    0 -0.23548185218E+02 -0.28659351237E+02 -0.11662731613E+03  0.12240018929E+03  0.20000075315E+01 0.  0.
        -13    1    3    3    0    0  0.23548185218E+02  0.28659351237E+02 -0.43314484016E+02  0.57026582661E+02  0.10566000000E+00 0.  1.
         13    1    4    4    0    0 -0.32529088067E+01 -0.45413535927E+01 -0.17859400181E+02  0.18712953989E+02  0.10566000000E+00 0. -1.
        -13    1    4    4    0    0 -0.69679911836E+01 -0.91524904288E+01 -0.37593987912E+02  0.39314629254E+02  0.10566000000E+00 0.  1.
        -14    1    4    4    0    0 -0.13327285228E+02 -0.14965507216E+02 -0.61173928033E+02  0.64372606043E+02  0.00000000000E+00 0.  1.
<mgrwt>
<rscale>  0 0.81317815E+02</rscale>
<asrwt>0</asrwt>
<pdfrwt beam="1">  1        2 0.26105272E-01 0.81317815E+02</pdfrwt>
<pdfrwt beam="2">  1       -1 0.14988441E-02 0.81317815E+02</pdfrwt>
<totfact> 0.19972890E+05</totfact>
</mgrwt>
</event>
<event>
 8    1  0.1226832E-020  0.7642564E+02  0.7818608E-02  0.1339512E+00
         -1   -1    0    0    0  501 -0.00000000000E+00  0.00000000000E+00  0.18760627358E+02  0.18760628035E+02  0.50400000000E-02 0.  1.
          2   -1    0    0  501    0  0.00000000000E+00 -0.00000000000E+00 -0.77834253443E+02  0.77834253484E+02  0.25500000000E-02 0. -1.
         24    2    1    2    0    0  0.00000000000E+00  0.00000000000E+00 -0.59073626084E+02  0.96594881520E+02  0.76425635994E+02 0.  0.
         66    2    3    3    0    0  0.21359083614E+02  0.29903395169E+02 -0.42679177757E+02  0.56355440725E+02  0.19999974614E+01 0.  0.
        -13    1    3    3    0    0 -0.21359083614E+02 -0.29903395169E+02 -0.16394448328E+02  0.40239440795E+02  0.10566000000E+00 0.  1.
         13    1    4    4    0    0  0.63485460305E+01  0.98869651551E+01 -0.13829724746E+02  0.18147412137E+02  0.10566000000E+00 0. -1.
        -13    1    4    4    0    0  0.17603927274E+01  0.19388227854E+01 -0.26072942665E+01  0.36969127357E+01  0.10566000000E+00 0.  1.
        -14    1    4    4    0    0  0.13250144856E+02  0.18077607229E+02 -0.26242158744E+02  0.34511115852E+02  0.00000000000E+00 0.  1.
<mgrwt>
<rscale>  0 0.76425636E+02</rscale>
<asrwt>0</asrwt>
<pdfrwt beam="1">  1        2 0.11974500E-01 0.76425636E+02</pdfrwt>
<pdfrwt beam="2">  1       -1 0.28862505E-02 0.76425636E+02</pdfrwt>
<totfact> 0.18748314E+05</totfact>
</mgrwt>
</event>
<event>
 8    1  0.1226832E-020  0.7756776E+02  0.7818608E-02  0.1336099E+00
         -1   -1    0    0    0  501 -0.00000000000E+00  0.00000000000E+00  0.75577198642E+02  0.75577198810E+02  0.50400000000E-02 0.  1.
          2   -1    0    0  501    0  0.00000000000E+00 -0.00000000000E+00 -0.19902686042E+02  0.19902686205E+02  0.25500000000E-02 0. -1.
         24    2    1    2    0    0 -0.27755575616E-16  0.00000000000E+00  0.55674512600E+02  0.95479885015E+02  0.77567758052E+02 0.  0.
         66    2    3    3    0    0 -0.79446217037E-01  0.38300744313E+02  0.35161940316E+02  0.52031868807E+02  0.19999995270E+01 0.  0.
        -13    1    3    3    0    0  0.79446217037E-01 -0.38300744313E+02  0.20512572284E+02  0.43448016208E+02  0.10566000000E+00 0.  1.
         13    1    4    4    0    0  0.13819474659E+00  0.24955923274E+02  0.22005190838E+02  0.33272462970E+02  0.10566000000E+00 0. -1.
        -13    1    4    4    0    0 -0.30091842209E+00  0.53791998538E+01  0.57825272024E+01  0.79041209408E+01  0.10566000000E+00 0.  1.
        -14    1    4    4    0    0  0.83277458456E-01  0.79656211857E+01  0.73742222761E+01  0.10855284897E+02  0.00000000000E+00 0.  1.
<mgrwt>
<rscale>  0 0.77567758E+02</rscale>
<asrwt>0</asrwt>
<pdfrwt beam="1">  1        2 0.30619517E-02 0.77567758E+02</pdfrwt>
<pdfrwt beam="2">  1       -1 0.11627262E-01 0.77567758E+02</pdfrwt>
<totfact> 0.13550293E+05</totfact>
</mgrwt>
</event>
<event>
 8    1  0.1226832E-020  0.7946445E+02  0.7818608E-02  0.1330578E+00
         -1   -1    0    0    0  501 -0.00000000000E+00  0.00000000000E+00  0.56889724672E+01  0.56889746997E+01  0.50400000000E-02 0.  1.
          2   -1    0    0  501    0  0.00000000000E+00 -0.00000000000E+00 -0.27749288357E+03  0.27749288358E+03  0.25500000000E-02 0. -1.
         24    2    1    2    0    0  0.88817841970E-15  0.35527136788E-14 -0.27180391111E+03  0.28318185828E+03  0.79464449718E+02 0.  0.
         66    2    3    3    0    0 -0.33071023532E+01 -0.26972983070E+02 -0.23915878532E+03  0.24070605172E+03  0.19999993839E+01 0.  0.
        -13    1    3    3    0    0  0.33071023532E+01  0.26972983070E+02 -0.32645125787E+02  0.42475806565E+02  0.10566000000E+00 0.  1.
         13    1    4    4    0    0 -0.11785456187E+01 -0.74995458617E+01 -0.72123317489E+02  0.72521832903E+02  0.10566000000E+00 0. -1.
        -13    1    4    4    0    0 -0.57010516534E-01 -0.49837076661E+01 -0.43297999445E+02  0.43584039651E+02  0.10566000000E+00 0.  1.
         14    1    4    4    0    0 -0.20715462179E+01 -0.14489729542E+02 -0.12373746838E+03  0.12460017917E+03  0.00000000000E+00 0. -1.
<mgrwt>
<rscale>  0 0.79464450E+02</rscale>
<asrwt>0</asrwt>
<pdfrwt beam="1">  1        2 0.42691202E-01 0.79464450E+02</pdfrwt>
<pdfrwt beam="2">  1       -1 0.87522692E-03 0.79464450E+02</pdfrwt>
<totfact> 0.25224957E+05</totfact>
</mgrwt>
</event>
<event>
 8    1  0.1226832E-020  0.7967217E+02  0.7818608E-02  0.1329984E+00
          2   -1    0    0  501    0  0.00000000000E+00  0.00000000000E+00  0.30094993844E+03  0.30094993845E+03  0.25500000000E-02 0. -1.
         -1   -1    0    0    0  501 -0.00000000000E+00 -0.00000000000E+00 -0.52730144297E+01  0.52730168384E+01  0.50400000000E-02 0.  1.
         24    2    1    2    0    0  0.17763568394E-14  0.00000000000E+00  0.29567692401E+03  0.30622295529E+03  0.79672171765E+02 0.  0.
         66    2    3    3    0    0  0.13473669708E+02  0.37309231837E+02  0.16090307370E+03  0.16573266933E+03  0.20000008501E+01 0.  0.
        -13    1    3    3    0    0 -0.13473669708E+02 -0.37309231837E+02  0.13477385031E+03  0.14049028595E+03  0.10566000000E+00 0.  1.
         13    1    4    4    0    0  0.10710525927E+01  0.25990179390E+01  0.10260112935E+02  0.10638756007E+02  0.10566000000E+00 0. -1.
        -13    1    4    4    0    0  0.53671244453E+01  0.15470563076E+02  0.63923794321E+02  0.65987930647E+02  0.10566000000E+00 0.  1.
         14    1    4    4    0    0  0.70354926705E+01  0.19239650822E+02  0.86719166443E+02  0.89105982680E+02  0.00000000000E+00 0. -1.
<mgrwt>
<rscale>  0 0.79672172E+02</rscale>
<asrwt>0</asrwt>
<pdfrwt beam="1">  1        2 0.46300005E-01 0.79672172E+02</pdfrwt>
<pdfrwt beam="2">  1       -1 0.81123293E-03 0.79672172E+02</pdfrwt>
<totfact> 0.25799887E+05</totfact>
</mgrwt>
</event>
<event>
 8    1  0.1226832E-020  0.7806175E+02  0.7818608E-02  0.1334644E+00
         -1   -1    0    0    0  501 -0.00000000000E+00  0.00000000000E+00  0.14740825001E+03  0.14740825010E+03  0.50400000000E-02 0.  1.
          2   -1    0    0  501    0  0.00000000000E+00 -0.00000000000E+00 -0.10334626904E+02  0.10334627219E+02  0.25500000000E-02 0. -1.
         24    2    1    2    0    0 -0.35527136788E-14  0.35527136788E-14  0.13707362311E+03  0.15774287732E+03  0.78061752429E+02 0.  0.
         66    2    3    3    0    0 -0.24091441073E+02 -0.29776145216E+02  0.83484309755E+02  0.91872990217E+02  0.19999998170E+01 0.  0.
        -13    1    3    3    0    0  0.24091441073E+02  0.29776145216E+02  0.53589313353E+02  0.65869887100E+02  0.10566000000E+00 0.  1.
         13    1    4    4    0    0 -0.67855031120E+01 -0.85836171096E+01  0.22470531061E+02  0.24993148368E+02  0.10566000000E+00 0. -1.
        -13    1    4    4    0    0 -0.54449719939E+01 -0.69317639486E+01  0.18301842567E+02  0.20314174284E+02  0.10566000000E+00 0.  1.
        -14    1    4    4    0    0 -0.11860965967E+02 -0.14260764157E+02  0.42711936127E+02  0.46565667565E+02  0.00000000000E+00 0.  1.
<mgrwt>
<rscale>  0 0.78061752E+02</rscale>
<asrwt>0</asrwt>
<pdfrwt beam="1">  1        2 0.15899427E-02 0.78061752E+02</pdfrwt>
<pdfrwt beam="2">  1       -1 0.22678191E-01 0.78061752E+02</pdfrwt>
<totfact> 0.11527444E+05</totfact>
</mgrwt>
</event>
<event>
 8    1  0.1226832E-020  0.8025950E+02  0.7818608E-02  0.1328317E+00
          2   -1    0    0  501    0  0.00000000000E+00  0.00000000000E+00  0.22678925510E+02  0.22678925654E+02  0.25500000000E-02 0. -1.
         -1   -1    0    0    0  501 -0.00000000000E+00 -0.00000000000E+00 -0.71008510629E+02  0.71008510807E+02  0.50400000000E-02 0.  1.
         24    2    1    2    0    0  0.00000000000E+00  0.00000000000E+00 -0.48329585118E+02  0.93687436461E+02  0.80259497587E+02 0.  0.
         66    2    3    3    0    0  0.24103673719E+02 -0.44154828073E+01  0.12879389922E+02  0.27755400509E+02  0.19999993713E+01 0.  0.
        -13    1    3    3    0    0 -0.24103673719E+02  0.44154828073E+01 -0.61208975041E+02  0.65932035952E+02  0.10566000000E+00 0.  1.
         13    1    4    4    0    0  0.10301898413E+02 -0.12976201096E+01  0.53845155693E+01  0.11696884235E+02  0.10566000000E+00 0.  1.
        -13    1    4    4    0    0  0.33149934407E+00  0.66144276759E-01  0.11372050704E+00  0.37197213577E+00  0.10566000000E+00 0. -1.
         14    1    4    4    0    0  0.13470275962E+02 -0.31840069744E+01  0.73811538461E+01  0.15686544138E+02  0.00000000000E+00 0. -1.
<mgrwt>
<rscale>  0 0.80259498E+02</rscale>
<asrwt>0</asrwt>
<pdfrwt beam="1">  1        2 0.34890655E-02 0.80259498E+02</pdfrwt>
<pdfrwt beam="2">  1       -1 0.10924386E-01 0.80259498E+02</pdfrwt>
<totfact> 0.12615457E+05</totfact>
</mgrwt>
</event>
<event>
 8    1  0.1226832E-020  0.8032587E+02  0.7818608E-02  0.1328129E+00
         -1   -1    0    0    0  501 -0.00000000000E+00  0.00000000000E+00  0.50425500601E+01  0.50425525789E+01  0.50400000000E-02 0.  1.
          2   -1    0    0  501    0  0.00000000000E+00 -0.00000000000E+00 -0.31988993839E+03  0.31988993840E+03  0.25500000000E-02 0. -1.
         24    2    1    2    0    0 -0.71054273576E-14 -0.35527136788E-14 -0.31484738833E+03  0.32493249098E+03  0.80325872269E+02 0.  0.
         66    2    3    3    0    0 -0.26036283193E+02 -0.21276839429E+02 -0.24618931182E+03  0.24848293524E+03  0.19999782541E+01 0.  0.
        -13    1    3    3    0    0  0.26036283193E+02  0.21276839429E+02 -0.68658076515E+02  0.76449555743E+02  0.10566000000E+00 0.  1.
         13    1    4    4    0    0 -0.17806084237E+02 -0.15123239081E+02 -0.16979962472E+03  0.17139922029E+03  0.10566000000E+00 0. -1.
        -13    1    4    4    0    0 -0.73277659669E+01 -0.53747077226E+01 -0.69495217637E+02  0.70086946542E+02  0.10566000000E+00 0.  1.
         14    1    4    4    0    0 -0.90243298853E+00 -0.77889262472E+00 -0.68944694566E+01  0.69967684046E+01  0.00000000000E+00 0. -1.
<mgrwt>
<rscale>  0 0.80325872E+02</rscale>
<asrwt>0</asrwt>
<pdfrwt beam="1">  1        2 0.49213821E-01 0.80325872E+02</pdfrwt>
<pdfrwt beam="2">  1       -1 0.77577738E-03 0.80325872E+02</pdfrwt>
<totfact> 0.25816563E+05</totfact>
</mgrwt>
</event>
<event>
 8    1  0.1226832E-020  0.7992613E+02  0.7818608E-02  0.1329261E+00
          2   -1    0    0  501    0  0.00000000000E+00  0.00000000000E+00  0.29798793858E+02  0.29798793967E+02  0.25500000000E-02 0. -1.
         -1   -1    0    0    0  501 -0.00000000000E+00 -0.00000000000E+00 -0.53594330401E+02  0.53594330638E+02  0.50400000000E-02 0.  1.
         24    2    1    2    0    0  0.00000000000E+00  0.35527136788E-14 -0.23795536543E+02  0.83393124605E+02  0.79926126342E+02 0.  0.
         66    2    3    3    0    0 -0.30544186988E+02 -0.24665931435E+02 -0.42602984417E+01  0.39541189368E+02  0.19999953691E+01 0.  0.
        -13    1    3    3    0    0  0.30544186988E+02  0.24665931435E+02 -0.19535238101E+02  0.43851935237E+02  0.10566000000E+00 0.  1.
         13    1    4    4    0    0 -0.11785879471E+02 -0.10671842061E+02 -0.20288797710E+01  0.16028807974E+02  0.10566000000E+00 0. -1.
        -13    1    4    4    0    0 -0.20796525946E+01 -0.15331093276E+01 -0.18288734737E+00  0.25922945323E+01  0.10566000000E+00 0.  1.
         14    1    4    4    0    0 -0.16678654922E+02 -0.12460980046E+02 -0.20485313233E+01  0.20920086862E+02  0.00000000000E+00 0. -1.
<mgrwt>
<rscale>  0 0.79926126E+02</rscale>
<asrwt>0</asrwt>
<pdfrwt beam="1">  1        2 0.45844298E-02 0.79926126E+02</pdfrwt>
<pdfrwt beam="2">  1       -1 0.82452817E-02 0.79926126E+02</pdfrwt>
<totfact> 0.13472214E+05</totfact>
</mgrwt>
</event>
<event>
 8    1  0.1226832E-020  0.7945063E+02  0.7818608E-02  0.1330618E+00
          2   -1    0    0  501    0  0.00000000000E+00  0.00000000000E+00  0.16406136765E+02  0.16406136963E+02  0.25500000000E-02 0. -1.
         -1   -1    0    0    0  501 -0.00000000000E+00 -0.00000000000E+00 -0.96189645156E+02  0.96189645289E+02  0.50400000000E-02 0.  1.
         24    2    1    2    0    0  0.00000000000E+00  0.35527136788E-14 -0.79783508391E+02  0.11259578225E+03  0.79450625986E+02 0.  0.
         66    2    3    3    0    0 -0.17731176233E+02 -0.19537868411E+02  0.21227157647E+01  0.26544845986E+02  0.20000033905E+01 0.  0.
        -13    1    3    3    0    0  0.17731176233E+02  0.19537868411E+02 -0.81906224156E+02  0.86050936266E+02  0.10566000000E+00 0.  1.
         13    1    4    4    0    0 -0.76054244893E+01 -0.90020921852E+01  0.92566536216E+00  0.11821512838E+02  0.10566000000E+00 0. -1.
        -13    1    4    4    0    0 -0.91074585826E+00 -0.15670292033E+01  0.15426095519E+00  0.18220864470E+01  0.10566000000E+00 0.  1.
         14    1    4    4    0    0 -0.92150058855E+01 -0.89687470223E+01  0.10427894473E+01  0.12901246701E+02  0.00000000000E+00 0. -1.
<mgrwt>
<rscale>  0 0.79450626E+02</rscale>
<asrwt>0</asrwt>
<pdfrwt beam="1">  1        2 0.25240211E-02 0.79450626E+02</pdfrwt>
<pdfrwt beam="2">  1       -1 0.14798407E-01 0.79450626E+02</pdfrwt>
<totfact> 0.12158210E+05</totfact>
</mgrwt>
</event>
<event>
 8    1  0.1226832E-020  0.7848616E+02  0.7818608E-02  0.1333403E+00
         -1   -1    0    0    0  501 -0.00000000000E+00  0.00000000000E+00  0.71198004764E+01  0.71198022602E+01  0.50400000000E-02 0.  1.
          2   -1    0    0  501    0  0.00000000000E+00 -0.00000000000E+00 -0.21630086587E+03  0.21630086588E+03  0.25500000000E-02 0. -1.
         24    2    1    2    0    0 -0.44408920985E-15  0.00000000000E+00 -0.20918106539E+03  0.22342066814E+03  0.78486156965E+02 0.  0.
         66    2    3    3    0    0 -0.37206142007E+01 -0.22838203553E+02 -0.19479284668E+03  0.19617257622E+03  0.20000082123E+01 0.  0.
        -13    1    3    3    0    0  0.37206142007E+01  0.22838203553E+02 -0.14388218713E+02  0.27248091921E+02  0.10566000000E+00 0.  1.
         13    1    4    4    0    0 -0.20779233060E+01 -0.10473694220E+02 -0.96179127723E+02  0.96770097703E+02  0.10566000000E+00 0. -1.
        -13    1    4    4    0    0 -0.51505672682E+00 -0.66197981672E+01 -0.51415687569E+02  0.51842753625E+02  0.10566000000E+00 0.  1.
         14    1    4    4    0    0 -0.11276341679E+01 -0.57447111662E+01 -0.47198031388E+02  0.47559724895E+02  0.00000000000E+00 0. -1.
<mgrwt>
<rscale>  0 0.78486157E+02</rscale>
<asrwt>0</asrwt>
<pdfrwt beam="1">  1        2 0.33277051E-01 0.78486157E+02</pdfrwt>
<pdfrwt beam="2">  1       -1 0.10953542E-02 0.78486157E+02</pdfrwt>
<totfact> 0.23840698E+05</totfact>
</mgrwt>
</event>
<event>
 8    1  0.1226832E-020  0.7751010E+02  0.7818608E-02  0.1336270E+00
          2   -1    0    0  501    0  0.00000000000E+00  0.00000000000E+00  0.16901341842E+02  0.16901342034E+02  0.25500000000E-02 0. -1.
         -1   -1    0    0    0  501 -0.00000000000E+00 -0.00000000000E+00 -0.88865962507E+02  0.88865962650E+02  0.50400000000E-02 0.  1.
         24    2    1    2    0    0  0.00000000000E+00  0.17763568394E-14 -0.71964620665E+02  0.10576730468E+03  0.77510103294E+02 0.  0.
         66    2    3    3    0    0 -0.33218552006E+02 -0.15594207170E+02 -0.19111098471E+02  0.41423249271E+02  0.20000001863E+01 0.  0.
        -13    1    3    3    0    0  0.33218552006E+02  0.15594207170E+02 -0.52853522194E+02  0.64344055413E+02  0.10566000000E+00 0.  1.
         13    1    4    4    0    0 -0.86973344927E+01 -0.38648140497E+01 -0.42118142385E+01  0.10408215896E+02  0.10566000000E+00 0.  1.
        -13    1    4    4    0    0 -0.20224377016E+02 -0.10038130907E+02 -0.12134795487E+02  0.25633063090E+02  0.10566000000E+00 0. -1.
         14    1    4    4    0    0 -0.42968404969E+01 -0.16912622133E+01 -0.27644887452E+01  0.53819702854E+01  0.00000000000E+00 0. -1.
<mgrwt>
<rscale>  0 0.77510103E+02</rscale>
<asrwt>0</asrwt>
<pdfrwt beam="1">  1        2 0.26002065E-02 0.77510103E+02</pdfrwt>
<pdfrwt beam="2">  1       -1 0.13671686E-01 0.77510103E+02</pdfrwt>
<totfact> 0.13142717E+05</totfact>
</mgrwt>
</event>
<event>
 8    1  0.1226832E-020  0.8117232E+02  0.7818608E-02  0.1325757E+00
          2   -1    0    0  501    0  0.00000000000E+00  0.00000000000E+00  0.56949901305E+03  0.56949901305E+03  0.25500000000E-02 0. -1.
         -1   -1    0    0    0  501 -0.00000000000E+00 -0.00000000000E+00 -0.28924283437E+01  0.28924327347E+01  0.50400000000E-02 0.  1.
         24    2    1    2    0    0  0.00000000000E+00  0.00000000000E+00  0.56660658470E+03  0.57239144579E+03  0.81172319059E+02 0.  0.
         66    2    3    3    0    0  0.58329950357E+01 -0.11158125487E+02  0.55536740864E+03  0.55551371377E+03  0.20000027693E+01 0.  0.
        -13    1    3    3    0    0 -0.58329950357E+01  0.11158125487E+02  0.11239176066E+02  0.16877732020E+02  0.10566000000E+00 0.  1.
         13    1    4    4    0    0  0.23442696384E+01 -0.47145985357E+01  0.20645059868E+03  0.20651775686E+03  0.10566000000E+00 0. -1.
        -13    1    4    4    0    0  0.94700190005E+00 -0.94793120814E+00  0.51627958689E+02  0.51645451577E+02  0.10566000000E+00 0.  1.
        -14    1    4    4    0    0  0.25417234973E+01 -0.54955957434E+01  0.29728885127E+03  0.29735050533E+03  0.00000000000E+00 0.  1.
<mgrwt>
<rscale>  0 0.81172319E+02</rscale>
<asrwt>0</asrwt>
<pdfrwt beam="1">  1        2 0.87615279E-01 0.81172319E+02</pdfrwt>
<pdfrwt beam="2">  1       -1 0.44498908E-03 0.81172319E+02</pdfrwt>
<totfact> 0.30509946E+05</totfact>
</mgrwt>
</event>
<event>
 8    1  0.1226832E-020  0.7702130E+02  0.7818608E-02  0.1337724E+00
          2   -1    0    0  501    0  0.00000000000E+00  0.00000000000E+00  0.10431517631E+02  0.10431517942E+02  0.25500000000E-02 0. -1.
         -1   -1    0    0    0  501 -0.00000000000E+00 -0.00000000000E+00 -0.14217203280E+03  0.14217203289E+03  0.50400000000E-02 0.  1.
         24    2    1    2    0    0 -0.35527136788E-14 -0.88817841970E-15 -0.13174051517E+03  0.15260355084E+03  0.77021298285E+02 0.  0.
         66    2    3    3    0    0  0.23230928445E+02  0.59910359408E+01 -0.62938272116E+01  0.24883344006E+02  0.19999999692E+01 0.  0.
        -13    1    3    3    0    0 -0.23230928445E+02 -0.59910359408E+01 -0.12544668796E+03  0.12772020683E+03  0.10566000000E+00 0.  1.
         13    1    4    4    0    0  0.46333221423E+01  0.90174894654E+00 -0.17730479247E+01  0.50433806336E+01  0.10566000000E+00 0. -1.
        -13    1    4    4    0    0  0.78683022874E+01  0.26897968610E+01 -0.16703019104E+01  0.84821141555E+01  0.10566000000E+00 0.  1.
        -14    1    4    4    0    0  0.10729304016E+02  0.23994901333E+01 -0.28504773765E+01  0.11357849217E+02  0.00000000000E+00 0.  1.
<mgrwt>
<rscale>  0 0.77021298E+02</rscale>
<asrwt>0</asrwt>
<pdfrwt beam="1">  1        2 0.16048490E-02 0.77021298E+02</pdfrwt>
<pdfrwt beam="2">  1       -1 0.21872619E-01 0.77021298E+02</pdfrwt>
<totfact> 0.12031860E+05</totfact>
</mgrwt>
</event>
<event>
 8    1  0.1226832E-020  0.8211926E+02  0.7818608E-02  0.1323143E+00
         -1   -1    0    0    0  501 -0.00000000000E+00  0.00000000000E+00  0.14353833616E+01  0.14353922100E+01  0.50400000000E-02 0.  1.
          2   -1    0    0  501    0  0.00000000000E+00 -0.00000000000E+00 -0.11745210563E+04  0.11745210564E+04  0.25500000000E-02 0. -1.
         24    2    1    2    0    0 -0.88817841970E-15  0.00000000000E+00 -0.11730856730E+04  0.11759564486E+04  0.82119259286E+02 0.  0.
         66    2    3    3    0    0 -0.79376643635E+01  0.24711532556E+02 -0.10420398234E+04  0.10423649360E+04  0.20000003246E+01 0.  0.
        -13    1    3    3    0    0  0.79376643635E+01 -0.24711532556E+02 -0.13104584961E+03  0.13359151254E+03  0.10566000000E+00 0.  1.
         13    1    4    4    0    0 -0.25877356599E+01  0.62216368104E+01 -0.27314491991E+03  0.27322804318E+03  0.10566000000E+00 0. -1.
        -13    1    4    4    0    0 -0.29897663353E+00  0.24753563465E+01 -0.94108805908E+02  0.94141889134E+02  0.10566000000E+00 0.  1.
         14    1    4    4    0    0 -0.50509520700E+01  0.16014539399E+02 -0.67478609755E+03  0.67499500371E+03  0.00000000000E+00 0. -1.
<mgrwt>
<rscale>  0 0.82119259E+02</rscale>
<asrwt>0</asrwt>
<pdfrwt beam="1">  1        2 0.18069478E+00 0.82119259E+02</pdfrwt>
<pdfrwt beam="2">  1       -1 0.22082983E-03 0.82119259E+02</pdfrwt>
<totfact> 0.32805845E+05</totfact>
</mgrwt>
</event>
<event>
 8    1  0.1226832E-020  0.7905448E+02  0.7818608E-02  0.1331756E+00
         -1   -1    0    0    0  501 -0.00000000000E+00  0.00000000000E+00  0.11647778493E+02  0.11647779583E+02  0.50400000000E-02 0.  1.
          2   -1    0    0  501    0  0.00000000000E+00 -0.00000000000E+00 -0.13413740106E+03  0.13413740109E+03  0.25500000000E-02 0. -1.
         24    2    1    2    0    0  0.00000000000E+00 -0.71054273576E-14 -0.12248962257E+03  0.14578518067E+03  0.79054482894E+02 0.  0.
         66    2    3    3    0    0 -0.68235478238E+01 -0.38111448130E+02 -0.75728663127E+02  0.85075693968E+02  0.20000004170E+01 0.  0.
        -13    1    3    3    0    0  0.68235478238E+01  0.38111448130E+02 -0.46760959442E+02  0.60709486700E+02  0.10566000000E+00 0.  1.
         13    1    4    4    0    0 -0.18190987457E+01 -0.78054474107E+01 -0.15178464924E+02  0.17164821322E+02  0.10566000000E+00 0. -1.
        -13    1    4    4    0    0 -0.20124111439E+01 -0.10569447211E+02 -0.19839442981E+02  0.22569396863E+02  0.10566000000E+00 0.  1.
        -14    1    4    4    0    0 -0.29920379342E+01 -0.19736553509E+02 -0.40710755222E+02  0.45341475783E+02  0.00000000000E+00 0.  1.
<mgrwt>
<rscale>  0 0.79054483E+02</rscale>
<asrwt>0</asrwt>
<pdfrwt beam="1">  1        2 0.20636522E-01 0.79054483E+02</pdfrwt>
<pdfrwt beam="2">  1       -1 0.17919661E-02 0.79054483E+02</pdfrwt>
<totfact> 0.19953925E+05</totfact>
</mgrwt>
</event>
<event>
 8    1  0.1226832E-020  0.8051978E+02  0.7818608E-02  0.1327583E+00
         -1   -1    0    0    0  501 -0.00000000000E+00  0.00000000000E+00  0.21559384917E+03  0.21559384923E+03  0.50400000000E-02 0.  1.
          2   -1    0    0  501    0  0.00000000000E+00 -0.00000000000E+00 -0.75181113783E+01  0.75181118108E+01  0.25500000000E-02 0. -1.
         24    2    1    2    0    0  0.35527136788E-14  0.35527136788E-14  0.20807573779E+03  0.22311196104E+03  0.80519777083E+02 0.  0.
         66    2    3    3    0    0 -0.29460078940E+02 -0.17177501139E+02  0.44938802034E+02  0.56448726435E+02  0.19999978325E+01 0.  0.
        -13    1    3    3    0    0  0.29460078940E+02  0.17177501139E+02  0.16313693576E+03  0.16666323461E+03  0.10566000000E+00 0.  1.
         13    1    4    4    0    0 -0.19716004483E+02 -0.11317243658E+02  0.28554336802E+02  0.36498796570E+02  0.10566000000E+00 0. -1.
        -13    1    4    4    0    0 -0.15737270380E+01 -0.11256472083E+01  0.28981882569E+01  0.34863100315E+01  0.10566000000E+00 0.  1.
         14    1    4    4    0    0 -0.81703474187E+01 -0.47346102728E+01  0.13486276975E+02  0.16463619833E+02  0.00000000000E+00 0. -1.
<mgrwt>
<rscale>  0 0.80519777E+02</rscale>
<asrwt>0</asrwt>
<pdfrwt beam="1">  1        2 0.11566326E-02 0.80519777E+02</pdfrwt>
<pdfrwt beam="2">  1       -1 0.33168285E-01 0.80519777E+02</pdfrwt>
<totfact> 0.95717871E+04</totfact>
</mgrwt>
</event>
<event>
 8    1  0.1226832E-020  0.8058885E+02  0.7818608E-02  0.1327389E+00
          2   -1    0    0  501    0  0.00000000000E+00  0.00000000000E+00  0.27297123927E+03  0.27297123929E+03  0.25500000000E-02 0. -1.
         -1   -1    0    0    0  501 -0.00000000000E+00 -0.00000000000E+00 -0.59480270225E+01  0.59480291578E+01  0.50400000000E-02 0.  1.
         24    2    1    2    0    0  0.71054273576E-14 -0.35527136788E-14  0.26702321225E+03  0.27891926844E+03  0.80588848038E+02 0.  0.
         66    2    3    3    0    0 -0.36531639757E+02  0.16561039490E+02  0.14597945255E+03  0.15140287083E+03  0.19999995248E+01 0.  0.
        -13    1    3    3    0    0  0.36531639757E+02 -0.16561039490E+02  0.12104375971E+03  0.12751639761E+03  0.10566000000E+00 0.  1.
         13    1    4    4    0    0 -0.12642192789E+02  0.54857241223E+01  0.48720848627E+02  0.50632504013E+02  0.10566000000E+00 0. -1.
        -13    1    4    4    0    0 -0.18881019179E+02  0.88602627774E+01  0.79141013631E+02  0.81843193634E+02  0.10566000000E+00 0.  1.
        -14    1    4    4    0    0 -0.50084277880E+01  0.22150525901E+01  0.18117590288E+02  0.18927173184E+02  0.00000000000E+00 0.  1.
<mgrwt>
<rscale>  0 0.80588848E+02</rscale>
<asrwt>0</asrwt>
<pdfrwt beam="1">  1        2 0.41995576E-01 0.80588848E+02</pdfrwt>
<pdfrwt beam="2">  1       -1 0.91508123E-03 0.80588848E+02</pdfrwt>
<totfact> 0.24167300E+05</totfact>
</mgrwt>
</event>
<event>
 8    1  0.1226832E-020  0.7996684E+02  0.7818608E-02  0.1329146E+00
          2   -1    0    0  501    0  0.00000000000E+00  0.00000000000E+00  0.41867481540E+02  0.41867481618E+02  0.25500000000E-02 0. -1.
         -1   -1    0    0    0  501 -0.00000000000E+00 -0.00000000000E+00 -0.38184140543E+02  0.38184140875E+02  0.50400000000E-02 0.  1.
         24    2    1    2    0    0  0.00000000000E+00  0.00000000000E+00  0.36833409976E+01  0.80051622494E+02  0.79966838520E+02 0.  0.
         66    2    3    3    0    0 -0.36269479042E+02 -0.15173295528E+02  0.89893552236E+01  0.40379605174E+02  0.19999998723E+01 0.  0.
        -13    1    3    3    0    0  0.36269479042E+02  0.15173295528E+02 -0.53060142260E+01  0.39672017319E+02  0.10566000000E+00 0.  1.
         13    1    4    4    0    0 -0.27626341142E+02 -0.12435485144E+02  0.68129621726E+01  0.31052916663E+02  0.10566000000E+00 0. -1.
        -13    1    4    4    0    0 -0.22560269450E+01 -0.75601711288E+00  0.56227080673E+00  0.24471477166E+01  0.10566000000E+00 0. -1.
         14    1    4    4    0    0 -0.63871109553E+01 -0.19817932711E+01  0.16141222443E+01  0.68795407946E+01  0.00000000000E+00 0. -1.
<mgrwt>
<rscale>  0 0.79966839E+02</rscale>
<asrwt>0</asrwt>
<pdfrwt beam="1">  1        2 0.64411510E-02 0.79966839E+02</pdfrwt>
<pdfrwt beam="2">  1       -1 0.58744832E-02 0.79966839E+02</pdfrwt>
<totfact> 0.14406663E+05</totfact>
</mgrwt>
</event>
<event>
 8    1  0.1226832E-020  0.8020805E+02  0.7818608E-02  0.1328462E+00
          2   -1    0    0  501    0  0.00000000000E+00  0.00000000000E+00  0.38839374724E+03  0.38839374725E+03  0.25500000000E-02 0. -1.
         -1   -1    0    0    0  501 -0.00000000000E+00 -0.00000000000E+00 -0.41409841862E+01  0.41409872533E+01  0.50400000000E-02 0.  1.
         24    2    1    2    0    0  0.00000000000E+00  0.17763568394E-14  0.38425276306E+03  0.39253473450E+03  0.80208053684E+02 0.  0.
         66    2    3    3    0    0 -0.50270045743E+00  0.11739777725E+02  0.37977109925E+03  0.37995810684E+03  0.20000106394E+01 0.  0.
        -13    1    3    3    0    0  0.50270045743E+00 -0.11739777725E+02  0.44816638062E+01  0.12576627659E+02  0.10566000000E+00 0.  1.
         13    1    4    4    0    0 -0.18901139063E+00  0.50515793965E+01  0.16415187244E+03  0.16422972499E+03  0.10566000000E+00 0. -1.
        -13    1    4    4    0    0 -0.78377000982E+00  0.20105238265E+01  0.67516364944E+02  0.67550923019E+02  0.10566000000E+00 0.  1.
        -14    1    4    4    0    0  0.47008094301E+00  0.46776745019E+01  0.14810286186E+03  0.14817745883E+03  0.00000000000E+00 0.  1.
<mgrwt>
<rscale>  0 0.80208054E+02</rscale>
<asrwt>0</asrwt>
<pdfrwt beam="1">  1        2 0.59752892E-01 0.80208054E+02</pdfrwt>
<pdfrwt beam="2">  1       -1 0.63707464E-03 0.80208054E+02</pdfrwt>
<totfact> 0.27774040E+05</totfact>
</mgrwt>
</event>
<event>
 8    1  0.1226832E-020  0.7967124E+02  0.7818608E-02  0.1329987E+00
          2   -1    0    0  501    0  0.00000000000E+00  0.00000000000E+00  0.85750409141E+01  0.85750412933E+01  0.25500000000E-02 0. -1.
         -1   -1    0    0    0  501 -0.00000000000E+00 -0.00000000000E+00 -0.18505759759E+03  0.18505759766E+03  0.50400000000E-02 0.  1.
         24    2    1    2    0    0  0.00000000000E+00 -0.35527136788E-14 -0.17648255668E+03  0.19363263896E+03  0.79671237324E+02 0.  0.
         66    2    3    3    0    0  0.28813256396E+02  0.22457799545E+02 -0.49844595196E+02  0.61830738524E+02  0.20000129213E+01 0.  0.
        -13    1    3    3    0    0 -0.28813256396E+02 -0.22457799545E+02 -0.12663796148E+03  0.13180190043E+03  0.10566000000E+00 0.  1.
         13    1    4    4    0    0  0.18661387015E+01  0.19477664595E+01 -0.41967524011E+01  0.49900062711E+01  0.10566000000E+00 0.  1.
        -13    1    4    4    0    0  0.15547796565E+02  0.11554951392E+02 -0.25828779377E+02  0.32286032395E+02  0.10566000000E+00 0. -1.
        -14    1    4    4    0    0  0.11399321129E+02  0.89550816933E+01 -0.19819063418E+02  0.24554699858E+02  0.00000000000E+00 0.  1.
<mgrwt>
<rscale>  0 0.79671237E+02</rscale>
<asrwt>0</asrwt>
<pdfrwt beam="1">  1        2 0.13192372E-02 0.79671237E+02</pdfrwt>
<pdfrwt beam="2">  1       -1 0.28470397E-01 0.79671237E+02</pdfrwt>
<totfact> 0.10298572E+05</totfact>
</mgrwt>
</event>
<event>
 8    1  0.1226832E-020  0.8000143E+02  0.7818608E-02  0.1329047E+00
          2   -1    0    0  501    0  0.00000000000E+00  0.00000000000E+00  0.43046028792E+03  0.43046028793E+03  0.25500000000E-02 0. -1.
         -1   -1    0    0    0  501 -0.00000000000E+00 -0.00000000000E+00 -0.37170824265E+01  0.37170858434E+01  0.50400000000E-02 0.  1.
         24    2    1    2    0    0  0.88817841970E-15  0.00000000000E+00  0.42674320550E+03  0.43417737378E+03  0.80001427862E+02 0.  0.
         66    2    3    3    0    0 -0.53248262948E+01  0.39599947417E+02  0.20676413892E+03  0.21059895239E+03  0.19999990088E+01 0.  0.
        -13    1    3    3    0    0  0.53248262948E+01 -0.39599947417E+02  0.21997906658E+03  0.22357842138E+03  0.10566000000E+00 0.  1.
         13    1    4    4    0    0 -0.31320473454E+01  0.21529430356E+02  0.10957840512E+03  0.11171734031E+03  0.10566000000E+00 0. -1.
        -13    1    4    4    0    0 -0.76497887074E+00  0.39973598375E+01  0.19938479987E+02  0.20349895001E+02  0.10566000000E+00 0.  1.
        -14    1    4    4    0    0 -0.14278000786E+01  0.14073157223E+02  0.77247253809E+02  0.78531717085E+02  0.00000000000E+00 0.  1.
<mgrwt>
<rscale>  0 0.80001428E+02</rscale>
<asrwt>0</asrwt>
<pdfrwt beam="1">  1        2 0.66224687E-01 0.80001428E+02</pdfrwt>
<pdfrwt beam="2">  1       -1 0.57185887E-03 0.80001428E+02</pdfrwt>
<totfact> 0.28978226E+05</totfact>
</mgrwt>
</event>
<event>
 8    1  0.1226832E-020  0.7679549E+02  0.7818608E-02  0.1338399E+00
          2   -1    0    0  501    0  0.00000000000E+00  0.00000000000E+00  0.45706526771E+03  0.45706526772E+03  0.25500000000E-02 0. -1.
         -1   -1    0    0    0  501 -0.00000000000E+00 -0.00000000000E+00 -0.32257670239E+01  0.32257709612E+01  0.50400000000E-02 0.  1.
         24    2    1    2    0    0  0.00000000000E+00  0.00000000000E+00  0.45383950068E+03  0.46029103868E+03  0.76795494038E+02 0.  0.
         66    2    3    3    0    0  0.33904697822E+02  0.77639838778E+01  0.32419636888E+03  0.32606302086E+03  0.19999986103E+01 0.  0.
        -13    1    3    3    0    0 -0.33904697822E+02 -0.77639838778E+01  0.12964313180E+03  0.13422801782E+03  0.10566000000E+00 0.  1.
         13    1    4    4    0    0  0.28370025164E+02  0.66466648764E+01  0.27584276497E+03  0.27737750203E+03  0.10566000000E+00 0. -1.
        -13    1    4    4    0    0  0.42665631135E+01  0.72823599254E+00  0.38626976886E+02  0.38868861520E+02  0.10566000000E+00 0.  1.
        -14    1    4    4    0    0  0.12681095444E+01  0.38908300883E+00  0.97266270255E+01  0.98166573078E+01  0.00000000000E+00 0.  1.
<mgrwt>
<rscale>  0 0.76795494E+02</rscale>
<asrwt>0</asrwt>
<pdfrwt beam="1">  1        2 0.70317751E-01 0.76795494E+02</pdfrwt>
<pdfrwt beam="2">  1       -1 0.49627203E-03 0.76795494E+02</pdfrwt>
<totfact> 0.32892910E+05</totfact>
</mgrwt>
</event>
<event>
 8    1  0.1226832E-020  0.7954762E+02  0.7818608E-02  0.1330340E+00
          2   -1    0    0  501    0  0.00000000000E+00  0.00000000000E+00  0.53687826791E+03  0.53687826792E+03  0.25500000000E-02 0. -1.
         -1   -1    0    0    0  501 -0.00000000000E+00 -0.00000000000E+00 -0.29465800764E+01  0.29465843868E+01  0.50400000000E-02 0.  1.
         24    2    1    2    0    0 -0.88817841970E-15 -0.35527136788E-14  0.53393168783E+03  0.53982485230E+03  0.79547620272E+02 0.  0.
         66    2    3    3    0    0 -0.51553942329E+01 -0.15776518475E+02  0.51223421483E+03  0.51250694383E+03  0.19999998096E+01 0.  0.
        -13    1    3    3    0    0  0.51553942329E+01  0.15776518475E+02  0.21697472999E+02  0.27317908476E+02  0.10566000000E+00 0.  1.
         13    1    4    4    0    0 -0.13810003082E+01 -0.47259785704E+01  0.13055553626E+03  0.13064838785E+03  0.10566000000E+00 0. -1.
        -13    1    4    4    0    0 -0.23979724143E+01 -0.71752017553E+01  0.26209087385E+03  0.26220005933E+03  0.10566000000E+00 0.  1.
        -14    1    4    4    0    0 -0.13764215104E+01 -0.38753381496E+01  0.11958780472E+03  0.11965849665E+03  0.00000000000E+00 0.  1.
<mgrwt>
<rscale>  0 0.79547620E+02</rscale>
<asrwt>0</asrwt>
<pdfrwt beam="1">  1        2 0.82596740E-01 0.79547620E+02</pdfrwt>
<pdfrwt beam="2">  1       -1 0.45331989E-03 0.79547620E+02</pdfrwt>
<totfact> 0.31597740E+05</totfact>
</mgrwt>
</event>
<event>
 8    1  0.1226832E-020  0.7969148E+02  0.7818608E-02  0.1329929E+00
          2   -1    0    0  501    0  0.00000000000E+00  0.00000000000E+00  0.12891352540E+03  0.12891352542E+03  0.25500000000E-02 0. -1.
         -1   -1    0    0    0  501 -0.00000000000E+00 -0.00000000000E+00 -0.12315876710E+02  0.12315877741E+02  0.50400000000E-02 0.  1.
         24    2    1    2    0    0  0.00000000000E+00  0.00000000000E+00  0.11659764869E+03  0.14122940316E+03  0.79691484103E+02 0.  0.
         66    2    3    3    0    0 -0.12305434462E+02 -0.15219470044E+02  0.11979335602E+03  0.12139812244E+03  0.20000001444E+01 0.  0.
        -13    1    3    3    0    0  0.12305434462E+02  0.15219470044E+02 -0.31957073301E+01  0.19831280723E+02  0.10566000000E+00 0.  1.
         13    1    4    4    0    0 -0.69354523494E+01 -0.83466398591E+01  0.60841406287E+02  0.61801737671E+02  0.10566000000E+00 0. -1.
        -13    1    4    4    0    0 -0.35123960912E+01 -0.48581033098E+01  0.39575534285E+02  0.40027142941E+02  0.10566000000E+00 0.  1.
         14    1    4    4    0    0 -0.18575860218E+01 -0.20147268752E+01  0.19376415445E+02  0.19569241827E+02  0.00000000000E+00 0. -1.
<mgrwt>
<rscale>  0 0.79691484E+02</rscale>
<asrwt>0</asrwt>
<pdfrwt beam="1">  1        2 0.19832850E-01 0.79691484E+02</pdfrwt>
<pdfrwt beam="2">  1       -1 0.18947503E-02 0.79691484E+02</pdfrwt>
<totfact> 0.19294574E+05</totfact>
</mgrwt>
</event>
<event>
 8    1  0.1226832E-020  0.7967429E+02  0.7818608E-02  0.1329978E+00
         -1   -1    0    0    0  501 -0.00000000000E+00  0.00000000000E+00  0.71543915732E+01  0.71543933485E+01  0.50400000000E-02 0.  1.
          2   -1    0    0  501    0  0.00000000000E+00 -0.00000000000E+00 -0.22182152304E+03  0.22182152305E+03  0.25500000000E-02 0. -1.
         24    2    1    2    0    0 -0.35527136788E-14  0.00000000000E+00 -0.21466713146E+03  0.22897591640E+03  0.79674292971E+02 0.  0.
         66    2    3    3    0    0  0.18959145863E+02 -0.13359557350E+02 -0.20039581300E+03  0.20174342332E+03  0.20000004850E+01 0.  0.
        -13    1    3    3    0    0 -0.18959145863E+02  0.13359557350E+02 -0.14271318464E+02  0.27232493077E+02  0.10566000000E+00 0.  1.
         13    1    4    4    0    0  0.26516490902E+01 -0.24525348249E+01 -0.27456418344E+02  0.27693180429E+02  0.10566000000E+00 0. -1.
        -13    1    4    4    0    0  0.12258154718E+01 -0.10080977499E+01 -0.14743976017E+02  0.14829527217E+02  0.10566000000E+00 0.  1.
         14    1    4    4    0    0  0.15081681301E+02 -0.98989247756E+01 -0.15819541864E+03  0.15922071568E+03  0.00000000000E+00 0. -1.
<mgrwt>
<rscale>  0 0.79674293E+02</rscale>
<asrwt>0</asrwt>
<pdfrwt beam="1">  1        2 0.34126383E-01 0.79674293E+02</pdfrwt>
<pdfrwt beam="2">  1       -1 0.11006759E-02 0.79674293E+02</pdfrwt>
<totfact> 0.23120790E+05</totfact>
</mgrwt>
</event>
<event>
 8    1  0.1226832E-020  0.7847005E+02  0.7818608E-02  0.1333450E+00
          2   -1    0    0  501    0  0.00000000000E+00  0.00000000000E+00  0.14483053881E+03  0.14483053884E+03  0.25500000000E-02 0. -1.
         -1   -1    0    0    0  501 -0.00000000000E+00 -0.00000000000E+00 -0.10628883870E+02  0.10628885065E+02  0.50400000000E-02 0.  1.
         24    2    1    2    0    0  0.00000000000E+00 -0.71054273576E-14  0.13420165494E+03  0.15545942390E+03  0.78470047090E+02 0.  0.
         66    2    3    3    0    0  0.11250156835E+02 -0.34409351097E+02  0.96980721658E+02  0.10353661090E+03  0.19999876810E+01 0.  0.
        -13    1    3    3    0    0 -0.11250156835E+02  0.34409351097E+02  0.37220933284E+02  0.51922813005E+02  0.10566000000E+00 0.  1.
         13    1    4    4    0    0  0.36813181663E+01 -0.10126369915E+02  0.30963742295E+02  0.32785057146E+02  0.10566000000E+00 0.  1.
        -13    1    4    4    0    0  0.41851096029E+00 -0.13324667430E+01  0.32573214812E+01  0.35456912319E+01  0.10566000000E+00 0. -1.
         14    1    4    4    0    0  0.71503277087E+01 -0.22950514439E+02  0.62759657882E+02  0.67205862518E+02  0.00000000000E+00 0. -1.
<mgrwt>
<rscale>  0 0.78470047E+02</rscale>
<asrwt>0</asrwt>
<pdfrwt beam="1">  1        2 0.22281622E-01 0.78470047E+02</pdfrwt>
<pdfrwt beam="2">  1       -1 0.16352130E-02 0.78470047E+02</pdfrwt>
<totfact> 0.20847025E+05</totfact>
</mgrwt>
</event>
<event>
 8    1  0.1226832E-020  0.8260965E+02  0.7818608E-02  0.1321805E+00
         -1   -1    0    0    0  501 -0.00000000000E+00  0.00000000000E+00  0.22646957126E+02  0.22646957687E+02  0.50400000000E-02 0.  1.
          2   -1    0    0  501    0  0.00000000000E+00 -0.00000000000E+00 -0.75334115974E+02  0.75334116017E+02  0.25500000000E-02 0. -1.
         24    2    1    2    0    0  0.00000000000E+00  0.00000000000E+00 -0.52687158848E+02  0.97981073705E+02  0.82609648933E+02 0.  0.
         66    2    3    3    0    0 -0.13717853127E+02  0.65846161046E+01 -0.71873079394E+02  0.73493375264E+02  0.20000006204E+01 0.  0.
        -13    1    3    3    0    0  0.13717853127E+02 -0.65846161046E+01  0.19185920546E+02  0.24487698440E+02  0.10566000000E+00 0.  1.
         13    1    4    4    0    0 -0.61663973329E+01  0.25500813016E+01 -0.33263538398E+02  0.33926413331E+02  0.10566000000E+00 0. -1.
        -13    1    4    4    0    0 -0.52288556848E+00  0.42541776995E+00 -0.46892524531E+01  0.47386329465E+01  0.10566000000E+00 0.  1.
        -14    1    4    4    0    0 -0.70285702256E+01  0.36091170331E+01 -0.33920288543E+02  0.34828328987E+02  0.00000000000E+00 0.  1.
<mgrwt>
<rscale>  0 0.82609649E+02</rscale>
<asrwt>0</asrwt>
<pdfrwt beam="1">  1        2 0.11589864E-01 0.82609649E+02</pdfrwt>
<pdfrwt beam="2">  1       -1 0.34841473E-02 0.82609649E+02</pdfrwt>
<totfact> 0.15074681E+05</totfact>
</mgrwt>
</event>
<event>
 8    1  0.1226832E-020  0.7918085E+02  0.7818608E-02  0.1331392E+00
         -1   -1    0    0    0  501 -0.00000000000E+00  0.00000000000E+00  0.49058023642E+02  0.49058023901E+02  0.50400000000E-02 0.  1.
          2   -1    0    0  501    0  0.00000000000E+00 -0.00000000000E+00 -0.31949953772E+02  0.31949953873E+02  0.25500000000E-02 0. -1.
         24    2    1    2    0    0  0.22204460493E-15  0.71054273576E-14  0.17108069871E+02  0.81007977775E+02  0.79180846222E+02 0.  0.
         66    2    3    3    0    0 -0.19071972447E+01 -0.38650775750E+02  0.16988326446E+02  0.42309846425E+02  0.20000004104E+01 0.  0.
        -13    1    3    3    0    0  0.19071972447E+01  0.38650775750E+02  0.11974342460E+00  0.38698131350E+02  0.10566000000E+00 0.  1.
         13    1    4    4    0    0 -0.35513868004E+00 -0.63997966812E+01  0.30386655562E+01  0.70942352259E+01  0.10566000000E+00 0. -1.
        -13    1    4    4    0    0 -0.38702049947E+00 -0.10300676065E+02  0.53286203836E+01  0.11604269537E+02  0.10566000000E+00 0.  1.
        -14    1    4    4    0    0 -0.11650380652E+01 -0.21950303005E+02  0.86210405063E+01  0.23611341662E+02  0.00000000000E+00 0.  1.
<mgrwt>
<rscale>  0 0.79180846E+02</rscale>
<asrwt>0</asrwt>
<pdfrwt beam="1">  1        2 0.49153775E-02 0.79180846E+02</pdfrwt>
<pdfrwt beam="2">  1       -1 0.75473883E-02 0.79180846E+02</pdfrwt>
<totfact> 0.14021031E+05</totfact>
</mgrwt>
</event>
<event>
 8    1  0.1226832E-020  0.8139126E+02  0.7818608E-02  0.1325149E+00
         -1   -1    0    0    0  501 -0.00000000000E+00  0.00000000000E+00  0.31383004392E+02  0.31383004796E+02  0.50400000000E-02 0.  1.
          2   -1    0    0  501    0  0.00000000000E+00 -0.00000000000E+00 -0.52771694377E+02  0.52771694439E+02  0.25500000000E-02 0. -1.
         24    2    1    2    0    0  0.00000000000E+00  0.00000000000E+00 -0.21388689985E+02  0.84154699235E+02  0.81391260858E+02 0.  0.
         66    2    3    3    0    0 -0.32383070024E+01  0.21779176447E+02 -0.46056974783E+02  0.51088786306E+02  0.20000002846E+01 0.  0.
        -13    1    3    3    0    0  0.32383070024E+01 -0.21779176447E+02  0.24668284797E+02  0.33065912929E+02  0.10566000000E+00 0.  1.
         13    1    4    4    0    0 -0.76438643804E+00  0.45643005538E+01 -0.11457066167E+02  0.12356886961E+02  0.10566000000E+00 0. -1.
        -13    1    4    4    0    0 -0.14053594121E+01  0.11705657061E+02 -0.23872213955E+02  0.26625010901E+02  0.10566000000E+00 0.  1.
        -14    1    4    4    0    0 -0.10685611523E+01  0.55092188318E+01 -0.10727694660E+02  0.12106888444E+02  0.00000000000E+00 0.  1.
<mgrwt>
<rscale>  0 0.81391261E+02</rscale>
<asrwt>0</asrwt>
<pdfrwt beam="1">  1        2 0.81187222E-02 0.81391261E+02</pdfrwt>
<pdfrwt beam="2">  1       -1 0.48281546E-02 0.81391261E+02</pdfrwt>
<totfact> 0.14424010E+05</totfact>
</mgrwt>
</event>
<event>
 8    1  0.1226832E-020  0.7003761E+02  0.7818608E-02  0.1359965E+00
          2   -1    0    0  501    0  0.00000000000E+00  0.00000000000E+00  0.41773514262E+03  0.41773514263E+03  0.25500000000E-02 0. -1.
         -1   -1    0    0    0  501 -0.00000000000E+00 -0.00000000000E+00 -0.29356297967E+01  0.29356341231E+01  0.50400000000E-02 0.  1.
         24    2    1    2    0    0  0.17763568394E-14  0.00000000000E+00  0.41479951282E+03  0.42067077675E+03  0.70037608281E+02 0.  0.
         66    2    3    3    0    0 -0.10726801435E+02 -0.11828298598E+02  0.39457153597E+03  0.39489956940E+03  0.19999994409E+01 0.  0.
        -13    1    3    3    0    0  0.10726801435E+02  0.11828298598E+02  0.20227976855E+02  0.25771207353E+02  0.10566000000E+00 0.  1.
         13    1    4    4    0    0 -0.11996616927E+01 -0.13738197074E+01  0.52698805904E+02  0.52730464406E+02  0.10566000000E+00 0. -1.
        -13    1    4    4    0    0 -0.61899038899E+00 -0.43438537588E+00  0.27515787829E+02  0.27526379777E+02  0.10566000000E+00 0.  1.
         14    1    4    4    0    0 -0.89081493531E+01 -0.10020093515E+02  0.31435694223E+03  0.31464272521E+03  0.00000000000E+00 0. -1.
<mgrwt>
<rscale>  0 0.70037608E+02</rscale>
<asrwt>0</asrwt>
<pdfrwt beam="1">  1        2 0.64266898E-01 0.70037608E+02</pdfrwt>
<pdfrwt beam="2">  1       -1 0.45163602E-03 0.70037608E+02</pdfrwt>
<totfact> 0.40490007E+05</totfact>
</mgrwt>
</event>
<event>
 8    1  0.1226832E-020  0.7918781E+02  0.7818608E-02  0.1331372E+00
         -1   -1    0    0    0  501 -0.00000000000E+00  0.00000000000E+00  0.35532272081E+01  0.35532307825E+01  0.50400000000E-02 0.  1.
          2   -1    0    0  501    0  0.00000000000E+00 -0.00000000000E+00 -0.44119795338E+03  0.44119795339E+03  0.25500000000E-02 0. -1.
         24    2    1    2    0    0 -0.88817841970E-15  0.00000000000E+00 -0.43764472618E+03  0.44475118417E+03  0.79187811401E+02 0.  0.
         66    2    3    3    0    0  0.66953408532E+01  0.38189687633E+02 -0.26332500401E+03  0.26617163178E+03  0.20000001564E+01 0.  0.
        -13    1    3    3    0    0 -0.66953408532E+01 -0.38189687633E+02 -0.17431972217E+03  0.17857955239E+03  0.10566000000E+00 0.  1.
         13    1    4    4    0    0  0.49832699217E+01  0.27127328579E+02 -0.18627485894E+03  0.18830575980E+03  0.10566000000E+00 0. -1.
        -13    1    4    4    0    0  0.10371914857E+01  0.83157943961E+01 -0.60061965772E+02  0.60643871076E+02  0.10566000000E+00 0.  1.
         14    1    4    4    0    0  0.67487944578E+00  0.27465646579E+01 -0.16988179294E+02  0.17222000912E+02  0.00000000000E+00 0. -1.
<mgrwt>
<rscale>  0 0.79187811E+02</rscale>
<asrwt>0</asrwt>
<pdfrwt beam="1">  1        2 0.67876565E-01 0.79187811E+02</pdfrwt>
<pdfrwt beam="2">  1       -1 0.54665097E-03 0.79187811E+02</pdfrwt>
<totfact> 0.30011493E+05</totfact>
</mgrwt>
</event>
<event>
 8    1  0.1226832E-020  0.7531737E+02  0.7818608E-02  0.1342891E+00
         -1   -1    0    0    0  501 -0.00000000000E+00  0.00000000000E+00  0.15427476870E+01  0.15427559196E+01  0.50400000000E-02 0.  1.
          2   -1    0    0  501    0  0.00000000000E+00 -0.00000000000E+00 -0.91925115226E+03  0.91925115227E+03  0.25500000000E-02 0. -1.
         24    2    1    2    0    0  0.00000000000E+00 -0.11102230246E-15 -0.91770840458E+03  0.92079390819E+03  0.75317365349E+02 0.  0.
         66    2    3    3    0    0  0.25034505801E+02 -0.65393564275E+00 -0.80258500692E+03  0.80297811143E+03  0.19999990717E+01 0.  0.
        -13    1    3    3    0    0 -0.25034505801E+02  0.65393564275E+00 -0.11512339766E+03  0.11781579675E+03  0.10566000000E+00 0.  1.
         13    1    4    4    0    0  0.16424326826E+02  0.32284745802E+00 -0.52149605171E+03  0.52175473726E+03  0.10566000000E+00 0. -1.
        -13    1    4    4    0    0  0.63728474742E+01 -0.10210672240E+01 -0.21077462970E+03  0.21087344891E+03  0.10566000000E+00 0.  1.
        -14    1    4    4    0    0  0.22373315008E+01  0.44284123258E-01 -0.70314325506E+02  0.70349925264E+02  0.00000000000E+00 0.  1.
<mgrwt>
<rscale>  0 0.75317365E+02</rscale>
<asrwt>0</asrwt>
<pdfrwt beam="1">  1        2 0.14142282E+00 0.75317365E+02</pdfrwt>
<pdfrwt beam="2">  1       -1 0.23734717E-03 0.75317365E+02</pdfrwt>
<totfact> 0.40941352E+05</totfact>
</mgrwt>
</event>
<event>
 8    1  0.1226832E-020  0.8160607E+02  0.7818608E-02  0.1324554E+00
          2   -1    0    0  501    0  0.00000000000E+00  0.00000000000E+00  0.67551344433E+03  0.67551344433E+03  0.25500000000E-02 0. -1.
         -1   -1    0    0    0  501 -0.00000000000E+00 -0.00000000000E+00 -0.24646229848E+01  0.24646281380E+01  0.50400000000E-02 0.  1.
         24    2    1    2    0    0  0.71054273576E-14  0.00000000000E+00  0.67304882134E+03  0.67797807247E+03  0.81606071096E+02 0.  0.
         66    2    3    3    0    0  0.36336074653E+02  0.13498428527E+02  0.44193372919E+03  0.44363491622E+03  0.20000012405E+01 0.  0.
        -13    1    3    3    0    0 -0.36336074653E+02 -0.13498428527E+02  0.23111509215E+03  0.23434315624E+03  0.10566000000E+00 0.  1.
         13    1    4    4    0    0  0.53642460074E+01  0.14763730819E+01  0.58805498879E+02  0.59068203588E+02  0.10566000000E+00 0. -1.
        -13    1    4    4    0    0  0.20801465398E+02  0.80665494568E+01  0.26115608492E+03  0.26210738646E+03  0.10566000000E+00 0.  1.
         14    1    4    4    0    0  0.10170363248E+02  0.39555059883E+01  0.12197214539E+03  0.12245932617E+03  0.00000000000E+00 0. -1.
<mgrwt>
<rscale>  0 0.81606071E+02</rscale>
<asrwt>0</asrwt>
<pdfrwt beam="1">  1        2 0.10392506E+00 0.81606071E+02</pdfrwt>
<pdfrwt beam="2">  1       -1 0.37917347E-03 0.81606071E+02</pdfrwt>
<totfact> 0.31500160E+05</totfact>
</mgrwt>
</event>
<event>
 8    1  0.1226832E-020  0.8076786E+02  0.7818608E-02  0.1326886E+00
         -1   -1    0    0    0  501 -0.00000000000E+00  0.00000000000E+00  0.17558758814E+02  0.17558759538E+02  0.50400000000E-02 0.  1.
          2   -1    0    0  501    0  0.00000000000E+00 -0.00000000000E+00 -0.92880243974E+02  0.92880244009E+02  0.25500000000E-02 0. -1.
         24    2    1    2    0    0 -0.35527136788E-14  0.35527136788E-14 -0.75321485159E+02  0.11043900355E+03  0.80767861044E+02 0.  0.
         66    2    3    3    0    0  0.30704670889E+02 -0.26033468343E+02 -0.41632250958E+02  0.57946204483E+02  0.20000014500E+01 0.  0.
        -13    1    3    3    0    0 -0.30704670889E+02  0.26033468343E+02 -0.33689234201E+02  0.52492799063E+02  0.10566000000E+00 0.  1.
         13    1    4    4    0    0  0.18913352863E+02 -0.16937994631E+02 -0.25705344572E+02  0.36130132608E+02  0.10566000000E+00 0. -1.
        -13    1    4    4    0    0  0.54245336930E+01 -0.45604278007E+01 -0.78403281255E+01  0.10569057511E+02  0.10566000000E+00 0.  1.
         14    1    4    4    0    0  0.63667843333E+01 -0.45350459110E+01 -0.80865782598E+01  0.11247014364E+02  0.00000000000E+00 0. -1.
<mgrwt>
<rscale>  0 0.80767861E+02</rscale>
<asrwt>0</asrwt>
<pdfrwt beam="1">  1        2 0.14289268E-01 0.80767861E+02</pdfrwt>
<pdfrwt beam="2">  1       -1 0.27013476E-02 0.80767861E+02</pdfrwt>
<totfact> 0.16928213E+05</totfact>
</mgrwt>
</event>
<event>
 8    1  0.1226832E-020  0.8184604E+02  0.7818608E-02  0.1323893E+00
         -1   -1    0    0    0  501 -0.00000000000E+00  0.00000000000E+00  0.95163752573E+02  0.95163752706E+02  0.50400000000E-02 0.  1.
          2   -1    0    0  501    0  0.00000000000E+00 -0.00000000000E+00 -0.17598019854E+02  0.17598020039E+02  0.25500000000E-02 0. -1.
         24    2    1    2    0    0  0.22204460493E-15  0.00000000000E+00  0.77565732718E+02  0.11276177275E+03  0.81846041447E+02 0.  0.
         66    2    3    3    0    0  0.19833008671E+01  0.34918158420E+02  0.95968631182E+01  0.36322321750E+02  0.20000014453E+01 0.  0.
        -13    1    3    3    0    0 -0.19833008671E+01 -0.34918158420E+02  0.67968869600E+02  0.76439450996E+02  0.10566000000E+00 0.  1.
         13    1    4    4    0    0  0.21426237690E+01  0.29534120584E+02  0.81529684459E+01  0.30713794520E+02  0.10566000000E+00 0. -1.
        -13    1    4    4    0    0  0.11103781153E+00  0.29417225369E+01  0.56884556958E+00  0.30001350299E+01  0.10566000000E+00 0.  1.
         14    1    4    4    0    0 -0.27036071347E+00  0.24423152989E+01  0.87504910276E+00  0.26083921996E+01  0.00000000000E+00 0. -1.
<mgrwt>
<rscale>  0 0.81846041E+02</rscale>
<asrwt>0</asrwt>
<pdfrwt beam="1">  1        2 0.27073877E-02 0.81846041E+02</pdfrwt>
<pdfrwt beam="2">  1       -1 0.14640577E-01 0.81846041E+02</pdfrwt>
<totfact> 0.11317914E+05</totfact>
</mgrwt>
</event>
<event>
 8    1  0.1226832E-020  0.7949797E+02  0.7818608E-02  0.1330482E+00
          2   -1    0    0  501    0  0.00000000000E+00  0.00000000000E+00  0.20818465366E+02  0.20818465522E+02  0.25500000000E-02 0. -1.
         -1   -1    0    0    0  501 -0.00000000000E+00 -0.00000000000E+00 -0.75893281244E+02  0.75893281411E+02  0.50400000000E-02 0.  1.
         24    2    1    2    0    0  0.00000000000E+00  0.00000000000E+00 -0.55074815878E+02  0.96711746933E+02  0.79497966332E+02 0.  0.
         66    2    3    3    0    0  0.29398325736E+02  0.10404782454E+01  0.49207258851E+01  0.29892435753E+02  0.20000052411E+01 0.  0.
        -13    1    3    3    0    0 -0.29398325736E+02 -0.10404782454E+01 -0.59995541763E+02  0.66819311180E+02  0.10566000000E+00 0.  1.
         13    1    4    4    0    0  0.11496376266E+02 -0.34400358956E+00  0.13698502289E+01  0.11583292252E+02  0.10566000000E+00 0. -1.
        -13    1    4    4    0    0  0.15235163134E+02  0.13366428250E+01  0.30578414882E+01  0.15596742236E+02  0.10566000000E+00 0.  1.
         14    1    4    4    0    0  0.26667863364E+01  0.47839009949E-01  0.49303416798E+00  0.27124012656E+01  0.00000000000E+00 0. -1.
<mgrwt>
<rscale>  0 0.79497966E+02</rscale>
<asrwt>0</asrwt>
<pdfrwt beam="1">  1        2 0.32028409E-02 0.79497966E+02</pdfrwt>
<pdfrwt beam="2">  1       -1 0.11675889E-01 0.79497966E+02</pdfrwt>
<totfact> 0.12744136E+05</totfact>
</mgrwt>
</event>
<event>
 8    1  0.1226832E-020  0.8130806E+02  0.7818608E-02  0.1325380E+00
          2   -1    0    0  501    0  0.00000000000E+00  0.00000000000E+00  0.78395728109E+03  0.78395728109E+03  0.25500000000E-02 0. -1.
         -1   -1    0    0    0  501 -0.00000000000E+00 -0.00000000000E+00 -0.21082115471E+01  0.21082175715E+01  0.50400000000E-02 0.  1.
         24    2    1    2    0    0 -0.17763568394E-14 -0.35527136788E-14  0.78184906954E+03  0.78606549866E+03  0.81308060162E+02 0.  0.
         66    2    3    3    0    0  0.11097349668E+02  0.27627899843E+02  0.65843342487E+03  0.65910926789E+03  0.20000023843E+01 0.  0.
        -13    1    3    3    0    0 -0.11097349668E+02 -0.27627899843E+02  0.12341564467E+03  0.12695623078E+03  0.10566000000E+00 0.  1.
         13    1    4    4    0    0  0.15872143555E+01  0.45222858949E+01  0.10220404986E+03  0.10231641751E+03  0.10566000000E+00 0. -1.
        -13    1    4    4    0    0  0.65078699995E+01  0.17485728619E+02  0.42253599986E+03  0.42294773368E+03  0.10566000000E+00 0.  1.
        -14    1    4    4    0    0  0.30022653126E+01  0.56198853282E+01  0.13369337514E+03  0.13384511670E+03  0.00000000000E+00 0.  1.
<mgrwt>
<rscale>  0 0.81308060E+02</rscale>
<asrwt>0</asrwt>
<pdfrwt beam="1">  1        2 0.12060863E+00 0.81308060E+02</pdfrwt>
<pdfrwt beam="2">  1       -1 0.32434120E-03 0.81308060E+02</pdfrwt>
<totfact> 0.32828520E+05</totfact>
</mgrwt>
</event>
<event>
 8    1  0.1226832E-020  0.8052030E+02  0.7818608E-02  0.1327581E+00
         -1   -1    0    0    0  501 -0.00000000000E+00  0.00000000000E+00  0.59753771019E+01  0.59753792274E+01  0.50400000000E-02 0.  1.
          2   -1    0    0  501    0  0.00000000000E+00 -0.00000000000E+00 -0.27125978786E+03  0.27125978787E+03  0.25500000000E-02 0. -1.
         24    2    1    2    0    0 -0.44408920985E-15 -0.35527136788E-14 -0.26528441076E+03  0.27723516710E+03  0.80520303560E+02 0.  0.
         66    2    3    3    0    0 -0.36432861875E+01  0.29443533366E+02 -0.22630121319E+03  0.22824643321E+03  0.19999976355E+01 0.  0.
        -13    1    3    3    0    0  0.36432861875E+01 -0.29443533366E+02 -0.38983197564E+02  0.48988733885E+02  0.10566000000E+00 0.  1.
         13    1    4    4    0    0 -0.54776224992E+00  0.91725591014E+01 -0.72115556208E+02  0.72698696654E+02  0.10566000000E+00 0.  1.
        -13    1    4    4    0    0 -0.29584536822E+01  0.16314787289E+02 -0.12450302240E+03  0.12560230285E+03  0.10566000000E+00 0. -1.
         14    1    4    4    0    0 -0.13707025537E+00  0.39561869763E+01 -0.29682634588E+02  0.29945433704E+02  0.00000000000E+00 0. -1.
<mgrwt>
<rscale>  0 0.80520304E+02</rscale>
<asrwt>0</asrwt>
<pdfrwt beam="1">  1        2 0.41732266E-01 0.80520304E+02</pdfrwt>
<pdfrwt beam="2">  1       -1 0.91928916E-03 0.80520304E+02</pdfrwt>
<totfact> 0.24166257E+05</totfact>
</mgrwt>
</event>
<event>
 8    1  0.1226832E-020  0.7786658E+02  0.7818608E-02  0.1335217E+00
         -1   -1    0    0    0  501 -0.00000000000E+00  0.00000000000E+00  0.79311794909E+00  0.79313396269E+00  0.50400000000E-02 0.  1.
          2   -1    0    0  501    0  0.00000000000E+00 -0.00000000000E+00 -0.19111729800E+04  0.19111729800E+04  0.25500000000E-02 0. -1.
         24    2    1    2    0    0  0.88817841970E-15  0.17763568394E-14 -0.19103798620E+04  0.19119661139E+04  0.77866575746E+02 0.  0.
         66    2    3    3    0    0 -0.65152282329E+01 -0.14375298017E+02 -0.18290362299E+04  0.18291054173E+04  0.20000024037E+01 0.  0.
        -13    1    3    3    0    0  0.65152282329E+01  0.14375298017E+02 -0.81343632151E+02  0.82860696639E+02  0.10566000000E+00 0.  1.
         13    1    4    4    0    0 -0.47667680636E+01 -0.99766179628E+01 -0.13577022022E+04  0.13577472283E+04  0.10566000000E+00 0. -1.
        -13    1    4    4    0    0 -0.39280753812E+00 -0.60564254224E+00 -0.86750296350E+02  0.86753364093E+02  0.10566000000E+00 0.  1.
         14    1    4    4    0    0 -0.13556526313E+01 -0.37930375115E+01 -0.38458373129E+03  0.38460482486E+03  0.00000000000E+00 0. -1.
<mgrwt>
<rscale>  0 0.77866576E+02</rscale>
<asrwt>0</asrwt>
<pdfrwt beam="1">  1        2 0.29402293E+00 0.77866576E+02</pdfrwt>
<pdfrwt beam="2">  1       -1 0.12202091E-03 0.77866576E+02</pdfrwt>
<totfact> 0.30989535E+05</totfact>
</mgrwt>
</event>
<event>
 8    1  0.1226832E-020  0.7884654E+02  0.7818608E-02  0.1332357E+00
         -1   -1    0    0    0  501 -0.00000000000E+00  0.00000000000E+00  0.15086828215E+03  0.15086828224E+03  0.50400000000E-02 0.  1.
          2   -1    0    0  501    0  0.00000000000E+00 -0.00000000000E+00 -0.10301662179E+02  0.10301662494E+02  0.25500000000E-02 0. -1.
         24    2    1    2    0    0  0.00000000000E+00  0.00000000000E+00  0.14056661998E+03  0.16116994473E+03  0.78846537233E+02 0.  0.
         66    2    3    3    0    0 -0.24101389864E+02  0.12862863362E+02  0.12301295514E+02  0.30027522647E+02  0.19999994436E+01 0.  0.
        -13    1    3    3    0    0  0.24101389864E+02 -0.12862863362E+02  0.12826532446E+03  0.13114242209E+03  0.10566000000E+00 0.  1.
         13    1    4    4    0    0 -0.55188613462E+01  0.29402108960E+01  0.32881976591E+01  0.70658388428E+01  0.10566000000E+00 0. -1.
        -13    1    4    4    0    0 -0.13102032365E+01  0.11001067685E+01  0.92456286995E+00  0.19475235452E+01  0.10566000000E+00 0.  1.
        -14    1    4    4    0    0 -0.17272325281E+02  0.88225456971E+01  0.80885349851E+01  0.21014160259E+02  0.00000000000E+00 0.  1.
<mgrwt>
<rscale>  0 0.78846537E+02</rscale>
<asrwt>0</asrwt>
<pdfrwt beam="1">  1        2 0.15848711E-02 0.78846537E+02</pdfrwt>
<pdfrwt beam="2">  1       -1 0.23210505E-01 0.78846537E+02</pdfrwt>
<totfact> 0.11174105E+05</totfact>
</mgrwt>
</event>
<event>
 8    1  0.1226832E-020  0.7947656E+02  0.7818608E-02  0.1330543E+00
          2   -1    0    0  501    0  0.00000000000E+00  0.00000000000E+00  0.36993163844E+03  0.36993163845E+03  0.25500000000E-02 0. -1.
         -1   -1    0    0    0  501 -0.00000000000E+00 -0.00000000000E+00 -0.42687081591E+01  0.42687111345E+01  0.50400000000E-02 0.  1.
         24    2    1    2    0    0  0.71054273576E-14  0.17763568394E-14  0.36566293028E+03  0.37420034958E+03  0.79476556585E+02 0.  0.
         66    2    3    3    0    0 -0.34377536188E+02 -0.76242423806E+01  0.26940332652E+03  0.27170222011E+03  0.20000009547E+01 0.  0.
        -13    1    3    3    0    0  0.34377536188E+02  0.76242423806E+01  0.96259603762E+02  0.10249812948E+03  0.10566000000E+00 0.  1.
         13    1    4    4    0    0 -0.23920259544E+02 -0.56536984804E+01  0.18408933408E+03  0.18572301206E+03  0.10566000000E+00 0. -1.
        -13    1    4    4    0    0 -0.48284565125E+01 -0.70474353803E+00  0.36216675318E+02  0.36544074634E+02  0.10566000000E+00 0.  1.
        -14    1    4    4    0    0 -0.56288201318E+01 -0.12658003621E+01  0.49097317121E+02  0.49435133409E+02  0.00000000000E+00 0.  1.
<mgrwt>
<rscale>  0 0.79476557E+02</rscale>
<asrwt>0</asrwt>
<pdfrwt beam="1">  1        2 0.56912588E-01 0.79476557E+02</pdfrwt>
<pdfrwt beam="2">  1       -1 0.65672424E-03 0.79476557E+02</pdfrwt>
<totfact> 0.27961095E+05</totfact>
</mgrwt>
</event>
<event>
 8    1  0.1226832E-020  0.8083175E+02  0.7818608E-02  0.1326707E+00
         -1   -1    0    0    0  501 -0.00000000000E+00  0.00000000000E+00  0.41731767106E+02  0.41731767410E+02  0.50400000000E-02 0.  1.
          2   -1    0    0  501    0  0.00000000000E+00 -0.00000000000E+00 -0.39141474243E+02  0.39141474326E+02  0.25500000000E-02 0. -1.
         24    2    1    2    0    0  0.00000000000E+00 -0.35527136788E-14  0.25902928631E+01  0.80873241736E+02  0.80831748786E+02 0.  0.
         66    2    3    3    0    0 -0.23256145744E+02  0.21991673955E+02 -0.23353184269E+02  0.39671819334E+02  0.19999988876E+01 0.  0.
        -13    1    3    3    0    0  0.23256145744E+02 -0.21991673955E+02  0.25943477132E+02  0.41201422402E+02  0.10566000000E+00 0.  1.
         13    1    4    4    0    0 -0.56171636266E+01  0.49423201478E+01 -0.52722429527E+01  0.91535110990E+01  0.10566000000E+00 0.  1.
        -13    1    4    4    0    0 -0.15945491811E+02  0.15005206344E+02 -0.15597688192E+02  0.26883339961E+02  0.10566000000E+00 0. -1.
         14    1    4    4    0    0 -0.16934903068E+01  0.20441474641E+01 -0.24832531239E+01  0.36349682738E+01  0.00000000000E+00 0. -1.
<mgrwt>
<rscale>  0 0.80831749E+02</rscale>
<asrwt>0</asrwt>
<pdfrwt beam="1">  1        2 0.60217653E-02 0.80831749E+02</pdfrwt>
<pdfrwt beam="2">  1       -1 0.64202719E-02 0.80831749E+02</pdfrwt>
<totfact> 0.13791167E+05</totfact>
</mgrwt>
</event>
<event>
 8    1  0.1226832E-020  0.7950098E+02  0.7818608E-02  0.1330474E+00
          2   -1    0    0  501    0  0.00000000000E+00  0.00000000000E+00  0.18737497966E+03  0.18737497968E+03  0.25500000000E-02 0. -1.
         -1   -1    0    0    0  501 -0.00000000000E+00 -0.00000000000E+00 -0.84328293835E+01  0.84328308896E+01  0.50400000000E-02 0.  1.
         24    2    1    2    0    0 -0.35527136788E-14  0.00000000000E+00  0.17894215028E+03  0.19580781057E+03  0.79500978192E+02 0.  0.
         66    2    3    3    0    0 -0.25989853211E+02 -0.22555396779E+02  0.13840835348E+03  0.14263621815E+03  0.20000051096E+01 0.  0.
        -13    1    3    3    0    0  0.25989853211E+02  0.22555396779E+02  0.40533796801E+02  0.53171592424E+02  0.10566000000E+00 0.  1.
         13    1    4    4    0    0 -0.87519743287E+01 -0.78662583683E+01  0.46944390692E+02  0.48396921977E+02  0.10566000000E+00 0. -1.
        -13    1    4    4    0    0 -0.14929585148E+01 -0.18795753252E+01  0.93014283670E+01  0.96067404583E+01  0.10566000000E+00 0.  1.
        -14    1    4    4    0    0 -0.15744920368E+02 -0.12809563085E+02  0.82162534421E+02  0.84632555711E+02  0.00000000000E+00 0.  1.
<mgrwt>
<rscale>  0 0.79500978E+02</rscale>
<asrwt>0</asrwt>
<pdfrwt beam="1">  1        2 0.28826919E-01 0.79500978E+02</pdfrwt>
<pdfrwt beam="2">  1       -1 0.12973585E-02 0.79500978E+02</pdfrwt>
<totfact> 0.21927211E+05</totfact>
</mgrwt>
</event>
<event>
 8    1  0.1226832E-020  0.7903175E+02  0.7818608E-02  0.1331822E+00
         -1   -1    0    0    0  501 -0.00000000000E+00  0.00000000000E+00  0.68518515103E+01  0.68518533639E+01  0.50400000000E-02 0.  1.
          2   -1    0    0  501    0  0.00000000000E+00 -0.00000000000E+00 -0.22789519304E+03  0.22789519305E+03  0.25500000000E-02 0. -1.
         24    2    1    2    0    0 -0.22204460493E-15 -0.35527136788E-14 -0.22104334153E+03  0.23474704641E+03  0.79031746579E+02 0.  0.
         66    2    3    3    0    0  0.11049919708E+01  0.24672744171E+02 -0.20212021862E+03  0.20363336684E+03  0.20000006191E+01 0.  0.
        -13    1    3    3    0    0 -0.11049919708E+01 -0.24672744171E+02 -0.18923122903E+02  0.31113679574E+02  0.10566000000E+00 0.  1.
         13    1    4    4    0    0  0.20552214184E+00  0.62600331692E+01 -0.49696770777E+02  0.50090023401E+02  0.10566000000E+00 0. -1.
        -13    1    4    4    0    0 -0.47878128545E+00  0.65057577154E+01 -0.53410205816E+02  0.53807205505E+02  0.10566000000E+00 0.  1.
        -14    1    4    4    0    0  0.13782511144E+01  0.11906953287E+02 -0.99013242029E+02  0.99736137933E+02  0.00000000000E+00 0.  1.
<mgrwt>
<rscale>  0 0.79031747E+02</rscale>
<asrwt>0</asrwt>
<pdfrwt beam="1">  1        2 0.35060793E-01 0.79031747E+02</pdfrwt>
<pdfrwt beam="2">  1       -1 0.10541313E-02 0.79031747E+02</pdfrwt>
<totfact> 0.23845378E+05</totfact>
</mgrwt>
</event>
<event>
 8    1  0.1226832E-020  0.8316143E+02  0.7818608E-02  0.1320312E+00
          2   -1    0    0  501    0  0.00000000000E+00  0.00000000000E+00  0.37134980490E+03  0.37134980491E+03  0.25500000000E-02 0. -1.
         -1   -1    0    0    0  501 -0.00000000000E+00 -0.00000000000E+00 -0.46558670643E+01  0.46558697922E+01  0.50400000000E-02 0.  1.
         24    2    1    2    0    0  0.00000000000E+00  0.00000000000E+00  0.36669393783E+03  0.37600567470E+03  0.83161429532E+02 0.  0.
         66    2    3    3    0    0 -0.83094855017E+01  0.40674105619E+02  0.19193607548E+03  0.19638453999E+03  0.20000143764E+01 0.  0.
        -13    1    3    3    0    0  0.83094855017E+01 -0.40674105619E+02  0.17475786235E+03  0.17962113471E+03  0.10566000000E+00 0.  1.
         13    1    4    4    0    0 -0.27286829579E+01  0.15360124132E+02  0.72644367791E+02  0.74300702956E+02  0.10566000000E+00 0. -1.
        -13    1    4    4    0    0 -0.80723330036E+00  0.22868571667E+01  0.12488945470E+02  0.12722667342E+02  0.10566000000E+00 0.  1.
        -14    1    4    4    0    0 -0.47735692435E+01  0.23027124320E+02  0.10680276222E+03  0.10936116969E+03  0.00000000000E+00 0.  1.
<mgrwt>
<rscale>  0 0.83161430E+02</rscale>
<asrwt>0</asrwt>
<pdfrwt beam="1">  1        2 0.57130726E-01 0.83161430E+02</pdfrwt>
<pdfrwt beam="2">  1       -1 0.71628761E-03 0.83161430E+02</pdfrwt>
<totfact> 0.24865490E+05</totfact>
</mgrwt>
</event>
<event>
 8    1  0.1226832E-020  0.7928560E+02  0.7818608E-02  0.1331091E+00
         -1   -1    0    0    0  501 -0.00000000000E+00  0.00000000000E+00  0.52324357397E+01  0.52324381670E+01  0.50400000000E-02 0.  1.
          2   -1    0    0  501    0  0.00000000000E+00 -0.00000000000E+00 -0.30034790472E+03  0.30034790473E+03  0.25500000000E-02 0. -1.
         24    2    1    2    0    0  0.35527136788E-14  0.00000000000E+00 -0.29511546898E+03  0.30558034290E+03  0.79285597267E+02 0.  0.
         66    2    3    3    0    0  0.30386995458E+02  0.22640787498E+02 -0.10310744142E+03  0.10986864534E+03  0.19999999889E+01 0.  0.
        -13    1    3    3    0    0 -0.30386995458E+02 -0.22640787498E+02 -0.19200802755E+03  0.19571169756E+03  0.10566000000E+00 0.  1.
         13    1    4    4    0    0  0.20318914950E+02  0.14937673891E+02 -0.68194975279E+02  0.72708721784E+02  0.10566000000E+00 0. -1.
        -13    1    4    4    0    0  0.81152629168E+00  0.37268480584E+00 -0.19780678528E+01  0.21728749050E+01  0.10566000000E+00 0.  1.
         14    1    4    4    0    0  0.92565542166E+01  0.73304288013E+01 -0.32934398293E+02  0.34987048651E+02  0.00000000000E+00 0. -1.
<mgrwt>
<rscale>  0 0.79285597E+02</rscale>
<asrwt>0</asrwt>
<pdfrwt beam="1">  1        2 0.46207357E-01 0.79285597E+02</pdfrwt>
<pdfrwt beam="2">  1       -1 0.80499054E-03 0.79285597E+02</pdfrwt>
<totfact> 0.26111839E+05</totfact>
</mgrwt>
</event>
<event>
 8    1  0.1226832E-020  0.8099375E+02  0.7818608E-02  0.1326255E+00
         -1   -1    0    0    0  501 -0.00000000000E+00  0.00000000000E+00  0.37739779595E+02  0.37739779932E+02  0.50400000000E-02 0.  1.
          2   -1    0    0  501    0  0.00000000000E+00 -0.00000000000E+00 -0.43455391955E+02  0.43455392030E+02  0.25500000000E-02 0. -1.
         24    2    1    2    0    0  0.71054273576E-14  0.44408920985E-15 -0.57156123599E+01  0.81195171962E+02  0.80993751150E+02 0.  0.
         66    2    3    3    0    0 -0.39774241961E+02 -0.29162685322E+01 -0.97684903323E+01  0.41108616490E+02  0.20000001567E+01 0.  0.
        -13    1    3    3    0    0  0.39774241961E+02  0.29162685322E+01  0.40528779724E+01  0.40086555472E+02  0.10566000000E+00 0.  1.
         13    1    4    4    0    0 -0.15671050078E+02 -0.68226546895E+00 -0.39995541217E+01  0.16188109646E+02  0.10566000000E+00 0. -1.
        -13    1    4    4    0    0 -0.11636887277E+02 -0.72328639287E+00 -0.21985287654E+01  0.11865284720E+02  0.10566000000E+00 0.  1.
        -14    1    4    4    0    0 -0.12466304606E+02 -0.15107166703E+01 -0.35704074452E+01  0.13055222124E+02  0.00000000000E+00 0.  1.
<mgrwt>
<rscale>  0 0.80993751E+02</rscale>
<asrwt>0</asrwt>
<pdfrwt beam="1">  1        2 0.66854449E-02 0.80993751E+02</pdfrwt>
<pdfrwt beam="2">  1       -1 0.58061200E-02 0.80993751E+02</pdfrwt>
<totfact> 0.14016977E+05</totfact>
</mgrwt>
</event>
<event>
 8    1  0.1226832E-020  0.7980055E+02  0.7818608E-02  0.1329618E+00
          2   -1    0    0  501    0  0.00000000000E+00  0.00000000000E+00  0.39649540380E+03  0.39649540380E+03  0.25500000000E-02 0. -1.
         -1   -1    0    0    0  501 -0.00000000000E+00 -0.00000000000E+00 -0.40152580106E+01  0.40152611738E+01  0.50400000000E-02 0.  1.
         24    2    1    2    0    0  0.00000000000E+00  0.00000000000E+00  0.39248014578E+03  0.40051066498E+03  0.79800550909E+02 0.  0.
         66    2    3    3    0    0 -0.12020652869E+02 -0.17576416636E+02  0.36556757424E+03  0.36619267861E+03  0.20000033525E+01 0.  0.
        -13    1    3    3    0    0  0.12020652869E+02  0.17576416636E+02  0.26912571540E+02  0.34317986365E+02  0.10566000000E+00 0.  1.
         13    1    4    4    0    0 -0.16404010968E+01 -0.27273705011E+01  0.53268246264E+02  0.53363345938E+02  0.10566000000E+00 0. -1.
        -13    1    4    4    0    0 -0.86153614764E+01 -0.12366245735E+02  0.24755173975E+03  0.24801012783E+03  0.10566000000E+00 0.  1.
         14    1    4    4    0    0 -0.17648902961E+01 -0.24828004001E+01  0.64747588226E+02  0.64819204845E+02  0.00000000000E+00 0. -1.
<mgrwt>
<rscale>  0 0.79800551E+02</rscale>
<asrwt>0</asrwt>
<pdfrwt beam="1">  1        2 0.60999291E-01 0.79800551E+02</pdfrwt>
<pdfrwt beam="2">  1       -1 0.61773227E-03 0.79800551E+02</pdfrwt>
<totfact> 0.28351000E+05</totfact>
</mgrwt>
</event>
<event>
 8    1  0.1226832E-020  0.7999931E+02  0.7818608E-02  0.1329053E+00
         -1   -1    0    0    0  501 -0.00000000000E+00  0.00000000000E+00  0.77031431412E+02  0.77031431576E+02  0.50400000000E-02 0.  1.
          2   -1    0    0  501    0  0.00000000000E+00 -0.00000000000E+00 -0.20770382180E+02  0.20770382337E+02  0.25500000000E-02 0. -1.
         24    2    1    2    0    0  0.00000000000E+00  0.00000000000E+00  0.56261049232E+02  0.97801813913E+02  0.79999307147E+02 0.  0.
         66    2    3    3    0    0  0.30948041124E+01  0.24707383940E+02 -0.10082938357E+02  0.26938787680E+02  0.20000005297E+01 0.  0.
        -13    1    3    3    0    0 -0.30948041124E+01 -0.24707383940E+02  0.66343987589E+02  0.70863026233E+02  0.10566000000E+00 0.  1.
         13    1    4    4    0    0  0.95351890805E+00  0.99860526831E+01 -0.44766194532E+01  0.10985523759E+02  0.10566000000E+00 0. -1.
        -13    1    4    4    0    0 -0.11081194206E+00  0.28023296125E+00 -0.14309319500E+00  0.34992784561E+00  0.10566000000E+00 0.  1.
         14    1    4    4    0    0  0.22520971464E+01  0.14441098296E+02 -0.54632257091E+01  0.15603336076E+02  0.00000000000E+00 0. -1.
<mgrwt>
<rscale>  0 0.79999307E+02</rscale>
<asrwt>0</asrwt>
<pdfrwt beam="1">  1        2 0.31954435E-02 0.79999307E+02</pdfrwt>
<pdfrwt beam="2">  1       -1 0.11850989E-01 0.79999307E+02</pdfrwt>
<totfact> 0.12511030E+05</totfact>
</mgrwt>
</event>
<event>
 8    1  0.1226832E-020  0.8350484E+02  0.7818608E-02  0.1319389E+00
         -1   -1    0    0    0  501 -0.00000000000E+00  0.00000000000E+00  0.74781679653E+00  0.74783378018E+00  0.50400000000E-02 0.  1.
          2   -1    0    0  501    0  0.00000000000E+00 -0.00000000000E+00 -0.23311119422E+04  0.23311119422E+04  0.25500000000E-02 0. -1.
         24    2    1    2    0    0 -0.35527136788E-14  0.44408920985E-15 -0.23303641254E+04  0.23318597760E+04  0.83504837425E+02 0.  0.
         66    2    3    3    0    0 -0.16978820367E+02  0.16059447468E+01 -0.22293417458E+04  0.22294078763E+04  0.20000075123E+01 0.  0.
        -13    1    3    3    0    0  0.16978820367E+02 -0.16059447468E+01 -0.10102237962E+03  0.10245189968E+03  0.10566000000E+00 0.  1.
         13    1    4    4    0    0 -0.31985923878E+01  0.62733981441E+00 -0.38166218005E+03  0.38167611320E+03  0.10566000000E+00 0. -1.
        -13    1    4    4    0    0 -0.74071688250E+01 -0.85696585395E-02 -0.92541660683E+03  0.92544625646E+03  0.10566000000E+00 0.  1.
         14    1    4    4    0    0 -0.63730591544E+01  0.98717459095E+00 -0.92226295889E+03  0.92228550663E+03  0.00000000000E+00 0. -1.
<mgrwt>
<rscale>  0 0.83504837E+02</rscale>
<asrwt>0</asrwt>
<pdfrwt beam="1">  1        2 0.35862679E+00 0.83504837E+02</pdfrwt>
<pdfrwt beam="2">  1       -1 0.11505191E-03 0.83504837E+02</pdfrwt>
<totfact> 0.20833313E+05</totfact>
</mgrwt>
</event>
<event>
 8    1  0.1226832E-020  0.7908982E+02  0.7818608E-02  0.1331654E+00
          2   -1    0    0  501    0  0.00000000000E+00  0.00000000000E+00  0.75957609986E+03  0.75957609986E+03  0.25500000000E-02 0. -1.
         -1   -1    0    0    0  501 -0.00000000000E+00 -0.00000000000E+00 -0.20587765623E+01  0.20587827314E+01  0.50400000000E-02 0.  1.
         24    2    1    2    0    0 -0.35527136788E-14  0.00000000000E+00  0.75751732330E+03  0.76163488259E+03  0.79089817869E+02 0.  0.
         66    2    3    3    0    0 -0.16346275536E+02  0.53306131683E+01  0.72166835185E+03  0.72187590778E+03  0.20000017279E+01 0.  0.
        -13    1    3    3    0    0  0.16346275536E+02 -0.53306131683E+01  0.35848971441E+02  0.39758974811E+02  0.10566000000E+00 0.  1.
         13    1    4    4    0    0 -0.74310144051E+01  0.27502642061E+01  0.32829340445E+03  0.32838902920E+03  0.10566000000E+00 0. -1.
        -13    1    4    4    0    0 -0.53430871069E+01  0.85726308208E+00  0.23410553073E+03  0.23416808955E+03  0.10566000000E+00 0.  1.
        -14    1    4    4    0    0 -0.35721740242E+01  0.17230858801E+01  0.15926941667E+03  0.15931878904E+03  0.00000000000E+00 0.  1.
<mgrwt>
<rscale>  0 0.79089818E+02</rscale>
<asrwt>0</asrwt>
<pdfrwt beam="1">  1        2 0.11685790E+00 0.79089818E+02</pdfrwt>
<pdfrwt beam="2">  1       -1 0.31673523E-03 0.79089818E+02</pdfrwt>
<totfact> 0.35065163E+05</totfact>
</mgrwt>
</event>
<event>
 8    1  0.1226832E-020  0.8215831E+02  0.7818608E-02  0.1323036E+00
          2   -1    0    0  501    0  0.00000000000E+00  0.00000000000E+00  0.13633435792E+04  0.13633435792E+04  0.25500000000E-02 0. -1.
         -1   -1    0    0    0  501 -0.00000000000E+00 -0.00000000000E+00 -0.12377585479E+01  0.12377688090E+01  0.50400000000E-02 0.  1.
         24    2    1    2    0    0 -0.44408920985E-15 -0.35527136788E-14  0.13621058207E+04  0.13645813480E+04  0.82158314772E+02 0.  0.
         66    2    3    3    0    0  0.33912729448E+01  0.24117389729E+02  0.12303985787E+04  0.12306412197E+04  0.19999984427E+01 0.  0.
        -13    1    3    3    0    0 -0.33912729448E+01 -0.24117389729E+02  0.13170724199E+03  0.13394012833E+03  0.10566000000E+00 0.  1.
         13    1    4    4    0    0  0.21952029642E+01  0.15886210353E+02  0.77840573348E+03  0.77857092656E+03  0.10566000000E+00 0. -1.
        -13    1    4    4    0    0  0.65782310840E+00  0.26567844238E+01  0.13152651987E+03  0.13155503726E+03  0.10566000000E+00 0.  1.
         14    1    4    4    0    0  0.53824687215E+00  0.55743949516E+01  0.32046632534E+03  0.32051525590E+03  0.00000000000E+00 0. -1.
<mgrwt>
<rscale>  0 0.82158315E+02</rscale>
<asrwt>0</asrwt>
<pdfrwt beam="1">  1        2 0.20974495E+00 0.82158315E+02</pdfrwt>
<pdfrwt beam="2">  1       -1 0.19042537E-03 0.82158315E+02</pdfrwt>
<totfact> 0.31962689E+05</totfact>
</mgrwt>
</event>
<event>
 8    1  0.1226832E-020  0.7648344E+02  0.7818608E-02  0.1339338E+00
          2   -1    0    0  501    0  0.00000000000E+00  0.00000000000E+00  0.23112050056E+03  0.23112050058E+03  0.25500000000E-02 0. -1.
         -1   -1    0    0    0  501 -0.00000000000E+00 -0.00000000000E+00 -0.63275597265E+01  0.63275617337E+01  0.50400000000E-02 0.  1.
         24    2    1    2    0    0  0.00000000000E+00  0.00000000000E+00  0.22479294084E+03  0.23744806231E+03  0.76483436411E+02 0.  0.
         66    2    3    3    0    0 -0.58161144616E+01  0.13938053036E+02  0.22145750870E+03  0.22198091062E+03  0.20000023087E+01 0.  0.
        -13    1    3    3    0    0  0.58161144616E+01 -0.13938053036E+02  0.33354321345E+01  0.15467151691E+02  0.10566000000E+00 0.  1.
         13    1    4    4    0    0 -0.13827530193E+01  0.51267956813E+01  0.78084161618E+02  0.78264573720E+02  0.10566000000E+00 0. -1.
        -13    1    4    4    0    0 -0.33130028246E+01  0.63417711048E+01  0.96818306232E+02  0.97082385808E+02  0.10566000000E+00 0.  1.
        -14    1    4    4    0    0 -0.11203586177E+01  0.24694862502E+01  0.46555040851E+02  0.46633951092E+02  0.00000000000E+00 0.  1.
<mgrwt>
<rscale>  0 0.76483436E+02</rscale>
<asrwt>0</asrwt>
<pdfrwt beam="1">  1        2 0.35556995E-01 0.76483436E+02</pdfrwt>
<pdfrwt beam="2">  1       -1 0.97347103E-03 0.76483436E+02</pdfrwt>
<totfact> 0.26117181E+05</totfact>
</mgrwt>
</event>
<event>
 8    1  0.1226832E-020  0.7991751E+02  0.7818608E-02  0.1329286E+00
          2   -1    0    0  501    0  0.00000000000E+00  0.00000000000E+00  0.13540666370E+02  0.13540666610E+02  0.25500000000E-02 0. -1.
         -1   -1    0    0    0  501 -0.00000000000E+00 -0.00000000000E+00 -0.11791901879E+03  0.11791901890E+03  0.50400000000E-02 0.  1.
         24    2    1    2    0    0  0.00000000000E+00 -0.88817841970E-15 -0.10437835242E+03  0.13145968551E+03  0.79917510346E+02 0.  0.
         66    2    3    3    0    0  0.17234493301E+02 -0.66982570908E+01  0.60008825257E+01  0.19542389800E+02  0.20000001529E+01 0.  0.
        -13    1    3    3    0    0 -0.17234493301E+02  0.66982570908E+01 -0.11037923494E+03  0.11191729571E+03  0.10566000000E+00 0.  1.
         13    1    4    4    0    0  0.75686897437E+01 -0.23143905265E+01  0.19905442123E+01  0.81617950380E+01  0.10566000000E+00 0. -1.
        -13    1    4    4    0    0  0.12937672296E+01 -0.82503151735E+00  0.80009483861E+00  0.17337319387E+01  0.10566000000E+00 0.  1.
         14    1    4    4    0    0  0.83720363277E+01 -0.35588350469E+01  0.32102434747E+01  0.96468628232E+01  0.00000000000E+00 0. -1.
<mgrwt>
<rscale>  0 0.79917510E+02</rscale>
<asrwt>0</asrwt>
<pdfrwt beam="1">  1        2 0.20831795E-02 0.79917510E+02</pdfrwt>
<pdfrwt beam="2">  1       -1 0.18141387E-01 0.79917510E+02</pdfrwt>
<totfact> 0.11459613E+05</totfact>
</mgrwt>
</event>
<event>
 8    1  0.1226832E-020  0.8013103E+02  0.7818608E-02  0.1328680E+00
          2   -1    0    0  501    0  0.00000000000E+00  0.00000000000E+00  0.65567048372E+03  0.65567048372E+03  0.25500000000E-02 0. -1.
         -1   -1    0    0    0  501 -0.00000000000E+00 -0.00000000000E+00 -0.24482477795E+01  0.24482529672E+01  0.50400000000E-02 0.  1.
         24    2    1    2    0    0  0.17763568394E-14  0.35527136788E-14  0.65322223594E+03  0.65811873669E+03  0.80131030557E+02 0.  0.
         66    2    3    3    0    0  0.14157688280E+02 -0.28390588014E+02  0.52744999211E+03  0.52840700203E+03  0.19999997461E+01 0.  0.
        -13    1    3    3    0    0 -0.14157688280E+02  0.28390588014E+02  0.12577224383E+03  0.12971173466E+03  0.10566000000E+00 0.  1.
         13    1    4    4    0    0  0.69029646031E+01 -0.14119035246E+02  0.25358656905E+03  0.25407313365E+03  0.10566000000E+00 0. -1.
        -13    1    4    4    0    0  0.63600108847E-01 -0.30724729448E+00  0.39742609255E+01  0.39880270578E+01  0.10566000000E+00 0. -1.
         14    1    4    4    0    0  0.71911235684E+01 -0.13964305474E+02  0.26988916213E+03  0.27034584133E+03  0.00000000000E+00 0. -1.
<mgrwt>
<rscale>  0 0.80131031E+02</rscale>
<asrwt>0</asrwt>
<pdfrwt beam="1">  1        2 0.10087232E+00 0.80131031E+02</pdfrwt>
<pdfrwt beam="2">  1       -1 0.37665415E-03 0.80131031E+02</pdfrwt>
<totfact> 0.32789751E+05</totfact>
</mgrwt>
</event>
<event>
 8    1  0.1226832E-020  0.7919395E+02  0.7818608E-02  0.1331355E+00
          2   -1    0    0  501    0  0.00000000000E+00  0.00000000000E+00  0.42165582344E+03  0.42165582345E+03  0.25500000000E-02 0. -1.
         -1   -1    0    0    0  501 -0.00000000000E+00 -0.00000000000E+00 -0.37184824190E+01  0.37184858346E+01  0.50400000000E-02 0.  1.
         24    2    1    2    0    0  0.00000000000E+00  0.00000000000E+00  0.41793734102E+03  0.42537430929E+03  0.79193951649E+02 0.  0.
         66    2    3    3    0    0 -0.19133100896E+02  0.30922825147E+02  0.29293838069E+03  0.29519348153E+03  0.19999987563E+01 0.  0.
        -13    1    3    3    0    0  0.19133100896E+02 -0.30922825147E+02  0.12499896034E+03  0.13018082775E+03  0.10566000000E+00 0.  1.
         13    1    4    4    0    0 -0.51098510768E+01  0.84874213557E+01  0.75372790926E+02  0.76021152815E+02  0.10566000000E+00 0. -1.
        -13    1    4    4    0    0 -0.12099642534E+02  0.19629357411E+02  0.19284471392E+03  0.19421845400E+03  0.10566000000E+00 0.  1.
        -14    1    4    4    0    0 -0.19236072853E+01  0.28060463800E+01  0.24720875837E+02  0.24953874718E+02  0.00000000000E+00 0.  1.
<mgrwt>
<rscale>  0 0.79193952E+02</rscale>
<asrwt>0</asrwt>
<pdfrwt beam="1">  1        2 0.64870104E-01 0.79193952E+02</pdfrwt>
<pdfrwt beam="2">  1       -1 0.57207468E-03 0.79193952E+02</pdfrwt>
<totfact> 0.29545534E+05</totfact>
</mgrwt>
</event>
<event>
 8    1  0.1226832E-020  0.7948280E+02  0.7818608E-02  0.1330526E+00
         -1   -1    0    0    0  501 -0.00000000000E+00  0.00000000000E+00  0.10370386976E+01  0.10370509448E+01  0.50400000000E-02 0.  1.
          2   -1    0    0  501    0  0.00000000000E+00 -0.00000000000E+00 -0.15229612306E+04  0.15229612306E+04  0.25500000000E-02 0. -1.
         24    2    1    2    0    0  0.00000000000E+00  0.00000000000E+00 -0.15219241919E+04  0.15239982815E+04  0.79482804809E+02 0.  0.
         66    2    3    3    0    0  0.16652275235E+02  0.41151915342E+01 -0.14482713517E+04  0.14483743098E+04  0.20000002421E+01 0.  0.
        -13    1    3    3    0    0 -0.16652275235E+02 -0.41151915342E+01 -0.73652840161E+02  0.75623971726E+02  0.10566000000E+00 0.  1.
         13    1    4    4    0    0  0.12658437064E+02  0.36953691738E+01 -0.10962040930E+04  0.10962834107E+04  0.10566000000E+00 0. -1.
        -13    1    4    4    0    0  0.21326804591E+01  0.27904339841E+00 -0.21826319113E+03  0.21827381418E+03  0.10566000000E+00 0.  1.
        -14    1    4    4    0    0  0.18611577125E+01  0.14077896198E+00 -0.13380406757E+03  0.13381708495E+03  0.00000000000E+00 0.  1.
<mgrwt>
<rscale>  0 0.79482805E+02</rscale>
<asrwt>0</asrwt>
<pdfrwt beam="1">  1        2 0.23429994E+00 0.79482805E+02</pdfrwt>
<pdfrwt beam="2">  1       -1 0.15954658E-03 0.79482805E+02</pdfrwt>
<totfact> 0.33618471E+05</totfact>
</mgrwt>
</event>
<event>
 8    1  0.1226832E-020  0.8273879E+02  0.7818608E-02  0.1321454E+00
          2   -1    0    0  501    0  0.00000000000E+00  0.00000000000E+00  0.46471893291E+03  0.46471893292E+03  0.25500000000E-02 0. -1.
         -1   -1    0    0    0  501 -0.00000000000E+00 -0.00000000000E+00 -0.36827119872E+01  0.36827154359E+01  0.50400000000E-02 0.  1.
         24    2    1    2    0    0 -0.17763568394E-14  0.71054273576E-14  0.46103622093E+03  0.46840164836E+03  0.82738788830E+02 0.  0.
         66    2    3    3    0    0 -0.10890391919E+02  0.33056453938E+02  0.35699916903E+03  0.35869727691E+03  0.19999979459E+01 0.  0.
        -13    1    3    3    0    0  0.10890391919E+02 -0.33056453938E+02  0.10403705190E+03  0.10970437145E+03  0.10566000000E+00 0.  1.
         13    1    4    4    0    0 -0.84187589869E+01  0.25148745666E+02  0.27419491576E+03  0.27547449592E+03  0.10566000000E+00 0. -1.
        -13    1    4    4    0    0 -0.69145019698E+00  0.20835813257E+01  0.26120797371E+02  0.26213100425E+02  0.10566000000E+00 0.  1.
        -14    1    4    4    0    0 -0.17801827354E+01  0.58241269464E+01  0.56683455895E+02  0.57009680560E+02  0.00000000000E+00 0.  1.
<mgrwt>
<rscale>  0 0.82738789E+02</rscale>
<asrwt>0</asrwt>
<pdfrwt beam="1">  1        2 0.71495139E-01 0.82738789E+02</pdfrwt>
<pdfrwt beam="2">  1       -1 0.56657199E-03 0.82738789E+02</pdfrwt>
<totfact> 0.27232573E+05</totfact>
</mgrwt>
</event>
<event>
 8    1  0.1226832E-020  0.7883099E+02  0.7818608E-02  0.1332402E+00
          2   -1    0    0  501    0  0.00000000000E+00  0.00000000000E+00  0.48049362951E+03  0.48049362951E+03  0.25500000000E-02 0. -1.
         -1   -1    0    0    0  501 -0.00000000000E+00 -0.00000000000E+00 -0.32333008434E+01  0.32333047715E+01  0.50400000000E-02 0.  1.
         24    2    1    2    0    0  0.35527136788E-14  0.35527136788E-14  0.47726032866E+03  0.48372693428E+03  0.78830994138E+02 0.  0.
         66    2    3    3    0    0  0.17090733107E+02  0.21725291774E+02  0.41098096601E+03  0.41191435503E+03  0.20000001575E+01 0.  0.
        -13    1    3    3    0    0 -0.17090733107E+02 -0.21725291774E+02  0.66279362655E+02  0.71812579252E+02  0.10566000000E+00 0.  1.
         13    1    4    4    0    0  0.67349597946E+01  0.83475342223E+01  0.16612223385E+03  0.16646816138E+03  0.10566000000E+00 0. -1.
        -13    1    4    4    0    0  0.42058794051E+01  0.43896381352E+01  0.86707370152E+02  0.86920294220E+02  0.10566000000E+00 0.  1.
        -14    1    4    4    0    0  0.61498939073E+01  0.89881194160E+01  0.15815136200E+03  0.15852589943E+03  0.00000000000E+00 0.  1.
<mgrwt>
<rscale>  0 0.78830994E+02</rscale>
<asrwt>0</asrwt>
<pdfrwt beam="1">  1        2 0.73922115E-01 0.78830994E+02</pdfrwt>
<pdfrwt beam="2">  1       -1 0.49743108E-03 0.78830994E+02</pdfrwt>
<totfact> 0.31238803E+05</totfact>
</mgrwt>
</event>
<event>
 8    1  0.1226832E-020  0.7973575E+02  0.7818608E-02  0.1329803E+00
          2   -1    0    0  501    0  0.00000000000E+00  0.00000000000E+00  0.39304601186E+03  0.39304601187E+03  0.25500000000E-02 0. -1.
         -1   -1    0    0    0  501 -0.00000000000E+00 -0.00000000000E+00 -0.40439200869E+01  0.40439232276E+01  0.50400000000E-02 0.  1.
         24    2    1    2    0    0  0.12490009027E-15  0.00000000000E+00  0.38900209177E+03  0.39708993510E+03  0.79735745751E+02 0.  0.
         66    2    3    3    0    0  0.11779815818E+00  0.14013315551E+02  0.38036418546E+03  0.38062750883E+03  0.20000013752E+01 0.  0.
        -13    1    3    3    0    0 -0.11779815818E+00 -0.14013315551E+02  0.86379063108E+01  0.16462426267E+02  0.10566000000E+00 0.  1.
         13    1    4    4    0    0  0.44722355875E+00  0.71842674074E+01  0.18383987373E+03  0.18398077085E+03  0.10566000000E+00 0. -1.
        -13    1    4    4    0    0 -0.74546347005E+00  0.35884122546E+01  0.10729597368E+03  0.10735860260E+03  0.10566000000E+00 0.  1.
        -14    1    4    4    0    0  0.41603806948E+00  0.32406358889E+01  0.89228338049E+02  0.89288135380E+02  0.00000000000E+00 0.  1.
<mgrwt>
<rscale>  0 0.79735746E+02</rscale>
<asrwt>0</asrwt>
<pdfrwt beam="1">  1        2 0.60468631E-01 0.79735746E+02</pdfrwt>
<pdfrwt beam="2">  1       -1 0.62214165E-03 0.79735746E+02</pdfrwt>
<totfact> 0.28324303E+05</totfact>
</mgrwt>
</event>
<event>
 8    1  0.1226832E-020  0.7828035E+02  0.7818608E-02  0.1334004E+00
          2   -1    0    0  501    0  0.00000000000E+00  0.00000000000E+00  0.24461045930E+03  0.24461045932E+03  0.25500000000E-02 0. -1.
         -1   -1    0    0    0  501 -0.00000000000E+00 -0.00000000000E+00 -0.62628267738E+01  0.62628288017E+01  0.50400000000E-02 0.  1.
         24    2    1    2    0    0  0.00000000000E+00  0.00000000000E+00  0.23834763253E+03  0.25087328812E+03  0.78280347207E+02 0.  0.
         66    2    3    3    0    0 -0.61672567913E+01 -0.19150732430E+02  0.22675160599E+03  0.22765121662E+03  0.20000008651E+01 0.  0.
        -13    1    3    3    0    0  0.61672567913E+01  0.19150732430E+02  0.11596026544E+02  0.23222071496E+02  0.10566000000E+00 0.  1.
         13    1    4    4    0    0 -0.16622956598E+01 -0.55225693401E+01  0.64531323234E+02  0.64788616603E+02  0.10566000000E+00 0. -1.
        -13    1    4    4    0    0 -0.37618365008E+01 -0.10535738399E+02  0.11858998194E+03  0.11911653192E+03  0.10566000000E+00 0.  1.
         14    1    4    4    0    0 -0.74312463078E+00 -0.30924246904E+01  0.43630300818E+02  0.43746068099E+02  0.00000000000E+00 0. -1.
<mgrwt>
<rscale>  0 0.78280347E+02</rscale>
<asrwt>0</asrwt>
<pdfrwt beam="1">  1        2 0.37632384E-01 0.78280347E+02</pdfrwt>
<pdfrwt beam="2">  1       -1 0.96351182E-03 0.78280347E+02</pdfrwt>
<totfact> 0.25074212E+05</totfact>
</mgrwt>
</event>
<event>
 8    1  0.1226832E-020  0.7851668E+02  0.7818608E-02  0.1333314E+00
          2   -1    0    0  501    0  0.00000000000E+00  0.00000000000E+00  0.57461240986E+03  0.57461240987E+03  0.25500000000E-02 0. -1.
         -1   -1    0    0    0  501 -0.00000000000E+00 -0.00000000000E+00 -0.26821832319E+01  0.26821879672E+01  0.50400000000E-02 0.  1.
         24    2    1    2    0    0  0.00000000000E+00  0.00000000000E+00  0.57193022663E+03  0.57729459784E+03  0.78516676930E+02 0.  0.
         66    2    3    3    0    0 -0.17158672411E+02  0.25327170560E+02  0.46674767514E+03  0.46775343703E+03  0.20000003963E+01 0.  0.
        -13    1    3    3    0    0  0.17158672411E+02 -0.25327170560E+02  0.10518255149E+03  0.10954116080E+03  0.10566000000E+00 0.  1.
         13    1    4    4    0    0 -0.45340953078E+01  0.63031242334E+01  0.10922164919E+03  0.10949733883E+03  0.10566000000E+00 0. -1.
        -13    1    4    4    0    0 -0.54641279601E+01  0.91354627233E+01  0.17049332108E+03  0.17082534083E+03  0.10566000000E+00 0.  1.
        -14    1    4    4    0    0 -0.71604491433E+01  0.98885836031E+01  0.18703270487E+03  0.18743075737E+03  0.00000000000E+00 0.  1.
<mgrwt>
<rscale>  0 0.78516677E+02</rscale>
<asrwt>0</asrwt>
<pdfrwt beam="1">  1        2 0.88401972E-01 0.78516677E+02</pdfrwt>
<pdfrwt beam="2">  1       -1 0.41264365E-03 0.78516677E+02</pdfrwt>
<totfact> 0.33355481E+05</totfact>
</mgrwt>
</event>
<event>
 8    1  0.1226832E-020  0.7713896E+02  0.7818608E-02  0.1337372E+00
          2   -1    0    0  501    0  0.00000000000E+00  0.00000000000E+00  0.10830232587E+04  0.10830232587E+04  0.25500000000E-02 0. -1.
         -1   -1    0    0    0  501 -0.00000000000E+00 -0.00000000000E+00 -0.13735622311E+01  0.13735714777E+01  0.50400000000E-02 0.  1.
         24    2    1    2    0    0  0.00000000000E+00  0.00000000000E+00  0.10816496965E+04  0.10843968302E+04  0.77138961846E+02 0.  0.
         66    2    3    3    0    0 -0.60729579561E+01 -0.25527762171E+02  0.93806619601E+03  0.93843525911E+03  0.19999987752E+01 0.  0.
        -13    1    3    3    0    0  0.60729579561E+01  0.25527762171E+02  0.14358350048E+03  0.14596157109E+03  0.10566000000E+00 0.  1.
         13    1    4    4    0    0 -0.41810169907E+01 -0.19554281222E+02  0.69998370373E+03  0.70026926784E+03  0.10566000000E+00 0. -1.
        -13    1    4    4    0    0 -0.70182395971E+00 -0.23717562683E+01  0.10693259303E+03  0.10696124719E+03  0.10566000000E+00 0.  1.
        -14    1    4    4    0    0 -0.11901170058E+01 -0.36017246801E+01  0.13114989925E+03  0.13120474409E+03  0.00000000000E+00 0.  1.
<mgrwt>
<rscale>  0 0.77138962E+02</rscale>
<asrwt>0</asrwt>
<pdfrwt beam="1">  1        2 0.16661888E+00 0.77138962E+02</pdfrwt>
<pdfrwt beam="2">  1       -1 0.21131809E-03 0.77138962E+02</pdfrwt>
<totfact> 0.38755629E+05</totfact>
</mgrwt>
</event>
<event>
 8    1  0.1226832E-020  0.7721762E+02  0.7818608E-02  0.1337138E+00
          2   -1    0    0  501    0  0.00000000000E+00  0.00000000000E+00  0.19752212933E+03  0.19752212934E+03  0.25500000000E-02 0. -1.
         -1   -1    0    0    0  501 -0.00000000000E+00 -0.00000000000E+00 -0.75466998342E+01  0.75467015171E+01  0.50400000000E-02 0.  1.
         24    2    1    2    0    0 -0.35527136788E-14  0.00000000000E+00  0.18997542949E+03  0.20506883086E+03  0.77217624798E+02 0.  0.
         66    2    3    3    0    0  0.26109952127E+02  0.11890562271E+02  0.16356282674E+03  0.16607201279E+03  0.20000176128E+01 0.  0.
        -13    1    3    3    0    0 -0.26109952127E+02 -0.11890562271E+02  0.26412602751E+02  0.38996818067E+02  0.10566000000E+00 0.  1.
         13    1    4    4    0    0  0.12754416397E+02  0.63357058545E+01  0.79870469378E+02  0.81130261611E+02  0.10566000000E+00 0. -1.
        -13    1    4    4    0    0  0.13423305174E+01  0.89469705613E+00  0.82504482253E+01  0.84073416723E+01  0.10566000000E+00 0. -1.
         14    1    4    4    0    0  0.12013205213E+02  0.46601593603E+01  0.75441909137E+02  0.76534409510E+02  0.00000000000E+00 0. -1.
<mgrwt>
<rscale>  0 0.77217625E+02</rscale>
<asrwt>0</asrwt>
<pdfrwt beam="1">  1        2 0.30388019E-01 0.77217625E+02</pdfrwt>
<pdfrwt beam="2">  1       -1 0.11610309E-02 0.77217625E+02</pdfrwt>
<totfact> 0.24110120E+05</totfact>
</mgrwt>
</event>
<event>
 8    1  0.1226832E-020  0.7902448E+02  0.7818608E-02  0.1331843E+00
         -1   -1    0    0    0  501 -0.00000000000E+00  0.00000000000E+00  0.14390192411E+03  0.14390192420E+03  0.50400000000E-02 0.  1.
          2   -1    0    0  501    0  0.00000000000E+00 -0.00000000000E+00 -0.10849174788E+02  0.10849175088E+02  0.25500000000E-02 0. -1.
         24    2    1    2    0    0  0.00000000000E+00  0.00000000000E+00  0.13305274932E+03  0.15475109928E+03  0.79024481194E+02 0.  0.
         66    2    3    3    0    0 -0.22646888758E+02 -0.27041515323E+02  0.31808258004E+02  0.47538304771E+02  0.20000054596E+01 0.  0.
        -13    1    3    3    0    0  0.22646888758E+02  0.27041515323E+02  0.10124449132E+03  0.10721279451E+03  0.10566000000E+00 0.  1.
         13    1    4    4    0    0 -0.92032888703E+01 -0.11258410737E+02  0.13259527006E+02  0.19679394269E+02  0.10566000000E+00 0. -1.
        -13    1    4    4    0    0 -0.76003150018E+01 -0.78815759968E+01  0.10185335789E+02  0.14954472825E+02  0.10566000000E+00 0.  1.
        -14    1    4    4    0    0 -0.58432848862E+01 -0.79015285897E+01  0.83633952094E+01  0.12904437676E+02  0.00000000000E+00 0.  1.
<mgrwt>
<rscale>  0 0.79024481E+02</rscale>
<asrwt>0</asrwt>
<pdfrwt beam="1">  1        2 0.16691038E-02 0.79024481E+02</pdfrwt>
<pdfrwt beam="2">  1       -1 0.22138758E-01 0.79024481E+02</pdfrwt>
<totfact> 0.11243622E+05</totfact>
</mgrwt>
</event>
<event>
 8    1  0.1226832E-020  0.7705992E+02  0.7818608E-02  0.1337608E+00
         -1   -1    0    0    0  501 -0.00000000000E+00  0.00000000000E+00  0.28226536111E+02  0.28226536561E+02  0.50400000000E-02 0.  1.
          2   -1    0    0  501    0  0.00000000000E+00 -0.00000000000E+00 -0.52594408620E+02  0.52594408681E+02  0.25500000000E-02 0. -1.
         24    2    1    2    0    0  0.00000000000E+00  0.00000000000E+00 -0.24367872508E+02  0.80820945243E+02  0.77059924600E+02 0.  0.
         66    2    3    3    0    0 -0.32317015171E+02 -0.20630748426E+02 -0.15905522238E+02  0.41557224249E+02  0.19999998658E+01 0.  0.
        -13    1    3    3    0    0  0.32317015171E+02  0.20630748426E+02 -0.84623502707E+01  0.39263720994E+02  0.10566000000E+00 0.  1.
         13    1    4    4    0    0 -0.15649177455E+02 -0.90131862902E+01 -0.74181496424E+01  0.19523687927E+02  0.10566000000E+00 0. -1.
        -13    1    4    4    0    0 -0.15338355082E+01 -0.12106139247E+01 -0.10190272378E+01  0.22063132117E+01  0.10566000000E+00 0.  1.
         14    1    4    4    0    0 -0.15134002207E+02 -0.10406948211E+02 -0.74683453574E+01  0.19827223110E+02  0.00000000000E+00 0. -1.
<mgrwt>
<rscale>  0 0.77059925E+02</rscale>
<asrwt>0</asrwt>
<pdfrwt beam="1">  1        2 0.80914475E-02 0.77059925E+02</pdfrwt>
<pdfrwt beam="2">  1       -1 0.43425441E-02 0.77059925E+02</pdfrwt>
<totfact> 0.16734007E+05</totfact>
</mgrwt>
</event>
<event>
 8    1  0.1226832E-020  0.8066561E+02  0.7818608E-02  0.1327173E+00
         -1   -1    0    0    0  501 -0.00000000000E+00  0.00000000000E+00  0.11783926143E+01  0.11784033923E+01  0.50400000000E-02 0.  1.
          2   -1    0    0  501    0  0.00000000000E+00 -0.00000000000E+00 -0.13804632806E+04  0.13804632806E+04  0.25500000000E-02 0. -1.
         24    2    1    2    0    0 -0.17763568394E-14  0.35527136788E-14 -0.13792848880E+04  0.13816416840E+04  0.80665610553E+02 0.  0.
         66    2    3    3    0    0  0.15139609913E+02  0.18819433651E+02 -0.12427857921E+04  0.12430220851E+04  0.19999985865E+01 0.  0.
        -13    1    3    3    0    0 -0.15139609913E+02 -0.18819433651E+02 -0.13649909591E+03  0.13861959898E+03  0.10566000000E+00 0.  1.
         13    1    4    4    0    0  0.48131166094E+01  0.72710137406E+01 -0.44593510107E+03  0.44602035745E+03  0.10566000000E+00 0. -1.
        -13    1    4    4    0    0  0.46662365460E+01  0.55611122653E+01 -0.35529100056E+03  0.35536517271E+03  0.10566000000E+00 0.  1.
         14    1    4    4    0    0  0.56602567573E+01  0.59873076447E+01 -0.44155969048E+03  0.44163655489E+03  0.00000000000E+00 0. -1.
<mgrwt>
<rscale>  0 0.80665611E+02</rscale>
<asrwt>0</asrwt>
<pdfrwt beam="1">  1        2 0.21237767E+00 0.80665611E+02</pdfrwt>
<pdfrwt beam="2">  1       -1 0.18129311E-03 0.80665611E+02</pdfrwt>
<totfact> 0.33417439E+05</totfact>
</mgrwt>
</event>
<event>
 8    1  0.1226832E-020  0.8184679E+02  0.7818608E-02  0.1323891E+00
         -1   -1    0    0    0  501 -0.00000000000E+00  0.00000000000E+00  0.21120852896E+01  0.21120913030E+01  0.50400000000E-02 0.  1.
          2   -1    0    0  501    0  0.00000000000E+00 -0.00000000000E+00 -0.79292332750E+03  0.79292332750E+03  0.25500000000E-02 0. -1.
         24    2    1    2    0    0  0.00000000000E+00  0.35527136788E-14 -0.79081124221E+03  0.79503541881E+03  0.81846785834E+02 0.  0.
         66    2    3    3    0    0  0.48874302708E+01  0.26865255911E+02 -0.69140541821E+03  0.69194731106E+03  0.20000004893E+01 0.  0.
        -13    1    3    3    0    0 -0.48874302708E+01 -0.26865255911E+02 -0.99405823997E+02  0.10308810774E+03  0.10566000000E+00 0.  1.
         13    1    4    4    0    0  0.21003440222E+00  0.32170375577E+01 -0.74988270196E+02  0.75057613046E+02  0.10566000000E+00 0. -1.
        -13    1    4    4    0    0  0.17497121242E+01  0.86114970225E+01 -0.24071356489E+03  0.24087393146E+03  0.10566000000E+00 0.  1.
         14    1    4    4    0    0  0.29276837444E+01  0.15036721331E+02 -0.37570358313E+03  0.37601576656E+03  0.00000000000E+00 0. -1.
<mgrwt>
<rscale>  0 0.81846786E+02</rscale>
<asrwt>0</asrwt>
<pdfrwt beam="1">  1        2 0.12198797E+00 0.81846786E+02</pdfrwt>
<pdfrwt beam="2">  1       -1 0.32493729E-03 0.81846786E+02</pdfrwt>
<totfact> 0.32334971E+05</totfact>
</mgrwt>
</event>
<event>
 8    1  0.1226832E-020  0.7983726E+02  0.7818608E-02  0.1329514E+00
         -1   -1    0    0    0  501 -0.00000000000E+00  0.00000000000E+00  0.83409692264E+01  0.83409707491E+01  0.50400000000E-02 0.  1.
          2   -1    0    0  501    0  0.00000000000E+00 -0.00000000000E+00 -0.19104458899E+03  0.19104458901E+03  0.25500000000E-02 0. -1.
         24    2    1    2    0    0  0.00000000000E+00  0.00000000000E+00 -0.18270361976E+03  0.19938555976E+03  0.79837264260E+02 0.  0.
         66    2    3    3    0    0 -0.19469283498E+02  0.19532880387E+02 -0.16339761534E+03  0.16572075043E+03  0.20000020335E+01 0.  0.
        -13    1    3    3    0    0  0.19469283498E+02 -0.19532880387E+02 -0.19306004424E+02  0.33664809327E+02  0.10566000000E+00 0.  1.
         13    1    4    4    0    0 -0.14204984563E+02  0.13712194685E+02 -0.11423323807E+03  0.11592691540E+03  0.10566000000E+00 0. -1.
        -13    1    4    4    0    0 -0.41405149132E+01  0.50340860226E+01 -0.40218850167E+02  0.40743747479E+02  0.10566000000E+00 0.  1.
        -14    1    4    4    0    0 -0.11237840220E+01  0.78659967973E+00 -0.89455271039E+01  0.90500875549E+01  0.00000000000E+00 0.  1.
<mgrwt>
<rscale>  0 0.79837264E+02</rscale>
<asrwt>0</asrwt>
<pdfrwt beam="1">  1        2 0.29391472E-01 0.79837264E+02</pdfrwt>
<pdfrwt beam="2">  1       -1 0.12832263E-02 0.79837264E+02</pdfrwt>
<totfact> 0.21829023E+05</totfact>
</mgrwt>
</event>
<event>
 8    1  0.1226832E-020  0.8019876E+02  0.7818608E-02  0.1328488E+00
          2   -1    0    0  501    0  0.00000000000E+00  0.00000000000E+00  0.19691798815E+03  0.19691798816E+03  0.25500000000E-02 0. -1.
         -1   -1    0    0    0  501 -0.00000000000E+00 -0.00000000000E+00 -0.81656332586E+01  0.81656348140E+01  0.50400000000E-02 0.  1.
         24    2    1    2    0    0  0.71054273576E-14 -0.88817841970E-15  0.18875235489E+03  0.20508362298E+03  0.80198758953E+02 0.  0.
         66    2    3    3    0    0 -0.37424458070E+02 -0.63728114038E+01  0.61611627558E+02  0.72396100967E+02  0.19999994777E+01 0.  0.
        -13    1    3    3    0    0  0.37424458070E+02  0.63728114038E+01  0.12714072733E+03  0.13268752201E+03  0.10566000000E+00 0.  1.
         13    1    4    4    0    0 -0.25537327033E+02 -0.42518357609E+01  0.43133694045E+02  0.50306658658E+02  0.10566000000E+00 0. -1.
        -13    1    4    4    0    0 -0.31867612147E+01 -0.42937955045E+00  0.55465804056E+01  0.64121394299E+01  0.10566000000E+00 0. -1.
         14    1    4    4    0    0 -0.87003698221E+01 -0.16915960925E+01  0.12931353107E+02  0.15677302879E+02  0.00000000000E+00 0. -1.
<mgrwt>
<rscale>  0 0.80198759E+02</rscale>
<asrwt>0</asrwt>
<pdfrwt beam="1">  1        2 0.30295076E-01 0.80198759E+02</pdfrwt>
<pdfrwt beam="2">  1       -1 0.12562513E-02 0.80198759E+02</pdfrwt>
<totfact> 0.21796849E+05</totfact>
</mgrwt>
</event>
<event>
 8    1  0.1226832E-020  0.8087665E+02  0.7818608E-02  0.1326582E+00
         -1   -1    0    0    0  501 -0.00000000000E+00  0.00000000000E+00  0.24667375466E+01  0.24667426955E+01  0.50400000000E-02 0.  1.
          2   -1    0    0  501    0  0.00000000000E+00 -0.00000000000E+00 -0.66292273522E+03  0.66292273522E+03  0.25500000000E-02 0. -1.
         24    2    1    2    0    0  0.00000000000E+00  0.71054273576E-14 -0.66045599767E+03  0.66538947792E+03  0.80876649686E+02 0.  0.
         66    2    3    3    0    0  0.25751170943E+01  0.35913413487E+02 -0.48142702465E+03  0.48277570833E+03  0.19999996795E+01 0.  0.
        -13    1    3    3    0    0 -0.25751170943E+01 -0.35913413487E+02 -0.17902897302E+03  0.18261376959E+03  0.10566000000E+00 0.  1.
         13    1    4    4    0    0  0.12132791849E+01  0.16545312749E+02 -0.21979420365E+03  0.22041942415E+03  0.10566000000E+00 0. -1.
        -13    1    4    4    0    0  0.57236958762E+00  0.11572194255E+02 -0.16494821467E+03  0.16535467327E+03  0.10566000000E+00 0.  1.
        -14    1    4    4    0    0  0.78946832176E+00  0.77959064827E+01 -0.96684606325E+02  0.97001610906E+02  0.00000000000E+00 0.  1.
<mgrwt>
<rscale>  0 0.80876650E+02</rscale>
<asrwt>0</asrwt>
<pdfrwt beam="1">  1        2 0.10198797E+00 0.80876650E+02</pdfrwt>
<pdfrwt beam="2">  1       -1 0.37949901E-03 0.80876650E+02</pdfrwt>
<totfact> 0.32097049E+05</totfact>
</mgrwt>
</event>
<event>
 8    1  0.1226832E-020  0.8019921E+02  0.7818608E-02  0.1328487E+00
         -1   -1    0    0    0  501 -0.00000000000E+00  0.00000000000E+00  0.18606327156E+01  0.18606395417E+01  0.50400000000E-02 0.  1.
          2   -1    0    0  501    0  0.00000000000E+00 -0.00000000000E+00 -0.86420885546E+03  0.86420885546E+03  0.25500000000E-02 0. -1.
         24    2    1    2    0    0  0.00000000000E+00 -0.44408920985E-15 -0.86234822274E+03  0.86606949500E+03  0.80199207655E+02 0.  0.
         66    2    3    3    0    0  0.23748198410E+02 -0.30178409091E+01 -0.77850544318E+03  0.77887599100E+03  0.20000012953E+01 0.  0.
        -13    1    3    3    0    0 -0.23748198410E+02  0.30178409091E+01 -0.83842779561E+02  0.87193504002E+02  0.10566000000E+00 0.  1.
         13    1    4    4    0    0  0.10116268901E+02 -0.15062836153E+01 -0.31883266010E+03  0.31899668352E+03  0.10566000000E+00 0. -1.
        -13    1    4    4    0    0  0.12568105648E+02 -0.14389728514E+01 -0.43411879984E+03  0.43430308710E+03  0.10566000000E+00 0.  1.
        -14    1    4    4    0    0  0.10638238605E+01 -0.72584442431E-01 -0.25553983243E+02  0.25576220388E+02  0.00000000000E+00 0.  1.
<mgrwt>
<rscale>  0 0.80199208E+02</rscale>
<asrwt>0</asrwt>
<pdfrwt beam="1">  1        2 0.13295489E+00 0.80199208E+02</pdfrwt>
<pdfrwt beam="2">  1       -1 0.28625240E-03 0.80199208E+02</pdfrwt>
<totfact> 0.34550568E+05</totfact>
</mgrwt>
</event>
<event>
 8    1  0.1226832E-020  0.8111201E+02  0.7818608E-02  0.1325925E+00
          2   -1    0    0  501    0  0.00000000000E+00  0.00000000000E+00  0.11482592101E+03  0.11482592104E+03  0.25500000000E-02 0. -1.
         -1   -1    0    0    0  501 -0.00000000000E+00 -0.00000000000E+00 -0.14324199194E+02  0.14324200081E+02  0.50400000000E-02 0.  1.
         24    2    1    2    0    0  0.00000000000E+00  0.00000000000E+00  0.10050172182E+03  0.12915012112E+03  0.81112007109E+02 0.  0.
         66    2    3    3    0    0  0.16789799232E+02 -0.31666047524E+02  0.80414249460E+02  0.88062974301E+02  0.20000006305E+01 0.  0.
        -13    1    3    3    0    0 -0.16789799232E+02  0.31666047524E+02  0.20087472356E+02  0.41087146819E+02  0.10566000000E+00 0.  1.
         13    1    4    4    0    0  0.73847993806E+01 -0.13973299314E+02  0.35567936927E+02  0.38921429276E+02  0.10566000000E+00 0.  1.
        -13    1    4    4    0    0  0.36638173672E+01 -0.59846439462E+01  0.17085556029E+02  0.18470704093E+02  0.10566000000E+00 0. -1.
        -14    1    4    4    0    0  0.57411824838E+01 -0.11708104264E+02  0.27760756504E+02  0.30670840931E+02  0.00000000000E+00 0.  1.
<mgrwt>
<rscale>  0 0.81112007E+02</rscale>
<asrwt>0</asrwt>
<pdfrwt beam="1">  1        2 0.17665526E-01 0.81112007E+02</pdfrwt>
<pdfrwt beam="2">  1       -1 0.22037230E-02 0.81112007E+02</pdfrwt>
<totfact> 0.17775867E+05</totfact>
</mgrwt>
</event>
<event>
 8    1  0.1226832E-020  0.8013206E+02  0.7818608E-02  0.1328677E+00
         -1   -1    0    0    0  501 -0.00000000000E+00  0.00000000000E+00  0.29800457016E+02  0.29800457442E+02  0.50400000000E-02 0.  1.
          2   -1    0    0  501    0  0.00000000000E+00 -0.00000000000E+00 -0.53867851360E+02  0.53867851420E+02  0.25500000000E-02 0. -1.
         24    2    1    2    0    0  0.00000000000E+00  0.00000000000E+00 -0.24067394344E+02  0.83668308862E+02  0.80132056241E+02 0.  0.
         66    2    3    3    0    0  0.34616014738E+02  0.38912773173E+01 -0.32657686228E+02  0.47790533093E+02  0.20000170174E+01 0.  0.
        -13    1    3    3    0    0 -0.34616014738E+02 -0.38912773173E+01  0.85902918839E+01  0.35877775770E+02  0.10566000000E+00 0.  1.
         13    1    4    4    0    0  0.18909380064E+02  0.20996106517E+01 -0.16805982628E+02  0.25385532009E+02  0.10566000000E+00 0. -1.
        -13    1    4    4    0    0  0.66567412472E+01  0.37712998654E+00 -0.69764560309E+01  0.96507271149E+01  0.10566000000E+00 0.  1.
         14    1    4    4    0    0  0.90498934270E+01  0.14145366790E+01 -0.88752475691E+01  0.12754273969E+02  0.00000000000E+00 0. -1.
<mgrwt>
<rscale>  0 0.80132056E+02</rscale>
<asrwt>0</asrwt>
<pdfrwt beam="1">  1        2 0.82873618E-02 0.80132056E+02</pdfrwt>
<pdfrwt beam="2">  1       -1 0.45846857E-02 0.80132056E+02</pdfrwt>
<totfact> 0.15121890E+05</totfact>
</mgrwt>
</event>
<event>
 8    1  0.1226832E-020  0.7752901E+02  0.7818608E-02  0.1336214E+00
         -1   -1    0    0    0  501 -0.00000000000E+00  0.00000000000E+00  0.29859394343E+02  0.29859394769E+02  0.50400000000E-02 0.  1.
          2   -1    0    0  501    0  0.00000000000E+00 -0.00000000000E+00 -0.50325422563E+02  0.50325422627E+02  0.25500000000E-02 0. -1.
         24    2    1    2    0    0  0.17763568394E-14  0.00000000000E+00 -0.20466028219E+02  0.80184817396E+02  0.77529005087E+02 0.  0.
         66    2    3    3    0    0 -0.11154436129E+02 -0.34549957821E+02 -0.24214154107E+02  0.43685767511E+02  0.19999982702E+01 0.  0.
        -13    1    3    3    0    0  0.11154436129E+02  0.34549957821E+02  0.37481258879E+01  0.36499049885E+02  0.10566000000E+00 0.  1.
         13    1    4    4    0    0 -0.72345333614E+01 -0.22722071899E+02 -0.15548229614E+02  0.28467343264E+02  0.10566000000E+00 0. -1.
        -13    1    4    4    0    0  0.23213061010E-01 -0.60607825913E+00 -0.43073491832E+00  0.75137627581E+00  0.10566000000E+00 0.  1.
        -14    1    4    4    0    0 -0.39431158282E+01 -0.11221807664E+02 -0.82351895746E+01  0.14467047971E+02  0.00000000000E+00 0.  1.
<mgrwt>
<rscale>  0 0.77529005E+02</rscale>
<asrwt>0</asrwt>
<pdfrwt beam="1">  1        2 0.77423727E-02 0.77529005E+02</pdfrwt>
<pdfrwt beam="2">  1       -1 0.45937530E-02 0.77529005E+02</pdfrwt>
<totfact> 0.16303616E+05</totfact>
</mgrwt>
</event>
<event>
 8    1  0.1226832E-020  0.7983527E+02  0.7818608E-02  0.1329520E+00
          2   -1    0    0  501    0  0.00000000000E+00  0.00000000000E+00  0.69105524460E+03  0.69105524460E+03  0.25500000000E-02 0. -1.
         -1   -1    0    0    0  501 -0.00000000000E+00 -0.00000000000E+00 -0.23057716965E+01  0.23057772048E+01  0.50400000000E-02 0.  1.
         24    2    1    2    0    0  0.00000000000E+00  0.00000000000E+00  0.68874947290E+03  0.69336102181E+03  0.79835268772E+02 0.  0.
         66    2    3    3    0    0 -0.12048829749E+01  0.28052863614E+02  0.59069601542E+03  0.59136638181E+03  0.20000007754E+01 0.  0.
        -13    1    3    3    0    0  0.12048829749E+01 -0.28052863614E+02  0.98053457481E+02  0.10199464000E+03  0.10566000000E+00 0.  1.
         13    1    4    4    0    0 -0.47956668642E+00  0.11984031256E+02  0.24021412814E+03  0.24051337907E+03  0.10566000000E+00 0. -1.
        -13    1    4    4    0    0  0.25215045837E+00  0.11775335851E+01  0.25314851419E+02  0.25343698065E+02  0.10566000000E+00 0.  1.
        -14    1    4    4    0    0 -0.97746674688E+00  0.14891298773E+02  0.32516703586E+03  0.32550930468E+03  0.00000000000E+00 0.  1.
<mgrwt>
<rscale>  0 0.79835269E+02</rscale>
<asrwt>0</asrwt>
<pdfrwt beam="1">  1        2 0.10631627E+00 0.79835269E+02</pdfrwt>
<pdfrwt beam="2">  1       -1 0.35473427E-03 0.79835269E+02</pdfrwt>
<totfact> 0.33531584E+05</totfact>
</mgrwt>
</event>
<event>
 8    1  0.1226832E-020  0.8016202E+02  0.7818608E-02  0.1328592E+00
          2   -1    0    0  501    0  0.00000000000E+00  0.00000000000E+00  0.80227548736E+03  0.80227548737E+03  0.25500000000E-02 0. -1.
         -1   -1    0    0    0  501 -0.00000000000E+00 -0.00000000000E+00 -0.20024103134E+01  0.20024166562E+01  0.50400000000E-02 0.  1.
         24    2    1    2    0    0  0.00000000000E+00  0.00000000000E+00  0.80027307705E+03  0.80427790402E+03  0.80162017500E+02 0.  0.
         66    2    3    3    0    0 -0.18995779013E+02  0.22417495349E+02  0.67351874554E+03  0.67416235753E+03  0.20000005858E+01 0.  0.
        -13    1    3    3    0    0  0.18995779013E+02 -0.22417495349E+02  0.12675433151E+03  0.13011554649E+03  0.10566000000E+00 0.  1.
         13    1    4    4    0    0 -0.13931496584E+02  0.16851290705E+02  0.51743430200E+03  0.51789605196E+03  0.10566000000E+00 0. -1.
        -13    1    4    4    0    0 -0.77241147014E+00  0.95900000146E+00  0.27658754082E+02  0.27686352990E+02  0.10566000000E+00 0. -1.
         14    1    4    4    0    0 -0.42918709595E+01  0.46072046427E+01  0.12842568946E+03  0.12857995257E+03  0.00000000000E+00 0. -1.
<mgrwt>
<rscale>  0 0.80162017E+02</rscale>
<asrwt>0</asrwt>
<pdfrwt beam="1">  1        2 0.12342703E+00 0.80162017E+02</pdfrwt>
<pdfrwt beam="2">  1       -1 0.30806352E-03 0.80162017E+02</pdfrwt>
<totfact> 0.34202183E+05</totfact>
</mgrwt>
</event>
<event>
 8    1  0.1734383E-020  0.8271048E+02  0.7818608E-02  0.1321531E+00
         -1   -1    0    0    0  501 -0.00000000000E+00  0.00000000000E+00  0.60313608197E+01  0.60313629255E+01  0.50400000000E-02 0.  1.
          2   -1    0    0  501    0  0.00000000000E+00 -0.00000000000E+00 -0.28356049703E+03  0.28356049704E+03  0.25500000000E-02 0. -1.
         24    2    1    2    0    0  0.00000000000E+00  0.00000000000E+00 -0.27752913621E+03  0.28959185996E+03  0.82710482488E+02 0.  0.
         66    2    3    3    0    0  0.15451681389E+02  0.36130884298E+01 -0.27246576835E+03  0.27293479768E+03  0.19999992576E+01 0.  0.
        -13    1    3    3    0    0 -0.15451681389E+02 -0.36130884298E+01 -0.50633678549E+01  0.16657062280E+02  0.10566000000E+00 0.  1.
         13    1    4    4    0    0  0.65083614471E+01  0.14329125536E+01 -0.11945515899E+03  0.11964095528E+03  0.10566000000E+00 0. -1.
        -13    1    4    4    0    0  0.69236652845E+01  0.22460187503E+01 -0.12309286573E+03  0.12330793365E+03  0.10566000000E+00 0.  1.
        -14    1    4    4    0    0  0.20196546571E+01 -0.65842874158E-01 -0.29917743628E+02  0.29985908757E+02  0.00000000000E+00 0.  1.
<mgrwt>
<rscale>  0 0.82710482E+02</rscale>
<asrwt>0</asrwt>
<pdfrwt beam="1">  1        2 0.43624682E-01 0.82710482E+02</pdfrwt>
<pdfrwt beam="2">  1       -1 0.92790205E-03 0.82710482E+02</pdfrwt>
<totfact> 0.22884844E+05</totfact>
</mgrwt>
</event>
<event>
 8    1  0.1226832E-020  0.7561124E+02  0.7818608E-02  0.1341989E+00
          2   -1    0    0  501    0  0.00000000000E+00  0.00000000000E+00  0.97915972465E+03  0.97915972466E+03  0.25500000000E-02 0. -1.
         -1   -1    0    0    0  501 -0.00000000000E+00 -0.00000000000E+00 -0.14596806305E+01  0.14596893316E+01  0.50400000000E-02 0.  1.
         24    2    1    2    0    0  0.00000000000E+00  0.00000000000E+00  0.97770004402E+03  0.98061941399E+03  0.75611235993E+02 0.  0.
         66    2    3    3    0    0  0.23922503643E+01 -0.11368678871E+02  0.95541460226E+03  0.95548732694E+03  0.19999999202E+01 0.  0.
        -13    1    3    3    0    0 -0.23922503643E+01  0.11368678871E+02  0.22285441761E+02  0.25132087052E+02  0.10566000000E+00 0.  1.
         13    1    4    4    0    0  0.92896183708E+00 -0.28665400421E+01  0.24721419861E+03  0.24723258519E+03  0.10566000000E+00 0. -1.
        -13    1    4    4    0    0  0.37262108214E+00 -0.51090048455E+01  0.36794805513E+03  0.36798372683E+03  0.10566000000E+00 0.  1.
         14    1    4    4    0    0  0.10906674451E+01 -0.33931339829E+01  0.34025234852E+03  0.34027101491E+03  0.00000000000E+00 0. -1.
<mgrwt>
<rscale>  0 0.75611236E+02</rscale>
<asrwt>0</asrwt>
<pdfrwt beam="1">  1        2 0.15064022E+00 0.75611236E+02</pdfrwt>
<pdfrwt beam="2">  1       -1 0.22456653E-03 0.75611236E+02</pdfrwt>
<totfact> 0.40729491E+05</totfact>
</mgrwt>
</event>
<event>
 8    1  0.1226832E-020  0.8154587E+02  0.7818608E-02  0.1324721E+00
          2   -1    0    0  501    0  0.00000000000E+00  0.00000000000E+00  0.25076293745E+03  0.25076293746E+03  0.25500000000E-02 0. -1.
         -1   -1    0    0    0  501 -0.00000000000E+00 -0.00000000000E+00 -0.66294962585E+01  0.66294981743E+01  0.50400000000E-02 0.  1.
         24    2    1    2    0    0  0.00000000000E+00  0.00000000000E+00  0.24413344119E+03  0.25739243563E+03  0.81545869394E+02 0.  0.
         66    2    3    3    0    0 -0.13371101658E+02  0.76669753804E+01  0.24120234577E+03  0.24170258683E+03  0.20000014467E+01 0.  0.
        -13    1    3    3    0    0  0.13371101658E+02 -0.76669753804E+01  0.29310954189E+01  0.15689848802E+02  0.10566000000E+00 0.  1.
         13    1    4    4    0    0 -0.54338702038E+01  0.32058197490E+01  0.96211131931E+02  0.96417826657E+02  0.10566000000E+00 0. -1.
        -13    1    4    4    0    0 -0.80537703995E+00  0.23267721122E+00  0.84799016832E+01  0.85218934195E+01  0.10566000000E+00 0.  1.
         14    1    4    4    0    0 -0.71318544142E+01  0.42284784202E+01  0.13651131215E+03  0.13676286675E+03  0.00000000000E+00 0. -1.
<mgrwt>
<rscale>  0 0.81545869E+02</rscale>
<asrwt>0</asrwt>
<pdfrwt beam="1">  1        2 0.38578908E-01 0.81545869E+02</pdfrwt>
<pdfrwt beam="2">  1       -1 0.10199228E-02 0.81545869E+02</pdfrwt>
<totfact> 0.22720851E+05</totfact>
</mgrwt>
</event>
<event>
 8    1  0.1226832E-020  0.7034693E+02  0.7818608E-02  0.1358917E+00
          2   -1    0    0  501    0  0.00000000000E+00  0.00000000000E+00  0.60190528108E+03  0.60190528109E+03  0.25500000000E-02 0. -1.
         -1   -1    0    0    0  501 -0.00000000000E+00 -0.00000000000E+00 -0.20554243505E+01  0.20554305297E+01  0.50400000000E-02 0.  1.
         24    2    1    2    0    0  0.00000000000E+00 -0.35527136788E-14  0.59984985673E+03  0.60396071162E+03  0.70346929970E+02 0.  0.
         66    2    3    3    0    0 -0.16510697973E+02 -0.28207238935E+02  0.41108748217E+03  0.41238958464E+03  0.20000123648E+01 0.  0.
        -13    1    3    3    0    0  0.16510697973E+02  0.28207238935E+02  0.18876237456E+03  0.19157112697E+03  0.10566000000E+00 0.  1.
         13    1    4    4    0    0 -0.33262629251E+01 -0.60684669739E+01  0.79101064673E+02  0.79403273943E+02  0.10566000000E+00 0.  1.
        -13    1    4    4    0    0 -0.64565862782E+01 -0.11714476790E+02  0.16993743997E+03  0.17046307853E+03  0.10566000000E+00 0. -1.
         14    1    4    4    0    0 -0.67278487701E+01 -0.10424295171E+02  0.16204897752E+03  0.16252323217E+03  0.00000000000E+00 0. -1.
<mgrwt>
<rscale>  0 0.70346930E+02</rscale>
<asrwt>0</asrwt>
<pdfrwt beam="1">  1        2 0.92600791E-01 0.70346930E+02</pdfrwt>
<pdfrwt beam="2">  1       -1 0.31621968E-03 0.70346930E+02</pdfrwt>
<totfact> 0.44882890E+05</totfact>
</mgrwt>
</event>
<event>
 8    1  0.1226832E-020  0.7858899E+02  0.7818608E-02  0.1333104E+00
          2   -1    0    0  501    0  0.00000000000E+00  0.00000000000E+00  0.10595168133E+03  0.10595168136E+03  0.25500000000E-02 0. -1.
         -1   -1    0    0    0  501 -0.00000000000E+00 -0.00000000000E+00 -0.14573222857E+02  0.14573223728E+02  0.50400000000E-02 0.  1.
         24    2    1    2    0    0 -0.17763568394E-14  0.00000000000E+00  0.91378458470E+02  0.12052490509E+03  0.78588994608E+02 0.  0.
         66    2    3    3    0    0 -0.87613063477E+01 -0.37671742498E+02  0.35302381870E+02  0.52403996382E+02  0.19999998221E+01 0.  0.
        -13    1    3    3    0    0  0.87613063477E+01  0.37671742498E+02  0.56076076600E+02  0.68120908704E+02  0.10566000000E+00 0.  1.
         13    1    4    4    0    0 -0.31220740105E+01 -0.14293225461E+02  0.13225760747E+02  0.19722463121E+02  0.10566000000E+00 0. -1.
        -13    1    4    4    0    0 -0.43155284719E+01 -0.14929546016E+02  0.13930971912E+02  0.20870991176E+02  0.10566000000E+00 0.  1.
        -14    1    4    4    0    0 -0.13237038653E+01 -0.84489710209E+01  0.81456492124E+01  0.11810542084E+02  0.00000000000E+00 0.  1.
<mgrwt>
<rscale>  0 0.78588995E+02</rscale>
<asrwt>0</asrwt>
<pdfrwt beam="1">  1        2 0.16300259E-01 0.78588995E+02</pdfrwt>
<pdfrwt beam="2">  1       -1 0.22420344E-02 0.78588995E+02</pdfrwt>
<totfact> 0.18895658E+05</totfact>
</mgrwt>
</event>
<event>
 8    1  0.1226832E-020  0.8047997E+02  0.7818608E-02  0.1327695E+00
          2   -1    0    0  501    0  0.00000000000E+00  0.00000000000E+00  0.19398482592E+03  0.19398482593E+03  0.25500000000E-02 0. -1.
         -1   -1    0    0    0  501 -0.00000000000E+00 -0.00000000000E+00 -0.83473349494E+01  0.83473364709E+01  0.50400000000E-02 0.  1.
         24    2    1    2    0    0  0.00000000000E+00  0.17763568394E-14  0.18563749097E+03  0.20233216240E+03  0.80479971984E+02 0.  0.
         66    2    3    3    0    0 -0.14568867013E+02 -0.15321566857E+02  0.17887943870E+03  0.18013565972E+03  0.20000036303E+01 0.  0.
        -13    1    3    3    0    0  0.14568867013E+02  0.15321566857E+02  0.67580522630E+01  0.22196502684E+02  0.10566000000E+00 0.  1.
         13    1    4    4    0    0 -0.72245656761E+01 -0.76008050789E+01  0.85198977691E+02  0.85841968469E+02  0.10566000000E+00 0. -1.
        -13    1    4    4    0    0 -0.63466340729E-01 -0.93544847727E-01  0.68051096920E+00  0.69788095672E+00  0.10566000000E+00 0. -1.
         14    1    4    4    0    0 -0.72808349961E+01 -0.76272169305E+01  0.92999950045E+02  0.93595810294E+02  0.00000000000E+00 0. -1.
<mgrwt>
<rscale>  0 0.80479972E+02</rscale>
<asrwt>0</asrwt>
<pdfrwt beam="1">  1        2 0.29843813E-01 0.80479972E+02</pdfrwt>
<pdfrwt beam="2">  1       -1 0.12842058E-02 0.80479972E+02</pdfrwt>
<totfact> 0.21484465E+05</totfact>
</mgrwt>
</event>
<event>
 8    1  0.1226832E-020  0.8147925E+02  0.7818608E-02  0.1324905E+00
          2   -1    0    0  501    0  0.00000000000E+00  0.00000000000E+00  0.23055259755E+02  0.23055259896E+02  0.25500000000E-02 0. -1.
         -1   -1    0    0    0  501 -0.00000000000E+00 -0.00000000000E+00 -0.71988652378E+02  0.71988652554E+02  0.50400000000E-02 0.  1.
         24    2    1    2    0    0  0.00000000000E+00  0.00000000000E+00 -0.48933392623E+02  0.95043912451E+02  0.81479251226E+02 0.  0.
         66    2    3    3    0    0  0.21457787274E+02  0.33628809912E+02 -0.33985067859E+02  0.52443477382E+02  0.19999979432E+01 0.  0.
        -13    1    3    3    0    0 -0.21457787274E+02 -0.33628809912E+02 -0.14948324764E+02  0.42600435069E+02  0.10566000000E+00 0.  1.
         13    1    4    4    0    0  0.75000889985E+01  0.11407339499E+02 -0.11702911045E+02  0.17981880335E+02  0.10566000000E+00 0.  1.
        -13    1    4    4    0    0  0.13236977398E+02  0.21069118443E+02 -0.20630936912E+02  0.32322933724E+02  0.10566000000E+00 0. -1.
         14    1    4    4    0    0  0.72072087732E+00  0.11523519699E+01 -0.16512199014E+01  0.21386633228E+01  0.00000000000E+00 0. -1.
<mgrwt>
<rscale>  0 0.81479251E+02</rscale>
<asrwt>0</asrwt>
<pdfrwt beam="1">  1        2 0.35469631E-02 0.81479251E+02</pdfrwt>
<pdfrwt beam="2">  1       -1 0.11075177E-01 0.81479251E+02</pdfrwt>
<totfact> 0.12124045E+05</totfact>
</mgrwt>
</event>
<event>
 8    1  0.1226832E-020  0.8176173E+02  0.7818608E-02  0.1324125E+00
          2   -1    0    0  501    0  0.00000000000E+00  0.00000000000E+00  0.12020130783E+02  0.12020131053E+02  0.25500000000E-02 0. -1.
         -1   -1    0    0    0  501 -0.00000000000E+00 -0.00000000000E+00 -0.13903718990E+03  0.13903718999E+03  0.50400000000E-02 0.  1.
         24    2    1    2    0    0 -0.71054273576E-14 -0.35527136788E-14 -0.12701705911E+03  0.15105732104E+03  0.81761732700E+02 0.  0.
         66    2    3    3    0    0 -0.33345940379E+02 -0.16719822643E+02 -0.32756557451E+02  0.49683963857E+02  0.19999999010E+01 0.  0.
        -13    1    3    3    0    0  0.33345940379E+02  0.16719822643E+02 -0.94260501662E+02  0.10137335718E+03  0.10566000000E+00 0.  1.
         13    1    4    4    0    0 -0.11088701425E+02 -0.59988310571E+01 -0.11936854882E+02  0.17362169849E+02  0.10566000000E+00 0. -1.
        -13    1    4    4    0    0 -0.24625063703E+01 -0.89992077716E+00 -0.20800656845E+01  0.33483775648E+01  0.10566000000E+00 0.  1.
         14    1    4    4    0    0 -0.19794732583E+02 -0.98210708083E+01 -0.18739636884E+02  0.28973416444E+02  0.00000000000E+00 0. -1.
<mgrwt>
<rscale>  0 0.81761733E+02</rscale>
<asrwt>0</asrwt>
<pdfrwt beam="1">  1        2 0.18492510E-02 0.81761733E+02</pdfrwt>
<pdfrwt beam="2">  1       -1 0.21390336E-01 0.81761733E+02</pdfrwt>
<totfact> 0.10406195E+05</totfact>
</mgrwt>
</event>
<event>
 8    1  0.1226832E-020  0.8192379E+02  0.7818608E-02  0.1323679E+00
         -1   -1    0    0    0  501 -0.00000000000E+00  0.00000000000E+00  0.79106813489E+01  0.79106829544E+01  0.50400000000E-02 0.  1.
          2   -1    0    0  501    0  0.00000000000E+00 -0.00000000000E+00 -0.21210264963E+03  0.21210264965E+03  0.25500000000E-02 0. -1.
         24    2    1    2    0    0  0.00000000000E+00 -0.35527136788E-14 -0.20419196828E+03  0.22001333260E+03  0.81923785381E+02 0.  0.
         66    2    3    3    0    0 -0.97837782833E+01  0.19346566646E+02 -0.19541493801E+03  0.19662403199E+03  0.20000003062E+01 0.  0.
        -13    1    3    3    0    0  0.97837782833E+01 -0.19346566646E+02 -0.87770302719E+01  0.23389300608E+02  0.10566000000E+00 0.  1.
         13    1    4    4    0    0 -0.30623550222E+01  0.53206328164E+01 -0.48283341405E+02  0.48672162199E+02  0.10566000000E+00 0.  1.
        -13    1    4    4    0    0 -0.55303772675E+01  0.11682039027E+02 -0.12339432279E+03  0.12406943689E+03  0.10566000000E+00 0. -1.
        -14    1    4    4    0    0 -0.11910459936E+01  0.23438948021E+01 -0.23737273817E+02  0.23882432909E+02  0.00000000000E+00 0.  1.
<mgrwt>
<rscale>  0 0.81923785E+02</rscale>
<asrwt>0</asrwt>
<pdfrwt beam="1">  1        2 0.32631172E-01 0.81923785E+02</pdfrwt>
<pdfrwt beam="2">  1       -1 0.12170282E-02 0.81923785E+02</pdfrwt>
<totfact> 0.21146988E+05</totfact>
</mgrwt>
</event>
