<event>
 8    1  0.8247621E-018  0.7839128E+02  0.7818608E-02  0.1333680E+00
         -2   -1    0    0    0  501 -0.00000000000E+00  0.00000000000E+00  0.81350253753E+01  0.81350257750E+01  0.25500000000E-02 0.  1.
          1   -1    0    0  501    0  0.00000000000E+00 -0.00000000000E+00 -0.18884981410E+03  0.18884981416E+03  0.50400000000E-02 0. -1.
        -24    2    1    2    0    0  0.00000000000E+00  0.71054273576E-14 -0.18071478872E+03  0.19698483994E+03  0.78391276958E+02 0.  0.
         66    2    3    3    0    0  0.17289426650E+02  0.35123105491E+02 -0.87104878297E+02  0.95518671652E+02  0.19999994208E+01 0.  0.
         13    1    3    3    0    0 -0.17289426650E+02 -0.35123105491E+02 -0.93609910424E+02  0.10146616829E+03  0.10566000000E+00 0. -1.
         13    1    4    4    0    0  0.35682055749E+01  0.72961023715E+01 -0.18745731995E+02  0.20429851514E+02  0.10566000000E+00 0. -1.
        -13    1    4    4    0    0  0.23450851137E+01  0.53162952441E+01 -0.14276757785E+02  0.15414259509E+02  0.10566000000E+00 0.  1.
        -14    1    4    4    0    0  0.11376135961E+02  0.22510707876E+02 -0.54082388517E+02  0.59674560629E+02  0.00000000000E+00 0.  1.
<mgrwt>
<rscale>  0 0.78391277E+02</rscale>
<asrwt>0</asrwt>
<pdfrwt beam="1">  1        1 0.29053814E-01 0.78391277E+02</pdfrwt>
<pdfrwt beam="2">  1       -2 0.12515425E-02 0.78391277E+02</pdfrwt>
<totfact> 0.17403660E+05</totfact>
</mgrwt>
</event>
<event>
 8    1  0.8247621E-018  0.8041272E+02  0.7818608E-02  0.1327884E+00
         -2   -1    0    0    0  501 -0.00000000000E+00  0.00000000000E+00  0.56408799727E+03  0.56408799727E+03  0.25500000000E-02 0.  1.
          1   -1    0    0  501    0  0.00000000000E+00 -0.00000000000E+00 -0.28657762051E+01  0.28657806370E+01  0.50400000000E-02 0. -1.
        -24    2    1    2    0    0 -0.17763568394E-14  0.00000000000E+00  0.56122222106E+03  0.56695377791E+03  0.80412715863E+02 0.  0.
         66    2    3    3    0    0 -0.92401027964E+01 -0.17085912641E+02  0.52878302883E+03  0.52914345833E+03  0.19999995436E+01 0.  0.
         13    1    3    3    0    0  0.92401027964E+01  0.17085912641E+02  0.32439192230E+02  0.37810319583E+02  0.10566000000E+00 0. -1.
         13    1    4    4    0    0 -0.33653895740E+00 -0.60648809959E+00  0.15512104408E+02  0.15527962954E+02  0.10566000000E+00 0. -1.
        -13    1    4    4    0    0 -0.39176482932E+01 -0.55205164585E+01  0.18658680149E+03  0.18670958659E+03  0.10566000000E+00 0.  1.
        -14    1    4    4    0    0 -0.49859155458E+01 -0.10958908082E+02  0.32668412294E+03  0.32690590879E+03  0.00000000000E+00 0.  1.
<mgrwt>
<rscale>  0 0.80412716E+02</rscale>
<asrwt>0</asrwt>
<pdfrwt beam="1">  1        1 0.44088891E-03 0.80412716E+02</pdfrwt>
<pdfrwt beam="2">  1       -2 0.86782784E-01 0.80412716E+02</pdfrwt>
<totfact> 0.45174169E+04</totfact>
</mgrwt>
</event>
<event>
 8    1  0.8247621E-018  0.8272143E+02  0.7818608E-02  0.1321501E+00
         -2   -1    0    0    0  501 -0.00000000000E+00  0.00000000000E+00  0.10093082232E+02  0.10093082555E+02  0.25500000000E-02 0.  1.
          1   -1    0    0  501    0  0.00000000000E+00 -0.00000000000E+00 -0.16949317793E+03  0.16949317801E+03  0.50400000000E-02 0. -1.
        -24    2    1    2    0    0  0.00000000000E+00  0.00000000000E+00 -0.15940009570E+03  0.17958626056E+03  0.82721426931E+02 0.  0.
         66    2    3    3    0    0 -0.23830484133E+02 -0.26381863805E+02 -0.33959544947E+02  0.49205135973E+02  0.20000003186E+01 0.  0.
         13    1    3    3    0    0  0.23830484133E+02  0.26381863805E+02 -0.12544055075E+03  0.13038112459E+03  0.10566000000E+00 0. -1.
         13    1    4    4    0    0 -0.15081029022E+02 -0.15655193340E+02 -0.20608304452E+02  0.29953896096E+02  0.10566000000E+00 0. -1.
        -13    1    4    4    0    0 -0.19796275497E+01 -0.25567794371E+01 -0.36075274273E+01  0.48457676894E+01  0.10566000000E+00 0.  1.
        -14    1    4    4    0    0 -0.67698275615E+01 -0.81698910277E+01 -0.97437130682E+01  0.14405472188E+02  0.00000000000E+00 0.  1.
<mgrwt>
<rscale>  0 0.82721427E+02</rscale>
<asrwt>0</asrwt>
<pdfrwt beam="1">  1        1 0.26075872E-01 0.82721427E+02</pdfrwt>
<pdfrwt beam="2">  1       -2 0.15527820E-02 0.82721427E+02</pdfrwt>
<totfact> 0.14772727E+05</totfact>
</mgrwt>
</event>
<event>
 8    1  0.8247621E-018  0.7968918E+02  0.7818608E-02  0.1329936E+00
         -2   -1    0    0    0  501 -0.00000000000E+00  0.00000000000E+00  0.30503136081E+01  0.30503146739E+01  0.25500000000E-02 0.  1.
          1   -1    0    0  501    0  0.00000000000E+00 -0.00000000000E+00 -0.52046814691E+03  0.52046814693E+03  0.50400000000E-02 0. -1.
        -24    2    1    2    0    0  0.71054273576E-14  0.00000000000E+00 -0.51741783330E+03  0.52351846160E+03  0.79689180105E+02 0.  0.
         66    2    3    3    0    0  0.36270491745E+02 -0.15853506381E+02 -0.28728342856E+03  0.29000456984E+03  0.19999925894E+01 0.  0.
         13    1    3    3    0    0 -0.36270491745E+02  0.15853506381E+02 -0.23013440474E+03  0.23351389176E+03  0.10566000000E+00 0. -1.
         13    1    4    4    0    0  0.24403004190E+02 -0.10357042424E+02 -0.19824326763E+03  0.20000794800E+03  0.10566000000E+00 0. -1.
        -13    1    4    4    0    0  0.38179850324E+01 -0.16621695819E+01 -0.29452185313E+02  0.29745288722E+02  0.10566000000E+00 0.  1.
         14    1    4    4    0    0  0.80495025224E+01 -0.38342943751E+01 -0.59587975617E+02  0.60251333117E+02  0.00000000000E+00 0. -1.
<mgrwt>
<rscale>  0 0.79689180E+02</rscale>
<asrwt>0</asrwt>
<pdfrwt beam="1">  1        1 0.80071953E-01 0.79689180E+02</pdfrwt>
<pdfrwt beam="2">  1       -2 0.46927951E-03 0.79689180E+02</pdfrwt>
<totfact> 0.19899092E+05</totfact>
</mgrwt>
</event>
<event>
 8    1  0.8247621E-018  0.7916810E+02  0.7818608E-02  0.1331429E+00
          1   -1    0    0  501    0  0.00000000000E+00  0.00000000000E+00  0.14588061453E+03  0.14588061462E+03  0.50400000000E-02 0. -1.
         -2   -1    0    0    0  501 -0.00000000000E+00 -0.00000000000E+00 -0.10740953982E+02  0.10740954285E+02  0.25500000000E-02 0.  1.
        -24    2    1    2    0    0 -0.17763568394E-14  0.00000000000E+00  0.13513966055E+03  0.15662156890E+03  0.79168099588E+02 0.  0.
         66    2    3    3    0    0 -0.86032989689E+01  0.33744419877E+02  0.30485863343E+02  0.46325915953E+02  0.19999997833E+01 0.  0.
         13    1    3    3    0    0  0.86032989689E+01 -0.33744419877E+02  0.10465379720E+03  0.11029565295E+03  0.10566000000E+00 0. -1.
         13    1    4    4    0    0 -0.32231248467E+01  0.15088617647E+02  0.12717679097E+02  0.19995135457E+02  0.10566000000E+00 0. -1.
        -13    1    4    4    0    0 -0.15307152468E+01  0.55697234071E+01  0.48306963463E+01  0.75307170458E+01  0.10566000000E+00 0.  1.
         14    1    4    4    0    0 -0.38494588754E+01  0.13086078823E+02  0.12937487900E+02  0.18800063451E+02  0.00000000000E+00 0. -1.
<mgrwt>
<rscale>  0 0.79168100E+02</rscale>
<asrwt>0</asrwt>
<pdfrwt beam="1">  1        1 0.22443169E-01 0.79168100E+02</pdfrwt>
<pdfrwt beam="2">  1       -2 0.16524546E-02 0.79168100E+02</pdfrwt>
<totfact> 0.16152710E+05</totfact>
</mgrwt>
</event>
<event>
 8    1  0.8247621E-018  0.7324951E+02  0.7818608E-02  0.1349379E+00
         -2   -1    0    0    0  501 -0.00000000000E+00  0.00000000000E+00  0.30678312179E+02  0.30678312285E+02  0.25500000000E-02 0.  1.
          1   -1    0    0  501    0  0.00000000000E+00 -0.00000000000E+00 -0.43723809075E+02  0.43723809366E+02  0.50400000000E-02 0. -1.
        -24    2    1    2    0    0  0.00000000000E+00  0.44408920985E-15 -0.13045496896E+02  0.74402121651E+02  0.73249510012E+02 0.  0.
         66    2    3    3    0    0  0.36536041509E+02  0.21079344127E+01 -0.67360541025E+01  0.37265267328E+02  0.20000018869E+01 0.  0.
         13    1    3    3    0    0 -0.36536041509E+02 -0.21079344127E+01 -0.63094427932E+01  0.37136854323E+02  0.10566000000E+00 0. -1.
         13    1    4    4    0    0  0.10772140582E+02  0.13532656842E+00 -0.20558598585E+01  0.10967910001E+02  0.10566000000E+00 0. -1.
        -13    1    4    4    0    0  0.17267191173E+02  0.69644416788E+00 -0.29088613361E+01  0.17524655882E+02  0.10566000000E+00 0.  1.
         14    1    4    4    0    0  0.84967097537E+01  0.12761636764E+01 -0.17713329079E+01  0.87727014447E+01  0.00000000000E+00 0. -1.
<mgrwt>
<rscale>  0 0.73249510E+02</rscale>
<asrwt>0</asrwt>
<pdfrwt beam="1">  1        1 0.67267399E-02 0.73249510E+02</pdfrwt>
<pdfrwt beam="2">  1       -2 0.47197403E-02 0.73249510E+02</pdfrwt>
<totfact> 0.16455243E+05</totfact>
</mgrwt>
</event>
<event>
 8    1  0.8247621E-018  0.8234029E+02  0.7818608E-02  0.1322538E+00
          1   -1    0    0  501    0  0.00000000000E+00  0.00000000000E+00  0.37924159826E+02  0.37924160161E+02  0.50400000000E-02 0. -1.
         -2   -1    0    0    0  501 -0.00000000000E+00 -0.00000000000E+00 -0.44693960141E+02  0.44693960214E+02  0.25500000000E-02 0.  1.
        -24    2    1    2    0    0  0.00000000000E+00  0.00000000000E+00 -0.67698003152E+01  0.82618120375E+02  0.82340291583E+02 0.  0.
         66    2    3    3    0    0 -0.91007049932E+01 -0.28999267958E+02 -0.31214846269E+02  0.43613610262E+02  0.19999997443E+01 0.  0.
         13    1    3    3    0    0  0.91007049932E+01  0.28999267958E+02  0.24445045954E+02  0.39004510113E+02  0.10566000000E+00 0. -1.
         13    1    4    4    0    0 -0.12074812499E+01 -0.22799375138E+01 -0.27018847085E+01  0.37373079950E+01  0.10566000000E+00 0. -1.
        -13    1    4    4    0    0 -0.67931234900E+01 -0.23924926013E+02 -0.25255683769E+02  0.35445864895E+02  0.10566000000E+00 0.  1.
        -14    1    4    4    0    0 -0.11001002533E+01 -0.27944044305E+01 -0.32572777921E+01  0.44304373716E+01  0.00000000000E+00 0.  1.
<mgrwt>
<rscale>  0 0.82340292E+02</rscale>
<asrwt>0</asrwt>
<pdfrwt beam="1">  1        1 0.58344862E-02 0.82340292E+02</pdfrwt>
<pdfrwt beam="2">  1       -2 0.68759939E-02 0.82340292E+02</pdfrwt>
<totfact> 0.11599260E+05</totfact>
</mgrwt>
</event>
<event>
 8    1  0.8247621E-018  0.8000395E+02  0.7818608E-02  0.1329040E+00
         -2   -1    0    0    0  501 -0.00000000000E+00  0.00000000000E+00  0.18636559479E+03  0.18636559481E+03  0.25500000000E-02 0.  1.
          1   -1    0    0  501    0  0.00000000000E+00 -0.00000000000E+00 -0.85861231332E+01  0.85861246124E+01  0.50400000000E-02 0. -1.
        -24    2    1    2    0    0  0.00000000000E+00  0.00000000000E+00  0.17777947166E+03  0.19495171942E+03  0.80003952166E+02 0.  0.
         66    2    3    3    0    0  0.24476550156E+02  0.16407831403E+02  0.15477574140E+03  0.15756855197E+03  0.20000012324E+01 0.  0.
         13    1    3    3    0    0 -0.24476550156E+02 -0.16407831403E+02  0.23003730257E+02  0.37383167451E+02  0.10566000000E+00 0. -1.
         13    1    4    4    0    0  0.87259800703E+01  0.66784696043E+01  0.55207643265E+02  0.56290671726E+02  0.10566000000E+00 0. -1.
        -13    1    4    4    0    0  0.49791503700E+01  0.31196507575E+01  0.33640714162E+02  0.34150153333E+02  0.10566000000E+00 0.  1.
         14    1    4    4    0    0  0.10771419715E+02  0.66097110414E+01  0.65927383971E+02  0.67127726909E+02  0.00000000000E+00 0. -1.
<mgrwt>
<rscale>  0 0.80003952E+02</rscale>
<asrwt>0</asrwt>
<pdfrwt beam="1">  1        1 0.13209423E-02 0.80003952E+02</pdfrwt>
<pdfrwt beam="2">  1       -2 0.28671627E-01 0.80003952E+02</pdfrwt>
<totfact> 0.87473751E+04</totfact>
</mgrwt>
</event>
<event>
 8    1  0.8247621E-018  0.7919365E+02  0.7818608E-02  0.1331355E+00
          1   -1    0    0  501    0  0.00000000000E+00  0.00000000000E+00  0.12005064735E+03  0.12005064746E+03  0.50400000000E-02 0. -1.
         -2   -1    0    0    0  501 -0.00000000000E+00 -0.00000000000E+00 -0.13060392449E+02  0.13060392698E+02  0.25500000000E-02 0.  1.
        -24    2    1    2    0    0 -0.35527136788E-14  0.00000000000E+00  0.10699025490E+03  0.13311104016E+03  0.79193651054E+02 0.  0.
         66    2    3    3    0    0 -0.28637017413E+02 -0.29036532543E+01  0.78862316097E+01  0.29911580054E+02  0.20000009453E+01 0.  0.
         13    1    3    3    0    0  0.28637017413E+02  0.29036532543E+01  0.99104023295E+02  0.10319946010E+03  0.10566000000E+00 0. -1.
         13    1    4    4    0    0 -0.12629056942E+02 -0.99334774333E+00  0.28044115236E+01  0.12975195837E+02  0.10566000000E+00 0. -1.
        -13    1    4    4    0    0 -0.13363468652E+02 -0.18271375848E+01  0.39164183020E+01  0.14045291827E+02  0.10566000000E+00 0.  1.
        -14    1    4    4    0    0 -0.26444918193E+01 -0.83167926192E-01  0.11654017840E+01  0.28910923895E+01  0.00000000000E+00 0.  1.
<mgrwt>
<rscale>  0 0.79193651E+02</rscale>
<asrwt>0</asrwt>
<pdfrwt beam="1">  1        1 0.18469330E-01 0.79193651E+02</pdfrwt>
<pdfrwt beam="2">  1       -2 0.20092912E-02 0.79193651E+02</pdfrwt>
<totfact> 0.15585938E+05</totfact>
</mgrwt>
</event>
<event>
 8    1  0.8247621E-018  0.7939035E+02  0.7818608E-02  0.1330790E+00
          1   -1    0    0  501    0  0.00000000000E+00  0.00000000000E+00  0.28438926148E+02  0.28438926594E+02  0.50400000000E-02 0. -1.
         -2   -1    0    0    0  501 -0.00000000000E+00 -0.00000000000E+00 -0.55406691246E+02  0.55406691304E+02  0.25500000000E-02 0.  1.
        -24    2    1    2    0    0  0.00000000000E+00  0.00000000000E+00 -0.26967765098E+02  0.83845617899E+02  0.79390347565E+02 0.  0.
         66    2    3    3    0    0 -0.29987255783E+02  0.17219942615E+02 -0.34024075831E+02  0.48553060351E+02  0.20000000804E+01 0.  0.
         13    1    3    3    0    0  0.29987255783E+02 -0.17219942615E+02  0.70563107330E+01  0.35292557547E+02  0.10566000000E+00 0. -1.
         13    1    4    4    0    0 -0.13485097429E+02  0.79853122721E+01 -0.16553625569E+02  0.22795761630E+02  0.10566000000E+00 0. -1.
        -13    1    4    4    0    0 -0.11438551211E+02  0.60805840873E+01 -0.12271924967E+02  0.17844474300E+02  0.10566000000E+00 0.  1.
         14    1    4    4    0    0 -0.50636071434E+01  0.31540462552E+01 -0.51985252950E+01  0.79128244215E+01  0.00000000000E+00 0. -1.
<mgrwt>
<rscale>  0 0.79390348E+02</rscale>
<asrwt>0</asrwt>
<pdfrwt beam="1">  1        1 0.43752195E-02 0.79390348E+02</pdfrwt>
<pdfrwt beam="2">  1       -2 0.85241064E-02 0.79390348E+02</pdfrwt>
<totfact> 0.12246899E+05</totfact>
</mgrwt>
</event>
<event>
 8    1  0.8247621E-018  0.7886021E+02  0.7818608E-02  0.1332317E+00
          1   -1    0    0  501    0  0.00000000000E+00  0.00000000000E+00  0.12089501812E+02  0.12089502862E+02  0.50400000000E-02 0. -1.
         -2   -1    0    0    0  501 -0.00000000000E+00 -0.00000000000E+00 -0.12860193106E+03  0.12860193108E+03  0.25500000000E-02 0.  1.
        -24    2    1    2    0    0  0.00000000000E+00  0.00000000000E+00 -0.11651242924E+03  0.14069143394E+03  0.78860214409E+02 0.  0.
         66    2    3    3    0    0 -0.27096990390E+02 -0.24167595118E+02 -0.85608298252E+02  0.93011291133E+02  0.20000016705E+01 0.  0.
         13    1    3    3    0    0  0.27096990390E+02  0.24167595118E+02 -0.30904130993E+02  0.47680142810E+02  0.10566000000E+00 0. -1.
         13    1    4    4    0    0 -0.12803778118E+02 -0.12044046519E+02 -0.40471063534E+02  0.44123847727E+02  0.10566000000E+00 0. -1.
        -13    1    4    4    0    0 -0.11353553964E+02 -0.10215603462E+02 -0.36788964708E+02  0.39833413487E+02  0.10566000000E+00 0.  1.
         14    1    4    4    0    0 -0.29396583080E+01 -0.19079451369E+01 -0.83482700102E+01  0.90540299191E+01  0.00000000000E+00 0. -1.
<mgrwt>
<rscale>  0 0.78860214E+02</rscale>
<asrwt>0</asrwt>
<pdfrwt beam="1">  1        1 0.18599235E-02 0.78860214E+02</pdfrwt>
<pdfrwt beam="2">  1       -2 0.19784912E-01 0.78860214E+02</pdfrwt>
<totfact> 0.10287236E+05</totfact>
</mgrwt>
</event>
<event>
 8    1  0.8247621E-018  0.7877024E+02  0.7818608E-02  0.1332578E+00
         -2   -1    0    0    0  501 -0.00000000000E+00  0.00000000000E+00  0.21750251418E+03  0.21750251420E+03  0.25500000000E-02 0.  1.
          1   -1    0    0  501    0  0.00000000000E+00 -0.00000000000E+00 -0.71318137089E+01  0.71318154898E+01  0.50400000000E-02 0. -1.
        -24    2    1    2    0    0 -0.11102230246E-15  0.00000000000E+00  0.21037070047E+03  0.22463432969E+03  0.78770238392E+02 0.  0.
         66    2    3    3    0    0 -0.30679246210E+00  0.37591092947E+02  0.71996153373E+02  0.81244264341E+02  0.19999993087E+01 0.  0.
         13    1    3    3    0    0  0.30679246210E+00 -0.37591092947E+02  0.13837454710E+03  0.14339006535E+03  0.10566000000E+00 0. -1.
         13    1    4    4    0    0  0.34364779123E+00  0.15901945508E+02  0.31459938472E+02  0.35252359601E+02  0.10566000000E+00 0. -1.
        -13    1    4    4    0    0 -0.23779696419E+00  0.18125798651E+02  0.34400652940E+02  0.38884665498E+02  0.10566000000E+00 0.  1.
         14    1    4    4    0    0 -0.41264328914E+00  0.35633487885E+01  0.61355619603E+01  0.71072392419E+01  0.00000000000E+00 0. -1.
<mgrwt>
<rscale>  0 0.78770238E+02</rscale>
<asrwt>0</asrwt>
<pdfrwt beam="1">  1        1 0.10972021E-02 0.78770238E+02</pdfrwt>
<pdfrwt beam="2">  1       -2 0.33461930E-01 0.78770238E+02</pdfrwt>
<totfact> 0.85491653E+04</totfact>
</mgrwt>
</event>
<event>
 8    1  0.8247621E-018  0.7685418E+02  0.7818608E-02  0.1338224E+00
         -2   -1    0    0    0  501 -0.00000000000E+00  0.00000000000E+00  0.47548015626E+02  0.47548015694E+02  0.25500000000E-02 0.  1.
          1   -1    0    0  501    0  0.00000000000E+00 -0.00000000000E+00 -0.31055790854E+02  0.31055791263E+02  0.50400000000E-02 0. -1.
        -24    2    1    2    0    0 -0.71054273576E-14  0.00000000000E+00  0.16492224771E+02  0.78603806957E+02  0.76854180044E+02 0.  0.
         66    2    3    3    0    0 -0.37585339563E+02  0.32741634301E+01  0.92919119766E+00  0.37792079791E+02  0.20000006037E+01 0.  0.
         13    1    3    3    0    0  0.37585339563E+02 -0.32741634301E+01  0.15563033574E+02  0.40811727166E+02  0.10566000000E+00 0. -1.
         13    1    4    4    0    0 -0.13295666286E+01  0.12561351083E+00  0.24295731430E+00  0.13615133000E+01  0.10566000000E+00 0. -1.
        -13    1    4    4    0    0 -0.16807246683E+02  0.21939081741E+01  0.12891150849E+00  0.16950650617E+02  0.10566000000E+00 0.  1.
         14    1    4    4    0    0 -0.19448526252E+02  0.95464174519E+00  0.55732237487E+00  0.19479915874E+02  0.00000000000E+00 0. -1.
<mgrwt>
<rscale>  0 0.76854180E+02</rscale>
<asrwt>0</asrwt>
<pdfrwt beam="1">  1        1 0.47778140E-02 0.76854180E+02</pdfrwt>
<pdfrwt beam="2">  1       -2 0.73150794E-02 0.76854180E+02</pdfrwt>
<totfact> 0.13645036E+05</totfact>
</mgrwt>
</event>
<event>
 8    1  0.8247621E-018  0.8208247E+02  0.7818608E-02  0.1323243E+00
         -2   -1    0    0    0  501 -0.00000000000E+00  0.00000000000E+00  0.58603824838E+02  0.58603824893E+02  0.25500000000E-02 0.  1.
          1   -1    0    0  501    0  0.00000000000E+00 -0.00000000000E+00 -0.28741862767E+02  0.28741863209E+02  0.50400000000E-02 0. -1.
        -24    2    1    2    0    0 -0.35527136788E-14  0.00000000000E+00  0.29861962071E+02  0.87345688102E+02  0.82082473472E+02 0.  0.
         66    2    3    3    0    0 -0.18929309201E+02 -0.25964198785E+02  0.42068016060E+02  0.52973354993E+02  0.19999996646E+01 0.  0.
         13    1    3    3    0    0  0.18929309201E+02  0.25964198785E+02 -0.12206053989E+02  0.34372333109E+02  0.10566000000E+00 0. -1.
         13    1    4    4    0    0 -0.51325076349E+00 -0.91529267936E+00  0.17615968829E+01  0.20531864622E+01  0.10566000000E+00 0. -1.
        -13    1    4    4    0    0 -0.12040227881E+02 -0.17060874327E+02  0.27782606898E+02  0.34755214433E+02  0.10566000000E+00 0.  1.
         14    1    4    4    0    0 -0.63758305563E+01 -0.79880317782E+01  0.12523812279E+02  0.16164954097E+02  0.00000000000E+00 0. -1.
<mgrwt>
<rscale>  0 0.82082473E+02</rscale>
<asrwt>0</asrwt>
<pdfrwt beam="1">  1        1 0.44218252E-02 0.82082473E+02</pdfrwt>
<pdfrwt beam="2">  1       -2 0.90159729E-02 0.82082473E+02</pdfrwt>
<totfact> 0.11142878E+05</totfact>
</mgrwt>
</event>
<event>
 8    1  0.8247621E-018  0.8104705E+02  0.7818608E-02  0.1326106E+00
          1   -1    0    0  501    0  0.00000000000E+00  0.00000000000E+00  0.13223058899E+02  0.13223059860E+02  0.50400000000E-02 0. -1.
         -2   -1    0    0    0  501 -0.00000000000E+00 -0.00000000000E+00 -0.12418880390E+03  0.12418880392E+03  0.25500000000E-02 0.  1.
        -24    2    1    2    0    0  0.35527136788E-14 -0.71054273576E-14 -0.11096574500E+03  0.13741186378E+03  0.81047046494E+02 0.  0.
         66    2    3    3    0    0  0.24803737542E+02 -0.27211640098E+02 -0.84111669201E+02  0.91839379719E+02  0.20000045999E+01 0.  0.
         13    1    3    3    0    0 -0.24803737542E+02  0.27211640098E+02 -0.26854075795E+02  0.45572484063E+02  0.10566000000E+00 0. -1.
         13    1    4    4    0    0  0.91447914127E+01 -0.89586927997E+01 -0.29396425504E+02  0.32063162400E+02  0.10566000000E+00 0. -1.
        -13    1    4    4    0    0  0.83917597635E+01 -0.93816157153E+01 -0.29719051750E+02  0.32274905830E+02  0.10566000000E+00 0.  1.
        -14    1    4    4    0    0  0.72671863654E+01 -0.88713315829E+01 -0.24996191947E+02  0.27501311489E+02  0.00000000000E+00 0.  1.
<mgrwt>
<rscale>  0 0.81047046E+02</rscale>
<asrwt>0</asrwt>
<pdfrwt beam="1">  1        1 0.20343169E-02 0.81047046E+02</pdfrwt>
<pdfrwt beam="2">  1       -2 0.19105969E-01 0.81047046E+02</pdfrwt>
<totfact> 0.96874001E+04</totfact>
</mgrwt>
</event>
<event>
 8    1  0.8247621E-018  0.7940219E+02  0.7818608E-02  0.1330757E+00
          1   -1    0    0  501    0  0.00000000000E+00  0.00000000000E+00  0.18897430763E+02  0.18897431435E+02  0.50400000000E-02 0. -1.
         -2   -1    0    0    0  501 -0.00000000000E+00 -0.00000000000E+00 -0.83406931947E+02  0.83406931986E+02  0.25500000000E-02 0.  1.
        -24    2    1    2    0    0  0.00000000000E+00 -0.71054273576E-14 -0.64509501184E+02  0.10230436342E+03  0.79402185309E+02 0.  0.
         66    2    3    3    0    0 -0.16545823870E+02  0.35866665319E+02 -0.37094281337E+02  0.54223312975E+02  0.19999983554E+01 0.  0.
         13    1    3    3    0    0  0.16545823870E+02 -0.35866665319E+02 -0.27415219847E+02  0.48081050446E+02  0.10566000000E+00 0. -1.
         13    1    4    4    0    0 -0.28473101539E+01  0.51237944257E+01 -0.56588901169E+01  0.81482909754E+01  0.10566000000E+00 0. -1.
        -13    1    4    4    0    0 -0.51909739747E+01  0.13296537699E+02 -0.13124956083E+02  0.19391228992E+02  0.10566000000E+00 0.  1.
        -14    1    4    4    0    0 -0.85075397416E+01  0.17446333194E+02 -0.18310435137E+02  0.26683793008E+02  0.00000000000E+00 0.  1.
<mgrwt>
<rscale>  0 0.79402185E+02</rscale>
<asrwt>0</asrwt>
<pdfrwt beam="1">  1        1 0.29072971E-02 0.79402185E+02</pdfrwt>
<pdfrwt beam="2">  1       -2 0.12831836E-01 0.79402185E+02</pdfrwt>
<totfact> 0.11288456E+05</totfact>
</mgrwt>
</event>
<event>
 8    1  0.8247621E-018  0.8181296E+02  0.7818608E-02  0.1323984E+00
         -2   -1    0    0    0  501 -0.00000000000E+00  0.00000000000E+00  0.22700690333E+01  0.22700704655E+01  0.25500000000E-02 0.  1.
          1   -1    0    0  501    0  0.00000000000E+00 -0.00000000000E+00 -0.73713149069E+03  0.73713149071E+03  0.50400000000E-02 0. -1.
        -24    2    1    2    0    0  0.71054273576E-14 -0.88817841970E-15 -0.73486142166E+03  0.73940156117E+03  0.81812955119E+02 0.  0.
         66    2    3    3    0    0 -0.33709920062E+02  0.69612599359E+01 -0.56699558464E+03  0.56804296567E+03  0.19999995281E+01 0.  0.
         13    1    3    3    0    0  0.33709920062E+02 -0.69612599359E+01 -0.16786583702E+03  0.17135859550E+03  0.10566000000E+00 0. -1.
         13    1    4    4    0    0 -0.80020524613E+01  0.15614485962E+01 -0.12975671637E+03  0.13001264389E+03  0.10566000000E+00 0. -1.
        -13    1    4    4    0    0 -0.18091478413E+02  0.36580650934E+01 -0.31908447283E+03  0.31961788904E+03  0.10566000000E+00 0.  1.
        -14    1    4    4    0    0 -0.76163891873E+01  0.17417462463E+01 -0.11815439545E+03  0.11841243274E+03  0.00000000000E+00 0.  1.
<mgrwt>
<rscale>  0 0.81812955E+02</rscale>
<asrwt>0</asrwt>
<pdfrwt beam="1">  1        1 0.11340465E+00 0.81812955E+02</pdfrwt>
<pdfrwt beam="2">  1       -2 0.34924209E-03 0.81812955E+02</pdfrwt>
<totfact> 0.18858024E+05</totfact>
</mgrwt>
</event>
<event>
 8    1  0.8247621E-018  0.7976380E+02  0.7818608E-02  0.1329723E+00
          1   -1    0    0  501    0  0.00000000000E+00  0.00000000000E+00  0.12943373747E+04  0.12943373747E+04  0.50400000000E-02 0. -1.
         -2   -1    0    0    0  501 -0.00000000000E+00 -0.00000000000E+00 -0.12288635798E+01  0.12288662255E+01  0.25500000000E-02 0.  1.
        -24    2    1    2    0    0  0.88817841970E-15  0.00000000000E+00  0.12931085111E+04  0.12955662409E+04  0.79763795795E+02 0.  0.
         66    2    3    3    0    0 -0.47688746900E+01 -0.24891560931E+02  0.11465935208E+04  0.11468753350E+04  0.19999985761E+01 0.  0.
         13    1    3    3    0    0  0.47688746900E+01  0.24891560931E+02  0.14651499029E+03  0.14869090596E+03  0.10566000000E+00 0. -1.
         13    1    4    4    0    0 -0.13546104368E+00 -0.10845694634E+00  0.10113069758E+02  0.10115110310E+02  0.10566000000E+00 0.  1.
        -13    1    4    4    0    0 -0.41591459893E+01 -0.22231067971E+02  0.10268797415E+04  0.10271287814E+04  0.10566000000E+00 0.  1.
         14    1    4    4    0    0 -0.47426765702E+00 -0.25520360135E+01  0.10960070956E+03  0.10963144327E+03  0.00000000000E+00 0. -1.
<mgrwt>
<rscale>  0 0.79763796E+02</rscale>
<asrwt>0</asrwt>
<pdfrwt beam="1">  1        1 0.19912925E+00 0.79763796E+02</pdfrwt>
<pdfrwt beam="2">  1       -2 0.18905573E-03 0.79763796E+02</pdfrwt>
<totfact> 0.17381209E+05</totfact>
</mgrwt>
</event>
<event>
 8    1  0.8247621E-018  0.7737662E+02  0.7818608E-02  0.1336665E+00
         -2   -1    0    0    0  501 -0.00000000000E+00  0.00000000000E+00  0.41717872271E+02  0.41717872349E+02  0.25500000000E-02 0.  1.
          1   -1    0    0  501    0  0.00000000000E+00 -0.00000000000E+00 -0.35878756191E+02  0.35878756545E+02  0.50400000000E-02 0. -1.
        -24    2    1    2    0    0  0.00000000000E+00 -0.35527136788E-14  0.58391160798E+01  0.77596628895E+02  0.77376621399E+02 0.  0.
         66    2    3    3    0    0 -0.14272737503E+02  0.21898551784E+02  0.31489742217E+02  0.40973912019E+02  0.19999987854E+01 0.  0.
         13    1    3    3    0    0  0.14272737503E+02 -0.21898551784E+02 -0.25650626137E+02  0.36622716876E+02  0.10566000000E+00 0. -1.
         13    1    4    4    0    0 -0.21632734112E+00  0.89055617482E+00  0.10589821504E+01  0.14044554281E+01  0.10566000000E+00 0. -1.
        -13    1    4    4    0    0 -0.95740124878E+01  0.14148901083E+02  0.21190202856E+02  0.27219275855E+02  0.10566000000E+00 0.  1.
         14    1    4    4    0    0 -0.44823976740E+01  0.68590945264E+01  0.92405572107E+01  0.12350180735E+02  0.00000000000E+00 0. -1.
<mgrwt>
<rscale>  0 0.77376621E+02</rscale>
<asrwt>0</asrwt>
<pdfrwt beam="1">  1        1 0.55198087E-02 0.77376621E+02</pdfrwt>
<pdfrwt beam="2">  1       -2 0.64181342E-02 0.77376621E+02</pdfrwt>
<totfact> 0.13705584E+05</totfact>
</mgrwt>
</event>
<event>
 8    1  0.8247621E-018  0.7976087E+02  0.7818608E-02  0.1329731E+00
         -2   -1    0    0    0  501 -0.00000000000E+00  0.00000000000E+00  0.10836427799E+02  0.10836428099E+02  0.25500000000E-02 0.  1.
          1   -1    0    0  501    0  0.00000000000E+00 -0.00000000000E+00 -0.14676877359E+03  0.14676877367E+03  0.50400000000E-02 0. -1.
        -24    2    1    2    0    0  0.17763568394E-14  0.00000000000E+00 -0.13593234579E+03  0.15760520177E+03  0.79760873832E+02 0.  0.
         66    2    3    3    0    0 -0.15390497238E+02 -0.33460789545E+02 -0.37914773381E+02  0.52896331534E+02  0.20000017430E+01 0.  0.
         13    1    3    3    0    0  0.15390497238E+02  0.33460789545E+02 -0.98017572406E+02  0.10470887024E+03  0.10566000000E+00 0. -1.
         13    1    4    4    0    0 -0.48714779566E+01 -0.12026490084E+02 -0.13467994698E+02  0.18702026800E+02  0.10566000000E+00 0.  1.
        -13    1    4    4    0    0 -0.32803744130E+01 -0.73652250469E+01 -0.75539660361E+01  0.11049025441E+02  0.10566000000E+00 0.  1.
        -14    1    4    4    0    0 -0.72386448686E+01 -0.14069074414E+02 -0.16892812647E+02  0.23145279292E+02  0.00000000000E+00 0.  1.
<mgrwt>
<rscale>  0 0.79760874E+02</rscale>
<asrwt>0</asrwt>
<pdfrwt beam="1">  1        1 0.22579810E-01 0.79760874E+02</pdfrwt>
<pdfrwt beam="2">  1       -2 0.16671429E-02 0.79760874E+02</pdfrwt>
<totfact> 0.15851605E+05</totfact>
</mgrwt>
</event>
<event>
 8    1  0.8247621E-018  0.8028744E+02  0.7818608E-02  0.1328238E+00
          1   -1    0    0  501    0  0.00000000000E+00  0.00000000000E+00  0.15138377009E+03  0.15138377017E+03  0.50400000000E-02 0. -1.
         -2   -1    0    0    0  501 -0.00000000000E+00 -0.00000000000E+00 -0.10645250377E+02  0.10645250683E+02  0.25500000000E-02 0.  1.
        -24    2    1    2    0    0  0.00000000000E+00  0.00000000000E+00  0.14073851971E+03  0.16202902086E+03  0.80287437802E+02 0.  0.
         66    2    3    3    0    0 -0.28777277159E+02  0.89512592581E+01  0.16970687847E+02  0.34644782853E+02  0.20000024855E+01 0.  0.
         13    1    3    3    0    0  0.28777277159E+02 -0.89512592581E+01  0.12376783187E+03  0.12738423800E+03  0.10566000000E+00 0. -1.
         13    1    4    4    0    0 -0.15983158726E+01  0.19264868535E+00  0.66878673292E+00  0.17464726950E+01  0.10566000000E+00 0. -1.
        -13    1    4    4    0    0 -0.16025469262E+02  0.55774821982E+01  0.92916496186E+01  0.19346056172E+02  0.10566000000E+00 0.  1.
         14    1    4    4    0    0 -0.11153492024E+02  0.31811283746E+01  0.70102514951E+01  0.13552253986E+02  0.00000000000E+00 0. -1.
<mgrwt>
<rscale>  0 0.80287438E+02</rscale>
<asrwt>0</asrwt>
<pdfrwt beam="1">  1        1 0.23289811E-01 0.80287438E+02</pdfrwt>
<pdfrwt beam="2">  1       -2 0.16377308E-02 0.80287438E+02</pdfrwt>
<totfact> 0.15664405E+05</totfact>
</mgrwt>
</event>
<event>
 8    1  0.8247621E-018  0.8000675E+02  0.7818608E-02  0.1329032E+00
          1   -1    0    0  501    0  0.00000000000E+00  0.00000000000E+00  0.20758529606E+02  0.20758530217E+02  0.50400000000E-02 0. -1.
         -2   -1    0    0    0  501 -0.00000000000E+00 -0.00000000000E+00 -0.77089748247E+02  0.77089748289E+02  0.25500000000E-02 0.  1.
        -24    2    1    2    0    0 -0.17763568394E-14  0.00000000000E+00 -0.56331218642E+02  0.97848278507E+02  0.80006746047E+02 0.  0.
         66    2    3    3    0    0 -0.11411644699E+02 -0.24118077109E+02 -0.64594031961E+02  0.69916351861E+02  0.20000035955E+01 0.  0.
         13    1    3    3    0    0  0.11411644699E+02  0.24118077109E+02  0.82628133195E+01  0.27931926646E+02  0.10566000000E+00 0. -1.
         13    1    4    4    0    0 -0.22402072067E+01 -0.62552589294E+01 -0.15855939078E+02  0.17192113328E+02  0.10566000000E+00 0. -1.
        -13    1    4    4    0    0 -0.63883250125E+01 -0.12970869746E+02 -0.33913324215E+02  0.36867043301E+02  0.10566000000E+00 0.  1.
        -14    1    4    4    0    0 -0.27831124794E+01 -0.48919484341E+01 -0.14824768668E+02  0.15857195232E+02  0.00000000000E+00 0.  1.
<mgrwt>
<rscale>  0 0.80006746E+02</rscale>
<asrwt>0</asrwt>
<pdfrwt beam="1">  1        1 0.31936200E-02 0.80006746E+02</pdfrwt>
<pdfrwt beam="2">  1       -2 0.11859961E-01 0.80006746E+02</pdfrwt>
<totfact> 0.11262478E+05</totfact>
</mgrwt>
</event>
<event>
 8    1  0.8247621E-018  0.8267897E+02  0.7818608E-02  0.1321616E+00
         -2   -1    0    0    0  501 -0.00000000000E+00  0.00000000000E+00  0.51218405507E+02  0.51218405571E+02  0.25500000000E-02 0.  1.
          1   -1    0    0  501    0  0.00000000000E+00 -0.00000000000E+00 -0.33365990622E+02  0.33365991003E+02  0.50400000000E-02 0. -1.
        -24    2    1    2    0    0  0.71054273576E-14  0.00000000000E+00  0.17852414885E+02  0.84584396573E+02  0.82678966046E+02 0.  0.
         66    2    3    3    0    0  0.34780475216E+02  0.18779410462E+02 -0.33706932206E+01  0.39720388780E+02  0.19999996296E+01 0.  0.
         13    1    3    3    0    0 -0.34780475216E+02 -0.18779410462E+02  0.21223108106E+02  0.44864007793E+02  0.10566000000E+00 0. -1.
         13    1    4    4    0    0  0.16340619294E+02  0.80272701770E+01 -0.13609217117E+01  0.18256948742E+02  0.10566000000E+00 0. -1.
        -13    1    4    4    0    0  0.21275739299E+01  0.12595445404E+01  0.71701374578E-01  0.24757480484E+01  0.10566000000E+00 0.  1.
         14    1    4    4    0    0  0.16312281992E+02  0.94925957444E+01 -0.20814728834E+01  0.18987691990E+02  0.00000000000E+00 0. -1.
<mgrwt>
<rscale>  0 0.82678966E+02</rscale>
<asrwt>0</asrwt>
<pdfrwt beam="1">  1        1 0.51332294E-02 0.82678966E+02</pdfrwt>
<pdfrwt beam="2">  1       -2 0.78797546E-02 0.82678966E+02</pdfrwt>
<totfact> 0.11212104E+05</totfact>
</mgrwt>
</event>
<event>
 8    1  0.8247621E-018  0.7788218E+02  0.7818608E-02  0.1335171E+00
         -2   -1    0    0    0  501 -0.00000000000E+00  0.00000000000E+00  0.25238558168E+02  0.25238558297E+02  0.25500000000E-02 0.  1.
          1   -1    0    0  501    0  0.00000000000E+00 -0.00000000000E+00 -0.60083014906E+02  0.60083015118E+02  0.50400000000E-02 0. -1.
        -24    2    1    2    0    0  0.00000000000E+00 -0.35527136788E-14 -0.34844456738E+02  0.85321573415E+02  0.77882184899E+02 0.  0.
         66    2    3    3    0    0 -0.11421348234E+02 -0.31013540813E+02 -0.39941694018E+02  0.51880881120E+02  0.19999988771E+01 0.  0.
         13    1    3    3    0    0  0.11421348234E+02  0.31013540813E+02  0.50972372805E+01  0.33440692295E+02  0.10566000000E+00 0. -1.
         13    1    4    4    0    0 -0.17406497629E+00 -0.29864683824E+00 -0.28822690147E+00  0.46230653499E+00  0.10566000000E+00 0. -1.
        -13    1    4    4    0    0 -0.90702524558E+01 -0.25623032696E+02 -0.32359210614E+02  0.42260371032E+02  0.10566000000E+00 0.  1.
        -14    1    4    4    0    0 -0.21770308021E+01 -0.50918612784E+01 -0.72942565026E+01  0.91582035530E+01  0.00000000000E+00 0.  1.
<mgrwt>
<rscale>  0 0.77882185E+02</rscale>
<asrwt>0</asrwt>
<pdfrwt beam="1">  1        1 0.92435407E-02 0.77882185E+02</pdfrwt>
<pdfrwt beam="2">  1       -2 0.38828551E-02 0.77882185E+02</pdfrwt>
<totfact> 0.14578420E+05</totfact>
</mgrwt>
</event>
<event>
 8    1  0.8247621E-018  0.8406051E+02  0.7818608E-02  0.1317908E+00
          1   -1    0    0  501    0  0.00000000000E+00  0.00000000000E+00  0.32433121834E+03  0.32433121838E+03  0.50400000000E-02 0. -1.
         -2   -1    0    0    0  501 -0.00000000000E+00 -0.00000000000E+00 -0.54467232479E+01  0.54467238448E+01  0.25500000000E-02 0.  1.
        -24    2    1    2    0    0  0.00000000000E+00  0.71054273576E-14  0.31888449510E+03  0.32977794223E+03  0.84060513723E+02 0.  0.
         66    2    3    3    0    0  0.97381717355E+01  0.39926930977E+02  0.12543382822E+03  0.13200998859E+03  0.20000051127E+01 0.  0.
         13    1    3    3    0    0 -0.97381717355E+01 -0.39926930977E+02  0.19345066688E+03  0.19776795364E+03  0.10566000000E+00 0. -1.
         13    1    4    4    0    0  0.46279719802E+01  0.18783284231E+02  0.58446978809E+02  0.61565334297E+02  0.10566000000E+00 0. -1.
        -13    1    4    4    0    0  0.48731927243E+01  0.18396089938E+02  0.59217398519E+02  0.62200286042E+02  0.10566000000E+00 0.  1.
         14    1    4    4    0    0  0.23700703096E+00  0.27475568074E+01  0.77694508891E+01  0.82443682512E+01  0.00000000000E+00 0. -1.
<mgrwt>
<rscale>  0 0.84060514E+02</rscale>
<asrwt>0</asrwt>
<pdfrwt beam="1">  1        1 0.49897109E-01 0.84060514E+02</pdfrwt>
<pdfrwt beam="2">  1       -2 0.83795750E-03 0.84060514E+02</pdfrwt>
<totfact> 0.16064570E+05</totfact>
</mgrwt>
</event>
<event>
 8    1  0.8247621E-018  0.8021366E+02  0.7818608E-02  0.1328446E+00
         -2   -1    0    0    0  501 -0.00000000000E+00  0.00000000000E+00  0.32373019395E+03  0.32373019396E+03  0.25500000000E-02 0.  1.
          1   -1    0    0  501    0  0.00000000000E+00 -0.00000000000E+00 -0.49688208736E+01  0.49688234297E+01  0.50400000000E-02 0. -1.
        -24    2    1    2    0    0  0.00000000000E+00  0.00000000000E+00  0.31876137308E+03  0.32869901739E+03  0.80213658858E+02 0.  0.
         66    2    3    3    0    0  0.30970471611E+02 -0.24794400714E+02  0.18288373649E+03  0.18714805234E+03  0.20000007349E+01 0.  0.
         13    1    3    3    0    0 -0.30970471611E+02  0.24794400714E+02  0.13587763659E+03  0.14155096505E+03  0.10566000000E+00 0. -1.
         13    1    4    4    0    0  0.61435027580E+01 -0.44525660251E+01  0.37057058056E+02  0.37825978984E+02  0.10566000000E+00 0.  1.
        -13    1    4    4    0    0  0.17641663474E+02 -0.15105405416E+02  0.10449401582E+03  0.10704397260E+03  0.10566000000E+00 0. -1.
        -14    1    4    4    0    0  0.71853053790E+01 -0.52364292736E+01  0.41332662614E+02  0.42278100757E+02  0.00000000000E+00 0.  1.
<mgrwt>
<rscale>  0 0.80213659E+02</rscale>
<asrwt>0</asrwt>
<pdfrwt beam="1">  1        1 0.76443409E-03 0.80213659E+02</pdfrwt>
<pdfrwt beam="2">  1       -2 0.49804651E-01 0.80213659E+02</pdfrwt>
<totfact> 0.66880741E+04</totfact>
</mgrwt>
</event>
<event>
 8    1  0.8247621E-018  0.7961794E+02  0.7818608E-02  0.1330139E+00
          1   -1    0    0  501    0  0.00000000000E+00  0.00000000000E+00  0.14868876498E+02  0.14868877353E+02  0.50400000000E-02 0. -1.
         -2   -1    0    0    0  501 -0.00000000000E+00 -0.00000000000E+00 -0.10658195405E+03  0.10658195408E+03  0.25500000000E-02 0.  1.
        -24    2    1    2    0    0  0.00000000000E+00  0.00000000000E+00 -0.91713077552E+02  0.12145083143E+03  0.79617936810E+02 0.  0.
         66    2    3    3    0    0  0.92666411354E+01 -0.23115058986E+02 -0.93212100296E+02  0.96502187721E+02  0.20000008501E+01 0.  0.
         13    1    3    3    0    0 -0.92666411354E+01  0.23115058986E+02  0.14990227448E+01  0.24948643712E+02  0.10566000000E+00 0. -1.
         13    1    4    4    0    0  0.39383531457E+01 -0.11620459659E+02 -0.46338927083E+02  0.47935926354E+02  0.10566000000E+00 0.  1.
        -13    1    4    4    0    0  0.68954228149E+00 -0.16963179421E+01 -0.55779038510E+01  0.58717236418E+01  0.10566000000E+00 0. -1.
        -14    1    4    4    0    0  0.46387457082E+01 -0.97982813845E+01 -0.41295269362E+02  0.42694537725E+02  0.00000000000E+00 0.  1.
<mgrwt>
<rscale>  0 0.79617937E+02</rscale>
<asrwt>0</asrwt>
<pdfrwt beam="1">  1        1 0.22875196E-02 0.79617937E+02</pdfrwt>
<pdfrwt beam="2">  1       -2 0.16397223E-01 0.79617937E+02</pdfrwt>
<totfact> 0.10571542E+05</totfact>
</mgrwt>
</event>
<event>
 8    1  0.8247621E-018  0.8281664E+02  0.7818608E-02  0.1321243E+00
         -2   -1    0    0    0  501 -0.00000000000E+00  0.00000000000E+00  0.55212818640E+01  0.55212824529E+01  0.25500000000E-02 0.  1.
          1   -1    0    0  501    0  0.00000000000E+00 -0.00000000000E+00 -0.31055270943E+03  0.31055270947E+03  0.50400000000E-02 0. -1.
        -24    2    1    2    0    0  0.00000000000E+00  0.00000000000E+00 -0.30503142757E+03  0.31607399193E+03  0.82816644267E+02 0.  0.
         66    2    3    3    0    0  0.21750444719E+02 -0.33974949255E+02 -0.11736271514E+03  0.12411843506E+03  0.19999987310E+01 0.  0.
         13    1    3    3    0    0 -0.21750444719E+02  0.33974949255E+02 -0.18766871243E+03  0.19195555687E+03  0.10566000000E+00 0. -1.
         13    1    4    4    0    0  0.16449620128E+01 -0.27748606056E+01 -0.10749513920E+02  0.11223589664E+02  0.10566000000E+00 0. -1.
        -13    1    4    4    0    0  0.12085200171E+02 -0.19580744344E+02 -0.66912855117E+02  0.70758737667E+02  0.10566000000E+00 0.  1.
        -14    1    4    4    0    0  0.80202825352E+01 -0.11619344305E+02 -0.39700346098E+02  0.42136107726E+02  0.00000000000E+00 0.  1.
<mgrwt>
<rscale>  0 0.82816644E+02</rscale>
<asrwt>0</asrwt>
<pdfrwt beam="1">  1        1 0.47777327E-01 0.82816644E+02</pdfrwt>
<pdfrwt beam="2">  1       -2 0.84942827E-03 0.82816644E+02</pdfrwt>
<totfact> 0.16574792E+05</totfact>
</mgrwt>
</event>
<event>
 8    1  0.8247621E-018  0.8138127E+02  0.7818608E-02  0.1325177E+00
         -2   -1    0    0    0  501 -0.00000000000E+00  0.00000000000E+00  0.79886506490E+01  0.79886510560E+01  0.25500000000E-02 0.  1.
          1   -1    0    0  501    0  0.00000000000E+00 -0.00000000000E+00 -0.20726000376E+03  0.20726000382E+03  0.50400000000E-02 0. -1.
        -24    2    1    2    0    0  0.00000000000E+00  0.00000000000E+00 -0.19927135311E+03  0.21524865488E+03  0.81381270915E+02 0.  0.
         66    2    3    3    0    0  0.28850974519E+02  0.25549225958E+02 -0.65354087108E+02  0.75896629505E+02  0.19999976842E+01 0.  0.
         13    1    3    3    0    0 -0.28850974519E+02 -0.25549225958E+02 -0.13391726600E+03  0.13935202537E+03  0.10566000000E+00 0. -1.
         13    1    4    4    0    0  0.18028315507E+02  0.16321993221E+02 -0.40902025875E+02  0.47585864576E+02  0.10566000000E+00 0.  1.
        -13    1    4    4    0    0  0.54921510430E+00  0.42935343315E+00 -0.81755733948E+00  0.10796043906E+01  0.10566000000E+00 0. -1.
        -14    1    4    4    0    0  0.10273443907E+02  0.87978793031E+01 -0.23634503894E+02  0.27231160539E+02  0.00000000000E+00 0.  1.
<mgrwt>
<rscale>  0 0.81381271E+02</rscale>
<asrwt>0</asrwt>
<pdfrwt beam="1">  1        1 0.31886151E-01 0.81381271E+02</pdfrwt>
<pdfrwt beam="2">  1       -2 0.12290234E-02 0.81381271E+02</pdfrwt>
<totfact> 0.16043672E+05</totfact>
</mgrwt>
</event>
<event>
 8    1  0.8247621E-018  0.8128718E+02  0.7818608E-02  0.1325438E+00
         -2   -1    0    0    0  501 -0.00000000000E+00  0.00000000000E+00  0.45777696186E+02  0.45777696257E+02  0.25500000000E-02 0.  1.
          1   -1    0    0  501    0  0.00000000000E+00 -0.00000000000E+00 -0.36085288082E+02  0.36085288434E+02  0.50400000000E-02 0. -1.
        -24    2    1    2    0    0 -0.44408920985E-15  0.00000000000E+00  0.96924081041E+01  0.81862984692E+02  0.81287179111E+02 0.  0.
         66    2    3    3    0    0 -0.33947663455E+01  0.32135802030E+02  0.29633663154E+02  0.43890639127E+02  0.20000000979E+01 0.  0.
         13    1    3    3    0    0  0.33947663455E+01 -0.32135802030E+02 -0.19941255050E+02  0.37972345564E+02  0.10566000000E+00 0. -1.
         13    1    4    4    0    0 -0.15070309166E+01  0.77954481757E+01  0.66802021301E+01  0.10376724868E+02  0.10566000000E+00 0. -1.
        -13    1    4    4    0    0 -0.94042937733E+00  0.95346407129E+01  0.92275520496E+01  0.13302355498E+02  0.10566000000E+00 0.  1.
         14    1    4    4    0    0 -0.94730605157E+00  0.14805713141E+02  0.13725908975E+02  0.20211558761E+02  0.00000000000E+00 0. -1.
<mgrwt>
<rscale>  0 0.81287179E+02</rscale>
<asrwt>0</asrwt>
<pdfrwt beam="1">  1        1 0.55515828E-02 0.81287179E+02</pdfrwt>
<pdfrwt beam="2">  1       -2 0.70427225E-02 0.81287179E+02</pdfrwt>
<totfact> 0.11930688E+05</totfact>
</mgrwt>
</event>
<event>
 8    1  0.8247621E-018  0.7913253E+02  0.7818608E-02  0.1331531E+00
         -2   -1    0    0    0  501 -0.00000000000E+00  0.00000000000E+00  0.51362964265E+02  0.51362964328E+02  0.25500000000E-02 0.  1.
          1   -1    0    0  501    0  0.00000000000E+00 -0.00000000000E+00 -0.30478952943E+02  0.30478953360E+02  0.50400000000E-02 0. -1.
        -24    2    1    2    0    0  0.71054273576E-14  0.11102230246E-15  0.20884011322E+02  0.81841917688E+02  0.79132531628E+02 0.  0.
         66    2    3    3    0    0  0.33278950285E+02  0.98997074576E+00  0.32510104888E+02  0.46576555223E+02  0.20000006176E+01 0.  0.
         13    1    3    3    0    0 -0.33278950285E+02 -0.98997074576E+00 -0.11626093566E+02  0.35265362465E+02  0.10566000000E+00 0. -1.
         13    1    4    4    0    0  0.23410486801E+01 -0.11573748012E+00  0.28761313457E+01  0.37117650303E+01  0.10566000000E+00 0. -1.
        -13    1    4    4    0    0  0.50478896549E+01 -0.14438424842E+00  0.48446099882E+01  0.69988175253E+01  0.10566000000E+00 0.  1.
         14    1    4    4    0    0  0.25890011950E+02  0.12500924743E+01  0.24789363554E+02  0.35865972667E+02  0.00000000000E+00 0. -1.
<mgrwt>
<rscale>  0 0.79132532E+02</rscale>
<asrwt>0</asrwt>
<pdfrwt beam="1">  1        1 0.46890697E-02 0.79132532E+02</pdfrwt>
<pdfrwt beam="2">  1       -2 0.79019945E-02 0.79132532E+02</pdfrwt>
<totfact> 0.12513823E+05</totfact>
</mgrwt>
</event>
<event>
 8    1  0.8247621E-018  0.8427319E+02  0.7818608E-02  0.1317344E+00
          1   -1    0    0  501    0  0.00000000000E+00  0.00000000000E+00  0.14609606664E+02  0.14609607533E+02  0.50400000000E-02 0. -1.
         -2   -1    0    0    0  501 -0.00000000000E+00 -0.00000000000E+00 -0.12152912877E+03  0.12152912880E+03  0.25500000000E-02 0.  1.
        -24    2    1    2    0    0  0.00000000000E+00  0.00000000000E+00 -0.10691952211E+03  0.13613873633E+03  0.84273194565E+02 0.  0.
         66    2    3    3    0    0 -0.27863564758E+02  0.11953177837E+02 -0.10070478196E+03  0.10518892437E+03  0.19999997779E+01 0.  0.
         13    1    3    3    0    0  0.27863564758E+02 -0.11953177837E+02 -0.62147401507E+01  0.30949811964E+02  0.10566000000E+00 0. -1.
         13    1    4    4    0    0 -0.11132159647E+02  0.54429476683E+01 -0.42884143760E+02  0.44638678383E+02  0.10566000000E+00 0.  1.
        -13    1    4    4    0    0 -0.13445069149E+01  0.29606020123E+00 -0.44726114262E+01  0.46808938775E+01  0.10566000000E+00 0. -1.
        -14    1    4    4    0    0 -0.15386898197E+02  0.62141699670E+01 -0.53348026771E+02  0.55869352107E+02  0.00000000000E+00 0.  1.
<mgrwt>
<rscale>  0 0.84273195E+02</rscale>
<asrwt>0</asrwt>
<pdfrwt beam="1">  1        1 0.22476320E-02 0.84273195E+02</pdfrwt>
<pdfrwt beam="2">  1       -2 0.18696788E-01 0.84273195E+02</pdfrwt>
<totfact> 0.88167799E+04</totfact>
</mgrwt>
</event>
<event>
 8    1  0.8247621E-018  0.7927750E+02  0.7818608E-02  0.1331114E+00
          1   -1    0    0  501    0  0.00000000000E+00  0.00000000000E+00  0.24868997313E+02  0.24868997824E+02  0.50400000000E-02 0. -1.
         -2   -1    0    0    0  501 -0.00000000000E+00 -0.00000000000E+00 -0.63180298289E+02  0.63180298341E+02  0.25500000000E-02 0.  1.
        -24    2    1    2    0    0  0.00000000000E+00  0.00000000000E+00 -0.38311300976E+02  0.88049296164E+02  0.79277504833E+02 0.  0.
         66    2    3    3    0    0  0.33854806748E+01 -0.95125572149E+01 -0.61711164500E+02  0.62563711982E+02  0.20000022135E+01 0.  0.
         13    1    3    3    0    0 -0.33854806748E+01  0.95125572149E+01  0.23399863524E+02  0.25485584182E+02  0.10566000000E+00 0. -1.
         13    1    4    4    0    0 -0.11081224420E+00 -0.66673409946E+00 -0.31346200789E+01  0.32083984771E+01  0.10566000000E+00 0. -1.
        -13    1    4    4    0    0  0.23632234774E+00 -0.18083851039E+01 -0.11462376249E+02  0.11607038307E+02  0.10566000000E+00 0.  1.
        -14    1    4    4    0    0  0.32599705713E+01 -0.70374380115E+01 -0.47114168171E+02  0.47748275198E+02  0.00000000000E+00 0.  1.
<mgrwt>
<rscale>  0 0.79277505E+02</rscale>
<asrwt>0</asrwt>
<pdfrwt beam="1">  1        1 0.38259997E-02 0.79277505E+02</pdfrwt>
<pdfrwt beam="2">  1       -2 0.97200459E-02 0.79277505E+02</pdfrwt>
<totfact> 0.11996625E+05</totfact>
</mgrwt>
</event>
<event>
 8    1  0.8247621E-018  0.8862799E+02  0.7818608E-02  0.1306209E+00
          1   -1    0    0  501    0  0.00000000000E+00  0.00000000000E+00  0.24544534624E+02  0.24544535141E+02  0.50400000000E-02 0. -1.
         -2   -1    0    0    0  501 -0.00000000000E+00 -0.00000000000E+00 -0.80006811340E+02  0.80006811380E+02  0.25500000000E-02 0.  1.
        -24    2    1    2    0    0  0.00000000000E+00  0.00000000000E+00 -0.55462276716E+02  0.10455134652E+03  0.88627986104E+02 0.  0.
         66    2    3    3    0    0 -0.45951048780E+01 -0.37914471568E+02 -0.54205053745E+02  0.66338601046E+02  0.19999985256E+01 0.  0.
         13    1    3    3    0    0  0.45951048780E+01  0.37914471568E+02 -0.12572229705E+01  0.38212745475E+02  0.10566000000E+00 0. -1.
         13    1    4    4    0    0  0.35844972916E-02 -0.30532148389E+01 -0.43228894493E+01  0.52934554808E+01  0.10566000000E+00 0. -1.
        -13    1    4    4    0    0 -0.33907976453E+01 -0.29194679103E+02 -0.42013535842E+02  0.51273532691E+02  0.10566000000E+00 0.  1.
        -14    1    4    4    0    0 -0.12078917300E+01 -0.56665776257E+01 -0.78686284540E+01  0.97716128744E+01  0.00000000000E+00 0.  1.
<mgrwt>
<rscale>  0 0.88627986E+02</rscale>
<asrwt>0</asrwt>
<pdfrwt beam="1">  1        1 0.37760824E-02 0.88627986E+02</pdfrwt>
<pdfrwt beam="2">  1       -2 0.12308740E-01 0.88627986E+02</pdfrwt>
<totfact> 0.86055924E+04</totfact>
</mgrwt>
</event>
<event>
 8    1  0.8247621E-018  0.8004908E+02  0.7818608E-02  0.1328912E+00
         -2   -1    0    0    0  501 -0.00000000000E+00  0.00000000000E+00  0.32193183811E+01  0.32193193910E+01  0.25500000000E-02 0.  1.
          1   -1    0    0  501    0  0.00000000000E+00 -0.00000000000E+00 -0.49760951440E+03  0.49760951443E+03  0.50400000000E-02 0. -1.
        -24    2    1    2    0    0  0.00000000000E+00 -0.22204460493E-15 -0.49439019602E+03  0.50082883382E+03  0.80049077837E+02 0.  0.
         66    2    3    3    0    0 -0.25274087670E+02 -0.18845355745E+01 -0.44096056751E+03  0.44169282661E+03  0.19999991612E+01 0.  0.
         13    1    3    3    0    0  0.25274087670E+02  0.18845355745E+01 -0.53429628510E+02  0.59136007209E+02  0.10566000000E+00 0. -1.
         13    1    4    4    0    0 -0.10416243022E+02 -0.12028950879E+01 -0.19641486868E+03  0.19669457765E+03  0.10566000000E+00 0.  1.
        -13    1    4    4    0    0 -0.40637067875E+01  0.43715332433E-01 -0.65877843486E+02  0.66003159396E+02  0.10566000000E+00 0. -1.
        -14    1    4    4    0    0 -0.10794137861E+02 -0.72535581910E+00 -0.17866785535E+03  0.17899508956E+03  0.00000000000E+00 0.  1.
<mgrwt>
<rscale>  0 0.80049078E+02</rscale>
<asrwt>0</asrwt>
<pdfrwt beam="1">  1        1 0.76555249E-01 0.80049078E+02</pdfrwt>
<pdfrwt beam="2">  1       -2 0.49528023E-03 0.80049078E+02</pdfrwt>
<totfact> 0.19565878E+05</totfact>
</mgrwt>
</event>
<event>
 8    1  0.8247621E-018  0.8066917E+02  0.7818608E-02  0.1327163E+00
         -2   -1    0    0    0  501 -0.00000000000E+00  0.00000000000E+00  0.15950979456E+02  0.15950979660E+02  0.25500000000E-02 0.  1.
          1   -1    0    0  501    0  0.00000000000E+00 -0.00000000000E+00 -0.10199241129E+03  0.10199241142E+03  0.50400000000E-02 0. -1.
        -24    2    1    2    0    0  0.00000000000E+00  0.00000000000E+00 -0.86041431836E+02  0.11794339108E+03  0.80669173210E+02 0.  0.
         66    2    3    3    0    0  0.13140975522E+02  0.34608981618E+02 -0.19726976468E+02  0.41995481289E+02  0.20000004719E+01 0.  0.
         13    1    3    3    0    0 -0.13140975522E+02 -0.34608981618E+02 -0.66314455368E+02  0.75947909788E+02  0.10566000000E+00 0. -1.
         13    1    4    4    0    0  0.10207122913E+02  0.26413777943E+02 -0.14486950024E+02  0.31808110734E+02  0.10566000000E+00 0. -1.
        -13    1    4    4    0    0  0.16000507714E+01  0.38118600087E+01 -0.21493085208E+01  0.46605933475E+01  0.10566000000E+00 0.  1.
         14    1    4    4    0    0  0.13338018372E+01  0.43833436659E+01 -0.30907179226E+01  0.55267772084E+01  0.00000000000E+00 0. -1.
<mgrwt>
<rscale>  0 0.80669173E+02</rscale>
<asrwt>0</asrwt>
<pdfrwt beam="1">  1        1 0.15691140E-01 0.80669173E+02</pdfrwt>
<pdfrwt beam="2">  1       -2 0.24539969E-02 0.80669173E+02</pdfrwt>
<totfact> 0.14419796E+05</totfact>
</mgrwt>
</event>
<event>
 8    1  0.9217368E-018  0.8015434E+02  0.7818608E-02  0.1328614E+00
          1   -1    0    0  501    0  0.00000000000E+00  0.00000000000E+00  0.33770284455E+02  0.33770284831E+02  0.50400000000E-02 0. -1.
         -2   -1    0    0    0  501 -0.00000000000E+00 -0.00000000000E+00 -0.47561919654E+02  0.47561919722E+02  0.25500000000E-02 0.  1.
        -24    2    1    2    0    0  0.00000000000E+00  0.00000000000E+00 -0.13791635199E+02  0.81332204554E+02  0.80154340470E+02 0.  0.
         66    2    3    3    0    0  0.21920533306E+02  0.77827863129E+01 -0.39984337385E+02  0.46301498665E+02  0.19999998171E+01 0.  0.
         13    1    3    3    0    0 -0.21920533306E+02 -0.77827863129E+01  0.26192702186E+02  0.35030705889E+02  0.10566000000E+00 0. -1.
         13    1    4    4    0    0  0.10237448355E+01  0.27619308598E-01 -0.17735981823E+01  0.20507634828E+01  0.10566000000E+00 0. -1.
        -13    1    4    4    0    0  0.71768438284E+00  0.46510845360E+00 -0.14463737905E+01  0.16836145415E+01  0.10566000000E+00 0.  1.
        -14    1    4    4    0    0  0.20179104088E+02  0.72900585507E+01 -0.36764365412E+02  0.42567120641E+02  0.00000000000E+00 0.  1.
<mgrwt>
<rscale>  0 0.80154340E+02</rscale>
<asrwt>0</asrwt>
<pdfrwt beam="1">  1        1 0.51954284E-02 0.80154340E+02</pdfrwt>
<pdfrwt beam="2">  1       -2 0.73172184E-02 0.80154340E+02</pdfrwt>
<totfact> 0.12278006E+05</totfact>
</mgrwt>
</event>
<event>
 8    1  0.8247621E-018  0.8249037E+02  0.7818608E-02  0.1322129E+00
          1   -1    0    0  501    0  0.00000000000E+00  0.00000000000E+00  0.25232387637E+01  0.25232437972E+01  0.50400000000E-02 0. -1.
         -2   -1    0    0    0  501 -0.00000000000E+00 -0.00000000000E+00 -0.67419847588E+03  0.67419847588E+03  0.25500000000E-02 0.  1.
        -24    2    1    2    0    0  0.00000000000E+00  0.00000000000E+00 -0.67167523711E+03  0.67672171968E+03  0.82490373585E+02 0.  0.
         66    2    3    3    0    0 -0.23792865233E+02 -0.25920555142E+02 -0.51220951119E+03  0.51342045048E+03  0.19999997945E+01 0.  0.
         13    1    3    3    0    0  0.23792865233E+02  0.25920555142E+02 -0.15946572592E+03  0.16330126920E+03  0.10566000000E+00 0. -1.
         13    1    4    4    0    0 -0.67547920345E+01 -0.84811179489E+01 -0.16135684817E+03  0.16172074757E+03  0.10566000000E+00 0. -1.
        -13    1    4    4    0    0 -0.12011131105E+02 -0.12397734560E+02 -0.25348313533E+03  0.25407023075E+03  0.10566000000E+00 0.  1.
         14    1    4    4    0    0 -0.50269420929E+01 -0.50417026331E+01 -0.97369527690E+02  0.97629472163E+02  0.00000000000E+00 0. -1.
<mgrwt>
<rscale>  0 0.82490374E+02</rscale>
<asrwt>0</asrwt>
<pdfrwt beam="1">  1        1 0.38819151E-03 0.82490374E+02</pdfrwt>
<pdfrwt beam="2">  1       -2 0.10372270E+00 0.82490374E+02</pdfrwt>
<totfact> 0.36204656E+04</totfact>
</mgrwt>
</event>
<event>
 8    1  0.8247621E-018  0.8063263E+02  0.7818608E-02  0.1327266E+00
         -2   -1    0    0    0  501 -0.00000000000E+00  0.00000000000E+00  0.30004303445E+02  0.30004303554E+02  0.25500000000E-02 0.  1.
          1   -1    0    0  501    0  0.00000000000E+00 -0.00000000000E+00 -0.54172409900E+02  0.54172410135E+02  0.50400000000E-02 0. -1.
        -24    2    1    2    0    0  0.35527136788E-14 -0.22204460493E-15 -0.24168106455E+02  0.84176713689E+02  0.80632634570E+02 0.  0.
         66    2    3    3    0    0  0.23902820415E+02 -0.75553778238E+00  0.21760399308E+02  0.32394917014E+02  0.20000022934E+01 0.  0.
         13    1    3    3    0    0 -0.23902820415E+02  0.75553778238E+00 -0.45928505763E+02  0.51781796674E+02  0.10566000000E+00 0. -1.
         13    1    4    4    0    0  0.29363257772E+01  0.10777414291E+00  0.34184953888E+01  0.45089798285E+01  0.10566000000E+00 0. -1.
        -13    1    4    4    0    0  0.18334174649E+02 -0.52220417748E+00  0.16281621763E+02  0.24525844094E+02  0.10566000000E+00 0.  1.
         14    1    4    4    0    0  0.26323199892E+01 -0.34110774781E+00  0.20602821560E+01  0.33600930915E+01  0.00000000000E+00 0. -1.
<mgrwt>
<rscale>  0 0.80632635E+02</rscale>
<asrwt>0</asrwt>
<pdfrwt beam="1">  1        1 0.83342170E-02 0.80632635E+02</pdfrwt>
<pdfrwt beam="2">  1       -2 0.46160467E-02 0.80632635E+02</pdfrwt>
<totfact> 0.13035848E+05</totfact>
</mgrwt>
</event>
<event>
 8    1  0.8247621E-018  0.8098765E+02  0.7818608E-02  0.1326272E+00
         -2   -1    0    0    0  501 -0.00000000000E+00  0.00000000000E+00  0.31129175732E+02  0.31129175837E+02  0.25500000000E-02 0.  1.
          1   -1    0    0  501    0  0.00000000000E+00 -0.00000000000E+00 -0.52675662787E+02  0.52675663029E+02  0.50400000000E-02 0. -1.
        -24    2    1    2    0    0  0.71054273576E-14  0.71054273576E-14 -0.21546487055E+02  0.83804838865E+02  0.80987652842E+02 0.  0.
         66    2    3    3    0    0  0.31470354963E+02  0.25440118820E+02 -0.10363151341E+02  0.41820781786E+02  0.19999991090E+01 0.  0.
         13    1    3    3    0    0 -0.31470354963E+02 -0.25440118820E+02 -0.11183335714E+02  0.41984057079E+02  0.10566000000E+00 0. -1.
         13    1    4    4    0    0  0.55312716224E+01  0.38993747958E+01 -0.20254145150E+01  0.70649527636E+01  0.10566000000E+00 0. -1.
        -13    1    4    4    0    0  0.25941510569E+02  0.21553931444E+02 -0.83345164096E+01  0.34742038788E+02  0.10566000000E+00 0.  1.
        -14    1    4    4    0    0 -0.24272285804E-02 -0.13187420363E-01 -0.32204165563E-02  0.13790234850E-01  0.00000000000E+00 0.  1.
<mgrwt>
<rscale>  0 0.80987653E+02</rscale>
<asrwt>0</asrwt>
<pdfrwt beam="1">  1        1 0.81039481E-02 0.80987653E+02</pdfrwt>
<pdfrwt beam="2">  1       -2 0.47891040E-02 0.80987653E+02</pdfrwt>
<totfact> 0.12820851E+05</totfact>
</mgrwt>
</event>
<event>
 8    1  0.8247621E-018  0.7860690E+02  0.7818608E-02  0.1333052E+00
         -2   -1    0    0    0  501 -0.00000000000E+00  0.00000000000E+00  0.20717743230E+02  0.20717743386E+02  0.25500000000E-02 0.  1.
          1   -1    0    0  501    0  0.00000000000E+00 -0.00000000000E+00 -0.74562224397E+02  0.74562224567E+02  0.50400000000E-02 0. -1.
        -24    2    1    2    0    0  0.00000000000E+00  0.00000000000E+00 -0.53844481167E+02  0.95279967953E+02  0.78606896269E+02 0.  0.
         66    2    3    3    0    0  0.65772553911E+01 -0.31374473336E+02  0.57115623174E+00  0.32123886511E+02  0.19999998852E+01 0.  0.
         13    1    3    3    0    0 -0.65772553911E+01  0.31374473336E+02 -0.54415637399E+02  0.63156081442E+02  0.10566000000E+00 0. -1.
         13    1    4    4    0    0  0.26681146313E+01 -0.10167388303E+02  0.63441997580E+00  0.10531299698E+02  0.10566000000E+00 0. -1.
        -13    1    4    4    0    0  0.25838657597E+01 -0.15907956995E+02 -0.37773078875E+00  0.16121206611E+02  0.10566000000E+00 0.  1.
        -14    1    4    4    0    0  0.13252750001E+01 -0.52991280382E+01  0.31446704470E+00  0.54713802019E+01  0.00000000000E+00 0.  1.
<mgrwt>
<rscale>  0 0.78606896E+02</rscale>
<asrwt>0</asrwt>
<pdfrwt beam="1">  1        1 0.11471111E-01 0.78606896E+02</pdfrwt>
<pdfrwt beam="2">  1       -2 0.31873452E-02 0.78606896E+02</pdfrwt>
<totfact> 0.14698135E+05</totfact>
</mgrwt>
</event>
<event>
 8    1  0.8247621E-018  0.7921393E+02  0.7818608E-02  0.1331297E+00
         -2   -1    0    0    0  501 -0.00000000000E+00  0.00000000000E+00  0.61215583251E+01  0.61215588562E+01  0.25500000000E-02 0.  1.
          1   -1    0    0  501    0  0.00000000000E+00 -0.00000000000E+00 -0.25626016425E+03  0.25626016430E+03  0.50400000000E-02 0. -1.
        -24    2    1    2    0    0 -0.17763568394E-14  0.00000000000E+00 -0.25013860593E+03  0.26238172316E+03  0.79213928524E+02 0.  0.
         66    2    3    3    0    0  0.97750624205E+01  0.37951129881E+02 -0.10674633577E+03  0.11373047221E+03  0.20000008634E+01 0.  0.
         13    1    3    3    0    0 -0.97750624205E+01 -0.37951129881E+02 -0.14339227016E+03  0.14865125095E+03  0.10566000000E+00 0. -1.
         13    1    4    4    0    0  0.13852445123E+01  0.63928948177E+01 -0.18729957070E+02  0.19839618504E+02  0.10566000000E+00 0. -1.
        -13    1    4    4    0    0  0.74689393537E+00  0.43708609861E+01 -0.12875438157E+02  0.13618015571E+02  0.10566000000E+00 0.  1.
        -14    1    4    4    0    0  0.76429239728E+01  0.27187374077E+02 -0.75140940541E+02  0.80272838130E+02  0.00000000000E+00 0.  1.
<mgrwt>
<rscale>  0 0.79213929E+02</rscale>
<asrwt>0</asrwt>
<pdfrwt beam="1">  1        1 0.39424633E-01 0.79213929E+02</pdfrwt>
<pdfrwt beam="2">  1       -2 0.94177844E-03 0.79213929E+02</pdfrwt>
<totfact> 0.17961710E+05</totfact>
</mgrwt>
</event>
<event>
 8    1  0.8247621E-018  0.8005046E+02  0.7818608E-02  0.1328908E+00
         -2   -1    0    0    0  501 -0.00000000000E+00  0.00000000000E+00  0.31309473941E+01  0.31309484325E+01  0.25500000000E-02 0.  1.
          1   -1    0    0  501    0  0.00000000000E+00 -0.00000000000E+00 -0.51167217195E+03  0.51167217197E+03  0.50400000000E-02 0. -1.
        -24    2    1    2    0    0  0.00000000000E+00  0.00000000000E+00 -0.50854122455E+03  0.51480312040E+03  0.80050457264E+02 0.  0.
         66    2    3    3    0    0 -0.38365788408E+02  0.91362068018E+01 -0.29738186962E+03  0.29999230053E+03  0.20000010956E+01 0.  0.
         13    1    3    3    0    0  0.38365788408E+02 -0.91362068018E+01 -0.21115935493E+03  0.21481081987E+03  0.10566000000E+00 0. -1.
         13    1    4    4    0    0 -0.43108051596E+01  0.12637779506E+01 -0.30598754202E+02  0.30926931606E+02  0.10566000000E+00 0. -1.
        -13    1    4    4    0    0 -0.74595238447E+01  0.13641133946E+01 -0.55772296765E+02  0.56285571435E+02  0.10566000000E+00 0. -1.
        -14    1    4    4    0    0 -0.26595459404E+02  0.65083154565E+01 -0.21101081865E+03  0.21277979749E+03  0.00000000000E+00 0.  1.
<mgrwt>
<rscale>  0 0.80050457E+02</rscale>
<asrwt>0</asrwt>
<pdfrwt beam="1">  1        1 0.78718730E-01 0.80050457E+02</pdfrwt>
<pdfrwt beam="2">  1       -2 0.48168470E-03 0.80050457E+02</pdfrwt>
<totfact> 0.19628106E+05</totfact>
</mgrwt>
</event>
<event>
 8    1  0.8247621E-018  0.8054438E+02  0.7818608E-02  0.1327514E+00
          1   -1    0    0  501    0  0.00000000000E+00  0.00000000000E+00  0.26441672056E+02  0.26441672536E+02  0.50400000000E-02 0. -1.
         -2   -1    0    0    0  501 -0.00000000000E+00 -0.00000000000E+00 -0.61336863657E+02  0.61336863710E+02  0.25500000000E-02 0.  1.
        -24    2    1    2    0    0  0.00000000000E+00  0.35527136788E-14 -0.34895191601E+02  0.87778536246E+02  0.80544379249E+02 0.  0.
         66    2    3    3    0    0  0.28640871230E+02 -0.16391592901E+02 -0.42568125613E+02  0.53898322211E+02  0.19999990572E+01 0.  0.
         13    1    3    3    0    0 -0.28640871230E+02  0.16391592901E+02  0.76729340121E+01  0.33880214035E+02  0.10566000000E+00 0. -1.
         13    1    4    4    0    0  0.13907167146E+01 -0.94004499678E+00 -0.28481309093E+01  0.33076866975E+01  0.10566000000E+00 0. -1.
        -13    1    4    4    0    0  0.45845269297E+01 -0.28523194841E+01 -0.69051304304E+01  0.87661624389E+01  0.10566000000E+00 0.  1.
         14    1    4    4    0    0  0.22665627586E+02 -0.12599228421E+02 -0.32814864274E+02  0.41824473075E+02  0.00000000000E+00 0. -1.
<mgrwt>
<rscale>  0 0.80544379E+02</rscale>
<asrwt>0</asrwt>
<pdfrwt beam="1">  1        1 0.40679496E-02 0.80544379E+02</pdfrwt>
<pdfrwt beam="2">  1       -2 0.94364405E-02 0.80544379E+02</pdfrwt>
<totfact> 0.11589500E+05</totfact>
</mgrwt>
</event>
<event>
 8    1  0.8247621E-018  0.7966616E+02  0.7818608E-02  0.1330001E+00
          1   -1    0    0  501    0  0.00000000000E+00  0.00000000000E+00  0.47484469540E+01  0.47484496287E+01  0.50400000000E-02 0. -1.
         -2   -1    0    0    0  501 -0.00000000000E+00 -0.00000000000E+00 -0.33414588181E+03  0.33414588182E+03  0.25500000000E-02 0.  1.
        -24    2    1    2    0    0  0.44408920985E-15  0.35527136788E-14 -0.32939743485E+03  0.33889433145E+03  0.79666164701E+02 0.  0.
         66    2    3    3    0    0  0.28669080580E+01  0.26660272993E+02 -0.28996325964E+03  0.29120728230E+03  0.20000007326E+01 0.  0.
         13    1    3    3    0    0 -0.28669080580E+01 -0.26660272993E+02 -0.39434175213E+02  0.47687049150E+02  0.10566000000E+00 0. -1.
         13    1    4    4    0    0  0.47053316409E+00  0.25104386425E+01 -0.25990069537E+02  0.26115485487E+02  0.10566000000E+00 0. -1.
        -13    1    4    4    0    0  0.16803413762E+01  0.11907545947E+02 -0.13811297635E+03  0.13863556036E+03  0.10566000000E+00 0.  1.
        -14    1    4    4    0    0  0.71603351771E+00  0.12242288404E+02 -0.12586021376E+03  0.12645623645E+03  0.00000000000E+00 0.  1.
<mgrwt>
<rscale>  0 0.79666165E+02</rscale>
<asrwt>0</asrwt>
<pdfrwt beam="1">  1        1 0.73053077E-03 0.79666165E+02</pdfrwt>
<pdfrwt beam="2">  1       -2 0.51407040E-01 0.79666165E+02</pdfrwt>
<totfact> 0.66835334E+04</totfact>
</mgrwt>
</event>
<event>
 8    1  0.8247621E-018  0.8075268E+02  0.7818608E-02  0.1326929E+00
          1   -1    0    0  501    0  0.00000000000E+00  0.00000000000E+00  0.48833868154E+02  0.48833868415E+02  0.50400000000E-02 0. -1.
         -2   -1    0    0    0  501 -0.00000000000E+00 -0.00000000000E+00 -0.33383568094E+02  0.33383568192E+02  0.25500000000E-02 0.  1.
        -24    2    1    2    0    0  0.00000000000E+00  0.00000000000E+00  0.15450300060E+02  0.82217436606E+02  0.80752678656E+02 0.  0.
         66    2    3    3    0    0  0.24097818200E+02  0.24397237659E+02 -0.13923564214E+02  0.37064749933E+02  0.19999999600E+01 0.  0.
         13    1    3    3    0    0 -0.24097818200E+02 -0.24397237659E+02  0.29373864274E+02  0.45152686673E+02  0.10566000000E+00 0. -1.
         13    1    4    4    0    0  0.17965457759E+01  0.23216921122E+01 -0.13655835960E+01  0.32394156236E+01  0.10566000000E+00 0. -1.
        -13    1    4    4    0    0  0.20931468956E+02  0.20243596319E+02 -0.11711086243E+02  0.31386148054E+02  0.10566000000E+00 0.  1.
        -14    1    4    4    0    0  0.13698034675E+01  0.18319492274E+01 -0.84689437428E+00  0.24391862562E+01  0.00000000000E+00 0.  1.
<mgrwt>
<rscale>  0 0.80752679E+02</rscale>
<asrwt>0</asrwt>
<pdfrwt beam="1">  1        1 0.75129028E-02 0.80752679E+02</pdfrwt>
<pdfrwt beam="2">  1       -2 0.51359336E-02 0.80752679E+02</pdfrwt>
<totfact> 0.12770604E+05</totfact>
</mgrwt>
</event>
<event>
 8    1  0.8247621E-018  0.7990036E+02  0.7818608E-02  0.1329334E+00
         -2   -1    0    0    0  501 -0.00000000000E+00  0.00000000000E+00  0.27224010883E+01  0.27224022826E+01  0.25500000000E-02 0.  1.
          1   -1    0    0  501    0  0.00000000000E+00 -0.00000000000E+00 -0.58625332287E+03  0.58625332289E+03  0.50400000000E-02 0. -1.
        -24    2    1    2    0    0  0.35527136788E-14  0.00000000000E+00 -0.58353092178E+03  0.58897572518E+03  0.79900364011E+02 0.  0.
         66    2    3    3    0    0  0.29617188864E+02  0.81575513799E+01 -0.47992345251E+03  0.48090980837E+03  0.20000004663E+01 0.  0.
         13    1    3    3    0    0 -0.29617188864E+02 -0.81575513799E+01 -0.10360746928E+03  0.10806591680E+03  0.10566000000E+00 0. -1.
         13    1    4    4    0    0  0.92631738473E+01  0.25641707335E+01 -0.14342980462E+03  0.14375152652E+03  0.10566000000E+00 0.  1.
        -13    1    4    4    0    0  0.52326461438E+01  0.18364348202E+01 -0.80416501119E+02  0.80607554824E+02  0.10566000000E+00 0. -1.
         14    1    4    4    0    0  0.15121368872E+02  0.37569458263E+01 -0.25607714677E+03  0.25655072703E+03  0.00000000000E+00 0. -1.
<mgrwt>
<rscale>  0 0.79900364E+02</rscale>
<asrwt>0</asrwt>
<pdfrwt beam="1">  1        1 0.90192719E-01 0.79900364E+02</pdfrwt>
<pdfrwt beam="2">  1       -2 0.41883150E-03 0.79900364E+02</pdfrwt>
<totfact> 0.19971091E+05</totfact>
</mgrwt>
</event>
<event>
 8    1  0.8247621E-018  0.8046023E+02  0.7818608E-02  0.1327750E+00
          1   -1    0    0  501    0  0.00000000000E+00  0.00000000000E+00  0.24707673915E+02  0.24707674429E+02  0.50400000000E-02 0. -1.
         -2   -1    0    0    0  501 -0.00000000000E+00 -0.00000000000E+00 -0.65504426203E+02  0.65504426253E+02  0.25500000000E-02 0.  1.
        -24    2    1    2    0    0 -0.44408920985E-15  0.00000000000E+00 -0.40796752289E+02  0.90212100682E+02  0.80460226896E+02 0.  0.
         66    2    3    3    0    0  0.33682047835E+01  0.24992965682E+02 -0.55518399924E+02  0.61010538905E+02  0.19999975677E+01 0.  0.
         13    1    3    3    0    0 -0.33682047835E+01 -0.24992965682E+02  0.14721647636E+02  0.29201561777E+02  0.10566000000E+00 0. -1.
         13    1    4    4    0    0  0.17511236755E+00  0.11805155852E+01 -0.18173503301E+01  0.21767424391E+01  0.10566000000E+00 0. -1.
        -13    1    4    4    0    0  0.26858555495E+01  0.19184367874E+02 -0.43807976583E+02  0.47899934938E+02  0.10566000000E+00 0.  1.
         14    1    4    4    0    0  0.50723686652E+00  0.46280822231E+01 -0.98930730112E+01  0.10933861528E+02  0.00000000000E+00 0. -1.
<mgrwt>
<rscale>  0 0.80460227E+02</rscale>
<asrwt>0</asrwt>
<pdfrwt beam="1">  1        1 0.38011807E-02 0.80460227E+02</pdfrwt>
<pdfrwt beam="2">  1       -2 0.10077604E-01 0.80460227E+02</pdfrwt>
<totfact> 0.11474671E+05</totfact>
</mgrwt>
</event>
<event>
 8    1  0.8247621E-018  0.8002443E+02  0.7818608E-02  0.1328982E+00
         -2   -1    0    0    0  501 -0.00000000000E+00  0.00000000000E+00  0.88261131427E+02  0.88261131464E+02  0.25500000000E-02 0.  1.
          1   -1    0    0  501    0  0.00000000000E+00 -0.00000000000E+00 -0.18139096777E+02  0.18139097477E+02  0.50400000000E-02 0. -1.
        -24    2    1    2    0    0  0.71054273576E-14 -0.17763568394E-14  0.70122034650E+02  0.10640022894E+03  0.80024427365E+02 0.  0.
         66    2    3    3    0    0  0.35897236510E+02 -0.15348278937E+02  0.46581449714E+02  0.60811287753E+02  0.20000013285E+01 0.  0.
         13    1    3    3    0    0 -0.35897236510E+02  0.15348278937E+02  0.23540584937E+02  0.45588941188E+02  0.10566000000E+00 0. -1.
         13    1    4    4    0    0  0.66129673311E+00 -0.17686793974E+00  0.69401041955E+00  0.98051523975E+00  0.10566000000E+00 0. -1.
        -13    1    4    4    0    0  0.78384033035E+01 -0.39601440455E+01  0.11025854096E+02  0.14096238143E+02  0.10566000000E+00 0.  1.
        -14    1    4    4    0    0  0.27397536474E+02 -0.11211266952E+02  0.34861585198E+02  0.45734534370E+02  0.00000000000E+00 0.  1.
<mgrwt>
<rscale>  0 0.80024427E+02</rscale>
<asrwt>0</asrwt>
<pdfrwt beam="1">  1        1 0.27906303E-02 0.80024427E+02</pdfrwt>
<pdfrwt beam="2">  1       -2 0.13578636E-01 0.80024427E+02</pdfrwt>
<totfact> 0.10925513E+05</totfact>
</mgrwt>
</event>
<event>
 8    1  0.8247621E-018  0.7983282E+02  0.7818608E-02  0.1329527E+00
         -2   -1    0    0    0  501 -0.00000000000E+00  0.00000000000E+00  0.10817806415E+02  0.10817806716E+02  0.25500000000E-02 0.  1.
          1   -1    0    0  501    0  0.00000000000E+00 -0.00000000000E+00 -0.14728677381E+03  0.14728677390E+03  0.50400000000E-02 0. -1.
        -24    2    1    2    0    0  0.00000000000E+00  0.00000000000E+00 -0.13646896740E+03  0.15810458061E+03  0.79832821251E+02 0.  0.
         66    2    3    3    0    0 -0.38084288765E+02  0.36231927222E+01 -0.45890764925E+02  0.59778782863E+02  0.19999997603E+01 0.  0.
         13    1    3    3    0    0  0.38084288765E+02 -0.36231927222E+01 -0.90578202471E+02  0.98325797750E+02  0.10566000000E+00 0. -1.
         13    1    4    4    0    0 -0.10599896816E+02  0.12026336846E+01 -0.14122048858E+02  0.17698801323E+02  0.10566000000E+00 0. -1.
        -13    1    4    4    0    0 -0.14655237725E+02  0.11724867152E+01 -0.17218388889E+02  0.22641439836E+02  0.10566000000E+00 0.  1.
        -14    1    4    4    0    0 -0.12829154224E+02  0.12480723224E+01 -0.14550327177E+02  0.19438541704E+02  0.00000000000E+00 0.  1.
<mgrwt>
<rscale>  0 0.79832821E+02</rscale>
<asrwt>0</asrwt>
<pdfrwt beam="1">  1        1 0.22659502E-01 0.79832821E+02</pdfrwt>
<pdfrwt beam="2">  1       -2 0.16642780E-02 0.79832821E+02</pdfrwt>
<totfact> 0.15823686E+05</totfact>
</mgrwt>
</event>
<event>
 8    1  0.8247621E-018  0.7926072E+02  0.7818608E-02  0.1331163E+00
          1   -1    0    0  501    0  0.00000000000E+00  0.00000000000E+00  0.22466324932E+03  0.22466324938E+03  0.50400000000E-02 0. -1.
         -2   -1    0    0    0  501 -0.00000000000E+00 -0.00000000000E+00 -0.69907532914E+01  0.69907537565E+01  0.25500000000E-02 0.  1.
        -24    2    1    2    0    0  0.00000000000E+00 -0.71054273576E-14  0.21767249603E+03  0.23165400313E+03  0.79260719403E+02 0.  0.
         66    2    3    3    0    0 -0.22316154033E+02 -0.20954565750E+02  0.18234884338E+03  0.18491134428E+03  0.20000006780E+01 0.  0.
         13    1    3    3    0    0  0.22316154033E+02  0.20954565750E+02  0.35323652643E+02  0.46742658854E+02  0.10566000000E+00 0. -1.
         13    1    4    4    0    0 -0.64706234083E+01 -0.56051031001E+01  0.51189493029E+02  0.51900496228E+02  0.10566000000E+00 0.  1.
        -13    1    4    4    0    0 -0.24033707935E+00 -0.50378345200E+00  0.28173957084E+01  0.28740985180E+01  0.10566000000E+00 0. -1.
        -14    1    4    4    0    0 -0.15605193545E+02 -0.14845679198E+02  0.12834195465E+03  0.13013674953E+03  0.00000000000E+00 0.  1.
<mgrwt>
<rscale>  0 0.79260719E+02</rscale>
<asrwt>0</asrwt>
<pdfrwt beam="1">  1        1 0.34563577E-01 0.79260719E+02</pdfrwt>
<pdfrwt beam="2">  1       -2 0.10755006E-02 0.79260719E+02</pdfrwt>
<totfact> 0.17480407E+05</totfact>
</mgrwt>
</event>
<event>
 8    1  0.8247621E-018  0.7953584E+02  0.7818608E-02  0.1330374E+00
         -2   -1    0    0    0  501 -0.00000000000E+00  0.00000000000E+00  0.49601552226E+02  0.49601552291E+02  0.25500000000E-02 0.  1.
          1   -1    0    0  501    0  0.00000000000E+00 -0.00000000000E+00 -0.31883829851E+02  0.31883830249E+02  0.50400000000E-02 0. -1.
        -24    2    1    2    0    0  0.17763568394E-14  0.17763568394E-14  0.17717722375E+02  0.81485382540E+02  0.79535840233E+02 0.  0.
         66    2    3    3    0    0  0.77188237987E+01  0.12636993243E+02  0.46649462728E+02  0.48984142518E+02  0.20000015862E+01 0.  0.
         13    1    3    3    0    0 -0.77188237987E+01 -0.12636993243E+02 -0.28931740353E+02  0.32501240022E+02  0.10566000000E+00 0. -1.
         13    1    4    4    0    0  0.16762597273E+01  0.23346815702E+01  0.72921727180E+01  0.78388475998E+01  0.10566000000E+00 0. -1.
        -13    1    4    4    0    0  0.15154742654E+01  0.21558406267E+01  0.73554854609E+01  0.78140029088E+01  0.10566000000E+00 0.  1.
         14    1    4    4    0    0  0.45270898060E+01  0.81464710462E+01  0.32001804549E+02  0.33331292010E+02  0.00000000000E+00 0. -1.
<mgrwt>
<rscale>  0 0.79535840E+02</rscale>
<asrwt>0</asrwt>
<pdfrwt beam="1">  1        1 0.49052047E-02 0.79535840E+02</pdfrwt>
<pdfrwt beam="2">  1       -2 0.76310079E-02 0.79535840E+02</pdfrwt>
<totfact> 0.12429580E+05</totfact>
</mgrwt>
</event>
<event>
 8    1  0.8247621E-018  0.7571496E+02  0.7818608E-02  0.1341671E+00
          1   -1    0    0  501    0  0.00000000000E+00  0.00000000000E+00  0.10272050234E+02  0.10272051471E+02  0.50400000000E-02 0. -1.
         -2   -1    0    0    0  501 -0.00000000000E+00 -0.00000000000E+00 -0.13952312121E+03  0.13952312123E+03  0.25500000000E-02 0.  1.
        -24    2    1    2    0    0  0.00000000000E+00  0.00000000000E+00 -0.12925107097E+03  0.14979517270E+03  0.75714955041E+02 0.  0.
         66    2    3    3    0    0 -0.37056587152E+02  0.44365306368E+01 -0.76915924203E+02  0.85515687584E+02  0.19999928675E+01 0.  0.
         13    1    3    3    0    0  0.37056587152E+02 -0.44365306368E+01 -0.52335146771E+02  0.64279485118E+02  0.10566000000E+00 0. -1.
         13    1    4    4    0    0 -0.16506103869E+02  0.20419736770E+01 -0.34056246827E+02  0.37900662704E+02  0.10566000000E+00 0. -1.
        -13    1    4    4    0    0 -0.18519398975E+02  0.23270407722E+01 -0.39510302520E+02  0.43697350336E+02  0.10566000000E+00 0.  1.
         14    1    4    4    0    0 -0.20310843082E+01  0.67516187577E-01 -0.33493748560E+01  0.39176745434E+01  0.00000000000E+00 0. -1.
<mgrwt>
<rscale>  0 0.75714955E+02</rscale>
<asrwt>0</asrwt>
<pdfrwt beam="1">  1        1 0.15803156E-02 0.75714955E+02</pdfrwt>
<pdfrwt beam="2">  1       -2 0.21465094E-01 0.75714955E+02</pdfrwt>
<totfact> 0.11141498E+05</totfact>
</mgrwt>
</event>
<event>
 8    1  0.8247621E-018  0.7726050E+02  0.7818608E-02  0.1337011E+00
          1   -1    0    0  501    0  0.00000000000E+00  0.00000000000E+00  0.51916825843E+01  0.51916850306E+01  0.50400000000E-02 0. -1.
         -2   -1    0    0    0  501 -0.00000000000E+00 -0.00000000000E+00 -0.28743975931E+03  0.28743975932E+03  0.25500000000E-02 0.  1.
        -24    2    1    2    0    0  0.00000000000E+00  0.00000000000E+00 -0.28224807672E+03  0.29263144435E+03  0.77260503545E+02 0.  0.
         66    2    3    3    0    0  0.22957415255E+02  0.80212287005E+01 -0.25477724320E+03  0.25594301452E+03  0.20000004766E+01 0.  0.
         13    1    3    3    0    0 -0.22957415255E+02 -0.80212287005E+01 -0.27470833519E+02  0.36688429830E+02  0.10566000000E+00 0. -1.
         13    1    4    4    0    0  0.82316839332E+01  0.36946767599E+01 -0.95010883503E+02  0.95438411579E+02  0.10566000000E+00 0. -1.
        -13    1    4    4    0    0  0.40039986874E+01  0.11932106909E+01 -0.39395149317E+02  0.39616217777E+02  0.10566000000E+00 0.  1.
        -14    1    4    4    0    0  0.10721732635E+02  0.31333412497E+01 -0.12037121038E+03  0.12088838516E+03  0.00000000000E+00 0.  1.
<mgrwt>
<rscale>  0 0.77260504E+02</rscale>
<asrwt>0</asrwt>
<pdfrwt beam="1">  1        1 0.79872081E-03 0.77260504E+02</pdfrwt>
<pdfrwt beam="2">  1       -2 0.44221489E-01 0.77260504E+02</pdfrwt>
<totfact> 0.78661614E+04</totfact>
</mgrwt>
</event>
<event>
 8    1  0.8247621E-018  0.7783725E+02  0.7818608E-02  0.1335304E+00
         -2   -1    0    0    0  501 -0.00000000000E+00  0.00000000000E+00  0.31752816983E+02  0.31752817085E+02  0.25500000000E-02 0.  1.
          1   -1    0    0  501    0  0.00000000000E+00 -0.00000000000E+00 -0.47701569341E+02  0.47701569607E+02  0.50400000000E-02 0. -1.
        -24    2    1    2    0    0  0.00000000000E+00  0.00000000000E+00 -0.15948752358E+02  0.79454386692E+02  0.77837245987E+02 0.  0.
         66    2    3    3    0    0 -0.27347002613E+01 -0.38719378899E+02 -0.54822895702E+01  0.39252062192E+02  0.19999998944E+01 0.  0.
         13    1    3    3    0    0  0.27347002613E+01  0.38719378899E+02 -0.10466462788E+02  0.40202324500E+02  0.10566000000E+00 0. -1.
         13    1    4    4    0    0 -0.13142735499E+00 -0.14209511003E+02 -0.18969083445E+01  0.14336558213E+02  0.10566000000E+00 0. -1.
        -13    1    4    4    0    0 -0.98152089307E+00 -0.11828399198E+02 -0.15710143885E+01  0.11973038925E+02  0.10566000000E+00 0.  1.
        -14    1    4    4    0    0 -0.16217520132E+01 -0.12681468697E+02 -0.20143668371E+01  0.12942465054E+02  0.00000000000E+00 0.  1.
<mgrwt>
<rscale>  0 0.77837246E+02</rscale>
<asrwt>0</asrwt>
<pdfrwt beam="1">  1        1 0.73387030E-02 0.77837246E+02</pdfrwt>
<pdfrwt beam="2">  1       -2 0.48850488E-02 0.77837246E+02</pdfrwt>
<totfact> 0.14094607E+05</totfact>
</mgrwt>
</event>
<event>
 8    1  0.8247621E-018  0.8136361E+02  0.7818608E-02  0.1325226E+00
          1   -1    0    0  501    0  0.00000000000E+00  0.00000000000E+00  0.30070394820E+02  0.30070395242E+02  0.50400000000E-02 0. -1.
         -2   -1    0    0    0  501 -0.00000000000E+00 -0.00000000000E+00 -0.55037835414E+02  0.55037835473E+02  0.25500000000E-02 0.  1.
        -24    2    1    2    0    0  0.00000000000E+00  0.00000000000E+00 -0.24967440594E+02  0.85108230715E+02  0.81363614999E+02 0.  0.
         66    2    3    3    0    0  0.74552782727E+01 -0.30890732208E+02 -0.39019553518E+02  0.50362129465E+02  0.20000042510E+01 0.  0.
         13    1    3    3    0    0 -0.74552782727E+01  0.30890732208E+02  0.14052112923E+02  0.34746101251E+02  0.10566000000E+00 0. -1.
         13    1    4    4    0    0  0.20062156196E+00 -0.18358618322E+01 -0.27722810411E+01  0.33327682015E+01  0.10566000000E+00 0. -1.
        -13    1    4    4    0    0  0.35058477205E+01 -0.13465024836E+02 -0.17616377726E+02  0.22448736942E+02  0.10566000000E+00 0.  1.
         14    1    4    4    0    0  0.37488089903E+01 -0.15589845540E+02 -0.18630894751E+02  0.24580624321E+02  0.00000000000E+00 0. -1.
<mgrwt>
<rscale>  0 0.81363615E+02</rscale>
<asrwt>0</asrwt>
<pdfrwt beam="1">  1        1 0.46262146E-02 0.81363615E+02</pdfrwt>
<pdfrwt beam="2">  1       -2 0.84673593E-02 0.81363615E+02</pdfrwt>
<totfact> 0.11525162E+05</totfact>
</mgrwt>
</event>
<event>
 8    1  0.8247621E-018  0.7842557E+02  0.7818608E-02  0.1333580E+00
         -2   -1    0    0    0  501 -0.00000000000E+00  0.00000000000E+00  0.33052386038E+02  0.33052386137E+02  0.25500000000E-02 0.  1.
          1   -1    0    0  501    0  0.00000000000E+00 -0.00000000000E+00 -0.46521373392E+02  0.46521373665E+02  0.50400000000E-02 0. -1.
        -24    2    1    2    0    0  0.00000000000E+00  0.00000000000E+00 -0.13468987354E+02  0.79573759802E+02  0.78425567442E+02 0.  0.
         66    2    3    3    0    0 -0.21459399137E+02  0.24905672997E+02  0.14900334197E+02  0.36149942282E+02  0.20000022676E+01 0.  0.
         13    1    3    3    0    0  0.21459399137E+02 -0.24905672997E+02 -0.28369321550E+02  0.43423817520E+02  0.10566000000E+00 0. -1.
         13    1    4    4    0    0 -0.15243088908E+01  0.21082777954E+01  0.82018641137E+00  0.27298759389E+01  0.10566000000E+00 0. -1.
        -13    1    4    4    0    0 -0.10863081067E+02  0.11654446375E+02  0.77821920698E+01  0.17731506649E+02  0.10566000000E+00 0.  1.
        -14    1    4    4    0    0 -0.90720091787E+01  0.11142948826E+02  0.62979557154E+01  0.15688559694E+02  0.00000000000E+00 0.  1.
<mgrwt>
<rscale>  0 0.78425567E+02</rscale>
<asrwt>0</asrwt>
<pdfrwt beam="1">  1        1 0.71571344E-02 0.78425567E+02</pdfrwt>
<pdfrwt beam="2">  1       -2 0.50849825E-02 0.78425567E+02</pdfrwt>
<totfact> 0.13749389E+05</totfact>
</mgrwt>
</event>
<event>
 8    1  0.8247621E-018  0.7922248E+02  0.7818608E-02  0.1331273E+00
         -2   -1    0    0    0  501 -0.00000000000E+00  0.00000000000E+00  0.18363321803E+02  0.18363321980E+02  0.25500000000E-02 0.  1.
          1   -1    0    0  501    0  0.00000000000E+00 -0.00000000000E+00 -0.85444802790E+02  0.85444802939E+02  0.50400000000E-02 0. -1.
        -24    2    1    2    0    0  0.00000000000E+00  0.00000000000E+00 -0.67081480987E+02  0.10380812492E+03  0.79222482338E+02 0.  0.
         66    2    3    3    0    0 -0.13906812031E+01 -0.30753195783E+02 -0.95198057810E+00  0.30864207876E+02  0.20000039308E+01 0.  0.
         13    1    3    3    0    0  0.13906812031E+01  0.30753195783E+02 -0.66129500409E+02  0.72943917042E+02  0.10566000000E+00 0. -1.
         13    1    4    4    0    0 -0.62988624174E+00 -0.15723351880E+02  0.14068087532E+00  0.15736947167E+02  0.10566000000E+00 0. -1.
        -13    1    4    4    0    0 -0.38587106909E+00 -0.32918919370E+01  0.13822614700E+00  0.33189937496E+01  0.10566000000E+00 0.  1.
         14    1    4    4    0    0 -0.37492389228E+00 -0.11737951967E+02 -0.12308876004E+01  0.11808266959E+02  0.00000000000E+00 0. -1.
<mgrwt>
<rscale>  0 0.79222482E+02</rscale>
<asrwt>0</asrwt>
<pdfrwt beam="1">  1        1 0.13145354E-01 0.79222482E+02</pdfrwt>
<pdfrwt beam="2">  1       -2 0.28251265E-02 0.79222482E+02</pdfrwt>
<totfact> 0.14706223E+05</totfact>
</mgrwt>
</event>
<event>
 8    1  0.8247621E-018  0.7826648E+02  0.7818608E-02  0.1334044E+00
          1   -1    0    0  501    0  0.00000000000E+00  0.00000000000E+00  0.29243034211E+01  0.29243077643E+01  0.50400000000E-02 0. -1.
         -2   -1    0    0    0  501 -0.00000000000E+00 -0.00000000000E+00 -0.52368352398E+03  0.52368352399E+03  0.25500000000E-02 0.  1.
        -24    2    1    2    0    0  0.35527136788E-14 -0.44408920985E-15 -0.52075922056E+03  0.52660783175E+03  0.78266484934E+02 0.  0.
         66    2    3    3    0    0  0.28256284030E+02 -0.14597979518E+01 -0.44219802698E+03  0.44310680841E+03  0.20000007781E+01 0.  0.
         13    1    3    3    0    0 -0.28256284030E+02  0.14597979518E+01 -0.78561193586E+02  0.83501023341E+02  0.10566000000E+00 0. -1.
         13    1    4    4    0    0  0.19683537955E+01 -0.24742667936E+00 -0.37962702373E+02  0.38014649441E+02  0.10566000000E+00 0. -1.
        -13    1    4    4    0    0  0.46038994360E+01 -0.49546444401E-01 -0.75708077749E+02  0.75848022686E+02  0.10566000000E+00 0.  1.
        -14    1    4    4    0    0  0.21684030799E+02 -0.11628248281E+01 -0.32852724685E+03  0.32924413629E+03  0.00000000000E+00 0.  1.
<mgrwt>
<rscale>  0 0.78266485E+02</rscale>
<asrwt>0</asrwt>
<pdfrwt beam="1">  1        1 0.44989359E-03 0.78266485E+02</pdfrwt>
<pdfrwt beam="2">  1       -2 0.80566622E-01 0.78266485E+02</pdfrwt>
<totfact> 0.51432594E+04</totfact>
</mgrwt>
</event>
<event>
 8    1  0.8247621E-018  0.7998255E+02  0.7818608E-02  0.1329101E+00
         -2   -1    0    0    0  501 -0.00000000000E+00  0.00000000000E+00  0.30151191016E+01  0.30151201799E+01  0.25500000000E-02 0.  1.
          1   -1    0    0  501    0  0.00000000000E+00 -0.00000000000E+00 -0.53042739289E+03  0.53042739292E+03  0.50400000000E-02 0. -1.
        -24    2    1    2    0    0  0.00000000000E+00  0.00000000000E+00 -0.52741227379E+03  0.53344251310E+03  0.79982549555E+02 0.  0.
         66    2    3    3    0    0 -0.31242271812E+02  0.23721200258E+02 -0.31489200731E+03  0.31733224097E+03  0.20000003384E+01 0.  0.
         13    1    3    3    0    0  0.31242271812E+02 -0.23721200258E+02 -0.21252026648E+03  0.21611027213E+03  0.10566000000E+00 0. -1.
         13    1    4    4    0    0 -0.70363181885E+01  0.46931200296E+01 -0.65326028385E+02  0.65871361743E+02  0.10566000000E+00 0. -1.
        -13    1    4    4    0    0 -0.18647921120E+02  0.14937616444E+02 -0.18997239582E+03  0.19146905673E+03  0.10566000000E+00 0.  1.
        -14    1    4    4    0    0 -0.55580325033E+01  0.40904637840E+01 -0.59593583100E+02  0.59991822492E+02  0.00000000000E+00 0.  1.
<mgrwt>
<rscale>  0 0.79982550E+02</rscale>
<asrwt>0</asrwt>
<pdfrwt beam="1">  1        1 0.81604140E-01 0.79982550E+02</pdfrwt>
<pdfrwt beam="2">  1       -2 0.46386498E-03 0.79982550E+02</pdfrwt>
<totfact> 0.19747503E+05</totfact>
</mgrwt>
</event>
<event>
 8    1  0.8247621E-018  0.7928131E+02  0.7818608E-02  0.1331103E+00
         -2   -1    0    0    0  501 -0.00000000000E+00  0.00000000000E+00  0.71255101152E+01  0.71255105715E+01  0.25500000000E-02 0.  1.
          1   -1    0    0  501    0  0.00000000000E+00 -0.00000000000E+00 -0.22052895927E+03  0.22052895932E+03  0.50400000000E-02 0. -1.
        -24    2    1    2    0    0  0.71054273576E-14  0.00000000000E+00 -0.21340344915E+03  0.22765446990E+03  0.79281306458E+02 0.  0.
         66    2    3    3    0    0  0.38117618093E+02  0.60455405409E+01 -0.81106226357E+02  0.89842758882E+02  0.20000000239E+01 0.  0.
         13    1    3    3    0    0 -0.38117618093E+02 -0.60455405409E+01 -0.13229722279E+03  0.13781171101E+03  0.10566000000E+00 0. -1.
         13    1    4    4    0    0  0.10334360196E+02  0.11004790423E+01 -0.21041142081E+02  0.23468082131E+02  0.10566000000E+00 0. -1.
        -13    1    4    4    0    0  0.21259541150E+02  0.34783201785E+01 -0.44869084577E+02  0.49772610098E+02  0.10566000000E+00 0.  1.
         14    1    4    4    0    0  0.65237167470E+01  0.14667413202E+01 -0.15195999699E+02  0.16602066653E+02  0.00000000000E+00 0. -1.
<mgrwt>
<rscale>  0 0.79281306E+02</rscale>
<asrwt>0</asrwt>
<pdfrwt beam="1">  1        1 0.33927527E-01 0.79281306E+02</pdfrwt>
<pdfrwt beam="2">  1       -2 0.10962325E-02 0.79281306E+02</pdfrwt>
<totfact> 0.17405314E+05</totfact>
</mgrwt>
</event>
<event>
 8    1  0.8247621E-018  0.7871766E+02  0.7818608E-02  0.1332730E+00
         -2   -1    0    0    0  501 -0.00000000000E+00  0.00000000000E+00  0.19872933380E+03  0.19872933382E+03  0.25500000000E-02 0.  1.
          1   -1    0    0  501    0  0.00000000000E+00 -0.00000000000E+00 -0.77951111420E+01  0.77951127714E+01  0.50400000000E-02 0. -1.
        -24    2    1    2    0    0  0.00000000000E+00  0.00000000000E+00  0.19093422266E+03  0.20652444659E+03  0.78717657843E+02 0.  0.
         66    2    3    3    0    0  0.83270748303E+01 -0.32449655699E+02  0.14960244728E+03  0.15332062013E+03  0.19999982821E+01 0.  0.
         13    1    3    3    0    0 -0.83270748303E+01  0.32449655699E+02  0.41331775373E+02  0.53203826458E+02  0.10566000000E+00 0. -1.
         13    1    4    4    0    0  0.20717896851E+01 -0.75658447868E+01  0.33168070276E+02  0.34083227102E+02  0.10566000000E+00 0. -1.
        -13    1    4    4    0    0  0.39560841956E+01 -0.14922337513E+02  0.66738164120E+02  0.68500514400E+02  0.10566000000E+00 0.  1.
        -14    1    4    4    0    0  0.22992009496E+01 -0.99614733993E+01  0.49696212889E+02  0.50736878627E+02  0.00000000000E+00 0.  1.
<mgrwt>
<rscale>  0 0.78717658E+02</rscale>
<asrwt>0</asrwt>
<pdfrwt beam="1">  1        1 0.11992482E-02 0.78717658E+02</pdfrwt>
<pdfrwt beam="2">  1       -2 0.30573739E-01 0.78717658E+02</pdfrwt>
<totfact> 0.88924348E+04</totfact>
</mgrwt>
</event>
<event>
 8    1  0.8247621E-018  0.7975173E+02  0.7818608E-02  0.1329757E+00
         -2   -1    0    0    0  501 -0.00000000000E+00  0.00000000000E+00  0.61168564026E+01  0.61168569342E+01  0.25500000000E-02 0.  1.
          1   -1    0    0  501    0  0.00000000000E+00 -0.00000000000E+00 -0.25995123704E+03  0.25995123709E+03  0.50400000000E-02 0. -1.
        -24    2    1    2    0    0  0.00000000000E+00  0.00000000000E+00 -0.25383438064E+03  0.26606809403E+03  0.79751726398E+02 0.  0.
         66    2    3    3    0    0 -0.20160753226E+02 -0.34269919280E+02 -0.11804718954E+03  0.12457938151E+03  0.20000003327E+01 0.  0.
         13    1    3    3    0    0  0.20160753226E+02  0.34269919280E+02 -0.13578719110E+03  0.14148871251E+03  0.10566000000E+00 0. -1.
         13    1    4    4    0    0 -0.33428186284E+01 -0.59262401970E+01 -0.18262959270E+02  0.19489525509E+02  0.10566000000E+00 0. -1.
        -13    1    4    4    0    0 -0.37193903845E+01 -0.55986573675E+01 -0.20269048873E+02  0.21354726301E+02  0.10566000000E+00 0.  1.
         14    1    4    4    0    0 -0.13098544213E+02 -0.22745021715E+02 -0.79515181397E+02  0.83735129700E+02  0.00000000000E+00 0. -1.
<mgrwt>
<rscale>  0 0.79751726E+02</rscale>
<asrwt>0</asrwt>
<pdfrwt beam="1">  1        1 0.39992490E-01 0.79751726E+02</pdfrwt>
<pdfrwt beam="2">  1       -2 0.94105508E-03 0.79751726E+02</pdfrwt>
<totfact> 0.17693025E+05</totfact>
</mgrwt>
</event>
<event>
 8    1  0.8247621E-018  0.7846573E+02  0.7818608E-02  0.1333463E+00
         -2   -1    0    0    0  501 -0.00000000000E+00  0.00000000000E+00  0.52930871906E+02  0.52930871968E+02  0.25500000000E-02 0.  1.
          1   -1    0    0  501    0  0.00000000000E+00 -0.00000000000E+00 -0.29079769068E+02  0.29079769504E+02  0.50400000000E-02 0. -1.
        -24    2    1    2    0    0  0.00000000000E+00  0.00000000000E+00  0.23851102839E+02  0.82010641472E+02  0.78465726327E+02 0.  0.
         66    2    3    3    0    0  0.29661894058E+02 -0.25637237526E+02  0.11576219340E+02  0.40928043745E+02  0.20000008858E+01 0.  0.
         13    1    3    3    0    0 -0.29661894058E+02  0.25637237526E+02  0.12274883499E+02  0.41082597727E+02  0.10566000000E+00 0. -1.
         13    1    4    4    0    0  0.11519295890E+01 -0.14731506990E+01  0.70347977551E+00  0.20007904914E+01  0.10566000000E+00 0. -1.
        -13    1    4    4    0    0  0.19360490390E+02 -0.16186333395E+02  0.75823885361E+01  0.26350137701E+02  0.10566000000E+00 0.  1.
         14    1    4    4    0    0  0.91494740789E+01 -0.79777534322E+01  0.32903510280E+01  0.12577115553E+02  0.00000000000E+00 0. -1.
<mgrwt>
<rscale>  0 0.78465726E+02</rscale>
<asrwt>0</asrwt>
<pdfrwt beam="1">  1        1 0.44738107E-02 0.78465726E+02</pdfrwt>
<pdfrwt beam="2">  1       -2 0.81432110E-02 0.78465726E+02</pdfrwt>
<totfact> 0.12716468E+05</totfact>
</mgrwt>
</event>
<event>
 8    1  0.8247621E-018  0.8092710E+02  0.7818608E-02  0.1326441E+00
         -2   -1    0    0    0  501 -0.00000000000E+00  0.00000000000E+00  0.16436988696E+02  0.16436988894E+02  0.25500000000E-02 0.  1.
          1   -1    0    0  501    0  0.00000000000E+00 -0.00000000000E+00 -0.99610644865E+02  0.99610644993E+02  0.50400000000E-02 0. -1.
        -24    2    1    2    0    0 -0.35527136788E-14  0.00000000000E+00 -0.83173656169E+02  0.11604763389E+03  0.80927104546E+02 0.  0.
         66    2    3    3    0    0  0.26760803189E+02 -0.16724324044E+02 -0.53506583730E+01  0.32069816863E+02  0.20000016342E+01 0.  0.
         13    1    3    3    0    0 -0.26760803189E+02  0.16724324044E+02 -0.77822997796E+02  0.83977817023E+02  0.10566000000E+00 0. -1.
         13    1    4    4    0    0  0.13309773843E+02 -0.84790344469E+01 -0.33328619796E+01  0.16129576495E+02  0.10566000000E+00 0. -1.
        -13    1    4    4    0    0  0.13014666631E+01 -0.11469737358E+01 -0.12705890738E+00  0.17426050118E+01  0.10566000000E+00 0.  1.
        -14    1    4    4    0    0  0.12149562683E+02 -0.70983158614E+01 -0.18907374861E+01  0.14197635356E+02  0.00000000000E+00 0.  1.
<mgrwt>
<rscale>  0 0.80927105E+02</rscale>
<asrwt>0</asrwt>
<pdfrwt beam="1">  1        1 0.15324714E-01 0.80927105E+02</pdfrwt>
<pdfrwt beam="2">  1       -2 0.25287676E-02 0.80927105E+02</pdfrwt>
<totfact> 0.14238707E+05</totfact>
</mgrwt>
</event>
<event>
 8    1  0.8247621E-018  0.8085368E+02  0.7818608E-02  0.1326646E+00
         -2   -1    0    0    0  501 -0.00000000000E+00  0.00000000000E+00  0.55894969891E+01  0.55894975708E+01  0.25500000000E-02 0.  1.
          1   -1    0    0  501    0  0.00000000000E+00 -0.00000000000E+00 -0.29239288899E+03  0.29239288903E+03  0.50400000000E-02 0. -1.
        -24    2    1    2    0    0  0.00000000000E+00  0.00000000000E+00 -0.28680339200E+03  0.29798238660E+03  0.80853676868E+02 0.  0.
         66    2    3    3    0    0 -0.93115067529E+01  0.37075195770E+02 -0.19168978400E+03  0.19547441672E+03  0.20000003385E+01 0.  0.
         13    1    3    3    0    0  0.93115067529E+01 -0.37075195770E+02 -0.95113607998E+02  0.10250796988E+03  0.10566000000E+00 0. -1.
         13    1    4    4    0    0 -0.40340794284E+01  0.13875870202E+02 -0.71281877008E+02  0.72731909947E+02  0.10566000000E+00 0. -1.
        -13    1    4    4    0    0 -0.20438388977E+01  0.73335566580E+01 -0.36207208582E+02  0.36999073611E+02  0.10566000000E+00 0.  1.
         14    1    4    4    0    0 -0.32335884269E+01  0.15865768910E+02 -0.84200698410E+02  0.85743433159E+02  0.00000000000E+00 0. -1.
<mgrwt>
<rscale>  0 0.80853677E+02</rscale>
<asrwt>0</asrwt>
<pdfrwt beam="1">  1        1 0.44983510E-01 0.80853677E+02</pdfrwt>
<pdfrwt beam="2">  1       -2 0.85992289E-03 0.80853677E+02</pdfrwt>
<totfact> 0.17457409E+05</totfact>
</mgrwt>
</event>
<event>
 8    1  0.8247621E-018  0.8094905E+02  0.7818608E-02  0.1326380E+00
         -2   -1    0    0    0  501 -0.00000000000E+00  0.00000000000E+00  0.61786596964E+03  0.61786596964E+03  0.25500000000E-02 0.  1.
          1   -1    0    0  501    0  0.00000000000E+00 -0.00000000000E+00 -0.26513608917E+01  0.26513656820E+01  0.50400000000E-02 0. -1.
        -24    2    1    2    0    0  0.17763568394E-14  0.71054273576E-14  0.61521460875E+03  0.62051733533E+03  0.80949049558E+02 0.  0.
         66    2    3    3    0    0  0.11053761812E+02  0.35158983029E+02  0.43556825010E+03  0.43712931752E+03  0.19999993428E+01 0.  0.
         13    1    3    3    0    0 -0.11053761812E+02 -0.35158983029E+02  0.17964635865E+03  0.18338801781E+03  0.10566000000E+00 0. -1.
         13    1    4    4    0    0  0.60018143192E+00  0.31649035671E+01  0.39712829706E+02  0.39843403966E+02  0.10566000000E+00 0. -1.
        -13    1    4    4    0    0  0.55852253485E+01  0.16818512483E+02  0.21593513764E+03  0.21666114543E+03  0.10566000000E+00 0.  1.
        -14    1    4    4    0    0  0.48683550313E+01  0.15175566978E+02  0.17992028275E+03  0.18062476812E+03  0.00000000000E+00 0.  1.
<mgrwt>
<rscale>  0 0.80949050E+02</rscale>
<asrwt>0</asrwt>
<pdfrwt beam="1">  1        1 0.40790210E-03 0.80949050E+02</pdfrwt>
<pdfrwt beam="2">  1       -2 0.95056290E-01 0.80949050E+02</pdfrwt>
<totfact> 0.41108543E+04</totfact>
</mgrwt>
</event>
<event>
 8    1  0.8247621E-018  0.8169403E+02  0.7818608E-02  0.1324312E+00
         -2   -1    0    0    0  501 -0.00000000000E+00  0.00000000000E+00  0.84436423202E+01  0.84436427052E+01  0.25500000000E-02 0.  1.
          1   -1    0    0  501    0  0.00000000000E+00 -0.00000000000E+00 -0.19760174806E+03  0.19760174813E+03  0.50400000000E-02 0. -1.
        -24    2    1    2    0    0  0.00000000000E+00  0.00000000000E+00 -0.18915810574E+03  0.20604539083E+03  0.81694027413E+02 0.  0.
         66    2    3    3    0    0 -0.22151041615E+02 -0.29860187617E+02 -0.52118362643E+02  0.64051722656E+02  0.20000003826E+01 0.  0.
         13    1    3    3    0    0  0.22151041615E+02  0.29860187617E+02 -0.13703974310E+03  0.14199366817E+03  0.10566000000E+00 0. -1.
         13    1    4    4    0    0 -0.94149699193E+01 -0.12685962871E+02 -0.20786432176E+02  0.26108662149E+02  0.10566000000E+00 0.  1.
        -13    1    4    4    0    0 -0.66719482697E+01 -0.91441183629E+01 -0.17363409826E+02  0.20727492834E+02  0.10566000000E+00 0.  1.
        -14    1    4    4    0    0 -0.60641234264E+01 -0.80301063826E+01 -0.13968520641E+02  0.17215567674E+02  0.00000000000E+00 0.  1.
<mgrwt>
<rscale>  0 0.81694027E+02</rscale>
<asrwt>0</asrwt>
<pdfrwt beam="1">  1        1 0.30400266E-01 0.81694027E+02</pdfrwt>
<pdfrwt beam="2">  1       -2 0.12990221E-02 0.81694027E+02</pdfrwt>
<totfact> 0.15733528E+05</totfact>
</mgrwt>
</event>
<event>
 8    1  0.8247621E-018  0.8150596E+02  0.7818608E-02  0.1324831E+00
         -2   -1    0    0    0  501 -0.00000000000E+00  0.00000000000E+00  0.84326468685E+01  0.84326472541E+01  0.25500000000E-02 0.  1.
          1   -1    0    0  501    0  0.00000000000E+00 -0.00000000000E+00 -0.19694944978E+03  0.19694944984E+03  0.50400000000E-02 0. -1.
        -24    2    1    2    0    0  0.00000000000E+00  0.00000000000E+00 -0.18851680291E+03  0.20538209710E+03  0.81505955786E+02 0.  0.
         66    2    3    3    0    0  0.37157641353E+02  0.31998851060E+01 -0.53073369135E+02  0.64897704753E+02  0.19999988140E+01 0.  0.
         13    1    3    3    0    0 -0.37157641353E+02 -0.31998851060E+01 -0.13544343377E+03  0.14048439234E+03  0.10566000000E+00 0. -1.
         13    1    4    4    0    0  0.67635372914E+01  0.77735853998E+00 -0.95042430191E+01  0.11691514974E+02  0.10566000000E+00 0. -1.
        -13    1    4    4    0    0  0.30158196697E+02  0.24298908803E+01 -0.42895722810E+02  0.52492622311E+02  0.10566000000E+00 0.  1.
         14    1    4    4    0    0  0.23590736461E+00 -0.73643143578E-02 -0.67340330666E+00  0.71356746788E+00  0.00000000000E+00 0. -1.
<mgrwt>
<rscale>  0 0.81505956E+02</rscale>
<asrwt>0</asrwt>
<pdfrwt beam="1">  1        1 0.30299912E-01 0.81505956E+02</pdfrwt>
<pdfrwt beam="2">  1       -2 0.12973305E-02 0.81505956E+02</pdfrwt>
<totfact> 0.15820144E+05</totfact>
</mgrwt>
</event>
<event>
 8    1  0.8247621E-018  0.8040863E+02  0.7818608E-02  0.1327896E+00
         -2   -1    0    0    0  501 -0.00000000000E+00  0.00000000000E+00  0.91083325806E+01  0.91083329375E+01  0.25500000000E-02 0.  1.
          1   -1    0    0  501    0  0.00000000000E+00 -0.00000000000E+00 -0.17746243469E+03  0.17746243476E+03  0.50400000000E-02 0. -1.
        -24    2    1    2    0    0  0.00000000000E+00 -0.35527136788E-14 -0.16835410211E+03  0.18657076770E+03  0.80408629280E+02 0.  0.
         66    2    3    3    0    0 -0.35585943277E+02 -0.18557420880E+02 -0.79799281046E+02  0.89345746607E+02  0.19999881944E+01 0.  0.
         13    1    3    3    0    0  0.35585943277E+02  0.18557420880E+02 -0.88554821063E+02  0.97225021092E+02  0.10566000000E+00 0. -1.
         13    1    4    4    0    0 -0.11209588927E+02 -0.49762973107E+01 -0.24061677825E+02  0.27007293878E+02  0.10566000000E+00 0. -1.
        -13    1    4    4    0    0 -0.11725584112E+02 -0.60468300899E+01 -0.26291640269E+02  0.29416236826E+02  0.10566000000E+00 0.  1.
         14    1    4    4    0    0 -0.12650770238E+02 -0.75342934792E+01 -0.29445962951E+02  0.32922215903E+02  0.00000000000E+00 0. -1.
<mgrwt>
<rscale>  0 0.80408629E+02</rscale>
<asrwt>0</asrwt>
<pdfrwt beam="1">  1        1 0.27301911E-01 0.80408629E+02</pdfrwt>
<pdfrwt beam="2">  1       -2 0.14012821E-02 0.80408629E+02</pdfrwt>
<totfact> 0.16074512E+05</totfact>
</mgrwt>
</event>
<event>
 8    1  0.8247621E-018  0.8011689E+02  0.7818608E-02  0.1328720E+00
          1   -1    0    0  501    0  0.00000000000E+00  0.00000000000E+00  0.27322994690E+02  0.27322995155E+02  0.50400000000E-02 0. -1.
         -2   -1    0    0    0  501 -0.00000000000E+00 -0.00000000000E+00 -0.58729983765E+02  0.58729983820E+02  0.25500000000E-02 0.  1.
        -24    2    1    2    0    0 -0.35527136788E-14 -0.71054273576E-14 -0.31406989074E+02  0.86052978975E+02  0.80116891027E+02 0.  0.
         66    2    3    3    0    0  0.14819233044E+02  0.36788284883E+02 -0.98610220771E+01  0.40917323108E+02  0.20000003247E+01 0.  0.
         13    1    3    3    0    0 -0.14819233044E+02 -0.36788284883E+02 -0.21545966997E+02  0.45135655867E+02  0.10566000000E+00 0. -1.
         13    1    4    4    0    0  0.28431772048E+00  0.15110474734E+01 -0.26091603083E+00  0.15631193953E+01  0.10566000000E+00 0. -1.
        -13    1    4    4    0    0  0.63407643680E+01  0.14472661083E+02 -0.36904612317E+01  0.16226332910E+02  0.10566000000E+00 0.  1.
        -14    1    4    4    0    0  0.81941509560E+01  0.20804576327E+02 -0.59096448146E+01  0.23127870803E+02  0.00000000000E+00 0.  1.
<mgrwt>
<rscale>  0 0.80116891E+02</rscale>
<asrwt>0</asrwt>
<pdfrwt beam="1">  1        1 0.42035377E-02 0.80116891E+02</pdfrwt>
<pdfrwt beam="2">  1       -2 0.90353821E-02 0.80116891E+02</pdfrwt>
<totfact> 0.11842273E+05</totfact>
</mgrwt>
</event>
<event>
 8    1  0.8247621E-018  0.8586298E+02  0.7818608E-02  0.1313191E+00
         -2   -1    0    0    0  501 -0.00000000000E+00  0.00000000000E+00  0.72948990965E+02  0.72948991010E+02  0.25500000000E-02 0.  1.
          1   -1    0    0  501    0  0.00000000000E+00 -0.00000000000E+00 -0.25265772974E+02  0.25265773477E+02  0.50400000000E-02 0. -1.
        -24    2    1    2    0    0  0.00000000000E+00 -0.88817841970E-15  0.47683217992E+02  0.98214764487E+02  0.85862976219E+02 0.  0.
         66    2    3    3    0    0 -0.23749216377E+02  0.32893902900E+01  0.64558094530E+02  0.68895521842E+02  0.19999983943E+01 0.  0.
         13    1    3    3    0    0  0.23749216377E+02 -0.32893902900E+01 -0.16874876538E+02  0.29319242644E+02  0.10566000000E+00 0. -1.
         13    1    4    4    0    0 -0.67304883882E+00  0.12901517086E+00  0.29131721420E+01  0.29945576666E+01  0.10566000000E+00 0. -1.
        -13    1    4    4    0    0 -0.34914631126E+01  0.37276601041E+00  0.97375054873E+01  0.10351784692E+02  0.10566000000E+00 0. -1.
        -14    1    4    4    0    0 -0.19584704426E+02  0.27876091087E+01  0.51907416900E+02  0.55549179483E+02  0.00000000000E+00 0.  1.
<mgrwt>
<rscale>  0 0.85862976E+02</rscale>
<asrwt>0</asrwt>
<pdfrwt beam="1">  1        1 0.38870421E-02 0.85862976E+02</pdfrwt>
<pdfrwt beam="2">  1       -2 0.11222922E-01 0.85862976E+02</pdfrwt>
<totfact> 0.95183124E+04</totfact>
</mgrwt>
</event>
<event>
 8    1  0.8247621E-018  0.7850583E+02  0.7818608E-02  0.1333346E+00
          1   -1    0    0  501    0  0.00000000000E+00  0.00000000000E+00  0.12880935568E+02  0.12880936554E+02  0.50400000000E-02 0. -1.
         -2   -1    0    0    0  501 -0.00000000000E+00 -0.00000000000E+00 -0.11961794907E+03  0.11961794909E+03  0.25500000000E-02 0.  1.
        -24    2    1    2    0    0  0.00000000000E+00  0.00000000000E+00 -0.10673701350E+03  0.13249888565E+03  0.78505825562E+02 0.  0.
         66    2    3    3    0    0  0.18242526044E+02  0.81677081241E+01 -0.11037046479E+03  0.11218351352E+03  0.19999984510E+01 0.  0.
         13    1    3    3    0    0 -0.18242526044E+02 -0.81677081241E+01  0.36334512940E+01  0.20315372131E+02  0.10566000000E+00 0. -1.
         13    1    4    4    0    0  0.10191396860E+02  0.45031503541E+01 -0.63397209649E+02  0.64368938848E+02  0.10566000000E+00 0. -1.
        -13    1    4    4    0    0  0.78254407263E+01  0.36230206718E+01 -0.44310331224E+02  0.45141781295E+02  0.10566000000E+00 0.  1.
         14    1    4    4    0    0  0.22568845862E+00  0.41537098136E-01 -0.26629239190E+01  0.26727933720E+01  0.00000000000E+00 0. -1.
<mgrwt>
<rscale>  0 0.78505826E+02</rscale>
<asrwt>0</asrwt>
<pdfrwt beam="1">  1        1 0.19816826E-02 0.78505826E+02</pdfrwt>
<pdfrwt beam="2">  1       -2 0.18402761E-01 0.78505826E+02</pdfrwt>
<totfact> 0.10625279E+05</totfact>
</mgrwt>
</event>
<event>
 8    1  0.8247621E-018  0.7524698E+02  0.7818608E-02  0.1343108E+00
          1   -1    0    0  501    0  0.00000000000E+00  0.00000000000E+00  0.60353556459E+01  0.60353577503E+01  0.50400000000E-02 0. -1.
         -2   -1    0    0    0  501 -0.00000000000E+00 -0.00000000000E+00 -0.23453905155E+03  0.23453905156E+03  0.25500000000E-02 0.  1.
        -24    2    1    2    0    0  0.35527136788E-14  0.00000000000E+00 -0.22850369590E+03  0.24057440931E+03  0.75246975852E+02 0.  0.
         66    2    3    3    0    0  0.24884747027E+02 -0.25709742823E+02 -0.15124229885E+03  0.15542996645E+03  0.20000001949E+01 0.  0.
         13    1    3    3    0    0 -0.24884747027E+02  0.25709742823E+02 -0.77261397053E+02  0.85144442856E+02  0.10566000000E+00 0. -1.
         13    1    4    4    0    0  0.10052923023E+01 -0.16122969384E+01 -0.83810016954E+01  0.85943276342E+01  0.10566000000E+00 0. -1.
        -13    1    4    4    0    0  0.38139374423E+01 -0.35426594694E+01 -0.22069747605E+02  0.22675570077E+02  0.10566000000E+00 0.  1.
        -14    1    4    4    0    0  0.20065517283E+02 -0.20554786415E+02 -0.12079154955E+03  0.12416006874E+03  0.00000000000E+00 0.  1.
<mgrwt>
<rscale>  0 0.75246976E+02</rscale>
<asrwt>0</asrwt>
<pdfrwt beam="1">  1        1 0.92851660E-03 0.75246976E+02</pdfrwt>
<pdfrwt beam="2">  1       -2 0.36082924E-01 0.75246976E+02</pdfrwt>
<totfact> 0.93022548E+04</totfact>
</mgrwt>
</event>
<event>
 8    1  0.8247621E-018  0.7951863E+02  0.7818608E-02  0.1330423E+00
          1   -1    0    0  501    0  0.00000000000E+00  0.00000000000E+00  0.89334458025E+01  0.89334472242E+01  0.50400000000E-02 0. -1.
         -2   -1    0    0    0  501 -0.00000000000E+00 -0.00000000000E+00 -0.17695332587E+03  0.17695332589E+03  0.25500000000E-02 0.  1.
        -24    2    1    2    0    0 -0.88817841970E-15 -0.35527136788E-14 -0.16801988007E+03  0.18588677311E+03  0.79518628763E+02 0.  0.
         66    2    3    3    0    0  0.68692972436E+01  0.30872095343E+02 -0.27836503521E+02  0.42179905707E+02  0.20000004221E+01 0.  0.
         13    1    3    3    0    0 -0.68692972436E+01 -0.30872095343E+02 -0.14018337655E+03  0.14370686740E+03  0.10566000000E+00 0. -1.
         13    1    4    4    0    0  0.14019674208E+01  0.76821735656E+01 -0.67138519038E+01  0.10298945323E+02  0.10566000000E+00 0. -1.
        -13    1    4    4    0    0  0.13502444885E+01  0.90776228337E+01 -0.82442627434E+01  0.12337156427E+02  0.10566000000E+00 0.  1.
         14    1    4    4    0    0  0.41170853343E+01  0.14112298944E+02 -0.12878388874E+02  0.19543803957E+02  0.00000000000E+00 0. -1.
<mgrwt>
<rscale>  0 0.79518629E+02</rscale>
<asrwt>0</asrwt>
<pdfrwt beam="1">  1        1 0.13743765E-02 0.79518629E+02</pdfrwt>
<pdfrwt beam="2">  1       -2 0.27223586E-01 0.79518629E+02</pdfrwt>
<totfact> 0.90614786E+04</totfact>
</mgrwt>
</event>
<event>
 8    1  0.8247621E-018  0.8019437E+02  0.7818608E-02  0.1328501E+00
          1   -1    0    0  501    0  0.00000000000E+00  0.00000000000E+00  0.80574799712E+02  0.80574799869E+02  0.50400000000E-02 0. -1.
         -2   -1    0    0    0  501 -0.00000000000E+00 -0.00000000000E+00 -0.19953935821E+02  0.19953935984E+02  0.25500000000E-02 0.  1.
        -24    2    1    2    0    0  0.17763568394E-14 -0.71054273576E-14  0.60620863890E+02  0.10052873585E+03  0.80194373827E+02 0.  0.
         66    2    3    3    0    0 -0.15711797243E+02 -0.36859120589E+02  0.31042880722E+02  0.50725888590E+02  0.19999966323E+01 0.  0.
         13    1    3    3    0    0  0.15711797243E+02  0.36859120589E+02  0.29577983168E+02  0.49802847263E+02  0.10566000000E+00 0. -1.
         13    1    4    4    0    0 -0.70021909287E+01 -0.15004490104E+02  0.12759968452E+02  0.20904386143E+02  0.10566000000E+00 0. -1.
        -13    1    4    4    0    0 -0.82514561272E+01 -0.20951372866E+02  0.17777052785E+02  0.28689393910E+02  0.10566000000E+00 0.  1.
         14    1    4    4    0    0 -0.45815018700E+00 -0.90325761959E+00  0.50585948515E+00  0.11321085372E+01  0.00000000000E+00 0. -1.
<mgrwt>
<rscale>  0 0.80194374E+02</rscale>
<asrwt>0</asrwt>
<pdfrwt beam="1">  1        1 0.12396123E-01 0.80194374E+02</pdfrwt>
<pdfrwt beam="2">  1       -2 0.30698362E-02 0.80194374E+02</pdfrwt>
<totfact> 0.14092312E+05</totfact>
</mgrwt>
</event>
<event>
 8    1  0.8247621E-018  0.7852572E+02  0.7818608E-02  0.1333288E+00
         -2   -1    0    0    0  501 -0.00000000000E+00  0.00000000000E+00  0.65863031863E+01  0.65863036799E+01  0.25500000000E-02 0.  1.
          1   -1    0    0  501    0  0.00000000000E+00 -0.00000000000E+00 -0.23405729450E+03  0.23405729455E+03  0.50400000000E-02 0. -1.
        -24    2    1    2    0    0  0.71054273576E-14  0.88817841970E-15 -0.22747099131E+03  0.24064359823E+03  0.78525724968E+02 0.  0.
         66    2    3    3    0    0 -0.38530281007E+02 -0.73718852548E+01 -0.11626104368E+03  0.12271738883E+03  0.19999995185E+01 0.  0.
         13    1    3    3    0    0  0.38530281007E+02  0.73718852548E+01 -0.11120994763E+03  0.11792620940E+03  0.10566000000E+00 0. -1.
         13    1    4    4    0    0 -0.61814940729E+01 -0.10657668426E+01 -0.17781961825E+02  0.18856194163E+02  0.10566000000E+00 0. -1.
        -13    1    4    4    0    0 -0.21799775623E+02 -0.37029964328E+01 -0.64205431256E+02  0.67906486926E+02  0.10566000000E+00 0.  1.
         14    1    4    4    0    0 -0.10549011310E+02 -0.26031219794E+01 -0.34273650594E+02  0.35954707740E+02  0.00000000000E+00 0. -1.
<mgrwt>
<rscale>  0 0.78525725E+02</rscale>
<asrwt>0</asrwt>
<pdfrwt beam="1">  1        1 0.36008808E-01 0.78525725E+02</pdfrwt>
<pdfrwt beam="2">  1       -2 0.10132776E-02 0.78525725E+02</pdfrwt>
<totfact> 0.18059761E+05</totfact>
</mgrwt>
</event>
<event>
 8    1  0.8247621E-018  0.7311886E+02  0.7818608E-02  0.1349797E+00
         -2   -1    0    0    0  501 -0.00000000000E+00  0.00000000000E+00  0.92103688519E+01  0.92103692049E+01  0.25500000000E-02 0.  1.
          1   -1    0    0  501    0  0.00000000000E+00 -0.00000000000E+00 -0.14511816129E+03  0.14511816138E+03  0.50400000000E-02 0. -1.
        -24    2    1    2    0    0 -0.88817841970E-15  0.00000000000E+00 -0.13590779244E+03  0.15432853058E+03  0.73118857393E+02 0.  0.
         66    2    3    3    0    0 -0.61347380217E+01 -0.35919848956E+02 -0.73474579813E+02  0.82038920248E+02  0.19999992910E+01 0.  0.
         13    1    3    3    0    0  0.61347380217E+01  0.35919848956E+02 -0.62433212627E+02  0.72289610336E+02  0.10566000000E+00 0. -1.
         13    1    4    4    0    0 -0.93781315932E+00 -0.43709897389E+01 -0.80065291001E+01  0.91706443114E+01  0.10566000000E+00 0. -1.
        -13    1    4    4    0    0 -0.52433909526E+01 -0.30960829814E+02 -0.64406456307E+02  0.71653812945E+02  0.10566000000E+00 0.  1.
        -14    1    4    4    0    0  0.46466090282E-01 -0.58802940265E+00 -0.10615944058E+01  0.12144629918E+01  0.00000000000E+00 0.  1.
<mgrwt>
<rscale>  0 0.73118857E+02</rscale>
<asrwt>0</asrwt>
<pdfrwt beam="1">  1        1 0.22325870E-01 0.73118857E+02</pdfrwt>
<pdfrwt beam="2">  1       -2 0.14169799E-02 0.73118857E+02</pdfrwt>
<totfact> 0.19931181E+05</totfact>
</mgrwt>
</event>
<event>
 8    1  0.8247621E-018  0.7874344E+02  0.7818608E-02  0.1332656E+00
         -2   -1    0    0    0  501 -0.00000000000E+00  0.00000000000E+00  0.20428410117E+02  0.20428410276E+02  0.25500000000E-02 0.  1.
          1   -1    0    0  501    0  0.00000000000E+00 -0.00000000000E+00 -0.75881201830E+02  0.75881201997E+02  0.50400000000E-02 0. -1.
        -24    2    1    2    0    0  0.00000000000E+00  0.00000000000E+00 -0.55452791713E+02  0.96309612273E+02  0.78743439774E+02 0.  0.
         66    2    3    3    0    0  0.65307734788E+01 -0.38799460687E+02 -0.27402133749E+02  0.47988812113E+02  0.20000005464E+01 0.  0.
         13    1    3    3    0    0 -0.65307734788E+01  0.38799460687E+02 -0.28050657964E+02  0.48320800160E+02  0.10566000000E+00 0. -1.
         13    1    4    4    0    0  0.34102995752E+01 -0.23078432043E+02 -0.15496145203E+02  0.28006889312E+02  0.10566000000E+00 0. -1.
        -13    1    4    4    0    0  0.24630677351E+01 -0.12087166830E+02 -0.87492186658E+01  0.15123699810E+02  0.10566000000E+00 0.  1.
         14    1    4    4    0    0  0.65740616853E+00 -0.36338618147E+01 -0.31567698796E+01  0.48582229912E+01  0.00000000000E+00 0. -1.
<mgrwt>
<rscale>  0 0.78743440E+02</rscale>
<asrwt>0</asrwt>
<pdfrwt beam="1">  1        1 0.11674031E-01 0.78743440E+02</pdfrwt>
<pdfrwt beam="2">  1       -2 0.31428324E-02 0.78743440E+02</pdfrwt>
<totfact> 0.14669383E+05</totfact>
</mgrwt>
</event>
<event>
 8    1  0.8247621E-018  0.8047305E+02  0.7818608E-02  0.1327714E+00
         -2   -1    0    0    0  501 -0.00000000000E+00  0.00000000000E+00  0.23595945862E+02  0.23595946000E+02  0.25500000000E-02 0.  1.
          1   -1    0    0  501    0  0.00000000000E+00 -0.00000000000E+00 -0.68612538783E+02  0.68612538969E+02  0.50400000000E-02 0. -1.
        -24    2    1    2    0    0  0.00000000000E+00  0.00000000000E+00 -0.45016592922E+02  0.92208484968E+02  0.80473045561E+02 0.  0.
         66    2    3    3    0    0  0.21887393177E+02 -0.33679725615E+02 -0.20350849183E+02  0.45072596563E+02  0.20000002048E+01 0.  0.
         13    1    3    3    0    0 -0.21887393177E+02  0.33679725615E+02 -0.24665743738E+02  0.47135888406E+02  0.10566000000E+00 0. -1.
         13    1    4    4    0    0  0.16831295169E+01 -0.24497797104E+01 -0.16457652596E+01  0.33991253177E+01  0.10566000000E+00 0. -1.
        -13    1    4    4    0    0  0.14286508618E+02 -0.22514192581E+02 -0.12526988829E+02  0.29460648486E+02  0.10566000000E+00 0.  1.
        -14    1    4    4    0    0  0.59177550426E+01 -0.87157533237E+01 -0.61780950944E+01  0.12212822759E+02  0.00000000000E+00 0.  1.
<mgrwt>
<rscale>  0 0.80473046E+02</rscale>
<asrwt>0</asrwt>
<pdfrwt beam="1">  1        1 0.10555775E-01 0.80473046E+02</pdfrwt>
<pdfrwt beam="2">  1       -2 0.36301456E-02 0.80473046E+02</pdfrwt>
<totfact> 0.13605111E+05</totfact>
</mgrwt>
</event>
<event>
 8    1  0.8247621E-018  0.7548625E+02  0.7818608E-02  0.1342372E+00
         -2   -1    0    0    0  501 -0.00000000000E+00  0.00000000000E+00  0.61661286769E+01  0.61661292042E+01  0.25500000000E-02 0.  1.
          1   -1    0    0  501    0  0.00000000000E+00 -0.00000000000E+00 -0.23102717884E+03  0.23102717890E+03  0.50400000000E-02 0. -1.
        -24    2    1    2    0    0  0.00000000000E+00  0.00000000000E+00 -0.22486105017E+03  0.23719330810E+03  0.75486247269E+02 0.  0.
         66    2    3    3    0    0  0.29664114146E+02 -0.17951648268E+02 -0.65869205651E+02  0.74464579446E+02  0.19999988524E+01 0.  0.
         13    1    3    3    0    0 -0.29664114146E+02  0.17951648268E+02 -0.15899184452E+03  0.16272872866E+03  0.10566000000E+00 0. -1.
         13    1    4    4    0    0  0.16873851201E+02 -0.96418291080E+01 -0.38576789010E+02  0.43195735175E+02  0.10566000000E+00 0. -1.
        -13    1    4    4    0    0  0.99820146303E+01 -0.65778559356E+01 -0.21732431958E+02  0.24803599892E+02  0.10566000000E+00 0.  1.
         14    1    4    4    0    0  0.28082483144E+01 -0.17319632247E+01 -0.55599846832E+01  0.64652443793E+01  0.00000000000E+00 0. -1.
<mgrwt>
<rscale>  0 0.75486247E+02</rscale>
<asrwt>0</asrwt>
<pdfrwt beam="1">  1        1 0.35542637E-01 0.75486247E+02</pdfrwt>
<pdfrwt beam="2">  1       -2 0.94863540E-03 0.75486247E+02</pdfrwt>
<totfact> 0.19990226E+05</totfact>
</mgrwt>
</event>
<event>
 8    1  0.8247621E-018  0.8231124E+02  0.7818608E-02  0.1322618E+00
         -2   -1    0    0    0  501 -0.00000000000E+00  0.00000000000E+00  0.50958493591E+02  0.50958493654E+02  0.25500000000E-02 0.  1.
          1   -1    0    0  501    0  0.00000000000E+00 -0.00000000000E+00 -0.33238524444E+02  0.33238524826E+02  0.50400000000E-02 0. -1.
        -24    2    1    2    0    0 -0.35527136788E-14  0.35527136788E-14  0.17719969147E+02  0.84197018480E+02  0.82311242333E+02 0.  0.
         66    2    3    3    0    0 -0.17954798459E+02  0.29058634960E+02  0.32303045140E+02  0.47055985607E+02  0.20000006745E+01 0.  0.
         13    1    3    3    0    0  0.17954798459E+02 -0.29058634960E+02 -0.14583075993E+02  0.37141032873E+02  0.10566000000E+00 0. -1.
         13    1    4    4    0    0 -0.10590493424E+01  0.19352134836E+01  0.22526177382E+01  0.31546929243E+01  0.10566000000E+00 0. -1.
        -13    1    4    4    0    0 -0.85230682224E+01  0.14538709665E+02  0.14800229489E+02  0.22429327399E+02  0.10566000000E+00 0.  1.
        -14    1    4    4    0    0 -0.83726808943E+01  0.12584711812E+02  0.15250197913E+02  0.21471965283E+02  0.00000000000E+00 0.  1.
<mgrwt>
<rscale>  0 0.82311242E+02</rscale>
<asrwt>0</asrwt>
<pdfrwt beam="1">  1        1 0.51136192E-02 0.82311242E+02</pdfrwt>
<pdfrwt beam="2">  1       -2 0.78397682E-02 0.82311242E+02</pdfrwt>
<totfact> 0.11348799E+05</totfact>
</mgrwt>
</event>
<event>
 8    1  0.8247621E-018  0.7963028E+02  0.7818608E-02  0.1330104E+00
          1   -1    0    0  501    0  0.00000000000E+00  0.00000000000E+00  0.12519183682E+03  0.12519183693E+03  0.50400000000E-02 0. -1.
         -2   -1    0    0    0  501 -0.00000000000E+00 -0.00000000000E+00 -0.12662529355E+02  0.12662529612E+02  0.25500000000E-02 0.  1.
        -24    2    1    2    0    0  0.35527136788E-14 -0.35527136788E-14  0.11252930747E+03  0.13785436654E+03  0.79630279002E+02 0.  0.
         66    2    3    3    0    0  0.26682001225E+02  0.24029362980E+02  0.26621492644E+02  0.44744199065E+02  0.20000012010E+01 0.  0.
         13    1    3    3    0    0 -0.26682001225E+02 -0.24029362980E+02  0.85907814826E+02  0.93110167473E+02  0.10566000000E+00 0. -1.
         13    1    4    4    0    0  0.37992397759E+00  0.43957637197E+00  0.22636935951E+00  0.63243714159E+00  0.10566000000E+00 0. -1.
        -13    1    4    4    0    0  0.23501925576E+02  0.21370114326E+02  0.23941540316E+02  0.39777264974E+02  0.10566000000E+00 0.  1.
        -14    1    4    4    0    0  0.28001516710E+01  0.22196722820E+01  0.24535829688E+01  0.43344969494E+01  0.00000000000E+00 0.  1.
<mgrwt>
<rscale>  0 0.79630279E+02</rscale>
<asrwt>0</asrwt>
<pdfrwt beam="1">  1        1 0.19260283E-01 0.79630279E+02</pdfrwt>
<pdfrwt beam="2">  1       -2 0.19480815E-02 0.79630279E+02</pdfrwt>
<totfact> 0.15471279E+05</totfact>
</mgrwt>
</event>
<event>
 8    1  0.8247621E-018  0.8156631E+02  0.7818608E-02  0.1324664E+00
         -2   -1    0    0    0  501 -0.00000000000E+00  0.00000000000E+00  0.70635492395E+02  0.70635492441E+02  0.25500000000E-02 0.  1.
          1   -1    0    0  501    0  0.00000000000E+00 -0.00000000000E+00 -0.23547163770E+02  0.23547164309E+02  0.50400000000E-02 0. -1.
        -24    2    1    2    0    0  0.00000000000E+00  0.00000000000E+00  0.47088328625E+02  0.94182656751E+02  0.81566305175E+02 0.  0.
         66    2    3    3    0    0 -0.19358940970E+02  0.29457397943E+02  0.47186959909E+02  0.58933149219E+02  0.20000005969E+01 0.  0.
         13    1    3    3    0    0  0.19358940970E+02 -0.29457397943E+02 -0.98631283298E-01  0.35249507532E+02  0.10566000000E+00 0. -1.
         13    1    4    4    0    0 -0.27405833298E+01  0.35965655926E+01  0.55373349011E+01  0.71497778211E+01  0.10566000000E+00 0. -1.
        -13    1    4    4    0    0 -0.15332337855E+02  0.23213465991E+02  0.37325731164E+02  0.46552840497E+02  0.10566000000E+00 0.  1.
         14    1    4    4    0    0 -0.12860197848E+01  0.26473663601E+01  0.43238938438E+01  0.52305309008E+01  0.00000000000E+00 0. -1.
<mgrwt>
<rscale>  0 0.81566305E+02</rscale>
<asrwt>0</asrwt>
<pdfrwt beam="1">  1        1 0.36226408E-02 0.81566305E+02</pdfrwt>
<pdfrwt beam="2">  1       -2 0.10866998E-01 0.81566305E+02</pdfrwt>
<totfact> 0.10918748E+05</totfact>
</mgrwt>
</event>
<event>
 8    1  0.8247621E-018  0.7849291E+02  0.7818608E-02  0.1333384E+00
          1   -1    0    0  501    0  0.00000000000E+00  0.00000000000E+00  0.24465576865E+02  0.24465577384E+02  0.50400000000E-02 0. -1.
         -2   -1    0    0    0  501 -0.00000000000E+00 -0.00000000000E+00 -0.62957192147E+02  0.62957192199E+02  0.25500000000E-02 0.  1.
        -24    2    1    2    0    0  0.00000000000E+00  0.00000000000E+00 -0.38491615282E+02  0.87422769583E+02  0.78492905377E+02 0.  0.
         66    2    3    3    0    0  0.37192082892E+02 -0.14891009344E+01 -0.33026271702E+02  0.49801637277E+02  0.20000003759E+01 0.  0.
         13    1    3    3    0    0 -0.37192082892E+02  0.14891009344E+01 -0.54653435800E+01  0.37621132305E+02  0.10566000000E+00 0. -1.
         13    1    4    4    0    0  0.55082848628E+01 -0.30223188024E+00 -0.41301549403E+01  0.68921614974E+01  0.10566000000E+00 0. -1.
        -13    1    4    4    0    0  0.23158274995E+02 -0.53680541366E+00 -0.20725497587E+02  0.31082974038E+02  0.10566000000E+00 0.  1.
        -14    1    4    4    0    0  0.85255230347E+01 -0.65006364046E+00 -0.81706191753E+01  0.11826501742E+02  0.00000000000E+00 0.  1.
<mgrwt>
<rscale>  0 0.78492905E+02</rscale>
<asrwt>0</asrwt>
<pdfrwt beam="1">  1        1 0.37639350E-02 0.78492905E+02</pdfrwt>
<pdfrwt beam="2">  1       -2 0.96857218E-02 0.78492905E+02</pdfrwt>
<totfact> 0.12310877E+05</totfact>
</mgrwt>
</event>
<event>
 8    1  0.8247621E-018  0.8028976E+02  0.7818608E-02  0.1328231E+00
         -2   -1    0    0    0  501 -0.00000000000E+00  0.00000000000E+00  0.22458409495E+02  0.22458409640E+02  0.25500000000E-02 0.  1.
          1   -1    0    0  501    0  0.00000000000E+00 -0.00000000000E+00 -0.71759821359E+02  0.71759821536E+02  0.50400000000E-02 0. -1.
        -24    2    1    2    0    0  0.00000000000E+00  0.00000000000E+00 -0.49301411864E+02  0.94218231176E+02  0.80289761951E+02 0.  0.
         66    2    3    3    0    0  0.38655625180E+02  0.42465450193E+01 -0.13089735258E+02  0.41080794379E+02  0.19999987574E+01 0.  0.
         13    1    3    3    0    0 -0.38655625180E+02 -0.42465450193E+01 -0.36211676606E+02  0.53137436796E+02  0.10566000000E+00 0. -1.
         13    1    4    4    0    0  0.21382660909E+02  0.22279104021E+01 -0.73691125080E+01  0.22726564974E+02  0.10566000000E+00 0.  1.
        -13    1    4    4    0    0  0.12863969678E+01  0.38802321501E+00 -0.19824610445E+00  0.13622939212E+01  0.10566000000E+00 0.  1.
        -14    1    4    4    0    0  0.15986567303E+02  0.16306114022E+01 -0.55223766458E+01  0.16991935484E+02  0.00000000000E+00 0.  1.
<mgrwt>
<rscale>  0 0.80289762E+02</rscale>
<asrwt>0</asrwt>
<pdfrwt beam="1">  1        1 0.11039973E-01 0.80289762E+02</pdfrwt>
<pdfrwt beam="2">  1       -2 0.34551400E-02 0.80289762E+02</pdfrwt>
<totfact> 0.13788246E+05</totfact>
</mgrwt>
</event>
<event>
 8    1  0.8247621E-018  0.8005826E+02  0.7818608E-02  0.1328886E+00
          1   -1    0    0  501    0  0.00000000000E+00  0.00000000000E+00  0.51720623471E+02  0.51720623717E+02  0.50400000000E-02 0. -1.
         -2   -1    0    0    0  501 -0.00000000000E+00 -0.00000000000E+00 -0.30980509513E+02  0.30980509618E+02  0.25500000000E-02 0.  1.
        -24    2    1    2    0    0  0.00000000000E+00 -0.17763568394E-14  0.20740113958E+02  0.82701133334E+02  0.80058260834E+02 0.  0.
         66    2    3    3    0    0 -0.36619324615E+02 -0.15660574720E+02  0.64978591959E+01  0.40403597702E+02  0.19999993372E+01 0.  0.
         13    1    3    3    0    0  0.36619324615E+02  0.15660574720E+02  0.14242254762E+02  0.42297535632E+02  0.10566000000E+00 0. -1.
         13    1    4    4    0    0 -0.59328351755E+01 -0.22754083113E+01  0.42157553337E+00  0.63690584994E+01  0.10566000000E+00 0. -1.
        -13    1    4    4    0    0 -0.23046296427E+02 -0.10219168195E+02  0.48736838907E+01  0.25677366226E+02  0.10566000000E+00 0.  1.
        -14    1    4    4    0    0 -0.76401930126E+01 -0.31659982134E+01  0.12025997718E+01  0.83571729770E+01  0.00000000000E+00 0.  1.
<mgrwt>
<rscale>  0 0.80058261E+02</rscale>
<asrwt>0</asrwt>
<pdfrwt beam="1">  1        1 0.79570190E-02 0.80058261E+02</pdfrwt>
<pdfrwt beam="2">  1       -2 0.47662323E-02 0.80058261E+02</pdfrwt>
<totfact> 0.13200513E+05</totfact>
</mgrwt>
</event>
<event>
 8    1  0.8247621E-018  0.8066134E+02  0.7818608E-02  0.1327185E+00
          1   -1    0    0  501    0  0.00000000000E+00  0.00000000000E+00  0.11443678880E+03  0.11443678891E+03  0.50400000000E-02 0. -1.
         -2   -1    0    0    0  501 -0.00000000000E+00 -0.00000000000E+00 -0.14213635871E+02  0.14213636100E+02  0.25500000000E-02 0.  1.
        -24    2    1    2    0    0  0.00000000000E+00  0.00000000000E+00  0.10022315293E+03  0.12865042501E+03  0.80661338153E+02 0.  0.
         66    2    3    3    0    0  0.31063471400E+02 -0.25563067411E+02  0.46187533633E+02  0.61283749366E+02  0.20000005947E+01 0.  0.
         13    1    3    3    0    0 -0.31063471400E+02  0.25563067411E+02  0.54035619296E+02  0.67366675646E+02  0.10566000000E+00 0. -1.
         13    1    4    4    0    0  0.10071608390E+02 -0.92854720846E+01  0.14999356182E+02  0.20313767186E+02  0.10566000000E+00 0. -1.
        -13    1    4    4    0    0  0.19978320763E+02 -0.15368734430E+02  0.29627779213E+02  0.38899200038E+02  0.10566000000E+00 0.  1.
         14    1    4    4    0    0  0.10135422467E+01 -0.90886089614E+00  0.15603982382E+01  0.20707821412E+01  0.00000000000E+00 0. -1.
<mgrwt>
<rscale>  0 0.80661338E+02</rscale>
<asrwt>0</asrwt>
<pdfrwt beam="1">  1        1 0.17605660E-01 0.80661338E+02</pdfrwt>
<pdfrwt beam="2">  1       -2 0.21867132E-02 0.80661338E+02</pdfrwt>
<totfact> 0.14711639E+05</totfact>
</mgrwt>
</event>
<event>
 8    1  0.8247621E-018  0.7962487E+02  0.7818608E-02  0.1330119E+00
          1   -1    0    0  501    0  0.00000000000E+00  0.00000000000E+00  0.30290180859E+02  0.30290181278E+02  0.50400000000E-02 0. -1.
         -2   -1    0    0    0  501 -0.00000000000E+00 -0.00000000000E+00 -0.52328183440E+02  0.52328183502E+02  0.25500000000E-02 0.  1.
        -24    2    1    2    0    0  0.00000000000E+00  0.00000000000E+00 -0.22038002581E+02  0.82618364781E+02  0.79624874513E+02 0.  0.
         66    2    3    3    0    0 -0.14519303830E+02 -0.26014038851E+02 -0.38389434549E+02  0.48634237714E+02  0.19999979880E+01 0.  0.
         13    1    3    3    0    0  0.14519303830E+02  0.26014038851E+02  0.16351431968E+02  0.33984127067E+02  0.10566000000E+00 0. -1.
         13    1    4    4    0    0 -0.16457775214E+01 -0.28241043660E+01 -0.42007298243E+01  0.53236683041E+01  0.10566000000E+00 0.  1.
        -13    1    4    4    0    0 -0.11531969005E+02 -0.21576457693E+02 -0.30954966358E+02  0.39455683265E+02  0.10566000000E+00 0.  1.
        -14    1    4    4    0    0 -0.13415573043E+01 -0.16134767923E+01 -0.32337383670E+01  0.38548861444E+01  0.00000000000E+00 0.  1.
<mgrwt>
<rscale>  0 0.79624875E+02</rscale>
<asrwt>0</asrwt>
<pdfrwt beam="1">  1        1 0.46600279E-02 0.79624875E+02</pdfrwt>
<pdfrwt beam="2">  1       -2 0.80504898E-02 0.79624875E+02</pdfrwt>
<totfact> 0.12279974E+05</totfact>
</mgrwt>
</event>
<event>
 8    1  0.8247621E-018  0.8124567E+02  0.7818608E-02  0.1325553E+00
          1   -1    0    0  501    0  0.00000000000E+00  0.00000000000E+00  0.21289854252E+01  0.21289913909E+01  0.50400000000E-02 0. -1.
         -2   -1    0    0    0  501 -0.00000000000E+00 -0.00000000000E+00 -0.77511678703E+03  0.77511678704E+03  0.25500000000E-02 0.  1.
        -24    2    1    2    0    0  0.00000000000E+00  0.00000000000E+00 -0.77298780161E+03  0.77724577843E+03  0.81245668499E+02 0.  0.
         66    2    3    3    0    0 -0.63037424147E+01 -0.16835250819E+02 -0.73496354033E+03  0.73518607742E+03  0.19999973974E+01 0.  0.
         13    1    3    3    0    0  0.63037424147E+01  0.16835250819E+02 -0.38024261282E+02  0.42059701005E+02  0.10566000000E+00 0. -1.
         13    1    4    4    0    0 -0.17340155208E+01 -0.48029923492E+01 -0.17969553938E+03  0.17976811058E+03  0.10566000000E+00 0. -1.
        -13    1    4    4    0    0 -0.63961003606E+00 -0.27126761904E+01 -0.11551602414E+03  0.11554968935E+03  0.10566000000E+00 0.  1.
         14    1    4    4    0    0 -0.39301168578E+01 -0.93195822795E+01 -0.43975197681E+03  0.43986827749E+03  0.00000000000E+00 0. -1.
<mgrwt>
<rscale>  0 0.81245668E+02</rscale>
<asrwt>0</asrwt>
<pdfrwt beam="1">  1        1 0.32753730E-03 0.81245668E+02</pdfrwt>
<pdfrwt beam="2">  1       -2 0.11924851E+00 0.81245668E+02</pdfrwt>
<totfact> 0.32962472E+04</totfact>
</mgrwt>
</event>
<event>
 8    1  0.8247621E-018  0.8160328E+02  0.7818608E-02  0.1324562E+00
          1   -1    0    0  501    0  0.00000000000E+00  0.00000000000E+00  0.70935110285E+02  0.70935110464E+02  0.50400000000E-02 0. -1.
         -2   -1    0    0    0  501 -0.00000000000E+00 -0.00000000000E+00 -0.23468966029E+02  0.23468966168E+02  0.25500000000E-02 0.  1.
        -24    2    1    2    0    0  0.00000000000E+00  0.00000000000E+00  0.47466144256E+02  0.94404076632E+02  0.81603277105E+02 0.  0.
         66    2    3    3    0    0  0.26358337134E+02 -0.14280423910E+02 -0.82307268059E+01  0.31151843046E+02  0.20000044642E+01 0.  0.
         13    1    3    3    0    0 -0.26358337134E+02  0.14280423910E+02  0.55696871062E+02  0.63252233586E+02  0.10566000000E+00 0. -1.
         13    1    4    4    0    0  0.15226236726E+01 -0.53231930863E+00 -0.15839910027E+00  0.16241924163E+01  0.10566000000E+00 0. -1.
        -13    1    4    4    0    0  0.16424498234E+02 -0.86561217845E+01 -0.50362418322E+01  0.19237138104E+02  0.10566000000E+00 0.  1.
         14    1    4    4    0    0  0.84112152277E+01 -0.50919828164E+01 -0.30360858734E+01  0.10290512526E+02  0.00000000000E+00 0. -1.
<mgrwt>
<rscale>  0 0.81603277E+02</rscale>
<asrwt>0</asrwt>
<pdfrwt beam="1">  1        1 0.10913094E-01 0.81603277E+02</pdfrwt>
<pdfrwt beam="2">  1       -2 0.36106102E-02 0.81603277E+02</pdfrwt>
<totfact> 0.13164097E+05</totfact>
</mgrwt>
</event>
<event>
 8    1  0.8247621E-018  0.7930748E+02  0.7818608E-02  0.1331028E+00
         -2   -1    0    0    0  501 -0.00000000000E+00  0.00000000000E+00  0.10485159568E+03  0.10485159571E+03  0.25500000000E-02 0.  1.
          1   -1    0    0  501    0  0.00000000000E+00 -0.00000000000E+00 -0.14996614330E+02  0.14996615177E+02  0.50400000000E-02 0. -1.
        -24    2    1    2    0    0  0.00000000000E+00 -0.17763568394E-14  0.89854981351E+02  0.11984821089E+03  0.79307477452E+02 0.  0.
         66    2    3    3    0    0 -0.32342768519E+02 -0.11376985435E+02  0.74987270333E+02  0.82477761761E+02  0.20000000188E+01 0.  0.
         13    1    3    3    0    0  0.32342768519E+02  0.11376985435E+02  0.14867711018E+02  0.37370449128E+02  0.10566000000E+00 0. -1.
         13    1    4    4    0    0 -0.83623801787E+01 -0.35485822003E+01  0.18861881083E+02  0.20935700607E+02  0.10566000000E+00 0.  1.
        -13    1    4    4    0    0 -0.17825729775E+02 -0.54915532428E+01  0.42233784547E+02  0.46169443578E+02  0.10566000000E+00 0. -1.
        -14    1    4    4    0    0 -0.61546585653E+01 -0.23368499921E+01  0.13891604703E+02  0.15372617576E+02  0.00000000000E+00 0.  1.
<mgrwt>
<rscale>  0 0.79307477E+02</rscale>
<asrwt>0</asrwt>
<pdfrwt beam="1">  1        1 0.23071714E-02 0.79307477E+02</pdfrwt>
<pdfrwt beam="2">  1       -2 0.16131015E-01 0.79307477E+02</pdfrwt>
<totfact> 0.10722890E+05</totfact>
</mgrwt>
</event>
<event>
 8    1  0.8247621E-018  0.8038170E+02  0.7818608E-02  0.1327972E+00
          1   -1    0    0  501    0  0.00000000000E+00  0.00000000000E+00  0.64274787273E+02  0.64274787470E+02  0.50400000000E-02 0. -1.
         -2   -1    0    0    0  501 -0.00000000000E+00 -0.00000000000E+00 -0.25131226078E+02  0.25131226207E+02  0.25500000000E-02 0.  1.
        -24    2    1    2    0    0 -0.17763568394E-14  0.00000000000E+00  0.39143561195E+02  0.89406013678E+02  0.80381695047E+02 0.  0.
         66    2    3    3    0    0  0.13511991758E+02  0.22093636377E+02 -0.14564704935E+02  0.29779746779E+02  0.19999996821E+01 0.  0.
         13    1    3    3    0    0 -0.13511991758E+02 -0.22093636377E+02  0.53708266129E+02  0.59626266899E+02  0.10566000000E+00 0. -1.
         13    1    4    4    0    0  0.15261123769E+01  0.35610492608E+01 -0.23075917589E+01  0.45106800581E+01  0.10566000000E+00 0. -1.
        -13    1    4    4    0    0  0.45711696402E+01  0.73608333305E+01 -0.42460067578E+01  0.96497252097E+01  0.10566000000E+00 0.  1.
         14    1    4    4    0    0  0.74147097410E+01  0.11171753786E+02 -0.80111064178E+01  0.15619341511E+02  0.00000000000E+00 0. -1.
<mgrwt>
<rscale>  0 0.80381695E+02</rscale>
<asrwt>0</asrwt>
<pdfrwt beam="1">  1        1 0.98884289E-02 0.80381695E+02</pdfrwt>
<pdfrwt beam="2">  1       -2 0.38663425E-02 0.80381695E+02</pdfrwt>
<totfact> 0.13507428E+05</totfact>
</mgrwt>
</event>
<event>
 8    1  0.8247621E-018  0.8067029E+02  0.7818608E-02  0.1327160E+00
          1   -1    0    0  501    0  0.00000000000E+00  0.00000000000E+00  0.58291323216E+02  0.58291323434E+02  0.50400000000E-02 0. -1.
         -2   -1    0    0    0  501 -0.00000000000E+00 -0.00000000000E+00 -0.27910223881E+02  0.27910223997E+02  0.25500000000E-02 0.  1.
        -24    2    1    2    0    0  0.00000000000E+00  0.35527136788E-14  0.30381099336E+02  0.86201547431E+02  0.80670289343E+02 0.  0.
         66    2    3    3    0    0  0.17962466787E+01  0.30450507098E+02 -0.12959628341E+02  0.33202587779E+02  0.19999959644E+01 0.  0.
         13    1    3    3    0    0 -0.17962466787E+01 -0.30450507098E+02  0.43340727677E+02  0.52998959652E+02  0.10566000000E+00 0. -1.
         13    1    4    4    0    0  0.10964381207E+01  0.13394641161E+02 -0.53432466801E+01  0.14463057681E+02  0.10566000000E+00 0.  1.
        -13    1    4    4    0    0  0.10741790664E+01  0.13850598869E+02 -0.60602137740E+01  0.15156856690E+02  0.10566000000E+00 0. -1.
         14    1    4    4    0    0 -0.37437050833E+00  0.32052670677E+01 -0.15561678868E+01  0.35826734075E+01  0.00000000000E+00 0. -1.
<mgrwt>
<rscale>  0 0.80670289E+02</rscale>
<asrwt>0</asrwt>
<pdfrwt beam="1">  1        1 0.89678959E-02 0.80670289E+02</pdfrwt>
<pdfrwt beam="2">  1       -2 0.42938806E-02 0.80670289E+02</pdfrwt>
<totfact> 0.13170319E+05</totfact>
</mgrwt>
</event>
<event>
 8    1  0.8247621E-018  0.7930465E+02  0.7818608E-02  0.1331036E+00
          1   -1    0    0  501    0  0.00000000000E+00  0.00000000000E+00  0.12561630255E+02  0.12561631266E+02  0.50400000000E-02 0. -1.
         -2   -1    0    0    0  501 -0.00000000000E+00 -0.00000000000E+00 -0.12516741731E+03  0.12516741734E+03  0.25500000000E-02 0.  1.
        -24    2    1    2    0    0 -0.35527136788E-14 -0.35527136788E-14 -0.11260578706E+03  0.13772904860E+03  0.79304650245E+02 0.  0.
         66    2    3    3    0    0 -0.14476211046E+02 -0.27559131578E+02 -0.98922872779E+02  0.10372464114E+03  0.20000004472E+01 0.  0.
         13    1    3    3    0    0  0.14476211046E+02  0.27559131578E+02 -0.13682914277E+02  0.34004407460E+02  0.10566000000E+00 0. -1.
         13    1    4    4    0    0 -0.87711766802E+01 -0.16838764844E+02 -0.58558608756E+02  0.61559721940E+02  0.10566000000E+00 0. -1.
        -13    1    4    4    0    0 -0.49432335495E+01 -0.84078663928E+01 -0.32011031448E+02  0.33464086326E+02  0.10566000000E+00 0.  1.
        -14    1    4    4    0    0 -0.76180081665E+00 -0.23125003412E+01 -0.83532325743E+01  0.87008328769E+01  0.00000000000E+00 0.  1.
<mgrwt>
<rscale>  0 0.79304650E+02</rscale>
<asrwt>0</asrwt>
<pdfrwt beam="1">  1        1 0.19325587E-02 0.79304650E+02</pdfrwt>
<pdfrwt beam="2">  1       -2 0.19256525E-01 0.79304650E+02</pdfrwt>
<totfact> 0.10220301E+05</totfact>
</mgrwt>
</event>
<event>
 8    1  0.8247621E-018  0.8063662E+02  0.7818608E-02  0.1327254E+00
         -2   -1    0    0    0  501 -0.00000000000E+00  0.00000000000E+00  0.40181120944E+03  0.40181120945E+03  0.25500000000E-02 0.  1.
          1   -1    0    0  501    0  0.00000000000E+00 -0.00000000000E+00 -0.40455956241E+01  0.40455987635E+01  0.50400000000E-02 0. -1.
        -24    2    1    2    0    0 -0.35527136788E-14  0.71054273576E-14  0.39776561382E+03  0.40585680821E+03  0.80636624665E+02 0.  0.
         66    2    3    3    0    0  0.12032222470E+02 -0.34349457886E+02  0.28602192929E+03  0.28833522794E+03  0.20000001076E+01 0.  0.
         13    1    3    3    0    0 -0.12032222470E+02  0.34349457886E+02  0.11174368452E+03  0.11752158027E+03  0.10566000000E+00 0. -1.
         13    1    4    4    0    0  0.38395273026E+01 -0.12979075605E+02  0.10951499178E+03  0.11034828029E+03  0.10566000000E+00 0. -1.
        -13    1    4    4    0    0  0.79615516769E+01 -0.20553530303E+02  0.17105942356E+03  0.17247368340E+03  0.10566000000E+00 0.  1.
         14    1    4    4    0    0  0.23114349048E+00 -0.81685197831E+00  0.54475139524E+01  0.55132642535E+01  0.00000000000E+00 0. -1.
<mgrwt>
<rscale>  0 0.80636625E+02</rscale>
<asrwt>0</asrwt>
<pdfrwt beam="1">  1        1 0.62239927E-03 0.80636625E+02</pdfrwt>
<pdfrwt beam="2">  1       -2 0.61817139E-01 0.80636625E+02</pdfrwt>
<totfact> 0.57721708E+04</totfact>
</mgrwt>
</event>
<event>
 8    1  0.8247621E-018  0.8052821E+02  0.7818608E-02  0.1327559E+00
          1   -1    0    0  501    0  0.00000000000E+00  0.00000000000E+00  0.88787696728E+01  0.88787711033E+01  0.50400000000E-02 0. -1.
         -2   -1    0    0    0  501 -0.00000000000E+00 -0.00000000000E+00 -0.18259265748E+03  0.18259265750E+03  0.25500000000E-02 0.  1.
        -24    2    1    2    0    0  0.35527136788E-14  0.88817841970E-15 -0.17371388781E+03  0.19147142860E+03  0.80528213401E+02 0.  0.
         66    2    3    3    0    0  0.26199775735E+02  0.67200356628E+01 -0.15774833495E+03  0.16006287611E+03  0.19999999607E+01 0.  0.
         13    1    3    3    0    0 -0.26199775735E+02 -0.67200356628E+01 -0.15965552859E+02  0.31408552497E+02  0.10566000000E+00 0. -1.
         13    1    4    4    0    0  0.81953596747E+01  0.25458208858E+01 -0.49600239754E+02  0.50337263254E+02  0.10566000000E+00 0. -1.
        -13    1    4    4    0    0  0.82255742002E+01  0.21758681802E+01 -0.45816976009E+02  0.46600439139E+02  0.10566000000E+00 0.  1.
         14    1    4    4    0    0  0.97788418596E+01  0.19983465969E+01 -0.62331119188E+02  0.63125173714E+02  0.00000000000E+00 0. -1.
<mgrwt>
<rscale>  0 0.80528213E+02</rscale>
<asrwt>0</asrwt>
<pdfrwt beam="1">  1        1 0.13659648E-02 0.80528213E+02</pdfrwt>
<pdfrwt beam="2">  1       -2 0.28091175E-01 0.80528213E+02</pdfrwt>
<totfact> 0.86688514E+04</totfact>
</mgrwt>
</event>
<event>
 8    1  0.8247621E-018  0.7706888E+02  0.7818608E-02  0.1337581E+00
         -2   -1    0    0    0  501 -0.00000000000E+00  0.00000000000E+00  0.86442571285E+01  0.86442575046E+01  0.25500000000E-02 0.  1.
          1   -1    0    0  501    0  0.00000000000E+00 -0.00000000000E+00 -0.17177915217E+03  0.17177915224E+03  0.50400000000E-02 0. -1.
        -24    2    1    2    0    0 -0.71054273576E-14  0.00000000000E+00 -0.16313489504E+03  0.18042340975E+03  0.77068883507E+02 0.  0.
         66    2    3    3    0    0 -0.33662079151E+02 -0.68541382599E+01 -0.40886080406E+02  0.53439557909E+02  0.19999986265E+01 0.  0.
         13    1    3    3    0    0  0.33662079151E+02  0.68541382599E+01 -0.12224881463E+03  0.12698385184E+03  0.10566000000E+00 0. -1.
         13    1    4    4    0    0 -0.20545205686E+01 -0.59501146443E+00 -0.32353992249E+01  0.38799569057E+01  0.10566000000E+00 0. -1.
        -13    1    4    4    0    0 -0.59148353093E+01 -0.10232824618E+01 -0.67719041686E+01  0.90499852948E+01  0.10566000000E+00 0.  1.
         14    1    4    4    0    0 -0.25692723273E+02 -0.52358443337E+01 -0.30878777012E+02  0.40509615709E+02  0.00000000000E+00 0. -1.
<mgrwt>
<rscale>  0 0.77068884E+02</rscale>
<asrwt>0</asrwt>
<pdfrwt beam="1">  1        1 0.26427559E-01 0.77068884E+02</pdfrwt>
<pdfrwt beam="2">  1       -2 0.13298859E-02 0.77068884E+02</pdfrwt>
<totfact> 0.17882673E+05</totfact>
</mgrwt>
</event>
<event>
 8    1  0.8247621E-018  0.8458644E+02  0.7818608E-02  0.1316518E+00
         -2   -1    0    0    0  501 -0.00000000000E+00  0.00000000000E+00  0.15657360130E+02  0.15657360338E+02  0.25500000000E-02 0.  1.
          1   -1    0    0  501    0  0.00000000000E+00 -0.00000000000E+00 -0.11424126228E+03  0.11424126239E+03  0.50400000000E-02 0. -1.
        -24    2    1    2    0    0 -0.17763568394E-14  0.00000000000E+00 -0.98583902150E+02  0.12989862273E+03  0.84586443499E+02 0.  0.
         66    2    3    3    0    0  0.13658946646E+02  0.37953484755E+02 -0.29913880009E+02  0.50258074430E+02  0.19999999060E+01 0.  0.
         13    1    3    3    0    0 -0.13658946646E+02 -0.37953484755E+02 -0.68670022141E+02  0.79640548299E+02  0.10566000000E+00 0. -1.
         13    1    4    4    0    0  0.23851631567E+01  0.81242133574E+01 -0.66257340700E+01  0.10751900388E+02  0.10566000000E+00 0. -1.
        -13    1    4    4    0    0  0.72348448276E+01  0.20482793907E+02 -0.16248563966E+02  0.27127750016E+02  0.10566000000E+00 0.  1.
         14    1    4    4    0    0  0.40389386619E+01  0.93464774906E+01 -0.70395819732E+01  0.12378424025E+02  0.00000000000E+00 0. -1.
<mgrwt>
<rscale>  0 0.84586443E+02</rscale>
<asrwt>0</asrwt>
<pdfrwt beam="1">  1        1 0.17575578E-01 0.84586443E+02</pdfrwt>
<pdfrwt beam="2">  1       -2 0.24088247E-02 0.84586443E+02</pdfrwt>
<totfact> 0.12934790E+05</totfact>
</mgrwt>
</event>
<event>
 8    1  0.8247621E-018  0.8014015E+02  0.7818608E-02  0.1328654E+00
          1   -1    0    0  501    0  0.00000000000E+00  0.00000000000E+00  0.43097539770E+03  0.43097539773E+03  0.50400000000E-02 0. -1.
         -2   -1    0    0    0  501 -0.00000000000E+00 -0.00000000000E+00 -0.37255274176E+01  0.37255282903E+01  0.25500000000E-02 0.  1.
        -24    2    1    2    0    0  0.35527136788E-14 -0.71054273576E-14  0.42724987028E+03  0.43470092602E+03  0.80140148653E+02 0.  0.
         66    2    3    3    0    0 -0.12576948455E+02  0.36880658796E+02  0.26383832116E+03  0.26670774707E+03  0.20000012003E+01 0.  0.
         13    1    3    3    0    0  0.12576948455E+02 -0.36880658796E+02  0.16341154912E+03  0.16799317895E+03  0.10566000000E+00 0. -1.
         13    1    4    4    0    0 -0.44397813175E+01  0.11473987650E+02  0.79239395717E+02  0.80188883571E+02  0.10566000000E+00 0. -1.
        -13    1    4    4    0    0 -0.64878559681E+01  0.21302330639E+02  0.15335809059E+03  0.15496643727E+03  0.10566000000E+00 0.  1.
        -14    1    4    4    0    0 -0.16493111696E+01  0.41043405059E+01  0.31240834852E+02  0.31552426224E+02  0.00000000000E+00 0.  1.
<mgrwt>
<rscale>  0 0.80140149E+02</rscale>
<asrwt>0</asrwt>
<pdfrwt beam="1">  1        1 0.66303878E-01 0.80140149E+02</pdfrwt>
<pdfrwt beam="2">  1       -2 0.57315839E-03 0.80140149E+02</pdfrwt>
<totfact> 0.19129807E+05</totfact>
</mgrwt>
</event>
<event>
 8    1  0.8247621E-018  0.8038900E+02  0.7818608E-02  0.1327951E+00
         -2   -1    0    0    0  501 -0.00000000000E+00  0.00000000000E+00  0.55564740759E+02  0.55564740818E+02  0.25500000000E-02 0.  1.
          1   -1    0    0  501    0  0.00000000000E+00 -0.00000000000E+00 -0.29075954724E+02  0.29075955161E+02  0.50400000000E-02 0. -1.
        -24    2    1    2    0    0  0.00000000000E+00 -0.71054273576E-14  0.26488786035E+02  0.84640695978E+02  0.80389001923E+02 0.  0.
         66    2    3    3    0    0  0.21595915380E+02 -0.33171828213E+02  0.20458452545E+02  0.44601592166E+02  0.19999987883E+01 0.  0.
         13    1    3    3    0    0 -0.21595915380E+02  0.33171828213E+02  0.60303334902E+01  0.40039103812E+02  0.10566000000E+00 0. -1.
         13    1    4    4    0    0  0.46216589479E+01 -0.76906250587E+01  0.51739130306E+01  0.10357894830E+02  0.10566000000E+00 0. -1.
        -13    1    4    4    0    0  0.85094444753E+01 -0.11709407553E+02  0.69874371746E+01  0.16073466111E+02  0.10566000000E+00 0.  1.
        -14    1    4    4    0    0  0.84648119568E+01 -0.13771795601E+02  0.82971023395E+01  0.18170231225E+02  0.00000000000E+00 0.  1.
<mgrwt>
<rscale>  0 0.80389002E+02</rscale>
<asrwt>0</asrwt>
<pdfrwt beam="1">  1        1 0.44732239E-02 0.80389002E+02</pdfrwt>
<pdfrwt beam="2">  1       -2 0.85484216E-02 0.80389002E+02</pdfrwt>
<totfact> 0.11860568E+05</totfact>
</mgrwt>
</event>
<event>
 8    1  0.8247621E-018  0.7991486E+02  0.7818608E-02  0.1329293E+00
          1   -1    0    0  501    0  0.00000000000E+00  0.00000000000E+00  0.15965009378E+03  0.15965009386E+03  0.50400000000E-02 0. -1.
         -2   -1    0    0    0  501 -0.00000000000E+00 -0.00000000000E+00 -0.10000596747E+02  0.10000597072E+02  0.25500000000E-02 0.  1.
        -24    2    1    2    0    0  0.00000000000E+00  0.00000000000E+00  0.14964949703E+03  0.16965069093E+03  0.79914860769E+02 0.  0.
         66    2    3    3    0    0 -0.37344863888E+02 -0.12095797740E+02  0.59322962225E+02  0.71162918918E+02  0.20000000235E+01 0.  0.
         13    1    3    3    0    0  0.37344863888E+02  0.12095797740E+02  0.90326534810E+02  0.98487772016E+02  0.10566000000E+00 0. -1.
         13    1    4    4    0    0 -0.12018073765E+02 -0.46499756049E+01  0.19273941326E+02  0.23185175186E+02  0.10566000000E+00 0. -1.
        -13    1    4    4    0    0 -0.99693616826E+01 -0.31255294557E+01  0.15021628578E+02  0.18298021640E+02  0.10566000000E+00 0.  1.
        -14    1    4    4    0    0 -0.15357428440E+02 -0.43202926794E+01  0.25027392320E+02  0.29679722092E+02  0.00000000000E+00 0.  1.
<mgrwt>
<rscale>  0 0.79914861E+02</rscale>
<asrwt>0</asrwt>
<pdfrwt beam="1">  1        1 0.24561551E-01 0.79914861E+02</pdfrwt>
<pdfrwt beam="2">  1       -2 0.15385535E-02 0.79914861E+02</pdfrwt>
<totfact> 0.16017706E+05</totfact>
</mgrwt>
</event>
<event>
 8    1  0.8247621E-018  0.7684003E+02  0.7818608E-02  0.1338266E+00
          1   -1    0    0  501    0  0.00000000000E+00  0.00000000000E+00  0.51722001513E+02  0.51722001759E+02  0.50400000000E-02 0. -1.
         -2   -1    0    0    0  501 -0.00000000000E+00 -0.00000000000E+00 -0.28539066234E+02  0.28539066348E+02  0.25500000000E-02 0.  1.
        -24    2    1    2    0    0 -0.35527136788E-14  0.00000000000E+00  0.23182935279E+02  0.80261068107E+02  0.76840032310E+02 0.  0.
         66    2    3    3    0    0 -0.21142226848E+02  0.31412283953E+02  0.49628963388E+01  0.38240759656E+02  0.20000049379E+01 0.  0.
         13    1    3    3    0    0  0.21142226848E+02 -0.31412283953E+02  0.18220038940E+02  0.42020308451E+02  0.10566000000E+00 0. -1.
         13    1    4    4    0    0 -0.63554069912E+01  0.98707425776E+01  0.84909843136E+00  0.11770934085E+02  0.10566000000E+00 0. -1.
        -13    1    4    4    0    0 -0.34794527724E+01  0.45749687797E+01  0.59924611392E+00  0.57798954032E+01  0.10566000000E+00 0.  1.
         14    1    4    4    0    0 -0.11307367084E+02  0.16966572596E+02  0.35145517935E+01  0.20689930168E+02  0.00000000000E+00 0. -1.
<mgrwt>
<rscale>  0 0.76840032E+02</rscale>
<asrwt>0</asrwt>
<pdfrwt beam="1">  1        1 0.79572309E-02 0.76840032E+02</pdfrwt>
<pdfrwt beam="2">  1       -2 0.43906257E-02 0.76840032E+02</pdfrwt>
<totfact> 0.14787912E+05</totfact>
</mgrwt>
</event>
<event>
 8    1  0.8247621E-018  0.7990662E+02  0.7818608E-02  0.1329317E+00
          1   -1    0    0  501    0  0.00000000000E+00  0.00000000000E+00  0.10644630727E+02  0.10644631920E+02  0.50400000000E-02 0. -1.
         -2   -1    0    0    0  501 -0.00000000000E+00 -0.00000000000E+00 -0.14995981970E+03  0.14995981972E+03  0.25500000000E-02 0.  1.
        -24    2    1    2    0    0 -0.44408920985E-15  0.00000000000E+00 -0.13931518897E+03  0.16060445164E+03  0.79906620554E+02 0.  0.
         66    2    3    3    0    0 -0.18572367733E+01 -0.20489057544E+02 -0.13848002958E+03  0.14001417572E+03  0.20000006124E+01 0.  0.
         13    1    3    3    0    0  0.18572367733E+01  0.20489057544E+02 -0.83515939787E+00  0.20590275926E+02  0.10566000000E+00 0. -1.
         13    1    4    4    0    0  0.40861426953E+00 -0.26901252809E+01 -0.18030008870E+02  0.18234476235E+02  0.10566000000E+00 0. -1.
        -13    1    4    4    0    0 -0.19297673938E+01 -0.15779597573E+02 -0.10609437711E+03  0.10727883165E+03  0.10566000000E+00 0.  1.
         14    1    4    4    0    0 -0.33608364909E+00 -0.20193346898E+01 -0.14355643599E+02  0.14500867835E+02  0.00000000000E+00 0. -1.
<mgrwt>
<rscale>  0 0.79906621E+02</rscale>
<asrwt>0</asrwt>
<pdfrwt beam="1">  1        1 0.16376357E-02 0.79906621E+02</pdfrwt>
<pdfrwt beam="2">  1       -2 0.23070740E-01 0.79906621E+02</pdfrwt>
<totfact> 0.94803097E+04</totfact>
</mgrwt>
</event>
<event>
 8    1  0.8247621E-018  0.7944099E+02  0.7818608E-02  0.1330645E+00
         -2   -1    0    0    0  501 -0.00000000000E+00  0.00000000000E+00  0.94241152336E+01  0.94241155786E+01  0.25500000000E-02 0.  1.
          1   -1    0    0  501    0  0.00000000000E+00 -0.00000000000E+00 -0.16741280265E+03  0.16741280272E+03  0.50400000000E-02 0. -1.
        -24    2    1    2    0    0  0.35527136788E-14  0.35527136788E-14 -0.15798868741E+03  0.17683691830E+03  0.79440986422E+02 0.  0.
         66    2    3    3    0    0 -0.25395052369E+02 -0.28874664569E+02 -0.10097450843E+03  0.10806713782E+03  0.19999960763E+01 0.  0.
         13    1    3    3    0    0  0.25395052369E+02  0.28874664569E+02 -0.57014178982E+02  0.68769780484E+02  0.10566000000E+00 0. -1.
         13    1    4    4    0    0 -0.89393363215E+01 -0.94946755675E+01 -0.33540458809E+02  0.35986582766E+02  0.10566000000E+00 0. -1.
        -13    1    4    4    0    0 -0.43686204578E+01 -0.47637570255E+01 -0.15662066217E+02  0.16943721785E+02  0.10566000000E+00 0.  1.
        -14    1    4    4    0    0 -0.12087095590E+02 -0.14616231976E+02 -0.51771983404E+02  0.55136833265E+02  0.00000000000E+00 0.  1.
<mgrwt>
<rscale>  0 0.79440986E+02</rscale>
<asrwt>0</asrwt>
<pdfrwt beam="1">  1        1 0.25755814E-01 0.79440986E+02</pdfrwt>
<pdfrwt beam="2">  1       -2 0.14498640E-02 0.79440986E+02</pdfrwt>
<totfact> 0.16419041E+05</totfact>
</mgrwt>
</event>
<event>
 8    1  0.8247621E-018  0.8396487E+02  0.7818608E-02  0.1318162E+00
          1   -1    0    0  501    0  0.00000000000E+00  0.00000000000E+00  0.94926221826E+02  0.94926221960E+02  0.50400000000E-02 0. -1.
         -2   -1    0    0    0  501 -0.00000000000E+00 -0.00000000000E+00 -0.18567313560E+02  0.18567313735E+02  0.25500000000E-02 0.  1.
        -24    2    1    2    0    0 -0.71054273576E-14  0.35527136788E-14  0.76358908266E+02  0.11349353570E+03  0.83964872257E+02 0.  0.
         66    2    3    3    0    0 -0.33094886761E+02  0.25716732848E+02  0.35532370985E+02  0.54983372574E+02  0.19999984449E+01 0.  0.
         13    1    3    3    0    0  0.33094886761E+02 -0.25716732848E+02  0.40826537281E+02  0.58510163121E+02  0.10566000000E+00 0. -1.
         13    1    4    4    0    0 -0.79030731597E+01  0.60503993234E+01  0.87312115698E+01  0.13240510445E+02  0.10566000000E+00 0.  1.
        -13    1    4    4    0    0 -0.15724026194E+02  0.12007425358E+02  0.15567240153E+02  0.25174856374E+02  0.10566000000E+00 0.  1.
        -14    1    4    4    0    0 -0.94677874071E+01  0.76589081668E+01  0.11233919262E+02  0.16568005755E+02  0.00000000000E+00 0.  1.
<mgrwt>
<rscale>  0 0.83964872E+02</rscale>
<asrwt>0</asrwt>
<pdfrwt beam="1">  1        1 0.14604034E-01 0.83964872E+02</pdfrwt>
<pdfrwt beam="2">  1       -2 0.28565098E-02 0.83964872E+02</pdfrwt>
<totfact> 0.12777653E+05</totfact>
</mgrwt>
</event>
<event>
 8    1  0.8247621E-018  0.8135259E+02  0.7818608E-02  0.1325256E+00
          1   -1    0    0  501    0  0.00000000000E+00  0.00000000000E+00  0.17412345677E+03  0.17412345684E+03  0.50400000000E-02 0. -1.
         -2   -1    0    0    0  501 -0.00000000000E+00 -0.00000000000E+00 -0.95022295676E+01  0.95022299097E+01  0.25500000000E-02 0.  1.
        -24    2    1    2    0    0  0.00000000000E+00  0.35527136788E-14  0.16462122720E+03  0.18362568675E+03  0.81352593011E+02 0.  0.
         66    2    3    3    0    0  0.33228112940E+02  0.20114256014E+02  0.55286990417E+02  0.67596908934E+02  0.20000008916E+01 0.  0.
         13    1    3    3    0    0 -0.33228112940E+02 -0.20114256014E+02  0.10933423678E+03  0.11602877781E+03  0.10566000000E+00 0. -1.
         13    1    4    4    0    0  0.97696208029E+01  0.67388577194E+01  0.16420790707E+02  0.20261076612E+02  0.10566000000E+00 0. -1.
        -13    1    4    4    0    0  0.12016240645E+02  0.73788238810E+01  0.20121391181E+02  0.24570686360E+02  0.10566000000E+00 0.  1.
         14    1    4    4    0    0  0.11442251492E+02  0.59965744132E+01  0.18744808529E+02  0.22765145962E+02  0.00000000000E+00 0. -1.
<mgrwt>
<rscale>  0 0.81352593E+02</rscale>
<asrwt>0</asrwt>
<pdfrwt beam="1">  1        1 0.26788224E-01 0.81352593E+02</pdfrwt>
<pdfrwt beam="2">  1       -2 0.14618815E-02 0.81352593E+02</pdfrwt>
<totfact> 0.15525725E+05</totfact>
</mgrwt>
</event>
<event>
 8    1  0.9889961E-018  0.7925573E+02  0.7818608E-02  0.1331177E+00
          1   -1    0    0  501    0  0.00000000000E+00  0.00000000000E+00  0.35153504620E+02  0.35153504981E+02  0.50400000000E-02 0. -1.
         -2   -1    0    0    0  501 -0.00000000000E+00 -0.00000000000E+00 -0.44671728656E+02  0.44671728729E+02  0.25500000000E-02 0.  1.
        -24    2    1    2    0    0  0.00000000000E+00  0.35527136788E-14 -0.95182240367E+01  0.79825233710E+02  0.79255733850E+02 0.  0.
         66    2    3    3    0    0 -0.73591728602E+01 -0.23018996044E+02 -0.36361629836E+02  0.43705831680E+02  0.19999986287E+01 0.  0.
         13    1    3    3    0    0  0.73591728602E+01  0.23018996044E+02  0.26843405799E+02  0.36119402030E+02  0.10566000000E+00 0. -1.
         13    1    4    4    0    0 -0.27026106088E+00 -0.22796616923E+01 -0.34234940012E+01  0.41232722059E+01  0.10566000000E+00 0. -1.
        -13    1    4    4    0    0 -0.14639669932E+01 -0.43206411275E+01 -0.60093161511E+01  0.75454743886E+01  0.10566000000E+00 0.  1.
        -14    1    4    4    0    0 -0.56249448061E+01 -0.16418693224E+02 -0.26928819684E+02  0.32037085086E+02  0.00000000000E+00 0.  1.
<mgrwt>
<rscale>  0 0.79255734E+02</rscale>
<asrwt>0</asrwt>
<pdfrwt beam="1">  1        1 0.54082315E-02 0.79255734E+02</pdfrwt>
<pdfrwt beam="2">  1       -2 0.68725737E-02 0.79255734E+02</pdfrwt>
<totfact> 0.12763873E+05</totfact>
</mgrwt>
</event>
<event>
 8    1  0.8247621E-018  0.8075230E+02  0.7818608E-02  0.1326930E+00
          1   -1    0    0  501    0  0.00000000000E+00  0.00000000000E+00  0.28799902761E+02  0.28799903202E+02  0.50400000000E-02 0. -1.
         -2   -1    0    0    0  501 -0.00000000000E+00 -0.00000000000E+00 -0.56605519175E+02  0.56605519233E+02  0.25500000000E-02 0.  1.
        -24    2    1    2    0    0  0.00000000000E+00  0.00000000000E+00 -0.27805616415E+02  0.85405422435E+02  0.80752299516E+02 0.  0.
         66    2    3    3    0    0  0.24129031186E+02  0.32217520892E+02 -0.16911996960E+02  0.43705771270E+02  0.20000006826E+01 0.  0.
         13    1    3    3    0    0 -0.24129031186E+02 -0.32217520892E+02 -0.10893619455E+02  0.41699651165E+02  0.10566000000E+00 0. -1.
         13    1    4    4    0    0  0.87258540759E+00  0.13462873110E+01 -0.99532158229E+00  0.18909584620E+01  0.10566000000E+00 0. -1.
        -13    1    4    4    0    0  0.18970816662E+02  0.25451835667E+02 -0.13492702866E+02  0.34492782119E+02  0.10566000000E+00 0.  1.
        -14    1    4    4    0    0  0.42856291161E+01  0.54193979137E+01 -0.24239725121E+01  0.73220306888E+01  0.00000000000E+00 0.  1.
<mgrwt>
<rscale>  0 0.80752300E+02</rscale>
<asrwt>0</asrwt>
<pdfrwt beam="1">  1        1 0.44307543E-02 0.80752300E+02</pdfrwt>
<pdfrwt beam="2">  1       -2 0.87085414E-02 0.80752300E+02</pdfrwt>
<totfact> 0.11686963E+05</totfact>
</mgrwt>
</event>
<event>
 8    1  0.8247621E-018  0.7929381E+02  0.7818608E-02  0.1331068E+00
         -2   -1    0    0    0  501 -0.00000000000E+00  0.00000000000E+00  0.16445349665E+02  0.16445349863E+02  0.25500000000E-02 0.  1.
          1   -1    0    0  501    0  0.00000000000E+00 -0.00000000000E+00 -0.95581850862E+02  0.95581850995E+02  0.50400000000E-02 0. -1.
        -24    2    1    2    0    0  0.00000000000E+00  0.00000000000E+00 -0.79136501197E+02  0.11202720086E+03  0.79293807515E+02 0.  0.
         66    2    3    3    0    0  0.18106150706E+02  0.30774952173E+02 -0.15329918843E+02  0.38909340588E+02  0.19999996399E+01 0.  0.
         13    1    3    3    0    0 -0.18106150706E+02 -0.30774952173E+02 -0.63806582354E+02  0.73117860269E+02  0.10566000000E+00 0. -1.
         13    1    4    4    0    0  0.41617572538E+00  0.70562704221E+00 -0.88270550756E-01  0.83070300518E+00  0.10566000000E+00 0. -1.
        -13    1    4    4    0    0  0.16759791090E+01  0.30838666982E+01 -0.13534462666E+01  0.37632593078E+01  0.10566000000E+00 0.  1.
         14    1    4    4    0    0  0.16013995872E+02  0.26985458433E+02 -0.13888202026E+02  0.34315378275E+02  0.00000000000E+00 0. -1.
<mgrwt>
<rscale>  0 0.79293808E+02</rscale>
<asrwt>0</asrwt>
<pdfrwt beam="1">  1        1 0.14704900E-01 0.79293808E+02</pdfrwt>
<pdfrwt beam="2">  1       -2 0.25300539E-02 0.79293808E+02</pdfrwt>
<totfact> 0.14942471E+05</totfact>
</mgrwt>
</event>
<event>
 8    1  0.8247621E-018  0.7781428E+02  0.7818608E-02  0.1335371E+00
          1   -1    0    0  501    0  0.00000000000E+00  0.00000000000E+00  0.60694341697E+02  0.60694341906E+02  0.50400000000E-02 0. -1.
         -2   -1    0    0    0  501 -0.00000000000E+00 -0.00000000000E+00 -0.24940803121E+02  0.24940803252E+02  0.25500000000E-02 0.  1.
        -24    2    1    2    0    0  0.17763568394E-14  0.00000000000E+00  0.35753538576E+02  0.85635145158E+02  0.77814282529E+02 0.  0.
         66    2    3    3    0    0 -0.10044939220E+02  0.99409406521E+01 -0.21974076352E+02  0.26202731491E+02  0.20000002701E+01 0.  0.
         13    1    3    3    0    0  0.10044939220E+02 -0.99409406521E+01  0.57727614928E+02  0.59432413667E+02  0.10566000000E+00 0. -1.
         13    1    4    4    0    0 -0.83770993796E+00  0.77583686753E+00 -0.13455375034E+01  0.17678563273E+01  0.10566000000E+00 0. -1.
        -13    1    4    4    0    0 -0.39693406713E+01  0.41680900353E+01 -0.76517077189E+01  0.95754078220E+01  0.10566000000E+00 0.  1.
         14    1    4    4    0    0 -0.52378886111E+01  0.49970137492E+01 -0.12976831130E+02  0.14859467342E+02  0.00000000000E+00 0. -1.
<mgrwt>
<rscale>  0 0.77814283E+02</rscale>
<asrwt>0</asrwt>
<pdfrwt beam="1">  1        1 0.93375911E-02 0.77814283E+02</pdfrwt>
<pdfrwt beam="2">  1       -2 0.38370467E-02 0.77814283E+02</pdfrwt>
<totfact> 0.14636036E+05</totfact>
</mgrwt>
</event>
<event>
 8    1  0.8247621E-018  0.7248451E+02  0.7818608E-02  0.1351843E+00
          1   -1    0    0  501    0  0.00000000000E+00  0.00000000000E+00  0.89285486675E+02  0.89285486818E+02  0.50400000000E-02 0. -1.
         -2   -1    0    0    0  501 -0.00000000000E+00 -0.00000000000E+00 -0.14711248671E+02  0.14711248892E+02  0.25500000000E-02 0.  1.
        -24    2    1    2    0    0  0.00000000000E+00  0.00000000000E+00  0.74574238005E+02  0.10399673571E+03  0.72484509133E+02 0.  0.
         66    2    3    3    0    0  0.18823593452E+02  0.30279720563E+02  0.46424307213E+02  0.58569663215E+02  0.20000002657E+01 0.  0.
         13    1    3    3    0    0 -0.18823593452E+02 -0.30279720563E+02  0.28149930791E+02  0.45427072494E+02  0.10566000000E+00 0. -1.
         13    1    4    4    0    0  0.16178975440E+01  0.33250720306E+01  0.46934067758E+01  0.59760294235E+01  0.10566000000E+00 0. -1.
        -13    1    4    4    0    0  0.70844574729E+01  0.12393956712E+02  0.18780006232E+02  0.23590241601E+02  0.10566000000E+00 0.  1.
         14    1    4    4    0    0  0.10121238435E+02  0.14560691820E+02  0.22950894205E+02  0.29003392191E+02  0.00000000000E+00 0. -1.
<mgrwt>
<rscale>  0 0.72484509E+02</rscale>
<asrwt>0</asrwt>
<pdfrwt beam="1">  1        1 0.13736229E-01 0.72484509E+02</pdfrwt>
<pdfrwt beam="2">  1       -2 0.22632690E-02 0.72484509E+02</pdfrwt>
<totfact> 0.18813419E+05</totfact>
</mgrwt>
</event>
<event>
 8    1  0.8247621E-018  0.7906228E+02  0.7818608E-02  0.1331734E+00
         -2   -1    0    0    0  501 -0.00000000000E+00  0.00000000000E+00  0.46023946702E+01  0.46023953766E+01  0.25500000000E-02 0.  1.
          1   -1    0    0  501    0  0.00000000000E+00 -0.00000000000E+00 -0.33954299679E+03  0.33954299682E+03  0.50400000000E-02 0. -1.
        -24    2    1    2    0    0  0.71054273576E-14  0.00000000000E+00 -0.33494060211E+03  0.34414539220E+03  0.79062279418E+02 0.  0.
         66    2    3    3    0    0 -0.32428166663E+02  0.18868566948E+02 -0.11371841234E+03  0.11976429401E+03  0.20000007027E+01 0.  0.
         13    1    3    3    0    0  0.32428166663E+02 -0.18868566948E+02 -0.22122218978E+03  0.22438109819E+03  0.10566000000E+00 0. -1.
         13    1    4    4    0    0 -0.44602175197E+00  0.29994523640E+00 -0.19837942943E+01  0.20580345930E+01  0.10566000000E+00 0.  1.
        -13    1    4    4    0    0 -0.30192195308E+02  0.17888815217E+02 -0.10643141745E+03  0.11206799789E+03  0.10566000000E+00 0.  1.
         14    1    4    4    0    0 -0.17899496028E+01  0.67980649422E+00 -0.53032005924E+01  0.56382615205E+01  0.00000000000E+00 0. -1.
<mgrwt>
<rscale>  0 0.79062279E+02</rscale>
<asrwt>0</asrwt>
<pdfrwt beam="1">  1        1 0.52237365E-01 0.79062279E+02</pdfrwt>
<pdfrwt beam="2">  1       -2 0.70806104E-03 0.79062279E+02</pdfrwt>
<totfact> 0.19043875E+05</totfact>
</mgrwt>
</event>
<event>
 8    1  0.8247621E-018  0.7594861E+02  0.7818608E-02  0.1340958E+00
          1   -1    0    0  501    0  0.00000000000E+00  0.00000000000E+00  0.46611327262E+02  0.46611327535E+02  0.50400000000E-02 0. -1.
         -2   -1    0    0    0  501 -0.00000000000E+00 -0.00000000000E+00 -0.30937710222E+02  0.30937710327E+02  0.25500000000E-02 0.  1.
        -24    2    1    2    0    0  0.00000000000E+00 -0.35527136788E-14  0.15673617040E+02  0.77549037862E+02  0.75948607638E+02 0.  0.
         66    2    3    3    0    0  0.17486850140E+02 -0.29526461899E+02 -0.86991780641E+01  0.35458110273E+02  0.20000012638E+01 0.  0.
         13    1    3    3    0    0 -0.17486850140E+02  0.29526461899E+02  0.24372795104E+02  0.42090927589E+02  0.10566000000E+00 0. -1.
         13    1    4    4    0    0  0.38913834551E+01 -0.64631282170E+01 -0.20418672974E+01  0.78163468219E+01  0.10566000000E+00 0.  1.
        -13    1    4    4    0    0  0.13500238837E+02 -0.23072708735E+02 -0.66377584028E+01  0.27544098055E+02  0.10566000000E+00 0.  1.
        -14    1    4    4    0    0  0.95227847893E-01  0.93750530308E-02 -0.19552363914E-01  0.97665395961E-01  0.00000000000E+00 0.  1.
<mgrwt>
<rscale>  0 0.75948608E+02</rscale>
<asrwt>0</asrwt>
<pdfrwt beam="1">  1        1 0.71709734E-02 0.75948608E+02</pdfrwt>
<pdfrwt beam="2">  1       -2 0.47596478E-02 0.75948608E+02</pdfrwt>
<totfact> 0.15034421E+05</totfact>
</mgrwt>
</event>
<event>
 8    1  0.8247621E-018  0.7925419E+02  0.7818608E-02  0.1331181E+00
         -2   -1    0    0    0  501 -0.00000000000E+00  0.00000000000E+00  0.13428911546E+02  0.13428911788E+02  0.25500000000E-02 0.  1.
          1   -1    0    0  501    0  0.00000000000E+00 -0.00000000000E+00 -0.11693477752E+03  0.11693477763E+03  0.50400000000E-02 0. -1.
        -24    2    1    2    0    0  0.00000000000E+00  0.00000000000E+00 -0.10350586597E+03  0.13036368941E+03  0.79254193751E+02 0.  0.
         66    2    3    3    0    0 -0.23345922295E+02 -0.91644833351E+01 -0.13739761749E+01  0.25197373894E+02  0.19999995093E+01 0.  0.
         13    1    3    3    0    0  0.23345922295E+02  0.91644833351E+01 -0.10213188980E+03  0.10516631552E+03  0.10566000000E+00 0. -1.
         13    1    4    4    0    0 -0.42278959123E+01 -0.15571057247E+01  0.11725625333E+00  0.45082807308E+01  0.10566000000E+00 0.  1.
        -13    1    4    4    0    0 -0.45157458273E+01 -0.15865895368E+01  0.27740537239E+00  0.47955546615E+01  0.10566000000E+00 0. -1.
         14    1    4    4    0    0 -0.14602280555E+02 -0.60207880736E+01 -0.17686378006E+01  0.15893538502E+02  0.00000000000E+00 0. -1.
<mgrwt>
<rscale>  0 0.79254194E+02</rscale>
<asrwt>0</asrwt>
<pdfrwt beam="1">  1        1 0.17989965E-01 0.79254194E+02</pdfrwt>
<pdfrwt beam="2">  1       -2 0.20659865E-02 0.79254194E+02</pdfrwt>
<totfact> 0.15482982E+05</totfact>
</mgrwt>
</event>
<event>
 8    1  0.8247621E-018  0.7913912E+02  0.7818608E-02  0.1331512E+00
         -2   -1    0    0    0  501 -0.00000000000E+00  0.00000000000E+00  0.87458396325E+01  0.87458400043E+01  0.25500000000E-02 0.  1.
          1   -1    0    0  501    0  0.00000000000E+00 -0.00000000000E+00 -0.17902799634E+03  0.17902799641E+03  0.50400000000E-02 0. -1.
        -24    2    1    2    0    0  0.00000000000E+00  0.00000000000E+00 -0.17028215671E+03  0.18777383641E+03  0.79139122746E+02 0.  0.
         66    2    3    3    0    0 -0.30926194647E+02 -0.23324752239E+02 -0.66321973421E+02  0.76831488976E+02  0.19999893425E+01 0.  0.
         13    1    3    3    0    0  0.30926194647E+02  0.23324752239E+02 -0.10396018328E+03  0.11094234744E+03  0.10566000000E+00 0. -1.
         13    1    4    4    0    0 -0.11386164370E+02 -0.96543181258E+01 -0.24873000339E+02  0.29009100425E+02  0.10566000000E+00 0. -1.
        -13    1    4    4    0    0 -0.14814328849E+02 -0.10590527665E+02 -0.31428189300E+02  0.36323076166E+02  0.10566000000E+00 0.  1.
         14    1    4    4    0    0 -0.47257014281E+01 -0.30799064489E+01 -0.10020783782E+02  0.11499312385E+02  0.00000000000E+00 0. -1.
<mgrwt>
<rscale>  0 0.79139123E+02</rscale>
<asrwt>0</asrwt>
<pdfrwt beam="1">  1        1 0.27542766E-01 0.79139123E+02</pdfrwt>
<pdfrwt beam="2">  1       -2 0.13455140E-02 0.79139123E+02</pdfrwt>
<totfact> 0.16797907E+05</totfact>
</mgrwt>
</event>
<event>
 8    1  0.8247621E-018  0.8174596E+02  0.7818608E-02  0.1324168E+00
          1   -1    0    0  501    0  0.00000000000E+00  0.00000000000E+00  0.10779319411E+03  0.10779319423E+03  0.50400000000E-02 0. -1.
         -2   -1    0    0    0  501 -0.00000000000E+00 -0.00000000000E+00 -0.15498198113E+02  0.15498198322E+02  0.25500000000E-02 0.  1.
        -24    2    1    2    0    0  0.00000000000E+00  0.00000000000E+00  0.92294996001E+02  0.12329139255E+03  0.81745955197E+02 0.  0.
         66    2    3    3    0    0  0.52652779108E+01 -0.21818341864E+02 -0.53001689016E+01  0.23148541738E+02  0.20000002545E+01 0.  0.
         13    1    3    3    0    0 -0.52652779108E+01  0.21818341864E+02  0.97595164903E+02  0.10014285082E+03  0.10566000000E+00 0. -1.
         13    1    4    4    0    0  0.12345788752E+01 -0.53912924876E+01 -0.10083408775E+01  0.56230005377E+01  0.10566000000E+00 0. -1.
        -13    1    4    4    0    0  0.68857513780E+00 -0.36171610791E+01 -0.15992030156E+01  0.40157943564E+01  0.10566000000E+00 0.  1.
        -14    1    4    4    0    0  0.33421238978E+01 -0.12809888298E+02 -0.26926250085E+01  0.13509746844E+02  0.00000000000E+00 0.  1.
<mgrwt>
<rscale>  0 0.81745955E+02</rscale>
<asrwt>0</asrwt>
<pdfrwt beam="1">  1        1 0.16583568E-01 0.81745955E+02</pdfrwt>
<pdfrwt beam="2">  1       -2 0.23843383E-02 0.81745955E+02</pdfrwt>
<totfact> 0.14044327E+05</totfact>
</mgrwt>
</event>
<event>
 8    1  0.8247621E-018  0.7943384E+02  0.7818608E-02  0.1330666E+00
         -2   -1    0    0    0  501 -0.00000000000E+00  0.00000000000E+00  0.79756543132E+01  0.79756547209E+01  0.25500000000E-02 0.  1.
          1   -1    0    0  501    0  0.00000000000E+00 -0.00000000000E+00 -0.19778108424E+03  0.19778108431E+03  0.50400000000E-02 0. -1.
        -24    2    1    2    0    0 -0.35527136788E-14  0.00000000000E+00 -0.18980542993E+03  0.20575673903E+03  0.79433836774E+02 0.  0.
         66    2    3    3    0    0  0.28373947554E+02 -0.15991475989E+02 -0.36201321228E+02  0.48737499512E+02  0.19999989702E+01 0.  0.
         13    1    3    3    0    0 -0.28373947554E+02  0.15991475989E+02 -0.15360410870E+03  0.15701923951E+03  0.10566000000E+00 0. -1.
         13    1    4    4    0    0  0.18602441511E+01 -0.80528169359E+00 -0.28181809424E+01  0.34730814513E+01  0.10566000000E+00 0. -1.
        -13    1    4    4    0    0  0.97164007487E+01 -0.60447032804E+01 -0.12311798900E+02  0.16808879720E+02  0.10566000000E+00 0.  1.
        -14    1    4    4    0    0  0.16797302655E+02 -0.91414910155E+01 -0.21071341386E+02  0.28455538340E+02  0.00000000000E+00 0.  1.
<mgrwt>
<rscale>  0 0.79433837E+02</rscale>
<asrwt>0</asrwt>
<pdfrwt beam="1">  1        1 0.30427856E-01 0.79433837E+02</pdfrwt>
<pdfrwt beam="2">  1       -2 0.12270239E-02 0.79433837E+02</pdfrwt>
<totfact> 0.16954532E+05</totfact>
</mgrwt>
</event>
<event>
 8    1  0.8247621E-018  0.8368094E+02  0.7818608E-02  0.1318918E+00
         -2   -1    0    0    0  501 -0.00000000000E+00  0.00000000000E+00  0.10245401539E+03  0.10245401543E+03  0.25500000000E-02 0.  1.
          1   -1    0    0  501    0  0.00000000000E+00 -0.00000000000E+00 -0.17086933543E+02  0.17086934286E+02  0.50400000000E-02 0. -1.
        -24    2    1    2    0    0  0.00000000000E+00  0.00000000000E+00  0.85367081852E+02  0.11954094971E+03  0.83680941642E+02 0.  0.
         66    2    3    3    0    0  0.82107157754E+01 -0.14165759022E+02  0.97674539015E+02  0.99057560147E+02  0.20000170668E+01 0.  0.
         13    1    3    3    0    0 -0.82107157754E+01  0.14165759022E+02 -0.12307457163E+02  0.20483389565E+02  0.10566000000E+00 0. -1.
         13    1    4    4    0    0  0.44538594773E+01 -0.77530238163E+01  0.58139830794E+02  0.58823442022E+02  0.10566000000E+00 0.  1.
        -13    1    4    4    0    0  0.17351359138E+01 -0.33546348575E+01  0.18416274094E+02  0.18799856042E+02  0.10566000000E+00 0. -1.
         14    1    4    4    0    0  0.20217203844E+01 -0.30581003487E+01  0.21118434127E+02  0.21434262083E+02  0.00000000000E+00 0. -1.
<mgrwt>
<rscale>  0 0.83680942E+02</rscale>
<asrwt>0</asrwt>
<pdfrwt beam="1">  1        1 0.26287590E-02 0.83680942E+02</pdfrwt>
<pdfrwt beam="2">  1       -2 0.15762157E-01 0.83680942E+02</pdfrwt>
<totfact> 0.93999663E+04</totfact>
</mgrwt>
</event>
<event>
 8    1  0.8247621E-018  0.7746002E+02  0.7818608E-02  0.1336418E+00
          1   -1    0    0  501    0  0.00000000000E+00  0.00000000000E+00  0.37329820535E+03  0.37329820538E+03  0.50400000000E-02 0. -1.
         -2   -1    0    0    0  501 -0.00000000000E+00 -0.00000000000E+00 -0.40182713746E+01  0.40182721837E+01  0.25500000000E-02 0.  1.
        -24    2    1    2    0    0  0.00000000000E+00  0.00000000000E+00  0.36927993397E+03  0.37731647756E+03  0.77460019411E+02 0.  0.
         66    2    3    3    0    0  0.33971342845E+02 -0.11867774539E+02  0.25418462013E+03  0.25672693141E+03  0.19999994812E+01 0.  0.
         13    1    3    3    0    0 -0.33971342845E+02  0.11867774539E+02  0.11509531384E+03  0.12058954615E+03  0.10566000000E+00 0. -1.
         13    1    4    4    0    0  0.14830391608E+02 -0.56826527937E+01  0.10959722928E+03  0.11074202856E+03  0.10566000000E+00 0. -1.
        -13    1    4    4    0    0  0.11132151514E+02 -0.36935388820E+01  0.88478093685E+02  0.89252177861E+02  0.10566000000E+00 0.  1.
        -14    1    4    4    0    0  0.80087997229E+01 -0.24915828630E+01  0.56109297158E+02  0.56732724998E+02  0.00000000000E+00 0.  1.
<mgrwt>
<rscale>  0 0.77460019E+02</rscale>
<asrwt>0</asrwt>
<pdfrwt beam="1">  1        1 0.57430494E-01 0.77460019E+02</pdfrwt>
<pdfrwt beam="2">  1       -2 0.61819566E-03 0.77460019E+02</pdfrwt>
<totfact> 0.20432551E+05</totfact>
</mgrwt>
</event>
<event>
 8    1  0.8247621E-018  0.7856625E+02  0.7818608E-02  0.1333170E+00
         -2   -1    0    0    0  501 -0.00000000000E+00  0.00000000000E+00  0.63641029582E+02  0.63641029634E+02  0.25500000000E-02 0.  1.
          1   -1    0    0  501    0  0.00000000000E+00 -0.00000000000E+00 -0.24247942163E+02  0.24247942687E+02  0.50400000000E-02 0. -1.
        -24    2    1    2    0    0  0.00000000000E+00  0.00000000000E+00  0.39393087419E+02  0.87888972321E+02  0.78566253055E+02 0.  0.
         66    2    3    3    0    0  0.38396775984E+02 -0.24349904654E+01  0.28440380865E+02  0.47886290792E+02  0.19999993826E+01 0.  0.
         13    1    3    3    0    0 -0.38396775984E+02  0.24349904654E+01  0.10952706554E+02  0.40002681528E+02  0.10566000000E+00 0. -1.
         13    1    4    4    0    0  0.50078577938E+01  0.17836422916E+00  0.38582565757E+01  0.63251688769E+01  0.10566000000E+00 0. -1.
        -13    1    4    4    0    0  0.21213937229E+02 -0.10930130787E+01  0.15580603642E+02  0.26343731403E+02  0.10566000000E+00 0.  1.
        -14    1    4    4    0    0  0.12174980961E+02 -0.15203416159E+01  0.90015206474E+01  0.15217390512E+02  0.00000000000E+00 0.  1.
<mgrwt>
<rscale>  0 0.78566253E+02</rscale>
<asrwt>0</asrwt>
<pdfrwt beam="1">  1        1 0.37304526E-02 0.78566253E+02</pdfrwt>
<pdfrwt beam="2">  1       -2 0.97909278E-02 0.78566253E+02</pdfrwt>
<totfact> 0.12256631E+05</totfact>
</mgrwt>
</event>
<event>
 8    1  0.8247621E-018  0.7603230E+02  0.7818608E-02  0.1340704E+00
          1   -1    0    0  501    0  0.00000000000E+00  0.00000000000E+00  0.70106299309E+02  0.70106299490E+02  0.50400000000E-02 0. -1.
         -2   -1    0    0    0  501 -0.00000000000E+00 -0.00000000000E+00 -0.20614805882E+02  0.20614806040E+02  0.25500000000E-02 0.  1.
        -24    2    1    2    0    0 -0.71054273576E-14  0.71054273576E-14  0.49491493427E+02  0.90721105530E+02  0.76032302786E+02 0.  0.
         66    2    3    3    0    0 -0.17792022725E+02  0.32887797903E+02  0.16753356381E+02  0.41022412340E+02  0.20000101578E+01 0.  0.
         13    1    3    3    0    0  0.17792022725E+02 -0.32887797903E+02  0.32738137046E+02  0.49698693190E+02  0.10566000000E+00 0. -1.
         13    1    4    4    0    0 -0.45787753062E+01  0.71561389175E+01  0.38555158326E+01  0.93301486527E+01  0.10566000000E+00 0. -1.
        -13    1    4    4    0    0 -0.17219493123E+01  0.26004002298E+01  0.13877469548E+01  0.34152886314E+01  0.10566000000E+00 0.  1.
        -14    1    4    4    0    0 -0.11491298107E+02  0.23131258755E+02  0.11510093594E+02  0.28276975056E+02  0.00000000000E+00 0.  1.
<mgrwt>
<rscale>  0 0.76032303E+02</rscale>
<asrwt>0</asrwt>
<pdfrwt beam="1">  1        1 0.10785585E-01 0.76032303E+02</pdfrwt>
<pdfrwt beam="2">  1       -2 0.31715085E-02 0.76032303E+02</pdfrwt>
<totfact> 0.15938918E+05</totfact>
</mgrwt>
</event>
<event>
 8    1  0.8247621E-018  0.7901135E+02  0.7818608E-02  0.1331881E+00
          1   -1    0    0  501    0  0.00000000000E+00  0.00000000000E+00  0.14405480261E+02  0.14405481143E+02  0.50400000000E-02 0. -1.
         -2   -1    0    0    0  501 -0.00000000000E+00 -0.00000000000E+00 -0.10834058164E+03  0.10834058167E+03  0.25500000000E-02 0.  1.
        -24    2    1    2    0    0 -0.71054273576E-14  0.00000000000E+00 -0.93935101379E+02  0.12274606281E+03  0.79011345167E+02 0.  0.
         66    2    3    3    0    0 -0.38566511066E+02  0.75775024225E+01 -0.41205829555E+02  0.56979950035E+02  0.19999994873E+01 0.  0.
         13    1    3    3    0    0  0.38566511066E+02 -0.75775024225E+01 -0.52729271824E+02  0.65766112778E+02  0.10566000000E+00 0. -1.
         13    1    4    4    0    0 -0.32877470144E+01  0.86384907582E+00 -0.33244225360E+01  0.47558873925E+01  0.10566000000E+00 0.  1.
        -13    1    4    4    0    0 -0.21476747475E+02  0.32771422384E+01 -0.22996361986E+02  0.31635963269E+02  0.10566000000E+00 0.  1.
        -14    1    4    4    0    0 -0.13802016577E+02  0.34365111083E+01 -0.14885045033E+02  0.20588099373E+02  0.00000000000E+00 0.  1.
<mgrwt>
<rscale>  0 0.79011345E+02</rscale>
<asrwt>0</asrwt>
<pdfrwt beam="1">  1        1 0.22162279E-02 0.79011345E+02</pdfrwt>
<pdfrwt beam="2">  1       -2 0.16667781E-01 0.79011345E+02</pdfrwt>
<totfact> 0.10734955E+05</totfact>
</mgrwt>
</event>
<event>
 8    1  0.8247621E-018  0.8069591E+02  0.7818608E-02  0.1327088E+00
         -2   -1    0    0    0  501 -0.00000000000E+00  0.00000000000E+00  0.14359254705E+02  0.14359254931E+02  0.25500000000E-02 0.  1.
          1   -1    0    0  501    0  0.00000000000E+00 -0.00000000000E+00 -0.11337338510E+03  0.11337338521E+03  0.50400000000E-02 0. -1.
        -24    2    1    2    0    0  0.00000000000E+00  0.00000000000E+00 -0.99014130393E+02  0.12773264014E+03  0.80695906588E+02 0.  0.
         66    2    3    3    0    0 -0.22526997271E+02  0.24677015898E+02 -0.13807148405E+02  0.36208535867E+02  0.20000007177E+01 0.  0.
         13    1    3    3    0    0  0.22526997271E+02 -0.24677015898E+02 -0.85206981988E+02  0.91524104274E+02  0.10566000000E+00 0. -1.
         13    1    4    4    0    0 -0.15687637310E+01  0.22359980094E+01 -0.77135016523E+00  0.28402203884E+01  0.10566000000E+00 0. -1.
        -13    1    4    4    0    0 -0.89835397458E+01  0.98358294372E+01 -0.60551560985E+01  0.14632963011E+02  0.10566000000E+00 0.  1.
         14    1    4    4    0    0 -0.11974693794E+02  0.12605188451E+02 -0.69806421409E+01  0.18735352467E+02  0.00000000000E+00 0. -1.
<mgrwt>
<rscale>  0 0.80695907E+02</rscale>
<asrwt>0</asrwt>
<pdfrwt beam="1">  1        1 0.17442059E-01 0.80695907E+02</pdfrwt>
<pdfrwt beam="2">  1       -2 0.22091162E-02 0.80695907E+02</pdfrwt>
<totfact> 0.14670836E+05</totfact>
</mgrwt>
</event>
<event>
 8    1  0.8247621E-018  0.7847008E+02  0.7818608E-02  0.1333450E+00
          1   -1    0    0  501    0  0.00000000000E+00  0.00000000000E+00  0.29486996471E+03  0.29486996475E+03  0.50400000000E-02 0. -1.
         -2   -1    0    0    0  501 -0.00000000000E+00 -0.00000000000E+00 -0.52205668548E+01  0.52205674776E+01  0.25500000000E-02 0.  1.
        -24    2    1    2    0    0 -0.17763568394E-14  0.00000000000E+00  0.28964939785E+03  0.30009053223E+03  0.78470082557E+02 0.  0.
         66    2    3    3    0    0 -0.11462028600E+02 -0.37493829017E+02  0.14670496467E+03  0.15186675729E+03  0.19999994936E+01 0.  0.
         13    1    3    3    0    0  0.11462028600E+02  0.37493829017E+02  0.14294443319E+03  0.14822377494E+03  0.10566000000E+00 0. -1.
         13    1    4    4    0    0 -0.91160011995E+00 -0.33209908705E+01  0.13930992700E+02  0.14350739242E+02  0.10566000000E+00 0. -1.
        -13    1    4    4    0    0 -0.41876422587E+01 -0.15816589503E+02  0.58961530811E+02  0.61189657058E+02  0.10566000000E+00 0.  1.
        -14    1    4    4    0    0 -0.63627862214E+01 -0.18356248643E+02  0.73812441155E+02  0.76326360990E+02  0.00000000000E+00 0.  1.
<mgrwt>
<rscale>  0 0.78470083E+02</rscale>
<asrwt>0</asrwt>
<pdfrwt beam="1">  1        1 0.45364607E-01 0.78470083E+02</pdfrwt>
<pdfrwt beam="2">  1       -2 0.80316424E-03 0.78470083E+02</pdfrwt>
<totfact> 0.18920701E+05</totfact>
</mgrwt>
</event>
<event>
 8    1  0.8247621E-018  0.7882540E+02  0.7818608E-02  0.1332418E+00
          1   -1    0    0  501    0  0.00000000000E+00  0.00000000000E+00  0.67455115218E+01  0.67455134046E+01  0.50400000000E-02 0. -1.
         -2   -1    0    0    0  501 -0.00000000000E+00 -0.00000000000E+00 -0.23028061635E+03  0.23028061637E+03  0.25500000000E-02 0.  1.
        -24    2    1    2    0    0  0.17763568394E-14  0.00000000000E+00 -0.22353510483E+03  0.23702612977E+03  0.78825396305E+02 0.  0.
         66    2    3    3    0    0 -0.14342581367E+02  0.63641205475E+01 -0.22047168635E+03  0.22103840425E+03  0.19999996293E+01 0.  0.
         13    1    3    3    0    0  0.14342581367E+02 -0.63641205475E+01 -0.30634184778E+01  0.15987725523E+02  0.10566000000E+00 0. -1.
         13    1    4    4    0    0 -0.84735937878E+01  0.32848276800E+01 -0.12688771293E+03  0.12721279315E+03  0.10566000000E+00 0. -1.
        -13    1    4    4    0    0 -0.51617054620E+01  0.22611473873E+01 -0.80443828968E+02  0.80641036537E+02  0.10566000000E+00 0.  1.
         14    1    4    4    0    0 -0.70728211694E+00  0.81814548024E+00 -0.13140144457E+02  0.13184574561E+02  0.00000000000E+00 0. -1.
<mgrwt>
<rscale>  0 0.78825396E+02</rscale>
<asrwt>0</asrwt>
<pdfrwt beam="1">  1        1 0.10377713E-02 0.78825396E+02</pdfrwt>
<pdfrwt beam="2">  1       -2 0.35427781E-01 0.78825396E+02</pdfrwt>
<totfact> 0.83220923E+04</totfact>
</mgrwt>
</event>
<event>
 8    1  0.8247621E-018  0.8047247E+02  0.7818608E-02  0.1327716E+00
          1   -1    0    0  501    0  0.00000000000E+00  0.00000000000E+00  0.24421012471E+01  0.24421064479E+01  0.50400000000E-02 0. -1.
         -2   -1    0    0    0  501 -0.00000000000E+00 -0.00000000000E+00 -0.66293436852E+03  0.66293436852E+03  0.25500000000E-02 0.  1.
        -24    2    1    2    0    0 -0.35527136788E-14 -0.35527136788E-14 -0.66049226727E+03  0.66537647497E+03  0.80472469329E+02 0.  0.
         66    2    3    3    0    0  0.10155600833E+02  0.12404987667E+02 -0.63536423428E+03  0.63556961077E+03  0.19999971318E+01 0.  0.
         13    1    3    3    0    0 -0.10155600833E+02 -0.12404987667E+02 -0.25128032991E+02  0.29806864198E+02  0.10566000000E+00 0. -1.
         13    1    4    4    0    0  0.14220991280E+01  0.26357134809E+01 -0.11589118054E+03  0.11592991953E+03  0.10566000000E+00 0.  1.
        -13    1    4    4    0    0  0.66681570213E+01  0.66727921392E+01 -0.36771919000E+03  0.36784018857E+03  0.10566000000E+00 0. -1.
         14    1    4    4    0    0  0.20653446835E+01  0.30964820466E+01 -0.15175386375E+03  0.15179950267E+03  0.00000000000E+00 0. -1.
<mgrwt>
<rscale>  0 0.80472469E+02</rscale>
<asrwt>0</asrwt>
<pdfrwt beam="1">  1        1 0.37570882E-03 0.80472469E+02</pdfrwt>
<pdfrwt beam="2">  1       -2 0.10198976E+00 0.80472469E+02</pdfrwt>
<totfact> 0.39201265E+04</totfact>
</mgrwt>
</event>
<event>
 8    1  0.8247621E-018  0.7761178E+02  0.7818608E-02  0.1335969E+00
          1   -1    0    0  501    0  0.00000000000E+00  0.00000000000E+00  0.32257548594E+02  0.32257548988E+02  0.50400000000E-02 0. -1.
         -2   -1    0    0    0  501 -0.00000000000E+00 -0.00000000000E+00 -0.46683560005E+02  0.46683560075E+02  0.25500000000E-02 0.  1.
        -24    2    1    2    0    0  0.00000000000E+00  0.00000000000E+00 -0.14426011411E+02  0.78941109062E+02  0.77611783221E+02 0.  0.
         66    2    3    3    0    0 -0.18688916035E+02  0.32119937618E+02 -0.18494897332E+02  0.41557516782E+02  0.19999996502E+01 0.  0.
         13    1    3    3    0    0  0.18688916035E+02 -0.32119937618E+02  0.40688859206E+01  0.37383592281E+02  0.10566000000E+00 0. -1.
         13    1    4    4    0    0 -0.23166744705E+01  0.50261525122E+01 -0.24637948263E+01  0.60589304881E+01  0.10566000000E+00 0. -1.
        -13    1    4    4    0    0 -0.10469973765E+02  0.18078266562E+02 -0.10265852653E+02  0.23277520642E+02  0.10566000000E+00 0.  1.
        -14    1    4    4    0    0 -0.59022677995E+01  0.90155185442E+01 -0.57652498523E+01  0.12221065651E+02  0.00000000000E+00 0.  1.
<mgrwt>
<rscale>  0 0.77611783E+02</rscale>
<asrwt>0</asrwt>
<pdfrwt beam="1">  1        1 0.49626999E-02 0.77611783E+02</pdfrwt>
<pdfrwt beam="2">  1       -2 0.71820861E-02 0.77611783E+02</pdfrwt>
<totfact> 0.13354074E+05</totfact>
</mgrwt>
</event>
<event>
 8    1  0.8247621E-018  0.7071736E+02  0.7818608E-02  0.1357670E+00
         -2   -1    0    0    0  501 -0.00000000000E+00  0.00000000000E+00  0.13781358810E+03  0.13781358813E+03  0.25500000000E-02 0.  1.
          1   -1    0    0  501    0  0.00000000000E+00 -0.00000000000E+00 -0.90719370756E+01  0.90719384756E+01  0.50400000000E-02 0. -1.
        -24    2    1    2    0    0  0.00000000000E+00 -0.17763568394E-14  0.12874165103E+03  0.14688552660E+03  0.70717361489E+02 0.  0.
         66    2    3    3    0    0 -0.31469451621E+02  0.12669776041E+02  0.84919253499E+02  0.91466547006E+02  0.19999990227E+01 0.  0.
         13    1    3    3    0    0  0.31469451621E+02 -0.12669776041E+02  0.43822397527E+02  0.55418979595E+02  0.10566000000E+00 0. -1.
         13    1    4    4    0    0 -0.97075580718E+01  0.32602353525E+01  0.26633150548E+02  0.28534219639E+02  0.10566000000E+00 0. -1.
        -13    1    4    4    0    0 -0.11087021950E+02  0.52547962935E+01  0.30927502472E+02  0.33272458776E+02  0.10566000000E+00 0.  1.
        -14    1    4    4    0    0 -0.10674871600E+02  0.41547443952E+01  0.27358600480E+02  0.29659868591E+02  0.00000000000E+00 0.  1.
<mgrwt>
<rscale>  0 0.70717361E+02</rscale>
<asrwt>0</asrwt>
<pdfrwt beam="1">  1        1 0.13956827E-02 0.70717361E+02</pdfrwt>
<pdfrwt beam="2">  1       -2 0.21202091E-01 0.70717361E+02</pdfrwt>
<totfact> 0.13314484E+05</totfact>
</mgrwt>
</event>
<event>
 8    1  0.8247621E-018  0.8069434E+02  0.7818608E-02  0.1327092E+00
         -2   -1    0    0    0  501 -0.00000000000E+00  0.00000000000E+00  0.27665539052E+02  0.27665539170E+02  0.25500000000E-02 0.  1.
          1   -1    0    0  501    0  0.00000000000E+00 -0.00000000000E+00 -0.58841941323E+02  0.58841941539E+02  0.50400000000E-02 0. -1.
        -24    2    1    2    0    0  0.35527136788E-14  0.00000000000E+00 -0.31176402271E+02  0.86507480709E+02  0.80694337844E+02 0.  0.
         66    2    3    3    0    0  0.25483523350E+02 -0.18548982062E+02 -0.42557227471E+02  0.52996153607E+02  0.19999973170E+01 0.  0.
         13    1    3    3    0    0 -0.25483523350E+02  0.18548982062E+02  0.11380825199E+02  0.33511327102E+02  0.10566000000E+00 0. -1.
         13    1    4    4    0    0  0.23954366627E+01 -0.14701562051E+01 -0.39732521506E+01  0.48679947371E+01  0.10566000000E+00 0. -1.
        -13    1    4    4    0    0  0.86413514888E+01 -0.61514653106E+01 -0.12949514531E+02  0.16739610857E+02  0.10566000000E+00 0.  1.
        -14    1    4    4    0    0  0.14446735199E+02 -0.10927360546E+02 -0.25634460789E+02  0.31388548013E+02  0.00000000000E+00 0.  1.
<mgrwt>
<rscale>  0 0.80694338E+02</rscale>
<asrwt>0</asrwt>
<pdfrwt beam="1">  1        1 0.90526064E-02 0.80694338E+02</pdfrwt>
<pdfrwt beam="2">  1       -2 0.42562368E-02 0.80694338E+02</pdfrwt>
<totfact> 0.13179008E+05</totfact>
</mgrwt>
</event>
<event>
 8    1  0.8247621E-018  0.7649450E+02  0.7818608E-02  0.1339305E+00
          1   -1    0    0  501    0  0.00000000000E+00  0.00000000000E+00  0.46598702326E+02  0.46598702598E+02  0.50400000000E-02 0. -1.
         -2   -1    0    0    0  501 -0.00000000000E+00 -0.00000000000E+00 -0.31392554610E+02  0.31392554713E+02  0.25500000000E-02 0.  1.
        -24    2    1    2    0    0  0.00000000000E+00  0.00000000000E+00  0.15206147716E+02  0.77991257312E+02  0.76494504958E+02 0.  0.
         66    2    3    3    0    0  0.98346030493E+00  0.37727516192E+02  0.13769236379E+02  0.40223433037E+02  0.20000056642E+01 0.  0.
         13    1    3    3    0    0 -0.98346030493E+00 -0.37727516192E+02  0.14369113371E+01  0.37767824274E+02  0.10566000000E+00 0. -1.
         13    1    4    4    0    0 -0.15046845502E+00  0.16251555089E+01  0.52595396686E+00  0.17180112907E+01  0.10566000000E+00 0. -1.
        -13    1    4    4    0    0  0.74132008671E+00  0.22628149168E+02  0.91274192268E+01  0.24411137540E+02  0.10566000000E+00 0.  1.
        -14    1    4    4    0    0  0.39260867324E+00  0.13474211516E+02  0.41158631851E+01  0.14094284207E+02  0.00000000000E+00 0.  1.
<mgrwt>
<rscale>  0 0.76494505E+02</rscale>
<asrwt>0</asrwt>
<pdfrwt beam="1">  1        1 0.71690311E-02 0.76494505E+02</pdfrwt>
<pdfrwt beam="2">  1       -2 0.48296238E-02 0.76494505E+02</pdfrwt>
<totfact> 0.14738625E+05</totfact>
</mgrwt>
</event>
<event>
 8    1  0.8247621E-018  0.7577660E+02  0.7818608E-02  0.1341483E+00
          1   -1    0    0  501    0  0.00000000000E+00  0.00000000000E+00  0.19637573288E+03  0.19637573294E+03  0.50400000000E-02 0. -1.
         -2   -1    0    0    0  501 -0.00000000000E+00 -0.00000000000E+00 -0.73100852438E+01  0.73100856886E+01  0.25500000000E-02 0.  1.
        -24    2    1    2    0    0  0.00000000000E+00  0.00000000000E+00  0.18906564764E+03  0.20368581863E+03  0.75776603224E+02 0.  0.
         66    2    3    3    0    0 -0.17598401776E+02  0.33459434938E+02  0.10016005860E+03  0.10707602380E+03  0.20000007876E+01 0.  0.
         13    1    3    3    0    0  0.17598401776E+02 -0.33459434938E+02  0.88905589038E+02  0.96609794833E+02  0.10566000000E+00 0. -1.
         13    1    4    4    0    0 -0.70378811297E+01  0.12840331402E+02  0.40479495394E+02  0.43046563077E+02  0.10566000000E+00 0. -1.
        -13    1    4    4    0    0 -0.59644797230E+01  0.11974013681E+02  0.35955068303E+02  0.38363134944E+02  0.10566000000E+00 0.  1.
         14    1    4    4    0    0 -0.45960409231E+01  0.86450898546E+01  0.23725494901E+02  0.25666325780E+02  0.00000000000E+00 0. -1.
<mgrwt>
<rscale>  0 0.75776603E+02</rscale>
<asrwt>0</asrwt>
<pdfrwt beam="1">  1        1 0.30211645E-01 0.75776603E+02</pdfrwt>
<pdfrwt beam="2">  1       -2 0.11246288E-02 0.75776603E+02</pdfrwt>
<totfact> 0.19180968E+05</totfact>
</mgrwt>
</event>
<event>
 8    1  0.8247621E-018  0.8002271E+02  0.7818608E-02  0.1328987E+00
          1   -1    0    0  501    0  0.00000000000E+00  0.00000000000E+00  0.19240466293E+03  0.19240466300E+03  0.50400000000E-02 0. -1.
         -2   -1    0    0    0  501 -0.00000000000E+00 -0.00000000000E+00 -0.83205290468E+01  0.83205294376E+01  0.25500000000E-02 0.  1.
        -24    2    1    2    0    0  0.00000000000E+00 -0.35527136788E-14  0.18408413388E+03  0.20072519243E+03  0.80022712588E+02 0.  0.
         66    2    3    3    0    0  0.24789732024E+02 -0.16952565000E+02  0.25877775102E+02  0.39693570084E+02  0.19999969665E+01 0.  0.
         13    1    3    3    0    0 -0.24789732024E+02  0.16952565000E+02  0.15820635878E+03  0.16103162235E+03  0.10566000000E+00 0. -1.
         13    1    4    4    0    0  0.33541028666E+01 -0.23329440057E+01  0.27628034121E+01  0.49332423925E+01  0.10566000000E+00 0. -1.
        -13    1    4    4    0    0  0.18312916437E+02 -0.12803199205E+02  0.19695726170E+02  0.29786198343E+02  0.10566000000E+00 0.  1.
         14    1    4    4    0    0  0.31227127202E+01 -0.18164217887E+01  0.34192455203E+01  0.49741293484E+01  0.00000000000E+00 0. -1.
<mgrwt>
<rscale>  0 0.80022713E+02</rscale>
<asrwt>0</asrwt>
<pdfrwt beam="1">  1        1 0.29600717E-01 0.80022713E+02</pdfrwt>
<pdfrwt beam="2">  1       -2 0.12800815E-02 0.80022713E+02</pdfrwt>
<totfact> 0.16536870E+05</totfact>
</mgrwt>
</event>
<event>
 8    1  0.8247621E-018  0.7848067E+02  0.7818608E-02  0.1333419E+00
         -2   -1    0    0    0  501 -0.00000000000E+00  0.00000000000E+00  0.18224689037E+02  0.18224689216E+02  0.25500000000E-02 0.  1.
          1   -1    0    0  501    0  0.00000000000E+00 -0.00000000000E+00 -0.84489997850E+02  0.84489998001E+02  0.50400000000E-02 0. -1.
        -24    2    1    2    0    0  0.35527136788E-14  0.00000000000E+00 -0.66265308813E+02  0.10271468722E+03  0.78480671620E+02 0.  0.
         66    2    3    3    0    0  0.29432294664E+02 -0.22234183311E+02 -0.15732940386E+02  0.40151516745E+02  0.20000017574E+01 0.  0.
         13    1    3    3    0    0 -0.29432294664E+02  0.22234183311E+02 -0.50532368426E+02  0.62563170472E+02  0.10566000000E+00 0. -1.
         13    1    4    4    0    0  0.29552327252E+01 -0.22306314297E+01 -0.15373525344E+01  0.40104530774E+01  0.10566000000E+00 0.  1.
        -13    1    4    4    0    0  0.12278885891E+02 -0.85991880240E+01 -0.55937156773E+01  0.16000559131E+02  0.10566000000E+00 0.  1.
        -14    1    4    4    0    0  0.14198176048E+02 -0.11404363857E+02 -0.86018721747E+01  0.20140504536E+02  0.00000000000E+00 0.  1.
<mgrwt>
<rscale>  0 0.78480672E+02</rscale>
<asrwt>0</asrwt>
<pdfrwt beam="1">  1        1 0.12998461E-01 0.78480672E+02</pdfrwt>
<pdfrwt beam="2">  1       -2 0.28037984E-02 0.78480672E+02</pdfrwt>
<totfact> 0.15058920E+05</totfact>
</mgrwt>
</event>
<event>
 8    1  0.8247621E-018  0.8142030E+02  0.7818608E-02  0.1325068E+00
          1   -1    0    0  501    0  0.00000000000E+00  0.00000000000E+00  0.19585601313E+03  0.19585601320E+03  0.50400000000E-02 0. -1.
         -2   -1    0    0    0  501 -0.00000000000E+00 -0.00000000000E+00 -0.84619110137E+01  0.84619113979E+01  0.25500000000E-02 0.  1.
        -24    2    1    2    0    0  0.00000000000E+00  0.00000000000E+00  0.18739410212E+03  0.20431792459E+03  0.81420297236E+02 0.  0.
         66    2    3    3    0    0 -0.24618423419E+02  0.28679662112E+02  0.13153848438E+03  0.13687571980E+03  0.20000018762E+01 0.  0.
         13    1    3    3    0    0  0.24618423419E+02 -0.28679662112E+02  0.55855617736E+02  0.67442204791E+02  0.10566000000E+00 0. -1.
         13    1    4    4    0    0 -0.81747852867E+01  0.89969760266E+01  0.40650358524E+02  0.42429182225E+02  0.10566000000E+00 0.  1.
        -13    1    4    4    0    0 -0.11570013153E+02  0.13109425505E+02  0.60522270566E+02  0.62997449472E+02  0.10566000000E+00 0. -1.
         14    1    4    4    0    0 -0.48736249790E+01  0.65732605798E+01  0.30365855292E+02  0.31449088106E+02  0.00000000000E+00 0. -1.
<mgrwt>
<rscale>  0 0.81420297E+02</rscale>
<asrwt>0</asrwt>
<pdfrwt beam="1">  1        1 0.30131691E-01 0.81420297E+02</pdfrwt>
<pdfrwt beam="2">  1       -2 0.13018326E-02 0.81420297E+02</pdfrwt>
<totfact> 0.15847290E+05</totfact>
</mgrwt>
</event>
<event>
 8    1  0.8247621E-018  0.7954099E+02  0.7818608E-02  0.1330359E+00
         -2   -1    0    0    0  501 -0.00000000000E+00  0.00000000000E+00  0.28297363251E+03  0.28297363252E+03  0.25500000000E-02 0.  1.
          1   -1    0    0  501    0  0.00000000000E+00 -0.00000000000E+00 -0.55895381537E+01  0.55895404259E+01  0.50400000000E-02 0. -1.
        -24    2    1    2    0    0  0.00000000000E+00  0.35527136788E-14  0.27738409435E+03  0.28856317295E+03  0.79540989305E+02 0.  0.
         66    2    3    3    0    0 -0.17465507188E+02 -0.17125067600E+02  0.25242898135E+03  0.25361920765E+03  0.19999950613E+01 0.  0.
         13    1    3    3    0    0  0.17465507188E+02  0.17125067600E+02  0.24955113000E+02  0.34943965295E+02  0.10566000000E+00 0. -1.
         13    1    4    4    0    0 -0.16303372733E+01 -0.19927291943E+01  0.23982825912E+02  0.24120863833E+02  0.10566000000E+00 0. -1.
        -13    1    4    4    0    0 -0.94358111159E+01 -0.95493552729E+01  0.13369454331E+03  0.13436691107E+03  0.10566000000E+00 0.  1.
         14    1    4    4    0    0 -0.63993587984E+01 -0.55829831329E+01  0.94751612136E+02  0.95131432745E+02  0.00000000000E+00 0. -1.
<mgrwt>
<rscale>  0 0.79540989E+02</rscale>
<asrwt>0</asrwt>
<pdfrwt beam="1">  1        1 0.85992902E-03 0.79540989E+02</pdfrwt>
<pdfrwt beam="2">  1       -2 0.43534410E-01 0.79540989E+02</pdfrwt>
<totfact> 0.73576714E+04</totfact>
</mgrwt>
</event>
<event>
 8    1  0.8247621E-018  0.8089124E+02  0.7818608E-02  0.1326541E+00
          1   -1    0    0  501    0  0.00000000000E+00  0.00000000000E+00  0.94324147354E+02  0.94324147489E+02  0.50400000000E-02 0. -1.
         -2   -1    0    0    0  501 -0.00000000000E+00 -0.00000000000E+00 -0.17342835054E+02  0.17342835242E+02  0.25500000000E-02 0.  1.
        -24    2    1    2    0    0  0.00000000000E+00  0.00000000000E+00  0.76981312300E+02  0.11166698273E+03  0.80891239258E+02 0.  0.
         66    2    3    3    0    0  0.72435415659E+01 -0.39660297747E+02  0.42523408603E+02  0.58631462529E+02  0.20000018016E+01 0.  0.
         13    1    3    3    0    0 -0.72435415659E+01  0.39660297747E+02  0.34457903696E+02  0.53035520201E+02  0.10566000000E+00 0. -1.
         13    1    4    4    0    0  0.36126695995E+01 -0.16770778840E+02  0.17324876902E+02  0.24381815524E+02  0.10566000000E+00 0. -1.
        -13    1    4    4    0    0  0.34166212732E+01 -0.19945749893E+02  0.22289730296E+02  0.30105638682E+02  0.10566000000E+00 0.  1.
         14    1    4    4    0    0  0.21425069320E+00 -0.29437690145E+01  0.29088014045E+01  0.41440083231E+01  0.00000000000E+00 0. -1.
<mgrwt>
<rscale>  0 0.80891239E+02</rscale>
<asrwt>0</asrwt>
<pdfrwt beam="1">  1        1 0.14511407E-01 0.80891239E+02</pdfrwt>
<pdfrwt beam="2">  1       -2 0.26681285E-02 0.80891239E+02</pdfrwt>
<totfact> 0.14125746E+05</totfact>
</mgrwt>
</event>
<event>
 8    1  0.8247621E-018  0.8115149E+02  0.7818608E-02  0.1325815E+00
         -2   -1    0    0    0  501 -0.00000000000E+00  0.00000000000E+00  0.33811303326E+01  0.33811312942E+01  0.25500000000E-02 0.  1.
          1   -1    0    0  501    0  0.00000000000E+00 -0.00000000000E+00 -0.48693499956E+03  0.48693499959E+03  0.50400000000E-02 0. -1.
        -24    2    1    2    0    0 -0.71054273576E-14  0.88817841970E-15 -0.48355386923E+03  0.49031613089E+03  0.81151486473E+02 0.  0.
         66    2    3    3    0    0 -0.39495184613E+02  0.78190730878E+01 -0.27113714804E+03  0.27411742109E+03  0.19999963616E+01 0.  0.
         13    1    3    3    0    0  0.39495184613E+02 -0.78190730878E+01 -0.21241672119E+03  0.21619870979E+03  0.10566000000E+00 0. -1.
         13    1    4    4    0    0 -0.25504388358E+02  0.41690768135E+01 -0.17566270312E+03  0.17755351717E+03  0.10566000000E+00 0. -1.
        -13    1    4    4    0    0 -0.79612223403E+01  0.18950831657E+01 -0.53741252645E+02  0.54360884846E+02  0.10566000000E+00 0.  1.
         14    1    4    4    0    0 -0.60295739147E+01  0.17549131086E+01 -0.41733192276E+02  0.42203019077E+02  0.00000000000E+00 0. -1.
<mgrwt>
<rscale>  0 0.81151486E+02</rscale>
<asrwt>0</asrwt>
<pdfrwt beam="1">  1        1 0.74913022E-01 0.81151486E+02</pdfrwt>
<pdfrwt beam="2">  1       -2 0.52017436E-03 0.81151486E+02</pdfrwt>
<totfact> 0.18826499E+05</totfact>
</mgrwt>
</event>
<event>
 8    1  0.8247621E-018  0.7431998E+02  0.7818608E-02  0.1345990E+00
          1   -1    0    0  501    0  0.00000000000E+00  0.00000000000E+00  0.80436408070E+01  0.80436423860E+01  0.50400000000E-02 0. -1.
         -2   -1    0    0    0  501 -0.00000000000E+00 -0.00000000000E+00 -0.17167158199E+03  0.17167158201E+03  0.25500000000E-02 0.  1.
        -24    2    1    2    0    0  0.88817841970E-15 -0.17763568394E-14 -0.16362794118E+03  0.17971522439E+03  0.74319975400E+02 0.  0.
         66    2    3    3    0    0  0.49692834350E+01 -0.12324730499E+02 -0.16571855906E+03  0.16626254411E+03  0.19999987340E+01 0.  0.
         13    1    3    3    0    0 -0.49692834350E+01  0.12324730499E+02  0.20906178821E+01  0.13452680287E+02  0.10566000000E+00 0. -1.
         13    1    4    4    0    0  0.10747163418E+01 -0.28868422240E+01 -0.40407261419E+02  0.40524644510E+02  0.10566000000E+00 0. -1.
        -13    1    4    4    0    0  0.36463887243E+01 -0.71014544378E+01 -0.99612466727E+02  0.99931884288E+02  0.10566000000E+00 0.  1.
        -14    1    4    4    0    0  0.24817836883E+00 -0.23364338374E+01 -0.25698830918E+02  0.25806015309E+02  0.00000000000E+00 0.  1.
<mgrwt>
<rscale>  0 0.74319975E+02</rscale>
<asrwt>0</asrwt>
<pdfrwt beam="1">  1        1 0.12374835E-02 0.74319975E+02</pdfrwt>
<pdfrwt beam="2">  1       -2 0.26411010E-01 0.74319975E+02</pdfrwt>
<totfact> 0.10900853E+05</totfact>
</mgrwt>
</event>
<event>
 8    1  0.8247621E-018  0.7906124E+02  0.7818608E-02  0.1331737E+00
         -2   -1    0    0    0  501 -0.00000000000E+00  0.00000000000E+00  0.41035614360E+03  0.41035614361E+03  0.25500000000E-02 0.  1.
          1   -1    0    0  501    0  0.00000000000E+00 -0.00000000000E+00 -0.38080801845E+01  0.38080835197E+01  0.50400000000E-02 0. -1.
        -24    2    1    2    0    0  0.17763568394E-14  0.00000000000E+00  0.40654806342E+03  0.41416422713E+03  0.79061236807E+02 0.  0.
         66    2    3    3    0    0 -0.14372422502E+02  0.34175436520E+02  0.27487416988E+03  0.27737039542E+03  0.19999998864E+01 0.  0.
         13    1    3    3    0    0  0.14372422502E+02 -0.34175436520E+02  0.13167389354E+03  0.13679383171E+03  0.10566000000E+00 0. -1.
         13    1    4    4    0    0 -0.89433470384E+00  0.19779477020E+01  0.15296954149E+02  0.15450568985E+02  0.10566000000E+00 0.  1.
        -13    1    4    4    0    0 -0.80399992833E+01  0.21422008779E+02  0.17089216899E+03  0.17241719356E+03  0.10566000000E+00 0.  1.
        -14    1    4    4    0    0 -0.54380885147E+01  0.10775480039E+02  0.88685046744E+02  0.89502632881E+02  0.00000000000E+00 0.  1.
<mgrwt>
<rscale>  0 0.79061237E+02</rscale>
<asrwt>0</asrwt>
<pdfrwt beam="1">  1        1 0.58585857E-03 0.79061237E+02</pdfrwt>
<pdfrwt beam="2">  1       -2 0.63131734E-01 0.79061237E+02</pdfrwt>
<totfact> 0.59890665E+04</totfact>
</mgrwt>
</event>
<event>
 8    1  0.8247621E-018  0.7913572E+02  0.7818608E-02  0.1331522E+00
          1   -1    0    0  501    0  0.00000000000E+00  0.00000000000E+00  0.65498679061E+02  0.65498679255E+02  0.50400000000E-02 0. -1.
         -2   -1    0    0    0  501 -0.00000000000E+00 -0.00000000000E+00 -0.23903006561E+02  0.23903006697E+02  0.25500000000E-02 0.  1.
        -24    2    1    2    0    0 -0.88817841970E-15  0.71054273576E-14  0.41595672500E+02  0.89401685953E+02  0.79135715581E+02 0.  0.
         66    2    3    3    0    0  0.50408477687E+01 -0.39211902058E+02  0.21705648108E+02  0.45145526567E+02  0.19999999997E+01 0.  0.
         13    1    3    3    0    0 -0.50408477687E+01  0.39211902058E+02  0.19890024392E+02  0.44256159386E+02  0.10566000000E+00 0. -1.
         13    1    4    4    0    0  0.14765709597E+01 -0.65452759216E+01  0.35201933022E+01  0.75778508569E+01  0.10566000000E+00 0. -1.
        -13    1    4    4    0    0  0.32701641017E+01 -0.30853620558E+02  0.16957285220E+02  0.35358175304E+02  0.10566000000E+00 0.  1.
        -14    1    4    4    0    0  0.29411270735E+00 -0.18130055788E+01  0.12281695855E+01  0.22095004060E+01  0.00000000000E+00 0.  1.
<mgrwt>
<rscale>  0 0.79135716E+02</rscale>
<asrwt>0</asrwt>
<pdfrwt beam="1">  1        1 0.10076720E-01 0.79135716E+02</pdfrwt>
<pdfrwt beam="2">  1       -2 0.36773856E-02 0.79135716E+02</pdfrwt>
<totfact> 0.14141152E+05</totfact>
</mgrwt>
</event>
<event>
 8    1  0.8247621E-018  0.7900066E+02  0.7818608E-02  0.1331912E+00
         -2   -1    0    0    0  501 -0.00000000000E+00  0.00000000000E+00  0.79979541702E+03  0.79979541703E+03  0.25500000000E-02 0.  1.
          1   -1    0    0  501    0  0.00000000000E+00 -0.00000000000E+00 -0.19508408819E+01  0.19508473923E+01  0.50400000000E-02 0. -1.
        -24    2    1    2    0    0  0.00000000000E+00  0.00000000000E+00  0.79784457614E+03  0.80174626442E+03  0.79000663495E+02 0.  0.
         66    2    3    3    0    0  0.75736643753E+01  0.29257612470E+02  0.65690038212E+03  0.65759826662E+03  0.19999855902E+01 0.  0.
         13    1    3    3    0    0 -0.75736643753E+01 -0.29257612470E+02  0.14094419402E+03  0.14414799781E+03  0.10566000000E+00 0. -1.
         13    1    4    4    0    0  0.26868117282E+01  0.10315380983E+02  0.21965044303E+03  0.21990896828E+03  0.10566000000E+00 0. -1.
        -13    1    4    4    0    0  0.17998659700E+01  0.92736535424E+01  0.21768664894E+03  0.21789155206E+03  0.10566000000E+00 0.  1.
        -14    1    4    4    0    0  0.30869866771E+01  0.96685779444E+01  0.21956329015E+03  0.21979774627E+03  0.00000000000E+00 0.  1.
<mgrwt>
<rscale>  0 0.79000663E+02</rscale>
<asrwt>0</asrwt>
<pdfrwt beam="1">  1        1 0.30012961E-03 0.79000663E+02</pdfrwt>
<pdfrwt beam="2">  1       -2 0.12304556E+00 0.79000663E+02</pdfrwt>
<totfact> 0.34330971E+04</totfact>
</mgrwt>
</event>
<event>
 8    1  0.8247621E-018  0.8027362E+02  0.7818608E-02  0.1328277E+00
         -2   -1    0    0    0  501 -0.00000000000E+00  0.00000000000E+00  0.62434691953E+01  0.62434697161E+01  0.25500000000E-02 0.  1.
          1   -1    0    0  501    0  0.00000000000E+00 -0.00000000000E+00 -0.25802376029E+03  0.25802376034E+03  0.50400000000E-02 0. -1.
        -24    2    1    2    0    0  0.00000000000E+00  0.17763568394E-14 -0.25178029110E+03  0.26426723006E+03  0.80273618939E+02 0.  0.
         66    2    3    3    0    0 -0.36017532718E+02 -0.11309258074E+02 -0.17059933078E+03  0.17473778539E+03  0.19999994133E+01 0.  0.
         13    1    3    3    0    0  0.36017532718E+02  0.11309258074E+02 -0.81180960318E+02  0.89529444673E+02  0.10566000000E+00 0. -1.
         13    1    4    4    0    0 -0.15828834582E+02 -0.55160886480E+01 -0.77558276742E+02  0.79349081239E+02  0.10566000000E+00 0. -1.
        -13    1    4    4    0    0 -0.18535201804E+02 -0.53853070061E+01 -0.86730464624E+02  0.88852348846E+02  0.10566000000E+00 0.  1.
         14    1    4    4    0    0 -0.16534963326E+01 -0.40786242004E+00 -0.63105894143E+01  0.65363553018E+01  0.00000000000E+00 0. -1.
<mgrwt>
<rscale>  0 0.80273619E+02</rscale>
<asrwt>0</asrwt>
<pdfrwt beam="1">  1        1 0.39695955E-01 0.80273619E+02</pdfrwt>
<pdfrwt beam="2">  1       -2 0.96053396E-03 0.80273619E+02</pdfrwt>
<totfact> 0.17365354E+05</totfact>
</mgrwt>
</event>
<event>
 8    1  0.8247621E-018  0.7996539E+02  0.7818608E-02  0.1329150E+00
         -2   -1    0    0    0  501 -0.00000000000E+00  0.00000000000E+00  0.76696922349E+02  0.76696922392E+02  0.25500000000E-02 0.  1.
          1   -1    0    0  501    0  0.00000000000E+00 -0.00000000000E+00 -0.20843284638E+02  0.20843285247E+02  0.50400000000E-02 0. -1.
        -24    2    1    2    0    0  0.00000000000E+00  0.00000000000E+00  0.55853637711E+02  0.97540207639E+02  0.79965387892E+02 0.  0.
         66    2    3    3    0    0  0.27466082828E+02  0.12329438213E+02  0.59990125471E+02  0.67150695508E+02  0.20000001483E+01 0.  0.
         13    1    3    3    0    0 -0.27466082828E+02 -0.12329438213E+02 -0.41364877601E+01  0.30389512131E+02  0.10566000000E+00 0. -1.
         13    1    4    4    0    0  0.16326763385E+02  0.66587299807E+01  0.35171050192E+02  0.39343561394E+02  0.10566000000E+00 0.  1.
        -13    1    4    4    0    0  0.98684147218E+01  0.50099509759E+01  0.22622253529E+02  0.25184573387E+02  0.10566000000E+00 0. -1.
        -14    1    4    4    0    0  0.12709047208E+01  0.66075725629E+00  0.21968217506E+01  0.26225607267E+01  0.00000000000E+00 0.  1.
<mgrwt>
<rscale>  0 0.79965388E+02</rscale>
<asrwt>0</asrwt>
<pdfrwt beam="1">  1        1 0.32066593E-02 0.79965388E+02</pdfrwt>
<pdfrwt beam="2">  1       -2 0.11799526E-01 0.79965388E+02</pdfrwt>
<totfact> 0.11289491E+05</totfact>
</mgrwt>
</event>
<event>
 8    1  0.8247621E-018  0.8008175E+02  0.7818608E-02  0.1328820E+00
         -2   -1    0    0    0  501 -0.00000000000E+00  0.00000000000E+00  0.14553669106E+02  0.14553669329E+02  0.25500000000E-02 0.  1.
          1   -1    0    0  501    0  0.00000000000E+00 -0.00000000000E+00 -0.11016270838E+03  0.11016270850E+03  0.50400000000E-02 0. -1.
        -24    2    1    2    0    0  0.17763568394E-14 -0.71054273576E-14 -0.95609039277E+02  0.12471637783E+03  0.80081748900E+02 0.  0.
         66    2    3    3    0    0 -0.15723673775E+02 -0.36729269884E+02 -0.44354155569E+02  0.59729090984E+02  0.20000026124E+01 0.  0.
         13    1    3    3    0    0  0.15723673775E+02  0.36729269884E+02 -0.51254883708E+02  0.64987286843E+02  0.10566000000E+00 0. -1.
         13    1    4    4    0    0 -0.35036654515E+01 -0.64275040538E+01 -0.76606384944E+01  0.10596462907E+02  0.10566000000E+00 0.  1.
        -13    1    4    4    0    0 -0.37791308254E+01 -0.92918308313E+01 -0.11136462215E+02  0.14988392332E+02  0.10566000000E+00 0. -1.
        -14    1    4    4    0    0 -0.84408774976E+01 -0.21009934999E+02 -0.25557054859E+02  0.34144235746E+02  0.00000000000E+00 0.  1.
<mgrwt>
<rscale>  0 0.80081749E+02</rscale>
<asrwt>0</asrwt>
<pdfrwt beam="1">  1        1 0.16948109E-01 0.80081749E+02</pdfrwt>
<pdfrwt beam="2">  1       -2 0.22390261E-02 0.80081749E+02</pdfrwt>
<totfact> 0.14901895E+05</totfact>
</mgrwt>
</event>
<event>
 8    1  0.8247621E-018  0.7936286E+02  0.7818608E-02  0.1330869E+00
         -2   -1    0    0    0  501 -0.00000000000E+00  0.00000000000E+00  0.69586146591E+02  0.69586146638E+02  0.25500000000E-02 0.  1.
          1   -1    0    0  501    0  0.00000000000E+00 -0.00000000000E+00 -0.22628295223E+02  0.22628295784E+02  0.50400000000E-02 0. -1.
        -24    2    1    2    0    0 -0.44408920985E-15 -0.35527136788E-14  0.46957851368E+02  0.92214442422E+02  0.79362860244E+02 0.  0.
         66    2    3    3    0    0 -0.32106703119E+01 -0.25460253113E+02  0.58623400497E+02  0.64025276189E+02  0.20000032029E+01 0.  0.
         13    1    3    3    0    0  0.32106703119E+01  0.25460253113E+02 -0.11665549129E+02  0.28189166233E+02  0.10566000000E+00 0. -1.
         13    1    4    4    0    0 -0.84957303905E+00 -0.74896096240E+01  0.17634716785E+02  0.19178384364E+02  0.10566000000E+00 0. -1.
        -13    1    4    4    0    0 -0.16280433511E+01 -0.72367614580E+01  0.17791526306E+02  0.19276172179E+02  0.10566000000E+00 0.  1.
         14    1    4    4    0    0 -0.73305392166E+00 -0.10733882031E+02  0.23197157405E+02  0.25570719646E+02  0.00000000000E+00 0. -1.
<mgrwt>
<rscale>  0 0.79362860E+02</rscale>
<asrwt>0</asrwt>
<pdfrwt beam="1">  1        1 0.34812764E-02 0.79362860E+02</pdfrwt>
<pdfrwt beam="2">  1       -2 0.10705561E-01 0.79362860E+02</pdfrwt>
<totfact> 0.11740809E+05</totfact>
</mgrwt>
</event>
<event>
 8    1  0.8247621E-018  0.7907878E+02  0.7818608E-02  0.1331686E+00
          1   -1    0    0  501    0  0.00000000000E+00  0.00000000000E+00  0.14476819193E+03  0.14476819202E+03  0.50400000000E-02 0. -1.
         -2   -1    0    0    0  501 -0.00000000000E+00 -0.00000000000E+00 -0.10799079470E+02  0.10799079771E+02  0.25500000000E-02 0.  1.
        -24    2    1    2    0    0  0.00000000000E+00  0.00000000000E+00  0.13396911246E+03  0.15556727179E+03  0.79078776915E+02 0.  0.
         66    2    3    3    0    0 -0.34915377270E+02 -0.16644653264E+02  0.82915776398E+02  0.91515867906E+02  0.20000126732E+01 0.  0.
         13    1    3    3    0    0  0.34915377270E+02  0.16644653264E+02  0.51053336064E+02  0.64051403884E+02  0.10566000000E+00 0. -1.
         13    1    4    4    0    0 -0.83253734820E+01 -0.37631231075E+01  0.20928675081E+02  0.22836233135E+02  0.10566000000E+00 0.  1.
        -13    1    4    4    0    0 -0.70048977016E+01 -0.28508092375E+01  0.15372342935E+02  0.17132302719E+02  0.10566000000E+00 0. -1.
        -14    1    4    4    0    0 -0.19585106087E+02 -0.10030720919E+02  0.46614758383E+02  0.51547332052E+02  0.00000000000E+00 0.  1.
<mgrwt>
<rscale>  0 0.79078777E+02</rscale>
<asrwt>0</asrwt>
<pdfrwt beam="1">  1        1 0.22272028E-01 0.79078777E+02</pdfrwt>
<pdfrwt beam="2">  1       -2 0.16613970E-02 0.79078777E+02</pdfrwt>
<totfact> 0.16178851E+05</totfact>
</mgrwt>
</event>
<event>
 8    1  0.8247621E-018  0.7942587E+02  0.7818608E-02  0.1330689E+00
          1   -1    0    0  501    0  0.00000000000E+00  0.00000000000E+00  0.30891594995E+02  0.30891595406E+02  0.50400000000E-02 0. -1.
         -2   -1    0    0    0  501 -0.00000000000E+00 -0.00000000000E+00 -0.51053272369E+02  0.51053272433E+02  0.25500000000E-02 0.  1.
        -24    2    1    2    0    0 -0.17763568394E-14  0.00000000000E+00 -0.20161677374E+02  0.81944867839E+02  0.79425865627E+02 0.  0.
         66    2    3    3    0    0  0.99472610926E+01 -0.73456166964E+01 -0.48995405451E+02  0.50571294138E+02  0.19999868938E+01 0.  0.
         13    1    3    3    0    0 -0.99472610926E+01  0.73456166964E+01  0.28833728077E+02  0.31373573701E+02  0.10566000000E+00 0. -1.
         13    1    4    4    0    0  0.77040154059E+00 -0.74276937211E+00 -0.39061111319E+01  0.40514309922E+01  0.10566000000E+00 0. -1.
        -13    1    4    4    0    0  0.17872815750E+01 -0.67081545759E+00 -0.95098957385E+01  0.97001881322E+01  0.10566000000E+00 0.  1.
        -14    1    4    4    0    0  0.73895779770E+01 -0.59320318666E+01 -0.35579398581E+02  0.36819675014E+02  0.00000000000E+00 0.  1.
<mgrwt>
<rscale>  0 0.79425866E+02</rscale>
<asrwt>0</asrwt>
<pdfrwt beam="1">  1        1 0.47525531E-02 0.79425866E+02</pdfrwt>
<pdfrwt beam="2">  1       -2 0.78543496E-02 0.79425866E+02</pdfrwt>
<totfact> 0.12410882E+05</totfact>
</mgrwt>
</event>
<event>
 8    1  0.8247621E-018  0.8010367E+02  0.7818608E-02  0.1328757E+00
         -2   -1    0    0    0  501 -0.00000000000E+00  0.00000000000E+00  0.78532476640E+02  0.78532476681E+02  0.25500000000E-02 0.  1.
          1   -1    0    0  501    0  0.00000000000E+00 -0.00000000000E+00 -0.20426573523E+02  0.20426574145E+02  0.50400000000E-02 0. -1.
        -24    2    1    2    0    0  0.00000000000E+00  0.00000000000E+00  0.58105903117E+02  0.98959050826E+02  0.80103668851E+02 0.  0.
         66    2    3    3    0    0 -0.90665171502E+01 -0.25204782760E+02  0.65815459410E+02  0.71085564689E+02  0.20000006441E+01 0.  0.
         13    1    3    3    0    0  0.90665171502E+01  0.25204782760E+02 -0.77095562933E+01  0.27873486138E+02  0.10566000000E+00 0. -1.
         13    1    4    4    0    0 -0.19793395178E+01 -0.62945629111E+01  0.17946963599E+02  0.19121819307E+02  0.10566000000E+00 0. -1.
        -13    1    4    4    0    0 -0.14825073791E+01 -0.48419749302E+01  0.12760905815E+02  0.13729327391E+02  0.10566000000E+00 0.  1.
        -14    1    4    4    0    0 -0.56046702533E+01 -0.14068244918E+02  0.35107589996E+02  0.38234417990E+02  0.00000000000E+00 0.  1.
<mgrwt>
<rscale>  0 0.80103669E+02</rscale>
<asrwt>0</asrwt>
<pdfrwt beam="1">  1        1 0.31425497E-02 0.80103669E+02</pdfrwt>
<pdfrwt beam="2">  1       -2 0.12081920E-01 0.80103669E+02</pdfrwt>
<totfact> 0.11183613E+05</totfact>
</mgrwt>
</event>
<event>
 8    1  0.8247621E-018  0.7423882E+02  0.7818608E-02  0.1346244E+00
         -2   -1    0    0    0  501 -0.00000000000E+00  0.00000000000E+00  0.89120853914E+02  0.89120853950E+02  0.25500000000E-02 0.  1.
          1   -1    0    0  501    0  0.00000000000E+00 -0.00000000000E+00 -0.15460471164E+02  0.15460471986E+02  0.50400000000E-02 0. -1.
        -24    2    1    2    0    0  0.00000000000E+00  0.35527136788E-14  0.73660382749E+02  0.10458132594E+03  0.74238815641E+02 0.  0.
         66    2    3    3    0    0 -0.17406352839E+02 -0.30996089624E+02  0.51772396325E+02  0.62834064890E+02  0.19999995675E+01 0.  0.
         13    1    3    3    0    0  0.17406352839E+02  0.30996089624E+02  0.21887986424E+02  0.41747261046E+02  0.10566000000E+00 0. -1.
         13    1    4    4    0    0 -0.33243433445E+01 -0.72708791708E+01  0.11998893153E+02  0.14418791333E+02  0.10566000000E+00 0. -1.
        -13    1    4    4    0    0 -0.10632062937E+01 -0.21410936845E+01  0.37636334328E+01  0.44599092413E+01  0.10566000000E+00 0.  1.
        -14    1    4    4    0    0 -0.13018803200E+02 -0.21584116768E+02  0.36009869740E+02  0.43955364316E+02  0.00000000000E+00 0.  1.
<mgrwt>
<rscale>  0 0.74238816E+02</rscale>
<asrwt>0</asrwt>
<pdfrwt beam="1">  1        1 0.23785341E-02 0.74238816E+02</pdfrwt>
<pdfrwt beam="2">  1       -2 0.13710901E-01 0.74238816E+02</pdfrwt>
<totfact> 0.13199373E+05</totfact>
</mgrwt>
</event>
<event>
 8    1  0.8247621E-018  0.7884529E+02  0.7818608E-02  0.1332361E+00
          1   -1    0    0  501    0  0.00000000000E+00  0.00000000000E+00  0.26421197682E+02  0.26421198163E+02  0.50400000000E-02 0. -1.
         -2   -1    0    0    0  501 -0.00000000000E+00 -0.00000000000E+00 -0.58821888299E+02  0.58821888355E+02  0.25500000000E-02 0.  1.
        -24    2    1    2    0    0  0.00000000000E+00  0.00000000000E+00 -0.32400690617E+02  0.85243086518E+02  0.78845285507E+02 0.  0.
         66    2    3    3    0    0 -0.17633675144E+02 -0.37383834603E+01 -0.54085009314E+02  0.57044809064E+02  0.19999996609E+01 0.  0.
         13    1    3    3    0    0  0.17633675144E+02  0.37383834603E+01  0.21684318697E+02  0.28198277454E+02  0.10566000000E+00 0. -1.
         13    1    4    4    0    0 -0.64441988560E+01 -0.90299383311E+00 -0.21415258167E+02  0.22382304241E+02  0.10566000000E+00 0. -1.
        -13    1    4    4    0    0 -0.12631343181E+01 -0.33430153176E+00 -0.46571239546E+01  0.48381022502E+01  0.10566000000E+00 0.  1.
        -14    1    4    4    0    0 -0.99263419700E+01 -0.25010880955E+01 -0.28012627193E+02  0.29824402573E+02  0.00000000000E+00 0.  1.
<mgrwt>
<rscale>  0 0.78845286E+02</rscale>
<asrwt>0</asrwt>
<pdfrwt beam="1">  1        1 0.40647997E-02 0.78845286E+02</pdfrwt>
<pdfrwt beam="2">  1       -2 0.90495213E-02 0.78845286E+02</pdfrwt>
<totfact> 0.12327384E+05</totfact>
</mgrwt>
</event>
<event>
 8    1  0.8247621E-018  0.7990063E+02  0.7818608E-02  0.1329334E+00
         -2   -1    0    0    0  501 -0.00000000000E+00  0.00000000000E+00  0.62391388821E+01  0.62391394032E+01  0.25500000000E-02 0.  1.
          1   -1    0    0  501    0  0.00000000000E+00 -0.00000000000E+00 -0.25580893478E+03  0.25580893483E+03  0.50400000000E-02 0. -1.
        -24    2    1    2    0    0  0.00000000000E+00  0.44408920985E-15 -0.24956979590E+03  0.26204807423E+03  0.79900626935E+02 0.  0.
         66    2    3    3    0    0  0.34745661915E+02  0.21425795319E+01 -0.18897785792E+03  0.19216784970E+03  0.20000012020E+01 0.  0.
         13    1    3    3    0    0 -0.34745661915E+02 -0.21425795319E+01 -0.60591937976E+02  0.69880224533E+02  0.10566000000E+00 0. -1.
         13    1    4    4    0    0  0.84375253348E+01  0.37831592289E+00 -0.46750947797E+02  0.47507865040E+02  0.10566000000E+00 0.  1.
        -13    1    4    4    0    0  0.18826894836E+02  0.19950826166E+01 -0.10100769397E+03  0.10276671509E+03  0.10566000000E+00 0.  1.
        -14    1    4    4    0    0  0.74812417445E+01 -0.23081900766E+00 -0.41219216150E+02  0.41893269573E+02  0.00000000000E+00 0.  1.
<mgrwt>
<rscale>  0 0.79900627E+02</rscale>
<asrwt>0</asrwt>
<pdfrwt beam="1">  1        1 0.39355213E-01 0.79900627E+02</pdfrwt>
<pdfrwt beam="2">  1       -2 0.95986776E-03 0.79900627E+02</pdfrwt>
<totfact> 0.17550828E+05</totfact>
</mgrwt>
</event>
<event>
 8    1  0.8247621E-018  0.8086056E+02  0.7818608E-02  0.1326627E+00
          1   -1    0    0  501    0  0.00000000000E+00  0.00000000000E+00  0.79289101242E+01  0.79289117261E+01  0.50400000000E-02 0. -1.
         -2   -1    0    0    0  501 -0.00000000000E+00 -0.00000000000E+00 -0.20615786483E+03  0.20615786485E+03  0.25500000000E-02 0.  1.
        -24    2    1    2    0    0  0.44408920985E-15  0.00000000000E+00 -0.19822895471E+03  0.21408677657E+03  0.80860555398E+02 0.  0.
         66    2    3    3    0    0  0.38398307508E+01  0.28293490125E+02 -0.17486756869E+03  0.17719461746E+03  0.19999981309E+01 0.  0.
         13    1    3    3    0    0 -0.38398307508E+01 -0.28293490125E+02 -0.23361386019E+02  0.36892159118E+02  0.10566000000E+00 0. -1.
         13    1    4    4    0    0  0.18642273762E+00  0.79049205155E+00 -0.65763438383E+01  0.66271482130E+01  0.10566000000E+00 0. -1.
        -13    1    4    4    0    0  0.35681930566E+01  0.25649714061E+02 -0.15528999723E+03  0.15743453953E+03  0.10566000000E+00 0.  1.
        -14    1    4    4    0    0  0.85214956581E-01  0.18532840122E+01 -0.13001227620E+02  0.13132929713E+02  0.00000000000E+00 0.  1.
<mgrwt>
<rscale>  0 0.80860555E+02</rscale>
<asrwt>0</asrwt>
<pdfrwt beam="1">  1        1 0.12198326E-02 0.80860555E+02</pdfrwt>
<pdfrwt beam="2">  1       -2 0.31716590E-01 0.80860555E+02</pdfrwt>
<totfact> 0.81736010E+04</totfact>
</mgrwt>
</event>
<event>
 8    1  0.8247621E-018  0.7926812E+02  0.7818608E-02  0.1331141E+00
         -2   -1    0    0    0  501 -0.00000000000E+00  0.00000000000E+00  0.13344044922E+02  0.13344045165E+02  0.25500000000E-02 0.  1.
          1   -1    0    0  501    0  0.00000000000E+00 -0.00000000000E+00 -0.11771981442E+03  0.11771981453E+03  0.50400000000E-02 0. -1.
        -24    2    1    2    0    0 -0.35527136788E-14  0.00000000000E+00 -0.10437576950E+03  0.13106385970E+03  0.79268115025E+02 0.  0.
         66    2    3    3    0    0  0.29684825431E+02  0.26204870409E+02 -0.53849006677E+02  0.66870020276E+02  0.19999993758E+01 0.  0.
         13    1    3    3    0    0 -0.29684825431E+02 -0.26204870409E+02 -0.50526762825E+02  0.64193839421E+02  0.10566000000E+00 0. -1.
         13    1    4    4    0    0  0.13300226783E+02  0.11691579117E+02 -0.22569272083E+02  0.28687493113E+02  0.10566000000E+00 0. -1.
        -13    1    4    4    0    0  0.66877598263E+01  0.57459760688E+01 -0.12140112136E+02  0.15004527956E+02  0.10566000000E+00 0.  1.
         14    1    4    4    0    0  0.96968388222E+01  0.87673152239E+01 -0.19139622459E+02  0.23177999207E+02  0.00000000000E+00 0. -1.
<mgrwt>
<rscale>  0 0.79268115E+02</rscale>
<asrwt>0</asrwt>
<pdfrwt beam="1">  1        1 0.18110740E-01 0.79268115E+02</pdfrwt>
<pdfrwt beam="2">  1       -2 0.20529301E-02 0.79268115E+02</pdfrwt>
<totfact> 0.15493666E+05</totfact>
</mgrwt>
</event>
<event>
 8    1  0.8247621E-018  0.7912688E+02  0.7818608E-02  0.1331548E+00
         -2   -1    0    0    0  501 -0.00000000000E+00  0.00000000000E+00  0.59327182911E+02  0.59327182966E+02  0.25500000000E-02 0.  1.
          1   -1    0    0  501    0  0.00000000000E+00 -0.00000000000E+00 -0.26383617961E+02  0.26383618442E+02  0.50400000000E-02 0. -1.
        -24    2    1    2    0    0  0.35527136788E-14 -0.35527136788E-14  0.32943564950E+02  0.85710801409E+02  0.79126879165E+02 0.  0.
         66    2    3    3    0    0 -0.19281976616E+02  0.18290648463E+02  0.48191181300E+02  0.55070249654E+02  0.19999996108E+01 0.  0.
         13    1    3    3    0    0  0.19281976616E+02 -0.18290648463E+02 -0.15247616350E+02  0.30640551754E+02  0.10566000000E+00 0. -1.
         13    1    4    4    0    0 -0.93133190924E+01  0.96404547372E+01  0.24504834934E+02  0.27931601802E+02  0.10566000000E+00 0. -1.
        -13    1    4    4    0    0 -0.97624929363E+01  0.86425320802E+01  0.23271565082E+02  0.26675391928E+02  0.10566000000E+00 0.  1.
         14    1    4    4    0    0 -0.20616458733E+00  0.76616459960E-02  0.41478128422E+00  0.46325592454E+00  0.00000000000E+00 0. -1.
<mgrwt>
<rscale>  0 0.79126879E+02</rscale>
<asrwt>0</asrwt>
<pdfrwt beam="1">  1        1 0.40590183E-02 0.79126879E+02</pdfrwt>
<pdfrwt beam="2">  1       -2 0.91272587E-02 0.79126879E+02</pdfrwt>
<totfact> 0.12197562E+05</totfact>
</mgrwt>
</event>
<event>
 8    1  0.8247621E-018  0.8036555E+02  0.7818608E-02  0.1328017E+00
         -2   -1    0    0    0  501 -0.00000000000E+00  0.00000000000E+00  0.65546388977E+02  0.65546389026E+02  0.25500000000E-02 0.  1.
          1   -1    0    0  501    0  0.00000000000E+00 -0.00000000000E+00 -0.24633780338E+02  0.24633780853E+02  0.50400000000E-02 0. -1.
        -24    2    1    2    0    0  0.00000000000E+00  0.00000000000E+00  0.40912608639E+02  0.90180169880E+02  0.80365549173E+02 0.  0.
         66    2    3    3    0    0 -0.10246892506E+02 -0.65087791494E+01  0.63422831905E+02  0.64605097493E+02  0.20000008102E+01 0.  0.
         13    1    3    3    0    0  0.10246892506E+02  0.65087791494E+01 -0.22510223266E+02  0.25575072386E+02  0.10566000000E+00 0. -1.
         13    1    4    4    0    0 -0.43475534498E+01 -0.33781649851E+01  0.25211376197E+02  0.25805772096E+02  0.10566000000E+00 0. -1.
        -13    1    4    4    0    0 -0.28249458090E+01 -0.17204126879E+01  0.16873059147E+02  0.17194517372E+02  0.10566000000E+00 0.  1.
         14    1    4    4    0    0 -0.30743932469E+01 -0.14102014764E+01  0.21338396561E+02  0.21604808026E+02  0.00000000000E+00 0. -1.
<mgrwt>
<rscale>  0 0.80365549E+02</rscale>
<asrwt>0</asrwt>
<pdfrwt beam="1">  1        1 0.37898124E-02 0.80365549E+02</pdfrwt>
<pdfrwt beam="2">  1       -2 0.10084060E-01 0.80365549E+02</pdfrwt>
<totfact> 0.11507548E+05</totfact>
</mgrwt>
</event>
<event>
 8    1  0.8247621E-018  0.7786408E+02  0.7818608E-02  0.1335225E+00
          1   -1    0    0  501    0  0.00000000000E+00  0.00000000000E+00  0.18476794004E+02  0.18476794691E+02  0.50400000000E-02 0. -1.
         -2   -1    0    0    0  501 -0.00000000000E+00 -0.00000000000E+00 -0.82032826515E+02  0.82032826555E+02  0.25500000000E-02 0.  1.
        -24    2    1    2    0    0  0.00000000000E+00  0.00000000000E+00 -0.63556032511E+02  0.10050962125E+03  0.77864078331E+02 0.  0.
         66    2    3    3    0    0 -0.16551137372E+02  0.33930557947E+02 -0.43940716704E+02  0.57965588889E+02  0.19999999865E+01 0.  0.
         13    1    3    3    0    0  0.16551137372E+02 -0.33930557947E+02 -0.19615315807E+02  0.42544032356E+02  0.10566000000E+00 0. -1.
         13    1    4    4    0    0 -0.41644029264E+01  0.78560368032E+01 -0.93727289168E+01  0.12919705003E+02  0.10566000000E+00 0. -1.
        -13    1    4    4    0    0 -0.62122472352E+01  0.12004793394E+02 -0.16177683917E+02  0.21081643700E+02  0.10566000000E+00 0.  1.
        -14    1    4    4    0    0 -0.61744872107E+01  0.14069727749E+02 -0.18390303870E+02  0.23964240185E+02  0.00000000000E+00 0.  1.
<mgrwt>
<rscale>  0 0.77864078E+02</rscale>
<asrwt>0</asrwt>
<pdfrwt beam="1">  1        1 0.28425838E-02 0.77864078E+02</pdfrwt>
<pdfrwt beam="2">  1       -2 0.12620435E-01 0.77864078E+02</pdfrwt>
<totfact> 0.11908813E+05</totfact>
</mgrwt>
</event>
<event>
 8    1  0.8247621E-018  0.8083232E+02  0.7818608E-02  0.1326706E+00
          1   -1    0    0  501    0  0.00000000000E+00  0.00000000000E+00  0.56781724831E+02  0.56781725055E+02  0.50400000000E-02 0. -1.
         -2   -1    0    0    0  501 -0.00000000000E+00 -0.00000000000E+00 -0.28767461906E+02  0.28767462019E+02  0.25500000000E-02 0.  1.
        -24    2    1    2    0    0  0.00000000000E+00 -0.17763568394E-14  0.28014262925E+02  0.85549187074E+02  0.80832323249E+02 0.  0.
         66    2    3    3    0    0  0.32792432898E+02 -0.14597352998E+02 -0.55862954283E+01  0.36381768436E+02  0.20000020077E+01 0.  0.
         13    1    3    3    0    0 -0.32792432898E+02  0.14597352998E+02  0.33600558353E+02  0.49167418638E+02  0.10566000000E+00 0. -1.
         13    1    4    4    0    0  0.53582766238E+01 -0.16238609056E+01 -0.75995517436E+00  0.56512607903E+01  0.10566000000E+00 0. -1.
        -13    1    4    4    0    0  0.98918824271E+01 -0.46233085711E+01 -0.15953386829E+01  0.11035424307E+02  0.10566000000E+00 0.  1.
         14    1    4    4    0    0  0.17542273847E+02 -0.83501835209E+01 -0.32310015710E+01  0.19695083338E+02  0.00000000000E+00 0. -1.
<mgrwt>
<rscale>  0 0.80832323E+02</rscale>
<asrwt>0</asrwt>
<pdfrwt beam="1">  1        1 0.87356500E-02 0.80832323E+02</pdfrwt>
<pdfrwt beam="2">  1       -2 0.44257634E-02 0.80832323E+02</pdfrwt>
<totfact> 0.13043284E+05</totfact>
</mgrwt>
</event>
<event>
 8    1  0.8247621E-018  0.7943029E+02  0.7818608E-02  0.1330676E+00
         -2   -1    0    0    0  501 -0.00000000000E+00  0.00000000000E+00  0.19429724833E+03  0.19429724835E+03  0.25500000000E-02 0.  1.
          1   -1    0    0  501    0  0.00000000000E+00 -0.00000000000E+00 -0.81179350511E+01  0.81179366156E+01  0.50400000000E-02 0. -1.
        -24    2    1    2    0    0  0.00000000000E+00 -0.17763568394E-14  0.18617931328E+03  0.20241518496E+03  0.79430286480E+02 0.  0.
         66    2    3    3    0    0 -0.67142505950E+01  0.10290043271E+02  0.18932324050E+03  0.18973206256E+03  0.20000037651E+01 0.  0.
         13    1    3    3    0    0  0.67142505950E+01 -0.10290043271E+02 -0.31439272245E+01  0.12683122407E+02  0.10566000000E+00 0. -1.
         13    1    4    4    0    0 -0.74103904622E+00  0.81533606330E+00  0.23023648476E+02  0.23050237850E+02  0.10566000000E+00 0. -1.
        -13    1    4    4    0    0 -0.11518127628E+01  0.15384627192E+01  0.36306262163E+02  0.36357246547E+02  0.10566000000E+00 0.  1.
        -14    1    4    4    0    0 -0.48213987860E+01  0.79362444886E+01  0.12999332986E+03  0.13032457816E+03  0.00000000000E+00 0.  1.
<mgrwt>
<rscale>  0 0.79430286E+02</rscale>
<asrwt>0</asrwt>
<pdfrwt beam="1">  1        1 0.12489133E-02 0.79430286E+02</pdfrwt>
<pdfrwt beam="2">  1       -2 0.29891883E-01 0.79430286E+02</pdfrwt>
<totfact> 0.87670601E+04</totfact>
</mgrwt>
</event>
<event>
 8    1  0.8247621E-018  0.7933407E+02  0.7818608E-02  0.1330952E+00
          1   -1    0    0  501    0  0.00000000000E+00  0.00000000000E+00  0.29108535569E+01  0.29108579202E+01  0.50400000000E-02 0. -1.
         -2   -1    0    0    0  501 -0.00000000000E+00 -0.00000000000E+00 -0.54055369474E+03  0.54055369475E+03  0.25500000000E-02 0.  1.
        -24    2    1    2    0    0  0.00000000000E+00  0.00000000000E+00 -0.53764284118E+03  0.54346455267E+03  0.79334074201E+02 0.  0.
         66    2    3    3    0    0 -0.69498738535E+01 -0.18223543622E+02 -0.50540961361E+03  0.50578975455E+03  0.19999994588E+01 0.  0.
         13    1    3    3    0    0  0.69498738535E+01  0.18223543622E+02 -0.32233227578E+02  0.37674798113E+02  0.10566000000E+00 0. -1.
         13    1    4    4    0    0 -0.18145181083E+01 -0.36139569445E+01 -0.10197107427E+03  0.10205128276E+03  0.10566000000E+00 0. -1.
        -13    1    4    4    0    0 -0.43723954101E+01 -0.11087947340E+02 -0.32100404839E+03  0.32122526467E+03  0.10566000000E+00 0.  1.
         14    1    4    4    0    0 -0.76296033509E+00 -0.35216393377E+01 -0.82434490950E+02  0.82513207127E+02  0.00000000000E+00 0. -1.
<mgrwt>
<rscale>  0 0.79334074E+02</rscale>
<asrwt>0</asrwt>
<pdfrwt beam="1">  1        1 0.44782439E-03 0.79334074E+02</pdfrwt>
<pdfrwt beam="2">  1       -2 0.83162027E-01 0.79334074E+02</pdfrwt>
<totfact> 0.48426384E+04</totfact>
</mgrwt>
</event>
<event>
 8    1  0.8247621E-018  0.7934989E+02  0.7818608E-02  0.1330907E+00
          1   -1    0    0  501    0  0.00000000000E+00  0.00000000000E+00  0.17855114501E+02  0.17855115212E+02  0.50400000000E-02 0. -1.
         -2   -1    0    0    0  501 -0.00000000000E+00 -0.00000000000E+00 -0.88159676859E+02  0.88159676896E+02  0.25500000000E-02 0.  1.
        -24    2    1    2    0    0  0.00000000000E+00  0.71054273576E-14 -0.70304562359E+02  0.10601479211E+03  0.79349887569E+02 0.  0.
         66    2    3    3    0    0 -0.36606518340E+01  0.23557489054E+02 -0.77502856261E+02  0.81111333282E+02  0.19999989576E+01 0.  0.
         13    1    3    3    0    0  0.36606518340E+01 -0.23557489054E+02  0.71982939023E+01  0.24903458826E+02  0.10566000000E+00 0. -1.
         13    1    4    4    0    0 -0.21140431760E+00  0.42205412621E+01 -0.12101818872E+02  0.12818847233E+02  0.10566000000E+00 0. -1.
        -13    1    4    4    0    0 -0.28211902973E+00  0.23072155164E+01 -0.69806172191E+01  0.73581937581E+01  0.10566000000E+00 0.  1.
         14    1    4    4    0    0 -0.31671284867E+01  0.17029732275E+02 -0.58420420170E+02  0.60934292291E+02  0.00000000000E+00 0. -1.
<mgrwt>
<rscale>  0 0.79349888E+02</rscale>
<asrwt>0</asrwt>
<pdfrwt beam="1">  1        1 0.27469408E-02 0.79349888E+02</pdfrwt>
<pdfrwt beam="2">  1       -2 0.13563027E-01 0.79349888E+02</pdfrwt>
<totfact> 0.11167145E+05</totfact>
</mgrwt>
</event>
<event>
 8    1  0.8247621E-018  0.8009421E+02  0.7818608E-02  0.1328784E+00
         -2   -1    0    0    0  501 -0.00000000000E+00  0.00000000000E+00  0.29962366443E+02  0.29962366552E+02  0.25500000000E-02 0.  1.
          1   -1    0    0  501    0  0.00000000000E+00 -0.00000000000E+00 -0.53526159639E+02  0.53526159876E+02  0.50400000000E-02 0. -1.
        -24    2    1    2    0    0  0.00000000000E+00  0.00000000000E+00 -0.23563793195E+02  0.83488526428E+02  0.80094205129E+02 0.  0.
         66    2    3    3    0    0  0.36212387099E+02 -0.46325543759E+01  0.53060465897E+01  0.36945252448E+02  0.20000021580E+01 0.  0.
         13    1    3    3    0    0 -0.36212387099E+02  0.46325543759E+01 -0.28869839785E+02  0.46543273979E+02  0.10566000000E+00 0. -1.
         13    1    4    4    0    0  0.43421355173E+01 -0.84820975524E+00  0.43064237596E+00  0.44463712768E+01  0.10566000000E+00 0. -1.
        -13    1    4    4    0    0  0.64567328216E+01 -0.57649298750E+00  0.39934097519E+00  0.64955661912E+01  0.10566000000E+00 0.  1.
        -14    1    4    4    0    0  0.25413518760E+02 -0.32078516332E+01  0.44760632386E+01  0.26003314981E+02  0.00000000000E+00 0.  1.
<mgrwt>
<rscale>  0 0.80094205E+02</rscale>
<asrwt>0</asrwt>
<pdfrwt beam="1">  1        1 0.82347938E-02 0.80094205E+02</pdfrwt>
<pdfrwt beam="2">  1       -2 0.46095949E-02 0.80094205E+02</pdfrwt>
<totfact> 0.13255276E+05</totfact>
</mgrwt>
</event>
<event>
 8    1  0.8247621E-018  0.8045893E+02  0.7818608E-02  0.1327754E+00
          1   -1    0    0  501    0  0.00000000000E+00  0.00000000000E+00  0.63698522159E+01  0.63698542098E+01  0.50400000000E-02 0. -1.
         -2   -1    0    0    0  501 -0.00000000000E+00 -0.00000000000E+00 -0.25407332705E+03  0.25407332707E+03  0.25500000000E-02 0.  1.
        -24    2    1    2    0    0 -0.35527136788E-14  0.00000000000E+00 -0.24770347484E+03  0.26044318128E+03  0.80458928818E+02 0.  0.
         66    2    3    3    0    0 -0.30993138669E+02  0.19408943166E+02 -0.17800804714E+03  0.18173647556E+03  0.19999953168E+01 0.  0.
         13    1    3    3    0    0  0.30993138669E+02 -0.19408943166E+02 -0.69695427695E+02  0.78706705718E+02  0.10566000000E+00 0. -1.
         13    1    4    4    0    0 -0.11474211857E+02  0.82355086864E+01 -0.70495064976E+02  0.71896081194E+02  0.10566000000E+00 0. -1.
        -13    1    4    4    0    0 -0.12190205393E+02  0.70231309369E+01 -0.67515652684E+02  0.68965933598E+02  0.10566000000E+00 0.  1.
         14    1    4    4    0    0 -0.73287214200E+01  0.41503035425E+01 -0.39997329484E+02  0.40874460767E+02  0.00000000000E+00 0. -1.
<mgrwt>
<rscale>  0 0.80458929E+02</rscale>
<asrwt>0</asrwt>
<pdfrwt beam="1">  1        1 0.97997762E-03 0.80458929E+02</pdfrwt>
<pdfrwt beam="2">  1       -2 0.39088196E-01 0.80458929E+02</pdfrwt>
<totfact> 0.75397434E+04</totfact>
</mgrwt>
</event>
<event>
 8    1  0.8247621E-018  0.8180810E+02  0.7818608E-02  0.1323997E+00
          1   -1    0    0  501    0  0.00000000000E+00  0.00000000000E+00  0.32287331837E+02  0.32287332230E+02  0.50400000000E-02 0. -1.
         -2   -1    0    0    0  501 -0.00000000000E+00 -0.00000000000E+00 -0.51820367370E+02  0.51820367433E+02  0.25500000000E-02 0.  1.
        -24    2    1    2    0    0  0.35527136788E-14  0.00000000000E+00 -0.19533035533E+02  0.84107699663E+02  0.81808102688E+02 0.  0.
         66    2    3    3    0    0  0.17329548104E+02  0.25892450396E+02 -0.36981415526E+02  0.48397906140E+02  0.19999998577E+01 0.  0.
         13    1    3    3    0    0 -0.17329548104E+02 -0.25892450396E+02  0.17448379993E+02  0.35709793523E+02  0.10566000000E+00 0. -1.
         13    1    4    4    0    0  0.32039843978E+01  0.45670885906E+01 -0.58681312390E+01  0.80975269366E+01  0.10566000000E+00 0. -1.
        -13    1    4    4    0    0  0.64633134049E+01  0.86126075637E+01 -0.12819932079E+02  0.16742558101E+02  0.10566000000E+00 0.  1.
         14    1    4    4    0    0  0.76622503013E+01  0.12712754242E+02 -0.18293352208E+02  0.23557821103E+02  0.00000000000E+00 0. -1.
<mgrwt>
<rscale>  0 0.81808103E+02</rscale>
<asrwt>0</asrwt>
<pdfrwt beam="1">  1        1 0.49672819E-02 0.81808103E+02</pdfrwt>
<pdfrwt beam="2">  1       -2 0.79723642E-02 0.81808103E+02</pdfrwt>
<totfact> 0.11491148E+05</totfact>
</mgrwt>
</event>
<event>
 8    1  0.9559100E-018  0.8006421E+02  0.7818608E-02  0.1328869E+00
          1   -1    0    0  501    0  0.00000000000E+00  0.00000000000E+00  0.12979920316E+03  0.12979920326E+03  0.50400000000E-02 0. -1.
         -2   -1    0    0    0  501 -0.00000000000E+00 -0.00000000000E+00 -0.12346527071E+02  0.12346527334E+02  0.25500000000E-02 0.  1.
        -24    2    1    2    0    0 -0.35527136788E-14  0.17763568394E-14  0.11745267609E+03  0.14214573059E+03  0.80064209264E+02 0.  0.
         66    2    3    3    0    0  0.19475414447E+02 -0.96004171530E+01 -0.89426897537E+00  0.21823370461E+02  0.20000009720E+01 0.  0.
         13    1    3    3    0    0 -0.19475414447E+02  0.96004171530E+01  0.11834694506E+03  0.12032236013E+03  0.10566000000E+00 0. -1.
         13    1    4    4    0    0  0.15855938418E+01 -0.66645081170E+00  0.27834764602E+00  0.17455388747E+01  0.10566000000E+00 0. -1.
        -13    1    4    4    0    0  0.60538977216E+00 -0.14374746293E+00 -0.20068190924E+00  0.66226684474E+00  0.10566000000E+00 0.  1.
        -14    1    4    4    0    0  0.17284430833E+02 -0.87902188783E+01 -0.97193471215E+00  0.19415564742E+02  0.00000000000E+00 0.  1.
<mgrwt>
<rscale>  0 0.80064209E+02</rscale>
<asrwt>0</asrwt>
<pdfrwt beam="1">  1        1 0.19969108E-01 0.80064209E+02</pdfrwt>
<pdfrwt beam="2">  1       -2 0.18994657E-02 0.80064209E+02</pdfrwt>
<totfact> 0.15345770E+05</totfact>
</mgrwt>
</event>
<event>
 8    1  0.8247621E-018  0.8229657E+02  0.7818608E-02  0.1322658E+00
         -2   -1    0    0    0  501 -0.00000000000E+00  0.00000000000E+00  0.71476695114E+02  0.71476695159E+02  0.25500000000E-02 0.  1.
          1   -1    0    0  501    0  0.00000000000E+00 -0.00000000000E+00 -0.23688577958E+02  0.23688578494E+02  0.50400000000E-02 0. -1.
        -24    2    1    2    0    0  0.00000000000E+00  0.00000000000E+00  0.47788117156E+02  0.95165273654E+02  0.82296568387E+02 0.  0.
         66    2    3    3    0    0  0.19133495081E+02  0.29068931368E+02  0.49245113554E+02  0.60333859565E+02  0.19999990476E+01 0.  0.
         13    1    3    3    0    0 -0.19133495081E+02 -0.29068931368E+02 -0.14569963978E+01  0.34831414089E+02  0.10566000000E+00 0. -1.
         13    1    4    4    0    0  0.13161984900E+01  0.29378638986E+01  0.47701062513E+01  0.57557363070E+01  0.10566000000E+00 0.  1.
        -13    1    4    4    0    0  0.74105990603E+01  0.10467059847E+02  0.18428355814E+02  0.22451988382E+02  0.10566000000E+00 0. -1.
        -14    1    4    4    0    0  0.10406697531E+02  0.15664007622E+02  0.26046651488E+02  0.32126134876E+02  0.00000000000E+00 0.  1.
<mgrwt>
<rscale>  0 0.82296568E+02</rscale>
<asrwt>0</asrwt>
<pdfrwt beam="1">  1        1 0.36443968E-02 0.82296568E+02</pdfrwt>
<pdfrwt beam="2">  1       -2 0.10996414E-01 0.82296568E+02</pdfrwt>
<totfact> 0.10648349E+05</totfact>
</mgrwt>
</event>
<event>
 8    1  0.8247621E-018  0.8207250E+02  0.7818608E-02  0.1323271E+00
         -2   -1    0    0    0  501 -0.00000000000E+00  0.00000000000E+00  0.13128422079E+02  0.13128422327E+02  0.25500000000E-02 0.  1.
          1   -1    0    0  501    0  0.00000000000E+00 -0.00000000000E+00 -0.12826933461E+03  0.12826933470E+03  0.50400000000E-02 0. -1.
        -24    2    1    2    0    0 -0.35527136788E-14  0.00000000000E+00 -0.11514091253E+03  0.14139775703E+03  0.82072504264E+02 0.  0.
         66    2    3    3    0    0 -0.22975240238E+02 -0.25172845213E+02 -0.18301324944E+02  0.38735930206E+02  0.19999985159E+01 0.  0.
         13    1    3    3    0    0  0.22975240238E+02  0.25172845213E+02 -0.96839587582E+02  0.10266182683E+03  0.10566000000E+00 0. -1.
         13    1    4    4    0    0 -0.46786233495E+00 -0.23753180745E+00 -0.35486712287E+00  0.64219252138E+00  0.10566000000E+00 0. -1.
        -13    1    4    4    0    0 -0.62773607884E+01 -0.64495091645E+01 -0.49497070027E+01  0.10271912693E+02  0.10566000000E+00 0.  1.
         14    1    4    4    0    0 -0.16230017115E+02 -0.18485804241E+02 -0.12996750818E+02  0.27821824991E+02  0.00000000000E+00 0. -1.
<mgrwt>
<rscale>  0 0.82072504E+02</rscale>
<asrwt>0</asrwt>
<pdfrwt beam="1">  1        1 0.19733743E-01 0.82072504E+02</pdfrwt>
<pdfrwt beam="2">  1       -2 0.20197574E-02 0.82072504E+02</pdfrwt>
<totfact> 0.14327072E+05</totfact>
</mgrwt>
</event>
<event>
 8    1  0.8247621E-018  0.8212531E+02  0.7818608E-02  0.1323126E+00
         -2   -1    0    0    0  501 -0.00000000000E+00  0.00000000000E+00  0.15728095811E+02  0.15728096018E+02  0.25500000000E-02 0.  1.
          1   -1    0    0  501    0  0.00000000000E+00 -0.00000000000E+00 -0.10720571515E+03  0.10720571527E+03  0.50400000000E-02 0. -1.
        -24    2    1    2    0    0  0.00000000000E+00  0.00000000000E+00 -0.91477619338E+02  0.12293381129E+03  0.82125313500E+02 0.  0.
         66    2    3    3    0    0 -0.29766304568E+02  0.27946021822E+02 -0.39571540694E+02  0.56893935547E+02  0.20000114619E+01 0.  0.
         13    1    3    3    0    0  0.29766304568E+02 -0.27946021822E+02 -0.51906078644E+02  0.66039875738E+02  0.10566000000E+00 0. -1.
         13    1    4    4    0    0 -0.91296443244E+01  0.93364644000E+01 -0.13222307831E+02  0.18583879073E+02  0.10566000000E+00 0. -1.
        -13    1    4    4    0    0 -0.15831779236E+02  0.14228177507E+02 -0.20803721206E+02  0.29763942095E+02  0.10566000000E+00 0.  1.
         14    1    4    4    0    0 -0.48048810073E+01  0.43813799148E+01 -0.55455116564E+01  0.85461143792E+01  0.00000000000E+00 0. -1.
<mgrwt>
<rscale>  0 0.82125313E+02</rscale>
<asrwt>0</asrwt>
<pdfrwt beam="1">  1        1 0.16493187E-01 0.82125313E+02</pdfrwt>
<pdfrwt beam="2">  1       -2 0.24197071E-02 0.82125313E+02</pdfrwt>
<totfact> 0.13856438E+05</totfact>
</mgrwt>
</event>
<event>
 8    1  0.8247621E-018  0.8088105E+02  0.7818608E-02  0.1326570E+00
         -2   -1    0    0    0  501 -0.00000000000E+00  0.00000000000E+00  0.12008230275E+03  0.12008230278E+03  0.25500000000E-02 0.  1.
          1   -1    0    0  501    0  0.00000000000E+00 -0.00000000000E+00 -0.13619291237E+02  0.13619292170E+02  0.50400000000E-02 0. -1.
        -24    2    1    2    0    0  0.00000000000E+00  0.00000000000E+00  0.10646301151E+03  0.13370159495E+03  0.80881046427E+02 0.  0.
         66    2    3    3    0    0  0.23681735308E+02 -0.68348526166E+01  0.10621085526E+03  0.10905175632E+03  0.19999959804E+01 0.  0.
         13    1    3    3    0    0 -0.23681735308E+02  0.68348526166E+01  0.25215625117E+00  0.24649838626E+02  0.10566000000E+00 0. -1.
         13    1    4    4    0    0  0.10641010527E+02 -0.27061232192E+01  0.46041678729E+02  0.47332880244E+02  0.10566000000E+00 0. -1.
        -13    1    4    4    0    0  0.58038599181E+01 -0.22098465103E+01  0.29800786680E+02  0.30441193510E+02  0.10566000000E+00 0.  1.
        -14    1    4    4    0    0  0.72368648626E+01 -0.19188828871E+01  0.30368389854E+02  0.31277682569E+02  0.00000000000E+00 0.  1.
<mgrwt>
<rscale>  0 0.80881046E+02</rscale>
<asrwt>0</asrwt>
<pdfrwt beam="1">  1        1 0.20952757E-02 0.80881046E+02</pdfrwt>
<pdfrwt beam="2">  1       -2 0.18474200E-01 0.80881046E+02</pdfrwt>
<totfact> 0.98321662E+04</totfact>
</mgrwt>
</event>
<event>
 8    1  0.8247621E-018  0.7986912E+02  0.7818608E-02  0.1329423E+00
         -2   -1    0    0    0  501 -0.00000000000E+00  0.00000000000E+00  0.73561256631E+03  0.73561256632E+03  0.25500000000E-02 0.  1.
          1   -1    0    0  501    0  0.00000000000E+00 -0.00000000000E+00 -0.21679442353E+01  0.21679500937E+01  0.50400000000E-02 0. -1.
        -24    2    1    2    0    0  0.00000000000E+00  0.44408920985E-15  0.73344462208E+03  0.73778051641E+03  0.79869122576E+02 0.  0.
         66    2    3    3    0    0  0.32773316097E+02 -0.31253959766E+01  0.57533688632E+03  0.57628152069E+03  0.19999954657E+01 0.  0.
         13    1    3    3    0    0 -0.32773316097E+02  0.31253959766E+01  0.15810773575E+03  0.16149899571E+03  0.10566000000E+00 0. -1.
         13    1    4    4    0    0  0.20867369725E+01 -0.65148041165E-01  0.30388808445E+02  0.30460623076E+02  0.10566000000E+00 0. -1.
        -13    1    4    4    0    0  0.25040245325E+02 -0.28851226088E+01  0.44552808525E+03  0.44624054469E+03  0.10566000000E+00 0.  1.
         14    1    4    4    0    0  0.56463337995E+01 -0.17512532670E+00  0.99419992629E+02  0.99580352925E+02  0.00000000000E+00 0. -1.
<mgrwt>
<rscale>  0 0.79869123E+02</rscale>
<asrwt>0</asrwt>
<pdfrwt beam="1">  1        1 0.33353023E-03 0.79869123E+02</pdfrwt>
<pdfrwt beam="2">  1       -2 0.11317120E+00 0.79869123E+02</pdfrwt>
<totfact> 0.36252050E+04</totfact>
</mgrwt>
</event>
<event>
 8    1  0.8247621E-018  0.8023803E+02  0.7818608E-02  0.1328377E+00
         -2   -1    0    0    0  501 -0.00000000000E+00  0.00000000000E+00  0.11889013738E+02  0.11889014012E+02  0.25500000000E-02 0.  1.
          1   -1    0    0  501    0  0.00000000000E+00 -0.00000000000E+00 -0.13538007006E+03  0.13538007015E+03  0.50400000000E-02 0. -1.
        -24    2    1    2    0    0  0.00000000000E+00  0.00000000000E+00 -0.12349105632E+03  0.14726908416E+03  0.80238034368E+02 0.  0.
         66    2    3    3    0    0  0.14039511743E+02 -0.33438971793E+02 -0.30406568073E+02  0.47369104980E+02  0.20000000241E+01 0.  0.
         13    1    3    3    0    0 -0.14039511743E+02  0.33438971793E+02 -0.93084488245E+02  0.99899979181E+02  0.10566000000E+00 0. -1.
         13    1    4    4    0    0  0.31349364544E+01 -0.89263055355E+01 -0.77770023034E+01  0.12247435893E+02  0.10566000000E+00 0. -1.
        -13    1    4    4    0    0  0.65783925339E+01 -0.15963317408E+02 -0.14048630326E+02  0.22259333527E+02  0.10566000000E+00 0.  1.
         14    1    4    4    0    0  0.43261827548E+01 -0.85493488491E+01 -0.85809354444E+01  0.12862335561E+02  0.00000000000E+00 0. -1.
<mgrwt>
<rscale>  0 0.80238034E+02</rscale>
<asrwt>0</asrwt>
<pdfrwt beam="1">  1        1 0.20827702E-01 0.80238034E+02</pdfrwt>
<pdfrwt beam="2">  1       -2 0.18290792E-02 0.80238034E+02</pdfrwt>
<totfact> 0.15372751E+05</totfact>
</mgrwt>
</event>
<event>
 8    1  0.8247621E-018  0.8048798E+02  0.7818608E-02  0.1327672E+00
          1   -1    0    0  501    0  0.00000000000E+00  0.00000000000E+00  0.34287839441E+03  0.34287839445E+03  0.50400000000E-02 0. -1.
         -2   -1    0    0    0  501 -0.00000000000E+00 -0.00000000000E+00 -0.47234787100E+01  0.47234793983E+01  0.25500000000E-02 0.  1.
        -24    2    1    2    0    0  0.00000000000E+00  0.17763568394E-14  0.33815491570E+03  0.34760187385E+03  0.80487984748E+02 0.  0.
         66    2    3    3    0    0  0.38812491760E+02 -0.99063750455E+01  0.18476964761E+03  0.18907238947E+03  0.20000003233E+01 0.  0.
         13    1    3    3    0    0 -0.38812491760E+02  0.99063750455E+01  0.15338526810E+03  0.15852948438E+03  0.10566000000E+00 0. -1.
         13    1    4    4    0    0  0.91036590840E+01 -0.28125880491E+01  0.44797769243E+02  0.45799984208E+02  0.10566000000E+00 0. -1.
        -13    1    4    4    0    0  0.29264552723E+00 -0.14621045834E+00  0.19052454658E+01  0.19360121960E+01  0.10566000000E+00 0.  1.
        -14    1    4    4    0    0  0.29416187149E+02 -0.69475765381E+01  0.13806663290E+03  0.14133639307E+03  0.00000000000E+00 0.  1.
<mgrwt>
<rscale>  0 0.80487985E+02</rscale>
<asrwt>0</asrwt>
<pdfrwt beam="1">  1        1 0.52750524E-01 0.80487985E+02</pdfrwt>
<pdfrwt beam="2">  1       -2 0.72668906E-03 0.80487985E+02</pdfrwt>
<totfact> 0.18201314E+05</totfact>
</mgrwt>
</event>
<event>
 8    1  0.8247621E-018  0.7870968E+02  0.7818608E-02  0.1332754E+00
          1   -1    0    0  501    0  0.00000000000E+00  0.00000000000E+00  0.14903677227E+03  0.14903677236E+03  0.50400000000E-02 0. -1.
         -2   -1    0    0    0  501 -0.00000000000E+00 -0.00000000000E+00 -0.10392089650E+02  0.10392089963E+02  0.25500000000E-02 0.  1.
        -24    2    1    2    0    0  0.35527136788E-14  0.00000000000E+00  0.13864468262E+03  0.15942886232E+03  0.78709682515E+02 0.  0.
         66    2    3    3    0    0  0.17305068516E+02 -0.21323826598E+02  0.12340912420E+02  0.30173980369E+02  0.19999987089E+01 0.  0.
         13    1    3    3    0    0 -0.17305068516E+02  0.21323826598E+02  0.12630377020E+03  0.12925488195E+03  0.10566000000E+00 0. -1.
         13    1    4    4    0    0  0.81716841999E+00 -0.89249570179E+00  0.77649257000E+00  0.14416717904E+01  0.10566000000E+00 0. -1.
        -13    1    4    4    0    0  0.48648956904E+01 -0.49929882283E+01  0.28008847336E+01  0.75135385041E+01  0.10566000000E+00 0.  1.
        -14    1    4    4    0    0  0.11623004406E+02 -0.15438342668E+02  0.87635351163E+01  0.21218770075E+02  0.00000000000E+00 0.  1.
<mgrwt>
<rscale>  0 0.78709683E+02</rscale>
<asrwt>0</asrwt>
<pdfrwt beam="1">  1        1 0.22928734E-01 0.78709683E+02</pdfrwt>
<pdfrwt beam="2">  1       -2 0.15987830E-02 0.78709683E+02</pdfrwt>
<totfact> 0.16469407E+05</totfact>
</mgrwt>
</event>
<event>
 8    1  0.8247621E-018  0.8506461E+02  0.7818608E-02  0.1315264E+00
         -2   -1    0    0    0  501 -0.00000000000E+00  0.00000000000E+00  0.20915094288E+02  0.20915094444E+02  0.25500000000E-02 0.  1.
          1   -1    0    0  501    0  0.00000000000E+00 -0.00000000000E+00 -0.86492415034E+02  0.86492415181E+02  0.50400000000E-02 0. -1.
        -24    2    1    2    0    0  0.71054273576E-14  0.00000000000E+00 -0.65577320746E+02  0.10740750963E+03  0.85064611488E+02 0.  0.
         66    2    3    3    0    0  0.33918587239E+02  0.45438598322E+01 -0.96684772497E+00  0.34293614841E+02  0.20000004752E+01 0.  0.
         13    1    3    3    0    0 -0.33918587239E+02 -0.45438598322E+01 -0.64610473021E+02  0.73113894784E+02  0.10566000000E+00 0. -1.
         13    1    4    4    0    0  0.34557747067E+01  0.87849096367E+00 -0.26240089970E+00  0.35768901946E+01  0.10566000000E+00 0. -1.
        -13    1    4    4    0    0  0.81888559044E+01  0.62071561880E+00 -0.60705758481E+00  0.82354314914E+01  0.10566000000E+00 0.  1.
        -14    1    4    4    0    0  0.22273956628E+02  0.30446532497E+01 -0.97389240467E-01  0.22481293155E+02  0.00000000000E+00 0.  1.
<mgrwt>
<rscale>  0 0.85064611E+02</rscale>
<asrwt>0</asrwt>
<pdfrwt beam="1">  1        1 0.13306525E-01 0.85064611E+02</pdfrwt>
<pdfrwt beam="2">  1       -2 0.32177069E-02 0.85064611E+02</pdfrwt>
<totfact> 0.12137481E+05</totfact>
</mgrwt>
</event>
<event>
 8    1  0.8247621E-018  0.8018833E+02  0.7818608E-02  0.1328518E+00
          1   -1    0    0  501    0  0.00000000000E+00  0.00000000000E+00  0.28271804571E+02  0.28271805020E+02  0.50400000000E-02 0. -1.
         -2   -1    0    0    0  501 -0.00000000000E+00 -0.00000000000E+00 -0.56860253222E+02  0.56860253279E+02  0.25500000000E-02 0.  1.
        -24    2    1    2    0    0  0.00000000000E+00  0.00000000000E+00 -0.28588448651E+02  0.85132058299E+02  0.80188328041E+02 0.  0.
         66    2    3    3    0    0  0.19089935851E+02 -0.23072545172E+02 -0.42567138267E+02  0.52083867442E+02  0.19999990103E+01 0.  0.
         13    1    3    3    0    0 -0.19089935851E+02  0.23072545172E+02  0.13978689615E+02  0.33048190857E+02  0.10566000000E+00 0. -1.
         13    1    4    4    0    0  0.90623759967E+00 -0.71024016163E+00 -0.14533252761E+01  0.18571553699E+01  0.10566000000E+00 0. -1.
        -13    1    4    4    0    0  0.17974290365E+02 -0.22142923894E+02 -0.40413868756E+02  0.49463887277E+02  0.10566000000E+00 0.  1.
        -14    1    4    4    0    0  0.20940788631E+00 -0.21938111643E+00 -0.69994423423E+00  0.76282479517E+00  0.00000000000E+00 0.  1.
<mgrwt>
<rscale>  0 0.80188328E+02</rscale>
<asrwt>0</asrwt>
<pdfrwt beam="1">  1        1 0.43495085E-02 0.80188328E+02</pdfrwt>
<pdfrwt beam="2">  1       -2 0.87477313E-02 0.80188328E+02</pdfrwt>
<totfact> 0.11885920E+05</totfact>
</mgrwt>
</event>
<event>
 8    1  0.8247621E-018  0.7183172E+02  0.7818608E-02  0.1353973E+00
          1   -1    0    0  501    0  0.00000000000E+00  0.00000000000E+00  0.18697392264E+03  0.18697392271E+03  0.50400000000E-02 0. -1.
         -2   -1    0    0    0  501 -0.00000000000E+00 -0.00000000000E+00 -0.68990844077E+01  0.68990848790E+01  0.25500000000E-02 0.  1.
        -24    2    1    2    0    0  0.00000000000E+00  0.00000000000E+00  0.18007483823E+03  0.19387300759E+03  0.71831717969E+02 0.  0.
         66    2    3    3    0    0  0.24213100113E+02 -0.26243730298E+02  0.80399469894E+02  0.87994785961E+02  0.20000000334E+01 0.  0.
         13    1    3    3    0    0 -0.24213100113E+02  0.26243730298E+02  0.99675368337E+02  0.10587822162E+03  0.10566000000E+00 0. -1.
         13    1    4    4    0    0  0.11980748136E+01 -0.18887952904E+01  0.51175819623E+01  0.55860307987E+01  0.10566000000E+00 0. -1.
        -13    1    4    4    0    0  0.18309294259E+02 -0.19936464454E+02  0.60663203001E+02  0.66428369193E+02  0.10566000000E+00 0.  1.
        -14    1    4    4    0    0  0.47057310407E+01 -0.44184705544E+01  0.14618684930E+02  0.15980385970E+02  0.00000000000E+00 0.  1.
<mgrwt>
<rscale>  0 0.71831718E+02</rscale>
<asrwt>0</asrwt>
<pdfrwt beam="1">  1        1 0.28765219E-01 0.71831718E+02</pdfrwt>
<pdfrwt beam="2">  1       -2 0.10613976E-02 0.71831718E+02</pdfrwt>
<totfact> 0.21872273E+05</totfact>
</mgrwt>
</event>
<event>
 8    1  0.8247621E-018  0.8430260E+02  0.7818608E-02  0.1317266E+00
         -2   -1    0    0    0  501 -0.00000000000E+00  0.00000000000E+00  0.11700201995E+02  0.11700202273E+02  0.25500000000E-02 0.  1.
          1   -1    0    0  501    0  0.00000000000E+00 -0.00000000000E+00 -0.15185481117E+03  0.15185481125E+03  0.50400000000E-02 0. -1.
        -24    2    1    2    0    0  0.00000000000E+00  0.00000000000E+00 -0.14015460917E+03  0.16355501353E+03  0.84302597688E+02 0.  0.
         66    2    3    3    0    0 -0.11584300504E+02 -0.34249400014E+02 -0.28167970731E+02  0.45876486287E+02  0.19999998719E+01 0.  0.
         13    1    3    3    0    0  0.11584300504E+02  0.34249400014E+02 -0.11198663844E+03  0.11767852724E+03  0.10566000000E+00 0. -1.
         13    1    4    4    0    0 -0.15668220171E+01 -0.54588717374E+01 -0.49679749133E+01  0.75462673325E+01  0.10566000000E+00 0. -1.
        -13    1    4    4    0    0 -0.59424304006E+01 -0.16703649567E+02 -0.14283014549E+02  0.22767082742E+02  0.10566000000E+00 0.  1.
        -14    1    4    4    0    0 -0.40750480862E+01 -0.12086878709E+02 -0.89169812689E+01  0.15563136213E+02  0.00000000000E+00 0.  1.
<mgrwt>
<rscale>  0 0.84302598E+02</rscale>
<asrwt>0</asrwt>
<pdfrwt beam="1">  1        1 0.23362277E-01 0.84302598E+02</pdfrwt>
<pdfrwt beam="2">  1       -2 0.18000312E-02 0.84302598E+02</pdfrwt>
<totfact> 0.13751893E+05</totfact>
</mgrwt>
</event>
<event>
 8    1  0.8247621E-018  0.6979046E+02  0.7818608E-02  0.1360807E+00
          1   -1    0    0  501    0  0.00000000000E+00  0.00000000000E+00  0.11947473173E+03  0.11947473183E+03  0.50400000000E-02 0. -1.
         -2   -1    0    0    0  501 -0.00000000000E+00 -0.00000000000E+00 -0.10191921750E+02  0.10191922069E+02  0.25500000000E-02 0.  1.
        -24    2    1    2    0    0 -0.71054273576E-14  0.00000000000E+00  0.10928280998E+03  0.12966665390E+03  0.69790461938E+02 0.  0.
         66    2    3    3    0    0  0.32237497281E+02  0.12099901862E+02  0.44508339385E+02  0.56308579632E+02  0.20000023311E+01 0.  0.
         13    1    3    3    0    0 -0.32237497281E+02 -0.12099901862E+02  0.64774470591E+02  0.73358074269E+02  0.10566000000E+00 0. -1.
         13    1    4    4    0    0  0.17088293245E+02  0.55493475809E+01  0.23835105474E+02  0.29848424441E+02  0.10566000000E+00 0. -1.
        -13    1    4    4    0    0  0.13230295191E+02  0.58979657760E+01  0.18291315368E+02  0.23332597220E+02  0.10566000000E+00 0.  1.
         14    1    4    4    0    0  0.19189088452E+01  0.65258850518E+00  0.23819185432E+01  0.31275579707E+01  0.00000000000E+00 0. -1.
<mgrwt>
<rscale>  0 0.69790462E+02</rscale>
<asrwt>0</asrwt>
<pdfrwt beam="1">  1        1 0.18380728E-01 0.69790462E+02</pdfrwt>
<pdfrwt beam="2">  1       -2 0.15679880E-02 0.69790462E+02</pdfrwt>
<totfact> 0.21797865E+05</totfact>
</mgrwt>
</event>
<event>
 8    1  0.8247621E-018  0.8058951E+02  0.7818608E-02  0.1327387E+00
         -2   -1    0    0    0  501 -0.00000000000E+00  0.00000000000E+00  0.89733513072E+02  0.89733513108E+02  0.25500000000E-02 0.  1.
          1   -1    0    0  501    0  0.00000000000E+00 -0.00000000000E+00 -0.18094323398E+02  0.18094324100E+02  0.50400000000E-02 0. -1.
        -24    2    1    2    0    0 -0.35527136788E-14  0.00000000000E+00  0.71639189674E+02  0.10782783721E+03  0.80589509118E+02 0.  0.
         66    2    3    3    0    0 -0.16875418941E+02  0.64274180041E+01  0.84001204184E+02  0.85943549844E+02  0.19999971884E+01 0.  0.
         13    1    3    3    0    0  0.16875418941E+02 -0.64274180041E+01 -0.12362014511E+02  0.21884287364E+02  0.10566000000E+00 0. -1.
         13    1    4    4    0    0 -0.34707106616E+00  0.83020980897E-01  0.20603027066E+01  0.20936480331E+01  0.10566000000E+00 0.  1.
        -13    1    4    4    0    0 -0.77793456618E+00  0.43969389692E-01  0.49699743469E+01  0.50317913849E+01  0.10566000000E+00 0.  1.
        -14    1    4    4    0    0 -0.15750413309E+02  0.63004276335E+01  0.76970927131E+02  0.78818110426E+02  0.00000000000E+00 0.  1.
<mgrwt>
<rscale>  0 0.80589509E+02</rscale>
<asrwt>0</asrwt>
<pdfrwt beam="1">  1        1 0.27837421E-02 0.80589509E+02</pdfrwt>
<pdfrwt beam="2">  1       -2 0.13805156E-01 0.80589509E+02</pdfrwt>
<totfact> 0.10689960E+05</totfact>
</mgrwt>
</event>
<event>
 8    1  0.8247621E-018  0.8480250E+02  0.7818608E-02  0.1315950E+00
          1   -1    0    0  501    0  0.00000000000E+00  0.00000000000E+00  0.18193559821E+02  0.18193560519E+02  0.50400000000E-02 0. -1.
         -2   -1    0    0    0  501 -0.00000000000E+00 -0.00000000000E+00 -0.98818810907E+02  0.98818810940E+02  0.25500000000E-02 0.  1.
        -24    2    1    2    0    0  0.00000000000E+00 -0.17763568394E-14 -0.80625251087E+02  0.11701237146E+03  0.84802499737E+02 0.  0.
         66    2    3    3    0    0 -0.40275994819E+02 -0.13157499585E+02 -0.41390704946E+02  0.59266061370E+02  0.20000051067E+01 0.  0.
         13    1    3    3    0    0  0.40275994819E+02  0.13157499585E+02 -0.39234546140E+02  0.57746310089E+02  0.10566000000E+00 0. -1.
         13    1    4    4    0    0 -0.19631931198E+02 -0.67942430542E+01 -0.19472023373E+02  0.28473589860E+02  0.10566000000E+00 0. -1.
        -13    1    4    4    0    0 -0.14656796403E+02 -0.42003846265E+01 -0.14945370080E+02  0.21350413642E+02  0.10566000000E+00 0.  1.
         14    1    4    4    0    0 -0.59872672184E+01 -0.21628719039E+01 -0.69733114931E+01  0.94420578687E+01  0.00000000000E+00 0. -1.
<mgrwt>
<rscale>  0 0.84802500E+02</rscale>
<asrwt>0</asrwt>
<pdfrwt beam="1">  1        1 0.27990093E-02 0.84802500E+02</pdfrwt>
<pdfrwt beam="2">  1       -2 0.15202894E-01 0.84802500E+02</pdfrwt>
<totfact> 0.91674379E+04</totfact>
</mgrwt>
</event>
<event>
 8    1  0.8247621E-018  0.7922287E+02  0.7818608E-02  0.1331271E+00
          1   -1    0    0  501    0  0.00000000000E+00  0.00000000000E+00  0.15110792998E+03  0.15110793006E+03  0.50400000000E-02 0. -1.
         -2   -1    0    0    0  501 -0.00000000000E+00 -0.00000000000E+00 -0.10383741962E+02  0.10383742275E+02  0.25500000000E-02 0.  1.
        -24    2    1    2    0    0  0.00000000000E+00  0.00000000000E+00  0.14072418801E+03  0.16149167233E+03  0.79222870066E+02 0.  0.
         66    2    3    3    0    0  0.10924413680E+02  0.24724868083E+02  0.11453760264E+02  0.29425338356E+02  0.19999993068E+01 0.  0.
         13    1    3    3    0    0 -0.10924413680E+02 -0.24724868083E+02  0.12927042775E+03  0.13206633398E+03  0.10566000000E+00 0. -1.
         13    1    4    4    0    0  0.37795815938E+00  0.17206503652E+01  0.50681247997E+00  0.18361680138E+01  0.10566000000E+00 0. -1.
        -13    1    4    4    0    0  0.80613899322E+01  0.16671575823E+02  0.81948370514E+01  0.20250776933E+02  0.10566000000E+00 0.  1.
        -14    1    4    4    0    0  0.24850655887E+01  0.63326418949E+01  0.27521107326E+01  0.73383934096E+01  0.00000000000E+00 0.  1.
<mgrwt>
<rscale>  0 0.79222870E+02</rscale>
<asrwt>0</asrwt>
<pdfrwt beam="1">  1        1 0.23247374E-01 0.79222870E+02</pdfrwt>
<pdfrwt beam="2">  1       -2 0.15974988E-02 0.79222870E+02</pdfrwt>
<totfact> 0.16227403E+05</totfact>
</mgrwt>
</event>
<event>
 8    1  0.8247621E-018  0.7929393E+02  0.7818608E-02  0.1331067E+00
          1   -1    0    0  501    0  0.00000000000E+00  0.00000000000E+00  0.34535295820E+02  0.34535296187E+02  0.50400000000E-02 0. -1.
         -2   -1    0    0    0  501 -0.00000000000E+00 -0.00000000000E+00 -0.45515225530E+02  0.45515225601E+02  0.25500000000E-02 0.  1.
        -24    2    1    2    0    0  0.88817841970E-15  0.00000000000E+00 -0.10979929710E+02  0.80050521789E+02  0.79293929038E+02 0.  0.
         66    2    3    3    0    0 -0.71009190780E+01  0.29685085115E+02 -0.30998104100E+02  0.43548935523E+02  0.19999993318E+01 0.  0.
         13    1    3    3    0    0  0.71009190780E+01 -0.29685085115E+02  0.20018174390E+02  0.36501586266E+02  0.10566000000E+00 0. -1.
         13    1    4    4    0    0 -0.16630367558E+01  0.45329474478E+01 -0.46236415701E+01  0.66859950060E+01  0.10566000000E+00 0. -1.
        -13    1    4    4    0    0 -0.30236777165E+01  0.15118145710E+02 -0.16425810275E+02  0.22528190426E+02  0.10566000000E+00 0.  1.
         14    1    4    4    0    0 -0.24142046056E+01  0.10033991957E+02 -0.99486522549E+01  0.14334750091E+02  0.00000000000E+00 0. -1.
<mgrwt>
<rscale>  0 0.79293929E+02</rscale>
<asrwt>0</asrwt>
<pdfrwt beam="1">  1        1 0.53131225E-02 0.79293929E+02</pdfrwt>
<pdfrwt beam="2">  1       -2 0.70023424E-02 0.79293929E+02</pdfrwt>
<totfact> 0.12708806E+05</totfact>
</mgrwt>
</event>
<event>
 8    1  0.8247621E-018  0.7985560E+02  0.7818608E-02  0.1329462E+00
         -2   -1    0    0    0  501 -0.00000000000E+00  0.00000000000E+00  0.20163062701E+02  0.20163062862E+02  0.25500000000E-02 0.  1.
          1   -1    0    0  501    0  0.00000000000E+00 -0.00000000000E+00 -0.79066811470E+02  0.79066811630E+02  0.50400000000E-02 0. -1.
        -24    2    1    2    0    0  0.00000000000E+00  0.71054273576E-14 -0.58903748769E+02  0.99229874492E+02  0.79855597003E+02 0.  0.
         66    2    3    3    0    0  0.61577229764E+01  0.39360239166E+02 -0.32270503298E+02  0.51308199774E+02  0.20000003888E+01 0.  0.
         13    1    3    3    0    0 -0.61577229764E+01 -0.39360239166E+02 -0.26633245471E+02  0.47921674718E+02  0.10566000000E+00 0. -1.
         13    1    4    4    0    0  0.25959902730E+01  0.11630883277E+02 -0.97477210822E+01  0.15396293114E+02  0.10566000000E+00 0. -1.
        -13    1    4    4    0    0  0.17239515513E+01  0.14485708270E+02 -0.12284630570E+02  0.19071734722E+02  0.10566000000E+00 0.  1.
         14    1    4    4    0    0  0.18377811520E+01  0.13243647619E+02 -0.10238151646E+02  0.16840171939E+02  0.00000000000E+00 0. -1.
<mgrwt>
<rscale>  0 0.79855597E+02</rscale>
<asrwt>0</asrwt>
<pdfrwt beam="1">  1        1 0.12164125E-01 0.79855597E+02</pdfrwt>
<pdfrwt beam="2">  1       -2 0.31020097E-02 0.79855597E+02</pdfrwt>
<totfact> 0.14212451E+05</totfact>
</mgrwt>
</event>
<event>
 8    1  0.8247621E-018  0.8004125E+02  0.7818608E-02  0.1328934E+00
          1   -1    0    0  501    0  0.00000000000E+00  0.00000000000E+00  0.35226738823E+02  0.35226739183E+02  0.50400000000E-02 0. -1.
         -2   -1    0    0    0  501 -0.00000000000E+00 -0.00000000000E+00 -0.45466891730E+02  0.45466891801E+02  0.25500000000E-02 0.  1.
        -24    2    1    2    0    0  0.00000000000E+00  0.00000000000E+00 -0.10240152907E+02  0.80693630985E+02  0.80041247804E+02 0.  0.
         66    2    3    3    0    0  0.83355385776E+01 -0.36582982585E+02 -0.19087134480E+02  0.42143973850E+02  0.20000027506E+01 0.  0.
         13    1    3    3    0    0 -0.83355385776E+01  0.36582982585E+02  0.88469815728E+01  0.38549657135E+02  0.10566000000E+00 0. -1.
         13    1    4    4    0    0  0.30911730479E+01 -0.12785025660E+02 -0.70574399360E+01  0.14927520036E+02  0.10566000000E+00 0. -1.
        -13    1    4    4    0    0  0.40541055692E+01 -0.18339186862E+02 -0.99491983649E+01  0.21254629116E+02  0.10566000000E+00 0.  1.
        -14    1    4    4    0    0  0.11902599605E+01 -0.54587700633E+01 -0.20804961791E+01  0.59618246979E+01  0.00000000000E+00 0.  1.
<mgrwt>
<rscale>  0 0.80041248E+02</rscale>
<asrwt>0</asrwt>
<pdfrwt beam="1">  1        1 0.54194984E-02 0.80041248E+02</pdfrwt>
<pdfrwt beam="2">  1       -2 0.69949064E-02 0.80041248E+02</pdfrwt>
<totfact> 0.12415793E+05</totfact>
</mgrwt>
</event>
<event>
 8    1  0.8247621E-018  0.8575079E+02  0.7818608E-02  0.1313481E+00
          1   -1    0    0  501    0  0.00000000000E+00  0.00000000000E+00  0.11251199482E+02  0.11251200611E+02  0.50400000000E-02 0. -1.
         -2   -1    0    0    0  501 -0.00000000000E+00 -0.00000000000E+00 -0.16338695785E+03  0.16338695787E+03  0.25500000000E-02 0.  1.
        -24    2    1    2    0    0  0.71054273576E-14  0.00000000000E+00 -0.15213575837E+03  0.17463815848E+03  0.85750786722E+02 0.  0.
         66    2    3    3    0    0  0.34468832826E+02 -0.53324882932E+01 -0.12680964496E+03  0.13153410935E+03  0.19999993457E+01 0.  0.
         13    1    3    3    0    0 -0.34468832826E+02  0.53324882932E+01 -0.25326113404E+02  0.43104049137E+02  0.10566000000E+00 0. -1.
         13    1    4    4    0    0  0.15380519149E+02 -0.31471057847E+01 -0.57673406341E+02  0.59772047038E+02  0.10566000000E+00 0. -1.
        -13    1    4    4    0    0  0.46855856455E+00  0.42149799330E-01 -0.17185855802E+01  0.17849437431E+01  0.10566000000E+00 0. -1.
        -14    1    4    4    0    0  0.18619755113E+02 -0.22275323079E+01 -0.67417653043E+02  0.69977118564E+02  0.00000000000E+00 0.  1.
<mgrwt>
<rscale>  0 0.85750787E+02</rscale>
<asrwt>0</asrwt>
<pdfrwt beam="1">  1        1 0.17309540E-02 0.85750787E+02</pdfrwt>
<pdfrwt beam="2">  1       -2 0.25136453E-01 0.85750787E+02</pdfrwt>
<totfact> 0.76753641E+04</totfact>
</mgrwt>
</event>
<event>
 8    1  0.8247621E-018  0.8013234E+02  0.7818608E-02  0.1328676E+00
         -2   -1    0    0    0  501 -0.00000000000E+00  0.00000000000E+00  0.59925139150E+01  0.59925144576E+01  0.25500000000E-02 0.  1.
          1   -1    0    0  501    0  0.00000000000E+00 -0.00000000000E+00 -0.26788388514E+03  0.26788388518E+03  0.50400000000E-02 0. -1.
        -24    2    1    2    0    0  0.00000000000E+00  0.00000000000E+00 -0.26189137122E+03  0.27387639964E+03  0.80132340290E+02 0.  0.
         66    2    3    3    0    0 -0.20860417339E+02  0.34147533476E+02 -0.12609546847E+03  0.13230751385E+03  0.20000000979E+01 0.  0.
         13    1    3    3    0    0  0.20860417339E+02 -0.34147533476E+02 -0.13579590276E+03  0.14156888579E+03  0.10566000000E+00 0. -1.
         13    1    4    4    0    0 -0.27022800819E+01  0.34510596790E+01 -0.13892751644E+02  0.14568179119E+02  0.10566000000E+00 0. -1.
        -13    1    4    4    0    0 -0.10509766982E+02  0.16883769141E+02 -0.63397957631E+02  0.66444180018E+02  0.10566000000E+00 0.  1.
         14    1    4    4    0    0 -0.76483702749E+01  0.13812704656E+02 -0.48804759191E+02  0.51295154718E+02  0.00000000000E+00 0. -1.
<mgrwt>
<rscale>  0 0.80132340E+02</rscale>
<asrwt>0</asrwt>
<pdfrwt beam="1">  1        1 0.41212896E-01 0.80132340E+02</pdfrwt>
<pdfrwt beam="2">  1       -2 0.92192547E-03 0.80132340E+02</pdfrwt>
<totfact> 0.17574809E+05</totfact>
</mgrwt>
</event>
<event>
 8    1  0.8247621E-018  0.7916402E+02  0.7818608E-02  0.1331441E+00
          1   -1    0    0  501    0  0.00000000000E+00  0.00000000000E+00  0.36541699644E+02  0.36541699992E+02  0.50400000000E-02 0. -1.
         -2   -1    0    0    0  501 -0.00000000000E+00 -0.00000000000E+00 -0.42875280626E+02  0.42875280702E+02  0.25500000000E-02 0.  1.
        -24    2    1    2    0    0  0.00000000000E+00  0.00000000000E+00 -0.63335809817E+01  0.79416980694E+02  0.79164023233E+02 0.  0.
         66    2    3    3    0    0 -0.21785393464E+02  0.32684231562E+02 -0.78601077115E+01  0.40107900203E+02  0.20000010691E+01 0.  0.
         13    1    3    3    0    0  0.21785393464E+02 -0.32684231562E+02  0.15265267299E+01  0.39309080491E+02  0.10566000000E+00 0. -1.
         13    1    4    4    0    0 -0.67588719317E+00  0.81596977613E+00 -0.31385150967E+00  0.11100887258E+01  0.10566000000E+00 0.  1.
        -13    1    4    4    0    0 -0.36651716506E+01  0.66997390845E+01 -0.14361961179E+01  0.77713454661E+01  0.10566000000E+00 0.  1.
        -14    1    4    4    0    0 -0.17444334620E+02  0.25168522701E+02 -0.61100600840E+01  0.31226466011E+02  0.00000000000E+00 0.  1.
<mgrwt>
<rscale>  0 0.79164023E+02</rscale>
<asrwt>0</asrwt>
<pdfrwt beam="1">  1        1 0.56218000E-02 0.79164023E+02</pdfrwt>
<pdfrwt beam="2">  1       -2 0.65961970E-02 0.79164023E+02</pdfrwt>
<totfact> 0.12887973E+05</totfact>
</mgrwt>
</event>
<event>
 8    1  0.8247621E-018  0.7829686E+02  0.7818608E-02  0.1333955E+00
         -2   -1    0    0    0  501 -0.00000000000E+00  0.00000000000E+00  0.36909097915E+01  0.36909106723E+01  0.25500000000E-02 0.  1.
          1   -1    0    0  501    0  0.00000000000E+00 -0.00000000000E+00 -0.41523617083E+03  0.41523617086E+03  0.50400000000E-02 0. -1.
        -24    2    1    2    0    0  0.00000000000E+00  0.00000000000E+00 -0.41154526104E+03  0.41892708153E+03  0.78296856632E+02 0.  0.
         66    2    3    3    0    0 -0.80089313911E+01  0.37954290173E+02 -0.17866445720E+03  0.18283779527E+03  0.19999976141E+01 0.  0.
         13    1    3    3    0    0  0.80089313911E+01 -0.37954290173E+02 -0.23288080384E+03  0.23608928626E+03  0.10566000000E+00 0. -1.
         13    1    4    4    0    0 -0.19774576658E+01  0.11586449780E+02 -0.57421429664E+02  0.58612182232E+02  0.10566000000E+00 0. -1.
        -13    1    4    4    0    0 -0.26610135303E+01  0.12667680709E+02 -0.56860467202E+02  0.58315306928E+02  0.10566000000E+00 0.  1.
         14    1    4    4    0    0 -0.33704601949E+01  0.13700159683E+02 -0.64382560332E+02  0.65910306115E+02  0.00000000000E+00 0. -1.
<mgrwt>
<rscale>  0 0.78296857E+02</rscale>
<asrwt>0</asrwt>
<pdfrwt beam="1">  1        1 0.63882451E-01 0.78296857E+02</pdfrwt>
<pdfrwt beam="2">  1       -2 0.56783267E-03 0.78296857E+02</pdfrwt>
<totfact> 0.20217107E+05</totfact>
</mgrwt>
</event>
<event>
 8    1  0.8247621E-018  0.7719237E+02  0.7818608E-02  0.1337213E+00
          1   -1    0    0  501    0  0.00000000000E+00  0.00000000000E+00  0.71612592237E+02  0.71612592414E+02  0.50400000000E-02 0. -1.
         -2   -1    0    0    0  501 -0.00000000000E+00 -0.00000000000E+00 -0.20801725526E+02  0.20801725682E+02  0.25500000000E-02 0.  1.
        -24    2    1    2    0    0  0.00000000000E+00  0.00000000000E+00  0.50810866711E+02  0.92414318097E+02  0.77192370175E+02 0.  0.
         66    2    3    3    0    0  0.17413548816E+02  0.83141530109E+01 -0.14559279901E+02  0.24255503151E+02  0.19999947973E+01 0.  0.
         13    1    3    3    0    0 -0.17413548816E+02 -0.83141530109E+01  0.65370146612E+02  0.68158814946E+02  0.10566000000E+00 0. -1.
         13    1    4    4    0    0  0.58264086261E+00  0.43022664515E+00 -0.10018714084E+01  0.12407560984E+01  0.10566000000E+00 0. -1.
        -13    1    4    4    0    0  0.21539415309E+01  0.80119432783E+00 -0.17379101482E+01  0.28832051936E+01  0.10566000000E+00 0. -1.
        -14    1    4    4    0    0  0.14676966423E+02  0.70827320379E+01 -0.11819498345E+02  0.20131541859E+02  0.00000000000E+00 0.  1.
<mgrwt>
<rscale>  0 0.77192370E+02</rscale>
<asrwt>0</asrwt>
<pdfrwt beam="1">  1        1 0.11017322E-01 0.77192370E+02</pdfrwt>
<pdfrwt beam="2">  1       -2 0.32002654E-02 0.77192370E+02</pdfrwt>
<totfact> 0.15346025E+05</totfact>
</mgrwt>
</event>
<event>
 8    1  0.8247621E-018  0.8172762E+02  0.7818608E-02  0.1324219E+00
         -2   -1    0    0    0  501 -0.00000000000E+00  0.00000000000E+00  0.81912047611E+01  0.81912051580E+01  0.25500000000E-02 0.  1.
          1   -1    0    0  501    0  0.00000000000E+00 -0.00000000000E+00 -0.20385902535E+03  0.20385902541E+03  0.50400000000E-02 0. -1.
        -24    2    1    2    0    0  0.00000000000E+00 -0.71054273576E-14 -0.19566782059E+03  0.21205023057E+03  0.81727622448E+02 0.  0.
         66    2    3    3    0    0  0.85879217250E+01  0.39454108497E+02 -0.11377393963E+03  0.12074306777E+03  0.19999994533E+01 0.  0.
         13    1    3    3    0    0 -0.85879217250E+01 -0.39454108497E+02 -0.81893880960E+02  0.91307162806E+02  0.10566000000E+00 0. -1.
         13    1    4    4    0    0  0.23971729307E+00  0.17972061692E+01 -0.55092246260E+01  0.58008735903E+01  0.10566000000E+00 0. -1.
        -13    1    4    4    0    0  0.75031077102E+01  0.35603940701E+02 -0.10213802649E+03  0.10842566503E+03  0.10566000000E+00 0.  1.
        -14    1    4    4    0    0  0.84509672170E+00  0.20529616265E+01 -0.61266885195E+01  0.65165291470E+01  0.00000000000E+00 0.  1.
<mgrwt>
<rscale>  0 0.81727622E+02</rscale>
<asrwt>0</asrwt>
<pdfrwt beam="1">  1        1 0.31362923E-01 0.81727622E+02</pdfrwt>
<pdfrwt beam="2">  1       -2 0.12601855E-02 0.81727622E+02</pdfrwt>
<totfact> 0.15812274E+05</totfact>
</mgrwt>
</event>
<event>
 8    1  0.8247621E-018  0.7915006E+02  0.7818608E-02  0.1331481E+00
          1   -1    0    0  501    0  0.00000000000E+00  0.00000000000E+00  0.10594326719E+03  0.10594326731E+03  0.50400000000E-02 0. -1.
         -2   -1    0    0    0  501 -0.00000000000E+00 -0.00000000000E+00 -0.14783223593E+02  0.14783223813E+02  0.25500000000E-02 0.  1.
        -24    2    1    2    0    0 -0.17763568394E-14  0.71054273576E-14  0.91160043601E+02  0.12072649113E+03  0.79150060711E+02 0.  0.
         66    2    3    3    0    0 -0.14918696348E+02  0.34875290283E+02  0.28533690741E+02  0.47508155926E+02  0.19999997749E+01 0.  0.
         13    1    3    3    0    0  0.14918696348E+02 -0.34875290283E+02  0.62626352861E+02  0.73218335202E+02  0.10566000000E+00 0. -1.
         13    1    4    4    0    0 -0.48381730805E+00  0.63215936344E+00  0.80164985378E+00  0.11346854948E+01  0.10566000000E+00 0. -1.
        -13    1    4    4    0    0 -0.90241533951E+01  0.21336884409E+02  0.17694648115E+02  0.29151495960E+02  0.10566000000E+00 0.  1.
         14    1    4    4    0    0 -0.54107256449E+01  0.12906246511E+02  0.10037392772E+02  0.17221974470E+02  0.00000000000E+00 0. -1.
<mgrwt>
<rscale>  0 0.79150061E+02</rscale>
<asrwt>0</asrwt>
<pdfrwt beam="1">  1        1 0.16298965E-01 0.79150061E+02</pdfrwt>
<pdfrwt beam="2">  1       -2 0.22743420E-02 0.79150061E+02</pdfrwt>
<totfact> 0.15277092E+05</totfact>
</mgrwt>
</event>
<event>
 8    1  0.8247621E-018  0.7709931E+02  0.7818608E-02  0.1337491E+00
          1   -1    0    0  501    0  0.00000000000E+00  0.00000000000E+00  0.44603399263E+02  0.44603399548E+02  0.50400000000E-02 0. -1.
         -2   -1    0    0    0  501 -0.00000000000E+00 -0.00000000000E+00 -0.33317551520E+02  0.33317551618E+02  0.25500000000E-02 0.  1.
        -24    2    1    2    0    0 -0.35527136788E-14  0.00000000000E+00  0.11285847743E+02  0.77920951165E+02  0.77099314337E+02 0.  0.
         66    2    3    3    0    0  0.31335812865E+02 -0.20730593980E+02 -0.29516256349E+01  0.37741260936E+02  0.19999971155E+01 0.  0.
         13    1    3    3    0    0 -0.31335812865E+02  0.20730593980E+02  0.14237473378E+02  0.40179690229E+02  0.10566000000E+00 0. -1.
         13    1    4    4    0    0  0.12034768753E+02 -0.78766240645E+01 -0.20403810509E+01  0.14527600782E+02  0.10566000000E+00 0. -1.
        -13    1    4    4    0    0  0.79622102027E+01 -0.53868927989E+01 -0.62013835826E+00  0.96338538996E+01  0.10566000000E+00 0.  1.
         14    1    4    4    0    0  0.11338833909E+02 -0.74670771167E+01 -0.29110622564E+00  0.13579806255E+02  0.00000000000E+00 0. -1.
<mgrwt>
<rscale>  0 0.77099314E+02</rscale>
<asrwt>0</asrwt>
<pdfrwt beam="1">  1        1 0.68620614E-02 0.77099314E+02</pdfrwt>
<pdfrwt beam="2">  1       -2 0.51257772E-02 0.77099314E+02</pdfrwt>
<totfact> 0.14324026E+05</totfact>
</mgrwt>
</event>
<event>
 8    1  0.8247621E-018  0.8007502E+02  0.7818608E-02  0.1328839E+00
          1   -1    0    0  501    0  0.00000000000E+00  0.00000000000E+00  0.14426901533E+02  0.14426902413E+02  0.50400000000E-02 0. -1.
         -2   -1    0    0    0  501 -0.00000000000E+00 -0.00000000000E+00 -0.11111202934E+03  0.11111202937E+03  0.25500000000E-02 0.  1.
        -24    2    1    2    0    0 -0.71054273576E-14  0.00000000000E+00 -0.96685127811E+02  0.12553893179E+03  0.80075023910E+02 0.  0.
         66    2    3    3    0    0  0.33492260468E+02  0.17926177120E+02 -0.68074045062E+02  0.77981760324E+02  0.19999986810E+01 0.  0.
         13    1    3    3    0    0 -0.33492260468E+02 -0.17926177120E+02 -0.28611082748E+02  0.47557171462E+02  0.10566000000E+00 0. -1.
         13    1    4    4    0    0  0.80951995062E+01  0.37544959312E+01 -0.15410477734E+02  0.17807933141E+02  0.10566000000E+00 0. -1.
        -13    1    4    4    0    0  0.36797904610E+01  0.19745379938E+01 -0.67153784861E+01  0.79086743752E+01  0.10566000000E+00 0.  1.
        -14    1    4    4    0    0  0.21717270501E+02  0.12197143195E+02 -0.45948188842E+02  0.52265152808E+02  0.00000000000E+00 0.  1.
<mgrwt>
<rscale>  0 0.80075024E+02</rscale>
<asrwt>0</asrwt>
<pdfrwt beam="1">  1        1 0.22195235E-02 0.80075024E+02</pdfrwt>
<pdfrwt beam="2">  1       -2 0.17094158E-01 0.80075024E+02</pdfrwt>
<totfact> 0.10304461E+05</totfact>
</mgrwt>
</event>
<event>
 8    1  0.8247621E-018  0.7935679E+02  0.7818608E-02  0.1330887E+00
         -2   -1    0    0    0  501 -0.00000000000E+00  0.00000000000E+00  0.45789220410E+03  0.45789220411E+03  0.25500000000E-02 0.  1.
          1   -1    0    0  501    0  0.00000000000E+00 -0.00000000000E+00 -0.34383077005E+01  0.34383113944E+01  0.50400000000E-02 0. -1.
        -24    2    1    2    0    0  0.00000000000E+00 -0.27755575616E-16  0.45445389640E+03  0.46133051550E+03  0.79356792905E+02 0.  0.
         66    2    3    3    0    0 -0.14839676125E+02  0.20934333733E+00  0.44113466745E+03  0.44138877947E+03  0.20000009631E+01 0.  0.
         13    1    3    3    0    0  0.14839676125E+02 -0.20934333733E+00  0.13319228951E+02  0.19941736033E+02  0.10566000000E+00 0. -1.
         13    1    4    4    0    0 -0.11905768285E+02 -0.13463684531E+00  0.33908747675E+03  0.33929646844E+03  0.10566000000E+00 0. -1.
        -13    1    4    4    0    0 -0.36631887675E+00 -0.75269463441E-01  0.20342697448E+02  0.20346408983E+02  0.10566000000E+00 0.  1.
        -14    1    4    4    0    0 -0.25675889630E+01  0.41924964608E+00  0.81704493250E+02  0.81745902041E+02  0.00000000000E+00 0.  1.
<mgrwt>
<rscale>  0 0.79356793E+02</rscale>
<asrwt>0</asrwt>
<pdfrwt beam="1">  1        1 0.52897036E-03 0.79356793E+02</pdfrwt>
<pdfrwt beam="2">  1       -2 0.70445001E-01 0.79356793E+02</pdfrwt>
<totfact> 0.54938953E+04</totfact>
</mgrwt>
</event>
<event>
 8    1  0.8247621E-018  0.7775467E+02  0.7818608E-02  0.1335547E+00
          1   -1    0    0  501    0  0.00000000000E+00  0.00000000000E+00  0.25397052435E+02  0.25397052935E+02  0.50400000000E-02 0. -1.
         -2   -1    0    0    0  501 -0.00000000000E+00 -0.00000000000E+00 -0.59512695848E+02  0.59512695902E+02  0.25500000000E-02 0.  1.
        -24    2    1    2    0    0  0.11102230246E-15  0.71054273576E-14 -0.34115643413E+02  0.84909748838E+02  0.77754667527E+02 0.  0.
         66    2    3    3    0    0 -0.82503358984E+00  0.38818171121E+02 -0.18578691212E+02  0.43089429168E+02  0.20000123116E+01 0.  0.
         13    1    3    3    0    0  0.82503358984E+00 -0.38818171121E+02 -0.15536952201E+02  0.41820319670E+02  0.10566000000E+00 0. -1.
         13    1    4    4    0    0 -0.10411809700E+01  0.17603544583E+02 -0.82955647313E+01  0.19488365707E+02  0.10566000000E+00 0.  1.
        -13    1    4    4    0    0 -0.30494200282E+00  0.26292286173E+01 -0.13722357531E+01  0.29832914281E+01  0.10566000000E+00 0. -1.
         14    1    4    4    0    0  0.52108938293E+00  0.18585397921E+02 -0.89108907276E+01  0.20617772032E+02  0.00000000000E+00 0. -1.
<mgrwt>
<rscale>  0 0.77754668E+02</rscale>
<asrwt>0</asrwt>
<pdfrwt beam="1">  1        1 0.39072389E-02 0.77754668E+02</pdfrwt>
<pdfrwt beam="2">  1       -2 0.91557993E-02 0.77754668E+02</pdfrwt>
<totfact> 0.12741703E+05</totfact>
</mgrwt>
</event>
<event>
 8    1  0.8247621E-018  0.7955557E+02  0.7818608E-02  0.1330317E+00
          1   -1    0    0  501    0  0.00000000000E+00  0.00000000000E+00  0.97473310495E+02  0.97473310625E+02  0.50400000000E-02 0. -1.
         -2   -1    0    0    0  501 -0.00000000000E+00 -0.00000000000E+00 -0.16232877292E+02  0.16232877492E+02  0.25500000000E-02 0.  1.
        -24    2    1    2    0    0  0.00000000000E+00 -0.88817841970E-15  0.81240433203E+02  0.11370618812E+03  0.79555573213E+02 0.  0.
         66    2    3    3    0    0  0.36930336763E+02 -0.50846250870E+01  0.60376136418E+02  0.70985780465E+02  0.19999984453E+01 0.  0.
         13    1    3    3    0    0 -0.36930336763E+02  0.50846250870E+01  0.20864296785E+02  0.42720407653E+02  0.10566000000E+00 0. -1.
         13    1    4    4    0    0  0.30338061598E+01 -0.77398491304E+00  0.52062746541E+01  0.60761412319E+01  0.10566000000E+00 0. -1.
        -13    1    4    4    0    0  0.19385729850E+02 -0.22227355207E+01  0.30258838337E+02  0.36004937669E+02  0.10566000000E+00 0.  1.
        -14    1    4    4    0    0  0.14510800753E+02 -0.20879046532E+01  0.24911023426E+02  0.28904701564E+02  0.00000000000E+00 0.  1.
<mgrwt>
<rscale>  0 0.79555573E+02</rscale>
<asrwt>0</asrwt>
<pdfrwt beam="1">  1        1 0.14995894E-01 0.79555573E+02</pdfrwt>
<pdfrwt beam="2">  1       -2 0.24973658E-02 0.79555573E+02</pdfrwt>
<totfact> 0.14858285E+05</totfact>
</mgrwt>
</event>
<event>
 8    1  0.8247621E-018  0.7994027E+02  0.7818608E-02  0.1329221E+00
         -2   -1    0    0    0  501 -0.00000000000E+00  0.00000000000E+00  0.27828654532E+02  0.27828654648E+02  0.25500000000E-02 0.  1.
          1   -1    0    0  501    0  0.00000000000E+00 -0.00000000000E+00 -0.57408867368E+02  0.57408867589E+02  0.50400000000E-02 0. -1.
        -24    2    1    2    0    0  0.88817841970E-15  0.00000000000E+00 -0.29580212836E+02  0.85237522238E+02  0.79940266486E+02 0.  0.
         66    2    3    3    0    0 -0.59634410171E+01  0.38004708854E+02 -0.33308608162E+01  0.38665425770E+02  0.19999980869E+01 0.  0.
         13    1    3    3    0    0  0.59634410171E+01 -0.38004708854E+02 -0.26249352020E+02  0.46572096468E+02  0.10566000000E+00 0. -1.
         13    1    4    4    0    0 -0.50791134602E+00  0.46046922316E+01 -0.29075157861E+00  0.46429371091E+01  0.10566000000E+00 0. -1.
        -13    1    4    4    0    0 -0.37805842231E+01  0.24965420622E+02 -0.15756256549E+01  0.25299383473E+02  0.10566000000E+00 0.  1.
         14    1    4    4    0    0 -0.16749454480E+01  0.84345960012E+01 -0.14644835826E+01  0.87231051880E+01  0.00000000000E+00 0. -1.
<mgrwt>
<rscale>  0 0.79940266E+02</rscale>
<asrwt>0</asrwt>
<pdfrwt beam="1">  1        1 0.88321335E-02 0.79940266E+02</pdfrwt>
<pdfrwt beam="2">  1       -2 0.42813315E-02 0.79940266E+02</pdfrwt>
<totfact> 0.13473013E+05</totfact>
</mgrwt>
</event>
<event>
 8    1  0.8247621E-018  0.7237442E+02  0.7818608E-02  0.1352200E+00
          1   -1    0    0  501    0  0.00000000000E+00  0.00000000000E+00  0.25703311778E+02  0.25703312272E+02  0.50400000000E-02 0. -1.
         -2   -1    0    0    0  501 -0.00000000000E+00 -0.00000000000E+00 -0.50947297956E+02  0.50947298020E+02  0.25500000000E-02 0.  1.
        -24    2    1    2    0    0  0.71054273576E-14  0.00000000000E+00 -0.25243986179E+02  0.76650610292E+02  0.72374423797E+02 0.  0.
         66    2    3    3    0    0 -0.34152295577E+02 -0.82276946428E+01 -0.35558505227E+01  0.35365496212E+02  0.19999992577E+01 0.  0.
         13    1    3    3    0    0  0.34152295577E+02  0.82276946428E+01 -0.21688135656E+02  0.41285114080E+02  0.10566000000E+00 0. -1.
         13    1    4    4    0    0 -0.31728949075E+01 -0.50087998855E+00 -0.56967674018E+00  0.32640218260E+01  0.10566000000E+00 0. -1.
        -13    1    4    4    0    0 -0.56038735892E+00 -0.29878468039E+00 -0.14586006137E+00  0.66011019563E+00  0.10566000000E+00 0. -1.
        -14    1    4    4    0    0 -0.30419013311E+02 -0.74280299738E+01 -0.28403137212E+01  0.31441364190E+02  0.00000000000E+00 0.  1.
<mgrwt>
<rscale>  0 0.72374424E+02</rscale>
<asrwt>0</asrwt>
<pdfrwt beam="1">  1        1 0.39543557E-02 0.72374424E+02</pdfrwt>
<pdfrwt beam="2">  1       -2 0.78380459E-02 0.72374424E+02</pdfrwt>
<totfact> 0.15681216E+05</totfact>
</mgrwt>
</event>
<event>
 8    1  0.8247621E-018  0.7577020E+02  0.7818608E-02  0.1341502E+00
          1   -1    0    0  501    0  0.00000000000E+00  0.00000000000E+00  0.46934885575E+02  0.46934885846E+02  0.50400000000E-02 0. -1.
         -2   -1    0    0    0  501 -0.00000000000E+00 -0.00000000000E+00 -0.30580254824E+02  0.30580254930E+02  0.25500000000E-02 0.  1.
        -24    2    1    2    0    0  0.00000000000E+00  0.00000000000E+00  0.16354630751E+02  0.77515140776E+02  0.75770199303E+02 0.  0.
         66    2    3    3    0    0  0.13292488562E+00 -0.35065237675E+02  0.22783576988E+02  0.41865020496E+02  0.19999996474E+01 0.  0.
         13    1    3    3    0    0 -0.13292488562E+00  0.35065237675E+02 -0.64289462364E+01  0.35650120280E+02  0.10566000000E+00 0. -1.
         13    1    4    4    0    0  0.56311895115E+00 -0.55282354166E+01  0.35338856489E+01  0.65861978098E+01  0.10566000000E+00 0. -1.
        -13    1    4    4    0    0  0.16787411095E+00 -0.13703805991E+02  0.94800267635E+01  0.16664469743E+02  0.10566000000E+00 0.  1.
         14    1    4    4    0    0 -0.59806817648E+00 -0.15833196267E+02  0.97696645755E+01  0.18614352943E+02  0.00000000000E+00 0. -1.
<mgrwt>
<rscale>  0 0.75770199E+02</rscale>
<asrwt>0</asrwt>
<pdfrwt beam="1">  1        1 0.72207517E-02 0.75770199E+02</pdfrwt>
<pdfrwt beam="2">  1       -2 0.47046546E-02 0.75770199E+02</pdfrwt>
<totfact> 0.15148294E+05</totfact>
</mgrwt>
</event>
<event>
 8    1  0.8247621E-018  0.8507337E+02  0.7818608E-02  0.1315241E+00
         -2   -1    0    0    0  501 -0.00000000000E+00  0.00000000000E+00  0.19581206151E+03  0.19581206152E+03  0.25500000000E-02 0.  1.
          1   -1    0    0  501    0  0.00000000000E+00 -0.00000000000E+00 -0.92403378981E+01  0.92403392726E+01  0.50400000000E-02 0. -1.
        -24    2    1    2    0    0  0.00000000000E+00  0.00000000000E+00  0.18657172361E+03  0.20505240080E+03  0.85073374342E+02 0.  0.
         66    2    3    3    0    0 -0.40519058829E+02 -0.11680142794E+02  0.10634951805E+03  0.11442220002E+03  0.20000009500E+01 0.  0.
         13    1    3    3    0    0  0.40519058829E+02  0.11680142794E+02  0.80222205562E+02  0.90630200779E+02  0.10566000000E+00 0. -1.
         13    1    4    4    0    0 -0.10063753283E+02 -0.34302323062E+01  0.25308328827E+02  0.27451198442E+02  0.10566000000E+00 0. -1.
        -13    1    4    4    0    0 -0.13598811865E+01 -0.23133750860E+00  0.36318141468E+01  0.38863906027E+01  0.10566000000E+00 0.  1.
        -14    1    4    4    0    0 -0.29095424359E+02 -0.80185729789E+01  0.77409375073E+02  0.83084610973E+02  0.00000000000E+00 0.  1.
<mgrwt>
<rscale>  0 0.85073374E+02</rscale>
<asrwt>0</asrwt>
<pdfrwt beam="1">  1        1 0.14215906E-02 0.85073374E+02</pdfrwt>
<pdfrwt beam="2">  1       -2 0.30124933E-01 0.85073374E+02</pdfrwt>
<totfact> 0.73199167E+04</totfact>
</mgrwt>
</event>
<event>
 8    1  0.8247621E-018  0.8000053E+02  0.7818608E-02  0.1329050E+00
         -2   -1    0    0    0  501 -0.00000000000E+00  0.00000000000E+00  0.22850409430E+02  0.22850409573E+02  0.25500000000E-02 0.  1.
          1   -1    0    0  501    0  0.00000000000E+00 -0.00000000000E+00 -0.70021561620E+02  0.70021561802E+02  0.50400000000E-02 0. -1.
        -24    2    1    2    0    0  0.00000000000E+00 -0.35527136788E-14 -0.47171152190E+02  0.92871971374E+02  0.80000534173E+02 0.  0.
         66    2    3    3    0    0 -0.36895719888E+02  0.11784637286E+02 -0.35083403004E+02  0.52297389843E+02  0.19999990139E+01 0.  0.
         13    1    3    3    0    0  0.36895719888E+02 -0.11784637286E+02 -0.12087749185E+02  0.40574581531E+02  0.10566000000E+00 0. -1.
         13    1    4    4    0    0 -0.46611575800E+01  0.13924032286E+01 -0.46148321561E+01  0.67061924071E+01  0.10566000000E+00 0. -1.
        -13    1    4    4    0    0 -0.30997677665E+02  0.96659446026E+01 -0.29401018357E+02  0.43803168266E+02  0.10566000000E+00 0.  1.
         14    1    4    4    0    0 -0.12368846430E+01  0.72628945444E+00 -0.10675524911E+01  0.17880291700E+01  0.00000000000E+00 0. -1.
<mgrwt>
<rscale>  0 0.80000534E+02</rscale>
<asrwt>0</asrwt>
<pdfrwt beam="1">  1        1 0.10772548E-01 0.80000534E+02</pdfrwt>
<pdfrwt beam="2">  1       -2 0.35154477E-02 0.80000534E+02</pdfrwt>
<totfact> 0.13871054E+05</totfact>
</mgrwt>
</event>
<event>
 8    1  0.8247621E-018  0.7936828E+02  0.7818608E-02  0.1330854E+00
         -2   -1    0    0    0  501 -0.00000000000E+00  0.00000000000E+00  0.31467750792E+03  0.31467750793E+03  0.25500000000E-02 0.  1.
          1   -1    0    0  501    0  0.00000000000E+00 -0.00000000000E+00 -0.50045859180E+01  0.50045884559E+01  0.50400000000E-02 0. -1.
        -24    2    1    2    0    0  0.00000000000E+00  0.00000000000E+00  0.30967292200E+03  0.31968209639E+03  0.79368281628E+02 0.  0.
         66    2    3    3    0    0 -0.69291973129E+01 -0.39011696498E+02  0.16179346677E+03  0.16658647044E+03  0.20000015684E+01 0.  0.
         13    1    3    3    0    0  0.69291973129E+01  0.39011696498E+02  0.14787945523E+03  0.15309562594E+03  0.10566000000E+00 0. -1.
         13    1    4    4    0    0 -0.16518418322E+00 -0.78974003596E+00  0.38232620608E+01  0.39088965144E+01  0.10566000000E+00 0. -1.
        -13    1    4    4    0    0 -0.23299171714E+01 -0.91724181571E+01  0.38932222682E+02  0.40066081614E+02  0.10566000000E+00 0.  1.
        -14    1    4    4    0    0 -0.44340959583E+01 -0.29049538305E+02  0.11903798203E+03  0.12261149232E+03  0.00000000000E+00 0.  1.
<mgrwt>
<rscale>  0 0.79368282E+02</rscale>
<asrwt>0</asrwt>
<pdfrwt beam="1">  1        1 0.76993658E-03 0.79368282E+02</pdfrwt>
<pdfrwt beam="2">  1       -2 0.48411919E-01 0.79368282E+02</pdfrwt>
<totfact> 0.69853326E+04</totfact>
</mgrwt>
</event>
<event>
 8    1  0.8247621E-018  0.8060028E+02  0.7818608E-02  0.1327356E+00
          1   -1    0    0  501    0  0.00000000000E+00  0.00000000000E+00  0.11286776872E+03  0.11286776883E+03  0.50400000000E-02 0. -1.
         -2   -1    0    0    0  501 -0.00000000000E+00 -0.00000000000E+00 -0.14389417573E+02  0.14389417799E+02  0.25500000000E-02 0.  1.
        -24    2    1    2    0    0  0.88817841970E-15  0.00000000000E+00  0.98478351147E+02  0.12725718663E+03  0.80600284767E+02 0.  0.
         66    2    3    3    0    0 -0.67510668304E+01 -0.16906552538E+02 -0.74532254720E+01  0.19772683045E+02  0.20000007010E+01 0.  0.
         13    1    3    3    0    0  0.67510668304E+01  0.16906552538E+02  0.10593157662E+03  0.10748450359E+03  0.10566000000E+00 0. -1.
         13    1    4    4    0    0 -0.51327405774E+00 -0.10107752122E+01 -0.20985627421E+00  0.11577221080E+01  0.10566000000E+00 0.  1.
        -13    1    4    4    0    0 -0.62662520445E+01 -0.15088510436E+02 -0.69589693758E+01  0.17758588927E+02  0.10566000000E+00 0.  1.
        -14    1    4    4    0    0  0.28459271924E-01 -0.80726688960E+00 -0.28439982192E+00  0.85637201024E+00  0.00000000000E+00 0.  1.
<mgrwt>
<rscale>  0 0.80600285E+02</rscale>
<asrwt>0</asrwt>
<pdfrwt beam="1">  1        1 0.17364271E-01 0.80600285E+02</pdfrwt>
<pdfrwt beam="2">  1       -2 0.22137567E-02 0.80600285E+02</pdfrwt>
<totfact> 0.14706385E+05</totfact>
</mgrwt>
</event>
<event>
 8    1  0.8247621E-018  0.7818721E+02  0.7818608E-02  0.1334276E+00
          1   -1    0    0  501    0  0.00000000000E+00  0.00000000000E+00  0.49206946526E+02  0.49206946784E+02  0.50400000000E-02 0. -1.
         -2   -1    0    0    0  501 -0.00000000000E+00 -0.00000000000E+00 -0.31058826610E+02  0.31058826715E+02  0.25500000000E-02 0.  1.
        -24    2    1    2    0    0  0.35527136788E-14  0.00000000000E+00  0.18148119915E+02  0.80265773499E+02  0.78187212119E+02 0.  0.
         66    2    3    3    0    0 -0.30835058955E+02 -0.23686743683E+02  0.12981327804E+02  0.41041169080E+02  0.20000002138E+01 0.  0.
         13    1    3    3    0    0  0.30835058955E+02  0.23686743683E+02  0.51667921110E+01  0.39224604419E+02  0.10566000000E+00 0. -1.
         13    1    4    4    0    0 -0.26685542999E+01 -0.27739028931E+01  0.14025022894E+01  0.40980356293E+01  0.10566000000E+00 0. -1.
        -13    1    4    4    0    0 -0.13097486532E+02 -0.97578275684E+01  0.53974485390E+01  0.17201830341E+02  0.10566000000E+00 0.  1.
         14    1    4    4    0    0 -0.15069018124E+02 -0.11155013221E+02  0.61813769760E+01  0.19741303110E+02  0.00000000000E+00 0. -1.
<mgrwt>
<rscale>  0 0.78187212E+02</rscale>
<asrwt>0</asrwt>
<pdfrwt beam="1">  1        1 0.75702995E-02 0.78187212E+02</pdfrwt>
<pdfrwt beam="2">  1       -2 0.47782810E-02 0.78187212E+02</pdfrwt>
<totfact> 0.13987040E+05</totfact>
</mgrwt>
</event>
<event>
 8    1  0.8247621E-018  0.7911071E+02  0.7818608E-02  0.1331594E+00
         -2   -1    0    0    0  501 -0.00000000000E+00  0.00000000000E+00  0.10415790097E+02  0.10415790409E+02  0.25500000000E-02 0.  1.
          1   -1    0    0  501    0  0.00000000000E+00 -0.00000000000E+00 -0.15021672731E+03  0.15021672739E+03  0.50400000000E-02 0. -1.
        -24    2    1    2    0    0  0.00000000000E+00  0.00000000000E+00 -0.13980093721E+03  0.16063251780E+03  0.79110705534E+02 0.  0.
         66    2    3    3    0    0  0.92915713470E+01 -0.35918016783E+02 -0.42239321229E+02  0.56254755300E+02  0.20000020631E+01 0.  0.
         13    1    3    3    0    0 -0.92915713470E+01  0.35918016783E+02 -0.97561615982E+02  0.10437776250E+03  0.10566000000E+00 0. -1.
         13    1    4    4    0    0  0.27422290808E+01 -0.88214328186E+01 -0.10447233419E+02  0.13946087174E+02  0.10566000000E+00 0. -1.
        -13    1    4    4    0    0  0.23708455553E+01 -0.12753612552E+02 -0.14421990678E+02  0.19397951462E+02  0.10566000000E+00 0.  1.
        -14    1    4    4    0    0  0.41784967109E+01 -0.14342971412E+02 -0.17370097131E+02  0.22910716664E+02  0.00000000000E+00 0.  1.
<mgrwt>
<rscale>  0 0.79110706E+02</rscale>
<asrwt>0</asrwt>
<pdfrwt beam="1">  1        1 0.23110264E-01 0.79110706E+02</pdfrwt>
<pdfrwt beam="2">  1       -2 0.16024294E-02 0.79110706E+02</pdfrwt>
<totfact> 0.16271150E+05</totfact>
</mgrwt>
</event>
<event>
 8    1  0.8247621E-018  0.8102832E+02  0.7818608E-02  0.1326158E+00
          1   -1    0    0  501    0  0.00000000000E+00  0.00000000000E+00  0.35548826175E+02  0.35548826532E+02  0.50400000000E-02 0. -1.
         -2   -1    0    0    0  501 -0.00000000000E+00 -0.00000000000E+00 -0.46173035498E+02  0.46173035569E+02  0.25500000000E-02 0.  1.
        -24    2    1    2    0    0 -0.71054273576E-14  0.17763568394E-14 -0.10624209323E+02  0.81721862101E+02  0.81028321725E+02 0.  0.
         66    2    3    3    0    0  0.38141227285E+02 -0.10867971440E+02 -0.13541504952E+02  0.41955195157E+02  0.20000055642E+01 0.  0.
         13    1    3    3    0    0 -0.38141227285E+02  0.10867971440E+02  0.29172956285E+01  0.39766666944E+02  0.10566000000E+00 0. -1.
         13    1    4    4    0    0  0.72557997387E+00 -0.10137914264E+00 -0.39129449448E+00  0.83726904042E+00  0.10566000000E+00 0. -1.
        -13    1    4    4    0    0  0.68488156297E+01 -0.24187118314E+01 -0.21294485618E+01  0.75698188661E+01  0.10566000000E+00 0.  1.
         14    1    4    4    0    0  0.30566831682E+02 -0.83478804657E+01 -0.11020761895E+02  0.33548107250E+02  0.00000000000E+00 0. -1.
<mgrwt>
<rscale>  0 0.81028322E+02</rscale>
<asrwt>0</asrwt>
<pdfrwt beam="1">  1        1 0.54690502E-02 0.81028322E+02</pdfrwt>
<pdfrwt beam="2">  1       -2 0.71035440E-02 0.81028322E+02</pdfrwt>
<totfact> 0.12008902E+05</totfact>
</mgrwt>
</event>
<event>
 8    1  0.8247621E-018  0.7969864E+02  0.7818608E-02  0.1329909E+00
          1   -1    0    0  501    0  0.00000000000E+00  0.00000000000E+00  0.19276941674E+01  0.19277007560E+01  0.50400000000E-02 0. -1.
         -2   -1    0    0    0  501 -0.00000000000E+00 -0.00000000000E+00 -0.82376430331E+03  0.82376430331E+03  0.25500000000E-02 0.  1.
        -24    2    1    2    0    0  0.00000000000E+00 -0.88817841970E-15 -0.82183660914E+03  0.82569200407E+03  0.79698641507E+02 0.  0.
         66    2    3    3    0    0 -0.16631682561E+02  0.66287662457E+01 -0.77971479086E+03  0.77992288625E+03  0.19999998551E+01 0.  0.
         13    1    3    3    0    0  0.16631682561E+02 -0.66287662457E+01 -0.42121818274E+02  0.45769117814E+02  0.10566000000E+00 0. -1.
         13    1    4    4    0    0 -0.12903662180E+01  0.81949944620E+00 -0.82487330879E+02  0.82501560858E+02  0.10566000000E+00 0. -1.
        -13    1    4    4    0    0 -0.76655446865E+01  0.30073595292E+01 -0.32663678867E+03  0.32674058159E+03  0.10566000000E+00 0.  1.
        -14    1    4    4    0    0 -0.76757716566E+01  0.28019072702E+01 -0.37059067132E+03  0.37068074380E+03  0.00000000000E+00 0.  1.
<mgrwt>
<rscale>  0 0.79698642E+02</rscale>
<asrwt>0</asrwt>
<pdfrwt beam="1">  1        1 0.29656950E-03 0.79698642E+02</pdfrwt>
<pdfrwt beam="2">  1       -2 0.12673269E+00 0.79698642E+02</pdfrwt>
<totfact> 0.32560425E+04</totfact>
</mgrwt>
</event>
<event>
 8    1  0.8247621E-018  0.8227834E+02  0.7818608E-02  0.1322707E+00
         -2   -1    0    0    0  501 -0.00000000000E+00  0.00000000000E+00  0.67838809850E+01  0.67838814642E+01  0.25500000000E-02 0.  1.
          1   -1    0    0  501    0  0.00000000000E+00 -0.00000000000E+00 -0.24947834647E+03  0.24947834652E+03  0.50400000000E-02 0. -1.
        -24    2    1    2    0    0  0.00000000000E+00  0.00000000000E+00 -0.24269446549E+03  0.25626222799E+03  0.82278344143E+02 0.  0.
         66    2    3    3    0    0 -0.40445388424E+02 -0.34432346903E+00 -0.98430184101E+02  0.10643518753E+03  0.19999999041E+01 0.  0.
         13    1    3    3    0    0  0.40445388424E+02  0.34432346903E+00 -0.14426428139E+03  0.14982704045E+03  0.10566000000E+00 0. -1.
         13    1    4    4    0    0 -0.10513849244E+02 -0.69306265391E+00 -0.26834354046E+02  0.28829066632E+02  0.10566000000E+00 0. -1.
        -13    1    4    4    0    0 -0.33602282306E+01  0.98867100465E-01 -0.86929852554E+01  0.93209476531E+01  0.10566000000E+00 0.  1.
        -14    1    4    4    0    0 -0.26571310949E+02  0.24987208441E+00 -0.62902844800E+02  0.68285173248E+02  0.00000000000E+00 0.  1.
<mgrwt>
<rscale>  0 0.82278344E+02</rscale>
<asrwt>0</asrwt>
<pdfrwt beam="1">  1        1 0.38381277E-01 0.82278344E+02</pdfrwt>
<pdfrwt beam="2">  1       -2 0.10436742E-02 0.82278344E+02</pdfrwt>
<totfact> 0.16160571E+05</totfact>
</mgrwt>
</event>
<event>
 8    1  0.8622096E-018  0.8349254E+02  0.7818608E-02  0.1319422E+00
         -2   -1    0    0    0  501 -0.00000000000E+00  0.00000000000E+00  0.26130207027E+01  0.26130219470E+01  0.25500000000E-02 0.  1.
          1   -1    0    0  501    0  0.00000000000E+00 -0.00000000000E+00 -0.66694867086E+03  0.66694867088E+03  0.50400000000E-02 0. -1.
        -24    2    1    2    0    0 -0.35527136788E-14  0.00000000000E+00 -0.66433565016E+03  0.66956169283E+03  0.83492541165E+02 0.  0.
         66    2    3    3    0    0  0.28867492296E+02 -0.25348563924E+02 -0.46287114903E+03  0.46446698742E+03  0.20000000716E+01 0.  0.
         13    1    3    3    0    0 -0.28867492296E+02  0.25348563924E+02 -0.20146450113E+03  0.20509470540E+03  0.10566000000E+00 0. -1.
         13    1    4    4    0    0  0.32005444902E+01 -0.30091463480E+01 -0.48635294484E+02  0.48833405374E+02  0.10566000000E+00 0.  1.
        -13    1    4    4    0    0  0.15923358612E+01 -0.10730252262E+01 -0.26119452777E+02  0.26190148797E+02  0.10566000000E+00 0.  1.
        -14    1    4    4    0    0  0.24074611944E+02 -0.21266392350E+02 -0.38811640176E+03  0.38944343325E+03  0.00000000000E+00 0.  1.
<mgrwt>
<rscale>  0 0.83492541E+02</rscale>
<asrwt>0</asrwt>
<pdfrwt beam="1">  1        1 0.10260735E+00 0.83492541E+02</pdfrwt>
<pdfrwt beam="2">  1       -2 0.40200381E-03 0.83492541E+02</pdfrwt>
<totfact> 0.17896069E+05</totfact>
</mgrwt>
</event>
<event>
 8    1  0.8247621E-018  0.8101860E+02  0.7818608E-02  0.1326185E+00
          1   -1    0    0  501    0  0.00000000000E+00  0.00000000000E+00  0.17792343096E+03  0.17792343103E+03  0.50400000000E-02 0. -1.
         -2   -1    0    0    0  501 -0.00000000000E+00 -0.00000000000E+00 -0.92230870959E+01  0.92230874484E+01  0.25500000000E-02 0.  1.
        -24    2    1    2    0    0  0.00000000000E+00 -0.88817841970E-15  0.16870034386E+03  0.18714651848E+03  0.81018598847E+02 0.  0.
         66    2    3    3    0    0  0.35003145766E+02 -0.51655340498E+01  0.38954344975E+02  0.52662547884E+02  0.20000004058E+01 0.  0.
         13    1    3    3    0    0 -0.35003145766E+02  0.51655340498E+01  0.12974599889E+03  0.13448397059E+03  0.10566000000E+00 0. -1.
         13    1    4    4    0    0  0.14762220717E+02 -0.20977142087E+01  0.15122312191E+02  0.21237209220E+02  0.10566000000E+00 0. -1.
        -13    1    4    4    0    0  0.13091217890E+02 -0.22648052259E+01  0.15200644357E+02  0.20188612668E+02  0.10566000000E+00 0.  1.
         14    1    4    4    0    0  0.71497071590E+01 -0.80301461523E+00  0.86313884271E+01  0.11236725996E+02  0.00000000000E+00 0. -1.
<mgrwt>
<rscale>  0 0.81018599E+02</rscale>
<asrwt>0</asrwt>
<pdfrwt beam="1">  1        1 0.27372833E-01 0.81018599E+02</pdfrwt>
<pdfrwt beam="2">  1       -2 0.14189366E-02 0.81018599E+02</pdfrwt>
<totfact> 0.15761916E+05</totfact>
</mgrwt>
</event>
<event>
 8    1  0.8247621E-018  0.8166646E+02  0.7818608E-02  0.1324388E+00
         -2   -1    0    0    0  501 -0.00000000000E+00  0.00000000000E+00  0.40523160670E+02  0.40523160750E+02  0.25500000000E-02 0.  1.
          1   -1    0    0  501    0  0.00000000000E+00 -0.00000000000E+00 -0.41145668716E+02  0.41145669025E+02  0.50400000000E-02 0. -1.
        -24    2    1    2    0    0  0.00000000000E+00  0.00000000000E+00 -0.62250804682E+00  0.81668829775E+02  0.81666457255E+02 0.  0.
         66    2    3    3    0    0 -0.34904144864E+02  0.66106651848E+01  0.19772652798E+02  0.40705749168E+02  0.19999984549E+01 0.  0.
         13    1    3    3    0    0  0.34904144864E+02 -0.66106651848E+01 -0.20395160845E+02  0.40963080607E+02  0.10566000000E+00 0. -1.
         13    1    4    4    0    0 -0.11964967714E+02  0.29795140045E+01  0.72637032308E+01  0.14311202072E+02  0.10566000000E+00 0.  1.
        -13    1    4    4    0    0 -0.22422823680E+02  0.34292580724E+01  0.12282986748E+02  0.25795847732E+02  0.10566000000E+00 0. -1.
         14    1    4    4    0    0 -0.51635347020E+00  0.20189310790E+00  0.22596281938E+00  0.59869936441E+00  0.00000000000E+00 0. -1.
<mgrwt>
<rscale>  0 0.81666457E+02</rscale>
<asrwt>0</asrwt>
<pdfrwt beam="1">  1        1 0.63301029E-02 0.81666457E+02</pdfrwt>
<pdfrwt beam="2">  1       -2 0.62343324E-02 0.81666457E+02</pdfrwt>
<totfact> 0.12035762E+05</totfact>
</mgrwt>
</event>
<event>
 8    1  0.8247621E-018  0.7911184E+02  0.7818608E-02  0.1331591E+00
         -2   -1    0    0    0  501 -0.00000000000E+00  0.00000000000E+00  0.34227162459E+02  0.34227162554E+02  0.25500000000E-02 0.  1.
          1   -1    0    0  501    0  0.00000000000E+00 -0.00000000000E+00 -0.45714305994E+02  0.45714306272E+02  0.50400000000E-02 0. -1.
        -24    2    1    2    0    0  0.00000000000E+00  0.00000000000E+00 -0.11487143534E+02  0.79941468826E+02  0.79111844698E+02 0.  0.
         66    2    3    3    0    0 -0.13296823518E+02 -0.35589138143E+02  0.52885493559E+01  0.38410428562E+02  0.19999996601E+01 0.  0.
         13    1    3    3    0    0  0.13296823518E+02  0.35589138143E+02 -0.16775692890E+02  0.41531040264E+02  0.10566000000E+00 0. -1.
         13    1    4    4    0    0 -0.35547486526E+01 -0.84378220273E+01  0.20388645012E+01  0.93808960679E+01  0.10566000000E+00 0. -1.
        -13    1    4    4    0    0 -0.40247158603E+01 -0.11025565904E+02  0.13623436520E+01  0.11816454016E+02  0.10566000000E+00 0.  1.
         14    1    4    4    0    0 -0.57173590055E+01 -0.16125750211E+02  0.18873412027E+01  0.17213078478E+02  0.00000000000E+00 0. -1.
<mgrwt>
<rscale>  0 0.79111845E+02</rscale>
<asrwt>0</asrwt>
<pdfrwt beam="1">  1        1 0.70329703E-02 0.79111845E+02</pdfrwt>
<pdfrwt beam="2">  1       -2 0.52657173E-02 0.79111845E+02</pdfrwt>
<totfact> 0.13383039E+05</totfact>
</mgrwt>
</event>
<event>
 8    1  0.8247621E-018  0.7833655E+02  0.7818608E-02  0.1333839E+00
          1   -1    0    0  501    0  0.00000000000E+00  0.00000000000E+00  0.32686953264E+03  0.32686953268E+03  0.50400000000E-02 0. -1.
         -2   -1    0    0    0  501 -0.00000000000E+00 -0.00000000000E+00 -0.46934736040E+01  0.46934742968E+01  0.25500000000E-02 0.  1.
        -24    2    1    2    0    0  0.35527136788E-14 -0.17763568394E-14  0.32217605903E+03  0.33156300697E+03  0.78336546891E+02 0.  0.
         66    2    3    3    0    0  0.29758614706E+02 -0.83747300400E+01  0.26281239924E+03  0.26463194901E+03  0.19999970458E+01 0.  0.
         13    1    3    3    0    0 -0.29758614706E+02  0.83747300400E+01  0.59363659794E+02  0.66931057967E+02  0.10566000000E+00 0. -1.
         13    1    4    4    0    0  0.13720435796E+02 -0.43369961805E+01  0.12410646113E+03  0.12493792359E+03  0.10566000000E+00 0. -1.
        -13    1    4    4    0    0  0.88171488915E+01 -0.15960906632E+01  0.76006324028E+02  0.76532751657E+02  0.10566000000E+00 0.  1.
        -14    1    4    4    0    0  0.72210300185E+01 -0.24416431963E+01  0.62699614085E+02  0.63161273755E+02  0.00000000000E+00 0.  1.
<mgrwt>
<rscale>  0 0.78336547E+02</rscale>
<asrwt>0</asrwt>
<pdfrwt beam="1">  1        1 0.50287626E-01 0.78336547E+02</pdfrwt>
<pdfrwt beam="2">  1       -2 0.72207285E-03 0.78336547E+02</pdfrwt>
<totfact> 0.19376152E+05</totfact>
</mgrwt>
</event>
<event>
 8    1  0.8247621E-018  0.7919799E+02  0.7818608E-02  0.1331343E+00
         -2   -1    0    0    0  501 -0.00000000000E+00  0.00000000000E+00  0.22328473498E+03  0.22328473500E+03  0.25500000000E-02 0.  1.
          1   -1    0    0  501    0  0.00000000000E+00 -0.00000000000E+00 -0.70227830283E+01  0.70227848368E+01  0.50400000000E-02 0. -1.
        -24    2    1    2    0    0  0.00000000000E+00  0.00000000000E+00  0.21626195195E+03  0.23030751983E+03  0.79197991319E+02 0.  0.
         66    2    3    3    0    0 -0.11015450405E+02 -0.94462217188E+01  0.21526397023E+03  0.21576178561E+03  0.19999995501E+01 0.  0.
         13    1    3    3    0    0  0.11015450405E+02  0.94462217188E+01  0.99798171790E+00  0.14545734217E+02  0.10566000000E+00 0. -1.
         13    1    4    4    0    0 -0.17433131545E+01 -0.97214641711E+00  0.25766204737E+02  0.25843619715E+02  0.10566000000E+00 0. -1.
        -13    1    4    4    0    0 -0.89452190959E+01 -0.81163089726E+01  0.18511984374E+03  0.18551350120E+03  0.10566000000E+00 0.  1.
        -14    1    4    4    0    0 -0.32691815415E+00 -0.35776632906E+00  0.43779217581E+01  0.44046647030E+01  0.00000000000E+00 0.  1.
<mgrwt>
<rscale>  0 0.79197991E+02</rscale>
<asrwt>0</asrwt>
<pdfrwt beam="1">  1        1 0.10804283E-02 0.79197991E+02</pdfrwt>
<pdfrwt beam="2">  1       -2 0.34351499E-01 0.79197991E+02</pdfrwt>
<totfact> 0.83349115E+04</totfact>
</mgrwt>
</event>
<event>
 8    1  0.8247621E-018  0.8047402E+02  0.7818608E-02  0.1327712E+00
         -2   -1    0    0    0  501 -0.00000000000E+00  0.00000000000E+00  0.55124246133E+01  0.55124252031E+01  0.25500000000E-02 0.  1.
          1   -1    0    0  501    0  0.00000000000E+00 -0.00000000000E+00 -0.29370318986E+03  0.29370318990E+03  0.50400000000E-02 0. -1.
        -24    2    1    2    0    0  0.35527136788E-14  0.35527136788E-14 -0.28819076524E+03  0.29921561510E+03  0.80474015371E+02 0.  0.
         66    2    3    3    0    0  0.23987563754E+02  0.31263171743E+02 -0.17398115805E+03  0.17839908204E+03  0.19999984295E+01 0.  0.
         13    1    3    3    0    0 -0.23987563754E+02 -0.31263171743E+02 -0.11420960720E+03  0.12081653307E+03  0.10566000000E+00 0. -1.
         13    1    4    4    0    0  0.94557721035E+01  0.12680734716E+02 -0.67245990301E+02  0.69081452175E+02  0.10566000000E+00 0. -1.
        -13    1    4    4    0    0  0.13691886674E+02  0.17510322340E+02 -0.10175851307E+03  0.10415798239E+03  0.10566000000E+00 0.  1.
        -14    1    4    4    0    0  0.83990497617E+00  0.10721146861E+01 -0.49766546766E+01  0.51596474724E+01  0.00000000000E+00 0.  1.
<mgrwt>
<rscale>  0 0.80474015E+02</rscale>
<asrwt>0</asrwt>
<pdfrwt beam="1">  1        1 0.45185094E-01 0.80474015E+02</pdfrwt>
<pdfrwt beam="2">  1       -2 0.84806560E-03 0.80474015E+02</pdfrwt>
<totfact> 0.17690822E+05</totfact>
</mgrwt>
</event>
<event>
 8    1  0.8247621E-018  0.7951592E+02  0.7818608E-02  0.1330431E+00
          1   -1    0    0  501    0  0.00000000000E+00  0.00000000000E+00  0.27752000505E+02  0.27752000963E+02  0.50400000000E-02 0. -1.
         -2   -1    0    0    0  501 -0.00000000000E+00 -0.00000000000E+00 -0.56957886701E+02  0.56957886758E+02  0.25500000000E-02 0.  1.
        -24    2    1    2    0    0  0.00000000000E+00  0.00000000000E+00 -0.29205886196E+02  0.84709887721E+02  0.79515918465E+02 0.  0.
         66    2    3    3    0    0 -0.28626500453E+02  0.85092814722E+01 -0.42530975546E+02  0.52007386753E+02  0.19999991527E+01 0.  0.
         13    1    3    3    0    0  0.28626500453E+02 -0.85092814722E+01  0.13325089351E+02  0.32702500968E+02  0.10566000000E+00 0. -1.
         13    1    4    4    0    0 -0.18236827435E+01  0.94110657691E+00 -0.33337452643E+01  0.39161871585E+01  0.10566000000E+00 0. -1.
        -13    1    4    4    0    0 -0.11112875030E+02  0.30638802949E+01 -0.16898466121E+02  0.20456115838E+02  0.10566000000E+00 0.  1.
         14    1    4    4    0    0 -0.15689942679E+02  0.45042946003E+01 -0.22298764161E+02  0.27635083757E+02  0.00000000000E+00 0. -1.
<mgrwt>
<rscale>  0 0.79515918E+02</rscale>
<asrwt>0</asrwt>
<pdfrwt beam="1">  1        1 0.42695386E-02 0.79515918E+02</pdfrwt>
<pdfrwt beam="2">  1       -2 0.87627518E-02 0.79515918E+02</pdfrwt>
<totfact> 0.12137589E+05</totfact>
</mgrwt>
</event>
<event>
 8    1  0.8247621E-018  0.8213518E+02  0.7818608E-02  0.1323099E+00
          1   -1    0    0  501    0  0.00000000000E+00  0.00000000000E+00  0.24157813386E+03  0.24157813391E+03  0.50400000000E-02 0. -1.
         -2   -1    0    0    0  501 -0.00000000000E+00 -0.00000000000E+00 -0.69813724128E+01  0.69813728785E+01  0.25500000000E-02 0.  1.
        -24    2    1    2    0    0 -0.71054273576E-14  0.00000000000E+00  0.23459676144E+03  0.24855950679E+03  0.82135180858E+02 0.  0.
         66    2    3    3    0    0 -0.35724384758E+02 -0.12263872847E+02  0.16596741002E+03  0.17022284050E+03  0.19999992244E+01 0.  0.
         13    1    3    3    0    0  0.35724384758E+02  0.12263872847E+02  0.68629351424E+02  0.78336666284E+02  0.10566000000E+00 0. -1.
         13    1    4    4    0    0 -0.59897298999E+01 -0.22434194997E+01  0.27711458636E+02  0.28440216228E+02  0.10566000000E+00 0.  1.
        -13    1    4    4    0    0 -0.10094531946E+02 -0.39616361075E+01  0.44937909143E+02  0.46227924223E+02  0.10566000000E+00 0. -1.
        -14    1    4    4    0    0 -0.19640122913E+02 -0.60588172399E+01  0.93318042241E+02  0.95554700053E+02  0.00000000000E+00 0.  1.
<mgrwt>
<rscale>  0 0.82135181E+02</rscale>
<asrwt>0</asrwt>
<pdfrwt beam="1">  1        1 0.37165862E-01 0.82135181E+02</pdfrwt>
<pdfrwt beam="2">  1       -2 0.10740575E-02 0.82135181E+02</pdfrwt>
<totfact> 0.16133242E+05</totfact>
</mgrwt>
</event>
<event>
 8    1  0.8247621E-018  0.8082427E+02  0.7818608E-02  0.1326728E+00
         -2   -1    0    0    0  501 -0.00000000000E+00  0.00000000000E+00  0.67188752987E+01  0.67188757826E+01  0.25500000000E-02 0.  1.
          1   -1    0    0  501    0  0.00000000000E+00 -0.00000000000E+00 -0.24306754436E+03  0.24306754441E+03  0.50400000000E-02 0. -1.
        -24    2    1    2    0    0  0.71054273576E-14 -0.88817841970E-15 -0.23634866906E+03  0.24978642019E+03  0.80824268302E+02 0.  0.
         66    2    3    3    0    0  0.39576958904E+02 -0.70203413549E+01 -0.13041953914E+03  0.13648764439E+03  0.20000032147E+01 0.  0.
         13    1    3    3    0    0 -0.39576958904E+02  0.70203413549E+01 -0.10592912992E+03  0.11329877580E+03  0.10566000000E+00 0. -1.
         13    1    4    4    0    0  0.69091761334E+01 -0.77014935235E+00 -0.24451363092E+02  0.25420664152E+02  0.10566000000E+00 0. -1.
        -13    1    4    4    0    0  0.88437647923E+01 -0.15003580531E+01 -0.28008625363E+02  0.29410159958E+02  0.10566000000E+00 0.  1.
         14    1    4    4    0    0  0.23824017978E+02 -0.47498339495E+01 -0.77959550687E+02  0.81656820282E+02  0.00000000000E+00 0. -1.
<mgrwt>
<rscale>  0 0.80824268E+02</rscale>
<asrwt>0</asrwt>
<pdfrwt beam="1">  1        1 0.37395000E-01 0.80824268E+02</pdfrwt>
<pdfrwt beam="2">  1       -2 0.10336733E-02 0.80824268E+02</pdfrwt>
<totfact> 0.16856483E+05</totfact>
</mgrwt>
</event>
<event>
 8    1  0.8247621E-018  0.7899018E+02  0.7818608E-02  0.1331942E+00
         -2   -1    0    0    0  501 -0.00000000000E+00  0.00000000000E+00  0.40538341977E+02  0.40538342057E+02  0.25500000000E-02 0.  1.
          1   -1    0    0  501    0  0.00000000000E+00 -0.00000000000E+00 -0.38478683827E+02  0.38478684157E+02  0.50400000000E-02 0. -1.
        -24    2    1    2    0    0 -0.44408920985E-15  0.00000000000E+00  0.20596581498E+01  0.79017026215E+02  0.78990178125E+02 0.  0.
         66    2    3    3    0    0 -0.36106292007E+01  0.32013608991E+02  0.23840634889E+02  0.40128339999E+02  0.19999988394E+01 0.  0.
         13    1    3    3    0    0  0.36106292007E+01 -0.32013608991E+02 -0.21780976739E+02  0.38888686216E+02  0.10566000000E+00 0. -1.
         13    1    4    4    0    0 -0.97130054602E+00  0.53760485099E+01  0.44215806511E+01  0.70290014811E+01  0.10566000000E+00 0. -1.
        -13    1    4    4    0    0  0.52268794516E-01  0.42996322647E+01  0.29226718553E+01  0.52002638825E+01  0.10566000000E+00 0.  1.
        -14    1    4    4    0    0 -0.26915974492E+01  0.22337928216E+02  0.16496382383E+02  0.27899074636E+02  0.00000000000E+00 0.  1.
<mgrwt>
<rscale>  0 0.78990178E+02</rscale>
<asrwt>0</asrwt>
<pdfrwt beam="1">  1        1 0.59197976E-02 0.78990178E+02</pdfrwt>
<pdfrwt beam="2">  1       -2 0.62366680E-02 0.78990178E+02</pdfrwt>
<totfact> 0.13077813E+05</totfact>
</mgrwt>
</event>
<event>
 8    1  0.8247621E-018  0.7888653E+02  0.7818608E-02  0.1332241E+00
         -2   -1    0    0    0  501 -0.00000000000E+00  0.00000000000E+00  0.61367256574E+01  0.61367261872E+01  0.25500000000E-02 0.  1.
          1   -1    0    0  501    0  0.00000000000E+00 -0.00000000000E+00 -0.25351813125E+03  0.25351813130E+03  0.50400000000E-02 0. -1.
        -24    2    1    2    0    0 -0.71054273576E-14  0.00000000000E+00 -0.24738140559E+03  0.25965485748E+03  0.78886533602E+02 0.  0.
         66    2    3    3    0    0  0.33066698497E+02  0.16845174639E+02 -0.80028977248E+02  0.88237201176E+02  0.20000034958E+01 0.  0.
         13    1    3    3    0    0 -0.33066698497E+02 -0.16845174639E+02 -0.16735242834E+03  0.17141765631E+03  0.10566000000E+00 0. -1.
         13    1    4    4    0    0  0.41412474510E+01  0.19900644892E+01 -0.92704839427E+01  0.10347140846E+02  0.10566000000E+00 0. -1.
        -13    1    4    4    0    0  0.78621249167E+01  0.46493975013E+01 -0.18686701634E+02  0.20799853060E+02  0.10566000000E+00 0.  1.
        -14    1    4    4    0    0  0.21063326130E+02  0.10205712648E+02 -0.52071791671E+02  0.57090207270E+02  0.00000000000E+00 0.  1.
<mgrwt>
<rscale>  0 0.78886534E+02</rscale>
<asrwt>0</asrwt>
<pdfrwt beam="1">  1        1 0.39002782E-01 0.78886534E+02</pdfrwt>
<pdfrwt beam="2">  1       -2 0.94411188E-03 0.78886534E+02</pdfrwt>
<totfact> 0.18121341E+05</totfact>
</mgrwt>
</event>
<event>
 8    1  0.8247621E-018  0.7400952E+02  0.7818608E-02  0.1346966E+00
         -2   -1    0    0    0  501 -0.00000000000E+00  0.00000000000E+00  0.24403526108E+01  0.24403539431E+01  0.25500000000E-02 0.  1.
          1   -1    0    0  501    0  0.00000000000E+00 -0.00000000000E+00 -0.56112874937E+03  0.56112874940E+03  0.50400000000E-02 0. -1.
        -24    2    1    2    0    0  0.00000000000E+00  0.00000000000E+00 -0.55868839676E+03  0.56356910334E+03  0.74009523450E+02 0.  0.
         66    2    3    3    0    0 -0.82507585556E+01  0.10852566613E+02 -0.54129081335E+03  0.54146615577E+03  0.20000005875E+01 0.  0.
         13    1    3    3    0    0  0.82507585556E+01 -0.10852566613E+02 -0.17397583411E+02  0.22102947573E+02  0.10566000000E+00 0. -1.
         13    1    4    4    0    0 -0.92962143012E+00  0.14042221047E+01 -0.74835955977E+02  0.74854976500E+02  0.10566000000E+00 0. -1.
        -13    1    4    4    0    0 -0.42266925244E+01  0.46211920399E+01 -0.27014540656E+03  0.27021800864E+03  0.10566000000E+00 0.  1.
         14    1    4    4    0    0 -0.30944446011E+01  0.48271524685E+01 -0.19630945082E+03  0.19639317063E+03  0.00000000000E+00 0. -1.
<mgrwt>
<rscale>  0 0.74009523E+02</rscale>
<asrwt>0</asrwt>
<pdfrwt beam="1">  1        1 0.86327398E-01 0.74009523E+02</pdfrwt>
<pdfrwt beam="2">  1       -2 0.37543941E-03 0.74009523E+02</pdfrwt>
<totfact> 0.24302764E+05</totfact>
</mgrwt>
</event>
<event>
 8    1  0.8247621E-018  0.7660906E+02  0.7818608E-02  0.1338959E+00
         -2   -1    0    0    0  501 -0.00000000000E+00  0.00000000000E+00  0.85031189817E+02  0.85031189855E+02  0.25500000000E-02 0.  1.
          1   -1    0    0  501    0  0.00000000000E+00 -0.00000000000E+00 -0.17255278678E+02  0.17255279414E+02  0.50400000000E-02 0. -1.
        -24    2    1    2    0    0  0.35527136788E-14  0.35527136788E-14  0.67775911139E+02  0.10228646927E+03  0.76609057330E+02 0.  0.
         66    2    3    3    0    0  0.25543463963E+02  0.27666119871E+02  0.43098431754E+02  0.57265675266E+02  0.20000010005E+01 0.  0.
         13    1    3    3    0    0 -0.25543463963E+02 -0.27666119871E+02  0.24677479384E+02  0.45020794004E+02  0.10566000000E+00 0. -1.
         13    1    4    4    0    0  0.71898400882E+01  0.69352274333E+01  0.12159555280E+02  0.15737125808E+02  0.10566000000E+00 0. -1.
        -13    1    4    4    0    0  0.62053034244E+01  0.73506536073E+01  0.11267201596E+02  0.14815495094E+02  0.10566000000E+00 0.  1.
         14    1    4    4    0    0  0.12148320450E+02  0.13380238831E+02  0.19671674879E+02  0.26713054364E+02  0.00000000000E+00 0. -1.
<mgrwt>
<rscale>  0 0.76609057E+02</rscale>
<asrwt>0</asrwt>
<pdfrwt beam="1">  1        1 0.26546583E-02 0.76609057E+02</pdfrwt>
<pdfrwt beam="2">  1       -2 0.13081722E-01 0.76609057E+02</pdfrwt>
<totfact> 0.12314481E+05</totfact>
</mgrwt>
</event>
<event>
 8    1  0.8247621E-018  0.8006716E+02  0.7818608E-02  0.1328861E+00
         -2   -1    0    0    0  501 -0.00000000000E+00  0.00000000000E+00  0.34333889682E+01  0.34333899152E+01  0.25500000000E-02 0.  1.
          1   -1    0    0  501    0  0.00000000000E+00 -0.00000000000E+00 -0.46679452816E+03  0.46679452819E+03  0.50400000000E-02 0. -1.
        -24    2    1    2    0    0 -0.17763568394E-14  0.00000000000E+00 -0.46336113919E+03  0.47022791810E+03  0.80067157123E+02 0.  0.
         66    2    3    3    0    0 -0.91946544102E+01 -0.38911678138E+02 -0.24017602561E+03  0.24348959657E+03  0.19999980452E+01 0.  0.
         13    1    3    3    0    0  0.91946544102E+01  0.38911678138E+02 -0.22318511358E+03  0.22673832154E+03  0.10566000000E+00 0. -1.
         13    1    4    4    0    0 -0.20121943628E+01 -0.83954614410E+01 -0.53859180204E+02  0.54546816179E+02  0.10566000000E+00 0.  1.
        -13    1    4    4    0    0 -0.16536417452E+01 -0.61176413890E+01 -0.41421981859E+02  0.41904078708E+02  0.10566000000E+00 0.  1.
        -14    1    4    4    0    0 -0.55288183021E+01 -0.24398575308E+02 -0.14489486355E+03  0.14703870168E+03  0.00000000000E+00 0.  1.
<mgrwt>
<rscale>  0 0.80067157E+02</rscale>
<asrwt>0</asrwt>
<pdfrwt beam="1">  1        1 0.71814493E-01 0.80067157E+02</pdfrwt>
<pdfrwt beam="2">  1       -2 0.52821413E-03 0.80067157E+02</pdfrwt>
<totfact> 0.19395989E+05</totfact>
</mgrwt>
</event>
<event>
 8    1  0.8247621E-018  0.8192872E+02  0.7818608E-02  0.1323665E+00
          1   -1    0    0  501    0  0.00000000000E+00  0.00000000000E+00  0.15376279329E+03  0.15376279337E+03  0.50400000000E-02 0. -1.
         -2   -1    0    0    0  501 -0.00000000000E+00 -0.00000000000E+00 -0.10913425140E+02  0.10913425438E+02  0.25500000000E-02 0.  1.
        -24    2    1    2    0    0 -0.11102230246E-15  0.71054273576E-14  0.14284936815E+03  0.16467621881E+03  0.81928719390E+02 0.  0.
         66    2    3    3    0    0 -0.55265740411E+00 -0.39700181454E+02  0.51400992899E+02  0.64980550210E+02  0.19999992206E+01 0.  0.
         13    1    3    3    0    0  0.55265740411E+00  0.39700181454E+02  0.91448375251E+02  0.99695668600E+02  0.10566000000E+00 0. -1.
         13    1    4    4    0    0  0.20069931127E-01 -0.98066152919E+00  0.92005693932E+00  0.13489880074E+01  0.10566000000E+00 0.  1.
        -13    1    4    4    0    0 -0.39345163603E-02 -0.38292399752E+00  0.49912722524E+00  0.63791715048E+00  0.10566000000E+00 0.  1.
        -14    1    4    4    0    0 -0.56879281888E+00 -0.38336595927E+02  0.49981808734E+02  0.62993645052E+02  0.00000000000E+00 0.  1.
<mgrwt>
<rscale>  0 0.81928719E+02</rscale>
<asrwt>0</asrwt>
<pdfrwt beam="1">  1        1 0.23655812E-01 0.81928719E+02</pdfrwt>
<pdfrwt beam="2">  1       -2 0.16789887E-02 0.81928719E+02</pdfrwt>
<totfact> 0.14882008E+05</totfact>
</mgrwt>
</event>
<event>
 8    1  0.8247621E-018  0.7743972E+02  0.7818608E-02  0.1336478E+00
         -2   -1    0    0    0  501 -0.00000000000E+00  0.00000000000E+00  0.36075565318E+03  0.36075565319E+03  0.25500000000E-02 0.  1.
          1   -1    0    0  501    0  0.00000000000E+00 -0.00000000000E+00 -0.41557960727E+01  0.41557991289E+01  0.50400000000E-02 0. -1.
        -24    2    1    2    0    0 -0.88817841970E-15 -0.35527136788E-14  0.35659985711E+03  0.36491145232E+03  0.77439718129E+02 0.  0.
         66    2    3    3    0    0 -0.75431683891E+01 -0.19359289946E+02  0.33223711483E+03  0.33289214764E+03  0.19999990638E+01 0.  0.
         13    1    3    3    0    0  0.75431683891E+01  0.19359289946E+02  0.24362742282E+02  0.32019304678E+02  0.10566000000E+00 0. -1.
         13    1    4    4    0    0 -0.15482747020E+01 -0.49486095446E+01  0.77863771450E+02  0.78036298986E+02  0.10566000000E+00 0. -1.
        -13    1    4    4    0    0 -0.59019927399E+01 -0.13223492554E+02  0.23368730702E+03  0.23413556522E+03  0.10566000000E+00 0.  1.
         14    1    4    4    0    0 -0.92900947179E-01 -0.11871878473E+01  0.20686036353E+02  0.20720283434E+02  0.00000000000E+00 0. -1.
<mgrwt>
<rscale>  0 0.77439718E+02</rscale>
<asrwt>0</asrwt>
<pdfrwt beam="1">  1        1 0.63935309E-03 0.77439718E+02</pdfrwt>
<pdfrwt beam="2">  1       -2 0.55500904E-01 0.77439718E+02</pdfrwt>
<totfact> 0.68662339E+04</totfact>
</mgrwt>
</event>
<event>
 8    1  0.8247621E-018  0.7810375E+02  0.7818608E-02  0.1334520E+00
         -2   -1    0    0    0  501 -0.00000000000E+00  0.00000000000E+00  0.25717830907E+03  0.25717830908E+03  0.25500000000E-02 0.  1.
          1   -1    0    0  501    0  0.00000000000E+00 -0.00000000000E+00 -0.59299266837E+01  0.59299288255E+01  0.50400000000E-02 0. -1.
        -24    2    1    2    0    0  0.00000000000E+00  0.35527136788E-14  0.25124838238E+03  0.26310823790E+03  0.78103746410E+02 0.  0.
         66    2    3    3    0    0 -0.20309085256E+01 -0.17032546966E+02  0.24379419059E+03  0.24440507280E+03  0.19999997368E+01 0.  0.
         13    1    3    3    0    0  0.20309085256E+01  0.17032546966E+02  0.74541917910E+01  0.18703165104E+02  0.10566000000E+00 0. -1.
         13    1    4    4    0    0 -0.12092016756E+01 -0.89136223227E+01  0.13483721224E+03  0.13513696682E+03  0.10566000000E+00 0.  1.
        -13    1    4    4    0    0 -0.25820717409E+00 -0.52657753164E+01  0.76226860857E+02  0.76409034419E+02  0.10566000000E+00 0. -1.
         14    1    4    4    0    0 -0.56349967590E+00 -0.28531493273E+01  0.32730117489E+02  0.32859071560E+02  0.00000000000E+00 0. -1.
<mgrwt>
<rscale>  0 0.78103746E+02</rscale>
<asrwt>0</asrwt>
<pdfrwt beam="1">  1        1 0.91229655E-03 0.78103746E+02</pdfrwt>
<pdfrwt beam="2">  1       -2 0.39565895E-01 0.78103746E+02</pdfrwt>
<totfact> 0.80928339E+04</totfact>
</mgrwt>
</event>
<event>
 8    1  0.8247621E-018  0.7797720E+02  0.7818608E-02  0.1334892E+00
         -2   -1    0    0    0  501 -0.00000000000E+00  0.00000000000E+00  0.26081631407E+01  0.26081643872E+01  0.25500000000E-02 0.  1.
          1   -1    0    0  501    0  0.00000000000E+00 -0.00000000000E+00 -0.58282808831E+03  0.58282808834E+03  0.50400000000E-02 0. -1.
        -24    2    1    2    0    0  0.00000000000E+00 -0.35527136788E-14 -0.58021992517E+03  0.58543625272E+03  0.77977204581E+02 0.  0.
         66    2    3    3    0    0  0.22296488346E+02  0.25894586936E+02 -0.43084700644E+03  0.43220458811E+03  0.19999999745E+01 0.  0.
         13    1    3    3    0    0 -0.22296488346E+02 -0.25894586936E+02 -0.14937291873E+03  0.15323166461E+03  0.10566000000E+00 0. -1.
         13    1    4    4    0    0  0.58691111070E+01  0.76912295173E+01 -0.12915861641E+03  0.12952050352E+03  0.10566000000E+00 0. -1.
        -13    1    4    4    0    0  0.48673980590E+01  0.58887384529E+01 -0.94084255133E+02  0.94393998922E+02  0.10566000000E+00 0.  1.
         14    1    4    4    0    0  0.11559979180E+02  0.12314618966E+02 -0.20760413490E+03  0.20829008567E+03  0.00000000000E+00 0. -1.
<mgrwt>
<rscale>  0 0.77977205E+02</rscale>
<asrwt>0</asrwt>
<pdfrwt beam="1">  1        1 0.89665757E-01 0.77977205E+02</pdfrwt>
<pdfrwt beam="2">  1       -2 0.40125643E-03 0.77977205E+02</pdfrwt>
<totfact> 0.21275387E+05</totfact>
</mgrwt>
</event>
<event>
 8    1  0.8247621E-018  0.7929600E+02  0.7818608E-02  0.1331061E+00
         -2   -1    0    0    0  501 -0.00000000000E+00  0.00000000000E+00  0.39274021686E+01  0.39274029964E+01  0.25500000000E-02 0.  1.
          1   -1    0    0  501    0  0.00000000000E+00 -0.00000000000E+00 -0.40025533461E+03  0.40025533464E+03  0.50400000000E-02 0. -1.
        -24    2    1    2    0    0  0.00000000000E+00  0.00000000000E+00 -0.39632793244E+03  0.40418273763E+03  0.79295998457E+02 0.  0.
         66    2    3    3    0    0 -0.85815213961E+01  0.37376740674E+02 -0.24908123794E+03  0.25202405909E+03  0.20000029635E+01 0.  0.
         13    1    3    3    0    0  0.85815213961E+01 -0.37376740674E+02 -0.14724669449E+03  0.15215867854E+03  0.10566000000E+00 0. -1.
         13    1    4    4    0    0 -0.44776421020E+00  0.10230104386E+01 -0.87262638449E+01  0.87980615974E+01  0.10566000000E+00 0. -1.
        -13    1    4    4    0    0 -0.24944869307E+01  0.12824718007E+02 -0.84370505039E+02  0.85376162608E+02  0.10566000000E+00 0.  1.
         14    1    4    4    0    0 -0.56392702552E+01  0.23529012229E+02 -0.15598446906E+03  0.15784983488E+03  0.00000000000E+00 0. -1.
<mgrwt>
<rscale>  0 0.79295998E+02</rscale>
<asrwt>0</asrwt>
<pdfrwt beam="1">  1        1 0.61577712E-01 0.79295998E+02</pdfrwt>
<pdfrwt beam="2">  1       -2 0.60421610E-03 0.79295998E+02</pdfrwt>
<totfact> 0.19441381E+05</totfact>
</mgrwt>
</event>
<event>
 8    1  0.8247621E-018  0.7941696E+02  0.7818608E-02  0.1330714E+00
          1   -1    0    0  501    0  0.00000000000E+00  0.00000000000E+00  0.14813423399E+02  0.14813424256E+02  0.50400000000E-02 0. -1.
         -2   -1    0    0    0  501 -0.00000000000E+00 -0.00000000000E+00 -0.10644151923E+03  0.10644151926E+03  0.25500000000E-02 0.  1.
        -24    2    1    2    0    0 -0.44408920985E-15  0.00000000000E+00 -0.91628095830E+02  0.12125494352E+03  0.79416959031E+02 0.  0.
         66    2    3    3    0    0  0.36107442763E+01 -0.38351303724E+02 -0.60399770721E+02  0.71665837609E+02  0.20000013724E+01 0.  0.
         13    1    3    3    0    0 -0.36107442763E+01  0.38351303724E+02 -0.31228325109E+02  0.49589105908E+02  0.10566000000E+00 0. -1.
         13    1    4    4    0    0  0.48191480511E-02 -0.31233802454E+01 -0.52153407835E+01  0.60800058310E+01  0.10566000000E+00 0. -1.
        -13    1    4    4    0    0  0.86696373436E+00 -0.49440572078E+01 -0.71809448892E+01  0.87619895759E+01  0.10566000000E+00 0.  1.
        -14    1    4    4    0    0  0.27389613939E+01 -0.30283866271E+02 -0.48003485048E+02  0.56823842202E+02  0.00000000000E+00 0.  1.
<mgrwt>
<rscale>  0 0.79416959E+02</rscale>
<asrwt>0</asrwt>
<pdfrwt beam="1">  1        1 0.22789884E-02 0.79416959E+02</pdfrwt>
<pdfrwt beam="2">  1       -2 0.16375618E-01 0.79416959E+02</pdfrwt>
<totfact> 0.10643834E+05</totfact>
</mgrwt>
</event>
<event>
 8    1  0.8247621E-018  0.7894674E+02  0.7818608E-02  0.1332067E+00
         -2   -1    0    0    0  501 -0.00000000000E+00  0.00000000000E+00  0.33672732066E+02  0.33672732163E+02  0.25500000000E-02 0.  1.
          1   -1    0    0  501    0  0.00000000000E+00 -0.00000000000E+00 -0.46273250351E+02  0.46273250625E+02  0.50400000000E-02 0. -1.
        -24    2    1    2    0    0  0.00000000000E+00  0.00000000000E+00 -0.12600518284E+02  0.79945982788E+02  0.78946735860E+02 0.  0.
         66    2    3    3    0    0  0.26977612431E+02 -0.11375130642E+02  0.20468126161E+02  0.35778895731E+02  0.20000053992E+01 0.  0.
         13    1    3    3    0    0 -0.26977612431E+02  0.11375130642E+02 -0.33068644445E+02  0.44167087057E+02  0.10566000000E+00 0. -1.
         13    1    4    4    0    0  0.78516310415E+01 -0.30011854118E+01  0.50561371244E+01  0.98097354982E+01  0.10566000000E+00 0. -1.
        -13    1    4    4    0    0  0.68871548725E+01 -0.31506962262E+01  0.50455692166E+01  0.91010286068E+01  0.10566000000E+00 0.  1.
         14    1    4    4    0    0  0.12238826517E+02 -0.52232490035E+01  0.10366419820E+02  0.16868131626E+02  0.00000000000E+00 0. -1.
<mgrwt>
<rscale>  0 0.78946736E+02</rscale>
<asrwt>0</asrwt>
<pdfrwt beam="1">  1        1 0.71189616E-02 0.78946736E+02</pdfrwt>
<pdfrwt beam="2">  1       -2 0.51804203E-02 0.78946736E+02</pdfrwt>
<totfact> 0.13486873E+05</totfact>
</mgrwt>
</event>
<event>
 8    1  0.8247621E-018  0.8149696E+02  0.7818608E-02  0.1324856E+00
         -2   -1    0    0    0  501 -0.00000000000E+00  0.00000000000E+00  0.15435465850E+02  0.15435466060E+02  0.25500000000E-02 0.  1.
          1   -1    0    0  501    0  0.00000000000E+00 -0.00000000000E+00 -0.10757294218E+03  0.10757294230E+03  0.50400000000E-02 0. -1.
        -24    2    1    2    0    0  0.35527136788E-14 -0.35527136788E-14 -0.92137476328E+02  0.12300840836E+03  0.81496956890E+02 0.  0.
         66    2    3    3    0    0 -0.22364972930E+02  0.25310611888E+02 -0.11756698230E+02  0.35819534410E+02  0.20000009547E+01 0.  0.
         13    1    3    3    0    0  0.22364972930E+02 -0.25310611888E+02 -0.80380778098E+02  0.87188873946E+02  0.10566000000E+00 0. -1.
         13    1    4    4    0    0 -0.11396344514E+02  0.12030779291E+02 -0.57792968306E+01  0.17550719488E+02  0.10566000000E+00 0. -1.
        -13    1    4    4    0    0 -0.69813236914E+01  0.77383385754E+01 -0.32550520361E+01  0.10919125065E+02  0.10566000000E+00 0.  1.
        -14    1    4    4    0    0 -0.39873047245E+01  0.55414940207E+01 -0.27223493635E+01  0.73496898577E+01  0.00000000000E+00 0.  1.
<mgrwt>
<rscale>  0 0.81496957E+02</rscale>
<asrwt>0</asrwt>
<pdfrwt beam="1">  1        1 0.16549683E-01 0.81496957E+02</pdfrwt>
<pdfrwt beam="2">  1       -2 0.23746871E-02 0.81496957E+02</pdfrwt>
<totfact> 0.14155635E+05</totfact>
</mgrwt>
</event>
<event>
 8    1  0.8247621E-018  0.7995468E+02  0.7818608E-02  0.1329180E+00
          1   -1    0    0  501    0  0.00000000000E+00  0.00000000000E+00  0.17572578464E+01  0.17572650740E+01  0.50400000000E-02 0. -1.
         -2   -1    0    0    0  501 -0.00000000000E+00 -0.00000000000E+00 -0.90947639597E+03  0.90947639598E+03  0.25500000000E-02 0.  1.
        -24    2    1    2    0    0  0.00000000000E+00 -0.35527136788E-14 -0.90771913813E+03  0.91123366105E+03  0.79954682854E+02 0.  0.
         66    2    3    3    0    0 -0.45338184543E+01 -0.31589270891E+02 -0.72808188736E+03  0.72878369373E+03  0.20000030046E+01 0.  0.
         13    1    3    3    0    0  0.45338184543E+01  0.31589270891E+02 -0.17963725077E+03  0.18244996731E+03  0.10566000000E+00 0. -1.
         13    1    4    4    0    0 -0.15785674423E+01 -0.95134189993E+01 -0.23770048340E+03  0.23789604450E+03  0.10566000000E+00 0. -1.
        -13    1    4    4    0    0 -0.91862932045E+00 -0.45884427390E+01 -0.10041724837E+03  0.10052627826E+03  0.10566000000E+00 0.  1.
         14    1    4    4    0    0 -0.20366216915E+01 -0.17487409153E+02 -0.38996415558E+03  0.39036137097E+03  0.00000000000E+00 0. -1.
<mgrwt>
<rscale>  0 0.79954683E+02</rscale>
<asrwt>0</asrwt>
<pdfrwt beam="1">  1        1 0.27034864E-03 0.79954683E+02</pdfrwt>
<pdfrwt beam="2">  1       -2 0.13991907E+00 0.79954683E+02</pdfrwt>
<totfact> 0.29071868E+04</totfact>
</mgrwt>
</event>
<event>
 8    1  0.8247621E-018  0.7611286E+02  0.7818608E-02  0.1340459E+00
         -2   -1    0    0    0  501 -0.00000000000E+00  0.00000000000E+00  0.15681221275E+03  0.15681221277E+03  0.25500000000E-02 0.  1.
          1   -1    0    0  501    0  0.00000000000E+00 -0.00000000000E+00 -0.92358360886E+01  0.92358374638E+01  0.50400000000E-02 0. -1.
        -24    2    1    2    0    0  0.00000000000E+00  0.00000000000E+00  0.14757637666E+03  0.16604805023E+03  0.76112863814E+02 0.  0.
         66    2    3    3    0    0  0.19465965553E+02  0.79330963572E+01  0.14297995369E+03  0.14453070604E+03  0.19999997906E+01 0.  0.
         13    1    3    3    0    0 -0.19465965553E+02 -0.79330963572E+01  0.45964229655E+01  0.21517344186E+02  0.10566000000E+00 0. -1.
         13    1    4    4    0    0  0.70806328718E+00  0.31350276589E+00  0.36820655682E+01  0.37640946437E+01  0.10566000000E+00 0. -1.
        -13    1    4    4    0    0  0.16344907063E+02  0.65689337882E+01  0.12375719099E+03  0.12500464137E+03  0.10566000000E+00 0.  1.
        -14    1    4    4    0    0  0.24129952032E+01  0.10506598031E+01  0.15540697131E+02  0.15761970029E+02  0.00000000000E+00 0.  1.
<mgrwt>
<rscale>  0 0.76112864E+02</rscale>
<asrwt>0</asrwt>
<pdfrwt beam="1">  1        1 0.14208981E-02 0.76112864E+02</pdfrwt>
<pdfrwt beam="2">  1       -2 0.24124953E-01 0.76112864E+02</pdfrwt>
<totfact> 0.10584204E+05</totfact>
</mgrwt>
</event>
<event>
 8    1  0.8247621E-018  0.7914192E+02  0.7818608E-02  0.1331504E+00
         -2   -1    0    0    0  501 -0.00000000000E+00  0.00000000000E+00  0.22894273222E+02  0.22894273364E+02  0.25500000000E-02 0.  1.
          1   -1    0    0  501    0  0.00000000000E+00 -0.00000000000E+00 -0.68395304027E+02  0.68395304213E+02  0.50400000000E-02 0. -1.
        -24    2    1    2    0    0 -0.35527136788E-14  0.71054273576E-14 -0.45501030805E+02  0.91289577577E+02  0.79141917906E+02 0.  0.
         66    2    3    3    0    0  0.24486775030E+02 -0.28121171957E+02 -0.75733164628E+01  0.38101936693E+02  0.19999984748E+01 0.  0.
         13    1    3    3    0    0 -0.24486775030E+02  0.28121171957E+02 -0.37927714342E+02  0.53187640884E+02  0.10566000000E+00 0. -1.
         13    1    4    4    0    0  0.72577299240E+01 -0.83568933691E+01 -0.14712132395E+01  0.11166375547E+02  0.10566000000E+00 0. -1.
        -13    1    4    4    0    0  0.88906112770E+00 -0.79557665095E+00 -0.22020203786E+00  0.12177950851E+01  0.10566000000E+00 0.  1.
        -14    1    4    4    0    0  0.16339983978E+02 -0.18968701937E+02 -0.58819011855E+01  0.25717766060E+02  0.00000000000E+00 0.  1.
<mgrwt>
<rscale>  0 0.79141918E+02</rscale>
<asrwt>0</asrwt>
<pdfrwt beam="1">  1        1 0.10522354E-01 0.79141918E+02</pdfrwt>
<pdfrwt beam="2">  1       -2 0.35221959E-02 0.79141918E+02</pdfrwt>
<totfact> 0.14234088E+05</totfact>
</mgrwt>
</event>
<event>
 8    1  0.8707747E-018  0.8376615E+02  0.7818608E-02  0.1318691E+00
          1   -1    0    0  501    0  0.00000000000E+00  0.00000000000E+00  0.29968583694E+02  0.29968584118E+02  0.50400000000E-02 0. -1.
         -2   -1    0    0    0  501 -0.00000000000E+00 -0.00000000000E+00 -0.58534360820E+02  0.58534360876E+02  0.25500000000E-02 0.  1.
        -24    2    1    2    0    0 -0.17763568394E-14  0.00000000000E+00 -0.28565777126E+02  0.88502944994E+02  0.83766148591E+02 0.  0.
         66    2    3    3    0    0 -0.11353993614E+02 -0.64953985235E+01 -0.56302352520E+02  0.57836478755E+02  0.20000006452E+01 0.  0.
         13    1    3    3    0    0  0.11353993614E+02  0.64953985235E+01  0.27736575393E+02  0.30666466238E+02  0.10566000000E+00 0. -1.
         13    1    4    4    0    0 -0.47005472634E+01 -0.22834660115E+01 -0.21565119020E+02  0.22189521941E+02  0.10566000000E+00 0. -1.
        -13    1    4    4    0    0 -0.61413292371E+01 -0.34177787135E+01 -0.29564185416E+02  0.30388309586E+02  0.10566000000E+00 0.  1.
         14    1    4    4    0    0 -0.51211711353E+00 -0.79415379852E+00 -0.51730480837E+01  0.52586472281E+01  0.00000000000E+00 0. -1.
<mgrwt>
<rscale>  0 0.83766149E+02</rscale>
<asrwt>0</asrwt>
<pdfrwt beam="1">  1        1 0.46105514E-02 0.83766149E+02</pdfrwt>
<pdfrwt beam="2">  1       -2 0.90052863E-02 0.83766149E+02</pdfrwt>
<totfact> 0.10587597E+05</totfact>
</mgrwt>
</event>
<event>
 8    1  0.8247621E-018  0.7908957E+02  0.7818608E-02  0.1331655E+00
         -2   -1    0    0    0  501 -0.00000000000E+00  0.00000000000E+00  0.16159161505E+03  0.16159161507E+03  0.25500000000E-02 0.  1.
          1   -1    0    0  501    0  0.00000000000E+00 -0.00000000000E+00 -0.96774197260E+01  0.96774210384E+01  0.50400000000E-02 0. -1.
        -24    2    1    2    0    0  0.00000000000E+00 -0.17763568394E-14  0.15191419532E+03  0.17126903610E+03  0.79089569403E+02 0.  0.
         66    2    3    3    0    0 -0.32978016877E+02 -0.13640508747E+02  0.11276638196E+03  0.11829568874E+03  0.19999995547E+01 0.  0.
         13    1    3    3    0    0  0.32978016877E+02  0.13640508747E+02  0.39147813359E+02  0.52973347363E+02  0.10566000000E+00 0. -1.
         13    1    4    4    0    0 -0.96802603495E+01 -0.44967663955E+01  0.33331363459E+02  0.34998847160E+02  0.10566000000E+00 0. -1.
        -13    1    4    4    0    0 -0.19433865488E+02 -0.81279962695E+01  0.65974755252E+02  0.69256183447E+02  0.10566000000E+00 0.  1.
         14    1    4    4    0    0 -0.38638910397E+01 -0.10157460817E+01  0.13460263249E+02  0.14040658133E+02  0.00000000000E+00 0. -1.
<mgrwt>
<rscale>  0 0.79089569E+02</rscale>
<asrwt>0</asrwt>
<pdfrwt beam="1">  1        1 0.14888340E-02 0.79089569E+02</pdfrwt>
<pdfrwt beam="2">  1       -2 0.24860247E-01 0.79089569E+02</pdfrwt>
<totfact> 0.94922133E+04</totfact>
</mgrwt>
</event>
<event>
 8    1  0.8247621E-018  0.7935379E+02  0.7818608E-02  0.1330895E+00
          1   -1    0    0  501    0  0.00000000000E+00  0.00000000000E+00  0.35914104300E+01  0.35914139664E+01  0.50400000000E-02 0. -1.
         -2   -1    0    0    0  501 -0.00000000000E+00 -0.00000000000E+00 -0.43833897425E+03  0.43833897426E+03  0.25500000000E-02 0.  1.
        -24    2    1    2    0    0  0.00000000000E+00  0.88817841970E-15 -0.43474756382E+03  0.44193038822E+03  0.79353788745E+02 0.  0.
         66    2    3    3    0    0 -0.36892841809E+02 -0.68623721673E+01 -0.28884770438E+03  0.29128194291E+03  0.20000020340E+01 0.  0.
         13    1    3    3    0    0  0.36892841809E+02  0.68623721673E+01 -0.14589985944E+03  0.15064844532E+03  0.10566000000E+00 0. -1.
         13    1    4    4    0    0 -0.11417681395E+02 -0.18392379266E+01 -0.89197240413E+02  0.89943899770E+02  0.10566000000E+00 0. -1.
        -13    1    4    4    0    0 -0.18102809932E+02 -0.41149557243E+01 -0.14613711020E+03  0.14731161098E+03  0.10566000000E+00 0.  1.
         14    1    4    4    0    0 -0.73723504810E+01 -0.90817851644E+00 -0.53513353771E+02  0.54026432158E+02  0.00000000000E+00 0. -1.
<mgrwt>
<rscale>  0 0.79353789E+02</rscale>
<asrwt>0</asrwt>
<pdfrwt beam="1">  1        1 0.55252530E-03 0.79353789E+02</pdfrwt>
<pdfrwt beam="2">  1       -2 0.67436723E-01 0.79353789E+02</pdfrwt>
<totfact> 0.56685158E+04</totfact>
</mgrwt>
</event>
<event>
 8    1  0.8247621E-018  0.8385346E+02  0.7818608E-02  0.1318458E+00
          1   -1    0    0  501    0  0.00000000000E+00  0.00000000000E+00  0.17325136015E+03  0.17325136022E+03  0.50400000000E-02 0. -1.
         -2   -1    0    0    0  501 -0.00000000000E+00 -0.00000000000E+00 -0.10146243931E+02  0.10146244252E+02  0.25500000000E-02 0.  1.
        -24    2    1    2    0    0  0.35527136788E-14  0.00000000000E+00  0.16310511622E+03  0.18339760447E+03  0.83853457832E+02 0.  0.
         66    2    3    3    0    0  0.29705420536E+02 -0.27541389487E+02  0.58154212954E+02  0.70900300489E+02  0.19999952550E+01 0.  0.
         13    1    3    3    0    0 -0.29705420536E+02  0.27541389487E+02  0.10495090326E+03  0.11249730399E+03  0.10566000000E+00 0. -1.
         13    1    4    4    0    0  0.95688323395E+01 -0.95625009245E+01  0.19261558697E+02  0.23537688581E+02  0.10566000000E+00 0. -1.
        -13    1    4    4    0    0  0.14561730056E+02 -0.12497325655E+02  0.28474269440E+02  0.34336894370E+02  0.10566000000E+00 0.  1.
        -14    1    4    4    0    0  0.55748581398E+01 -0.54815629068E+01  0.10418384817E+02  0.13025717538E+02  0.00000000000E+00 0.  1.
<mgrwt>
<rscale>  0 0.83853458E+02</rscale>
<asrwt>0</asrwt>
<pdfrwt beam="1">  1        1 0.26654055E-01 0.83853458E+02</pdfrwt>
<pdfrwt beam="2">  1       -2 0.15609607E-02 0.83853458E+02</pdfrwt>
<totfact> 0.14304980E+05</totfact>
</mgrwt>
</event>
<event>
 8    1  0.8247621E-018  0.8037127E+02  0.7818608E-02  0.1328001E+00
          1   -1    0    0  501    0  0.00000000000E+00  0.00000000000E+00  0.11245239746E+03  0.11245239758E+03  0.50400000000E-02 0. -1.
         -2   -1    0    0    0  501 -0.00000000000E+00 -0.00000000000E+00 -0.14360611928E+02  0.14360612154E+02  0.25500000000E-02 0.  1.
        -24    2    1    2    0    0  0.00000000000E+00  0.00000000000E+00  0.98091785537E+02  0.12681300973E+03  0.80371270038E+02 0.  0.
         66    2    3    3    0    0 -0.15290584916E+02  0.10320562440E+02 -0.72101396816E+01  0.19907338157E+02  0.20000005284E+01 0.  0.
         13    1    3    3    0    0  0.15290584916E+02 -0.10320562440E+02  0.10530192522E+03  0.10690567157E+03  0.10566000000E+00 0. -1.
         13    1    4    4    0    0 -0.44616047496E+01  0.31300567330E+01 -0.23133269951E+01  0.59216397996E+01  0.10566000000E+00 0. -1.
        -13    1    4    4    0    0 -0.10113380461E+02  0.70230051763E+01 -0.48957430619E+01  0.13250755836E+02  0.10566000000E+00 0.  1.
        -14    1    4    4    0    0 -0.71559970526E+00  0.16750053090E+00 -0.10696246750E-02  0.73494252164E+00  0.00000000000E+00 0.  1.
<mgrwt>
<rscale>  0 0.80371270E+02</rscale>
<asrwt>0</asrwt>
<pdfrwt beam="1">  1        1 0.17300369E-01 0.80371270E+02</pdfrwt>
<pdfrwt beam="2">  1       -2 0.22093249E-02 0.80371270E+02</pdfrwt>
<totfact> 0.14810128E+05</totfact>
</mgrwt>
</event>
<event>
 8    1  0.8247621E-018  0.7747265E+02  0.7818608E-02  0.1336381E+00
         -2   -1    0    0    0  501 -0.00000000000E+00  0.00000000000E+00  0.11048113819E+02  0.11048114113E+02  0.25500000000E-02 0.  1.
          1   -1    0    0  501    0  0.00000000000E+00 -0.00000000000E+00 -0.13581528931E+03  0.13581528940E+03  0.50400000000E-02 0. -1.
        -24    2    1    2    0    0  0.00000000000E+00  0.35527136788E-14 -0.12476717549E+03  0.14686340352E+03  0.77472648158E+02 0.  0.
         66    2    3    3    0    0 -0.12190414572E+02 -0.26817464147E+02 -0.14816835166E+02  0.33035150907E+02  0.20000000938E+01 0.  0.
         13    1    3    3    0    0  0.12190414572E+02  0.26817464147E+02 -0.10995034032E+03  0.11382825261E+03  0.10566000000E+00 0. -1.
         13    1    4    4    0    0 -0.31796930940E+01 -0.80767012916E+01 -0.45261010485E+01  0.97898062628E+01  0.10566000000E+00 0. -1.
        -13    1    4    4    0    0 -0.12126074289E+01 -0.37116264887E+01 -0.17226472414E+01  0.42691059395E+01  0.10566000000E+00 0.  1.
        -14    1    4    4    0    0 -0.77981140488E+01 -0.15029136367E+02 -0.85680868762E+01  0.18976238704E+02  0.00000000000E+00 0.  1.
<mgrwt>
<rscale>  0 0.77472648E+02</rscale>
<asrwt>0</asrwt>
<pdfrwt beam="1">  1        1 0.20894659E-01 0.77472648E+02</pdfrwt>
<pdfrwt beam="2">  1       -2 0.16997099E-02 0.77472648E+02</pdfrwt>
<totfact> 0.16894030E+05</totfact>
</mgrwt>
</event>
<event>
 8    1  0.8247621E-018  0.7916664E+02  0.7818608E-02  0.1331433E+00
         -2   -1    0    0    0  501 -0.00000000000E+00  0.00000000000E+00  0.73405524715E+02  0.73405524760E+02  0.25500000000E-02 0.  1.
          1   -1    0    0  501    0  0.00000000000E+00 -0.00000000000E+00 -0.21344975611E+02  0.21344976206E+02  0.50400000000E-02 0. -1.
        -24    2    1    2    0    0  0.17763568394E-14 -0.35527136788E-14  0.52060549105E+02  0.94750500965E+02  0.79166638555E+02 0.  0.
         66    2    3    3    0    0 -0.86093978265E+01  0.17828762412E+02  0.67035161891E+02  0.69926385831E+02  0.20000013783E+01 0.  0.
         13    1    3    3    0    0  0.86093978265E+01 -0.17828762412E+02 -0.14974612786E+02  0.24824115134E+02  0.10566000000E+00 0. -1.
         13    1    4    4    0    0 -0.17281020426E+01  0.49413764885E+01  0.16104873325E+02  0.16934628639E+02  0.10566000000E+00 0. -1.
        -13    1    4    4    0    0 -0.14466746699E+01  0.30181247721E+01  0.10504222378E+02  0.11025053131E+02  0.10566000000E+00 0.  1.
         14    1    4    4    0    0 -0.54346211140E+01  0.98692611513E+01  0.40426066188E+02  0.41966704061E+02  0.00000000000E+00 0. -1.
<mgrwt>
<rscale>  0 0.79166639E+02</rscale>
<asrwt>0</asrwt>
<pdfrwt beam="1">  1        1 0.32838425E-02 0.79166639E+02</pdfrwt>
<pdfrwt beam="2">  1       -2 0.11293157E-01 0.79166639E+02</pdfrwt>
<totfact> 0.11687745E+05</totfact>
</mgrwt>
</event>
<event>
 8    1  0.8247621E-018  0.7986417E+02  0.7818608E-02  0.1329437E+00
         -2   -1    0    0    0  501 -0.00000000000E+00  0.00000000000E+00  0.61476818752E+02  0.61476818805E+02  0.25500000000E-02 0.  1.
          1   -1    0    0  501    0  0.00000000000E+00 -0.00000000000E+00 -0.25937763699E+02  0.25937764189E+02  0.50400000000E-02 0. -1.
        -24    2    1    2    0    0  0.00000000000E+00  0.00000000000E+00  0.35539055053E+02  0.87414582994E+02  0.79864165218E+02 0.  0.
         66    2    3    3    0    0 -0.91119449569E+01 -0.92521286912E+01  0.59083231147E+02  0.60526503513E+02  0.19999996273E+01 0.  0.
         13    1    3    3    0    0  0.91119449569E+01  0.92521286912E+01 -0.23544176094E+02  0.26888079481E+02  0.10566000000E+00 0. -1.
         13    1    4    4    0    0 -0.50548574339E+00 -0.88620340498E+00  0.31560029758E+01  0.33184922978E+01  0.10566000000E+00 0. -1.
        -13    1    4    4    0    0 -0.30878753221E+01 -0.25044333607E+01  0.17428037142E+02  0.17876095857E+02  0.10566000000E+00 0.  1.
         14    1    4    4    0    0 -0.55185838915E+01 -0.58614919255E+01  0.38499191030E+02  0.39331915357E+02  0.00000000000E+00 0. -1.
<mgrwt>
<rscale>  0 0.79864165E+02</rscale>
<asrwt>0</asrwt>
<pdfrwt beam="1">  1        1 0.39904253E-02 0.79864165E+02</pdfrwt>
<pdfrwt beam="2">  1       -2 0.94579719E-02 0.79864165E+02</pdfrwt>
<totfact> 0.11835876E+05</totfact>
</mgrwt>
</event>
<event>
 8    1  0.8247621E-018  0.7940584E+02  0.7818608E-02  0.1330746E+00
         -2   -1    0    0    0  501 -0.00000000000E+00  0.00000000000E+00  0.51377823441E+02  0.51377823504E+02  0.25500000000E-02 0.  1.
          1   -1    0    0  501    0  0.00000000000E+00 -0.00000000000E+00 -0.30680979787E+02  0.30680980201E+02  0.50400000000E-02 0. -1.
        -24    2    1    2    0    0 -0.35527136788E-14 -0.35527136788E-14  0.20696843654E+02  0.82058803705E+02  0.79405843162E+02 0.  0.
         66    2    3    3    0    0 -0.28247697147E+02 -0.27085336652E+02  0.35966606784E+01  0.39350780133E+02  0.20000183476E+01 0.  0.
         13    1    3    3    0    0  0.28247697147E+02  0.27085336652E+02  0.17100182976E+02  0.42708023572E+02  0.10566000000E+00 0. -1.
         13    1    4    4    0    0 -0.46256129153E+00 -0.31171231083E+00  0.19986529824E+00  0.60186184975E+00  0.10566000000E+00 0. -1.
        -13    1    4    4    0    0 -0.97577958688E+01 -0.97269051352E+01  0.16515199110E+01  0.13876813243E+02  0.10566000000E+00 0.  1.
        -14    1    4    4    0    0 -0.18027339986E+02 -0.17046719205E+02  0.17452754691E+01  0.24872105040E+02  0.00000000000E+00 0.  1.
<mgrwt>
<rscale>  0 0.79405843E+02</rscale>
<asrwt>0</asrwt>
<pdfrwt beam="1">  1        1 0.47201508E-02 0.79405843E+02</pdfrwt>
<pdfrwt beam="2">  1       -2 0.79042805E-02 0.79405843E+02</pdfrwt>
<totfact> 0.12405087E+05</totfact>
</mgrwt>
</event>
<event>
 8    1  0.8247621E-018  0.8010364E+02  0.7818608E-02  0.1328758E+00
          1   -1    0    0  501    0  0.00000000000E+00  0.00000000000E+00  0.48783239503E+01  0.48783265538E+01  0.50400000000E-02 0. -1.
         -2   -1    0    0    0  501 -0.00000000000E+00 -0.00000000000E+00 -0.32883176624E+03  0.32883176625E+03  0.25500000000E-02 0.  1.
        -24    2    1    2    0    0 -0.35527136788E-14  0.88817841970E-15 -0.32395344229E+03  0.33371009280E+03  0.80103640789E+02 0.  0.
         66    2    3    3    0    0 -0.19749156004E+02  0.44912295288E+01 -0.30590587576E+03  0.30658213440E+03  0.20000006080E+01 0.  0.
         13    1    3    3    0    0  0.19749156004E+02 -0.44912295288E+01 -0.18047566531E+02  0.27127958406E+02  0.10566000000E+00 0. -1.
         13    1    4    4    0    0 -0.27804562565E+01  0.13079134759E+01 -0.48488398968E+02  0.48585775420E+02  0.10566000000E+00 0. -1.
        -13    1    4    4    0    0 -0.15089868990E+02  0.28760733805E+01 -0.22655442330E+03  0.22707464373E+03  0.10566000000E+00 0.  1.
        -14    1    4    4    0    0 -0.18788307579E+01  0.30724267239E+00 -0.30863053486E+02  0.30921715243E+02  0.00000000000E+00 0.  1.
<mgrwt>
<rscale>  0 0.80103641E+02</rscale>
<asrwt>0</asrwt>
<pdfrwt beam="1">  1        1 0.75051184E-03 0.80103641E+02</pdfrwt>
<pdfrwt beam="2">  1       -2 0.50589485E-01 0.80103641E+02</pdfrwt>
<totfact> 0.66515558E+04</totfact>
</mgrwt>
</event>
<event>
 8    1  0.8247621E-018  0.8108105E+02  0.7818608E-02  0.1326011E+00
          1   -1    0    0  501    0  0.00000000000E+00  0.00000000000E+00  0.15767856532E+02  0.15767857338E+02  0.50400000000E-02 0. -1.
         -2   -1    0    0    0  501 -0.00000000000E+00 -0.00000000000E+00 -0.10423320560E+03  0.10423320563E+03  0.25500000000E-02 0.  1.
        -24    2    1    2    0    0  0.00000000000E+00  0.17763568394E-14 -0.88465349066E+02  0.12000106297E+03  0.81081052829E+02 0.  0.
         66    2    3    3    0    0  0.35973246979E+02 -0.15057298314E+02 -0.60521661517E+02  0.72025469498E+02  0.20000032403E+01 0.  0.
         13    1    3    3    0    0 -0.35973246979E+02  0.15057298314E+02 -0.27943687549E+02  0.47975593468E+02  0.10566000000E+00 0. -1.
         13    1    4    4    0    0  0.27269570675E+02 -0.11340844360E+02 -0.46946070259E+02  0.55463401558E+02  0.10566000000E+00 0. -1.
        -13    1    4    4    0    0  0.14812910637E+01 -0.63876720123E+00 -0.19344246716E+01  0.25209937720E+01  0.10566000000E+00 0.  1.
        -14    1    4    4    0    0  0.72223852412E+01 -0.30776867526E+01 -0.11641166586E+02  0.14041074168E+02  0.00000000000E+00 0.  1.
<mgrwt>
<rscale>  0 0.81081053E+02</rscale>
<asrwt>0</asrwt>
<pdfrwt beam="1">  1        1 0.24258242E-02 0.81081053E+02</pdfrwt>
<pdfrwt beam="2">  1       -2 0.16035877E-01 0.81081053E+02</pdfrwt>
<totfact> 0.10147589E+05</totfact>
</mgrwt>
</event>
<event>
 8    1  0.8247621E-018  0.7894725E+02  0.7818608E-02  0.1332066E+00
          1   -1    0    0  501    0  0.00000000000E+00  0.00000000000E+00  0.14410836096E+02  0.14410836977E+02  0.50400000000E-02 0. -1.
         -2   -1    0    0    0  501 -0.00000000000E+00 -0.00000000000E+00 -0.10812467675E+03  0.10812467678E+03  0.25500000000E-02 0.  1.
        -24    2    1    2    0    0  0.00000000000E+00  0.00000000000E+00 -0.93713840652E+02  0.12253551375E+03  0.78947249486E+02 0.  0.
         66    2    3    3    0    0  0.22401953198E+02 -0.21687505887E+01 -0.97171992718E+02  0.99764458313E+02  0.19999968813E+01 0.  0.
         13    1    3    3    0    0 -0.22401953198E+02  0.21687505887E+01  0.34581520655E+01  0.22771055442E+02  0.10566000000E+00 0. -1.
         13    1    4    4    0    0  0.10554222582E+02 -0.10255748199E+01 -0.43736180790E+02  0.45003423116E+02  0.10566000000E+00 0. -1.
        -13    1    4    4    0    0  0.10676121354E+02 -0.13776351140E+01 -0.47240774257E+02  0.48451825168E+02  0.10566000000E+00 0.  1.
        -14    1    4    4    0    0  0.11716092617E+01  0.23445934513E+00 -0.61950376714E+01  0.63092100295E+01  0.00000000000E+00 0.  1.
<mgrwt>
<rscale>  0 0.78947249E+02</rscale>
<asrwt>0</asrwt>
<pdfrwt beam="1">  1        1 0.22170519E-02 0.78947249E+02</pdfrwt>
<pdfrwt beam="2">  1       -2 0.16634565E-01 0.78947249E+02</pdfrwt>
<totfact> 0.10762894E+05</totfact>
</mgrwt>
</event>
<event>
 8    1  0.8247621E-018  0.8092452E+02  0.7818608E-02  0.1326448E+00
          1   -1    0    0  501    0  0.00000000000E+00  0.00000000000E+00  0.74770986239E+02  0.74770986409E+02  0.50400000000E-02 0. -1.
         -2   -1    0    0    0  501 -0.00000000000E+00 -0.00000000000E+00 -0.21896118869E+02  0.21896119018E+02  0.25500000000E-02 0.  1.
        -24    2    1    2    0    0 -0.35527136788E-14  0.00000000000E+00  0.52874867370E+02  0.96667105427E+02  0.80924518363E+02 0.  0.
         66    2    3    3    0    0 -0.19086327429E+02  0.32817894238E+02  0.98204310563E+01  0.39265034670E+02  0.20000011458E+01 0.  0.
         13    1    3    3    0    0  0.19086327429E+02 -0.32817894238E+02  0.43054436314E+02  0.57402070757E+02  0.10566000000E+00 0. -1.
         13    1    4    4    0    0 -0.13950931982E+01  0.28832632864E+01  0.74891570133E+00  0.32911291335E+01  0.10566000000E+00 0. -1.
        -13    1    4    4    0    0 -0.46031366654E+00  0.12342293792E+01  0.15102634657E+00  0.13301066969E+01  0.10566000000E+00 0.  1.
         14    1    4    4    0    0 -0.17230920564E+02  0.28700401572E+02  0.89204890084E+01  0.34643798840E+02  0.00000000000E+00 0. -1.
<mgrwt>
<rscale>  0 0.80924518E+02</rscale>
<asrwt>0</asrwt>
<pdfrwt beam="1">  1        1 0.11503229E-01 0.80924518E+02</pdfrwt>
<pdfrwt beam="2">  1       -2 0.33686337E-02 0.80924518E+02</pdfrwt>
<totfact> 0.13583339E+05</totfact>
</mgrwt>
</event>
<event>
 8    1  0.8247621E-018  0.8276255E+02  0.7818608E-02  0.1321390E+00
          1   -1    0    0  501    0  0.00000000000E+00  0.00000000000E+00  0.10193570895E+03  0.10193570907E+03  0.50400000000E-02 0. -1.
         -2   -1    0    0    0  501 -0.00000000000E+00 -0.00000000000E+00 -0.16798922079E+02  0.16798922273E+02  0.25500000000E-02 0.  1.
        -24    2    1    2    0    0 -0.71054273576E-14 -0.17763568394E-14  0.85136786870E+02  0.11873463135E+03  0.82762553141E+02 0.  0.
         66    2    3    3    0    0 -0.38086589311E+02 -0.15911878647E+02  0.38899466655E+02  0.56753367144E+02  0.20000021867E+01 0.  0.
         13    1    3    3    0    0  0.38086589311E+02  0.15911878647E+02  0.46237320215E+02  0.61981264202E+02  0.10566000000E+00 0. -1.
         13    1    4    4    0    0 -0.17364802479E+02 -0.73994267495E+01  0.18893218923E+02  0.26706792519E+02  0.10566000000E+00 0. -1.
        -13    1    4    4    0    0 -0.16014005797E+02 -0.68567725598E+01  0.15245029085E+02  0.23149207059E+02  0.10566000000E+00 0.  1.
        -14    1    4    4    0    0 -0.47077810343E+01 -0.16556793380E+01  0.47612186463E+01  0.68973675656E+01  0.00000000000E+00 0.  1.
<mgrwt>
<rscale>  0 0.82762553E+02</rscale>
<asrwt>0</asrwt>
<pdfrwt beam="1">  1        1 0.15682417E-01 0.82762553E+02</pdfrwt>
<pdfrwt beam="2">  1       -2 0.25844496E-02 0.82762553E+02</pdfrwt>
<totfact> 0.13451859E+05</totfact>
</mgrwt>
</event>
<event>
 8    1  0.8247621E-018  0.7979848E+02  0.7818608E-02  0.1329624E+00
          1   -1    0    0  501    0  0.00000000000E+00  0.00000000000E+00  0.30147777949E+02  0.30147778370E+02  0.50400000000E-02 0. -1.
         -2   -1    0    0    0  501 -0.00000000000E+00 -0.00000000000E+00 -0.52804867413E+02  0.52804867475E+02  0.25500000000E-02 0.  1.
        -24    2    1    2    0    0 -0.35527136788E-14  0.71054273576E-14 -0.22657089464E+02  0.82952645845E+02  0.79798482126E+02 0.  0.
         66    2    3    3    0    0 -0.19634989597E+02  0.19187697044E+02 -0.41396549770E+02  0.49712924563E+02  0.20000003596E+01 0.  0.
         13    1    3    3    0    0  0.19634989597E+02 -0.19187697044E+02  0.18739460305E+02  0.33239721282E+02  0.10566000000E+00 0. -1.
         13    1    4    4    0    0 -0.74837792556E+01  0.77022342153E+01 -0.17762468965E+02  0.20756874322E+02  0.10566000000E+00 0. -1.
        -13    1    4    4    0    0 -0.27661967660E+01  0.28024904332E+01 -0.58679358156E+01  0.70675053554E+01  0.10566000000E+00 0.  1.
         14    1    4    4    0    0 -0.93850135757E+01  0.86829723952E+01 -0.17766144989E+02  0.21888544886E+02  0.00000000000E+00 0. -1.
<mgrwt>
<rscale>  0 0.79798482E+02</rscale>
<asrwt>0</asrwt>
<pdfrwt beam="1">  1        1 0.46381198E-02 0.79798482E+02</pdfrwt>
<pdfrwt beam="2">  1       -2 0.81238257E-02 0.79798482E+02</pdfrwt>
<totfact> 0.12193341E+05</totfact>
</mgrwt>
</event>
<event>
 8    1  0.8247621E-018  0.7983691E+02  0.7818608E-02  0.1329515E+00
          1   -1    0    0  501    0  0.00000000000E+00  0.00000000000E+00  0.83751013773E+02  0.83751013925E+02  0.50400000000E-02 0. -1.
         -2   -1    0    0    0  501 -0.00000000000E+00 -0.00000000000E+00 -0.19026434126E+02  0.19026434297E+02  0.25500000000E-02 0.  1.
        -24    2    1    2    0    0  0.00000000000E+00  0.00000000000E+00  0.64724579647E+02  0.10277744822E+03  0.79836912844E+02 0.  0.
         66    2    3    3    0    0  0.27110704280E+02  0.17952592621E+02  0.26287091845E+01  0.32683267573E+02  0.19999997194E+01 0.  0.
         13    1    3    3    0    0 -0.27110704280E+02 -0.17952592621E+02  0.62095870463E+02  0.70094180649E+02  0.10566000000E+00 0. -1.
         13    1    4    4    0    0  0.18219976785E+01  0.11295039557E+01  0.39490222122E+00  0.21823305264E+01  0.10566000000E+00 0. -1.
        -13    1    4    4    0    0  0.18513004739E+02  0.12407924231E+02  0.23709853894E+01  0.22412511326E+02  0.10566000000E+00 0.  1.
        -14    1    4    4    0    0  0.67757018628E+01  0.44151644343E+01 -0.13717842609E+00  0.80884257205E+01  0.00000000000E+00 0.  1.
<mgrwt>
<rscale>  0 0.79836913E+02</rscale>
<asrwt>0</asrwt>
<pdfrwt beam="1">  1        1 0.12884771E-01 0.79836913E+02</pdfrwt>
<pdfrwt beam="2">  1       -2 0.29271437E-02 0.79836913E+02</pdfrwt>
<totfact> 0.14354215E+05</totfact>
</mgrwt>
</event>
<event>
 8    1  0.8247621E-018  0.7926179E+02  0.7818608E-02  0.1331160E+00
          1   -1    0    0  501    0  0.00000000000E+00  0.00000000000E+00  0.58942512361E+02  0.58942512576E+02  0.50400000000E-02 0. -1.
         -2   -1    0    0    0  501 -0.00000000000E+00 -0.00000000000E+00 -0.26646437244E+02  0.26646437366E+02  0.25500000000E-02 0.  1.
        -24    2    1    2    0    0  0.00000000000E+00 -0.35527136788E-14  0.32296075117E+02  0.85588949943E+02  0.79261793345E+02 0.  0.
         66    2    3    3    0    0 -0.20845938819E+02  0.25729418924E+02 -0.73027012521E+01  0.33968891658E+02  0.19999978633E+01 0.  0.
         13    1    3    3    0    0  0.20845938819E+02 -0.25729418924E+02  0.39598776369E+02  0.51620058285E+02  0.10566000000E+00 0. -1.
         13    1    4    4    0    0 -0.89430839722E+00  0.83016063438E+00 -0.24225912705E+00  0.12485222098E+01  0.10566000000E+00 0. -1.
        -13    1    4    4    0    0 -0.71829099675E+01  0.80240972028E+01 -0.18627417066E+01  0.10929835416E+02  0.10566000000E+00 0.  1.
        -14    1    4    4    0    0 -0.12768720455E+02  0.16875161086E+02 -0.51977004185E+01  0.21790534032E+02  0.00000000000E+00 0.  1.
<mgrwt>
<rscale>  0 0.79261793E+02</rscale>
<asrwt>0</asrwt>
<pdfrwt beam="1">  1        1 0.90680788E-02 0.79261793E+02</pdfrwt>
<pdfrwt beam="2">  1       -2 0.40994519E-02 0.79261793E+02</pdfrwt>
<totfact> 0.13850300E+05</totfact>
</mgrwt>
</event>
<event>
 8    1  0.8247621E-018  0.7920751E+02  0.7818608E-02  0.1331316E+00
         -2   -1    0    0    0  501 -0.00000000000E+00  0.00000000000E+00  0.13305124950E+03  0.13305124953E+03  0.25500000000E-02 0.  1.
          1   -1    0    0  501    0  0.00000000000E+00 -0.00000000000E+00 -0.11788368934E+02  0.11788370011E+02  0.50400000000E-02 0. -1.
        -24    2    1    2    0    0  0.17763568394E-14  0.00000000000E+00  0.12126288057E+03  0.14483961954E+03  0.79207507120E+02 0.  0.
         66    2    3    3    0    0  0.13323916509E+02 -0.33526673718E+02  0.90431293687E+02  0.97382665196E+02  0.20000002569E+01 0.  0.
         13    1    3    3    0    0 -0.13323916509E+02  0.33526673718E+02  0.30831586882E+02  0.47456954342E+02  0.10566000000E+00 0. -1.
         13    1    4    4    0    0  0.78238123780E+01 -0.19663683390E+02  0.52041480171E+02  0.56180061473E+02  0.10566000000E+00 0. -1.
        -13    1    4    4    0    0  0.37194003418E+01 -0.80362550238E+01  0.21864533338E+02  0.23589919793E+02  0.10566000000E+00 0.  1.
         14    1    4    4    0    0  0.17807037895E+01 -0.58267353043E+01  0.16525280177E+02  0.17612683930E+02  0.00000000000E+00 0. -1.
<mgrwt>
<rscale>  0 0.79207507E+02</rscale>
<asrwt>0</asrwt>
<pdfrwt beam="1">  1        1 0.18135954E-02 0.79207507E+02</pdfrwt>
<pdfrwt beam="2">  1       -2 0.20469422E-01 0.79207507E+02</pdfrwt>
<totfact> 0.10069205E+05</totfact>
</mgrwt>
</event>
<event>
 8    1  0.8247621E-018  0.7804706E+02  0.7818608E-02  0.1334687E+00
         -2   -1    0    0    0  501 -0.00000000000E+00  0.00000000000E+00  0.24213012744E+02  0.24213012878E+02  0.25500000000E-02 0.  1.
          1   -1    0    0  501    0  0.00000000000E+00 -0.00000000000E+00 -0.62893276987E+02  0.62893277189E+02  0.50400000000E-02 0. -1.
        -24    2    1    2    0    0  0.00000000000E+00  0.00000000000E+00 -0.38680264243E+02  0.87106290067E+02  0.78047055853E+02 0.  0.
         66    2    3    3    0    0  0.99013082221E+01 -0.36714296043E+02 -0.29008956789E+02  0.47869562497E+02  0.20000003109E+01 0.  0.
         13    1    3    3    0    0 -0.99013082221E+01  0.36714296043E+02 -0.96713074540E+01  0.39236727569E+02  0.10566000000E+00 0. -1.
         13    1    4    4    0    0  0.67640571259E+01 -0.27451066011E+02 -0.21351835918E+02  0.35429162494E+02  0.10566000000E+00 0. -1.
        -13    1    4    4    0    0  0.29062609128E+01 -0.85715462365E+01 -0.68403155557E+01  0.11345432487E+02  0.10566000000E+00 0.  1.
         14    1    4    4    0    0  0.23099018333E+00 -0.69168379518E+00 -0.81680531549E+00  0.10949675158E+01  0.00000000000E+00 0. -1.
<mgrwt>
<rscale>  0 0.78047056E+02</rscale>
<asrwt>0</asrwt>
<pdfrwt beam="1">  1        1 0.96758888E-02 0.78047056E+02</pdfrwt>
<pdfrwt beam="2">  1       -2 0.37250789E-02 0.78047056E+02</pdfrwt>
<totfact> 0.14596224E+05</totfact>
</mgrwt>
</event>
<event>
 8    1  0.1035113E-017  0.7962664E+02  0.7818608E-02  0.1330114E+00
         -2   -1    0    0    0  501 -0.00000000000E+00  0.00000000000E+00  0.23118245909E+03  0.23118245910E+03  0.25500000000E-02 0.  1.
          1   -1    0    0  501    0  0.00000000000E+00 -0.00000000000E+00 -0.68564902934E+01  0.68564921458E+01  0.50400000000E-02 0. -1.
        -24    2    1    2    0    0 -0.35527136788E-14  0.49005938196E-16  0.22432596880E+03  0.23803895125E+03  0.79626641494E+02 0.  0.
         66    2    3    3    0    0  0.20879656428E+02 -0.27522474776E-02  0.21348400391E+03  0.21451195767E+03  0.19999999864E+01 0.  0.
         13    1    3    3    0    0 -0.20879656428E+02  0.27522474776E-02  0.10841964890E+02  0.23526993578E+02  0.10566000000E+00 0. -1.
         13    1    4    4    0    0  0.64642507235E+00 -0.19931890540E+00  0.67492121678E+01  0.67838501105E+01  0.10566000000E+00 0. -1.
        -13    1    4    4    0    0  0.34176600498E+01 -0.34357226105E+00  0.31059549776E+02  0.31249083802E+02  0.10566000000E+00 0.  1.
        -14    1    4    4    0    0  0.16815571306E+02  0.54013891898E+00  0.17567524196E+03  0.17647902376E+03  0.00000000000E+00 0.  1.
<mgrwt>
<rscale>  0 0.79626641E+02</rscale>
<asrwt>0</asrwt>
<pdfrwt beam="1">  1        1 0.10548450E-02 0.79626641E+02</pdfrwt>
<pdfrwt beam="2">  1       -2 0.35566527E-01 0.79626641E+02</pdfrwt>
<totfact> 0.80935162E+04</totfact>
</mgrwt>
</event>
<event>
 8    1  0.8247621E-018  0.7876245E+02  0.7818608E-02  0.1332601E+00
         -2   -1    0    0    0  501 -0.00000000000E+00  0.00000000000E+00  0.17256988547E+03  0.17256988548E+03  0.25500000000E-02 0.  1.
          1   -1    0    0  501    0  0.00000000000E+00 -0.00000000000E+00 -0.89869726802E+01  0.89869740934E+01  0.50400000000E-02 0. -1.
        -24    2    1    2    0    0  0.00000000000E+00  0.00000000000E+00  0.16358291279E+03  0.18155685958E+03  0.78762452377E+02 0.  0.
         66    2    3    3    0    0 -0.45083785401E+01 -0.28549777113E+02  0.14341537094E+03  0.14631262376E+03  0.19999999559E+01 0.  0.
         13    1    3    3    0    0  0.45083785401E+01  0.28549777113E+02  0.20167541850E+02  0.35244235821E+02  0.10566000000E+00 0. -1.
         13    1    4    4    0    0 -0.44956755169E+00 -0.34068573761E+01  0.14684284050E+02  0.15081384229E+02  0.10566000000E+00 0. -1.
        -13    1    4    4    0    0 -0.25317406666E+01 -0.16960914425E+02  0.89162166138E+02  0.90796395101E+02  0.10566000000E+00 0.  1.
        -14    1    4    4    0    0 -0.15270703219E+01 -0.81820053126E+01  0.39568920748E+02  0.40434844428E+02  0.00000000000E+00 0.  1.
<mgrwt>
<rscale>  0 0.78762452E+02</rscale>
<asrwt>0</asrwt>
<pdfrwt beam="1">  1        1 0.13826114E-02 0.78762452E+02</pdfrwt>
<pdfrwt beam="2">  1       -2 0.26549211E-01 0.78762452E+02</pdfrwt>
<totfact> 0.93730250E+04</totfact>
</mgrwt>
</event>
<event>
 8    1  0.9647721E-018  0.7207980E+02  0.7818608E-02  0.1353160E+00
          1   -1    0    0  501    0  0.00000000000E+00  0.00000000000E+00  0.86215802702E+02  0.86215802849E+02  0.50400000000E-02 0. -1.
         -2   -1    0    0    0  501 -0.00000000000E+00 -0.00000000000E+00 -0.15065385584E+02  0.15065385799E+02  0.25500000000E-02 0.  1.
        -24    2    1    2    0    0  0.00000000000E+00 -0.35527136788E-14  0.71150417118E+02  0.10128118865E+03  0.72079798265E+02 0.  0.
         66    2    3    3    0    0 -0.19960641217E+02 -0.25532133071E+02  0.13539250650E+02  0.35179942950E+02  0.20000152179E+01 0.  0.
         13    1    3    3    0    0  0.19960641217E+02  0.25532133071E+02  0.57611166469E+02  0.66101245698E+02  0.10566000000E+00 0. -1.
         13    1    4    4    0    0 -0.62972883041E+00 -0.56791793651E+00  0.51458970652E+00  0.99752482882E+00  0.10566000000E+00 0. -1.
        -13    1    4    4    0    0 -0.45956463543E+00 -0.86691314594E+00  0.55703465317E+00  0.11332209393E+01  0.10566000000E+00 0.  1.
        -14    1    4    4    0    0 -0.18871347751E+02 -0.24097301989E+02  0.12467626290E+02  0.33049197182E+02  0.00000000000E+00 0.  1.
<mgrwt>
<rscale>  0 0.72079798E+02</rscale>
<asrwt>0</asrwt>
<pdfrwt beam="1">  1        1 0.13263969E-01 0.72079798E+02</pdfrwt>
<pdfrwt beam="2">  1       -2 0.23177517E-02 0.72079798E+02</pdfrwt>
<totfact> 0.18993738E+05</totfact>
</mgrwt>
</event>
<event>
 8    1  0.8247621E-018  0.8124342E+02  0.7818608E-02  0.1325559E+00
         -2   -1    0    0    0  501 -0.00000000000E+00  0.00000000000E+00  0.27872326626E+03  0.27872326628E+03  0.25500000000E-02 0.  1.
          1   -1    0    0  501    0  0.00000000000E+00 -0.00000000000E+00 -0.59202916943E+01  0.59202938396E+01  0.50400000000E-02 0. -1.
        -24    2    1    2    0    0 -0.35527136788E-14  0.17763568394E-14  0.27280297457E+03  0.28464356012E+03  0.81243420540E+02 0.  0.
         66    2    3    3    0    0  0.29373213624E+02 -0.10115370534E+02  0.22804845819E+03  0.23016343255E+03  0.19999996020E+01 0.  0.
         13    1    3    3    0    0 -0.29373213624E+02  0.10115370534E+02  0.44754516377E+02  0.54480127568E+02  0.10566000000E+00 0. -1.
         13    1    4    4    0    0  0.17668492405E+01 -0.57196925272E+00  0.16494228973E+02  0.16598784851E+02  0.10566000000E+00 0. -1.
        -13    1    4    4    0    0  0.54962856649E+01 -0.20854771762E+01  0.39416105308E+02  0.39852213149E+02  0.10566000000E+00 0.  1.
        -14    1    4    4    0    0  0.22110078718E+02 -0.74579241055E+01  0.17213812391E+03  0.17371243455E+03  0.00000000000E+00 0.  1.
<mgrwt>
<rscale>  0 0.81243421E+02</rscale>
<asrwt>0</asrwt>
<pdfrwt beam="1">  1        1 0.91081404E-03 0.81243421E+02</pdfrwt>
<pdfrwt beam="2">  1       -2 0.42880513E-01 0.81243421E+02</pdfrwt>
<totfact> 0.70207671E+04</totfact>
</mgrwt>
</event>
<event>
 8    1  0.8247621E-018  0.8025766E+02  0.7818608E-02  0.1328322E+00
          1   -1    0    0  501    0  0.00000000000E+00  0.00000000000E+00  0.61181858736E+02  0.61181858944E+02  0.50400000000E-02 0. -1.
         -2   -1    0    0    0  501 -0.00000000000E+00 -0.00000000000E+00 -0.26320267559E+02  0.26320267682E+02  0.25500000000E-02 0.  1.
        -24    2    1    2    0    0  0.00000000000E+00  0.17763568394E-14  0.34861591178E+02  0.87502126626E+02  0.80257657732E+02 0.  0.
         66    2    3    3    0    0 -0.48544007927E+01  0.12096373976E+02 -0.23908510246E+02  0.27303925193E+02  0.19999995867E+01 0.  0.
         13    1    3    3    0    0  0.48544007927E+01 -0.12096373976E+02  0.58770101424E+02  0.60198201433E+02  0.10566000000E+00 0. -1.
         13    1    4    4    0    0 -0.73782181131E+00  0.33413073782E+01 -0.65929324330E+01  0.74287709699E+01  0.10566000000E+00 0. -1.
        -13    1    4    4    0    0 -0.28301783366E+01  0.69061661246E+01 -0.14023204636E+02  0.15886046464E+02  0.10566000000E+00 0.  1.
         14    1    4    4    0    0 -0.12864006447E+01  0.18489004734E+01 -0.32923731770E+01  0.39891077593E+01  0.00000000000E+00 0. -1.
<mgrwt>
<rscale>  0 0.80257658E+02</rscale>
<asrwt>0</asrwt>
<pdfrwt beam="1">  1        1 0.94125937E-02 0.80257658E+02</pdfrwt>
<pdfrwt beam="2">  1       -2 0.40492719E-02 0.80257658E+02</pdfrwt>
<totfact> 0.13460124E+05</totfact>
</mgrwt>
</event>
<event>
 8    1  0.8247621E-018  0.7912180E+02  0.7818608E-02  0.1331562E+00
         -2   -1    0    0    0  501 -0.00000000000E+00  0.00000000000E+00  0.16735751257E+03  0.16735751259E+03  0.25500000000E-02 0.  1.
          1   -1    0    0  501    0  0.00000000000E+00 -0.00000000000E+00 -0.93516240830E+01  0.93516254411E+01  0.50400000000E-02 0. -1.
        -24    2    1    2    0    0  0.88817841970E-15  0.35527136788E-14  0.15800588849E+03  0.17670913803E+03  0.79121796408E+02 0.  0.
         66    2    3    3    0    0  0.77225614113E+01  0.18525718923E+02  0.15512670399E+03  0.15643252382E+03  0.20000004712E+01 0.  0.
         13    1    3    3    0    0 -0.77225614113E+01 -0.18525718923E+02  0.28791844966E+01  0.20276614209E+02  0.10566000000E+00 0. -1.
         13    1    4    4    0    0  0.13312663245E+01  0.28930780859E+01  0.21377828947E+02  0.21613997903E+02  0.10566000000E+00 0. -1.
        -13    1    4    4    0    0 -0.37890613519E-01  0.21327466609E+00  0.21703235937E+01  0.21836644245E+01  0.10566000000E+00 0. -1.
        -14    1    4    4    0    0  0.64291857002E+01  0.15419366171E+02  0.13157855145E+03  0.13263486149E+03  0.00000000000E+00 0.  1.
<mgrwt>
<rscale>  0 0.79121796E+02</rscale>
<asrwt>0</asrwt>
<pdfrwt beam="1">  1        1 0.14387114E-02 0.79121796E+02</pdfrwt>
<pdfrwt beam="2">  1       -2 0.25747311E-01 0.79121796E+02</pdfrwt>
<totfact> 0.93663964E+04</totfact>
</mgrwt>
</event>
<event>
 8    1  0.8247621E-018  0.7747642E+02  0.7818608E-02  0.1336369E+00
          1   -1    0    0  501    0  0.00000000000E+00  0.00000000000E+00  0.32263810809E+02  0.32263811202E+02  0.50400000000E-02 0. -1.
         -2   -1    0    0    0  501 -0.00000000000E+00 -0.00000000000E+00 -0.46511833949E+02  0.46511834018E+02  0.25500000000E-02 0.  1.
        -24    2    1    2    0    0  0.00000000000E+00  0.00000000000E+00 -0.14248023140E+02  0.78775645221E+02  0.77476422972E+02 0.  0.
         66    2    3    3    0    0 -0.16644794415E+02  0.33411666281E+02 -0.17560198632E+02  0.41300716331E+02  0.19999921799E+01 0.  0.
         13    1    3    3    0    0  0.16644794415E+02 -0.33411666281E+02  0.33121754923E+01  0.37474928890E+02  0.10566000000E+00 0. -1.
         13    1    4    4    0    0 -0.68139119286E+01  0.13534656131E+02 -0.70825976677E+01  0.16726944315E+02  0.10566000000E+00 0. -1.
        -13    1    4    4    0    0 -0.93868251750E+01  0.19487549151E+02 -0.10293856687E+02  0.23955202114E+02  0.10566000000E+00 0.  1.
         14    1    4    4    0    0 -0.44405731103E+00  0.38946099803E+00 -0.18374427774E+00  0.61856990233E+00  0.00000000000E+00 0. -1.
<mgrwt>
<rscale>  0 0.77476423E+02</rscale>
<asrwt>0</asrwt>
<pdfrwt beam="1">  1        1 0.49636632E-02 0.77476423E+02</pdfrwt>
<pdfrwt beam="2">  1       -2 0.71556668E-02 0.77476423E+02</pdfrwt>
<totfact> 0.13420879E+05</totfact>
</mgrwt>
</event>
<event>
 8    1  0.8247621E-018  0.7581846E+02  0.7818608E-02  0.1341355E+00
         -2   -1    0    0    0  501 -0.00000000000E+00  0.00000000000E+00  0.44229649984E+02  0.44229650058E+02  0.25500000000E-02 0.  1.
          1   -1    0    0  501    0  0.00000000000E+00 -0.00000000000E+00 -0.32491994197E+02  0.32491994588E+02  0.50400000000E-02 0. -1.
        -24    2    1    2    0    0  0.00000000000E+00  0.00000000000E+00  0.11737655787E+02  0.76721644646E+02  0.75818455496E+02 0.  0.
         66    2    3    3    0    0  0.14509277088E+02 -0.19349723794E+02  0.35377981278E+02  0.42901427528E+02  0.19999980160E+01 0.  0.
         13    1    3    3    0    0 -0.14509277088E+02  0.19349723794E+02 -0.23640325491E+02  0.33820217118E+02  0.10566000000E+00 0. -1.
         13    1    4    4    0    0  0.13349724437E+01 -0.11240327934E+01  0.21247267529E+01  0.27515866252E+01  0.10566000000E+00 0. -1.
        -13    1    4    4    0    0  0.31673283391E+01 -0.41363925657E+01  0.81411333191E+01  0.96659675160E+01  0.10566000000E+00 0.  1.
        -14    1    4    4    0    0  0.10006976305E+02 -0.14089298435E+02  0.25112121206E+02  0.30483873387E+02  0.00000000000E+00 0.  1.
<mgrwt>
<rscale>  0 0.75818455E+02</rscale>
<asrwt>0</asrwt>
<pdfrwt beam="1">  1        1 0.49987684E-02 0.75818455E+02</pdfrwt>
<pdfrwt beam="2">  1       -2 0.68045615E-02 0.75818455E+02</pdfrwt>
<totfact> 0.14285494E+05</totfact>
</mgrwt>
</event>
<event>
 8    1  0.8247621E-018  0.8021314E+02  0.7818608E-02  0.1328448E+00
          1   -1    0    0  501    0  0.00000000000E+00  0.00000000000E+00  0.14330772600E+03  0.14330772608E+03  0.50400000000E-02 0. -1.
         -2   -1    0    0    0  501 -0.00000000000E+00 -0.00000000000E+00 -0.11224354672E+02  0.11224354962E+02  0.25500000000E-02 0.  1.
        -24    2    1    2    0    0 -0.35527136788E-14  0.00000000000E+00  0.13208337132E+03  0.15453208105E+03  0.80213135411E+02 0.  0.
         66    2    3    3    0    0  0.23943881853E+02  0.31846096923E+02  0.74490825233E+02  0.84500688825E+02  0.20000001275E+01 0.  0.
         13    1    3    3    0    0 -0.23943881853E+02 -0.31846096923E+02  0.57592546090E+02  0.70031392222E+02  0.10566000000E+00 0. -1.
         13    1    4    4    0    0  0.40613497307E+01  0.60949291097E+01  0.12980574865E+02  0.14904670756E+02  0.10566000000E+00 0. -1.
        -13    1    4    4    0    0  0.18766642758E+02  0.24485135802E+02  0.58846085072E+02  0.66442318202E+02  0.10566000000E+00 0.  1.
        -14    1    4    4    0    0  0.11158893636E+01  0.12660320104E+01  0.26641652969E+01  0.31536998673E+01  0.00000000000E+00 0.  1.
<mgrwt>
<rscale>  0 0.80213135E+02</rscale>
<asrwt>0</asrwt>
<pdfrwt beam="1">  1        1 0.22047341E-01 0.80213135E+02</pdfrwt>
<pdfrwt beam="2">  1       -2 0.17268239E-02 0.80213135E+02</pdfrwt>
<totfact> 0.15545597E+05</totfact>
</mgrwt>
</event>
<event>
 8    1  0.8247621E-018  0.8012851E+02  0.7818608E-02  0.1328687E+00
         -2   -1    0    0    0  501 -0.00000000000E+00  0.00000000000E+00  0.60033310183E+02  0.60033310237E+02  0.25500000000E-02 0.  1.
          1   -1    0    0  501    0  0.00000000000E+00 -0.00000000000E+00 -0.26737562344E+02  0.26737562819E+02  0.50400000000E-02 0. -1.
        -24    2    1    2    0    0  0.00000000000E+00  0.00000000000E+00  0.33295747840E+02  0.86770873056E+02  0.80128506705E+02 0.  0.
         66    2    3    3    0    0  0.23005744517E+02  0.21119035478E+02  0.43792530312E+02  0.53824377846E+02  0.19999997755E+01 0.  0.
         13    1    3    3    0    0 -0.23005744517E+02 -0.21119035478E+02 -0.10496782473E+02  0.32946495210E+02  0.10566000000E+00 0. -1.
         13    1    4    4    0    0  0.28597734584E+01  0.35276765215E+01  0.66632306648E+01  0.80642800547E+01  0.10566000000E+00 0. -1.
        -13    1    4    4    0    0  0.14064904963E+02  0.12261928486E+02  0.26109203047E+02  0.32091713722E+02  0.10566000000E+00 0.  1.
         14    1    4    4    0    0  0.60810660956E+01  0.53294304700E+01  0.11020096600E+02  0.13668384069E+02  0.00000000000E+00 0. -1.
<mgrwt>
<rscale>  0 0.80128507E+02</rscale>
<asrwt>0</asrwt>
<pdfrwt beam="1">  1        1 0.41134712E-02 0.80128507E+02</pdfrwt>
<pdfrwt beam="2">  1       -2 0.92358939E-02 0.80128507E+02</pdfrwt>
<totfact> 0.11789760E+05</totfact>
</mgrwt>
</event>
<event>
 8    1  0.8247621E-018  0.8100895E+02  0.7818608E-02  0.1326212E+00
          1   -1    0    0  501    0  0.00000000000E+00  0.00000000000E+00  0.59653815868E+01  0.59653837158E+01  0.50400000000E-02 0. -1.
         -2   -1    0    0    0  501 -0.00000000000E+00 -0.00000000000E+00 -0.27502214724E+03  0.27502214725E+03  0.25500000000E-02 0.  1.
        -24    2    1    2    0    0  0.00000000000E+00  0.11102230246E-15 -0.26905676565E+03  0.28098753096E+03  0.81008946515E+02 0.  0.
         66    2    3    3    0    0  0.36404558031E+02 -0.83078196394E+00 -0.19593918994E+03  0.19930416004E+03  0.20000024901E+01 0.  0.
         13    1    3    3    0    0 -0.36404558031E+02  0.83078196394E+00 -0.73117575708E+02  0.81683370925E+02  0.10566000000E+00 0. -1.
         13    1    4    4    0    0  0.25885423230E+01  0.12710856415E+00 -0.15678496439E+02  0.15891605412E+02  0.10566000000E+00 0. -1.
        -13    1    4    4    0    0  0.10207388564E+02  0.32163983174E+00 -0.54400814123E+02  0.55351187654E+02  0.10566000000E+00 0.  1.
         14    1    4    4    0    0  0.23608627144E+02 -0.12795303598E+01 -0.12585987938E+03  0.12806136697E+03  0.00000000000E+00 0. -1.
<mgrwt>
<rscale>  0 0.81008947E+02</rscale>
<asrwt>0</asrwt>
<pdfrwt beam="1">  1        1 0.91775140E-03 0.81008947E+02</pdfrwt>
<pdfrwt beam="2">  1       -2 0.42311090E-01 0.81008947E+02</pdfrwt>
<totfact> 0.71221763E+04</totfact>
</mgrwt>
</event>
<event>
 8    1  0.8247621E-018  0.7734679E+02  0.7818608E-02  0.1336754E+00
         -2   -1    0    0    0  501 -0.00000000000E+00  0.00000000000E+00  0.49062106762E+01  0.49062113389E+01  0.25500000000E-02 0.  1.
          1   -1    0    0  501    0  0.00000000000E+00 -0.00000000000E+00 -0.30484454181E+03  0.30484454186E+03  0.50400000000E-02 0. -1.
        -24    2    1    2    0    0  0.35527136788E-14  0.00000000000E+00 -0.29993833114E+03  0.30975075319E+03  0.77346794496E+02 0.  0.
         66    2    3    3    0    0  0.29032940731E+02  0.20594467144E+02 -0.89787703247E+02  0.96606808192E+02  0.20000025427E+01 0.  0.
         13    1    3    3    0    0 -0.29032940731E+02 -0.20594467144E+02 -0.21015062789E+03  0.21314394500E+03  0.10566000000E+00 0. -1.
         13    1    4    4    0    0  0.75651464449E+01  0.44883691514E+01 -0.22293506861E+02  0.23966403789E+02  0.10566000000E+00 0. -1.
        -13    1    4    4    0    0  0.19013214386E+02  0.14010289079E+02 -0.58749169905E+02  0.63318770124E+02  0.10566000000E+00 0.  1.
         14    1    4    4    0    0  0.24545799008E+01  0.20958089128E+01 -0.87450264809E+01  0.93216342795E+01  0.00000000000E+00 0. -1.
<mgrwt>
<rscale>  0 0.77346794E+02</rscale>
<asrwt>0</asrwt>
<pdfrwt beam="1">  1        1 0.46899146E-01 0.77346794E+02</pdfrwt>
<pdfrwt beam="2">  1       -2 0.75480193E-03 0.77346794E+02</pdfrwt>
<totfact> 0.19775878E+05</totfact>
</mgrwt>
</event>
<event>
 8    1  0.8247621E-018  0.8030481E+02  0.7818608E-02  0.1328189E+00
         -2   -1    0    0    0  501 -0.00000000000E+00  0.00000000000E+00  0.41706249293E+01  0.41706257089E+01  0.25500000000E-02 0.  1.
          1   -1    0    0  501    0  0.00000000000E+00 -0.00000000000E+00 -0.38656451709E+03  0.38656451712E+03  0.50400000000E-02 0. -1.
        -24    2    1    2    0    0  0.00000000000E+00  0.00000000000E+00 -0.38239389216E+03  0.39073514283E+03  0.80304813567E+02 0.  0.
         66    2    3    3    0    0 -0.33587125632E+02 -0.21331417472E+02 -0.16599211473E+03  0.17070590655E+03  0.19999997328E+01 0.  0.
         13    1    3    3    0    0  0.33587125632E+02  0.21331417472E+02 -0.21640177743E+03  0.22002923628E+03  0.10566000000E+00 0. -1.
         13    1    4    4    0    0 -0.11304826710E+01 -0.83299367447E+00 -0.48345035434E+01  0.50354203477E+01  0.10566000000E+00 0. -1.
        -13    1    4    4    0    0 -0.12904386333E+02 -0.83278270928E+01 -0.66796675165E+02  0.68539644498E+02  0.10566000000E+00 0.  1.
        -14    1    4    4    0    0 -0.19552256628E+02 -0.12170596704E+02 -0.94360936020E+02  0.97130841703E+02  0.00000000000E+00 0.  1.
<mgrwt>
<rscale>  0 0.80304814E+02</rscale>
<asrwt>0</asrwt>
<pdfrwt beam="1">  1        1 0.59471436E-01 0.80304814E+02</pdfrwt>
<pdfrwt beam="2">  1       -2 0.64163497E-03 0.80304814E+02</pdfrwt>
<totfact> 0.18698287E+05</totfact>
</mgrwt>
</event>
<event>
 8    1  0.8247621E-018  0.7905697E+02  0.7818608E-02  0.1331749E+00
         -2   -1    0    0    0  501 -0.00000000000E+00  0.00000000000E+00  0.12096830888E+02  0.12096831156E+02  0.25500000000E-02 0.  1.
          1   -1    0    0  501    0  0.00000000000E+00 -0.00000000000E+00 -0.12916614763E+03  0.12916614773E+03  0.50400000000E-02 0. -1.
        -24    2    1    2    0    0 -0.88817841970E-15 -0.71054273576E-14 -0.11706931675E+03  0.14126297889E+03  0.79056968580E+02 0.  0.
         66    2    3    3    0    0 -0.71136088031E+01 -0.37648761572E+02 -0.41390034767E+02  0.56437289602E+02  0.20000003677E+01 0.  0.
         13    1    3    3    0    0  0.71136088031E+01  0.37648761572E+02 -0.75679281980E+02  0.84825689288E+02  0.10566000000E+00 0. -1.
         13    1    4    4    0    0 -0.63522985367E+01 -0.34287783824E+02 -0.37238914511E+02  0.51017170974E+02  0.10566000000E+00 0. -1.
        -13    1    4    4    0    0 -0.71462702112E+00 -0.23392502825E+01 -0.26992597540E+01  0.36441666975E+01  0.10566000000E+00 0.  1.
         14    1    4    4    0    0 -0.46683245348E-01 -0.10217274652E+01 -0.14518605025E+01  0.17759519299E+01  0.00000000000E+00 0. -1.
<mgrwt>
<rscale>  0 0.79056969E+02</rscale>
<asrwt>0</asrwt>
<pdfrwt beam="1">  1        1 0.19871714E-01 0.79056969E+02</pdfrwt>
<pdfrwt beam="2">  1       -2 0.18610510E-02 0.79056969E+02</pdfrwt>
<totfact> 0.15861579E+05</totfact>
</mgrwt>
</event>
<event>
 8    1  0.8247621E-018  0.7936445E+02  0.7818608E-02  0.1330865E+00
         -2   -1    0    0    0  501 -0.00000000000E+00  0.00000000000E+00  0.40314981606E+01  0.40314989671E+01  0.25500000000E-02 0.  1.
          1   -1    0    0  501    0  0.00000000000E+00 -0.00000000000E+00 -0.39059394836E+03  0.39059394839E+03  0.50400000000E-02 0. -1.
        -24    2    1    2    0    0  0.00000000000E+00 -0.35527136788E-14 -0.38656245020E+03  0.39462544736E+03  0.79364449218E+02 0.  0.
         66    2    3    3    0    0 -0.22027128043E+02 -0.30004840298E+02 -0.26143346740E+03  0.26407753159E+03  0.20000007863E+01 0.  0.
         13    1    3    3    0    0  0.22027128043E+02  0.30004840298E+02 -0.12512898280E+03  0.13054791577E+03  0.10566000000E+00 0. -1.
         13    1    4    4    0    0 -0.54947682839E+01 -0.63466619464E+01 -0.58297132875E+02  0.58898552290E+02  0.10566000000E+00 0. -1.
        -13    1    4    4    0    0 -0.17072232034E+01 -0.29443420144E+01 -0.23150868561E+02  0.23399949575E+02  0.10566000000E+00 0. -1.
        -14    1    4    4    0    0 -0.14825136556E+02 -0.20713836337E+02 -0.17998546596E+03  0.18177902973E+03  0.00000000000E+00 0.  1.
<mgrwt>
<rscale>  0 0.79364449E+02</rscale>
<asrwt>0</asrwt>
<pdfrwt beam="1">  1        1 0.60091347E-01 0.79364449E+02</pdfrwt>
<pdfrwt beam="2">  1       -2 0.62023086E-03 0.79364449E+02</pdfrwt>
<totfact> 0.19319384E+05</totfact>
</mgrwt>
</event>
<event>
 8    1  0.8247621E-018  0.8423673E+02  0.7818608E-02  0.1317441E+00
          1   -1    0    0  501    0  0.00000000000E+00  0.00000000000E+00  0.10043822780E+02  0.10043824045E+02  0.50400000000E-02 0. -1.
         -2   -1    0    0    0  501 -0.00000000000E+00 -0.00000000000E+00 -0.17662164608E+03  0.17662164610E+03  0.25500000000E-02 0.  1.
        -24    2    1    2    0    0  0.00000000000E+00  0.00000000000E+00 -0.16657782330E+03  0.18666547014E+03  0.84236729094E+02 0.  0.
         66    2    3    3    0    0 -0.39537003506E+02  0.10384483283E+02 -0.10559920967E+03  0.11325283756E+03  0.19999979583E+01 0.  0.
         13    1    3    3    0    0  0.39537003506E+02 -0.10384483283E+02 -0.60978613623E+02  0.73412632583E+02  0.10566000000E+00 0. -1.
         13    1    4    4    0    0 -0.13429390372E+02  0.42725850207E+01 -0.35518544992E+02  0.38212324071E+02  0.10566000000E+00 0. -1.
        -13    1    4    4    0    0 -0.18582061214E+02  0.39702344717E+01 -0.49164885896E+02  0.52709135166E+02  0.10566000000E+00 0.  1.
         14    1    4    4    0    0 -0.75255519206E+01  0.21416637905E+01 -0.20915778787E+02  0.22331378322E+02  0.00000000000E+00 0. -1.
<mgrwt>
<rscale>  0 0.84236729E+02</rscale>
<asrwt>0</asrwt>
<pdfrwt beam="1">  1        1 0.15452037E-02 0.84236729E+02</pdfrwt>
<pdfrwt beam="2">  1       -2 0.27172559E-01 0.84236729E+02</pdfrwt>
<totfact> 0.78144064E+04</totfact>
</mgrwt>
</event>
<event>
 8    1  0.8247621E-018  0.7916928E+02  0.7818608E-02  0.1331426E+00
          1   -1    0    0  501    0  0.00000000000E+00  0.00000000000E+00  0.15589454271E+03  0.15589454279E+03  0.50400000000E-02 0. -1.
         -2   -1    0    0    0  501 -0.00000000000E+00 -0.00000000000E+00 -0.10051305537E+02  0.10051305860E+02  0.25500000000E-02 0.  1.
        -24    2    1    2    0    0  0.00000000000E+00  0.71054273576E-14  0.14584323718E+03  0.16594584865E+03  0.79169279747E+02 0.  0.
         66    2    3    3    0    0  0.18335632640E+01 -0.35153769895E+02  0.35134389780E+02  0.49775243302E+02  0.20000021254E+01 0.  0.
         13    1    3    3    0    0 -0.18335632640E+01  0.35153769895E+02  0.11070884740E+03  0.11617060535E+03  0.10566000000E+00 0. -1.
         13    1    4    4    0    0 -0.13972434196E+00 -0.78743539034E+01  0.72965907676E+01  0.10736683527E+02  0.10566000000E+00 0. -1.
        -13    1    4    4    0    0  0.18908053673E+00 -0.26520571705E+01  0.23220173597E+01  0.35315842535E+01  0.10566000000E+00 0.  1.
        -14    1    4    4    0    0  0.17842070692E+01 -0.24627358821E+02  0.25515781652E+02  0.35506975522E+02  0.00000000000E+00 0.  1.
<mgrwt>
<rscale>  0 0.79169280E+02</rscale>
<asrwt>0</asrwt>
<pdfrwt beam="1">  1        1 0.23983776E-01 0.79169280E+02</pdfrwt>
<pdfrwt beam="2">  1       -2 0.15463547E-02 0.79169280E+02</pdfrwt>
<totfact> 0.16350643E+05</totfact>
</mgrwt>
</event>
<event>
 8    1  0.8247621E-018  0.7934750E+02  0.7818608E-02  0.1330913E+00
         -2   -1    0    0    0  501 -0.00000000000E+00  0.00000000000E+00  0.24314011812E+03  0.24314011813E+03  0.25500000000E-02 0.  1.
          1   -1    0    0  501    0  0.00000000000E+00 -0.00000000000E+00 -0.64736587074E+01  0.64736606693E+01  0.50400000000E-02 0. -1.
        -24    2    1    2    0    0 -0.35527136788E-14  0.00000000000E+00  0.23666645941E+03  0.24961377880E+03  0.79347498745E+02 0.  0.
         66    2    3    3    0    0  0.23054530668E+02  0.30909949315E+02  0.14742242577E+03  0.15239523604E+03  0.19999996129E+01 0.  0.
         13    1    3    3    0    0 -0.23054530668E+02 -0.30909949315E+02  0.89244033640E+02  0.97218542754E+02  0.10566000000E+00 0. -1.
         13    1    4    4    0    0  0.19742360896E+02  0.26456285256E+02  0.12569697076E+03  0.12995936082E+03  0.10566000000E+00 0. -1.
        -13    1    4    4    0    0  0.26847785784E+01  0.37663802320E+01  0.19029281750E+02  0.19583625406E+02  0.10566000000E+00 0.  1.
         14    1    4    4    0    0  0.62739119363E+00  0.68728382702E+00  0.26961732570E+01  0.28522498138E+01  0.00000000000E+00 0. -1.
<mgrwt>
<rscale>  0 0.79347499E+02</rscale>
<asrwt>0</asrwt>
<pdfrwt beam="1">  1        1 0.99594772E-03 0.79347499E+02</pdfrwt>
<pdfrwt beam="2">  1       -2 0.37406169E-01 0.79347499E+02</pdfrwt>
<totfact> 0.79804052E+04</totfact>
</mgrwt>
</event>
<event>
 8    1  0.8247621E-018  0.8487509E+02  0.7818608E-02  0.1315760E+00
         -2   -1    0    0    0  501 -0.00000000000E+00  0.00000000000E+00  0.55897517239E+02  0.55897517297E+02  0.25500000000E-02 0.  1.
          1   -1    0    0  501    0  0.00000000000E+00 -0.00000000000E+00 -0.32218695733E+02  0.32218696128E+02  0.50400000000E-02 0. -1.
        -24    2    1    2    0    0  0.17763568394E-14 -0.71054273576E-14  0.23678821505E+02  0.88116213424E+02  0.84875087513E+02 0.  0.
         66    2    3    3    0    0 -0.11723683668E+02  0.35340189959E+02  0.32933338801E+02  0.49749156729E+02  0.20000013871E+01 0.  0.
         13    1    3    3    0    0  0.11723683668E+02 -0.35340189959E+02 -0.92545172960E+01  0.38367056696E+02  0.10566000000E+00 0. -1.
         13    1    4    4    0    0 -0.40288961294E+01  0.13069244345E+02  0.11628112605E+02  0.17951638325E+02  0.10566000000E+00 0. -1.
        -13    1    4    4    0    0 -0.44213619772E+01  0.11982890481E+02  0.12408032397E+02  0.17807541605E+02  0.10566000000E+00 0.  1.
        -14    1    4    4    0    0 -0.32734255616E+01  0.10288055132E+02  0.88971938003E+01  0.13989976799E+02  0.00000000000E+00 0.  1.
<mgrwt>
<rscale>  0 0.84875088E+02</rscale>
<asrwt>0</asrwt>
<pdfrwt beam="1">  1        1 0.49567225E-02 0.84875088E+02</pdfrwt>
<pdfrwt beam="2">  1       -2 0.85996179E-02 0.84875088E+02</pdfrwt>
<totfact> 0.10330036E+05</totfact>
</mgrwt>
</event>
<event>
 8    1  0.8247621E-018  0.7951613E+02  0.7818608E-02  0.1330430E+00
         -2   -1    0    0    0  501 -0.00000000000E+00  0.00000000000E+00  0.37950218617E+01  0.37950227184E+01  0.25500000000E-02 0.  1.
          1   -1    0    0  501    0  0.00000000000E+00 -0.00000000000E+00 -0.41652031863E+03  0.41652031866E+03  0.50400000000E-02 0. -1.
        -24    2    1    2    0    0  0.00000000000E+00  0.00000000000E+00 -0.41272529677E+03  0.42031534138E+03  0.79516134249E+02 0.  0.
         66    2    3    3    0    0  0.11959249510E+01 -0.39647738471E+02 -0.19429445383E+03  0.19831214836E+03  0.19999983425E+01 0.  0.
         13    1    3    3    0    0 -0.11959249510E+01  0.39647738471E+02 -0.21843084294E+03  0.22200319302E+03  0.10566000000E+00 0. -1.
         13    1    4    4    0    0  0.59892508877E+00 -0.11496435183E+02 -0.58141106700E+02  0.59269943357E+02  0.10566000000E+00 0.  1.
        -13    1    4    4    0    0  0.86081181227E+00 -0.23770155414E+02 -0.11680795108E+03  0.11920515880E+03  0.10566000000E+00 0.  1.
        -14    1    4    4    0    0 -0.26381195008E+00 -0.43811478748E+01 -0.19345396056E+02  0.19837046201E+02  0.00000000000E+00 0.  1.
<mgrwt>
<rscale>  0 0.79516134E+02</rscale>
<asrwt>0</asrwt>
<pdfrwt beam="1">  1        1 0.64080013E-01 0.79516134E+02</pdfrwt>
<pdfrwt beam="2">  1       -2 0.58384991E-03 0.79516134E+02</pdfrwt>
<totfact> 0.19423931E+05</totfact>
</mgrwt>
</event>
<event>
 8    1  0.8247621E-018  0.8081356E+02  0.7818608E-02  0.1326758E+00
         -2   -1    0    0    0  501 -0.00000000000E+00  0.00000000000E+00  0.49532468620E+03  0.49532468620E+03  0.25500000000E-02 0.  1.
          1   -1    0    0  501    0  0.00000000000E+00 -0.00000000000E+00 -0.32962356624E+01  0.32962395155E+01  0.50400000000E-02 0. -1.
        -24    2    1    2    0    0  0.00000000000E+00  0.00000000000E+00  0.49202845053E+03  0.49862092572E+03  0.80813559688E+02 0.  0.
         66    2    3    3    0    0  0.30938054296E+02  0.15292795172E+02  0.37553929411E+03  0.37712702663E+03  0.20000011589E+01 0.  0.
         13    1    3    3    0    0 -0.30938054296E+02 -0.15292795172E+02  0.11648915642E+03  0.12149389909E+03  0.10566000000E+00 0. -1.
         13    1    4    4    0    0  0.28293415262E+01  0.18464024555E+01  0.37487518052E+02  0.37639600811E+02  0.10566000000E+00 0.  1.
        -13    1    4    4    0    0  0.26651073408E+02  0.12743696850E+02  0.31697218327E+03  0.31834581457E+03  0.10566000000E+00 0. -1.
         14    1    4    4    0    0  0.14576393619E+01  0.70269586648E+00  0.21079592792E+02  0.21141611250E+02  0.00000000000E+00 0. -1.
<mgrwt>
<rscale>  0 0.80813560E+02</rscale>
<asrwt>0</asrwt>
<pdfrwt beam="1">  1        1 0.50711333E-03 0.80813560E+02</pdfrwt>
<pdfrwt beam="2">  1       -2 0.76203820E-01 0.80813560E+02</pdfrwt>
<totfact> 0.49441285E+04</totfact>
</mgrwt>
</event>
<event>
 8    1  0.8247621E-018  0.7842341E+02  0.7818608E-02  0.1333586E+00
         -2   -1    0    0    0  501 -0.00000000000E+00  0.00000000000E+00  0.14779327800E+03  0.14779327802E+03  0.25500000000E-02 0.  1.
          1   -1    0    0  501    0  0.00000000000E+00 -0.00000000000E+00 -0.10403435309E+02  0.10403436530E+02  0.50400000000E-02 0. -1.
        -24    2    1    2    0    0 -0.17763568394E-14  0.35527136788E-14  0.13738984269E+03  0.15819671455E+03  0.78423412451E+02 0.  0.
         66    2    3    3    0    0 -0.81355495993E+01  0.21976415342E+02  0.13209418493E+03  0.13417162030E+03  0.20000006629E+01 0.  0.
         13    1    3    3    0    0  0.81355495993E+01 -0.21976415342E+02  0.52956577559E+01  0.24025094249E+02  0.10566000000E+00 0. -1.
         13    1    4    4    0    0 -0.14937242526E+01  0.58142019630E+01  0.35476912295E+02  0.35981364991E+02  0.10566000000E+00 0. -1.
        -13    1    4    4    0    0 -0.43422208335E+01  0.10696090070E+02  0.66523080145E+02  0.67517350219E+02  0.10566000000E+00 0.  1.
         14    1    4    4    0    0 -0.22996045132E+01  0.54661233090E+01  0.30094192495E+02  0.30672905093E+02  0.00000000000E+00 0. -1.
<mgrwt>
<rscale>  0 0.78423412E+02</rscale>
<asrwt>0</asrwt>
<pdfrwt beam="1">  1        1 0.16005287E-02 0.78423412E+02</pdfrwt>
<pdfrwt beam="2">  1       -2 0.22737426E-01 0.78423412E+02</pdfrwt>
<totfact> 0.99957285E+04</totfact>
</mgrwt>
</event>
<event>
 8    1  0.8247621E-018  0.8021100E+02  0.7818608E-02  0.1328454E+00
         -2   -1    0    0    0  501 -0.00000000000E+00  0.00000000000E+00  0.75477255088E+02  0.75477255131E+02  0.25500000000E-02 0.  1.
          1   -1    0    0  501    0  0.00000000000E+00 -0.00000000000E+00 -0.21310408427E+02  0.21310409023E+02  0.50400000000E-02 0. -1.
        -24    2    1    2    0    0  0.00000000000E+00  0.00000000000E+00  0.54166846661E+02  0.96787664154E+02  0.80211000837E+02 0.  0.
         66    2    3    3    0    0  0.37094248286E+02  0.16223207073E+01  0.88867527573E+01  0.38230741008E+02  0.20000007626E+01 0.  0.
         13    1    3    3    0    0 -0.37094248286E+02 -0.16223207073E+01  0.45280093903E+02  0.58556923146E+02  0.10566000000E+00 0. -1.
         13    1    4    4    0    0  0.51361856660E+00  0.10666082785E+00  0.30711739483E-01  0.53599236067E+00  0.10566000000E+00 0.  1.
        -13    1    4    4    0    0  0.18022101315E+01 -0.16954023672E+00  0.60199387726E+00  0.19105669090E+01  0.10566000000E+00 0.  1.
        -14    1    4    4    0    0  0.34778419588E+02  0.16852001161E+01  0.82540471405E+01  0.35784181738E+02  0.00000000000E+00 0.  1.
<mgrwt>
<rscale>  0 0.80211001E+02</rscale>
<asrwt>0</asrwt>
<pdfrwt beam="1">  1        1 0.32785244E-02 0.80211001E+02</pdfrwt>
<pdfrwt beam="2">  1       -2 0.11611886E-01 0.80211001E+02</pdfrwt>
<totfact> 0.11239492E+05</totfact>
</mgrwt>
</event>
<event>
 8    1  0.8247621E-018  0.8235682E+02  0.7818608E-02  0.1322493E+00
         -2   -1    0    0    0  501 -0.00000000000E+00  0.00000000000E+00  0.10897535609E+03  0.10897535612E+03  0.25500000000E-02 0.  1.
          1   -1    0    0  501    0  0.00000000000E+00 -0.00000000000E+00 -0.15560045324E+02  0.15560046140E+02  0.50400000000E-02 0. -1.
        -24    2    1    2    0    0 -0.35527136788E-14  0.00000000000E+00  0.93415310762E+02  0.12453540226E+03  0.82356822002E+02 0.  0.
         66    2    3    3    0    0 -0.24330334726E+02  0.10515090946E+02  0.94340641399E+02  0.98013718178E+02  0.20000015208E+01 0.  0.
         13    1    3    3    0    0  0.24330334726E+02 -0.10515090946E+02 -0.92533063652E+00  0.26521684078E+02  0.10566000000E+00 0. -1.
         13    1    4    4    0    0 -0.10217085632E+02  0.37140347435E+01  0.40677472944E+02  0.42105235566E+02  0.10566000000E+00 0. -1.
        -13    1    4    4    0    0 -0.11294690977E+02  0.52584246041E+01  0.43547367425E+02  0.45294651420E+02  0.10566000000E+00 0.  1.
        -14    1    4    4    0    0 -0.28185581171E+01  0.15426315989E+01  0.10115801030E+02  0.10613831192E+02  0.00000000000E+00 0.  1.
<mgrwt>
<rscale>  0 0.82356822E+02</rscale>
<asrwt>0</asrwt>
<pdfrwt beam="1">  1        1 0.23938531E-02 0.82356822E+02</pdfrwt>
<pdfrwt beam="2">  1       -2 0.16765440E-01 0.82356822E+02</pdfrwt>
<totfact> 0.96373449E+04</totfact>
</mgrwt>
</event>
<event>
 8    1  0.8247621E-018  0.7894681E+02  0.7818608E-02  0.1332067E+00
         -2   -1    0    0    0  501 -0.00000000000E+00  0.00000000000E+00  0.71071328675E+02  0.71071328720E+02  0.25500000000E-02 0.  1.
          1   -1    0    0  501    0  0.00000000000E+00 -0.00000000000E+00 -0.21923746541E+02  0.21923747121E+02  0.50400000000E-02 0. -1.
        -24    2    1    2    0    0 -0.35527136788E-14  0.00000000000E+00  0.49147582133E+02  0.92995075841E+02  0.78946813116E+02 0.  0.
         66    2    3    3    0    0 -0.23711762876E+02  0.54139273091E+00  0.61720123734E+02  0.66150695217E+02  0.19999998028E+01 0.  0.
         13    1    3    3    0    0  0.23711762876E+02 -0.54139273091E+00 -0.12572541600E+02  0.26844380624E+02  0.10566000000E+00 0. -1.
         13    1    4    4    0    0 -0.35077371864E+01 -0.20699514112E+00  0.95511644520E+01  0.10177572087E+02  0.10566000000E+00 0. -1.
        -13    1    4    4    0    0 -0.31661978080E+01 -0.58609960565E-01  0.98062367045E+01  0.10305420226E+02  0.10566000000E+00 0.  1.
         14    1    4    4    0    0 -0.17037827882E+02  0.80699783260E+00  0.42362722577E+02  0.45667702904E+02  0.00000000000E+00 0. -1.
<mgrwt>
<rscale>  0 0.78946813E+02</rscale>
<asrwt>0</asrwt>
<pdfrwt beam="1">  1        1 0.33728841E-02 0.78946813E+02</pdfrwt>
<pdfrwt beam="2">  1       -2 0.10934051E-01 0.78946813E+02</pdfrwt>
<totfact> 0.11848275E+05</totfact>
</mgrwt>
</event>
<event>
 8    1  0.8247621E-018  0.8129386E+02  0.7818608E-02  0.1325419E+00
         -2   -1    0    0    0  501 -0.00000000000E+00  0.00000000000E+00  0.62025852218E+02  0.62025852271E+02  0.25500000000E-02 0.  1.
          1   -1    0    0  501    0  0.00000000000E+00 -0.00000000000E+00 -0.26636843815E+02  0.26636844292E+02  0.50400000000E-02 0. -1.
        -24    2    1    2    0    0  0.17763568394E-14  0.00000000000E+00  0.35389008403E+02  0.88662696563E+02  0.81293861060E+02 0.  0.
         66    2    3    3    0    0  0.12801709196E+02  0.18965294621E+02  0.54312544074E+02  0.58969641403E+02  0.20000012381E+01 0.  0.
         13    1    3    3    0    0 -0.12801709196E+02 -0.18965294621E+02 -0.18923535671E+02  0.29693055160E+02  0.10566000000E+00 0. -1.
         13    1    4    4    0    0  0.54457495489E+01  0.65118439297E+01  0.19971578660E+02  0.21701046466E+02  0.10566000000E+00 0. -1.
        -13    1    4    4    0    0  0.62840284641E+01  0.10170562500E+02  0.28162421072E+02  0.30595138176E+02  0.10566000000E+00 0.  1.
         14    1    4    4    0    0  0.10719311834E+01  0.22828881917E+01  0.61785443418E+01  0.66734567611E+01  0.00000000000E+00 0. -1.
<mgrwt>
<rscale>  0 0.81293861E+02</rscale>
<asrwt>0</asrwt>
<pdfrwt beam="1">  1        1 0.40979760E-02 0.81293861E+02</pdfrwt>
<pdfrwt beam="2">  1       -2 0.95424388E-02 0.81293861E+02</pdfrwt>
<totfact> 0.11296934E+05</totfact>
</mgrwt>
</event>
<event>
 8    1  0.8247621E-018  0.7636148E+02  0.7818608E-02  0.1339706E+00
          1   -1    0    0  501    0  0.00000000000E+00  0.00000000000E+00  0.15614315562E+02  0.15614316376E+02  0.50400000000E-02 0. -1.
         -2   -1    0    0    0  501 -0.00000000000E+00 -0.00000000000E+00 -0.93361054509E+02  0.93361054543E+02  0.25500000000E-02 0.  1.
        -24    2    1    2    0    0  0.00000000000E+00  0.00000000000E+00 -0.77746738946E+02  0.10897537092E+03  0.76361482765E+02 0.  0.
         66    2    3    3    0    0  0.10485706362E+02  0.80742925651E+01 -0.89969757258E+02  0.90959889271E+02  0.19999991869E+01 0.  0.
         13    1    3    3    0    0 -0.10485706362E+02 -0.80742925651E+01  0.12223018312E+02  0.18015481648E+02  0.10566000000E+00 0. -1.
         13    1    4    4    0    0  0.26088352497E+01  0.25058975533E+01 -0.25495163747E+02  0.25750729746E+02  0.10566000000E+00 0. -1.
        -13    1    4    4    0    0  0.59326125089E+01  0.44073417401E+01 -0.53035155818E+02  0.53547730756E+02  0.10566000000E+00 0.  1.
         14    1    4    4    0    0  0.19442586035E+01  0.11610532717E+01 -0.11439437692E+02  0.11661428769E+02  0.00000000000E+00 0. -1.
<mgrwt>
<rscale>  0 0.76361483E+02</rscale>
<asrwt>0</asrwt>
<pdfrwt beam="1">  1        1 0.24022025E-02 0.76361483E+02</pdfrwt>
<pdfrwt beam="2">  1       -2 0.14363239E-01 0.76361483E+02</pdfrwt>
<totfact> 0.12153733E+05</totfact>
</mgrwt>
</event>
<event>
 8    1  0.8247621E-018  0.7864328E+02  0.7818608E-02  0.1332946E+00
         -2   -1    0    0    0  501 -0.00000000000E+00  0.00000000000E+00  0.11187273886E+02  0.11187274177E+02  0.25500000000E-02 0.  1.
          1   -1    0    0  501    0  0.00000000000E+00 -0.00000000000E+00 -0.13820982353E+03  0.13820982362E+03  0.50400000000E-02 0. -1.
        -24    2    1    2    0    0 -0.17763568394E-14 -0.35527136788E-14 -0.12702254964E+03  0.14939709780E+03  0.78643275063E+02 0.  0.
         66    2    3    3    0    0 -0.70782370349E+01 -0.23682177564E+02 -0.55189622444E+01  0.25404840425E+02  0.19999997733E+01 0.  0.
         13    1    3    3    0    0  0.70782370349E+01  0.23682177564E+02 -0.12150358740E+03  0.12399225737E+03  0.10566000000E+00 0. -1.
         13    1    4    4    0    0 -0.12843885546E+01 -0.47717145800E+01 -0.13855026807E+01  0.51331954673E+01  0.10566000000E+00 0. -1.
        -13    1    4    4    0    0  0.71592823103E-01 -0.48418531505E+00 -0.19494429084E+00  0.53733440589E+00  0.10566000000E+00 0.  1.
        -14    1    4    4    0    0 -0.58654413034E+01 -0.18426277669E+02 -0.39385152729E+01  0.19734310552E+02  0.00000000000E+00 0.  1.
<mgrwt>
<rscale>  0 0.78643275E+02</rscale>
<asrwt>0</asrwt>
<pdfrwt beam="1">  1        1 0.21263049E-01 0.78643275E+02</pdfrwt>
<pdfrwt beam="2">  1       -2 0.17211192E-02 0.78643275E+02</pdfrwt>
<totfact> 0.16281842E+05</totfact>
</mgrwt>
</event>
<event>
 8    1  0.8247621E-018  0.7782701E+02  0.7818608E-02  0.1335334E+00
         -2   -1    0    0    0  501 -0.00000000000E+00  0.00000000000E+00  0.65448512364E+01  0.65448517332E+01  0.25500000000E-02 0.  1.
          1   -1    0    0  501    0  0.00000000000E+00 -0.00000000000E+00 -0.23136672637E+03  0.23136672643E+03  0.50400000000E-02 0. -1.
        -24    2    1    2    0    0  0.00000000000E+00  0.71054273576E-14 -0.22482187513E+03  0.23791157816E+03  0.77827009984E+02 0.  0.
         66    2    3    3    0    0  0.51502557870E+01  0.32286147290E+02 -0.48119710367E+02  0.58210196308E+02  0.19999967367E+01 0.  0.
         13    1    3    3    0    0 -0.51502557870E+01 -0.32286147290E+02 -0.17670216477E+03  0.17970138185E+03  0.10566000000E+00 0. -1.
         13    1    4    4    0    0  0.28716518304E+01  0.15235393956E+02 -0.24247191913E+02  0.28780220516E+02  0.10566000000E+00 0. -1.
        -13    1    4    4    0    0  0.25708815728E+00  0.15256897622E+01 -0.19678875186E+01  0.25055077115E+01  0.10566000000E+00 0.  1.
         14    1    4    4    0    0  0.20215157993E+01  0.15525063571E+02 -0.21904630935E+02  0.26924468081E+02  0.00000000000E+00 0. -1.
<mgrwt>
<rscale>  0 0.77827010E+02</rscale>
<asrwt>0</asrwt>
<pdfrwt beam="1">  1        1 0.35594875E-01 0.77827010E+02</pdfrwt>
<pdfrwt beam="2">  1       -2 0.10069004E-02 0.77827010E+02</pdfrwt>
<totfact> 0.18449636E+05</totfact>
</mgrwt>
</event>
<event>
 8    1  0.8247621E-018  0.8217851E+02  0.7818608E-02  0.1322980E+00
         -2   -1    0    0    0  501 -0.00000000000E+00  0.00000000000E+00  0.13362953167E+02  0.13362953410E+02  0.25500000000E-02 0.  1.
          1   -1    0    0  501    0  0.00000000000E+00 -0.00000000000E+00 -0.12634383462E+03  0.12634383472E+03  0.50400000000E-02 0. -1.
        -24    2    1    2    0    0 -0.35527136788E-14  0.00000000000E+00 -0.11298088145E+03  0.13970678813E+03  0.82178507384E+02 0.  0.
         66    2    3    3    0    0 -0.28189777305E+02 -0.27531561313E+02 -0.36868561964E+02  0.53999456153E+02  0.19999976492E+01 0.  0.
         13    1    3    3    0    0  0.28189777305E+02  0.27531561313E+02 -0.76112319488E+02  0.85707331977E+02  0.10566000000E+00 0. -1.
         13    1    4    4    0    0 -0.33709574334E+01 -0.27951112883E+01 -0.37359956032E+01  0.57571545328E+01  0.10566000000E+00 0. -1.
        -13    1    4    4    0    0 -0.92750326132E+01 -0.95433511853E+01 -0.11778463095E+02  0.17772032487E+02  0.10566000000E+00 0.  1.
        -14    1    4    4    0    0 -0.15543787259E+02 -0.15193098839E+02 -0.21354103267E+02  0.30470269132E+02  0.00000000000E+00 0.  1.
<mgrwt>
<rscale>  0 0.82178507E+02</rscale>
<asrwt>0</asrwt>
<pdfrwt beam="1">  1        1 0.19437512E-01 0.82178507E+02</pdfrwt>
<pdfrwt beam="2">  1       -2 0.20558391E-02 0.82178507E+02</pdfrwt>
<totfact> 0.14238517E+05</totfact>
</mgrwt>
</event>
<event>
 8    1  0.8935225E-018  0.8571473E+02  0.7818608E-02  0.1313574E+00
          1   -1    0    0  501    0  0.00000000000E+00  0.00000000000E+00  0.13230359361E+03  0.13230359370E+03  0.50400000000E-02 0. -1.
         -2   -1    0    0    0  501 -0.00000000000E+00 -0.00000000000E+00 -0.13882871922E+02  0.13882872157E+02  0.25500000000E-02 0.  1.
        -24    2    1    2    0    0  0.00000000000E+00  0.00000000000E+00  0.11842072169E+03  0.14618646586E+03  0.85714733134E+02 0.  0.
         66    2    3    3    0    0  0.11339746126E+02  0.27442344602E+02  0.65904169154E+01  0.30481235432E+02  0.19999997244E+01 0.  0.
         13    1    3    3    0    0 -0.11339746126E+02 -0.27442344602E+02  0.11183030477E+03  0.11570523043E+03  0.10566000000E+00 0. -1.
         13    1    4    4    0    0  0.88062422073E+00  0.29797812283E+01  0.99805795052E+00  0.32652532666E+01  0.10566000000E+00 0. -1.
        -13    1    4    4    0    0  0.50980044851E+01  0.12473204230E+02  0.34399612005E+01  0.13907371088E+02  0.10566000000E+00 0.  1.
        -14    1    4    4    0    0  0.53611174201E+01  0.11989359144E+02  0.21523977644E+01  0.13308611077E+02  0.00000000000E+00 0.  1.
<mgrwt>
<rscale>  0 0.85714733E+02</rscale>
<asrwt>0</asrwt>
<pdfrwt beam="1">  1        1 0.20354399E-01 0.85714733E+02</pdfrwt>
<pdfrwt beam="2">  1       -2 0.21358265E-02 0.85714733E+02</pdfrwt>
<totfact> 0.12815707E+05</totfact>
</mgrwt>
</event>
<event>
 8    1  0.8247621E-018  0.8056626E+02  0.7818608E-02  0.1327452E+00
         -2   -1    0    0    0  501 -0.00000000000E+00  0.00000000000E+00  0.13569584333E+03  0.13569584336E+03  0.25500000000E-02 0.  1.
          1   -1    0    0  501    0  0.00000000000E+00 -0.00000000000E+00 -0.11958585839E+02  0.11958586901E+02  0.50400000000E-02 0. -1.
        -24    2    1    2    0    0  0.35527136788E-14  0.00000000000E+00  0.12373725749E+03  0.14765443026E+03  0.80566257717E+02 0.  0.
         66    2    3    3    0    0 -0.24571904373E+02  0.27431228257E+02  0.91711392152E+02  0.98849533135E+02  0.19999955577E+01 0.  0.
         13    1    3    3    0    0  0.24571904373E+02 -0.27431228257E+02  0.32025865342E+02  0.48804897123E+02  0.10566000000E+00 0. -1.
         13    1    4    4    0    0 -0.72238413189E+01  0.81431607993E+01  0.28935129881E+02  0.30915171947E+02  0.10566000000E+00 0. -1.
        -13    1    4    4    0    0 -0.97596857071E+01  0.10840875219E+02  0.36721502479E+02  0.39512731480E+02  0.10566000000E+00 0.  1.
         14    1    4    4    0    0 -0.75883773472E+01  0.84471922385E+01  0.26054759792E+02  0.28421629709E+02  0.00000000000E+00 0. -1.
<mgrwt>
<rscale>  0 0.80566258E+02</rscale>
<asrwt>0</asrwt>
<pdfrwt beam="1">  1        1 0.18397825E-02 0.80566258E+02</pdfrwt>
<pdfrwt beam="2">  1       -2 0.20876284E-01 0.80566258E+02</pdfrwt>
<totfact> 0.95809949E+04</totfact>
</mgrwt>
</event>
<event>
 8    1  0.8247621E-018  0.8074291E+02  0.7818608E-02  0.1326956E+00
         -2   -1    0    0    0  501 -0.00000000000E+00  0.00000000000E+00  0.36243234170E+03  0.36243234171E+03  0.25500000000E-02 0.  1.
          1   -1    0    0  501    0  0.00000000000E+00 -0.00000000000E+00 -0.44969882592E+01  0.44969910835E+01  0.50400000000E-02 0. -1.
        -24    2    1    2    0    0 -0.71054273576E-14  0.88817841970E-15  0.35793535344E+03  0.36692933279E+03  0.80742913130E+02 0.  0.
         66    2    3    3    0    0 -0.38155751848E+02  0.55452317881E+01  0.23308474493E+03  0.23626068084E+03  0.19999987309E+01 0.  0.
         13    1    3    3    0    0  0.38155751848E+02 -0.55452317881E+01  0.12485060850E+03  0.13066865195E+03  0.10566000000E+00 0. -1.
         13    1    4    4    0    0 -0.17622759669E+02  0.18401257055E+01  0.10871715536E+03  0.11015161712E+03  0.10566000000E+00 0.  1.
        -13    1    4    4    0    0 -0.19697486918E+01  0.20824099769E+00  0.10617039338E+02  0.10800738982E+02  0.10566000000E+00 0. -1.
        -14    1    4    4    0    0 -0.18563243488E+02  0.34968650849E+01  0.11375055024E+03  0.11530832474E+03  0.00000000000E+00 0.  1.
<mgrwt>
<rscale>  0 0.80742913E+02</rscale>
<asrwt>0</asrwt>
<pdfrwt beam="1">  1        1 0.69184443E-03 0.80742913E+02</pdfrwt>
<pdfrwt beam="2">  1       -2 0.55758833E-01 0.80742913E+02</pdfrwt>
<totfact> 0.61465783E+04</totfact>
</mgrwt>
</event>
<event>
 8    1  0.8247621E-018  0.8249176E+02  0.7818608E-02  0.1322125E+00
         -2   -1    0    0    0  501 -0.00000000000E+00  0.00000000000E+00  0.10168619118E+03  0.10168619121E+03  0.25500000000E-02 0.  1.
          1   -1    0    0  501    0  0.00000000000E+00 -0.00000000000E+00 -0.16730122782E+02  0.16730123541E+02  0.50400000000E-02 0. -1.
        -24    2    1    2    0    0  0.17763568394E-14  0.00000000000E+00  0.84956068399E+02  0.11841631475E+03  0.82491757419E+02 0.  0.
         66    2    3    3    0    0  0.13011396806E+02  0.14348059788E+02  0.94737004556E+02  0.96717440528E+02  0.20000008333E+01 0.  0.
         13    1    3    3    0    0 -0.13011396806E+02 -0.14348059788E+02 -0.97809361578E+01  0.21698874226E+02  0.10566000000E+00 0. -1.
         13    1    4    4    0    0  0.42810926754E+01  0.53794427420E+01  0.37743815080E+02  0.38364995758E+02  0.10566000000E+00 0. -1.
        -13    1    4    4    0    0  0.21016537026E+01  0.20187543666E+01  0.13608429542E+02  0.13917357368E+02  0.10566000000E+00 0.  1.
         14    1    4    4    0    0  0.66286504283E+01  0.69498626795E+01  0.43384759935E+02  0.44435087402E+02  0.00000000000E+00 0. -1.
<mgrwt>
<rscale>  0 0.82491757E+02</rscale>
<asrwt>0</asrwt>
<pdfrwt beam="1">  1        1 0.25738652E-02 0.82491757E+02</pdfrwt>
<pdfrwt beam="2">  1       -2 0.15644029E-01 0.82491757E+02</pdfrwt>
<totfact> 0.97699467E+04</totfact>
</mgrwt>
</event>
<event>
 8    1  0.8247621E-018  0.8088822E+02  0.7818608E-02  0.1326550E+00
          1   -1    0    0  501    0  0.00000000000E+00  0.00000000000E+00  0.72819340394E+01  0.72819357835E+01  0.50400000000E-02 0. -1.
         -2   -1    0    0    0  501 -0.00000000000E+00 -0.00000000000E+00 -0.22462791094E+03  0.22462791096E+03  0.25500000000E-02 0.  1.
        -24    2    1    2    0    0  0.35527136788E-14 -0.35527136788E-14 -0.21734597690E+03  0.23190984674E+03  0.80888215082E+02 0.  0.
         66    2    3    3    0    0 -0.18117878074E+02  0.21676512337E+02 -0.19161568583E+03  0.19369744384E+03  0.19999997847E+01 0.  0.
         13    1    3    3    0    0  0.18117878074E+02 -0.21676512337E+02 -0.25730291070E+02  0.38212402902E+02  0.10566000000E+00 0. -1.
         13    1    4    4    0    0 -0.73353654196E+00  0.11664103244E+01 -0.84229521105E+01  0.85355653119E+01  0.10566000000E+00 0. -1.
        -13    1    4    4    0    0 -0.46448063954E+01  0.45496451615E+01 -0.42320265723E+02  0.42816930676E+02  0.10566000000E+00 0.  1.
        -14    1    4    4    0    0 -0.12739535137E+02  0.15960456851E+02 -0.14087246800E+03  0.14234494785E+03  0.00000000000E+00 0.  1.
<mgrwt>
<rscale>  0 0.80888215E+02</rscale>
<asrwt>0</asrwt>
<pdfrwt beam="1">  1        1 0.11202979E-02 0.80888215E+02</pdfrwt>
<pdfrwt beam="2">  1       -2 0.34558135E-01 0.80888215E+02</pdfrwt>
<totfact> 0.78719221E+04</totfact>
</mgrwt>
</event>
<event>
 8    1  0.8247621E-018  0.7539069E+02  0.7818608E-02  0.1342665E+00
          1   -1    0    0  501    0  0.00000000000E+00  0.00000000000E+00  0.59973089109E+02  0.59973089321E+02  0.50400000000E-02 0. -1.
         -2   -1    0    0    0  501 -0.00000000000E+00 -0.00000000000E+00 -0.23692944823E+02  0.23692944960E+02  0.25500000000E-02 0.  1.
        -24    2    1    2    0    0  0.00000000000E+00  0.00000000000E+00  0.36280144286E+02  0.83666034281E+02  0.75390691884E+02 0.  0.
         66    2    3    3    0    0  0.10336910642E+02 -0.31192309713E+02 -0.22838441325E+01  0.33000421942E+02  0.19999993605E+01 0.  0.
         13    1    3    3    0    0 -0.10336910642E+02  0.31192309713E+02  0.38563988419E+02  0.50665612339E+02  0.10566000000E+00 0. -1.
         13    1    4    4    0    0  0.13295117606E+01 -0.31677672013E+01 -0.18747464586E+00  0.34421884523E+01  0.10566000000E+00 0. -1.
        -13    1    4    4    0    0  0.16345008060E+01 -0.34661305146E+01 -0.29086302286E-01  0.38337532103E+01  0.10566000000E+00 0.  1.
         14    1    4    4    0    0  0.73728980754E+01 -0.24558411997E+02 -0.20672831844E+01  0.25724480279E+02  0.00000000000E+00 0. -1.
<mgrwt>
<rscale>  0 0.75390692E+02</rscale>
<asrwt>0</asrwt>
<pdfrwt beam="1">  1        1 0.92266291E-02 0.75390692E+02</pdfrwt>
<pdfrwt beam="2">  1       -2 0.36450685E-02 0.75390692E+02</pdfrwt>
<totfact> 0.15931163E+05</totfact>
</mgrwt>
</event>
<event>
 8    1  0.8247621E-018  0.8118843E+02  0.7818608E-02  0.1325712E+00
          1   -1    0    0  501    0  0.00000000000E+00  0.00000000000E+00  0.20180366397E+03  0.20180366403E+03  0.50400000000E-02 0. -1.
         -2   -1    0    0    0  501 -0.00000000000E+00 -0.00000000000E+00 -0.81658084179E+01  0.81658088161E+01  0.25500000000E-02 0.  1.
        -24    2    1    2    0    0  0.71054273576E-14  0.35527136788E-14  0.19363785555E+03  0.20996947285E+03  0.81188425441E+02 0.  0.
         66    2    3    3    0    0  0.33233116596E+02 -0.23224133263E+02  0.93143416240E+02  0.10160460815E+03  0.20000010104E+01 0.  0.
         13    1    3    3    0    0 -0.33233116596E+02  0.23224133263E+02  0.10049443931E+03  0.10836486470E+03  0.10566000000E+00 0. -1.
         13    1    4    4    0    0  0.18693844611E+01 -0.10843072738E+01  0.41917627005E+01  0.47172406235E+01  0.10566000000E+00 0. -1.
        -13    1    4    4    0    0  0.16095297836E+02 -0.11472300271E+02  0.44629419628E+02  0.48810537247E+02  0.10566000000E+00 0.  1.
         14    1    4    4    0    0  0.15268434298E+02 -0.10667525718E+02  0.44322233911E+02  0.48076830280E+02  0.00000000000E+00 0. -1.
<mgrwt>
<rscale>  0 0.81188425E+02</rscale>
<asrwt>0</asrwt>
<pdfrwt beam="1">  1        1 0.31046718E-01 0.81188425E+02</pdfrwt>
<pdfrwt beam="2">  1       -2 0.12562782E-02 0.81188425E+02</pdfrwt>
<totfact> 0.16061303E+05</totfact>
</mgrwt>
</event>
<event>
 8    1  0.8247621E-018  0.8107871E+02  0.7818608E-02  0.1326018E+00
         -2   -1    0    0    0  501 -0.00000000000E+00  0.00000000000E+00  0.20379487379E+02  0.20379487538E+02  0.25500000000E-02 0.  1.
          1   -1    0    0  501    0  0.00000000000E+00 -0.00000000000E+00 -0.80641843250E+02  0.80641843408E+02  0.50400000000E-02 0. -1.
        -24    2    1    2    0    0  0.00000000000E+00 -0.71054273576E-14 -0.60262355871E+02  0.10102133095E+03  0.81078713426E+02 0.  0.
         66    2    3    3    0    0 -0.90992987260E+01  0.33463013714E+02 -0.40476173054E+01  0.34970755474E+02  0.20000021071E+01 0.  0.
         13    1    3    3    0    0  0.90992987260E+01 -0.33463013714E+02 -0.56214738566E+02  0.66050575472E+02  0.10566000000E+00 0. -1.
         13    1    4    4    0    0 -0.93231600391E+00  0.61207659794E+01 -0.65036379879E+00  0.62263252736E+01  0.10566000000E+00 0. -1.
        -13    1    4    4    0    0 -0.66771755483E+01  0.22802408659E+02 -0.30240334585E+01  0.23951836179E+02  0.10566000000E+00 0.  1.
         14    1    4    4    0    0 -0.14898071738E+01  0.45398390749E+01 -0.37322004804E+00  0.47925940205E+01  0.00000000000E+00 0. -1.
<mgrwt>
<rscale>  0 0.81078713E+02</rscale>
<asrwt>0</asrwt>
<pdfrwt beam="1">  1        1 0.12406437E-01 0.81078713E+02</pdfrwt>
<pdfrwt beam="2">  1       -2 0.31353058E-02 0.81078713E+02</pdfrwt>
<totfact> 0.13679061E+05</totfact>
</mgrwt>
</event>
<event>
 8    1  0.8247621E-018  0.7940516E+02  0.7818608E-02  0.1330748E+00
         -2   -1    0    0    0  501 -0.00000000000E+00  0.00000000000E+00  0.65769931791E+01  0.65769936734E+01  0.25500000000E-02 0.  1.
          1   -1    0    0  501    0  0.00000000000E+00 -0.00000000000E+00 -0.23966802525E+03  0.23966802531E+03  0.50400000000E-02 0. -1.
        -24    2    1    2    0    0 -0.35527136788E-14  0.00000000000E+00 -0.23309103207E+03  0.24624501898E+03  0.79405164435E+02 0.  0.
         66    2    3    3    0    0  0.22714478718E+02  0.25940217121E+02 -0.55735492411E+02  0.65568952438E+02  0.20000004547E+01 0.  0.
         13    1    3    3    0    0 -0.22714478718E+02 -0.25940217121E+02 -0.17735553966E+03  0.18067606654E+03  0.10566000000E+00 0. -1.
         13    1    4    4    0    0  0.38338777182E+01  0.44105049037E+01 -0.93154090344E+01  0.10997235170E+02  0.10566000000E+00 0. -1.
        -13    1    4    4    0    0  0.11910018200E+02  0.14548932029E+02 -0.29356249059E+02  0.34861446894E+02  0.10566000000E+00 0.  1.
         14    1    4    4    0    0  0.69705827996E+01  0.69807801887E+01 -0.17063834318E+02  0.19710270375E+02  0.00000000000E+00 0. -1.
<mgrwt>
<rscale>  0 0.79405164E+02</rscale>
<asrwt>0</asrwt>
<pdfrwt beam="1">  1        1 0.36871997E-01 0.79405164E+02</pdfrwt>
<pdfrwt beam="2">  1       -2 0.10118453E-02 0.79405164E+02</pdfrwt>
<totfact> 0.17616941E+05</totfact>
</mgrwt>
</event>
<event>
 8    1  0.8247621E-018  0.7933083E+02  0.7818608E-02  0.1330961E+00
         -2   -1    0    0    0  501 -0.00000000000E+00  0.00000000000E+00  0.11856299384E+02  0.11856299658E+02  0.25500000000E-02 0.  1.
          1   -1    0    0  501    0  0.00000000000E+00 -0.00000000000E+00 -0.13270119521E+03  0.13270119531E+03  0.50400000000E-02 0. -1.
        -24    2    1    2    0    0 -0.71054273576E-14  0.00000000000E+00 -0.12084489583E+03  0.14455749496E+03  0.79330829462E+02 0.  0.
         66    2    3    3    0    0  0.29838105853E+02 -0.10312879100E+02 -0.16778123396E+02  0.35807449795E+02  0.19999999783E+01 0.  0.
         13    1    3    3    0    0 -0.29838105853E+02  0.10312879100E+02 -0.10406677243E+03  0.10875004517E+03  0.10566000000E+00 0. -1.
         13    1    4    4    0    0  0.17296005574E+02 -0.55771361855E+01 -0.10516322799E+02  0.20996677501E+02  0.10566000000E+00 0.  1.
        -13    1    4    4    0    0  0.10595715833E+01 -0.24806349761E+00 -0.53652119781E+00  0.12178860662E+01  0.10566000000E+00 0. -1.
        -14    1    4    4    0    0  0.11482528695E+02 -0.44876794172E+01 -0.57252793991E+01  0.13592886227E+02  0.00000000000E+00 0.  1.
<mgrwt>
<rscale>  0 0.79330829E+02</rscale>
<asrwt>0</asrwt>
<pdfrwt beam="1">  1        1 0.20415568E-01 0.79330829E+02</pdfrwt>
<pdfrwt beam="2">  1       -2 0.18240462E-02 0.79330829E+02</pdfrwt>
<totfact> 0.15791293E+05</totfact>
</mgrwt>
</event>
<event>
 8    1  0.8247621E-018  0.8086168E+02  0.7818608E-02  0.1326624E+00
         -2   -1    0    0    0  501 -0.00000000000E+00  0.00000000000E+00  0.23077180333E+02  0.23077180474E+02  0.25500000000E-02 0.  1.
          1   -1    0    0  501    0  0.00000000000E+00 -0.00000000000E+00 -0.70834157800E+02  0.70834157980E+02  0.50400000000E-02 0. -1.
        -24    2    1    2    0    0  0.71054273576E-14  0.00000000000E+00 -0.47756977468E+02  0.93911338453E+02  0.80861675677E+02 0.  0.
         66    2    3    3    0    0  0.39520132715E+02  0.83979917142E+01 -0.24508174248E+02  0.47297122061E+02  0.19999989286E+01 0.  0.
         13    1    3    3    0    0 -0.39520132715E+02 -0.83979917142E+01 -0.23248803220E+02  0.46614216392E+02  0.10566000000E+00 0. -1.
         13    1    4    4    0    0  0.20321216557E+02  0.44092931055E+01 -0.13561007250E+02  0.24825506836E+02  0.10566000000E+00 0. -1.
        -13    1    4    4    0    0  0.14618420053E+02  0.33031166324E+01 -0.85962843039E+01  0.17277617087E+02  0.10566000000E+00 0.  1.
        -14    1    4    4    0    0  0.45804961053E+01  0.68558197620E+00 -0.23508826943E+01  0.51939981381E+01  0.00000000000E+00 0.  1.
<mgrwt>
<rscale>  0 0.80861676E+02</rscale>
<asrwt>0</asrwt>
<pdfrwt beam="1">  1        1 0.10897563E-01 0.80861676E+02</pdfrwt>
<pdfrwt beam="2">  1       -2 0.35503355E-02 0.80861676E+02</pdfrwt>
<totfact> 0.13494827E+05</totfact>
</mgrwt>
</event>
<event>
 8    1  0.8247621E-018  0.7977153E+02  0.7818608E-02  0.1329701E+00
         -2   -1    0    0    0  501 -0.00000000000E+00  0.00000000000E+00  0.93102717775E+01  0.93102721267E+01  0.25500000000E-02 0.  1.
          1   -1    0    0  501    0  0.00000000000E+00 -0.00000000000E+00 -0.17087301823E+03  0.17087301831E+03  0.50400000000E-02 0. -1.
        -24    2    1    2    0    0 -0.35527136788E-14 -0.71054273576E-14 -0.16156274646E+03  0.18018329043E+03  0.79771530695E+02 0.  0.
         66    2    3    3    0    0  0.20103801359E+02  0.32499115330E+02 -0.55226006007E+02  0.67188295591E+02  0.19999996544E+01 0.  0.
         13    1    3    3    0    0 -0.20103801359E+02 -0.32499115330E+02 -0.10633674045E+03  0.11299499484E+03  0.10566000000E+00 0. -1.
         13    1    4    4    0    0  0.65448307576E+01  0.89831656798E+01 -0.16140259998E+02  0.19597225112E+02  0.10566000000E+00 0. -1.
        -13    1    4    4    0    0  0.76689834976E+01  0.13769424912E+02 -0.22995630264E+02  0.27878675463E+02  0.10566000000E+00 0.  1.
         14    1    4    4    0    0  0.58899871036E+01  0.97465247380E+01 -0.16090115746E+02  0.19712395016E+02  0.00000000000E+00 0. -1.
<mgrwt>
<rscale>  0 0.79771531E+02</rscale>
<asrwt>0</asrwt>
<pdfrwt beam="1">  1        1 0.26288154E-01 0.79771531E+02</pdfrwt>
<pdfrwt beam="2">  1       -2 0.14323497E-02 0.79771531E+02</pdfrwt>
<totfact> 0.16301194E+05</totfact>
</mgrwt>
</event>
<event>
 8    1  0.8247621E-018  0.8225586E+02  0.7818608E-02  0.1322769E+00
         -2   -1    0    0    0  501 -0.00000000000E+00  0.00000000000E+00  0.89481294817E+01  0.89481298451E+01  0.25500000000E-02 0.  1.
          1   -1    0    0  501    0  0.00000000000E+00 -0.00000000000E+00 -0.18903464111E+03  0.18903464117E+03  0.50400000000E-02 0. -1.
        -24    2    1    2    0    0  0.00000000000E+00  0.00000000000E+00 -0.18008651162E+03  0.19798277102E+03  0.82255856637E+02 0.  0.
         66    2    3    3    0    0 -0.16582073991E+02 -0.33614181018E+02 -0.49489827584E+02  0.62113777536E+02  0.19999955559E+01 0.  0.
         13    1    3    3    0    0  0.16582073991E+02  0.33614181018E+02 -0.13059668404E+03  0.13586899348E+03  0.10566000000E+00 0. -1.
         13    1    4    4    0    0 -0.44362539968E+01 -0.98666233914E+01 -0.15021958385E+02  0.18512185296E+02  0.10566000000E+00 0. -1.
        -13    1    4    4    0    0 -0.47007243007E+01 -0.10520827749E+02 -0.14651915040E+02  0.18640665328E+02  0.10566000000E+00 0.  1.
         14    1    4    4    0    0 -0.74450956938E+01 -0.13226729877E+02 -0.19815954159E+02  0.24960926913E+02  0.00000000000E+00 0. -1.
<mgrwt>
<rscale>  0 0.82255857E+02</rscale>
<asrwt>0</asrwt>
<pdfrwt beam="1">  1        1 0.29082250E-01 0.82255857E+02</pdfrwt>
<pdfrwt beam="2">  1       -2 0.13766355E-02 0.82255857E+02</pdfrwt>
<totfact> 0.15316095E+05</totfact>
</mgrwt>
</event>
<event>
 8    1  0.8247621E-018  0.7979644E+02  0.7818608E-02  0.1329630E+00
         -2   -1    0    0    0  501 -0.00000000000E+00  0.00000000000E+00  0.10276258017E+03  0.10276258021E+03  0.25500000000E-02 0.  1.
          1   -1    0    0  501    0  0.00000000000E+00 -0.00000000000E+00 -0.15490734174E+02  0.15490734994E+02  0.50400000000E-02 0. -1.
        -24    2    1    2    0    0  0.00000000000E+00  0.00000000000E+00  0.87271846000E+02  0.11825331520E+03  0.79796437586E+02 0.  0.
         66    2    3    3    0    0 -0.13043548673E+02  0.24364664279E+02  0.86256823911E+02  0.90598072274E+02  0.20000003104E+01 0.  0.
         13    1    3    3    0    0  0.13043548673E+02 -0.24364664279E+02  0.10150220897E+01  0.27655242926E+02  0.10566000000E+00 0. -1.
         13    1    4    4    0    0 -0.45081193500E+01  0.96888016539E+01  0.31606384656E+02  0.33364213352E+02  0.10566000000E+00 0. -1.
        -13    1    4    4    0    0 -0.72422640368E+01  0.13024271628E+02  0.47713600165E+02  0.49986806705E+02  0.10566000000E+00 0.  1.
         14    1    4    4    0    0 -0.12931652858E+01  0.16515909968E+01  0.69368390893E+01  0.72470522165E+01  0.00000000000E+00 0. -1.
<mgrwt>
<rscale>  0 0.79796438E+02</rscale>
<asrwt>0</asrwt>
<pdfrwt beam="1">  1        1 0.23831899E-02 0.79796438E+02</pdfrwt>
<pdfrwt beam="2">  1       -2 0.15809628E-01 0.79796438E+02</pdfrwt>
<totfact> 0.10609569E+05</totfact>
</mgrwt>
</event>
<event>
 8    1  0.8247621E-018  0.8039043E+02  0.7818608E-02  0.1327947E+00
          1   -1    0    0  501    0  0.00000000000E+00  0.00000000000E+00  0.20357560407E+02  0.20357561031E+02  0.50400000000E-02 0. -1.
         -2   -1    0    0    0  501 -0.00000000000E+00 -0.00000000000E+00 -0.79363893585E+02  0.79363893626E+02  0.25500000000E-02 0.  1.
        -24    2    1    2    0    0  0.00000000000E+00  0.35527136788E-14 -0.59006333177E+02  0.99721454657E+02  0.80390429554E+02 0.  0.
         66    2    3    3    0    0  0.26529323700E+02  0.25186660467E+02 -0.50109998232E+02  0.62074026843E+02  0.20000010523E+01 0.  0.
         13    1    3    3    0    0 -0.26529323700E+02 -0.25186660467E+02 -0.88963349450E+01  0.37647427814E+02  0.10566000000E+00 0. -1.
         13    1    4    4    0    0  0.13888347467E+02  0.14236764553E+02 -0.26266690666E+02  0.32947258807E+02  0.10566000000E+00 0. -1.
        -13    1    4    4    0    0  0.16255556608E+01  0.13053119125E+01 -0.28834064928E+01  0.35597004696E+01  0.10566000000E+00 0.  1.
         14    1    4    4    0    0  0.11015420573E+02  0.96445840018E+01 -0.20959901074E+02  0.25567067567E+02  0.00000000000E+00 0. -1.
<mgrwt>
<rscale>  0 0.80390430E+02</rscale>
<asrwt>0</asrwt>
<pdfrwt beam="1">  1        1 0.31319325E-02 0.80390430E+02</pdfrwt>
<pdfrwt beam="2">  1       -2 0.12209830E-01 0.80390430E+02</pdfrwt>
<totfact> 0.11057237E+05</totfact>
</mgrwt>
</event>
<event>
 8    1  0.8247621E-018  0.8129901E+02  0.7818608E-02  0.1325405E+00
         -2   -1    0    0    0  501 -0.00000000000E+00  0.00000000000E+00  0.91125067402E+01  0.91125070970E+01  0.25500000000E-02 0.  1.
          1   -1    0    0  501    0  0.00000000000E+00 -0.00000000000E+00 -0.18133123830E+03  0.18133123837E+03  0.50400000000E-02 0. -1.
        -24    2    1    2    0    0  0.71054273576E-14  0.00000000000E+00 -0.17221873156E+03  0.19044374547E+03  0.81299007912E+02 0.  0.
         66    2    3    3    0    0  0.21726845325E+02 -0.27767919924E+02 -0.38887644701E+02  0.52529630629E+02  0.19999997321E+01 0.  0.
         13    1    3    3    0    0 -0.21726845325E+02  0.27767919924E+02 -0.13333108686E+03  0.13791411484E+03  0.10566000000E+00 0. -1.
         13    1    4    4    0    0  0.72584963671E+01 -0.80889033127E+01 -0.11803530882E+02  0.16045268200E+02  0.10566000000E+00 0.  1.
        -13    1    4    4    0    0  0.23600141910E+01 -0.34170639078E+01 -0.51162441750E+01  0.65903802034E+01  0.10566000000E+00 0.  1.
        -14    1    4    4    0    0  0.12108334767E+02 -0.16261952704E+02 -0.21967869645E+02  0.29893982225E+02  0.00000000000E+00 0.  1.
<mgrwt>
<rscale>  0 0.81299008E+02</rscale>
<asrwt>0</asrwt>
<pdfrwt beam="1">  1        1 0.27897111E-01 0.81299008E+02</pdfrwt>
<pdfrwt beam="2">  1       -2 0.14019243E-02 0.81299008E+02</pdfrwt>
<totfact> 0.15674566E+05</totfact>
</mgrwt>
</event>
<event>
 8    1  0.8247621E-018  0.7905237E+02  0.7818608E-02  0.1331762E+00
         -2   -1    0    0    0  501 -0.00000000000E+00  0.00000000000E+00  0.32557449622E+03  0.32557449623E+03  0.25500000000E-02 0.  1.
          1   -1    0    0  501    0  0.00000000000E+00 -0.00000000000E+00 -0.47986523989E+01  0.47986550457E+01  0.50400000000E-02 0. -1.
        -24    2    1    2    0    0  0.00000000000E+00  0.00000000000E+00  0.32077584382E+03  0.33037315127E+03  0.79052369380E+02 0.  0.
         66    2    3    3    0    0 -0.62037067333E+01 -0.18156841728E+02  0.30478708339E+03  0.30539699258E+03  0.19999997298E+01 0.  0.
         13    1    3    3    0    0  0.62037067333E+01  0.18156841728E+02  0.15988760426E+02  0.24976158687E+02  0.10566000000E+00 0. -1.
         13    1    4    4    0    0 -0.28533993318E+01 -0.90860954473E+01  0.16200366823E+03  0.16228339010E+03  0.10566000000E+00 0. -1.
        -13    1    4    4    0    0 -0.93681789589E+00 -0.38482337913E+01  0.57392963962E+02  0.57529557685E+02  0.10566000000E+00 0.  1.
         14    1    4    4    0    0 -0.24134895057E+01 -0.52225124892E+01  0.85390451198E+02  0.85584044799E+02  0.00000000000E+00 0. -1.
<mgrwt>
<rscale>  0 0.79052369E+02</rscale>
<asrwt>0</asrwt>
<pdfrwt beam="1">  1        1 0.73825448E-03 0.79052369E+02</pdfrwt>
<pdfrwt beam="2">  1       -2 0.50088380E-01 0.79052369E+02</pdfrwt>
<totfact> 0.69221746E+04</totfact>
</mgrwt>
</event>
<event>
 8    1  0.8247621E-018  0.8033191E+02  0.7818608E-02  0.1328112E+00
          1   -1    0    0  501    0  0.00000000000E+00  0.00000000000E+00  0.69834711613E+01  0.69834729800E+01  0.50400000000E-02 0. -1.
         -2   -1    0    0    0  501 -0.00000000000E+00 -0.00000000000E+00 -0.23101744358E+03  0.23101744360E+03  0.25500000000E-02 0.  1.
        -24    2    1    2    0    0 -0.71054273576E-14 -0.17763568394E-14 -0.22403397242E+03  0.23800091658E+03  0.80331908309E+02 0.  0.
         66    2    3    3    0    0 -0.29753881124E+02 -0.90962595160E+01 -0.18722861640E+03  0.18980671801E+03  0.20000065058E+01 0.  0.
         13    1    3    3    0    0  0.29753881124E+02  0.90962595160E+01 -0.36805356027E+02  0.48194198566E+02  0.10566000000E+00 0. -1.
         13    1    4    4    0    0 -0.82435112095E+01 -0.18010523565E+01 -0.50729932167E+02  0.51427001161E+02  0.10566000000E+00 0. -1.
        -13    1    4    4    0    0 -0.74079568265E+01 -0.28455842647E+01 -0.50072022129E+02  0.50697078202E+02  0.10566000000E+00 0.  1.
        -14    1    4    4    0    0 -0.14102413088E+02 -0.44496228948E+01 -0.86426662099E+02  0.87682638649E+02  0.00000000000E+00 0.  1.
<mgrwt>
<rscale>  0 0.80331908E+02</rscale>
<asrwt>0</asrwt>
<pdfrwt beam="1">  1        1 0.10743805E-02 0.80331908E+02</pdfrwt>
<pdfrwt beam="2">  1       -2 0.35541139E-01 0.80331908E+02</pdfrwt>
<totfact> 0.79138951E+04</totfact>
</mgrwt>
</event>
<event>
 8    1  0.8247621E-018  0.8343241E+02  0.7818608E-02  0.1319584E+00
          1   -1    0    0  501    0  0.00000000000E+00  0.00000000000E+00  0.40419513312E+02  0.40419513626E+02  0.50400000000E-02 0. -1.
         -2   -1    0    0    0  501 -0.00000000000E+00 -0.00000000000E+00 -0.43054494498E+02  0.43054494573E+02  0.25500000000E-02 0.  1.
        -24    2    1    2    0    0 -0.71054273576E-14  0.00000000000E+00 -0.26349811854E+01  0.83474008200E+02  0.83432409285E+02 0.  0.
         66    2    3    3    0    0 -0.34548869254E+02  0.96344291296E+01 -0.22584199497E+02  0.42432211618E+02  0.19999811162E+01 0.  0.
         13    1    3    3    0    0  0.34548869254E+02 -0.96344291296E+01  0.19949218311E+02  0.41041796582E+02  0.10566000000E+00 0. -1.
         13    1    4    4    0    0 -0.18101446257E+02  0.53399861930E+01 -0.11488187835E+02  0.22094511376E+02  0.10566000000E+00 0. -1.
        -13    1    4    4    0    0 -0.12427554682E+02  0.31674050024E+01 -0.77278771265E+01  0.14973570675E+02  0.10566000000E+00 0.  1.
        -14    1    4    4    0    0 -0.40198683144E+01  0.11270379342E+01 -0.33681345351E+01  0.53641295675E+01  0.00000000000E+00 0.  1.
<mgrwt>
<rscale>  0 0.83432409E+02</rscale>
<asrwt>0</asrwt>
<pdfrwt beam="1">  1        1 0.62183867E-02 0.83432409E+02</pdfrwt>
<pdfrwt beam="2">  1       -2 0.66237684E-02 0.83432409E+02</pdfrwt>
<totfact> 0.11294652E+05</totfact>
</mgrwt>
</event>
<event>
 8    1  0.8247621E-018  0.7931742E+02  0.7818608E-02  0.1331000E+00
          1   -1    0    0  501    0  0.00000000000E+00  0.00000000000E+00  0.98140609723E+02  0.98140609852E+02  0.50400000000E-02 0. -1.
         -2   -1    0    0    0  501 -0.00000000000E+00 -0.00000000000E+00 -0.16026118792E+02  0.16026118995E+02  0.25500000000E-02 0.  1.
        -24    2    1    2    0    0  0.00000000000E+00  0.35527136788E-14  0.82114490930E+02  0.11416672885E+03  0.79317415206E+02 0.  0.
         66    2    3    3    0    0  0.15731460395E+02  0.29669704122E+02  0.10786846141E+02  0.35328830194E+02  0.20000010818E+01 0.  0.
         13    1    3    3    0    0 -0.15731460395E+02 -0.29669704122E+02  0.71327644789E+02  0.78837898653E+02  0.10566000000E+00 0. -1.
         13    1    4    4    0    0  0.48889437773E+01  0.80228288445E+01  0.31967849832E+01  0.99246235289E+01  0.10566000000E+00 0. -1.
        -13    1    4    4    0    0  0.96415786069E+01  0.18442680344E+02  0.62509996185E+01  0.21729672261E+02  0.10566000000E+00 0.  1.
         14    1    4    4    0    0  0.12009380111E+01  0.32041949340E+01  0.13390615395E+01  0.36745344042E+01  0.00000000000E+00 0. -1.
<mgrwt>
<rscale>  0 0.79317415E+02</rscale>
<asrwt>0</asrwt>
<pdfrwt beam="1">  1        1 0.15098555E-01 0.79317415E+02</pdfrwt>
<pdfrwt beam="2">  1       -2 0.24655568E-02 0.79317415E+02</pdfrwt>
<totfact> 0.14996193E+05</totfact>
</mgrwt>
</event>
<event>
 8    1  0.8247621E-018  0.7399217E+02  0.7818608E-02  0.1347021E+00
         -2   -1    0    0    0  501 -0.00000000000E+00  0.00000000000E+00  0.80297782001E+01  0.80297786050E+01  0.25500000000E-02 0.  1.
          1   -1    0    0  501    0  0.00000000000E+00 -0.00000000000E+00 -0.17045430440E+03  0.17045430447E+03  0.50400000000E-02 0. -1.
        -24    2    1    2    0    0  0.00000000000E+00  0.00000000000E+00 -0.16242452620E+03  0.17848408308E+03  0.73992169865E+02 0.  0.
         66    2    3    3    0    0 -0.23781633106E+02 -0.25731892278E+02 -0.52831057702E+02  0.63425681149E+02  0.20000044725E+01 0.  0.
         13    1    3    3    0    0  0.23781633106E+02  0.25731892278E+02 -0.10959346849E+03  0.11505840193E+03  0.10566000000E+00 0. -1.
         13    1    4    4    0    0 -0.30907852071E+01 -0.31166147315E+01 -0.55920363116E+01  0.71097309884E+01  0.10566000000E+00 0. -1.
        -13    1    4    4    0    0 -0.10540852596E+02 -0.11329802763E+02 -0.24359713603E+02  0.28859674547E+02  0.10566000000E+00 0.  1.
         14    1    4    4    0    0 -0.10149995303E+02 -0.11285474783E+02 -0.22879307788E+02  0.27456275614E+02  0.00000000000E+00 0. -1.
<mgrwt>
<rscale>  0 0.73992170E+02</rscale>
<asrwt>0</asrwt>
<pdfrwt beam="1">  1        1 0.26223737E-01 0.73992170E+02</pdfrwt>
<pdfrwt beam="2">  1       -2 0.12353506E-02 0.73992170E+02</pdfrwt>
<totfact> 0.19887906E+05</totfact>
</mgrwt>
</event>
<event>
 8    1  0.8247621E-018  0.7993347E+02  0.7818608E-02  0.1329240E+00
          1   -1    0    0  501    0  0.00000000000E+00  0.00000000000E+00  0.39239579641E+02  0.39239579965E+02  0.50400000000E-02 0. -1.
         -2   -1    0    0    0  501 -0.00000000000E+00 -0.00000000000E+00 -0.40707368341E+02  0.40707368421E+02  0.25500000000E-02 0.  1.
        -24    2    1    2    0    0  0.00000000000E+00  0.44408920985E-15 -0.14677886997E+01  0.79946948386E+02  0.79933473292E+02 0.  0.
         66    2    3    3    0    0 -0.34526131962E+02  0.27041309201E+01 -0.20636676045E+02  0.40363826751E+02  0.19999998810E+01 0.  0.
         13    1    3    3    0    0  0.34526131962E+02 -0.27041309201E+01  0.19168887345E+02  0.39583121635E+02  0.10566000000E+00 0. -1.
         13    1    4    4    0    0 -0.27636454122E+01  0.20114898475E+00 -0.20263231850E+01  0.34344354069E+01  0.10566000000E+00 0. -1.
        -13    1    4    4    0    0 -0.28381662083E+01 -0.75530140369E-01 -0.13219679055E+01  0.31336329406E+01  0.10566000000E+00 0.  1.
        -14    1    4    4    0    0 -0.28924320341E+02  0.25785120757E+01 -0.17288384955E+02  0.33795758404E+02  0.00000000000E+00 0.  1.
<mgrwt>
<rscale>  0 0.79933473E+02</rscale>
<asrwt>0</asrwt>
<pdfrwt beam="1">  1        1 0.60368584E-02 0.79933473E+02</pdfrwt>
<pdfrwt beam="2">  1       -2 0.62626721E-02 0.79933473E+02</pdfrwt>
<totfact> 0.12687669E+05</totfact>
</mgrwt>
</event>
<event>
 8    1  0.8247621E-018  0.7952700E+02  0.7818608E-02  0.1330399E+00
          1   -1    0    0  501    0  0.00000000000E+00  0.00000000000E+00  0.61139089056E+01  0.61139109829E+01  0.50400000000E-02 0. -1.
         -2   -1    0    0    0  501 -0.00000000000E+00 -0.00000000000E+00 -0.25861291433E+03  0.25861291434E+03  0.25500000000E-02 0.  1.
        -24    2    1    2    0    0  0.00000000000E+00  0.17763568394E-14 -0.25249900542E+03  0.26472682532E+03  0.79527003631E+02 0.  0.
         66    2    3    3    0    0  0.35025482280E+02 -0.10248759363E+02 -0.17867758124E+03  0.18237735471E+03  0.19999992891E+01 0.  0.
         13    1    3    3    0    0 -0.35025482280E+02  0.10248759363E+02 -0.73821424185E+02  0.82349470612E+02  0.10566000000E+00 0. -1.
         13    1    4    4    0    0  0.46036983037E+01 -0.13205034368E+01 -0.20569570435E+02  0.21120041651E+02  0.10566000000E+00 0. -1.
        -13    1    4    4    0    0  0.10521539176E+02 -0.30554863714E+01 -0.56433297787E+02  0.57487103308E+02  0.10566000000E+00 0.  1.
         14    1    4    4    0    0  0.19900244800E+02 -0.58727695543E+01 -0.10167471301E+03  0.10377020975E+03  0.00000000000E+00 0. -1.
<mgrwt>
<rscale>  0 0.79527004E+02</rscale>
<asrwt>0</asrwt>
<pdfrwt beam="1">  1        1 0.94060173E-03 0.79527004E+02</pdfrwt>
<pdfrwt beam="2">  1       -2 0.39786594E-01 0.79527004E+02</pdfrwt>
<totfact> 0.77035037E+04</totfact>
</mgrwt>
</event>
<event>
 8    1  0.8247621E-018  0.7502713E+02  0.7818608E-02  0.1343787E+00
         -2   -1    0    0    0  501 -0.00000000000E+00  0.00000000000E+00  0.94996874373E+01  0.94996877795E+01  0.25500000000E-02 0.  1.
          1   -1    0    0  501    0  0.00000000000E+00 -0.00000000000E+00 -0.14813828181E+03  0.14813828189E+03  0.50400000000E-02 0. -1.
        -24    2    1    2    0    0  0.00000000000E+00  0.00000000000E+00 -0.13863859437E+03  0.15763796967E+03  0.75027125985E+02 0.  0.
         66    2    3    3    0    0 -0.13036305542E+02 -0.24365845639E+02 -0.16147491659E+02  0.32068382975E+02  0.20000009710E+01 0.  0.
         13    1    3    3    0    0  0.13036305542E+02  0.24365845639E+02 -0.12249110271E+03  0.12556958670E+03  0.10566000000E+00 0. -1.
         13    1    4    4    0    0 -0.32381229905E+00 -0.10477811988E+01 -0.85044154450E+00  0.13918026806E+01  0.10566000000E+00 0. -1.
        -13    1    4    4    0    0 -0.11573121006E+02 -0.20866598565E+02 -0.14137913900E+02  0.27735245429E+02  0.10566000000E+00 0.  1.
         14    1    4    4    0    0 -0.11393722368E+01 -0.24514658747E+01 -0.11591362138E+01  0.29413348655E+01  0.00000000000E+00 0. -1.
<mgrwt>
<rscale>  0 0.75027126E+02</rscale>
<asrwt>0</asrwt>
<pdfrwt beam="1">  1        1 0.22790503E-01 0.75027126E+02</pdfrwt>
<pdfrwt beam="2">  1       -2 0.14614905E-02 0.75027126E+02</pdfrwt>
<totfact> 0.18687218E+05</totfact>
</mgrwt>
</event>
<event>
 8    1  0.8247621E-018  0.7507656E+02  0.7818608E-02  0.1343634E+00
         -2   -1    0    0    0  501 -0.00000000000E+00  0.00000000000E+00  0.47978983662E+03  0.47978983662E+03  0.25500000000E-02 0.  1.
          1   -1    0    0  501    0  0.00000000000E+00 -0.00000000000E+00 -0.29369556411E+01  0.29369599656E+01  0.50400000000E-02 0. -1.
        -24    2    1    2    0    0 -0.17763568394E-14  0.00000000000E+00  0.47685288097E+03  0.48272679659E+03  0.75076561258E+02 0.  0.
         66    2    3    3    0    0 -0.10212526526E+02  0.30375522300E+02  0.36395958955E+03  0.36537316663E+03  0.20000025585E+01 0.  0.
         13    1    3    3    0    0  0.10212526526E+02 -0.30375522300E+02  0.11289329142E+03  0.11735362996E+03  0.10566000000E+00 0. -1.
         13    1    4    4    0    0 -0.36021331275E+01  0.95106043962E+01  0.12403085767E+03  0.12444714451E+03  0.10566000000E+00 0. -1.
        -13    1    4    4    0    0 -0.44740656430E+01  0.14542967071E+02  0.17001481598E+03  0.17069435835E+03  0.10566000000E+00 0.  1.
        -14    1    4    4    0    0 -0.21363277557E+01  0.63219508330E+01  0.69913915901E+02  0.70231663765E+02  0.00000000000E+00 0.  1.
<mgrwt>
<rscale>  0 0.75076561E+02</rscale>
<asrwt>0</asrwt>
<pdfrwt beam="1">  1        1 0.45183968E-03 0.75076561E+02</pdfrwt>
<pdfrwt beam="2">  1       -2 0.73813819E-01 0.75076561E+02</pdfrwt>
<totfact> 0.61230835E+04</totfact>
</mgrwt>
</event>
<event>
 8    1  0.8247621E-018  0.8239078E+02  0.7818608E-02  0.1322400E+00
          1   -1    0    0  501    0  0.00000000000E+00  0.00000000000E+00  0.59137835023E+03  0.59137835025E+03  0.50400000000E-02 0. -1.
         -2   -1    0    0    0  501 -0.00000000000E+00 -0.00000000000E+00 -0.28696685824E+01  0.28696697154E+01  0.25500000000E-02 0.  1.
        -24    2    1    2    0    0  0.71054273576E-14 -0.35527136788E-14  0.58850868165E+03  0.59424801997E+03  0.82390781402E+02 0.  0.
         66    2    3    3    0    0 -0.20588708974E+02  0.29893179727E+02  0.43457334526E+03  0.43609114821E+03  0.20000010801E+01 0.  0.
         13    1    3    3    0    0  0.20588708974E+02 -0.29893179727E+02  0.15393533639E+03  0.15815687176E+03  0.10566000000E+00 0. -1.
         13    1    4    4    0    0 -0.60631618975E+01  0.90945211112E+01  0.12314914618E+03  0.12363331111E+03  0.10566000000E+00 0. -1.
        -13    1    4    4    0    0 -0.12876622946E+02  0.18367158962E+02  0.27955815204E+03  0.28045664814E+03  0.10566000000E+00 0.  1.
        -14    1    4    4    0    0 -0.16489241311E+01  0.24314996540E+01  0.31866047036E+02  0.32001188963E+02  0.00000000000E+00 0.  1.
<mgrwt>
<rscale>  0 0.82390781E+02</rscale>
<asrwt>0</asrwt>
<pdfrwt beam="1">  1        1 0.90981300E-01 0.82390781E+02</pdfrwt>
<pdfrwt beam="2">  1       -2 0.44148749E-03 0.82390781E+02</pdfrwt>
<totfact> 0.18438441E+05</totfact>
</mgrwt>
</event>
<event>
 8    1  0.8247621E-018  0.7991122E+02  0.7818608E-02  0.1329304E+00
         -2   -1    0    0    0  501 -0.00000000000E+00  0.00000000000E+00  0.59937702841E+01  0.59937708266E+01  0.25500000000E-02 0.  1.
          1   -1    0    0  501    0  0.00000000000E+00 -0.00000000000E+00 -0.26635164084E+03  0.26635164089E+03  0.50400000000E-02 0. -1.
        -24    2    1    2    0    0  0.71054273576E-14 -0.17763568394E-14 -0.26035787056E+03  0.27234541171E+03  0.79911216493E+02 0.  0.
         66    2    3    3    0    0  0.36197129362E+02 -0.57796839238E+01 -0.76286367004E+02  0.84659593113E+02  0.19999987538E+01 0.  0.
         13    1    3    3    0    0 -0.36197129362E+02  0.57796839238E+01 -0.18407150355E+03  0.18768581860E+03  0.10566000000E+00 0. -1.
         13    1    4    4    0    0  0.39498113472E+01 -0.12080978104E+01 -0.90757417095E+01  0.99719988774E+01  0.10566000000E+00 0. -1.
        -13    1    4    4    0    0  0.25053606876E+02 -0.36946823741E+01 -0.52468189536E+02  0.58260243499E+02  0.10566000000E+00 0.  1.
        -14    1    4    4    0    0  0.71937111382E+01 -0.87690373935E+00 -0.14742435759E+02  0.16427350736E+02  0.00000000000E+00 0.  1.
<mgrwt>
<rscale>  0 0.79911216E+02</rscale>
<asrwt>0</asrwt>
<pdfrwt beam="1">  1        1 0.40977166E-01 0.79911216E+02</pdfrwt>
<pdfrwt beam="2">  1       -2 0.92211875E-03 0.79911216E+02</pdfrwt>
<totfact> 0.17683742E+05</totfact>
</mgrwt>
</event>
<event>
 8    1  0.8247621E-018  0.7990029E+02  0.7818608E-02  0.1329335E+00
         -2   -1    0    0    0  501 -0.00000000000E+00  0.00000000000E+00  0.16375182880E+02  0.16375183078E+02  0.25500000000E-02 0.  1.
          1   -1    0    0  501    0  0.00000000000E+00 -0.00000000000E+00 -0.97465431561E+02  0.97465431691E+02  0.50400000000E-02 0. -1.
        -24    2    1    2    0    0  0.00000000000E+00  0.00000000000E+00 -0.81090248681E+02  0.11384061477E+03  0.79900294993E+02 0.  0.
         66    2    3    3    0    0 -0.16761373746E+02 -0.17019753908E+02  0.50091110671E+01  0.24488913129E+02  0.19999999080E+01 0.  0.
         13    1    3    3    0    0  0.16761373746E+02  0.17019753908E+02 -0.86099359748E+02  0.89351701640E+02  0.10566000000E+00 0. -1.
         13    1    4    4    0    0 -0.27625292097E+01 -0.26629143698E+01  0.12782569454E+01  0.40457119806E+01  0.10566000000E+00 0. -1.
        -13    1    4    4    0    0 -0.12530314445E+02 -0.13390323998E+02  0.33079119591E+01  0.18634994029E+02  0.10566000000E+00 0.  1.
         14    1    4    4    0    0 -0.14685300909E+01 -0.96651553988E+00  0.42294216267E+00  0.18082071202E+01  0.00000000000E+00 0. -1.
<mgrwt>
<rscale>  0 0.79900295E+02</rscale>
<asrwt>0</asrwt>
<pdfrwt beam="1">  1        1 0.14994682E-01 0.79900295E+02</pdfrwt>
<pdfrwt beam="2">  1       -2 0.25192590E-02 0.79900295E+02</pdfrwt>
<totfact> 0.14685409E+05</totfact>
</mgrwt>
</event>
<event>
 8    1  0.8247621E-018  0.7673295E+02  0.7818608E-02  0.1338587E+00
         -2   -1    0    0    0  501 -0.00000000000E+00  0.00000000000E+00  0.95089490490E+01  0.95089493909E+01  0.25500000000E-02 0.  1.
          1   -1    0    0  501    0  0.00000000000E+00 -0.00000000000E+00 -0.15480011835E+03  0.15480011843E+03  0.50400000000E-02 0. -1.
        -24    2    1    2    0    0  0.00000000000E+00 -0.88817841970E-15 -0.14529116930E+03  0.16430906782E+03  0.76732951801E+02 0.  0.
         66    2    3    3    0    0  0.37852713576E+02 -0.51670611592E+01 -0.65771001404E+02  0.76087785173E+02  0.19999951751E+01 0.  0.
         13    1    3    3    0    0 -0.37852713576E+02  0.51670611592E+01 -0.79520167898E+02  0.88221282652E+02  0.10566000000E+00 0. -1.
         13    1    4    4    0    0  0.27540676557E+02 -0.40036516047E+01 -0.49137074596E+02  0.56471066532E+02  0.10566000000E+00 0. -1.
        -13    1    4    4    0    0  0.92596497325E+01 -0.87483386507E+00 -0.15080204470E+02  0.17718074906E+02  0.10566000000E+00 0.  1.
         14    1    4    4    0    0  0.10523872866E+01 -0.28857568946E+00 -0.15537223386E+01  0.18986437357E+01  0.00000000000E+00 0. -1.
<mgrwt>
<rscale>  0 0.76732952E+02</rscale>
<asrwt>0</asrwt>
<pdfrwt beam="1">  1        1 0.23815401E-01 0.76732952E+02</pdfrwt>
<pdfrwt beam="2">  1       -2 0.14629154E-02 0.76732952E+02</pdfrwt>
<totfact> 0.17746129E+05</totfact>
</mgrwt>
</event>
<event>
 8    1  0.8247621E-018  0.7981586E+02  0.7818608E-02  0.1329575E+00
          1   -1    0    0  501    0  0.00000000000E+00  0.00000000000E+00  0.16609534191E+01  0.16609610657E+01  0.50400000000E-02 0. -1.
         -2   -1    0    0    0  501 -0.00000000000E+00 -0.00000000000E+00 -0.95887049657E+03  0.95887049657E+03  0.25500000000E-02 0.  1.
        -24    2    1    2    0    0  0.00000000000E+00  0.00000000000E+00 -0.95720954315E+03  0.96053145764E+03  0.79815860674E+02 0.  0.
         66    2    3    3    0    0  0.10990246083E+02  0.17573418105E+02 -0.88896087473E+03  0.88920472746E+03  0.20000007126E+01 0.  0.
         13    1    3    3    0    0 -0.10990246083E+02 -0.17573418105E+02 -0.68248668423E+02  0.71326730182E+02  0.10566000000E+00 0. -1.
         13    1    4    4    0    0  0.69089454106E+01  0.11851695254E+02 -0.55750168335E+03  0.55767045314E+03  0.10566000000E+00 0. -1.
        -13    1    4    4    0    0  0.40947971781E+01  0.57042915015E+01 -0.32877960967E+03  0.32885460192E+03  0.10566000000E+00 0.  1.
         14    1    4    4    0    0 -0.13496505918E-01  0.17431349671E-01 -0.26795817089E+01  0.26796723945E+01  0.00000000000E+00 0. -1.
<mgrwt>
<rscale>  0 0.79815861E+02</rscale>
<asrwt>0</asrwt>
<pdfrwt beam="1">  1        1 0.25553265E-03 0.79815861E+02</pdfrwt>
<pdfrwt beam="2">  1       -2 0.14751810E+00 0.79815861E+02</pdfrwt>
<totfact> 0.27528402E+04</totfact>
</mgrwt>
</event>
<event>
 8    1  0.8247621E-018  0.8477248E+02  0.7818608E-02  0.1316029E+00
          1   -1    0    0  501    0  0.00000000000E+00  0.00000000000E+00  0.57272133441E+02  0.57272133663E+02  0.50400000000E-02 0. -1.
         -2   -1    0    0    0  501 -0.00000000000E+00 -0.00000000000E+00 -0.31369417404E+02  0.31369417508E+02  0.25500000000E-02 0.  1.
        -24    2    1    2    0    0  0.00000000000E+00  0.17763568394E-14  0.25902716037E+02  0.88641551171E+02  0.84772483129E+02 0.  0.
         66    2    3    3    0    0 -0.28251229622E+02 -0.15518930070E+02 -0.15784576590E+02  0.35946098841E+02  0.19999995290E+01 0.  0.
         13    1    3    3    0    0  0.28251229622E+02  0.15518930070E+02  0.41687292626E+02  0.52695452330E+02  0.10566000000E+00 0. -1.
         13    1    4    4    0    0 -0.12705865350E+02 -0.61872234241E+01 -0.63896533651E+01  0.15509983306E+02  0.10566000000E+00 0. -1.
        -13    1    4    4    0    0 -0.12871153477E+02 -0.78301482257E+01 -0.81171085198E+01  0.17113632806E+02  0.10566000000E+00 0.  1.
        -14    1    4    4    0    0 -0.26742107945E+01 -0.15015584205E+01 -0.12778147048E+01  0.33224827288E+01  0.00000000000E+00 0.  1.
<mgrwt>
<rscale>  0 0.84772483E+02</rscale>
<asrwt>0</asrwt>
<pdfrwt beam="1">  1        1 0.88110975E-02 0.84772483E+02</pdfrwt>
<pdfrwt beam="2">  1       -2 0.48260643E-02 0.84772483E+02</pdfrwt>
<totfact> 0.11443205E+05</totfact>
</mgrwt>
</event>
<event>
 8    1  0.8247621E-018  0.8019465E+02  0.7818608E-02  0.1328500E+00
          1   -1    0    0  501    0  0.00000000000E+00  0.00000000000E+00  0.24080519988E+01  0.24080572731E+01  0.50400000000E-02 0. -1.
         -2   -1    0    0    0  501 -0.00000000000E+00 -0.00000000000E+00 -0.66767400889E+03  0.66767400890E+03  0.25500000000E-02 0.  1.
        -24    2    1    2    0    0  0.00000000000E+00 -0.71054273576E-14 -0.66526595689E+03  0.67008206617E+03  0.80194650705E+02 0.  0.
         66    2    3    3    0    0 -0.11058454463E+01  0.34959564563E+02 -0.49623458160E+03  0.49746975188E+03  0.20000017069E+01 0.  0.
         13    1    3    3    0    0  0.11058454463E+01 -0.34959564563E+02 -0.16903137529E+03  0.17261231429E+03  0.10566000000E+00 0. -1.
         13    1    4    4    0    0  0.66060206717E-01  0.11363441187E+02 -0.17149941187E+03  0.17187551192E+03  0.10566000000E+00 0. -1.
        -13    1    4    4    0    0  0.69531745744E-01  0.30254837140E+01 -0.42042815730E+02  0.42151724815E+02  0.10566000000E+00 0.  1.
         14    1    4    4    0    0 -0.12414373987E+01  0.20570639662E+02 -0.28269235400E+03  0.28344251514E+03  0.00000000000E+00 0. -1.
<mgrwt>
<rscale>  0 0.80194651E+02</rscale>
<asrwt>0</asrwt>
<pdfrwt beam="1">  1        1 0.37047048E-03 0.80194651E+02</pdfrwt>
<pdfrwt beam="2">  1       -2 0.10271893E+00 0.80194651E+02</pdfrwt>
<totfact> 0.39295469E+04</totfact>
</mgrwt>
</event>
<event>
 8    1  0.8247621E-018  0.7892252E+02  0.7818608E-02  0.1332137E+00
          1   -1    0    0  501    0  0.00000000000E+00  0.00000000000E+00  0.74717615837E+02  0.74717616007E+02  0.50400000000E-02 0. -1.
         -2   -1    0    0    0  501 -0.00000000000E+00 -0.00000000000E+00 -0.20841013805E+02  0.20841013961E+02  0.25500000000E-02 0.  1.
        -24    2    1    2    0    0  0.00000000000E+00  0.00000000000E+00  0.53876602032E+02  0.95558629969E+02  0.78922515894E+02 0.  0.
         66    2    3    3    0    0  0.10540407535E+01  0.34808854087E+02  0.45504114334E+01  0.35177742531E+02  0.20000001525E+01 0.  0.
         13    1    3    3    0    0 -0.10540407535E+01 -0.34808854087E+02  0.49326190599E+02  0.60380887438E+02  0.10566000000E+00 0. -1.
         13    1    4    4    0    0 -0.26761590713E+00  0.25361301499E+01  0.65062247912E+00  0.26340174747E+01  0.10566000000E+00 0. -1.
        -13    1    4    4    0    0  0.55714020912E+00  0.75437726203E+01  0.11132927626E+01  0.76465348603E+01  0.10566000000E+00 0.  1.
        -14    1    4    4    0    0  0.76451645153E+00  0.24728951317E+02  0.27864961917E+01  0.24897190196E+02  0.00000000000E+00 0.  1.
<mgrwt>
<rscale>  0 0.78922516E+02</rscale>
<asrwt>0</asrwt>
<pdfrwt beam="1">  1        1 0.11495018E-01 0.78922516E+02</pdfrwt>
<pdfrwt beam="2">  1       -2 0.32063098E-02 0.78922516E+02</pdfrwt>
<totfact> 0.14543298E+05</totfact>
</mgrwt>
</event>
<event>
 8    1  0.8247621E-018  0.7853709E+02  0.7818608E-02  0.1333255E+00
          1   -1    0    0  501    0  0.00000000000E+00  0.00000000000E+00  0.56604547292E+01  0.56604569730E+01  0.50400000000E-02 0. -1.
         -2   -1    0    0    0  501 -0.00000000000E+00 -0.00000000000E+00 -0.27241950573E+03  0.27241950574E+03  0.25500000000E-02 0.  1.
        -24    2    1    2    0    0  0.00000000000E+00  0.00000000000E+00 -0.26675905100E+03  0.27807996271E+03  0.78537089153E+02 0.  0.
         66    2    3    3    0    0 -0.21544831273E+02  0.50770302612E+01 -0.24820224716E+03  0.24919532798E+03  0.20000003311E+01 0.  0.
         13    1    3    3    0    0  0.21544831273E+02 -0.50770302612E+01 -0.18556803838E+02  0.28884634732E+02  0.10566000000E+00 0. -1.
         13    1    4    4    0    0 -0.62146727173E+01  0.17930308326E+01 -0.76458966930E+02  0.76732143881E+02  0.10566000000E+00 0. -1.
        -13    1    4    4    0    0 -0.69944242683E+01  0.16032433038E+01 -0.86245387644E+02  0.86543459683E+02  0.10566000000E+00 0.  1.
        -14    1    4    4    0    0 -0.83357342873E+01  0.16807561249E+01 -0.85497892583E+02  0.85919724414E+02  0.00000000000E+00 0.  1.
<mgrwt>
<rscale>  0 0.78537089E+02</rscale>
<asrwt>0</asrwt>
<pdfrwt beam="1">  1        1 0.87083958E-03 0.78537089E+02</pdfrwt>
<pdfrwt beam="2">  1       -2 0.41910683E-01 0.78537089E+02</pdfrwt>
<totfact> 0.77530447E+04</totfact>
</mgrwt>
</event>
<event>
 8    1  0.8247621E-018  0.7962801E+02  0.7818608E-02  0.1330110E+00
         -2   -1    0    0    0  501 -0.00000000000E+00  0.00000000000E+00  0.82554522255E+02  0.82554522294E+02  0.25500000000E-02 0.  1.
          1   -1    0    0  501    0  0.00000000000E+00 -0.00000000000E+00 -0.19201309471E+02  0.19201310132E+02  0.50400000000E-02 0. -1.
        -24    2    1    2    0    0  0.00000000000E+00  0.00000000000E+00  0.63353212784E+02  0.10175583243E+03  0.79628009286E+02 0.  0.
         66    2    3    3    0    0 -0.21705833561E+02  0.26686134596E+02  0.57249764584E+02  0.66819372471E+02  0.20000005755E+01 0.  0.
         13    1    3    3    0    0  0.21705833561E+02 -0.26686134596E+02  0.61034482002E+01  0.34936459955E+02  0.10566000000E+00 0. -1.
         13    1    4    4    0    0 -0.11064600422E+02  0.13814621481E+02  0.28835679767E+02  0.33834549514E+02  0.10566000000E+00 0.  1.
        -13    1    4    4    0    0 -0.67470584492E+01  0.83044477792E+01  0.16957495112E+02  0.20051295598E+02  0.10566000000E+00 0. -1.
         14    1    4    4    0    0 -0.38941746903E+01  0.45670653353E+01  0.11456589704E+02  0.12933527359E+02  0.00000000000E+00 0. -1.
<mgrwt>
<rscale>  0 0.79628009E+02</rscale>
<asrwt>0</asrwt>
<pdfrwt beam="1">  1        1 0.29540477E-02 0.79628009E+02</pdfrwt>
<pdfrwt beam="2">  1       -2 0.12700696E-01 0.79628009E+02</pdfrwt>
<totfact> 0.11232399E+05</totfact>
</mgrwt>
</event>
<event>
 8    1  0.8247621E-018  0.7998697E+02  0.7818608E-02  0.1329088E+00
          1   -1    0    0  501    0  0.00000000000E+00  0.00000000000E+00  0.11947436953E+03  0.11947436964E+03  0.50400000000E-02 0. -1.
         -2   -1    0    0    0  501 -0.00000000000E+00 -0.00000000000E+00 -0.13387630551E+02  0.13387630794E+02  0.25500000000E-02 0.  1.
        -24    2    1    2    0    0 -0.35527136788E-14  0.00000000000E+00  0.10608673898E+03  0.13286200043E+03  0.79986967509E+02 0.  0.
         66    2    3    3    0    0  0.26318026390E+02 -0.23093928093E+02  0.21060642751E+02  0.40908663179E+02  0.20000055418E+01 0.  0.
         13    1    3    3    0    0 -0.26318026390E+02  0.23093928093E+02  0.85026096232E+02  0.91953337255E+02  0.10566000000E+00 0. -1.
         13    1    4    4    0    0  0.10888538948E+02 -0.94845278273E+01  0.85602729723E+01  0.16787077945E+02  0.10566000000E+00 0.  1.
        -13    1    4    4    0    0  0.14961996112E+02 -0.13246368433E+02  0.11810676001E+02  0.23212730041E+02  0.10566000000E+00 0. -1.
         14    1    4    4    0    0  0.46749133015E+00 -0.36303183273E+00  0.68969377748E+00  0.90885519311E+00  0.00000000000E+00 0. -1.
<mgrwt>
<rscale>  0 0.79986968E+02</rscale>
<asrwt>0</asrwt>
<pdfrwt beam="1">  1        1 0.18380672E-01 0.79986968E+02</pdfrwt>
<pdfrwt beam="2">  1       -2 0.20596355E-02 0.79986968E+02</pdfrwt>
<totfact> 0.15161385E+05</totfact>
</mgrwt>
</event>
<event>
 8    1  0.8247621E-018  0.7831239E+02  0.7818608E-02  0.1333910E+00
          1   -1    0    0  501    0  0.00000000000E+00  0.00000000000E+00  0.61543289677E+01  0.61543310314E+01  0.50400000000E-02 0. -1.
         -2   -1    0    0    0  501 -0.00000000000E+00 -0.00000000000E+00 -0.24912666515E+03  0.24912666516E+03  0.25500000000E-02 0.  1.
        -24    2    1    2    0    0  0.00000000000E+00  0.35527136788E-14 -0.24297233618E+03  0.25528099620E+03  0.78312392813E+02 0.  0.
         66    2    3    3    0    0  0.33958632256E+02  0.18420637034E+02 -0.14184252007E+03  0.14702315840E+03  0.20000080043E+01 0.  0.
         13    1    3    3    0    0 -0.33958632256E+02 -0.18420637034E+02 -0.10112981611E+03  0.10825783779E+03  0.10566000000E+00 0. -1.
         13    1    4    4    0    0  0.65640429243E+01  0.33818654467E+01 -0.28050905372E+02  0.29006691118E+02  0.10566000000E+00 0. -1.
        -13    1    4    4    0    0  0.10922346937E+02  0.64084704194E+01 -0.48841630189E+02  0.50456735519E+02  0.10566000000E+00 0.  1.
         14    1    4    4    0    0  0.16472242395E+02  0.86303011683E+01 -0.64949984513E+02  0.67559731764E+02  0.00000000000E+00 0. -1.
<mgrwt>
<rscale>  0 0.78312393E+02</rscale>
<asrwt>0</asrwt>
<pdfrwt beam="1">  1        1 0.94682020E-03 0.78312393E+02</pdfrwt>
<pdfrwt beam="2">  1       -2 0.38327172E-01 0.78312393E+02</pdfrwt>
<totfact> 0.81612751E+04</totfact>
</mgrwt>
</event>
<event>
 8    1  0.8247621E-018  0.8439780E+02  0.7818608E-02  0.1317015E+00
         -2   -1    0    0    0  501 -0.00000000000E+00  0.00000000000E+00  0.93690014676E+01  0.93690018147E+01  0.25500000000E-02 0.  1.
          1   -1    0    0  501    0  0.00000000000E+00 -0.00000000000E+00 -0.19006796667E+03  0.19006796674E+03  0.50400000000E-02 0. -1.
        -24    2    1    2    0    0 -0.71054273576E-14  0.00000000000E+00 -0.18069896520E+03  0.19943696855E+03  0.84397798548E+02 0.  0.
         66    2    3    3    0    0 -0.32890619978E+02 -0.15279077102E+02 -0.39525719478E+02  0.53679843333E+02  0.20000000977E+01 0.  0.
         13    1    3    3    0    0  0.32890619978E+02  0.15279077102E+02 -0.14117324572E+03  0.14575712522E+03  0.10566000000E+00 0. -1.
         13    1    4    4    0    0 -0.19009663162E+01 -0.11560061459E+01 -0.25247412870E+01  0.33668242821E+01  0.10566000000E+00 0.  1.
        -13    1    4    4    0    0 -0.23464109805E+02 -0.11341089317E+02 -0.28755891612E+02  0.38808468435E+02  0.10566000000E+00 0.  1.
        -14    1    4    4    0    0 -0.75255438567E+01 -0.27819816394E+01 -0.82450865791E+01  0.11504550616E+02  0.00000000000E+00 0.  1.
<mgrwt>
<rscale>  0 0.84397799E+02</rscale>
<asrwt>0</asrwt>
<pdfrwt beam="1">  1        1 0.29241223E-01 0.84397799E+02</pdfrwt>
<pdfrwt beam="2">  1       -2 0.14413850E-02 0.84397799E+02</pdfrwt>
<totfact> 0.14315222E+05</totfact>
</mgrwt>
</event>
<event>
 8    1  0.8247621E-018  0.7731330E+02  0.7818608E-02  0.1336854E+00
          1   -1    0    0  501    0  0.00000000000E+00  0.00000000000E+00  0.44137609795E+01  0.44137638570E+01  0.50400000000E-02 0. -1.
         -2   -1    0    0    0  501 -0.00000000000E+00 -0.00000000000E+00 -0.33856298534E+03  0.33856298535E+03  0.25500000000E-02 0.  1.
        -24    2    1    2    0    0 -0.17763568394E-14  0.00000000000E+00 -0.33414922436E+03  0.34297674920E+03  0.77313299991E+02 0.  0.
         66    2    3    3    0    0 -0.14585276764E+02 -0.35684222466E+00 -0.32586757269E+03  0.32620014189E+03  0.20000001869E+01 0.  0.
         13    1    3    3    0    0  0.14585276764E+02  0.35684222466E+00 -0.82816516635E+01  0.16776607314E+02  0.10566000000E+00 0. -1.
         13    1    4    4    0    0 -0.13397689833E+01  0.35235870029E+00 -0.40382657797E+02  0.40406550860E+02  0.10566000000E+00 0. -1.
        -13    1    4    4    0    0 -0.73173779934E+01 -0.14556189969E+00 -0.15356323611E+03  0.15373758115E+03  0.10566000000E+00 0.  1.
        -14    1    4    4    0    0 -0.59281297871E+01 -0.56363902526E+00 -0.13192167878E+03  0.13205600988E+03  0.00000000000E+00 0.  1.
<mgrwt>
<rscale>  0 0.77313300E+02</rscale>
<asrwt>0</asrwt>
<pdfrwt beam="1">  1        1 0.67904064E-03 0.77313300E+02</pdfrwt>
<pdfrwt beam="2">  1       -2 0.52086593E-01 0.77313300E+02</pdfrwt>
<totfact> 0.71654058E+04</totfact>
</mgrwt>
</event>
<event>
 8    1  0.8247621E-018  0.8106647E+02  0.7818608E-02  0.1326052E+00
         -2   -1    0    0    0  501 -0.00000000000E+00  0.00000000000E+00  0.22090497660E+02  0.22090497807E+02  0.25500000000E-02 0.  1.
          1   -1    0    0  501    0  0.00000000000E+00 -0.00000000000E+00 -0.74373300283E+02  0.74373300454E+02  0.50400000000E-02 0. -1.
        -24    2    1    2    0    0  0.00000000000E+00 -0.71054273576E-14 -0.52282802623E+02  0.96463798261E+02  0.81066472261E+02 0.  0.
         66    2    3    3    0    0  0.20511324056E+01  0.40360069869E+02 -0.29479694427E+02  0.50061909383E+02  0.20000008943E+01 0.  0.
         13    1    3    3    0    0 -0.20511324056E+01 -0.40360069869E+02 -0.22803108196E+02  0.46401888878E+02  0.10566000000E+00 0. -1.
         13    1    4    4    0    0  0.35155833736E+00  0.65714488848E+01 -0.41075073439E+01  0.77582417033E+01  0.10566000000E+00 0. -1.
        -13    1    4    4    0    0  0.15337588340E+01  0.26266567756E+02 -0.20248426329E+02  0.33200827259E+02  0.10566000000E+00 0.  1.
        -14    1    4    4    0    0  0.16581523425E+00  0.75220532283E+01 -0.51237607539E+01  0.91028404207E+01  0.00000000000E+00 0.  1.
<mgrwt>
<rscale>  0 0.81066472E+02</rscale>
<asrwt>0</asrwt>
<pdfrwt beam="1">  1        1 0.11442046E-01 0.81066472E+02</pdfrwt>
<pdfrwt beam="2">  1       -2 0.33985381E-02 0.81066472E+02</pdfrwt>
<totfact> 0.13506770E+05</totfact>
</mgrwt>
</event>
<event>
 8    1  0.8247621E-018  0.8052351E+02  0.7818608E-02  0.1327572E+00
          1   -1    0    0  501    0  0.00000000000E+00  0.00000000000E+00  0.46345349845E+01  0.46345377250E+01  0.50400000000E-02 0. -1.
         -2   -1    0    0    0  501 -0.00000000000E+00 -0.00000000000E+00 -0.34976724781E+03  0.34976724782E+03  0.25500000000E-02 0.  1.
        -24    2    1    2    0    0  0.17763568394E-14  0.00000000000E+00 -0.34513271283E+03  0.35440178555E+03  0.80523512931E+02 0.  0.
         66    2    3    3    0    0  0.13938827401E+02  0.29072360716E+02 -0.27862326403E+03  0.28048960109E+03  0.19999993467E+01 0.  0.
         13    1    3    3    0    0 -0.13938827401E+02 -0.29072360716E+02 -0.66509448803E+02  0.73912184456E+02  0.10566000000E+00 0. -1.
         13    1    4    4    0    0  0.51250073994E+01  0.11355294161E+02 -0.11018006134E+03  0.11088221447E+03  0.10566000000E+00 0.  1.
        -13    1    4    4    0    0  0.83261542154E+01  0.16121360809E+02 -0.15172209316E+03  0.15280323241E+03  0.10566000000E+00 0. -1.
         14    1    4    4    0    0  0.48766578614E+00  0.15957057453E+01 -0.16721109528E+02  0.16804154206E+02  0.00000000000E+00 0. -1.
<mgrwt>
<rscale>  0 0.80523513E+02</rscale>
<asrwt>0</asrwt>
<pdfrwt beam="1">  1        1 0.71300587E-03 0.80523513E+02</pdfrwt>
<pdfrwt beam="2">  1       -2 0.53810325E-01 0.80523513E+02</pdfrwt>
<totfact> 0.63264756E+04</totfact>
</mgrwt>
</event>
<event>
 8    1  0.8247621E-018  0.8221211E+02  0.7818608E-02  0.1322888E+00
          1   -1    0    0  501    0  0.00000000000E+00  0.00000000000E+00  0.57483836317E+02  0.57483836538E+02  0.50400000000E-02 0. -1.
         -2   -1    0    0    0  501 -0.00000000000E+00 -0.00000000000E+00 -0.29394486369E+02  0.29394486480E+02  0.25500000000E-02 0.  1.
        -24    2    1    2    0    0  0.00000000000E+00 -0.71054273576E-14  0.28089349948E+02  0.86878323018E+02  0.82212112428E+02 0.  0.
         66    2    3    3    0    0 -0.26108457527E+01  0.34608482576E+02 -0.91750353991E+01  0.35954761074E+02  0.19999968833E+01 0.  0.
         13    1    3    3    0    0  0.26108457527E+01 -0.34608482576E+02  0.37264385347E+02  0.50923561944E+02  0.10566000000E+00 0. -1.
         13    1    4    4    0    0 -0.89756645067E+00  0.15551967926E+02 -0.37334145755E+01  0.16019328336E+02  0.10566000000E+00 0. -1.
        -13    1    4    4    0    0 -0.31297878057E+00  0.20405541523E+01 -0.20667190367E+00  0.20774249149E+01  0.10566000000E+00 0.  1.
         14    1    4    4    0    0 -0.14003005215E+01  0.17015960498E+02 -0.52349489199E+01  0.17858007823E+02  0.00000000000E+00 0. -1.
<mgrwt>
<rscale>  0 0.82212112E+02</rscale>
<asrwt>0</asrwt>
<pdfrwt beam="1">  1        1 0.88436671E-02 0.82212112E+02</pdfrwt>
<pdfrwt beam="2">  1       -2 0.45222287E-02 0.82212112E+02</pdfrwt>
<totfact> 0.12469875E+05</totfact>
</mgrwt>
</event>
<event>
 8    1  0.8247621E-018  0.7960816E+02  0.7818608E-02  0.1330167E+00
          1   -1    0    0  501    0  0.00000000000E+00  0.00000000000E+00  0.14764203142E+02  0.14764204002E+02  0.50400000000E-02 0. -1.
         -2   -1    0    0    0  501 -0.00000000000E+00 -0.00000000000E+00 -0.10731123457E+03  0.10731123460E+03  0.25500000000E-02 0.  1.
        -24    2    1    2    0    0  0.00000000000E+00  0.00000000000E+00 -0.92547031433E+02  0.12207543861E+03  0.79608163426E+02 0.  0.
         66    2    3    3    0    0  0.16564597747E+02 -0.35733125925E+02 -0.54856753312E+02  0.67561124746E+02  0.20000015267E+01 0.  0.
         13    1    3    3    0    0 -0.16564597747E+02  0.35733125925E+02 -0.37690278121E+02  0.54514313861E+02  0.10566000000E+00 0. -1.
         13    1    4    4    0    0  0.80130269139E+00 -0.26146499531E+01 -0.37750791132E+01  0.46627102341E+01  0.10566000000E+00 0. -1.
        -13    1    4    4    0    0  0.14735710057E+01 -0.34425068030E+01 -0.46641546179E+01  0.59822877675E+01  0.10566000000E+00 0.  1.
        -14    1    4    4    0    0  0.14289724050E+02 -0.29675969169E+02 -0.46417519581E+02  0.56916126744E+02  0.00000000000E+00 0.  1.
<mgrwt>
<rscale>  0 0.79608163E+02</rscale>
<asrwt>0</asrwt>
<pdfrwt beam="1">  1        1 0.22714160E-02 0.79608163E+02</pdfrwt>
<pdfrwt beam="2">  1       -2 0.16509420E-01 0.79608163E+02</pdfrwt>
<totfact> 0.10556196E+05</totfact>
</mgrwt>
</event>
<event>
 8    1  0.8247621E-018  0.7945609E+02  0.7818608E-02  0.1330602E+00
          1   -1    0    0  501    0  0.00000000000E+00  0.00000000000E+00  0.15155998602E+02  0.15155999440E+02  0.50400000000E-02 0. -1.
         -2   -1    0    0    0  501 -0.00000000000E+00 -0.00000000000E+00 -0.10413813992E+03  0.10413813995E+03  0.25500000000E-02 0.  1.
        -24    2    1    2    0    0  0.00000000000E+00  0.00000000000E+00 -0.88982141316E+02  0.11929413939E+03  0.79456089881E+02 0.  0.
         66    2    3    3    0    0 -0.24859434869E+02 -0.30434671791E+02 -0.53019172132E+02  0.66024945048E+02  0.20000015222E+01 0.  0.
         13    1    3    3    0    0  0.24859434869E+02  0.30434671791E+02 -0.35962969184E+02  0.53269194340E+02  0.10566000000E+00 0. -1.
         13    1    4    4    0    0 -0.15274977652E+02 -0.18662301159E+02 -0.33267178853E+02  0.41089205149E+02  0.10566000000E+00 0.  1.
        -13    1    4    4    0    0 -0.23350493976E+01 -0.34972738108E+01 -0.50248185433E+01  0.65531172144E+01  0.10566000000E+00 0. -1.
         14    1    4    4    0    0 -0.72494078194E+01 -0.82750968205E+01 -0.14727174735E+02  0.18382622685E+02  0.00000000000E+00 0. -1.
<mgrwt>
<rscale>  0 0.79456090E+02</rscale>
<asrwt>0</asrwt>
<pdfrwt beam="1">  1        1 0.23316922E-02 0.79456090E+02</pdfrwt>
<pdfrwt beam="2">  1       -2 0.16021252E-01 0.79456090E+02</pdfrwt>
<totfact> 0.10690215E+05</totfact>
</mgrwt>
</event>
<event>
 8    1  0.8247621E-018  0.8041653E+02  0.7818608E-02  0.1327874E+00
          1   -1    0    0  501    0  0.00000000000E+00  0.00000000000E+00  0.46288313075E+02  0.46288313349E+02  0.50400000000E-02 0. -1.
         -2   -1    0    0    0  501 -0.00000000000E+00 -0.00000000000E+00 -0.34926843825E+02  0.34926843918E+02  0.25500000000E-02 0.  1.
        -24    2    1    2    0    0  0.35527136788E-14 -0.35527136788E-14  0.11361469250E+02  0.81215157267E+02  0.80416533042E+02 0.  0.
         66    2    3    3    0    0 -0.26009144786E+02  0.30628011722E+02  0.52943777032E+01  0.40578087018E+02  0.19999990660E+01 0.  0.
         13    1    3    3    0    0  0.26009144786E+02 -0.30628011722E+02  0.60670915466E+01  0.40637070249E+02  0.10566000000E+00 0. -1.
         13    1    4    4    0    0 -0.10530523665E+01  0.16178501720E+01  0.16085784981E+00  0.19399478728E+01  0.10566000000E+00 0. -1.
        -13    1    4    4    0    0 -0.14632974076E+02  0.18104477363E+02  0.31376030768E+01  0.23489396501E+02  0.10566000000E+00 0.  1.
        -14    1    4    4    0    0 -0.10323118344E+02  0.10905684187E+02  0.19959167766E+01  0.15148742644E+02  0.00000000000E+00 0.  1.
<mgrwt>
<rscale>  0 0.80416533E+02</rscale>
<asrwt>0</asrwt>
<pdfrwt beam="1">  1        1 0.71212790E-02 0.80416533E+02</pdfrwt>
<pdfrwt beam="2">  1       -2 0.53733606E-02 0.80416533E+02</pdfrwt>
<totfact> 0.12810693E+05</totfact>
</mgrwt>
</event>
<event>
 8    1  0.8247621E-018  0.7987905E+02  0.7818608E-02  0.1329395E+00
          1   -1    0    0  501    0  0.00000000000E+00  0.00000000000E+00  0.97843561489E+02  0.97843561619E+02  0.50400000000E-02 0. -1.
         -2   -1    0    0    0  501 -0.00000000000E+00 -0.00000000000E+00 -0.16303224243E+02  0.16303224442E+02  0.25500000000E-02 0.  1.
        -24    2    1    2    0    0  0.00000000000E+00  0.00000000000E+00  0.81540337246E+02  0.11414678606E+03  0.79879047127E+02 0.  0.
         66    2    3    3    0    0  0.27277375713E+02 -0.19230093527E+02  0.95104844440E+01  0.34760624915E+02  0.20000018248E+01 0.  0.
         13    1    3    3    0    0 -0.27277375713E+02  0.19230093527E+02  0.72029852802E+02  0.79386161146E+02  0.10566000000E+00 0. -1.
         13    1    4    4    0    0  0.79950873590E+01 -0.63138733284E+01  0.25664417530E+01  0.10506388799E+02  0.10566000000E+00 0. -1.
        -13    1    4    4    0    0  0.14016482246E+02 -0.10010515994E+02  0.51104334607E+01  0.17966632940E+02  0.10566000000E+00 0.  1.
        -14    1    4    4    0    0  0.52658061082E+01 -0.29057042042E+01  0.18336092302E+01  0.62876031762E+01  0.00000000000E+00 0.  1.
<mgrwt>
<rscale>  0 0.79879047E+02</rscale>
<asrwt>0</asrwt>
<pdfrwt beam="1">  1        1 0.15052856E-01 0.79879047E+02</pdfrwt>
<pdfrwt beam="2">  1       -2 0.25081883E-02 0.79879047E+02</pdfrwt>
<totfact> 0.14705494E+05</totfact>
</mgrwt>
</event>
<event>
 8    1  0.8247621E-018  0.8268964E+02  0.7818608E-02  0.1321587E+00
          1   -1    0    0  501    0  0.00000000000E+00  0.00000000000E+00  0.81630323329E+02  0.81630323484E+02  0.50400000000E-02 0. -1.
         -2   -1    0    0    0  501 -0.00000000000E+00 -0.00000000000E+00 -0.20940675394E+02  0.20940675549E+02  0.25500000000E-02 0.  1.
        -24    2    1    2    0    0  0.00000000000E+00  0.00000000000E+00  0.60689647935E+02  0.10257099903E+03  0.82689639473E+02 0.  0.
         66    2    3    3    0    0 -0.24729304194E+02  0.15575437060E+02 -0.58712221557E+01  0.29876478492E+02  0.19999979857E+01 0.  0.
         13    1    3    3    0    0  0.24729304194E+02 -0.15575437060E+02  0.66560870091E+02  0.72694520542E+02  0.10566000000E+00 0. -1.
         13    1    4    4    0    0 -0.16534138725E+01  0.12495242317E+01 -0.59729873984E+00  0.21594022459E+01  0.10566000000E+00 0. -1.
        -13    1    4    4    0    0 -0.85658014579E+01  0.61677728259E+01 -0.17071937701E+01  0.10692990735E+02  0.10566000000E+00 0.  1.
        -14    1    4    4    0    0 -0.14510088863E+02  0.81581400023E+01 -0.35667296458E+01  0.17024085511E+02  0.00000000000E+00 0.  1.
<mgrwt>
<rscale>  0 0.82689639E+02</rscale>
<asrwt>0</asrwt>
<pdfrwt beam="1">  1        1 0.12558511E-01 0.82689639E+02</pdfrwt>
<pdfrwt beam="2">  1       -2 0.32216424E-02 0.82689639E+02</pdfrwt>
<totfact> 0.12989277E+05</totfact>
</mgrwt>
</event>
<event>
 8    1  0.8247621E-018  0.8097379E+02  0.7818608E-02  0.1326310E+00
          1   -1    0    0  501    0  0.00000000000E+00  0.00000000000E+00  0.39156978442E+03  0.39156978445E+03  0.50400000000E-02 0. -1.
         -2   -1    0    0    0  501 -0.00000000000E+00 -0.00000000000E+00 -0.41861978402E+01  0.41861986169E+01  0.25500000000E-02 0.  1.
        -24    2    1    2    0    0  0.00000000000E+00  0.00000000000E+00  0.38738358658E+03  0.39575598307E+03  0.80973791956E+02 0.  0.
         66    2    3    3    0    0  0.23508131500E+02  0.32750674652E+02  0.17691793742E+03  0.18146403367E+03  0.19999995802E+01 0.  0.
         13    1    3    3    0    0 -0.23508131500E+02 -0.32750674652E+02  0.21046564916E+03  0.21429194940E+03  0.10566000000E+00 0. -1.
         13    1    4    4    0    0  0.10960262996E+02  0.16669896275E+02  0.87329824412E+02  0.89579697492E+02  0.10566000000E+00 0.  1.
        -13    1    4    4    0    0  0.99308636714E+01  0.12551910199E+02  0.71665296409E+02  0.73430908862E+02  0.10566000000E+00 0. -1.
         14    1    4    4    0    0  0.26170048332E+01  0.35288681775E+01  0.17922816597E+02  0.18453427316E+02  0.00000000000E+00 0. -1.
<mgrwt>
<rscale>  0 0.80973792E+02</rscale>
<asrwt>0</asrwt>
<pdfrwt beam="1">  1        1 0.60241494E-01 0.80973792E+02</pdfrwt>
<pdfrwt beam="2">  1       -2 0.64403062E-03 0.80973792E+02</pdfrwt>
<totfact> 0.18334375E+05</totfact>
</mgrwt>
</event>
<event>
 8    1  0.1054714E-017  0.7516521E+02  0.7818608E-02  0.1343360E+00
          1   -1    0    0  501    0  0.00000000000E+00  0.00000000000E+00  0.66982312123E+03  0.66982312125E+03  0.50400000000E-02 0. -1.
         -2   -1    0    0    0  501 -0.00000000000E+00 -0.00000000000E+00 -0.21086932955E+01  0.21086948373E+01  0.25500000000E-02 0.  1.
        -24    2    1    2    0    0  0.35527136788E-14  0.71054273576E-14  0.66771442794E+03  0.67193181609E+03  0.75165206027E+02 0.  0.
         66    2    3    3    0    0 -0.13336973174E+02 -0.31158923249E+02  0.47870517263E+03  0.47990769493E+03  0.19999994605E+01 0.  0.
         13    1    3    3    0    0  0.13336973174E+02  0.31158923249E+02  0.18900925530E+03  0.19202412116E+03  0.10566000000E+00 0. -1.
         13    1    4    4    0    0 -0.27006037345E+00 -0.13938123314E+01  0.21813433292E+02  0.21859841752E+02  0.10566000000E+00 0. -1.
        -13    1    4    4    0    0 -0.14469531716E+01 -0.39331973911E+01  0.61941949581E+02  0.62083653220E+02  0.10566000000E+00 0.  1.
        -14    1    4    4    0    0 -0.11619959628E+02 -0.25831913526E+02  0.39494978976E+03  0.39596419996E+03  0.00000000000E+00 0.  1.
<mgrwt>
<rscale>  0 0.75165206E+02</rscale>
<asrwt>0</asrwt>
<pdfrwt beam="1">  1        1 0.10304964E+00 0.75165206E+02</pdfrwt>
<pdfrwt beam="2">  1       -2 0.32441469E-03 0.75165206E+02</pdfrwt>
<totfact> 0.23549143E+05</totfact>
</mgrwt>
</event>
<event>
 8    1  0.8247621E-018  0.7954311E+02  0.7818608E-02  0.1330353E+00
          1   -1    0    0  501    0  0.00000000000E+00  0.00000000000E+00  0.51445743550E+02  0.51445743797E+02  0.50400000000E-02 0. -1.
         -2   -1    0    0    0  501 -0.00000000000E+00 -0.00000000000E+00 -0.30746498779E+02  0.30746498885E+02  0.25500000000E-02 0.  1.
        -24    2    1    2    0    0  0.00000000000E+00  0.00000000000E+00  0.20699244771E+02  0.82192242682E+02  0.79543107954E+02 0.  0.
         66    2    3    3    0    0 -0.24580331427E+02  0.54357262714E+01 -0.21425845905E+02  0.33118071862E+02  0.19999994775E+01 0.  0.
         13    1    3    3    0    0  0.24580331427E+02 -0.54357262714E+01  0.42125090676E+02  0.49074170820E+02  0.10566000000E+00 0. -1.
         13    1    4    4    0    0 -0.79249873544E+01  0.13168647060E+01 -0.74144057727E+01  0.10932709372E+02  0.10566000000E+00 0. -1.
        -13    1    4    4    0    0 -0.12139647573E+02  0.25166133756E+01 -0.10459760469E+02  0.16221040015E+02  0.10566000000E+00 0.  1.
         14    1    4    4    0    0 -0.45156965004E+01  0.16022481898E+01 -0.35516796635E+01  0.59643224743E+01  0.00000000000E+00 0. -1.
<mgrwt>
<rscale>  0 0.79543108E+02</rscale>
<asrwt>0</asrwt>
<pdfrwt beam="1">  1        1 0.79147298E-02 0.79543108E+02</pdfrwt>
<pdfrwt beam="2">  1       -2 0.47302306E-02 0.79543108E+02</pdfrwt>
<totfact> 0.13427992E+05</totfact>
</mgrwt>
</event>
<event>
 8    1  0.8247621E-018  0.8061311E+02  0.7818608E-02  0.1327320E+00
         -2   -1    0    0    0  501 -0.00000000000E+00  0.00000000000E+00  0.15126116610E+02  0.15126116825E+02  0.25500000000E-02 0.  1.
          1   -1    0    0  501    0  0.00000000000E+00 -0.00000000000E+00 -0.10740485493E+03  0.10740485505E+03  0.50400000000E-02 0. -1.
        -24    2    1    2    0    0  0.35527136788E-14  0.00000000000E+00 -0.92278738323E+02  0.12253097188E+03  0.80613110115E+02 0.  0.
         66    2    3    3    0    0  0.22133088793E+02  0.27521911055E+02 -0.75613285572E+02  0.83478728828E+02  0.20000010009E+01 0.  0.
         13    1    3    3    0    0 -0.22133088793E+02 -0.27521911055E+02 -0.16665452751E+02  0.39052243048E+02  0.10566000000E+00 0. -1.
         13    1    4    4    0    0  0.18709796415E+01  0.29225652324E+01 -0.65605182528E+01  0.74225006660E+01  0.10566000000E+00 0. -1.
        -13    1    4    4    0    0  0.14955374683E+02  0.18516205941E+02 -0.50997765114E+02  0.56278737771E+02  0.10566000000E+00 0.  1.
         14    1    4    4    0    0  0.53067344686E+01  0.60831398819E+01 -0.18055002205E+02  0.19777490391E+02  0.00000000000E+00 0. -1.
<mgrwt>
<rscale>  0 0.80613110E+02</rscale>
<asrwt>0</asrwt>
<pdfrwt beam="1">  1        1 0.16523823E-01 0.80613110E+02</pdfrwt>
<pdfrwt beam="2">  1       -2 0.23270950E-02 0.80613110E+02</pdfrwt>
<totfact> 0.14574864E+05</totfact>
</mgrwt>
</event>
<event>
 8    1  0.8247621E-018  0.8061429E+02  0.7818608E-02  0.1327317E+00
          1   -1    0    0  501    0  0.00000000000E+00  0.00000000000E+00  0.20926689256E+03  0.20926689262E+03  0.50400000000E-02 0. -1.
         -2   -1    0    0    0  501 -0.00000000000E+00 -0.00000000000E+00 -0.77636071489E+01  0.77636075676E+01  0.25500000000E-02 0.  1.
        -24    2    1    2    0    0  0.00000000000E+00  0.00000000000E+00  0.20150328541E+03  0.21703050019E+03  0.80614291415E+02 0.  0.
         66    2    3    3    0    0  0.24403239921E+02  0.26331651061E+02  0.51627259860E+02  0.62914608194E+02  0.19999993233E+01 0.  0.
         13    1    3    3    0    0 -0.24403239921E+02 -0.26331651061E+02  0.14987602555E+03  0.15411589199E+03  0.10566000000E+00 0. -1.
         13    1    4    4    0    0  0.24898743600E+01  0.29125773866E+01  0.56364734976E+01  0.68164197998E+01  0.10566000000E+00 0.  1.
        -13    1    4    4    0    0  0.14863558659E+02  0.15476413900E+02  0.32127992812E+02  0.38635008081E+02  0.10566000000E+00 0.  1.
        -14    1    4    4    0    0  0.70498069020E+01  0.79426597738E+01  0.13862793551E+02  0.17463180314E+02  0.00000000000E+00 0.  1.
<mgrwt>
<rscale>  0 0.80614291E+02</rscale>
<asrwt>0</asrwt>
<pdfrwt beam="1">  1        1 0.32194907E-01 0.80614291E+02</pdfrwt>
<pdfrwt beam="2">  1       -2 0.11944011E-02 0.80614291E+02</pdfrwt>
<totfact> 0.16483371E+05</totfact>
</mgrwt>
</event>
<event>
 8    1  0.8247621E-018  0.8053023E+02  0.7818608E-02  0.1327553E+00
          1   -1    0    0  501    0  0.00000000000E+00  0.00000000000E+00  0.17087120535E+03  0.17087120542E+03  0.50400000000E-02 0. -1.
         -2   -1    0    0    0  501 -0.00000000000E+00 -0.00000000000E+00 -0.94883128551E+01  0.94883131977E+01  0.25500000000E-02 0.  1.
        -24    2    1    2    0    0  0.35527136788E-14  0.00000000000E+00  0.16138289249E+03  0.18035951862E+03  0.80530230146E+02 0.  0.
         66    2    3    3    0    0 -0.30690770681E+02 -0.11853934103E+02  0.28849044522E+02  0.43803042462E+02  0.20000000965E+01 0.  0.
         13    1    3    3    0    0  0.30690770681E+02  0.11853934103E+02  0.13253384797E+03  0.13655647616E+03  0.10566000000E+00 0. -1.
         13    1    4    4    0    0 -0.78507165897E+01 -0.30956656192E+01  0.82291756170E+01  0.11787594834E+02  0.10566000000E+00 0. -1.
        -13    1    4    4    0    0 -0.16609870867E+02 -0.66701372514E+01  0.15659372035E+02  0.23782464921E+02  0.10566000000E+00 0.  1.
        -14    1    4    4    0    0 -0.62301832242E+01 -0.20881312326E+01  0.49604968701E+01  0.82329827068E+01  0.00000000000E+00 0.  1.
<mgrwt>
<rscale>  0 0.80530230E+02</rscale>
<asrwt>0</asrwt>
<pdfrwt beam="1">  1        1 0.26287878E-01 0.80530230E+02</pdfrwt>
<pdfrwt beam="2">  1       -2 0.14597405E-02 0.80530230E+02</pdfrwt>
<totfact> 0.15895136E+05</totfact>
</mgrwt>
</event>
<event>
 8    1  0.8247621E-018  0.7967879E+02  0.7818608E-02  0.1329965E+00
          1   -1    0    0  501    0  0.00000000000E+00  0.00000000000E+00  0.12573306338E+03  0.12573306348E+03  0.50400000000E-02 0. -1.
         -2   -1    0    0    0  501 -0.00000000000E+00 -0.00000000000E+00 -0.12623387952E+02  0.12623388210E+02  0.25500000000E-02 0.  1.
        -24    2    1    2    0    0 -0.17763568394E-14  0.00000000000E+00  0.11310967543E+03  0.13835645169E+03  0.79678786694E+02 0.  0.
         66    2    3    3    0    0 -0.12129273240E+02  0.15596587111E+02 -0.34307669039E+01  0.20152988705E+02  0.19999983440E+01 0.  0.
         13    1    3    3    0    0  0.12129273240E+02 -0.15596587111E+02  0.11654044233E+03  0.11820346299E+03  0.10566000000E+00 0. -1.
         13    1    4    4    0    0 -0.16300763348E+01  0.27074197666E+01 -0.10709597235E+01  0.33384711194E+01  0.10566000000E+00 0. -1.
        -13    1    4    4    0    0 -0.58177068313E+01  0.64650559460E+01 -0.11301751451E+01  0.87710387671E+01  0.10566000000E+00 0.  1.
        -14    1    4    4    0    0 -0.46814900741E+01  0.64241113980E+01 -0.12296320353E+01  0.80434788189E+01  0.00000000000E+00 0.  1.
<mgrwt>
<rscale>  0 0.79678787E+02</rscale>
<asrwt>0</asrwt>
<pdfrwt beam="1">  1        1 0.19343547E-01 0.79678787E+02</pdfrwt>
<pdfrwt beam="2">  1       -2 0.19420598E-02 0.79678787E+02</pdfrwt>
<totfact> 0.15457831E+05</totfact>
</mgrwt>
</event>
<event>
 8    1  0.8247621E-018  0.7957115E+02  0.7818608E-02  0.1330273E+00
          1   -1    0    0  501    0  0.00000000000E+00  0.00000000000E+00  0.54638775797E+02  0.54638776030E+02  0.50400000000E-02 0. -1.
         -2   -1    0    0    0  501 -0.00000000000E+00 -0.00000000000E+00 -0.28970120240E+02  0.28970120352E+02  0.25500000000E-02 0.  1.
        -24    2    1    2    0    0  0.00000000000E+00 -0.35527136788E-14  0.25668655558E+02  0.83608896382E+02  0.79571148516E+02 0.  0.
         66    2    3    3    0    0 -0.30042414906E+02 -0.22998505554E+02  0.25685968655E+02  0.45773867442E+02  0.20000009245E+01 0.  0.
         13    1    3    3    0    0  0.30042414906E+02  0.22998505554E+02 -0.17313097861E-01  0.37835028940E+02  0.10566000000E+00 0. -1.
         13    1    4    4    0    0 -0.16907171258E+01 -0.12055712561E+01  0.15962609093E+01  0.26212858255E+01  0.10566000000E+00 0. -1.
        -13    1    4    4    0    0 -0.24620169251E+01 -0.13381932043E+01  0.17277787526E+01  0.32937322060E+01  0.10566000000E+00 0.  1.
        -14    1    4    4    0    0 -0.25889680855E+02 -0.20454741094E+02  0.22361928994E+02  0.39858849410E+02  0.00000000000E+00 0.  1.
<mgrwt>
<rscale>  0 0.79571149E+02</rscale>
<asrwt>0</asrwt>
<pdfrwt beam="1">  1        1 0.84059655E-02 0.79571149E+02</pdfrwt>
<pdfrwt beam="2">  1       -2 0.44569416E-02 0.79571149E+02</pdfrwt>
<totfact> 0.13541500E+05</totfact>
</mgrwt>
</event>
<event>
 8    1  0.8247621E-018  0.7801101E+02  0.7818608E-02  0.1334793E+00
         -2   -1    0    0    0  501 -0.00000000000E+00  0.00000000000E+00  0.69003489938E+02  0.69003489986E+02  0.25500000000E-02 0.  1.
          1   -1    0    0  501    0  0.00000000000E+00 -0.00000000000E+00 -0.22048588067E+02  0.22048588643E+02  0.50400000000E-02 0. -1.
        -24    2    1    2    0    0  0.00000000000E+00  0.00000000000E+00  0.46954901871E+02  0.91052078629E+02  0.78011013408E+02 0.  0.
         66    2    3    3    0    0 -0.11404385730E+02 -0.29616254005E+01  0.66860584014E+02  0.67920312926E+02  0.19999936051E+01 0.  0.
         13    1    3    3    0    0  0.11404385730E+02  0.29616254005E+01 -0.19905682143E+02  0.23131765703E+02  0.10566000000E+00 0. -1.
         13    1    4    4    0    0 -0.92528997961E+00  0.15750205136E-01  0.59222930959E+01  0.59950920898E+01  0.10566000000E+00 0. -1.
        -13    1    4    4    0    0 -0.33748461135E+01 -0.11079739060E+01  0.24217148534E+02  0.24476491571E+02  0.10566000000E+00 0.  1.
         14    1    4    4    0    0 -0.71042496373E+01 -0.18694016996E+01  0.36721142384E+02  0.37448729266E+02  0.00000000000E+00 0. -1.
<mgrwt>
<rscale>  0 0.78011013E+02</rscale>
<asrwt>0</asrwt>
<pdfrwt beam="1">  1        1 0.33920906E-02 0.78011013E+02</pdfrwt>
<pdfrwt beam="2">  1       -2 0.10615921E-01 0.78011013E+02</pdfrwt>
<totfact> 0.12284699E+05</totfact>
</mgrwt>
</event>
<event>
 8    1  0.8247621E-018  0.8027871E+02  0.7818608E-02  0.1328262E+00
          1   -1    0    0  501    0  0.00000000000E+00  0.00000000000E+00  0.28229168321E+02  0.28229168771E+02  0.50400000000E-02 0. -1.
         -2   -1    0    0    0  501 -0.00000000000E+00 -0.00000000000E+00 -0.57074571939E+02  0.57074571996E+02  0.25500000000E-02 0.  1.
        -24    2    1    2    0    0  0.71054273576E-14  0.35527136788E-14 -0.28845403618E+02  0.85303740767E+02  0.80278707506E+02 0.  0.
         66    2    3    3    0    0 -0.28708700637E+02 -0.14980659690E+02 -0.39589626884E+02  0.51185429632E+02  0.19999981957E+01 0.  0.
         13    1    3    3    0    0  0.28708700637E+02  0.14980659690E+02  0.10744223266E+02  0.34118311134E+02  0.10566000000E+00 0. -1.
         13    1    4    4    0    0 -0.82363739271E+00 -0.71355479131E+00 -0.17064923791E+01  0.20275155413E+01  0.10566000000E+00 0. -1.
        -13    1    4    4    0    0 -0.87690825492E+01 -0.45690279535E+01 -0.11649965808E+02  0.15280893055E+02  0.10566000000E+00 0.  1.
         14    1    4    4    0    0 -0.19115980696E+02 -0.96980769450E+01 -0.26233168697E+02  0.33877021036E+02  0.00000000000E+00 0. -1.
<mgrwt>
<rscale>  0 0.80278708E+02</rscale>
<asrwt>0</asrwt>
<pdfrwt beam="1">  1        1 0.43429490E-02 0.80278708E+02</pdfrwt>
<pdfrwt beam="2">  1       -2 0.87807034E-02 0.80278708E+02</pdfrwt>
<totfact> 0.11844040E+05</totfact>
</mgrwt>
</event>
<event>
 8    1  0.8247621E-018  0.8032109E+02  0.7818608E-02  0.1328143E+00
          1   -1    0    0  501    0  0.00000000000E+00  0.00000000000E+00  0.16309575918E+03  0.16309575925E+03  0.50400000000E-02 0. -1.
         -2   -1    0    0    0  501 -0.00000000000E+00 -0.00000000000E+00 -0.98890943351E+01  0.98890946639E+01  0.25500000000E-02 0.  1.
        -24    2    1    2    0    0  0.00000000000E+00  0.00000000000E+00  0.15320666484E+03  0.17298485392E+03  0.80321090215E+02 0.  0.
         66    2    3    3    0    0  0.16376781821E+02 -0.36465422529E+02  0.84397429662E+02  0.93406917070E+02  0.19999999982E+01 0.  0.
         13    1    3    3    0    0 -0.16376781821E+02  0.36465422529E+02  0.68809235179E+02  0.79577936848E+02  0.10566000000E+00 0. -1.
         13    1    4    4    0    0  0.50580318641E+01 -0.11745941399E+02  0.25636677531E+02  0.28649628699E+02  0.10566000000E+00 0.  1.
        -13    1    4    4    0    0  0.15158445046E+01 -0.40379804021E+01  0.10096149762E+02  0.10979365844E+02  0.10566000000E+00 0. -1.
        -14    1    4    4    0    0  0.98029054521E+01 -0.20681500727E+02  0.48664602369E+02  0.53777922528E+02  0.00000000000E+00 0.  1.
<mgrwt>
<rscale>  0 0.80321090E+02</rscale>
<asrwt>0</asrwt>
<pdfrwt beam="1">  1        1 0.25091654E-01 0.80321090E+02</pdfrwt>
<pdfrwt beam="2">  1       -2 0.15213992E-02 0.80321090E+02</pdfrwt>
<totfact> 0.15865788E+05</totfact>
</mgrwt>
</event>
<event>
 8    1  0.8247621E-018  0.7369709E+02  0.7818608E-02  0.1347954E+00
          1   -1    0    0  501    0  0.00000000000E+00  0.00000000000E+00  0.21981402189E+03  0.21981402195E+03  0.50400000000E-02 0. -1.
         -2   -1    0    0    0  501 -0.00000000000E+00 -0.00000000000E+00 -0.61771095741E+01  0.61771101004E+01  0.25500000000E-02 0.  1.
        -24    2    1    2    0    0  0.00000000000E+00  0.00000000000E+00  0.21363691231E+03  0.22599113205E+03  0.73697092619E+02 0.  0.
         66    2    3    3    0    0  0.32494352873E+02  0.16497649001E+02  0.90741694291E+02  0.97806495026E+02  0.19999987983E+01 0.  0.
         13    1    3    3    0    0 -0.32494352873E+02 -0.16497649001E+02  0.12289521802E+03  0.12818463702E+03  0.10566000000E+00 0. -1.
         13    1    4    4    0    0  0.47174807681E+01  0.28944466766E+01  0.13753969397E+02  0.14826168911E+02  0.10566000000E+00 0. -1.
        -13    1    4    4    0    0  0.27649775090E+02  0.13592161475E+02  0.76393037180E+02  0.82372108203E+02  0.10566000000E+00 0.  1.
        -14    1    4    4    0    0  0.12709701414E+00  0.11040848855E-01  0.59468771452E+00  0.60821791255E+00  0.00000000000E+00 0.  1.
<mgrwt>
<rscale>  0 0.73697093E+02</rscale>
<asrwt>0</asrwt>
<pdfrwt beam="1">  1        1 0.33817548E-01 0.73697093E+02</pdfrwt>
<pdfrwt beam="2">  1       -2 0.95032443E-03 0.73697093E+02</pdfrwt>
<totfact> 0.21087006E+05</totfact>
</mgrwt>
</event>
<event>
 8    1  0.8247621E-018  0.8596880E+02  0.7818608E-02  0.1312918E+00
          1   -1    0    0  501    0  0.00000000000E+00  0.00000000000E+00  0.35836228454E+02  0.35836228809E+02  0.50400000000E-02 0. -1.
         -2   -1    0    0    0  501 -0.00000000000E+00 -0.00000000000E+00 -0.51558396723E+02  0.51558396786E+02  0.25500000000E-02 0.  1.
        -24    2    1    2    0    0 -0.71054273576E-14  0.00000000000E+00 -0.15722168269E+02  0.87394625595E+02  0.85968796710E+02 0.  0.
         66    2    3    3    0    0  0.25222647339E+02 -0.24879691354E+02 -0.32567986136E+02  0.48164869997E+02  0.20000000480E+01 0.  0.
         13    1    3    3    0    0 -0.25222647339E+02  0.24879691354E+02  0.16845817867E+02  0.39229755598E+02  0.10566000000E+00 0. -1.
         13    1    4    4    0    0  0.16376919587E+02 -0.17015991679E+02 -0.21161476246E+02  0.31710671846E+02  0.10566000000E+00 0. -1.
        -13    1    4    4    0    0  0.41822409885E+01 -0.33599425364E+01 -0.48322605816E+01  0.72209597629E+01  0.10566000000E+00 0.  1.
        -14    1    4    4    0    0  0.46634867632E+01 -0.45037571382E+01 -0.65742493088E+01  0.92332383877E+01  0.00000000000E+00 0.  1.
<mgrwt>
<rscale>  0 0.85968797E+02</rscale>
<asrwt>0</asrwt>
<pdfrwt beam="1">  1        1 0.55132660E-02 0.85968797E+02</pdfrwt>
<pdfrwt beam="2">  1       -2 0.79320610E-02 0.85968797E+02</pdfrwt>
<totfact> 0.10151261E+05</totfact>
</mgrwt>
</event>
<event>
 8    1  0.8247621E-018  0.8069094E+02  0.7818608E-02  0.1327102E+00
         -2   -1    0    0    0  501 -0.00000000000E+00  0.00000000000E+00  0.15092805476E+02  0.15092805691E+02  0.25500000000E-02 0.  1.
          1   -1    0    0  501    0  0.00000000000E+00 -0.00000000000E+00 -0.10784985687E+03  0.10784985698E+03  0.50400000000E-02 0. -1.
        -24    2    1    2    0    0  0.00000000000E+00  0.35527136788E-14 -0.92757051392E+02  0.12294266268E+03  0.80690939535E+02 0.  0.
         66    2    3    3    0    0 -0.24696221061E+01 -0.20564534337E+02  0.63014909078E+01  0.21741847104E+02  0.20000054981E+01 0.  0.
         13    1    3    3    0    0  0.24696221061E+01  0.20564534337E+02 -0.99058542299E+02  0.10120081557E+03  0.10566000000E+00 0. -1.
         13    1    4    4    0    0 -0.12321728778E+00 -0.23673213978E+01  0.31688058137E+00  0.23939445355E+01  0.10566000000E+00 0.  1.
        -13    1    4    4    0    0 -0.33223964503E+00 -0.42172074279E+01  0.19452847851E+01  0.46573080854E+01  0.10566000000E+00 0.  1.
        -14    1    4    4    0    0 -0.20141651733E+01 -0.13980005512E+02  0.40393255413E+01  0.14690594483E+02  0.00000000000E+00 0.  1.
<mgrwt>
<rscale>  0 0.80690940E+02</rscale>
<asrwt>0</asrwt>
<pdfrwt beam="1">  1        1 0.16592285E-01 0.80690940E+02</pdfrwt>
<pdfrwt beam="2">  1       -2 0.23219702E-02 0.80690940E+02</pdfrwt>
<totfact> 0.14547266E+05</totfact>
</mgrwt>
</event>
<event>
 8    1  0.8247621E-018  0.8146429E+02  0.7818608E-02  0.1324947E+00
          1   -1    0    0  501    0  0.00000000000E+00  0.00000000000E+00  0.13544562308E+02  0.13544563246E+02  0.50400000000E-02 0. -1.
         -2   -1    0    0    0  501 -0.00000000000E+00 -0.00000000000E+00 -0.12249253268E+03  0.12249253271E+03  0.25500000000E-02 0.  1.
        -24    2    1    2    0    0  0.00000000000E+00  0.00000000000E+00 -0.10894797038E+03  0.13603709596E+03  0.81464294186E+02 0.  0.
         66    2    3    3    0    0  0.26484522647E+02  0.95110468235E+01 -0.10362595565E+03  0.10739752619E+03  0.19999989491E+01 0.  0.
         13    1    3    3    0    0 -0.26484522647E+02 -0.95110468235E+01 -0.53220147235E+01  0.28639569764E+02  0.10566000000E+00 0. -1.
         13    1    4    4    0    0  0.34297351173E+01  0.14563109274E+01 -0.16085324821E+02  0.16511594809E+02  0.10566000000E+00 0. -1.
        -13    1    4    4    0    0  0.17922231596E+02  0.65293689716E+01 -0.67861205947E+02  0.70491087956E+02  0.10566000000E+00 0.  1.
         14    1    4    4    0    0  0.51325559337E+01  0.15253669245E+01 -0.19679424885E+02  0.20394843428E+02  0.00000000000E+00 0. -1.
<mgrwt>
<rscale>  0 0.81464294E+02</rscale>
<asrwt>0</asrwt>
<pdfrwt beam="1">  1        1 0.20837790E-02 0.81464294E+02</pdfrwt>
<pdfrwt beam="2">  1       -2 0.18845004E-01 0.81464294E+02</pdfrwt>
<totfact> 0.95982095E+04</totfact>
</mgrwt>
</event>
<event>
 8    1  0.8247621E-018  0.8028142E+02  0.7818608E-02  0.1328255E+00
         -2   -1    0    0    0  501 -0.00000000000E+00  0.00000000000E+00  0.21059372620E+02  0.21059372775E+02  0.25500000000E-02 0.  1.
          1   -1    0    0  501    0  0.00000000000E+00 -0.00000000000E+00 -0.76511148261E+02  0.76511148427E+02  0.50400000000E-02 0. -1.
        -24    2    1    2    0    0  0.00000000000E+00  0.35527136788E-14 -0.55451775641E+02  0.97570521201E+02  0.80281424911E+02 0.  0.
         66    2    3    3    0    0 -0.25648235821E+02  0.22339580826E+02 -0.53592816486E+02  0.63506526054E+02  0.20000000516E+01 0.  0.
         13    1    3    3    0    0  0.25648235821E+02 -0.22339580826E+02 -0.18589591544E+01  0.34063995148E+02  0.10566000000E+00 0. -1.
         13    1    4    4    0    0 -0.22516437820E+01  0.16855589125E+01 -0.50825358609E+01  0.58098488261E+01  0.10566000000E+00 0. -1.
        -13    1    4    4    0    0 -0.66264323647E+01  0.61506686478E+01 -0.15052457259E+02  0.17559270038E+02  0.10566000000E+00 0.  1.
         14    1    4    4    0    0 -0.16770159675E+02  0.14503353266E+02 -0.33457823366E+02  0.40137407189E+02  0.00000000000E+00 0. -1.
<mgrwt>
<rscale>  0 0.80281425E+02</rscale>
<asrwt>0</asrwt>
<pdfrwt beam="1">  1        1 0.11770946E-01 0.80281425E+02</pdfrwt>
<pdfrwt beam="2">  1       -2 0.32399035E-02 0.80281425E+02</pdfrwt>
<totfact> 0.13934126E+05</totfact>
</mgrwt>
</event>
<event>
 8    1  0.8247621E-018  0.7745238E+02  0.7818608E-02  0.1336441E+00
          1   -1    0    0  501    0  0.00000000000E+00  0.00000000000E+00  0.21291529907E+03  0.21291529913E+03  0.50400000000E-02 0. -1.
         -2   -1    0    0    0  501 -0.00000000000E+00 -0.00000000000E+00 -0.70437289729E+01  0.70437294345E+01  0.25500000000E-02 0.  1.
        -24    2    1    2    0    0  0.35527136788E-14  0.00000000000E+00  0.20587157010E+03  0.21995902857E+03  0.77452378096E+02 0.  0.
         66    2    3    3    0    0 -0.31761253094E+02 -0.17847781854E+02  0.65933427172E+02  0.75356070349E+02  0.20000011470E+01 0.  0.
         13    1    3    3    0    0  0.31761253094E+02  0.17847781854E+02  0.13993814293E+03  0.14460295822E+03  0.10566000000E+00 0. -1.
         13    1    4    4    0    0 -0.69702509054E+01 -0.44375960616E+01  0.14623477099E+02  0.16796842055E+02  0.10566000000E+00 0. -1.
        -13    1    4    4    0    0 -0.10252004042E+02 -0.63381916386E+01  0.21728666647E+02  0.24847985399E+02  0.10566000000E+00 0.  1.
         14    1    4    4    0    0 -0.14538998147E+02 -0.70719941538E+01  0.29581283426E+02  0.33711242895E+02  0.00000000000E+00 0. -1.
<mgrwt>
<rscale>  0 0.77452378E+02</rscale>
<asrwt>0</asrwt>
<pdfrwt beam="1">  1        1 0.32756203E-01 0.77452378E+02</pdfrwt>
<pdfrwt beam="2">  1       -2 0.10836506E-02 0.77452378E+02</pdfrwt>
<totfact> 0.18387814E+05</totfact>
</mgrwt>
</event>
<event>
 8    1  0.8247621E-018  0.8058816E+02  0.7818608E-02  0.1327391E+00
          1   -1    0    0  501    0  0.00000000000E+00  0.00000000000E+00  0.36429335265E+03  0.36429335269E+03  0.50400000000E-02 0. -1.
         -2   -1    0    0    0  501 -0.00000000000E+00 -0.00000000000E+00 -0.44568829294E+01  0.44568836589E+01  0.25500000000E-02 0.  1.
        -24    2    1    2    0    0  0.00000000000E+00  0.35527136788E-14  0.35983646973E+03  0.36875023635E+03  0.80588162051E+02 0.  0.
         66    2    3    3    0    0  0.34143102277E+02  0.18248234759E+02  0.12931056150E+03  0.13499618819E+03  0.20000011465E+01 0.  0.
         13    1    3    3    0    0 -0.34143102277E+02 -0.18248234759E+02  0.23052590823E+03  0.23375404816E+03  0.10566000000E+00 0. -1.
         13    1    4    4    0    0  0.23708469828E+02  0.12709238110E+02  0.87915706104E+02  0.91939103861E+02  0.10566000000E+00 0. -1.
        -13    1    4    4    0    0  0.79131559546E+01  0.44270090180E+01  0.30532461989E+02  0.31850570563E+02  0.10566000000E+00 0.  1.
         14    1    4    4    0    0  0.25214764939E+01  0.11119876303E+01  0.10862393404E+02  0.11206513761E+02  0.00000000000E+00 0. -1.
<mgrwt>
<rscale>  0 0.80588162E+02</rscale>
<asrwt>0</asrwt>
<pdfrwt beam="1">  1        1 0.56045146E-01 0.80588162E+02</pdfrwt>
<pdfrwt beam="2">  1       -2 0.68567417E-03 0.80588162E+02</pdfrwt>
<totfact> 0.18337998E+05</totfact>
</mgrwt>
</event>
<event>
 8    1  0.8247621E-018  0.7924392E+02  0.7818608E-02  0.1331211E+00
          1   -1    0    0  501    0  0.00000000000E+00  0.00000000000E+00  0.40226577294E+01  0.40226608867E+01  0.50400000000E-02 0. -1.
         -2   -1    0    0    0  501 -0.00000000000E+00 -0.00000000000E+00 -0.39026415110E+03  0.39026415111E+03  0.25500000000E-02 0.  1.
        -24    2    1    2    0    0  0.00000000000E+00  0.00000000000E+00 -0.38624149338E+03  0.39428681200E+03  0.79243920348E+02 0.  0.
         66    2    3    3    0    0 -0.10813915725E+02  0.31258935806E+02 -0.30155101539E+03  0.30336624191E+03  0.20000008639E+01 0.  0.
         13    1    3    3    0    0  0.10813915725E+02 -0.31258935806E+02 -0.84690477982E+02  0.90920570092E+02  0.10566000000E+00 0. -1.
         13    1    4    4    0    0 -0.20888191002E+01  0.77589130013E+01 -0.76053921479E+02  0.76477277885E+02  0.10566000000E+00 0. -1.
        -13    1    4    4    0    0 -0.10368088031E+01  0.19241565046E+01 -0.19528269486E+02  0.19650491696E+02  0.10566000000E+00 0.  1.
        -14    1    4    4    0    0 -0.76882878217E+01  0.21575866300E+02 -0.20596882443E+03  0.20723847233E+03  0.00000000000E+00 0.  1.
<mgrwt>
<rscale>  0 0.79243920E+02</rscale>
<asrwt>0</asrwt>
<pdfrwt beam="1">  1        1 0.61887097E-03 0.79243920E+02</pdfrwt>
<pdfrwt beam="2">  1       -2 0.60040609E-01 0.79243920E+02</pdfrwt>
<totfact> 0.61549800E+04</totfact>
</mgrwt>
</event>
<event>
 8    1  0.8247621E-018  0.7756282E+02  0.7818608E-02  0.1336114E+00
          1   -1    0    0  501    0  0.00000000000E+00  0.00000000000E+00  0.34933058363E+03  0.34933058366E+03  0.50400000000E-02 0. -1.
         -2   -1    0    0    0  501 -0.00000000000E+00 -0.00000000000E+00 -0.43053701920E+01  0.43053709472E+01  0.25500000000E-02 0.  1.
        -24    2    1    2    0    0 -0.17763568394E-14  0.00000000000E+00  0.34502521344E+03  0.35363595461E+03  0.77562816397E+02 0.  0.
         66    2    3    3    0    0  0.14337468457E+02  0.33451001160E+02  0.23336399110E+03  0.23619332088E+03  0.20000013791E+01 0.  0.
         13    1    3    3    0    0 -0.14337468457E+02 -0.33451001160E+02  0.11166122234E+03  0.11744263373E+03  0.10566000000E+00 0. -1.
         13    1    4    4    0    0  0.63458360141E+00  0.21676260428E+01  0.13812060884E+02  0.13995909720E+02  0.10566000000E+00 0. -1.
        -13    1    4    4    0    0  0.39425575625E+01  0.75598420631E+01  0.56546385031E+02  0.57185660757E+02  0.10566000000E+00 0.  1.
        -14    1    4    4    0    0  0.97603272934E+01  0.23723533054E+02  0.16300554518E+03  0.16501175040E+03  0.00000000000E+00 0.  1.
<mgrwt>
<rscale>  0 0.77562816E+02</rscale>
<asrwt>0</asrwt>
<pdfrwt beam="1">  1        1 0.53743187E-01 0.77562816E+02</pdfrwt>
<pdfrwt beam="2">  1       -2 0.66236446E-03 0.77562816E+02</pdfrwt>
<totfact> 0.20127954E+05</totfact>
</mgrwt>
</event>
<event>
 8    1  0.8247621E-018  0.8066107E+02  0.7818608E-02  0.1327186E+00
          1   -1    0    0  501    0  0.00000000000E+00  0.00000000000E+00  0.65964459507E+02  0.65964459699E+02  0.50400000000E-02 0. -1.
         -2   -1    0    0    0  501 -0.00000000000E+00 -0.00000000000E+00 -0.24658006083E+02  0.24658006215E+02  0.25500000000E-02 0.  1.
        -24    2    1    2    0    0  0.00000000000E+00 -0.71054273576E-14  0.41306453424E+02  0.90622465914E+02  0.80661070126E+02 0.  0.
         66    2    3    3    0    0 -0.62496409196E+00 -0.38218475363E+02  0.62998531679E+01  0.38790857173E+02  0.20000027723E+01 0.  0.
         13    1    3    3    0    0  0.62496409196E+00  0.38218475363E+02  0.35006600256E+02  0.51831608741E+02  0.10566000000E+00 0. -1.
         13    1    4    4    0    0 -0.39802001674E+00 -0.25862298043E+02  0.36498279189E+01  0.26121816321E+02  0.10566000000E+00 0.  1.
        -13    1    4    4    0    0  0.29054253993E+00 -0.71898186663E+01  0.15129814691E+01  0.73537870777E+01  0.10566000000E+00 0. -1.
        -14    1    4    4    0    0 -0.51748661515E+00 -0.51663586532E+01  0.11370437799E+01  0.53152537745E+01  0.00000000000E+00 0.  1.
<mgrwt>
<rscale>  0 0.80661070E+02</rscale>
<asrwt>0</asrwt>
<pdfrwt beam="1">  1        1 0.10148378E-01 0.80661070E+02</pdfrwt>
<pdfrwt beam="2">  1       -2 0.37935394E-02 0.80661070E+02</pdfrwt>
<totfact> 0.13434165E+05</totfact>
</mgrwt>
</event>
<event>
 8    1  0.8247621E-018  0.7990179E+02  0.7818608E-02  0.1329330E+00
         -2   -1    0    0    0  501 -0.00000000000E+00  0.00000000000E+00  0.12349163723E+02  0.12349163986E+02  0.25500000000E-02 0.  1.
          1   -1    0    0  501    0  0.00000000000E+00 -0.00000000000E+00 -0.12924549581E+03  0.12924549591E+03  0.50400000000E-02 0. -1.
        -24    2    1    2    0    0  0.00000000000E+00  0.00000000000E+00 -0.11689633209E+03  0.14159465990E+03  0.79901785058E+02 0.  0.
         66    2    3    3    0    0 -0.26736470324E+02 -0.33516162377E+01 -0.62751965970E+01  0.27738966327E+02  0.19999959422E+01 0.  0.
         13    1    3    3    0    0  0.26736470324E+02  0.33516162377E+01 -0.11062113549E+03  0.11385569357E+03  0.10566000000E+00 0. -1.
         13    1    4    4    0    0 -0.88398053484E+01 -0.10667427280E+01 -0.14693154310E+01  0.90249737128E+01  0.10566000000E+00 0. -1.
        -13    1    4    4    0    0 -0.28076183833E+01 -0.29669570150E+00 -0.29767069424E+00  0.28408662769E+01  0.10566000000E+00 0.  1.
        -14    1    4    4    0    0 -0.15089046592E+02 -0.19881778082E+01 -0.45082104718E+01  0.15873126337E+02  0.00000000000E+00 0.  1.
<mgrwt>
<rscale>  0 0.79901785E+02</rscale>
<asrwt>0</asrwt>
<pdfrwt beam="1">  1        1 0.19883922E-01 0.79901785E+02</pdfrwt>
<pdfrwt beam="2">  1       -2 0.18998715E-02 0.79901785E+02</pdfrwt>
<totfact> 0.15417789E+05</totfact>
</mgrwt>
</event>
<event>
 8    1  0.8247621E-018  0.8074230E+02  0.7818608E-02  0.1326958E+00
         -2   -1    0    0    0  501 -0.00000000000E+00  0.00000000000E+00  0.97165248490E+01  0.97165251836E+01  0.25500000000E-02 0.  1.
          1   -1    0    0  501    0  0.00000000000E+00 -0.00000000000E+00 -0.16773794026E+03  0.16773794033E+03  0.50400000000E-02 0. -1.
        -24    2    1    2    0    0  0.00000000000E+00  0.00000000000E+00 -0.15802141541E+03  0.17745446551E+03  0.80742303683E+02 0.  0.
         66    2    3    3    0    0  0.34273407949E+02 -0.16030001675E+02 -0.48274521553E+02  0.61368207410E+02  0.20000008532E+01 0.  0.
         13    1    3    3    0    0 -0.34273407949E+02  0.16030001675E+02 -0.10974689385E+03  0.11608625810E+03  0.10566000000E+00 0. -1.
         13    1    4    4    0    0  0.17439666457E+02 -0.86981600241E+01 -0.23793804665E+02  0.30756401909E+02  0.10566000000E+00 0.  1.
        -13    1    4    4    0    0  0.16485556654E+02 -0.72119101992E+01 -0.24150646165E+02  0.30117272472E+02  0.10566000000E+00 0. -1.
         14    1    4    4    0    0  0.34818483856E+00 -0.11993145204E+00 -0.33007072301E+00  0.49453302942E+00  0.00000000000E+00 0. -1.
<mgrwt>
<rscale>  0 0.80742304E+02</rscale>
<asrwt>0</asrwt>
<pdfrwt beam="1">  1        1 0.25805835E-01 0.80742304E+02</pdfrwt>
<pdfrwt beam="2">  1       -2 0.14948501E-02 0.80742304E+02</pdfrwt>
<totfact> 0.15728856E+05</totfact>
</mgrwt>
</event>
<event>
 8    1  0.8247621E-018  0.7884369E+02  0.7818608E-02  0.1332365E+00
         -2   -1    0    0    0  501 -0.00000000000E+00  0.00000000000E+00  0.44791050443E+01  0.44791057702E+01  0.25500000000E-02 0.  1.
          1   -1    0    0  501    0  0.00000000000E+00 -0.00000000000E+00 -0.34696251286E+03  0.34696251290E+03  0.50400000000E-02 0. -1.
        -24    2    1    2    0    0 -0.71054273576E-14 -0.17763568394E-14 -0.34248340782E+03  0.35144161867E+03  0.78843685240E+02 0.  0.
         66    2    3    3    0    0  0.35414048342E+02  0.12466175079E+02 -0.11813846916E+03  0.12397684556E+03  0.19999994934E+01 0.  0.
         13    1    3    3    0    0 -0.35414048342E+02 -0.12466175079E+02 -0.22434493866E+03  0.22746477311E+03  0.10566000000E+00 0. -1.
         13    1    4    4    0    0  0.10774578441E+02  0.36648021633E+01 -0.34046722913E+02  0.35898646501E+02  0.10566000000E+00 0. -1.
        -13    1    4    4    0    0  0.14464894334E+02  0.55119041712E+01 -0.47818977181E+02  0.50262112951E+02  0.10566000000E+00 0.  1.
         14    1    4    4    0    0  0.10174575566E+02  0.32894687448E+01 -0.36272769068E+02  0.37816086107E+02  0.00000000000E+00 0. -1.
<mgrwt>
<rscale>  0 0.78843685E+02</rscale>
<asrwt>0</asrwt>
<pdfrwt beam="1">  1        1 0.53378827E-01 0.78843685E+02</pdfrwt>
<pdfrwt beam="2">  1       -2 0.68909341E-03 0.78843685E+02</pdfrwt>
<totfact> 0.19257636E+05</totfact>
</mgrwt>
</event>
<event>
 8    1  0.8247621E-018  0.7879410E+02  0.7818608E-02  0.1332509E+00
         -2   -1    0    0    0  501 -0.00000000000E+00  0.00000000000E+00  0.18983360308E+03  0.18983360310E+03  0.25500000000E-02 0.  1.
          1   -1    0    0  501    0  0.00000000000E+00 -0.00000000000E+00 -0.81762526593E+01  0.81762542127E+01  0.50400000000E-02 0. -1.
        -24    2    1    2    0    0 -0.17763568394E-14  0.00000000000E+00  0.18165735042E+03  0.19800985731E+03  0.78794102761E+02 0.  0.
         66    2    3    3    0    0  0.14915392006E+02  0.15144060604E+02  0.17416992461E+03  0.17547357103E+03  0.19999996099E+01 0.  0.
         13    1    3    3    0    0 -0.14915392006E+02 -0.15144060604E+02  0.74874258083E+01  0.22536286285E+02  0.10566000000E+00 0. -1.
         13    1    4    4    0    0  0.82872954478E+01  0.73612619435E+01  0.92404641049E+02  0.93067160130E+02  0.10566000000E+00 0. -1.
        -13    1    4    4    0    0  0.61260640572E+01  0.68625061343E+01  0.74508014192E+02  0.75073816968E+02  0.10566000000E+00 0.  1.
         14    1    4    4    0    0  0.50203250076E+00  0.92029252577E+00  0.72572693716E+01  0.73325939269E+01  0.00000000000E+00 0. -1.
<mgrwt>
<rscale>  0 0.78794103E+02</rscale>
<asrwt>0</asrwt>
<pdfrwt beam="1">  1        1 0.12578852E-02 0.78794103E+02</pdfrwt>
<pdfrwt beam="2">  1       -2 0.29205168E-01 0.78794103E+02</pdfrwt>
<totfact> 0.90329124E+04</totfact>
</mgrwt>
</event>
<event>
 8    1  0.8247621E-018  0.7908360E+02  0.7818608E-02  0.1331672E+00
          1   -1    0    0  501    0  0.00000000000E+00  0.00000000000E+00  0.16320716793E+03  0.16320716801E+03  0.50400000000E-02 0. -1.
         -2   -1    0    0    0  501 -0.00000000000E+00 -0.00000000000E+00 -0.95801786697E+01  0.95801790091E+01  0.25500000000E-02 0.  1.
        -24    2    1    2    0    0  0.00000000000E+00 -0.35527136788E-14  0.15362698926E+03  0.17278734702E+03  0.79083597920E+02 0.  0.
         66    2    3    3    0    0  0.18396393271E+02 -0.19882365952E+02  0.13999981661E+02  0.30557082388E+02  0.20000090785E+01 0.  0.
         13    1    3    3    0    0 -0.18396393271E+02  0.19882365952E+02  0.13962700760E+03  0.14223026463E+03  0.10566000000E+00 0. -1.
         13    1    4    4    0    0  0.49017745222E+01 -0.49189434193E+01  0.37986342718E+01  0.79160712601E+01  0.10566000000E+00 0. -1.
        -13    1    4    4    0    0  0.96610038320E+01 -0.11685533748E+02  0.74093734528E+01  0.16875919916E+02  0.10566000000E+00 0.  1.
        -14    1    4    4    0    0  0.38336149167E+01 -0.32778887844E+01  0.27919739361E+01  0.57650912111E+01  0.00000000000E+00 0.  1.
<mgrwt>
<rscale>  0 0.79083598E+02</rscale>
<asrwt>0</asrwt>
<pdfrwt beam="1">  1        1 0.25108797E-01 0.79083598E+02</pdfrwt>
<pdfrwt beam="2">  1       -2 0.14738736E-02 0.79083598E+02</pdfrwt>
<totfact> 0.16538351E+05</totfact>
</mgrwt>
</event>
<event>
 8    1  0.8247621E-018  0.8204309E+02  0.7818608E-02  0.1323351E+00
          1   -1    0    0  501    0  0.00000000000E+00  0.00000000000E+00  0.14730158541E+03  0.14730158549E+03  0.50400000000E-02 0. -1.
         -2   -1    0    0    0  501 -0.00000000000E+00 -0.00000000000E+00 -0.11423957993E+02  0.11423958277E+02  0.25500000000E-02 0.  1.
        -24    2    1    2    0    0  0.00000000000E+00  0.00000000000E+00  0.13587762741E+03  0.15872554377E+03  0.82043089979E+02 0.  0.
         66    2    3    3    0    0 -0.35281858543E+02  0.10076333203E+02  0.10335851970E+03  0.10969651600E+03  0.19999989606E+01 0.  0.
         13    1    3    3    0    0  0.35281858543E+02 -0.10076333203E+02  0.32519107715E+02  0.49029027766E+02  0.10566000000E+00 0. -1.
         13    1    4    4    0    0 -0.68824821408E+01  0.24266092566E+01  0.19673906826E+02  0.20984059825E+02  0.10566000000E+00 0. -1.
        -13    1    4    4    0    0 -0.16171426837E+02  0.40241071447E+01  0.45690520292E+02  0.48634795084E+02  0.10566000000E+00 0.  1.
        -14    1    4    4    0    0 -0.12227949566E+02  0.36256168019E+01  0.37994092579E+02  0.40077661093E+02  0.00000000000E+00 0.  1.
<mgrwt>
<rscale>  0 0.82043090E+02</rscale>
<asrwt>0</asrwt>
<pdfrwt beam="1">  1        1 0.22661782E-01 0.82043090E+02</pdfrwt>
<pdfrwt beam="2">  1       -2 0.17575321E-02 0.82043090E+02</pdfrwt>
<totfact> 0.14708419E+05</totfact>
</mgrwt>
</event>
<event>
 8    1  0.8247621E-018  0.7983152E+02  0.7818608E-02  0.1329530E+00
         -2   -1    0    0    0  501 -0.00000000000E+00  0.00000000000E+00  0.84789301861E+03  0.84789301862E+03  0.25500000000E-02 0.  1.
          1   -1    0    0  501    0  0.00000000000E+00 -0.00000000000E+00 -0.18790875188E+01  0.18790942779E+01  0.50400000000E-02 0. -1.
        -24    2    1    2    0    0  0.35527136788E-14 -0.88817841970E-15  0.84601393109E+03  0.84977211289E+03  0.79831524150E+02 0.  0.
         66    2    3    3    0    0  0.31104443034E+02 -0.61773245055E+01  0.68086530150E+03  0.68160634130E+03  0.20000004313E+01 0.  0.
         13    1    3    3    0    0 -0.31104443034E+02  0.61773245055E+01  0.16514862959E+03  0.16816577159E+03  0.10566000000E+00 0. -1.
         13    1    4    4    0    0  0.86424393670E+01 -0.99467101774E+00  0.17977917848E+03  0.17998956999E+03  0.10566000000E+00 0. -1.
        -13    1    4    4    0    0  0.34859482676E+01 -0.10901368168E+01  0.78057125967E+02  0.78142602413E+02  0.10566000000E+00 0.  1.
         14    1    4    4    0    0  0.18976055400E+02 -0.40925166709E+01  0.42302899706E+03  0.42347416890E+03  0.00000000000E+00 0. -1.
<mgrwt>
<rscale>  0 0.79831524E+02</rscale>
<asrwt>0</asrwt>
<pdfrwt beam="1">  1        1 0.28909116E-03 0.79831524E+02</pdfrwt>
<pdfrwt beam="2">  1       -2 0.13044497E+00 0.79831524E+02</pdfrwt>
<totfact> 0.31462066E+04</totfact>
</mgrwt>
</event>
<event>
 8    1  0.8247621E-018  0.7959535E+02  0.7818608E-02  0.1330204E+00
         -2   -1    0    0    0  501 -0.00000000000E+00  0.00000000000E+00  0.18513834505E+02  0.18513834681E+02  0.25500000000E-02 0.  1.
          1   -1    0    0  501    0  0.00000000000E+00 -0.00000000000E+00 -0.85549802918E+02  0.85549803066E+02  0.50400000000E-02 0. -1.
        -24    2    1    2    0    0  0.00000000000E+00  0.35527136788E-14 -0.67035968413E+02  0.10406363775E+03  0.79595349362E+02 0.  0.
         66    2    3    3    0    0 -0.26787315510E+02 -0.20860963214E+02 -0.64561619216E+01  0.34618233457E+02  0.20000006179E+01 0.  0.
         13    1    3    3    0    0  0.26787315510E+02  0.20860963214E+02 -0.60579806491E+02  0.69445404290E+02  0.10566000000E+00 0. -1.
         13    1    4    4    0    0 -0.65068872014E+01 -0.47464318514E+01 -0.16116820766E+01  0.82144311747E+01  0.10566000000E+00 0.  1.
        -13    1    4    4    0    0 -0.12195679605E+02 -0.86538880518E+01 -0.28062013154E+01  0.15215462835E+02  0.10566000000E+00 0.  1.
        -14    1    4    4    0    0 -0.80847487039E+01 -0.74606433110E+01 -0.20382785297E+01  0.11188339447E+02  0.00000000000E+00 0.  1.
<mgrwt>
<rscale>  0 0.79595349E+02</rscale>
<asrwt>0</asrwt>
<pdfrwt beam="1">  1        1 0.13161508E-01 0.79595349E+02</pdfrwt>
<pdfrwt beam="2">  1       -2 0.28482823E-02 0.79595349E+02</pdfrwt>
<totfact> 0.14522890E+05</totfact>
</mgrwt>
</event>
<event>
 8    1  0.8247621E-018  0.8068509E+02  0.7818608E-02  0.1327118E+00
         -2   -1    0    0    0  501 -0.00000000000E+00  0.00000000000E+00  0.37555819856E+02  0.37555819942E+02  0.25500000000E-02 0.  1.
          1   -1    0    0  501    0  0.00000000000E+00 -0.00000000000E+00 -0.43336047506E+02  0.43336047799E+02  0.50400000000E-02 0. -1.
        -24    2    1    2    0    0  0.00000000000E+00  0.00000000000E+00 -0.57802276499E+01  0.80891867741E+02  0.80685086819E+02 0.  0.
         66    2    3    3    0    0 -0.12670214441E+02 -0.91851715962E+01  0.34359957038E+02  0.37808839736E+02  0.20000008319E+01 0.  0.
         13    1    3    3    0    0  0.12670214441E+02  0.91851715962E+01 -0.40140184688E+02  0.43083028005E+02  0.10566000000E+00 0. -1.
         13    1    4    4    0    0 -0.40087436635E+01 -0.21629262949E+01  0.91775077946E+01  0.10246271969E+02  0.10566000000E+00 0.  1.
        -13    1    4    4    0    0 -0.72485488022E+01 -0.53326993216E+01  0.19996547367E+02  0.21928342674E+02  0.10566000000E+00 0. -1.
         14    1    4    4    0    0 -0.14129219750E+01 -0.16895459797E+01  0.51859018764E+01  0.56342250928E+01  0.00000000000E+00 0. -1.
<mgrwt>
<rscale>  0 0.80685087E+02</rscale>
<asrwt>0</asrwt>
<pdfrwt beam="1">  1        1 0.66670843E-02 0.80685087E+02</pdfrwt>
<pdfrwt beam="2">  1       -2 0.57778185E-02 0.80685087E+02</pdfrwt>
<totfact> 0.12558303E+05</totfact>
</mgrwt>
</event>
<event>
 8    1  0.8247621E-018  0.8211921E+02  0.7818608E-02  0.1323143E+00
         -2   -1    0    0    0  501 -0.00000000000E+00  0.00000000000E+00  0.17399240951E+02  0.17399241138E+02  0.25500000000E-02 0.  1.
          1   -1    0    0  501    0  0.00000000000E+00 -0.00000000000E+00 -0.96894520713E+02  0.96894520844E+02  0.50400000000E-02 0. -1.
        -24    2    1    2    0    0 -0.35527136788E-14 -0.17763568394E-14 -0.79495279762E+02  0.11429376198E+03  0.82119209223E+02 0.  0.
         66    2    3    3    0    0  0.23432942050E+02  0.13070460749E+02  0.34408344908E+01  0.27125247432E+02  0.19999972387E+01 0.  0.
         13    1    3    3    0    0 -0.23432942050E+02 -0.13070460749E+02 -0.82936114253E+02  0.87168514549E+02  0.10566000000E+00 0. -1.
         13    1    4    4    0    0  0.19355724848E+01  0.10913829474E+01  0.34377774932E+00  0.22509786224E+01  0.10566000000E+00 0. -1.
        -13    1    4    4    0    0  0.39828009467E+01  0.22259145414E+01 -0.14821679223E+00  0.45662381869E+01  0.10566000000E+00 0.  1.
        -14    1    4    4    0    0  0.17514568619E+02  0.97531632599E+01  0.32452735337E+01  0.20308030623E+02  0.00000000000E+00 0.  1.
<mgrwt>
<rscale>  0 0.82119209E+02</rscale>
<asrwt>0</asrwt>
<pdfrwt beam="1">  1        1 0.14906849E-01 0.82119209E+02</pdfrwt>
<pdfrwt beam="2">  1       -2 0.26768064E-02 0.82119209E+02</pdfrwt>
<totfact> 0.13621414E+05</totfact>
</mgrwt>
</event>
<event>
 8    1  0.8247621E-018  0.7821318E+02  0.7818608E-02  0.1334200E+00
          1   -1    0    0  501    0  0.00000000000E+00  0.00000000000E+00  0.40061928535E+02  0.40061928852E+02  0.50400000000E-02 0. -1.
         -2   -1    0    0    0  501 -0.00000000000E+00 -0.00000000000E+00 -0.38174036213E+02  0.38174036298E+02  0.25500000000E-02 0.  1.
        -24    2    1    2    0    0  0.00000000000E+00  0.00000000000E+00  0.18878923229E+01  0.78235965150E+02  0.78213183707E+02 0.  0.
         66    2    3    3    0    0 -0.24034608065E+02 -0.16826309658E+02 -0.24880268654E+02  0.38520317256E+02  0.19999979317E+01 0.  0.
         13    1    3    3    0    0  0.24034608065E+02  0.16826309658E+02  0.26768160977E+02  0.39715647894E+02  0.10566000000E+00 0. -1.
         13    1    4    4    0    0 -0.58872409638E+00 -0.12564266950E+00 -0.45985356081E+00  0.76486042848E+00  0.10566000000E+00 0. -1.
        -13    1    4    4    0    0 -0.93602944123E+01 -0.65286234540E+01 -0.92697685843E+01  0.14702986409E+02  0.10566000000E+00 0.  1.
         14    1    4    4    0    0 -0.14085589556E+02 -0.10172043534E+02 -0.15150646509E+02  0.23052470419E+02  0.00000000000E+00 0. -1.
<mgrwt>
<rscale>  0 0.78213184E+02</rscale>
<asrwt>0</asrwt>
<pdfrwt beam="1">  1        1 0.61633736E-02 0.78213184E+02</pdfrwt>
<pdfrwt beam="2">  1       -2 0.58729287E-02 0.78213184E+02</pdfrwt>
<totfact> 0.13533342E+05</totfact>
</mgrwt>
</event>
<event>
 8    1  0.8247621E-018  0.7973730E+02  0.7818608E-02  0.1329799E+00
          1   -1    0    0  501    0  0.00000000000E+00  0.00000000000E+00  0.76990387218E+02  0.76990387383E+02  0.50400000000E-02 0. -1.
         -2   -1    0    0    0  501 -0.00000000000E+00 -0.00000000000E+00 -0.20645555269E+02  0.20645555427E+02  0.25500000000E-02 0.  1.
        -24    2    1    2    0    0  0.17763568394E-14 -0.17763568394E-14  0.56344831949E+02  0.97635942810E+02  0.79737301440E+02 0.  0.
         66    2    3    3    0    0  0.15452881854E+02 -0.15705953366E+02 -0.12458551644E+02  0.25390629560E+02  0.20000079205E+01 0.  0.
         13    1    3    3    0    0 -0.15452881854E+02  0.15705953366E+02  0.68803383592E+02  0.72245313249E+02  0.10566000000E+00 0. -1.
         13    1    4    4    0    0  0.57178588790E+00 -0.38429024841E+00 -0.56241413155E+00  0.89559577243E+00  0.10566000000E+00 0. -1.
        -13    1    4    4    0    0  0.69721631703E+01 -0.61351236670E+01 -0.49723830666E+01  0.10535015856E+02  0.10566000000E+00 0.  1.
         14    1    4    4    0    0  0.79089327956E+01 -0.91865394503E+01 -0.69237544456E+01  0.13960017932E+02  0.00000000000E+00 0. -1.
<mgrwt>
<rscale>  0 0.79737301E+02</rscale>
<asrwt>0</asrwt>
<pdfrwt beam="1">  1        1 0.11844675E-01 0.79737301E+02</pdfrwt>
<pdfrwt beam="2">  1       -2 0.31762393E-02 0.79737301E+02</pdfrwt>
<totfact> 0.14209268E+05</totfact>
</mgrwt>
</event>
<event>
 8    1  0.8247621E-018  0.7896619E+02  0.7818608E-02  0.1332011E+00
          1   -1    0    0  501    0  0.00000000000E+00  0.00000000000E+00  0.25506742504E+03  0.25506742509E+03  0.50400000000E-02 0. -1.
         -2   -1    0    0    0  501 -0.00000000000E+00 -0.00000000000E+00 -0.61117749979E+01  0.61117755299E+01  0.25500000000E-02 0.  1.
        -24    2    1    2    0    0  0.00000000000E+00  0.00000000000E+00  0.24895565005E+03  0.26117920062E+03  0.78966189908E+02 0.  0.
         66    2    3    3    0    0  0.38618618150E+02  0.29604267063E+01  0.99641764537E+02  0.10692353828E+03  0.20000012264E+01 0.  0.
         13    1    3    3    0    0 -0.38618618150E+02 -0.29604267063E+01  0.14931388551E+03  0.15425566234E+03  0.10566000000E+00 0. -1.
         13    1    4    4    0    0  0.29945156682E+02  0.16883215496E+01  0.77434863458E+02  0.83040544803E+02  0.10566000000E+00 0. -1.
        -13    1    4    4    0    0  0.70161898122E+01  0.79415119414E+00  0.17610495040E+02  0.18973621035E+02  0.10566000000E+00 0.  1.
         14    1    4    4    0    0  0.16572716560E+01  0.47795396258E+00  0.45964060390E+01  0.49093724454E+01  0.00000000000E+00 0. -1.
<mgrwt>
<rscale>  0 0.78966190E+02</rscale>
<asrwt>0</asrwt>
<pdfrwt beam="1">  1        1 0.39241149E-01 0.78966190E+02</pdfrwt>
<pdfrwt beam="2">  1       -2 0.94027297E-03 0.78966190E+02</pdfrwt>
<totfact> 0.18094481E+05</totfact>
</mgrwt>
</event>
<event>
 8    1  0.8247621E-018  0.8149252E+02  0.7818608E-02  0.1324868E+00
         -2   -1    0    0    0  501 -0.00000000000E+00  0.00000000000E+00  0.28385203652E+02  0.28385203767E+02  0.25500000000E-02 0.  1.
          1   -1    0    0  501    0  0.00000000000E+00 -0.00000000000E+00 -0.58490255101E+02  0.58490255318E+02  0.50400000000E-02 0. -1.
        -24    2    1    2    0    0  0.00000000000E+00  0.00000000000E+00 -0.30105051449E+02  0.86875459085E+02  0.81492522776E+02 0.  0.
         66    2    3    3    0    0  0.34997186644E+02  0.63570667076E+01  0.60731439086E+01  0.36139984774E+02  0.20000130983E+01 0.  0.
         13    1    3    3    0    0 -0.34997186644E+02 -0.63570667076E+01 -0.36178195358E+02  0.50735474311E+02  0.10566000000E+00 0. -1.
         13    1    4    4    0    0  0.98622813865E+01  0.19440979088E+01  0.19031726308E+01  0.10231194501E+02  0.10566000000E+00 0. -1.
        -13    1    4    4    0    0  0.12911169977E+02  0.30747626880E+01  0.23084955390E+01  0.13471926048E+02  0.10566000000E+00 0.  1.
         14    1    4    4    0    0  0.12223735281E+02  0.13382061108E+01  0.18614757388E+01  0.12436864225E+02  0.00000000000E+00 0. -1.
<mgrwt>
<rscale>  0 0.81492523E+02</rscale>
<asrwt>0</asrwt>
<pdfrwt beam="1">  1        1 0.89985008E-02 0.81492523E+02</pdfrwt>
<pdfrwt beam="2">  1       -2 0.43669545E-02 0.81492523E+02</pdfrwt>
<totfact> 0.12812899E+05</totfact>
</mgrwt>
</event>
<event>
 8    1  0.8247621E-018  0.7042987E+02  0.7818608E-02  0.1358637E+00
          1   -1    0    0  501    0  0.00000000000E+00  0.00000000000E+00  0.14649913366E+03  0.14649913375E+03  0.50400000000E-02 0. -1.
         -2   -1    0    0    0  501 -0.00000000000E+00 -0.00000000000E+00 -0.84648400985E+01  0.84648404826E+01  0.25500000000E-02 0.  1.
        -24    2    1    2    0    0  0.00000000000E+00  0.35527136788E-14  0.13803429357E+03  0.15496397423E+03  0.70429873705E+02 0.  0.
         66    2    3    3    0    0  0.83545712289E+01 -0.20353874878E+02  0.86552803226E+01  0.23727472776E+02  0.20000009746E+01 0.  0.
         13    1    3    3    0    0 -0.83545712289E+01  0.20353874878E+02  0.12937901324E+03  0.13123650146E+03  0.10566000000E+00 0. -1.
         13    1    4    4    0    0  0.53231641787E+01 -0.13570615318E+02  0.55725297237E+01  0.15606470727E+02  0.10566000000E+00 0. -1.
        -13    1    4    4    0    0  0.21037975273E+01 -0.41492852829E+01  0.13945355879E+01  0.48578211100E+01  0.10566000000E+00 0.  1.
         14    1    4    4    0    0  0.92760952284E+00 -0.26339742773E+01  0.16882150110E+01  0.32631809394E+01  0.00000000000E+00 0. -1.
<mgrwt>
<rscale>  0 0.70429874E+02</rscale>
<asrwt>0</asrwt>
<pdfrwt beam="1">  1        1 0.22538326E-01 0.70429874E+02</pdfrwt>
<pdfrwt beam="2">  1       -2 0.13022832E-02 0.70429874E+02</pdfrwt>
<totfact> 0.22036169E+05</totfact>
</mgrwt>
</event>
<event>
 8    1  0.8247621E-018  0.7994897E+02  0.7818608E-02  0.1329196E+00
         -2   -1    0    0    0  501 -0.00000000000E+00  0.00000000000E+00  0.15297053637E+02  0.15297053850E+02  0.25500000000E-02 0.  1.
          1   -1    0    0  501    0  0.00000000000E+00 -0.00000000000E+00 -0.10446191469E+03  0.10446191481E+03  0.50400000000E-02 0. -1.
        -24    2    1    2    0    0 -0.17763568394E-14  0.00000000000E+00 -0.89164861054E+02  0.11975896866E+03  0.79948972027E+02 0.  0.
         66    2    3    3    0    0 -0.91511077777E+01 -0.18157498249E+02  0.69006159870E+01  0.21565157455E+02  0.19999997140E+01 0.  0.
         13    1    3    3    0    0  0.91511077777E+01  0.18157498249E+02 -0.96065477041E+02  0.98193811207E+02  0.10566000000E+00 0. -1.
         13    1    4    4    0    0 -0.41364112241E+01 -0.91794277754E+01  0.38478350217E+01  0.10779090430E+02  0.10566000000E+00 0. -1.
        -13    1    4    4    0    0 -0.46455506348E+01 -0.77575666326E+01  0.29273008065E+01  0.95048006190E+01  0.10566000000E+00 0.  1.
         14    1    4    4    0    0 -0.36914591877E+00 -0.12205038406E+01  0.12548015888E+00  0.12812664066E+01  0.00000000000E+00 0. -1.
<mgrwt>
<rscale>  0 0.79948972E+02</rscale>
<asrwt>0</asrwt>
<pdfrwt beam="1">  1        1 0.16071063E-01 0.79948972E+02</pdfrwt>
<pdfrwt beam="2">  1       -2 0.23533929E-02 0.79948972E+02</pdfrwt>
<totfact> 0.14833475E+05</totfact>
</mgrwt>
</event>
<event>
 8    1  0.8247621E-018  0.7971326E+02  0.7818608E-02  0.1329867E+00
          1   -1    0    0  501    0  0.00000000000E+00  0.00000000000E+00  0.11348639628E+02  0.11348640748E+02  0.50400000000E-02 0. -1.
         -2   -1    0    0    0  501 -0.00000000000E+00 -0.00000000000E+00 -0.13997720495E+03  0.13997720497E+03  0.25500000000E-02 0.  1.
        -24    2    1    2    0    0  0.00000000000E+00  0.00000000000E+00 -0.12862856532E+03  0.15132584572E+03  0.79713259664E+02 0.  0.
         66    2    3    3    0    0 -0.33765112527E+02 -0.81024339667E+01 -0.10140044379E+03  0.10719973070E+03  0.20000005439E+01 0.  0.
         13    1    3    3    0    0  0.33765112527E+02  0.81024339667E+01 -0.27228121530E+02  0.44126115014E+02  0.10566000000E+00 0. -1.
         13    1    4    4    0    0 -0.15532341282E+02 -0.41107987076E+01 -0.44651707792E+02  0.47454593713E+02  0.10566000000E+00 0. -1.
        -13    1    4    4    0    0 -0.17266161835E+02 -0.39552754555E+01 -0.54007670758E+02  0.56838404386E+02  0.10566000000E+00 0.  1.
         14    1    4    4    0    0 -0.96660941029E+00 -0.36359803622E-01 -0.27410652391E+01  0.29067326042E+01  0.00000000000E+00 0. -1.
<mgrwt>
<rscale>  0 0.79713260E+02</rscale>
<asrwt>0</asrwt>
<pdfrwt beam="1">  1        1 0.17459447E-02 0.79713260E+02</pdfrwt>
<pdfrwt beam="2">  1       -2 0.21534953E-01 0.79713260E+02</pdfrwt>
<totfact> 0.97526012E+04</totfact>
</mgrwt>
</event>
<event>
 8    1  0.8247621E-018  0.8203530E+02  0.7818608E-02  0.1323373E+00
         -2   -1    0    0    0  501 -0.00000000000E+00  0.00000000000E+00  0.17699498395E+02  0.17699498579E+02  0.25500000000E-02 0.  1.
          1   -1    0    0  501    0  0.00000000000E+00 -0.00000000000E+00 -0.95056239069E+02  0.95056239203E+02  0.50400000000E-02 0. -1.
        -24    2    1    2    0    0 -0.71054273576E-14  0.00000000000E+00 -0.77356740674E+02  0.11275573778E+03  0.82035303833E+02 0.  0.
         66    2    3    3    0    0 -0.34362232461E+02  0.17771519462E+02 -0.57338168568E+02  0.69197221773E+02  0.20000006774E+01 0.  0.
         13    1    3    3    0    0  0.34362232461E+02 -0.17771519462E+02 -0.20018572106E+02  0.43558516009E+02  0.10566000000E+00 0. -1.
         13    1    4    4    0    0 -0.61648837157E+01  0.38776610515E+01 -0.11004588286E+02  0.13196748609E+02  0.10566000000E+00 0. -1.
        -13    1    4    4    0    0 -0.23775305545E+02  0.11599359746E+02 -0.39634082351E+02  0.47651673089E+02  0.10566000000E+00 0.  1.
         14    1    4    4    0    0 -0.44220432001E+01  0.22944986645E+01 -0.66994979307E+01  0.83488000760E+01  0.00000000000E+00 0. -1.
<mgrwt>
<rscale>  0 0.82035304E+02</rscale>
<asrwt>0</asrwt>
<pdfrwt beam="1">  1        1 0.14624037E-01 0.82035304E+02</pdfrwt>
<pdfrwt beam="2">  1       -2 0.27229998E-02 0.82035304E+02</pdfrwt>
<totfact> 0.13615125E+05</totfact>
</mgrwt>
</event>
<event>
 8    1  0.8247621E-018  0.7970239E+02  0.7818608E-02  0.1329898E+00
         -2   -1    0    0    0  501 -0.00000000000E+00  0.00000000000E+00  0.17113324987E+02  0.17113325177E+02  0.25500000000E-02 0.  1.
          1   -1    0    0  501    0  0.00000000000E+00 -0.00000000000E+00 -0.92800061241E+02  0.92800061378E+02  0.50400000000E-02 0. -1.
        -24    2    1    2    0    0  0.00000000000E+00  0.00000000000E+00 -0.75686736254E+02  0.10991338656E+03  0.79702387037E+02 0.  0.
         66    2    3    3    0    0 -0.27718571977E+02  0.27704610361E+02 -0.47642622954E+02  0.61722639285E+02  0.20000026682E+01 0.  0.
         13    1    3    3    0    0  0.27718571977E+02 -0.27704610361E+02 -0.28044113299E+02  0.48190747270E+02  0.10566000000E+00 0. -1.
         13    1    4    4    0    0 -0.11233125496E+02  0.10648018158E+02 -0.19532465513E+02  0.24921712866E+02  0.10566000000E+00 0. -1.
        -13    1    4    4    0    0 -0.10960194075E+02  0.11886959758E+02 -0.19766737893E+02  0.25537438349E+02  0.10566000000E+00 0.  1.
         14    1    4    4    0    0 -0.55252524049E+01  0.51696324449E+01 -0.83434195489E+01  0.11263488071E+02  0.00000000000E+00 0. -1.
<mgrwt>
<rscale>  0 0.79702387E+02</rscale>
<asrwt>0</asrwt>
<pdfrwt beam="1">  1        1 0.14276932E-01 0.79702387E+02</pdfrwt>
<pdfrwt beam="2">  1       -2 0.26328193E-02 0.79702387E+02</pdfrwt>
<totfact> 0.14664259E+05</totfact>
</mgrwt>
</event>
<event>
 8    1  0.8247621E-018  0.8075608E+02  0.7818608E-02  0.1326919E+00
          1   -1    0    0  501    0  0.00000000000E+00  0.00000000000E+00  0.41231493289E+02  0.41231493597E+02  0.50400000000E-02 0. -1.
         -2   -1    0    0    0  501 -0.00000000000E+00 -0.00000000000E+00 -0.39542253626E+02  0.39542253708E+02  0.25500000000E-02 0.  1.
        -24    2    1    2    0    0  0.00000000000E+00  0.35527136788E-14  0.16892396635E+01  0.80773747305E+02  0.80756081648E+02 0.  0.
         66    2    3    3    0    0 -0.52206248991E+01  0.27540295325E+02 -0.28189792971E+02  0.39804361831E+02  0.20000005333E+01 0.  0.
         13    1    3    3    0    0  0.52206248991E+01 -0.27540295325E+02  0.29879032634E+02  0.40969385474E+02  0.10566000000E+00 0. -1.
         13    1    4    4    0    0 -0.12209075834E+01  0.79093941177E+01 -0.78531653669E+01  0.11213050475E+02  0.10566000000E+00 0. -1.
        -13    1    4    4    0    0 -0.41303806035E+01  0.18827925847E+02 -0.19352951280E+02  0.27314807759E+02  0.10566000000E+00 0.  1.
        -14    1    4    4    0    0  0.13066328780E+00  0.80297536020E+00 -0.98367632361E+00  0.12765035971E+01  0.00000000000E+00 0.  1.
<mgrwt>
<rscale>  0 0.80756082E+02</rscale>
<asrwt>0</asrwt>
<pdfrwt beam="1">  1        1 0.63433067E-02 0.80756082E+02</pdfrwt>
<pdfrwt beam="2">  1       -2 0.60834237E-02 0.80756082E+02</pdfrwt>
<totfact> 0.12426634E+05</totfact>
</mgrwt>
</event>
<event>
 8    1  0.8247621E-018  0.8006940E+02  0.7818608E-02  0.1328855E+00
         -2   -1    0    0    0  501 -0.00000000000E+00  0.00000000000E+00  0.10341035838E+03  0.10341035842E+03  0.25500000000E-02 0.  1.
          1   -1    0    0  501    0  0.00000000000E+00 -0.00000000000E+00 -0.15499194001E+02  0.15499194821E+02  0.50400000000E-02 0. -1.
        -24    2    1    2    0    0  0.00000000000E+00  0.00000000000E+00  0.87911164382E+02  0.11890955324E+03  0.80069401320E+02 0.  0.
         66    2    3    3    0    0 -0.51390930518E+00 -0.22674629620E+02  0.92931377713E+02  0.95679903280E+02  0.19999991990E+01 0.  0.
         13    1    3    3    0    0  0.51390930518E+00  0.22674629620E+02 -0.50202133309E+01  0.23229649956E+02  0.10566000000E+00 0. -1.
         13    1    4    4    0    0 -0.93644205392E-01 -0.66402047376E+01  0.24269042591E+02  0.25161452274E+02  0.10566000000E+00 0. -1.
        -13    1    4    4    0    0  0.16316899007E+00 -0.10578538065E+02  0.46081985629E+02  0.47280996766E+02  0.10566000000E+00 0.  1.
        -14    1    4    4    0    0 -0.58343408986E+00 -0.54558868170E+01  0.22580349493E+02  0.23237454239E+02  0.00000000000E+00 0.  1.
<mgrwt>
<rscale>  0 0.80069401E+02</rscale>
<asrwt>0</asrwt>
<pdfrwt beam="1">  1        1 0.23844915E-02 0.80069401E+02</pdfrwt>
<pdfrwt beam="2">  1       -2 0.15909286E-01 0.80069401E+02</pdfrwt>
<totfact> 0.10500476E+05</totfact>
</mgrwt>
</event>
<event>
 8    1  0.8247621E-018  0.8109584E+02  0.7818608E-02  0.1325970E+00
          1   -1    0    0  501    0  0.00000000000E+00  0.00000000000E+00  0.10057924761E+03  0.10057924773E+03  0.50400000000E-02 0. -1.
         -2   -1    0    0    0  501 -0.00000000000E+00 -0.00000000000E+00 -0.16346651247E+02  0.16346651446E+02  0.25500000000E-02 0.  1.
        -24    2    1    2    0    0  0.88817841970E-15  0.00000000000E+00  0.84232596362E+02  0.11692589918E+03  0.81095842121E+02 0.  0.
         66    2    3    3    0    0 -0.50662376802E+01  0.34440285247E+02  0.12232119446E+02  0.36951654250E+02  0.19999983928E+01 0.  0.
         13    1    3    3    0    0  0.50662376802E+01 -0.34440285247E+02  0.72000476915E+02  0.79974244930E+02  0.10566000000E+00 0. -1.
         13    1    4    4    0    0 -0.24843606624E+00  0.31064807941E+01  0.14628580311E+01  0.34442794687E+01  0.10566000000E+00 0. -1.
        -13    1    4    4    0    0 -0.95353241625E+00  0.99977517346E+01  0.36147989265E+01  0.10674371135E+02  0.10566000000E+00 0.  1.
        -14    1    4    4    0    0 -0.38642691978E+01  0.21336052718E+02  0.71544624887E+01  0.22833003647E+02  0.00000000000E+00 0.  1.
<mgrwt>
<rscale>  0 0.81095842E+02</rscale>
<asrwt>0</asrwt>
<pdfrwt beam="1">  1        1 0.15473731E-01 0.81095842E+02</pdfrwt>
<pdfrwt beam="2">  1       -2 0.25148694E-02 0.81095842E+02</pdfrwt>
<totfact> 0.14181865E+05</totfact>
</mgrwt>
</event>
<event>
 8    1  0.8247621E-018  0.7214765E+02  0.7818608E-02  0.1352938E+00
         -2   -1    0    0    0  501 -0.00000000000E+00  0.00000000000E+00  0.76730222514E+02  0.76730222556E+02  0.25500000000E-02 0.  1.
          1   -1    0    0  501    0  0.00000000000E+00 -0.00000000000E+00 -0.16959692141E+02  0.16959692890E+02  0.50400000000E-02 0. -1.
        -24    2    1    2    0    0  0.00000000000E+00  0.00000000000E+00  0.59770530373E+02  0.93689915446E+02  0.72147653844E+02 0.  0.
         66    2    3    3    0    0  0.28977446873E+01 -0.14567253615E+02  0.72558640837E+02  0.74090202809E+02  0.19999975190E+01 0.  0.
         13    1    3    3    0    0 -0.28977446873E+01  0.14567253615E+02 -0.12788110464E+02  0.19599712636E+02  0.10566000000E+00 0. -1.
         13    1    4    4    0    0 -0.39606824705E-01 -0.35345779937E+00  0.14349641131E+01  0.14821562528E+01  0.10566000000E+00 0.  1.
        -13    1    4    4    0    0  0.24363717903E+01 -0.12816788898E+02  0.65822286780E+02  0.67102835903E+02  0.10566000000E+00 0.  1.
        -14    1    4    4    0    0  0.50097972172E+00 -0.13970069178E+01  0.53013899435E+01  0.55052106539E+01  0.00000000000E+00 0.  1.
<mgrwt>
<rscale>  0 0.72147654E+02</rscale>
<asrwt>0</asrwt>
<pdfrwt beam="1">  1        1 0.26091835E-02 0.72147654E+02</pdfrwt>
<pdfrwt beam="2">  1       -2 0.11804650E-01 0.72147654E+02</pdfrwt>
<totfact> 0.14658064E+05</totfact>
</mgrwt>
</event>
<event>
 8    1  0.8247621E-018  0.8057212E+02  0.7818608E-02  0.1327436E+00
         -2   -1    0    0    0  501 -0.00000000000E+00  0.00000000000E+00  0.24257904357E+03  0.24257904359E+03  0.25500000000E-02 0.  1.
          1   -1    0    0  501    0  0.00000000000E+00 -0.00000000000E+00 -0.66904639447E+01  0.66904658430E+01  0.50400000000E-02 0. -1.
        -24    2    1    2    0    0  0.71054273576E-14  0.00000000000E+00  0.23588857963E+03  0.24926950943E+03  0.80572118826E+02 0.  0.
         66    2    3    3    0    0 -0.20239908920E+02  0.33148877481E+02  0.15082498006E+03  0.15575839176E+03  0.20000009171E+01 0.  0.
         13    1    3    3    0    0  0.20239908920E+02 -0.33148877481E+02  0.85063599569E+02  0.93511117666E+02  0.10566000000E+00 0. -1.
         13    1    4    4    0    0 -0.15925130528E+01  0.30081682870E+01  0.12000809583E+02  0.12474604962E+02  0.10566000000E+00 0. -1.
        -13    1    4    4    0    0 -0.11045610980E+02  0.19117291368E+02  0.86570558204E+02  0.89341754308E+02  0.10566000000E+00 0.  1.
         14    1    4    4    0    0 -0.76017848870E+01  0.11023417826E+02  0.52253612272E+02  0.53942032493E+02  0.00000000000E+00 0. -1.
<mgrwt>
<rscale>  0 0.80572119E+02</rscale>
<asrwt>0</asrwt>
<pdfrwt beam="1">  1        1 0.10293022E-02 0.80572119E+02</pdfrwt>
<pdfrwt beam="2">  1       -2 0.37319856E-01 0.80572119E+02</pdfrwt>
<totfact> 0.76792424E+04</totfact>
</mgrwt>
</event>
<event>
 8    1  0.8247621E-018  0.7994893E+02  0.7818608E-02  0.1329196E+00
         -2   -1    0    0    0  501 -0.00000000000E+00  0.00000000000E+00  0.25238388764E+02  0.25238388893E+02  0.25500000000E-02 0.  1.
          1   -1    0    0  501    0  0.00000000000E+00 -0.00000000000E+00 -0.63314570297E+02  0.63314570497E+02  0.50400000000E-02 0. -1.
        -24    2    1    2    0    0 -0.35527136788E-14  0.00000000000E+00 -0.38076181533E+02  0.88552959390E+02  0.79948927551E+02 0.  0.
         66    2    3    3    0    0  0.22524960862E+02  0.44845116817E+01  0.17155250406E+02  0.28736515623E+02  0.20000017086E+01 0.  0.
         13    1    3    3    0    0 -0.22524960862E+02 -0.44845116817E+01 -0.55231431939E+02  0.59816443767E+02  0.10566000000E+00 0. -1.
         13    1    4    4    0    0  0.15843429662E+02  0.30973574260E+01  0.12987871372E+02  0.20719648966E+02  0.10566000000E+00 0. -1.
        -13    1    4    4    0    0  0.30784249574E+01  0.53073386283E+00  0.22093229666E+01  0.38276168379E+01  0.10566000000E+00 0.  1.
         14    1    4    4    0    0  0.36031062427E+01  0.85642039288E+00  0.19580560669E+01  0.41892498191E+01  0.00000000000E+00 0. -1.
<mgrwt>
<rscale>  0 0.79948928E+02</rscale>
<asrwt>0</asrwt>
<pdfrwt beam="1">  1        1 0.97407031E-02 0.79948928E+02</pdfrwt>
<pdfrwt beam="2">  1       -2 0.38828291E-02 0.79948928E+02</pdfrwt>
<totfact> 0.13677021E+05</totfact>
</mgrwt>
</event>
<event>
 8    1  0.8247621E-018  0.7882470E+02  0.7818608E-02  0.1332420E+00
          1   -1    0    0  501    0  0.00000000000E+00  0.00000000000E+00  0.12475087631E+03  0.12475087641E+03  0.50400000000E-02 0. -1.
         -2   -1    0    0    0  501 -0.00000000000E+00 -0.00000000000E+00 -0.12451481843E+02  0.12451482104E+02  0.25500000000E-02 0.  1.
        -24    2    1    2    0    0 -0.44408920985E-15  0.00000000000E+00  0.11229939447E+03  0.13720235851E+03  0.78824699077E+02 0.  0.
         66    2    3    3    0    0 -0.20747150218E+01  0.25604661177E+02  0.42170603402E+01  0.26109130861E+02  0.19999999976E+01 0.  0.
         13    1    3    3    0    0  0.20747150218E+01 -0.25604661177E+02  0.10808233413E+03  0.11109322765E+03  0.10566000000E+00 0. -1.
         13    1    4    4    0    0 -0.10600240921E+01  0.56613499442E+01  0.12712918692E+01  0.58993119361E+01  0.10566000000E+00 0. -1.
        -13    1    4    4    0    0  0.57310073411E-01  0.64509182740E+01  0.12018505862E+01  0.65630206376E+01  0.10566000000E+00 0.  1.
         14    1    4    4    0    0 -0.10720010031E+01  0.13492392959E+02  0.17439178848E+01  0.13646798287E+02  0.00000000000E+00 0. -1.
<mgrwt>
<rscale>  0 0.78824699E+02</rscale>
<asrwt>0</asrwt>
<pdfrwt beam="1">  1        1 0.19192443E-01 0.78824699E+02</pdfrwt>
<pdfrwt beam="2">  1       -2 0.19156126E-02 0.78824699E+02</pdfrwt>
<totfact> 0.15888988E+05</totfact>
</mgrwt>
</event>
<event>
 8    1  0.8247621E-018  0.7957657E+02  0.7818608E-02  0.1330257E+00
         -2   -1    0    0    0  501 -0.00000000000E+00  0.00000000000E+00  0.94502707780E+01  0.94502711220E+01  0.25500000000E-02 0.  1.
          1   -1    0    0  501    0  0.00000000000E+00 -0.00000000000E+00 -0.16751979814E+03  0.16751979821E+03  0.50400000000E-02 0. -1.
        -24    2    1    2    0    0  0.00000000000E+00  0.00000000000E+00 -0.15806952736E+03  0.17697006933E+03  0.79576566657E+02 0.  0.
         66    2    3    3    0    0 -0.34806492181E+02 -0.11764590727E+02 -0.11289985058E+03  0.11874457357E+03  0.19999995333E+01 0.  0.
         13    1    3    3    0    0  0.34806492181E+02  0.11764590727E+02 -0.45169676780E+02  0.58225495768E+02  0.10566000000E+00 0. -1.
         13    1    4    4    0    0 -0.47192163683E+00 -0.22642573153E+00 -0.21783660578E+01  0.22428600849E+01  0.10566000000E+00 0. -1.
        -13    1    4    4    0    0 -0.98497905729E+01 -0.31652882642E+01 -0.30006178793E+02  0.31739870099E+02  0.10566000000E+00 0.  1.
         14    1    4    4    0    0 -0.24484779971E+02 -0.83728767312E+01 -0.80715305728E+02  0.84761843383E+02  0.00000000000E+00 0. -1.
<mgrwt>
<rscale>  0 0.79576567E+02</rscale>
<asrwt>0</asrwt>
<pdfrwt beam="1">  1        1 0.25772274E-01 0.79576567E+02</pdfrwt>
<pdfrwt beam="2">  1       -2 0.14538880E-02 0.79576567E+02</pdfrwt>
<totfact> 0.16346605E+05</totfact>
</mgrwt>
</event>
<event>
 8    1  0.8247621E-018  0.7936452E+02  0.7818608E-02  0.1330865E+00
         -2   -1    0    0    0  501 -0.00000000000E+00  0.00000000000E+00  0.17331493132E+03  0.17331493134E+03  0.25500000000E-02 0.  1.
          1   -1    0    0  501    0  0.00000000000E+00 -0.00000000000E+00 -0.90856654823E+01  0.90856668802E+01  0.50400000000E-02 0. -1.
        -24    2    1    2    0    0  0.00000000000E+00  0.00000000000E+00  0.16422926584E+03  0.18240059822E+03  0.79364516462E+02 0.  0.
         66    2    3    3    0    0  0.10365994033E+02 -0.21196494609E+01  0.17000512115E+03  0.17034578944E+03  0.20000042205E+01 0.  0.
         13    1    3    3    0    0 -0.10365994033E+02  0.21196494609E+01 -0.57758553102E+01  0.12054808780E+02  0.10566000000E+00 0. -1.
         13    1    4    4    0    0  0.99673511850E+00 -0.52462649555E-01  0.23578547378E+02  0.23599900290E+02  0.10566000000E+00 0. -1.
        -13    1    4    4    0    0  0.23522048176E+01 -0.34728660151E+00  0.44482804733E+02  0.44546431467E+02  0.10566000000E+00 0.  1.
        -14    1    4    4    0    0  0.70170540969E+01 -0.17199002099E+01  0.10194376904E+03  0.10219945769E+03  0.00000000000E+00 0.  1.
<mgrwt>
<rscale>  0 0.79364516E+02</rscale>
<asrwt>0</asrwt>
<pdfrwt beam="1">  1        1 0.13977948E-02 0.79364516E+02</pdfrwt>
<pdfrwt beam="2">  1       -2 0.26663837E-01 0.79364516E+02</pdfrwt>
<totfact> 0.91766197E+04</totfact>
</mgrwt>
</event>
<event>
 8    1  0.8247621E-018  0.7938186E+02  0.7818608E-02  0.1330815E+00
         -2   -1    0    0    0  501 -0.00000000000E+00  0.00000000000E+00  0.89514584916E+02  0.89514584953E+02  0.25500000000E-02 0.  1.
          1   -1    0    0  501    0  0.00000000000E+00 -0.00000000000E+00 -0.17599031251E+02  0.17599031973E+02  0.50400000000E-02 0. -1.
        -24    2    1    2    0    0  0.00000000000E+00  0.00000000000E+00  0.71915553665E+02  0.10711361693E+03  0.79381862361E+02 0.  0.
         66    2    3    3    0    0  0.15109089380E+02  0.33544914301E+02  0.55986351007E+02  0.67022514188E+02  0.20000128988E+01 0.  0.
         13    1    3    3    0    0 -0.15109089380E+02 -0.33544914301E+02  0.15929202658E+02  0.40091102738E+02  0.10566000000E+00 0. -1.
         13    1    4    4    0    0  0.23870069095E+01  0.53438571722E+01  0.10052061085E+02  0.11632270094E+02  0.10566000000E+00 0. -1.
        -13    1    4    4    0    0  0.23719757720E+01  0.55676166045E+01  0.83591053789E+01  0.10320389067E+02  0.10566000000E+00 0.  1.
         14    1    4    4    0    0  0.10350106698E+02  0.22633440525E+02  0.37575184543E+02  0.45069855027E+02  0.00000000000E+00 0. -1.
<mgrwt>
<rscale>  0 0.79381862E+02</rscale>
<asrwt>0</asrwt>
<pdfrwt beam="1">  1        1 0.27075434E-02 0.79381862E+02</pdfrwt>
<pdfrwt beam="2">  1       -2 0.13771474E-01 0.79381862E+02</pdfrwt>
<totfact> 0.11116562E+05</totfact>
</mgrwt>
</event>
<event>
 8    1  0.8247621E-018  0.8006730E+02  0.7818608E-02  0.1328861E+00
          1   -1    0    0  501    0  0.00000000000E+00  0.00000000000E+00  0.92624996969E+01  0.92625010681E+01  0.50400000000E-02 0. -1.
         -2   -1    0    0    0  501 -0.00000000000E+00 -0.00000000000E+00 -0.17303029699E+03  0.17303029701E+03  0.25500000000E-02 0.  1.
        -24    2    1    2    0    0  0.00000000000E+00  0.00000000000E+00 -0.16376779729E+03  0.18229279808E+03  0.80067301694E+02 0.  0.
         66    2    3    3    0    0 -0.12194551612E+02  0.70271484442E+01 -0.16720190723E+03  0.16780514198E+03  0.19999967719E+01 0.  0.
         13    1    3    3    0    0  0.12194551612E+02 -0.70271484442E+01  0.34341099369E+01  0.14487656103E+02  0.10566000000E+00 0. -1.
         13    1    4    4    0    0 -0.17424669977E+01  0.16125304358E+01 -0.28335708179E+02  0.28435188898E+02  0.10566000000E+00 0.  1.
        -13    1    4    4    0    0 -0.89471232827E+01  0.41257962651E+01 -0.11414946447E+03  0.11457392641E+03  0.10566000000E+00 0. -1.
         14    1    4    4    0    0 -0.15049613317E+01  0.12888217434E+01 -0.24716734583E+02  0.24796026668E+02  0.00000000000E+00 0. -1.
<mgrwt>
<rscale>  0 0.80067302E+02</rscale>
<asrwt>0</asrwt>
<pdfrwt beam="1">  1        1 0.14250002E-02 0.80067302E+02</pdfrwt>
<pdfrwt beam="2">  1       -2 0.26620043E-01 0.80067302E+02</pdfrwt>
<totfact> 0.89758930E+04</totfact>
</mgrwt>
</event>
<event>
 8    1  0.8247621E-018  0.8110521E+02  0.7818608E-02  0.1325944E+00
          1   -1    0    0  501    0  0.00000000000E+00  0.00000000000E+00  0.26728183712E+03  0.26728183717E+03  0.50400000000E-02 0. -1.
         -2   -1    0    0    0  501 -0.00000000000E+00 -0.00000000000E+00 -0.61527323539E+01  0.61527328823E+01  0.25500000000E-02 0.  1.
        -24    2    1    2    0    0 -0.44408920985E-15  0.00000000000E+00  0.26112910477E+03  0.27343457005E+03  0.81105207862E+02 0.  0.
         66    2    3    3    0    0 -0.29966922425E+01  0.37948641886E+02  0.83755303189E+02  0.92021901707E+02  0.19999990238E+01 0.  0.
         13    1    3    3    0    0  0.29966922425E+01 -0.37948641886E+02  0.17737380158E+03  0.18141266834E+03  0.10566000000E+00 0. -1.
         13    1    4    4    0    0 -0.15938614858E+01  0.23311426055E+02  0.50652923395E+02  0.55782549168E+02  0.10566000000E+00 0.  1.
        -13    1    4    4    0    0  0.42659143745E-01  0.40345500442E+01  0.84326618870E+01  0.93488162030E+01  0.10566000000E+00 0. -1.
        -14    1    4    4    0    0 -0.14454899004E+01  0.10602665787E+02  0.24669717907E+02  0.26890536336E+02  0.00000000000E+00 0.  1.
<mgrwt>
<rscale>  0 0.81105208E+02</rscale>
<asrwt>0</asrwt>
<pdfrwt beam="1">  1        1 0.41120287E-01 0.81105208E+02</pdfrwt>
<pdfrwt beam="2">  1       -2 0.94657416E-03 0.81105208E+02</pdfrwt>
<totfact> 0.17015599E+05</totfact>
</mgrwt>
</event>
<event>
 8    1  0.8247621E-018  0.7894857E+02  0.7818608E-02  0.1332062E+00
          1   -1    0    0  501    0  0.00000000000E+00  0.00000000000E+00  0.36815611049E+01  0.36815645548E+01  0.50400000000E-02 0. -1.
         -2   -1    0    0    0  501 -0.00000000000E+00 -0.00000000000E+00 -0.42324940161E+03  0.42324940162E+03  0.25500000000E-02 0.  1.
        -24    2    1    2    0    0  0.00000000000E+00  0.00000000000E+00 -0.41956784051E+03  0.42693096617E+03  0.78948572443E+02 0.  0.
         66    2    3    3    0    0  0.19054319093E+02 -0.12743435143E+02 -0.38353447328E+03  0.38422409398E+03  0.19999951031E+01 0.  0.
         13    1    3    3    0    0 -0.19054319093E+02  0.12743435143E+02 -0.36033367222E+02  0.42706872196E+02  0.10566000000E+00 0. -1.
         13    1    4    4    0    0  0.44943901652E+00 -0.32733190208E+00 -0.71652485884E+01  0.71875651630E+01  0.10566000000E+00 0. -1.
        -13    1    4    4    0    0  0.13006340259E+02 -0.95207706847E+01 -0.26979637987E+03  0.27027746432E+03  0.10566000000E+00 0.  1.
        -14    1    4    4    0    0  0.55985398175E+01 -0.28953325564E+01 -0.10657284482E+03  0.10675906450E+03  0.00000000000E+00 0.  1.
<mgrwt>
<rscale>  0 0.78948572E+02</rscale>
<asrwt>0</asrwt>
<pdfrwt beam="1">  1        1 0.56639462E-03 0.78948572E+02</pdfrwt>
<pdfrwt beam="2">  1       -2 0.65115254E-01 0.78948572E+02</pdfrwt>
<totfact> 0.58857884E+04</totfact>
</mgrwt>
</event>
<event>
 8    1  0.8247621E-018  0.7895830E+02  0.7818608E-02  0.1332034E+00
          1   -1    0    0  501    0  0.00000000000E+00  0.00000000000E+00  0.22066784537E+02  0.22066785113E+02  0.50400000000E-02 0. -1.
         -2   -1    0    0    0  501 -0.00000000000E+00 -0.00000000000E+00 -0.70631198407E+02  0.70631198453E+02  0.25500000000E-02 0.  1.
        -24    2    1    2    0    0 -0.71054273576E-14  0.00000000000E+00 -0.48564413870E+02  0.92697983566E+02  0.78958304583E+02 0.  0.
         66    2    3    3    0    0  0.32910937568E+02  0.17501060767E+02 -0.39477565143E+02  0.54331345410E+02  0.20000012255E+01 0.  0.
         13    1    3    3    0    0 -0.32910937568E+02 -0.17501060767E+02 -0.90868487268E+01  0.38366638156E+02  0.10566000000E+00 0. -1.
         13    1    4    4    0    0  0.14337460761E+02  0.80739040263E+01 -0.16249086690E+02  0.23125628415E+02  0.10566000000E+00 0. -1.
        -13    1    4    4    0    0  0.17687552335E+02  0.88327978769E+01 -0.22098949127E+02  0.29652024257E+02  0.10566000000E+00 0.  1.
        -14    1    4    4    0    0  0.88592447185E+00  0.59435886346E+00 -0.11295293255E+01  0.15536927385E+01  0.00000000000E+00 0.  1.
<mgrwt>
<rscale>  0 0.78958305E+02</rscale>
<asrwt>0</asrwt>
<pdfrwt beam="1">  1        1 0.33948900E-02 0.78958305E+02</pdfrwt>
<pdfrwt beam="2">  1       -2 0.10866338E-01 0.78958305E+02</pdfrwt>
<totfact> 0.11858715E+05</totfact>
</mgrwt>
</event>
<event>
 8    1  0.8247621E-018  0.8116505E+02  0.7818608E-02  0.1325777E+00
         -2   -1    0    0    0  501 -0.00000000000E+00  0.00000000000E+00  0.94447449970E+01  0.94447453412E+01  0.25500000000E-02 0.  1.
          1   -1    0    0  501    0  0.00000000000E+00 -0.00000000000E+00 -0.17437646133E+03  0.17437646141E+03  0.50400000000E-02 0. -1.
        -24    2    1    2    0    0  0.00000000000E+00  0.00000000000E+00 -0.16493171634E+03  0.18382120675E+03  0.81165047875E+02 0.  0.
         66    2    3    3    0    0 -0.14969279315E+02  0.24343725420E+02 -0.17337245932E+02  0.33485465327E+02  0.20000002846E+01 0.  0.
         13    1    3    3    0    0  0.14969279315E+02 -0.24343725420E+02 -0.14759447041E+03  0.15033574142E+03  0.10566000000E+00 0. -1.
         13    1    4    4    0    0 -0.15118042982E+00  0.76723325849E+00 -0.35625134221E+00  0.86578371994E+00  0.10566000000E+00 0. -1.
        -13    1    4    4    0    0 -0.12116233196E+01  0.19131203267E+01 -0.12704652758E+01  0.25987124708E+01  0.10566000000E+00 0.  1.
        -14    1    4    4    0    0 -0.13606475565E+02  0.21663371834E+02 -0.15710529314E+02  0.30020969136E+02  0.00000000000E+00 0.  1.
<mgrwt>
<rscale>  0 0.81165048E+02</rscale>
<asrwt>0</asrwt>
<pdfrwt beam="1">  1        1 0.26827146E-01 0.81165048E+02</pdfrwt>
<pdfrwt beam="2">  1       -2 0.14530378E-02 0.81165048E+02</pdfrwt>
<totfact> 0.15625935E+05</totfact>
</mgrwt>
</event>
<event>
 8    1  0.8247621E-018  0.7880861E+02  0.7818608E-02  0.1332467E+00
         -2   -1    0    0    0  501 -0.00000000000E+00  0.00000000000E+00  0.67081688723E+01  0.67081693570E+01  0.25500000000E-02 0.  1.
          1   -1    0    0  501    0  0.00000000000E+00 -0.00000000000E+00 -0.23146396290E+03  0.23146396296E+03  0.50400000000E-02 0. -1.
        -24    2    1    2    0    0 -0.71054273576E-14 -0.22204460493E-15 -0.22475579403E+03  0.23817213231E+03  0.78808614130E+02 0.  0.
         66    2    3    3    0    0  0.33941028934E+02  0.13475824760E+01 -0.52242702767E+02  0.62346686930E+02  0.19999887589E+01 0.  0.
         13    1    3    3    0    0 -0.33941028934E+02 -0.13475824760E+01 -0.17251309126E+03  0.17582544538E+03  0.10566000000E+00 0. -1.
         13    1    4    4    0    0  0.11118028025E+02  0.58887336282E+00 -0.15633203182E+02  0.19192850876E+02  0.10566000000E+00 0. -1.
        -13    1    4    4    0    0  0.12563463022E+02  0.44910502732E+00 -0.20822957878E+02  0.24323836812E+02  0.10566000000E+00 0.  1.
         14    1    4    4    0    0  0.10259537887E+02  0.30960408587E+00 -0.15786541708E+02  0.18829999242E+02  0.00000000000E+00 0. -1.
<mgrwt>
<rscale>  0 0.78808614E+02</rscale>
<asrwt>0</asrwt>
<pdfrwt beam="1">  1        1 0.35609834E-01 0.78808614E+02</pdfrwt>
<pdfrwt beam="2">  1       -2 0.10320262E-02 0.78808614E+02</pdfrwt>
<totfact> 0.17850234E+05</totfact>
</mgrwt>
</event>
<event>
 8    1  0.8247621E-018  0.7912669E+02  0.7818608E-02  0.1331548E+00
          1   -1    0    0  501    0  0.00000000000E+00  0.00000000000E+00  0.94497335342E+01  0.94497348782E+01  0.50400000000E-02 0. -1.
         -2   -1    0    0    0  501 -0.00000000000E+00 -0.00000000000E+00 -0.16564045155E+03  0.16564045157E+03  0.25500000000E-02 0.  1.
        -24    2    1    2    0    0  0.00000000000E+00  0.00000000000E+00 -0.15619071802E+03  0.17509018645E+03  0.79126689530E+02 0.  0.
         66    2    3    3    0    0  0.42340289233E+01  0.14984315114E+02 -0.15856376312E+03  0.15933902117E+03  0.19999982492E+01 0.  0.
         13    1    3    3    0    0 -0.42340289233E+01 -0.14984315114E+02  0.23730451064E+01  0.15751165273E+02  0.10566000000E+00 0. -1.
         13    1    4    4    0    0  0.66827612669E+00  0.15044212545E+01 -0.18535722445E+02  0.18608977588E+02  0.10566000000E+00 0. -1.
        -13    1    4    4    0    0  0.20317728099E+01  0.10198551485E+02 -0.10682813787E+03  0.10733312983E+03  0.10566000000E+00 0.  1.
        -14    1    4    4    0    0  0.15339799867E+01  0.32813423749E+01 -0.33199902804E+02  0.33396913758E+02  0.00000000000E+00 0.  1.
<mgrwt>
<rscale>  0 0.79126690E+02</rscale>
<asrwt>0</asrwt>
<pdfrwt beam="1">  1        1 0.14538054E-02 0.79126690E+02</pdfrwt>
<pdfrwt beam="2">  1       -2 0.25483144E-01 0.79126690E+02</pdfrwt>
<totfact> 0.93991389E+04</totfact>
</mgrwt>
</event>
<event>
 8    1  0.8247621E-018  0.8238311E+02  0.7818608E-02  0.1322421E+00
         -2   -1    0    0    0  501 -0.00000000000E+00  0.00000000000E+00  0.44378946444E+02  0.44378946517E+02  0.25500000000E-02 0.  1.
          1   -1    0    0  501    0  0.00000000000E+00 -0.00000000000E+00 -0.38233093106E+02  0.38233093439E+02  0.50400000000E-02 0. -1.
        -24    2    1    2    0    0  0.44408920985E-15  0.00000000000E+00  0.61458533375E+01  0.82612039956E+02  0.82383114971E+02 0.  0.
         66    2    3    3    0    0 -0.20441857168E+01 -0.33215928373E+02  0.27375578495E+02  0.43138137346E+02  0.20000007118E+01 0.  0.
         13    1    3    3    0    0  0.20441857168E+01  0.33215928373E+02 -0.21229725158E+02  0.39473902609E+02  0.10566000000E+00 0. -1.
         13    1    4    4    0    0 -0.12757541136E+01 -0.10285284456E+02  0.85337734682E+01  0.13425761749E+02  0.10566000000E+00 0. -1.
        -13    1    4    4    0    0 -0.60519401130E+00 -0.11714219696E+02  0.89214931743E+01  0.14737483075E+02  0.10566000000E+00 0.  1.
        -14    1    4    4    0    0 -0.16323759188E+00 -0.11216424221E+02  0.99203118526E+01  0.14974892523E+02  0.00000000000E+00 0.  1.
<mgrwt>
<rscale>  0 0.82383115E+02</rscale>
<asrwt>0</asrwt>
<pdfrwt beam="1">  1        1 0.58820144E-02 0.82383115E+02</pdfrwt>
<pdfrwt beam="2">  1       -2 0.68275302E-02 0.82383115E+02</pdfrwt>
<totfact> 0.11598098E+05</totfact>
</mgrwt>
</event>
<event>
 8    1  0.8247621E-018  0.8024220E+02  0.7818608E-02  0.1328366E+00
         -2   -1    0    0    0  501 -0.00000000000E+00  0.00000000000E+00  0.79044746164E+01  0.79044750277E+01  0.25500000000E-02 0.  1.
          1   -1    0    0  501    0  0.00000000000E+00 -0.00000000000E+00 -0.20364445570E+03  0.20364445577E+03  0.50400000000E-02 0. -1.
        -24    2    1    2    0    0  0.35527136788E-14  0.00000000000E+00 -0.19573998109E+03  0.21154893079E+03  0.80242195408E+02 0.  0.
         66    2    3    3    0    0  0.22692918339E+02 -0.18089073182E+02 -0.24987436851E+02  0.38347817523E+02  0.19999992573E+01 0.  0.
         13    1    3    3    0    0 -0.22692918339E+02  0.18089073182E+02 -0.17075254424E+03  0.17320111327E+03  0.10566000000E+00 0. -1.
         13    1    4    4    0    0  0.13417172637E+01 -0.11958689742E+01 -0.19843145877E+01  0.26793611622E+01  0.10566000000E+00 0.  1.
        -13    1    4    4    0    0  0.79320004638E+01 -0.61365199457E+01 -0.76430878792E+01  0.12609578295E+02  0.10566000000E+00 0. -1.
        -14    1    4    4    0    0  0.13419200612E+02 -0.10756684262E+02 -0.15360034385E+02  0.23058878066E+02  0.00000000000E+00 0.  1.
<mgrwt>
<rscale>  0 0.80242195E+02</rscale>
<asrwt>0</asrwt>
<pdfrwt beam="1">  1        1 0.31329912E-01 0.80242195E+02</pdfrwt>
<pdfrwt beam="2">  1       -2 0.12160732E-02 0.80242195E+02</pdfrwt>
<totfact> 0.16598775E+05</totfact>
</mgrwt>
</event>
<event>
 8    1  0.8247621E-018  0.8179844E+02  0.7818608E-02  0.1324024E+00
          1   -1    0    0  501    0  0.00000000000E+00  0.00000000000E+00  0.20217224170E+03  0.20217224176E+03  0.50400000000E-02 0. -1.
         -2   -1    0    0    0  501 -0.00000000000E+00 -0.00000000000E+00 -0.82738662452E+01  0.82738666381E+01  0.25500000000E-02 0.  1.
        -24    2    1    2    0    0  0.00000000000E+00  0.17763568394E-14  0.19389837545E+03  0.21044610840E+03  0.81798438475E+02 0.  0.
         66    2    3    3    0    0 -0.35134114697E+02  0.10535135170E+02  0.14341239902E+03  0.14804226181E+03  0.20000001019E+01 0.  0.
         13    1    3    3    0    0  0.35134114697E+02 -0.10535135170E+02  0.50485976427E+02  0.62403846584E+02  0.10566000000E+00 0. -1.
         13    1    4    4    0    0 -0.10806996547E+01  0.32688775458E+00  0.55881566962E+01  0.57020545985E+01  0.10566000000E+00 0. -1.
        -13    1    4    4    0    0 -0.84794515994E+01  0.28204935104E+01  0.32977692615E+02  0.34167172217E+02  0.10566000000E+00 0.  1.
        -14    1    4    4    0    0 -0.25573963443E+02  0.73877539045E+01  0.10484654971E+03  0.10817303500E+03  0.00000000000E+00 0.  1.
<mgrwt>
<rscale>  0 0.81798438E+02</rscale>
<asrwt>0</asrwt>
<pdfrwt beam="1">  1        1 0.31103420E-01 0.81798438E+02</pdfrwt>
<pdfrwt beam="2">  1       -2 0.12729026E-02 0.81798438E+02</pdfrwt>
<totfact> 0.15750279E+05</totfact>
</mgrwt>
</event>
<event>
 8    1  0.8247621E-018  0.8035612E+02  0.7818608E-02  0.1328044E+00
         -2   -1    0    0    0  501 -0.00000000000E+00  0.00000000000E+00  0.21377645839E+02  0.21377645991E+02  0.25500000000E-02 0.  1.
          1   -1    0    0  501    0  0.00000000000E+00 -0.00000000000E+00 -0.75512358569E+02  0.75512358738E+02  0.50400000000E-02 0. -1.
        -24    2    1    2    0    0  0.00000000000E+00  0.00000000000E+00 -0.54134712731E+02  0.96890004728E+02  0.80356119206E+02 0.  0.
         66    2    3    3    0    0 -0.20313720694E+02 -0.13630257535E+01  0.14645702288E+02  0.25159524862E+02  0.20000020417E+01 0.  0.
         13    1    3    3    0    0  0.20313720694E+02  0.13630257535E+01 -0.68780415019E+02  0.71730479866E+02  0.10566000000E+00 0. -1.
         13    1    4    4    0    0 -0.77599105469E+01 -0.12224328268E+01  0.51960497514E+01  0.94191640164E+01  0.10566000000E+00 0. -1.
        -13    1    4    4    0    0 -0.88668558112E+01 -0.47027187961E+00  0.64351728511E+01  0.10966535518E+02  0.10566000000E+00 0.  1.
        -14    1    4    4    0    0 -0.36869543356E+01  0.32967895295E+00  0.30144796853E+01  0.47738253275E+01  0.00000000000E+00 0.  1.
<mgrwt>
<rscale>  0 0.80356119E+02</rscale>
<asrwt>0</asrwt>
<pdfrwt beam="1">  1        1 0.11617286E-01 0.80356119E+02</pdfrwt>
<pdfrwt beam="2">  1       -2 0.32888686E-02 0.80356119E+02</pdfrwt>
<totfact> 0.13869539E+05</totfact>
</mgrwt>
</event>
<event>
 8    1  0.8247621E-018  0.7933111E+02  0.7818608E-02  0.1330960E+00
         -2   -1    0    0    0  501 -0.00000000000E+00  0.00000000000E+00  0.23583090023E+03  0.23583090025E+03  0.25500000000E-02 0.  1.
          1   -1    0    0  501    0  0.00000000000E+00 -0.00000000000E+00 -0.66715429272E+01  0.66715448309E+01  0.50400000000E-02 0. -1.
        -24    2    1    2    0    0  0.00000000000E+00  0.00000000000E+00  0.22915935731E+03  0.24250244508E+03  0.79331108828E+02 0.  0.
         66    2    3    3    0    0 -0.94128981967E+00 -0.37154626527E+02  0.15678780586E+03  0.16114517791E+03  0.19999993089E+01 0.  0.
         13    1    3    3    0    0  0.94128981967E+00  0.37154626527E+02  0.72371551447E+02  0.81357267172E+02  0.10566000000E+00 0. -1.
         13    1    4    4    0    0 -0.40664672500E+00 -0.20014327780E+02  0.83917364043E+02  0.86272091837E+02  0.10566000000E+00 0. -1.
        -13    1    4    4    0    0 -0.33134910193E+00 -0.13144842631E+02  0.53316552642E+02  0.54914138704E+02  0.10566000000E+00 0.  1.
         14    1    4    4    0    0 -0.20329399273E+00 -0.39954561153E+01  0.19553889175E+02  0.19958947365E+02  0.00000000000E+00 0. -1.
<mgrwt>
<rscale>  0 0.79331109E+02</rscale>
<asrwt>0</asrwt>
<pdfrwt beam="1">  1        1 0.10263913E-02 0.79331109E+02</pdfrwt>
<pdfrwt beam="2">  1       -2 0.36281679E-01 0.79331109E+02</pdfrwt>
<totfact> 0.80980727E+04</totfact>
</mgrwt>
</event>
<event>
 8    1  0.8247621E-018  0.7919755E+02  0.7818608E-02  0.1331344E+00
          1   -1    0    0  501    0  0.00000000000E+00  0.00000000000E+00  0.13436460367E+03  0.13436460377E+03  0.50400000000E-02 0. -1.
         -2   -1    0    0    0  501 -0.00000000000E+00 -0.00000000000E+00 -0.11670208630E+02  0.11670208909E+02  0.25500000000E-02 0.  1.
        -24    2    1    2    0    0  0.00000000000E+00  0.00000000000E+00  0.12269439504E+03  0.14603481267E+03  0.79197550079E+02 0.  0.
         66    2    3    3    0    0 -0.16153430456E+02 -0.33956322423E+02  0.38645758552E+02  0.53957944745E+02  0.19999997713E+01 0.  0.
         13    1    3    3    0    0  0.16153430456E+02  0.33956322423E+02  0.84048636489E+02  0.92076867930E+02  0.10566000000E+00 0. -1.
         13    1    4    4    0    0 -0.78550944789E+01 -0.16275427535E+02  0.18745221882E+02  0.26038175016E+02  0.10566000000E+00 0.  1.
        -13    1    4    4    0    0 -0.81283647218E+01 -0.17551984935E+02  0.19812037043E+02  0.27688814782E+02  0.10566000000E+00 0. -1.
         14    1    4    4    0    0 -0.16997125553E+00 -0.12890995239E+00  0.88499626984E-01  0.23095494692E+00  0.00000000000E+00 0. -1.
<mgrwt>
<rscale>  0 0.79197550E+02</rscale>
<asrwt>0</asrwt>
<pdfrwt beam="1">  1        1 0.20671477E-01 0.79197550E+02</pdfrwt>
<pdfrwt beam="2">  1       -2 0.17954167E-02 0.79197550E+02</pdfrwt>
<totfact> 0.15898012E+05</totfact>
</mgrwt>
</event>
<event>
 8    1  0.8247621E-018  0.7961292E+02  0.7818608E-02  0.1330154E+00
         -2   -1    0    0    0  501 -0.00000000000E+00  0.00000000000E+00  0.11222580396E+03  0.11222580399E+03  0.25500000000E-02 0.  1.
          1   -1    0    0  501    0  0.00000000000E+00 -0.00000000000E+00 -0.14119338102E+02  0.14119339001E+02  0.50400000000E-02 0. -1.
        -24    2    1    2    0    0  0.00000000000E+00  0.00000000000E+00  0.98106465857E+02  0.12634514299E+03  0.79612916752E+02 0.  0.
         66    2    3    3    0    0  0.12010079117E+02 -0.33440573411E+02  0.77474660169E+02  0.85257474273E+02  0.20000001583E+01 0.  0.
         13    1    3    3    0    0 -0.12010079117E+02  0.33440573411E+02  0.20631805688E+02  0.41087668715E+02  0.10566000000E+00 0. -1.
         13    1    4    4    0    0  0.47506388951E+01 -0.12326822675E+02  0.30098216175E+02  0.32869939278E+02  0.10566000000E+00 0. -1.
        -13    1    4    4    0    0  0.51626925996E+01 -0.14972374129E+02  0.32310241722E+02  0.35983166427E+02  0.10566000000E+00 0.  1.
         14    1    4    4    0    0  0.20967476228E+01 -0.61413766074E+01  0.15066202271E+02  0.16404368568E+02  0.00000000000E+00 0. -1.
<mgrwt>
<rscale>  0 0.79612917E+02</rscale>
<asrwt>0</asrwt>
<pdfrwt beam="1">  1        1 0.21722060E-02 0.79612917E+02</pdfrwt>
<pdfrwt beam="2">  1       -2 0.17265508E-01 0.79612917E+02</pdfrwt>
<totfact> 0.10430719E+05</totfact>
</mgrwt>
</event>
<event>
 8    1  0.8247621E-018  0.7456291E+02  0.7818608E-02  0.1345230E+00
          1   -1    0    0  501    0  0.00000000000E+00  0.00000000000E+00  0.16340255912E+03  0.16340255920E+03  0.50400000000E-02 0. -1.
         -2   -1    0    0    0  501 -0.00000000000E+00 -0.00000000000E+00 -0.85060290941E+01  0.85060294763E+01  0.25500000000E-02 0.  1.
        -24    2    1    2    0    0  0.35527136788E-14 -0.35527136788E-14  0.15489653002E+03  0.17190858867E+03  0.74562911999E+02 0.  0.
         66    2    3    3    0    0 -0.25749444661E+02 -0.26081837411E+02  0.92902071630E+02  0.99890395285E+02  0.20000034890E+01 0.  0.
         13    1    3    3    0    0  0.25749444661E+02  0.26081837411E+02  0.61994458394E+02  0.72018193387E+02  0.10566000000E+00 0. -1.
         13    1    4    4    0    0 -0.23713936997E+01 -0.23750004780E+01  0.99163177973E+01  0.10469415363E+02  0.10566000000E+00 0.  1.
        -13    1    4    4    0    0 -0.16064217179E+02 -0.16382738123E+02  0.56000940967E+02  0.60519168329E+02  0.10566000000E+00 0.  1.
         14    1    4    4    0    0 -0.73138337823E+01 -0.73240988102E+01  0.26984812866E+02  0.28901811593E+02  0.00000000000E+00 0. -1.
<mgrwt>
<rscale>  0 0.74562912E+02</rscale>
<asrwt>0</asrwt>
<pdfrwt beam="1">  1        1 0.25138855E-01 0.74562912E+02</pdfrwt>
<pdfrwt beam="2">  1       -2 0.13086199E-02 0.74562912E+02</pdfrwt>
<totfact> 0.19337996E+05</totfact>
</mgrwt>
</event>
<event>
 8    1  0.8247621E-018  0.7990688E+02  0.7818608E-02  0.1329316E+00
         -2   -1    0    0    0  501 -0.00000000000E+00  0.00000000000E+00  0.22917158898E+02  0.22917159040E+02  0.25500000000E-02 0.  1.
          1   -1    0    0  501    0  0.00000000000E+00 -0.00000000000E+00 -0.69654247169E+02  0.69654247351E+02  0.50400000000E-02 0. -1.
        -24    2    1    2    0    0  0.00000000000E+00  0.00000000000E+00 -0.46737088271E+02  0.92571406391E+02  0.79906882439E+02 0.  0.
         66    2    3    3    0    0  0.11746429041E+02 -0.37850969573E+02 -0.17755449806E+02  0.43473330817E+02  0.20000004202E+01 0.  0.
         13    1    3    3    0    0 -0.11746429041E+02  0.37850969573E+02 -0.28981638465E+02  0.49098075574E+02  0.10566000000E+00 0. -1.
         13    1    4    4    0    0  0.30533999026E+01 -0.98690623895E+01 -0.51407115484E+01  0.11539485373E+02  0.10566000000E+00 0. -1.
        -13    1    4    4    0    0  0.23453961128E+01 -0.76236728892E+01 -0.27488201471E+01  0.84373246639E+01  0.10566000000E+00 0.  1.
        -14    1    4    4    0    0  0.63476330255E+01 -0.20358234295E+02 -0.98659181107E+01  0.23496520781E+02  0.00000000000E+00 0.  1.
<mgrwt>
<rscale>  0 0.79906882E+02</rscale>
<asrwt>0</asrwt>
<pdfrwt beam="1">  1        1 0.10716038E-01 0.79906882E+02</pdfrwt>
<pdfrwt beam="2">  1       -2 0.35257168E-02 0.79906882E+02</pdfrwt>
<totfact> 0.13904043E+05</totfact>
</mgrwt>
</event>
<event>
 8    1  0.8247621E-018  0.8029772E+02  0.7818608E-02  0.1328209E+00
          1   -1    0    0  501    0  0.00000000000E+00  0.00000000000E+00  0.13529541034E+03  0.13529541043E+03  0.50400000000E-02 0. -1.
         -2   -1    0    0    0  501 -0.00000000000E+00 -0.00000000000E+00 -0.11914159395E+02  0.11914159668E+02  0.25500000000E-02 0.  1.
        -24    2    1    2    0    0  0.00000000000E+00  0.35527136788E-14  0.12338125094E+03  0.14720957010E+03  0.80297723781E+02 0.  0.
         66    2    3    3    0    0 -0.35074578968E+01  0.31609507147E+02  0.16879926601E+02  0.36060991819E+02  0.20000014897E+01 0.  0.
         13    1    3    3    0    0  0.35074578968E+01 -0.31609507147E+02  0.10650132434E+03  0.11114857828E+03  0.10566000000E+00 0. -1.
         13    1    4    4    0    0 -0.32243865343E+00  0.50800888541E+01  0.25731686886E+01  0.57047024977E+01  0.10566000000E+00 0. -1.
        -13    1    4    4    0    0 -0.20429223586E+01  0.21235394996E+02  0.11919131902E+02  0.24437520367E+02  0.10566000000E+00 0.  1.
         14    1    4    4    0    0 -0.11420968847E+01  0.52940232972E+01  0.23876260108E+01  0.59187689542E+01  0.00000000000E+00 0. -1.
<mgrwt>
<rscale>  0 0.80297724E+02</rscale>
<asrwt>0</asrwt>
<pdfrwt beam="1">  1        1 0.20814679E-01 0.80297724E+02</pdfrwt>
<pdfrwt beam="2">  1       -2 0.18329476E-02 0.80297724E+02</pdfrwt>
<totfact> 0.15340410E+05</totfact>
</mgrwt>
</event>
<event>
 8    1  0.8247621E-018  0.8369706E+02  0.7818608E-02  0.1318875E+00
          1   -1    0    0  501    0  0.00000000000E+00  0.00000000000E+00  0.86053402296E+02  0.86053402444E+02  0.50400000000E-02 0. -1.
         -2   -1    0    0    0  501 -0.00000000000E+00 -0.00000000000E+00 -0.20351310268E+02  0.20351310428E+02  0.25500000000E-02 0.  1.
        -24    2    1    2    0    0  0.00000000000E+00  0.71054273576E-14  0.65702092028E+02  0.10640471287E+03  0.83697061026E+02 0.  0.
         66    2    3    3    0    0 -0.19251323065E+02  0.34972230822E+02  0.48729237492E+02  0.63025462953E+02  0.20000063598E+01 0.  0.
         13    1    3    3    0    0  0.19251323065E+02 -0.34972230822E+02  0.16972854536E+02  0.43379249919E+02  0.10566000000E+00 0. -1.
         13    1    4    4    0    0 -0.47634636128E+01  0.95669147961E+01  0.14039163244E+02  0.17644424415E+02  0.10566000000E+00 0. -1.
        -13    1    4    4    0    0 -0.34696625858E+01  0.55082452271E+01  0.74425134827E+01  0.98884526048E+01  0.10566000000E+00 0.  1.
        -14    1    4    4    0    0 -0.11018196866E+02  0.19897070799E+02  0.27247560766E+02  0.35492585933E+02  0.00000000000E+00 0.  1.
<mgrwt>
<rscale>  0 0.83697061E+02</rscale>
<asrwt>0</asrwt>
<pdfrwt beam="1">  1        1 0.13238985E-01 0.83697061E+02</pdfrwt>
<pdfrwt beam="2">  1       -2 0.31309707E-02 0.83697061E+02</pdfrwt>
<totfact> 0.12677085E+05</totfact>
</mgrwt>
</event>
<event>
 8    1  0.8247621E-018  0.7906444E+02  0.7818608E-02  0.1331728E+00
         -2   -1    0    0    0  501 -0.00000000000E+00  0.00000000000E+00  0.88263605371E+01  0.88263609055E+01  0.25500000000E-02 0.  1.
          1   -1    0    0  501    0  0.00000000000E+00 -0.00000000000E+00 -0.17706009185E+03  0.17706009192E+03  0.50400000000E-02 0. -1.
        -24    2    1    2    0    0  0.00000000000E+00  0.00000000000E+00 -0.16823373131E+03  0.18588645283E+03  0.79064435704E+02 0.  0.
         66    2    3    3    0    0  0.24931567445E+02  0.30637638364E+02 -0.82437488443E+02  0.91434060616E+02  0.20000000338E+01 0.  0.
         13    1    3    3    0    0 -0.24931567445E+02 -0.30637638364E+02 -0.85796242869E+02  0.94452392211E+02  0.10566000000E+00 0. -1.
         13    1    4    4    0    0  0.71249791936E+00  0.66737149853E+00 -0.16936373760E+01  0.19577051870E+01  0.10566000000E+00 0. -1.
        -13    1    4    4    0    0  0.72879238715E+00  0.72327293014E+00 -0.18538290624E+01  0.21218172172E+01  0.10566000000E+00 0. -1.
        -14    1    4    4    0    0  0.23490277139E+02  0.29246993935E+02 -0.78890022004E+02  0.87354538212E+02  0.00000000000E+00 0.  1.
<mgrwt>
<rscale>  0 0.79064436E+02</rscale>
<asrwt>0</asrwt>
<pdfrwt beam="1">  1        1 0.27240012E-01 0.79064436E+02</pdfrwt>
<pdfrwt beam="2">  1       -2 0.13579018E-02 0.79064436E+02</pdfrwt>
<totfact> 0.16804668E+05</totfact>
</mgrwt>
</event>
<event>
 8    1  0.8247621E-018  0.7745965E+02  0.7818608E-02  0.1336419E+00
         -2   -1    0    0    0  501 -0.00000000000E+00  0.00000000000E+00  0.50063284926E+02  0.50063284991E+02  0.25500000000E-02 0.  1.
          1   -1    0    0  501    0  0.00000000000E+00 -0.00000000000E+00 -0.29962065022E+02  0.29962065446E+02  0.50400000000E-02 0. -1.
        -24    2    1    2    0    0 -0.71054273576E-14  0.00000000000E+00  0.20101219903E+02  0.80025350437E+02  0.77459651890E+02 0.  0.
         66    2    3    3    0    0 -0.36090407325E+02  0.67717029831E+01  0.22694419352E+02  0.43213541060E+02  0.19999997536E+01 0.  0.
         13    1    3    3    0    0  0.36090407325E+02 -0.67717029831E+01 -0.25931994490E+01  0.36811809377E+02  0.10566000000E+00 0. -1.
         13    1    4    4    0    0 -0.11399292082E+02  0.22093654444E+01  0.79324014525E+01  0.14062692220E+02  0.10566000000E+00 0. -1.
        -13    1    4    4    0    0 -0.12488100962E+02  0.22900142312E+01  0.67867866739E+01  0.14396821462E+02  0.10566000000E+00 0.  1.
        -14    1    4    4    0    0 -0.12203014280E+02  0.22723233076E+01  0.79752312258E+01  0.14754027377E+02  0.00000000000E+00 0.  1.
<mgrwt>
<rscale>  0 0.77459652E+02</rscale>
<asrwt>0</asrwt>
<pdfrwt beam="1">  1        1 0.46095485E-02 0.77459652E+02</pdfrwt>
<pdfrwt beam="2">  1       -2 0.77020438E-02 0.77459652E+02</pdfrwt>
<totfact> 0.13263094E+05</totfact>
</mgrwt>
</event>
<event>
 8    1  0.8247621E-018  0.8059426E+02  0.7818608E-02  0.1327373E+00
          1   -1    0    0  501    0  0.00000000000E+00  0.00000000000E+00  0.40050352894E+01  0.40050384607E+01  0.50400000000E-02 0. -1.
         -2   -1    0    0    0  501 -0.00000000000E+00 -0.00000000000E+00 -0.40545416406E+03  0.40545416407E+03  0.25500000000E-02 0.  1.
        -24    2    1    2    0    0  0.00000000000E+00  0.35527136788E-14 -0.40144912877E+03  0.40945920253E+03  0.80594264962E+02 0.  0.
         66    2    3    3    0    0  0.17986858323E+02 -0.27757364478E+02 -0.31757287447E+03  0.31929692907E+03  0.19999904387E+01 0.  0.
         13    1    3    3    0    0 -0.17986858323E+02  0.27757364478E+02 -0.83876254308E+02  0.90162273463E+02  0.10566000000E+00 0. -1.
         13    1    4    4    0    0  0.33009418753E+01 -0.60300287968E+01 -0.71269645248E+02  0.71600495546E+02  0.10566000000E+00 0. -1.
        -13    1    4    4    0    0  0.78164285976E+01 -0.11359374009E+02 -0.13253441725E+03  0.13324982122E+03  0.10566000000E+00 0.  1.
        -14    1    4    4    0    0  0.68694878496E+01 -0.10367961672E+02 -0.11376881196E+03  0.11444661231E+03  0.00000000000E+00 0.  1.
<mgrwt>
<rscale>  0 0.80594265E+02</rscale>
<asrwt>0</asrwt>
<pdfrwt beam="1">  1        1 0.61615984E-03 0.80594265E+02</pdfrwt>
<pdfrwt beam="2">  1       -2 0.62377531E-01 0.80594265E+02</pdfrwt>
<totfact> 0.57453410E+04</totfact>
</mgrwt>
</event>
<event>
 8    1  0.8247621E-018  0.8001701E+02  0.7818608E-02  0.1329003E+00
         -2   -1    0    0    0  501 -0.00000000000E+00  0.00000000000E+00  0.31726774558E+02  0.31726774660E+02  0.25500000000E-02 0.  1.
          1   -1    0    0  501    0  0.00000000000E+00 -0.00000000000E+00 -0.50452037977E+02  0.50452038229E+02  0.50400000000E-02 0. -1.
        -24    2    1    2    0    0 -0.35527136788E-14  0.00000000000E+00 -0.18725263420E+02  0.82178812889E+02  0.80017009428E+02 0.  0.
         66    2    3    3    0    0  0.18263200798E+02  0.27704590118E+02  0.13540840129E+02  0.35894891067E+02  0.20000090931E+01 0.  0.
         13    1    3    3    0    0 -0.18263200798E+02 -0.27704590118E+02 -0.32266103548E+02  0.46283921822E+02  0.10566000000E+00 0. -1.
         13    1    4    4    0    0  0.46781502054E+01  0.67639494157E+01  0.30341208772E+01  0.87665930996E+01  0.10566000000E+00 0. -1.
        -13    1    4    4    0    0  0.91039396118E+01  0.12634688414E+02  0.65792223678E+01  0.16906046220E+02  0.10566000000E+00 0.  1.
         14    1    4    4    0    0  0.44811109804E+01  0.83059522882E+01  0.39274968835E+01  0.10222251748E+02  0.00000000000E+00 0. -1.
<mgrwt>
<rscale>  0 0.80017009E+02</rscale>
<asrwt>0</asrwt>
<pdfrwt beam="1">  1        1 0.77618521E-02 0.80017009E+02</pdfrwt>
<pdfrwt beam="2">  1       -2 0.48810422E-02 0.80017009E+02</pdfrwt>
<totfact> 0.13167956E+05</totfact>
</mgrwt>
</event>
<event>
 8    1  0.8247621E-018  0.8052058E+02  0.7818608E-02  0.1327581E+00
          1   -1    0    0  501    0  0.00000000000E+00  0.00000000000E+00  0.50428296196E+01  0.50428321382E+01  0.50400000000E-02 0. -1.
         -2   -1    0    0    0  501 -0.00000000000E+00 -0.00000000000E+00 -0.32142478296E+03  0.32142478297E+03  0.25500000000E-02 0.  1.
        -24    2    1    2    0    0  0.17763568394E-14 -0.71054273576E-14 -0.31638195334E+03  0.32646761510E+03  0.80520576966E+02 0.  0.
         66    2    3    3    0    0 -0.76954709911E+01  0.39378218494E+02 -0.17046620013E+03  0.17513591795E+03  0.20000010560E+01 0.  0.
         13    1    3    3    0    0  0.76954709911E+01 -0.39378218494E+02 -0.14591575321E+03  0.15133169715E+03  0.10566000000E+00 0. -1.
         13    1    4    4    0    0 -0.45769611397E+01  0.20772726047E+02 -0.91263104029E+02  0.93709231358E+02  0.10566000000E+00 0. -1.
        -13    1    4    4    0    0 -0.26177177529E+01  0.15588684787E+02 -0.68062385300E+02  0.69873879214E+02  0.10566000000E+00 0.  1.
         14    1    4    4    0    0 -0.50079209848E+00  0.30168076603E+01 -0.11140710799E+02  0.11552807377E+02  0.00000000000E+00 0. -1.
<mgrwt>
<rscale>  0 0.80520577E+02</rscale>
<asrwt>0</asrwt>
<pdfrwt beam="1">  1        1 0.77582039E-03 0.80520577E+02</pdfrwt>
<pdfrwt beam="2">  1       -2 0.49449950E-01 0.80520577E+02</pdfrwt>
<totfact> 0.66495296E+04</totfact>
</mgrwt>
</event>
<event>
 8    1  0.8247621E-018  0.8157163E+02  0.7818608E-02  0.1324650E+00
          1   -1    0    0  501    0  0.00000000000E+00  0.00000000000E+00  0.22727246111E+02  0.22727246670E+02  0.50400000000E-02 0. -1.
         -2   -1    0    0    0  501 -0.00000000000E+00 -0.00000000000E+00 -0.73193322080E+02  0.73193322124E+02  0.25500000000E-02 0.  1.
        -24    2    1    2    0    0  0.00000000000E+00  0.00000000000E+00 -0.50466075969E+02  0.95920568794E+02  0.81571629223E+02 0.  0.
         66    2    3    3    0    0  0.12814242604E+02  0.10476490416E+02 -0.69049929716E+02  0.71034177953E+02  0.19999947094E+01 0.  0.
         13    1    3    3    0    0 -0.12814242604E+02 -0.10476490416E+02  0.18583853747E+02  0.24886390841E+02  0.10566000000E+00 0. -1.
         13    1    4    4    0    0  0.13830889962E+01  0.10736634694E+01 -0.81003031704E+01  0.82880494632E+01  0.10566000000E+00 0. -1.
        -13    1    4    4    0    0  0.85145305889E+01  0.62777103191E+01 -0.40917362876E+02  0.42262851617E+02  0.10566000000E+00 0.  1.
         14    1    4    4    0    0  0.29166230188E+01  0.31251166280E+01 -0.20032263669E+02  0.20483276874E+02  0.00000000000E+00 0. -1.
<mgrwt>
<rscale>  0 0.81571629E+02</rscale>
<asrwt>0</asrwt>
<pdfrwt beam="1">  1        1 0.34964995E-02 0.81571629E+02</pdfrwt>
<pdfrwt beam="2">  1       -2 0.11260511E-01 0.81571629E+02</pdfrwt>
<totfact> 0.10837620E+05</totfact>
</mgrwt>
</event>
<event>
 8    1  0.8247621E-018  0.8212785E+02  0.7818608E-02  0.1323119E+00
         -2   -1    0    0    0  501 -0.00000000000E+00  0.00000000000E+00  0.31211674617E+02  0.31211674721E+02  0.25500000000E-02 0.  1.
          1   -1    0    0  501    0  0.00000000000E+00 -0.00000000000E+00 -0.54026121650E+02  0.54026121886E+02  0.50400000000E-02 0. -1.
        -24    2    1    2    0    0  0.00000000000E+00  0.00000000000E+00 -0.22814447034E+02  0.85237796606E+02  0.82127845320E+02 0.  0.
         66    2    3    3    0    0  0.25120088745E+02 -0.30681940696E+02 -0.43804377606E+00  0.39706324741E+02  0.19999996603E+01 0.  0.
         13    1    3    3    0    0 -0.25120088745E+02  0.30681940696E+02 -0.22376403258E+02  0.45531471865E+02  0.10566000000E+00 0. -1.
         13    1    4    4    0    0  0.22022873447E+01 -0.23827079698E+01 -0.13857624696E+00  0.32492667218E+01  0.10566000000E+00 0. -1.
        -13    1    4    4    0    0  0.17856861490E+01 -0.29701229259E+01  0.78149327823E-01  0.34680796661E+01  0.10566000000E+00 0.  1.
         14    1    4    4    0    0  0.21132115251E+02 -0.25329109800E+02 -0.37761685692E+00  0.32988978353E+02  0.00000000000E+00 0. -1.
<mgrwt>
<rscale>  0 0.82127845E+02</rscale>
<asrwt>0</asrwt>
<pdfrwt beam="1">  1        1 0.83117111E-02 0.82127845E+02</pdfrwt>
<pdfrwt beam="2">  1       -2 0.48017961E-02 0.82127845E+02</pdfrwt>
<totfact> 0.12381749E+05</totfact>
</mgrwt>
</event>
<event>
 8    1  0.8247621E-018  0.8078425E+02  0.7818608E-02  0.1326840E+00
          1   -1    0    0  501    0  0.00000000000E+00  0.00000000000E+00  0.37314617949E+02  0.37314618289E+02  0.50400000000E-02 0. -1.
         -2   -1    0    0    0  501 -0.00000000000E+00 -0.00000000000E+00 -0.43723448483E+02  0.43723448558E+02  0.25500000000E-02 0.  1.
        -24    2    1    2    0    0  0.35527136788E-14  0.00000000000E+00 -0.64088305345E+01  0.81038066847E+02  0.80784250751E+02 0.  0.
         66    2    3    3    0    0  0.11784685187E+02 -0.38091952312E+02  0.31096913942E+01  0.40044298300E+02  0.20000024759E+01 0.  0.
         13    1    3    3    0    0 -0.11784685187E+02  0.38091952312E+02 -0.95185219287E+01  0.40993768546E+02  0.10566000000E+00 0. -1.
         13    1    4    4    0    0  0.91946019966E+00 -0.20887709646E+01 -0.62905588865E-01  0.22854960841E+01  0.10566000000E+00 0.  1.
        -13    1    4    4    0    0  0.23681012029E+01 -0.89755898240E+01  0.40562176265E+00  0.92921907560E+01  0.10566000000E+00 0.  1.
         14    1    4    4    0    0  0.84971237839E+01 -0.27027591523E+02  0.27669752204E+01  0.28466611460E+02  0.00000000000E+00 0. -1.
<mgrwt>
<rscale>  0 0.80784251E+02</rscale>
<asrwt>0</asrwt>
<pdfrwt beam="1">  1        1 0.57407105E-02 0.80784251E+02</pdfrwt>
<pdfrwt beam="2">  1       -2 0.67266844E-02 0.80784251E+02</pdfrwt>
<totfact> 0.12211586E+05</totfact>
</mgrwt>
</event>
<event>
 8    1  0.8247621E-018  0.8005237E+02  0.7818608E-02  0.1328903E+00
          1   -1    0    0  501    0  0.00000000000E+00  0.00000000000E+00  0.42620777700E+02  0.42620777998E+02  0.50400000000E-02 0. -1.
         -2   -1    0    0    0  501 -0.00000000000E+00 -0.00000000000E+00 -0.37589543193E+02  0.37589543279E+02  0.25500000000E-02 0.  1.
        -24    2    1    2    0    0  0.71054273576E-14  0.17763568394E-14  0.50312345078E+01  0.80210321278E+02  0.80052372349E+02 0.  0.
         66    2    3    3    0    0  0.35935604209E+02  0.11180471572E+02 -0.11063896526E+02  0.39278243374E+02  0.20000004430E+01 0.  0.
         13    1    3    3    0    0 -0.35935604209E+02 -0.11180471572E+02  0.16095131034E+02  0.40932077903E+02  0.10566000000E+00 0. -1.
         13    1    4    4    0    0  0.16047425874E+02  0.47688008520E+01 -0.40605995313E+01  0.17226751619E+02  0.10566000000E+00 0.  1.
        -13    1    4    4    0    0  0.45143297321E+01  0.15913099130E+01 -0.18966776041E+01  0.51497563184E+01  0.10566000000E+00 0. -1.
        -14    1    4    4    0    0  0.15373848603E+02  0.48203608069E+01 -0.51066193907E+01  0.16901735437E+02  0.00000000000E+00 0.  1.
<mgrwt>
<rscale>  0 0.80052372E+02</rscale>
<asrwt>0</asrwt>
<pdfrwt beam="1">  1        1 0.65570428E-02 0.80052372E+02</pdfrwt>
<pdfrwt beam="2">  1       -2 0.57830066E-02 0.80052372E+02</pdfrwt>
<totfact> 0.12804633E+05</totfact>
</mgrwt>
</event>
<event>
 8    1  0.8247621E-018  0.7909444E+02  0.7818608E-02  0.1331641E+00
         -2   -1    0    0    0  501 -0.00000000000E+00  0.00000000000E+00  0.88605463780E+01  0.88605467449E+01  0.25500000000E-02 0.  1.
          1   -1    0    0  501    0  0.00000000000E+00 -0.00000000000E+00 -0.17651083085E+03  0.17651083092E+03  0.50400000000E-02 0. -1.
        -24    2    1    2    0    0 -0.71054273576E-14  0.00000000000E+00 -0.16765028447E+03  0.18537137767E+03  0.79094435801E+02 0.  0.
         66    2    3    3    0    0  0.35722640680E+02 -0.15301692903E+02 -0.67022290256E+02  0.77499911344E+02  0.20000010570E+01 0.  0.
         13    1    3    3    0    0 -0.35722640680E+02  0.15301692903E+02 -0.10062799422E+03  0.10787146632E+03  0.10566000000E+00 0. -1.
         13    1    4    4    0    0  0.62303454652E+01 -0.25426714172E+01 -0.10478691588E+02  0.12453775491E+02  0.10566000000E+00 0. -1.
        -13    1    4    4    0    0  0.15203334384E+01 -0.90806908134E+00 -0.30683116507E+01  0.35442493764E+01  0.10566000000E+00 0.  1.
        -14    1    4    4    0    0  0.27971961776E+02 -0.11850952405E+02 -0.53475287018E+02  0.61501886476E+02  0.00000000000E+00 0.  1.
<mgrwt>
<rscale>  0 0.79094436E+02</rscale>
<asrwt>0</asrwt>
<pdfrwt beam="1">  1        1 0.27155510E-01 0.79094436E+02</pdfrwt>
<pdfrwt beam="2">  1       -2 0.13631611E-02 0.79094436E+02</pdfrwt>
<totfact> 0.16777822E+05</totfact>
</mgrwt>
</event>
<event>
 8    1  0.8247621E-018  0.7922041E+02  0.7818608E-02  0.1331278E+00
         -2   -1    0    0    0  501 -0.00000000000E+00  0.00000000000E+00  0.14447216399E+03  0.14447216402E+03  0.25500000000E-02 0.  1.
          1   -1    0    0  501    0  0.00000000000E+00 -0.00000000000E+00 -0.10860003145E+02  0.10860004315E+02  0.50400000000E-02 0. -1.
        -24    2    1    2    0    0  0.00000000000E+00  0.00000000000E+00  0.13361216085E+03  0.15533216833E+03  0.79220407672E+02 0.  0.
         66    2    3    3    0    0  0.86155869558E+01 -0.13086665975E+02  0.13812623924E+03  0.13902642601E+03  0.19999988511E+01 0.  0.
         13    1    3    3    0    0 -0.86155869558E+01  0.13086665975E+02 -0.45140783960E+01  0.16305742324E+02  0.10566000000E+00 0. -1.
         13    1    4    4    0    0  0.30975353187E+01 -0.43857929633E+01  0.41516638722E+02  0.41862541248E+02  0.10566000000E+00 0. -1.
        -13    1    4    4    0    0  0.37853129167E+01 -0.66770174117E+01  0.74462140834E+02  0.74856748106E+02  0.10566000000E+00 0.  1.
        -14    1    4    4    0    0  0.17327387205E+01 -0.20238556001E+01  0.22147459688E+02  0.22307136652E+02  0.00000000000E+00 0.  1.
<mgrwt>
<rscale>  0 0.79220408E+02</rscale>
<asrwt>0</asrwt>
<pdfrwt beam="1">  1        1 0.16707699E-02 0.79220408E+02</pdfrwt>
<pdfrwt beam="2">  1       -2 0.22226485E-01 0.79220408E+02</pdfrwt>
<totfact> 0.98108107E+04</totfact>
</mgrwt>
</event>
<event>
 8    1  0.8247621E-018  0.7719373E+02  0.7818608E-02  0.1337209E+00
         -2   -1    0    0    0  501 -0.00000000000E+00  0.00000000000E+00  0.17116542324E+02  0.17116542514E+02  0.25500000000E-02 0.  1.
          1   -1    0    0  501    0  0.00000000000E+00 -0.00000000000E+00 -0.87033819824E+02  0.87033819969E+02  0.50400000000E-02 0. -1.
        -24    2    1    2    0    0 -0.35527136788E-14 -0.35527136788E-14 -0.69917277500E+02  0.10415036248E+03  0.77193732339E+02 0.  0.
         66    2    3    3    0    0  0.20826852075E+02  0.30871666676E+02 -0.21429682408E+02  0.43012194270E+02  0.19999992568E+01 0.  0.
         13    1    3    3    0    0 -0.20826852075E+02 -0.30871666676E+02 -0.48487595092E+02  0.61138168214E+02  0.10566000000E+00 0. -1.
         13    1    4    4    0    0  0.13147079136E+02  0.19508280581E+02 -0.13297924153E+02  0.27023409331E+02  0.10566000000E+00 0. -1.
        -13    1    4    4    0    0  0.65923313120E+01  0.91629575232E+01 -0.70287938435E+01  0.13297884404E+02  0.10566000000E+00 0.  1.
         14    1    4    4    0    0  0.10874416265E+01  0.22004285721E+01 -0.11029644116E+01  0.26909005343E+01  0.00000000000E+00 0. -1.
<mgrwt>
<rscale>  0 0.77193732E+02</rscale>
<asrwt>0</asrwt>
<pdfrwt beam="1">  1        1 0.13389818E-01 0.77193732E+02</pdfrwt>
<pdfrwt beam="2">  1       -2 0.26333143E-02 0.77193732E+02</pdfrwt>
<totfact> 0.15823218E+05</totfact>
</mgrwt>
</event>
<event>
 8    1  0.8247621E-018  0.8055257E+02  0.7818608E-02  0.1327491E+00
         -2   -1    0    0    0  501 -0.00000000000E+00  0.00000000000E+00  0.50030455310E+02  0.50030455375E+02  0.25500000000E-02 0.  1.
          1   -1    0    0  501    0  0.00000000000E+00 -0.00000000000E+00 -0.32423834842E+02  0.32423835234E+02  0.50400000000E-02 0. -1.
        -24    2    1    2    0    0  0.00000000000E+00 -0.71054273576E-14  0.17606620468E+02  0.82454290609E+02  0.80552572619E+02 0.  0.
         66    2    3    3    0    0  0.54238219371E+01 -0.39192851004E+02  0.12397723860E+01  0.39636276942E+02  0.19999999956E+01 0.  0.
         13    1    3    3    0    0 -0.54238219371E+01  0.39192851004E+02  0.16366848082E+02  0.42818013667E+02  0.10566000000E+00 0. -1.
         13    1    4    4    0    0  0.42916568252E+00 -0.23391368975E+01  0.12947655420E+00  0.23840454740E+01  0.10566000000E+00 0.  1.
        -13    1    4    4    0    0  0.35105491677E+01 -0.28287891251E+02  0.15545907561E+01  0.28547445829E+02  0.10566000000E+00 0.  1.
         14    1    4    4    0    0  0.14841070868E+01 -0.85658228551E+01 -0.44429492438E+00  0.87047856383E+01  0.00000000000E+00 0. -1.
<mgrwt>
<rscale>  0 0.80552573E+02</rscale>
<asrwt>0</asrwt>
<pdfrwt beam="1">  1        1 0.49882823E-02 0.80552573E+02</pdfrwt>
<pdfrwt beam="2">  1       -2 0.76969931E-02 0.80552573E+02</pdfrwt>
<totfact> 0.12021025E+05</totfact>
</mgrwt>
</event>
<event>
 8    1  0.8247621E-018  0.8048183E+02  0.7818608E-02  0.1327690E+00
         -2   -1    0    0    0  501 -0.00000000000E+00  0.00000000000E+00  0.10463039442E+04  0.10463039442E+04  0.25500000000E-02 0.  1.
          1   -1    0    0  501    0  0.00000000000E+00 -0.00000000000E+00 -0.15476639982E+01  0.15476722046E+01  0.50400000000E-02 0. -1.
        -24    2    1    2    0    0  0.17763568394E-14  0.00000000000E+00  0.10447562802E+04  0.10478516164E+04  0.80481830167E+02 0.  0.
         66    2    3    3    0    0  0.14699740684E+02 -0.25084775089E+02  0.88445106189E+03  0.88493107596E+03  0.20000012112E+01 0.  0.
         13    1    3    3    0    0 -0.14699740684E+02  0.25084775089E+02  0.16030521829E+03  0.16292054043E+03  0.10566000000E+00 0. -1.
         13    1    4    4    0    0  0.32241402950E+01 -0.48399995680E+01  0.18037423938E+03  0.18046799736E+03  0.10566000000E+00 0.  1.
        -13    1    4    4    0    0  0.96205706885E+01 -0.17910766464E+02  0.62140987227E+03  0.62174238351E+03  0.10566000000E+00 0. -1.
         14    1    4    4    0    0  0.18550297009E+01 -0.23340090575E+01  0.82666950250E+02  0.82720695096E+02  0.00000000000E+00 0. -1.
<mgrwt>
<rscale>  0 0.80481830E+02</rscale>
<asrwt>0</asrwt>
<pdfrwt beam="1">  1        1 0.23810186E-03 0.80481830E+02</pdfrwt>
<pdfrwt beam="2">  1       -2 0.16097047E+00 0.80481830E+02</pdfrwt>
<totfact> 0.24333684E+04</totfact>
</mgrwt>
</event>
<event>
 8    1  0.8247621E-018  0.8089666E+02  0.7818608E-02  0.1326526E+00
         -2   -1    0    0    0  501 -0.00000000000E+00  0.00000000000E+00  0.95144819938E+01  0.95144823355E+01  0.25500000000E-02 0.  1.
          1   -1    0    0  501    0  0.00000000000E+00 -0.00000000000E+00 -0.17195547027E+03  0.17195547034E+03  0.50400000000E-02 0. -1.
        -24    2    1    2    0    0  0.00000000000E+00  0.00000000000E+00 -0.16244098827E+03  0.18146995268E+03  0.80896656625E+02 0.  0.
         66    2    3    3    0    0  0.38001465237E+02 -0.86271559747E+01 -0.57159368301E+02  0.69207893865E+02  0.20000020845E+01 0.  0.
         13    1    3    3    0    0 -0.38001465237E+02  0.86271559747E+01 -0.10528161997E+03  0.11226205881E+03  0.10566000000E+00 0. -1.
         13    1    4    4    0    0  0.31039897532E+02 -0.69935599476E+01 -0.47447842910E+02  0.57128750034E+02  0.10566000000E+00 0.  1.
        -13    1    4    4    0    0  0.48017647505E+01 -0.88347525512E+00 -0.62711361840E+01  0.79483197167E+01  0.10566000000E+00 0. -1.
         14    1    4    4    0    0  0.21598029544E+01 -0.75012077192E+00 -0.34403892066E+01  0.41308241148E+01  0.00000000000E+00 0. -1.
<mgrwt>
<rscale>  0 0.80896657E+02</rscale>
<asrwt>0</asrwt>
<pdfrwt beam="1">  1        1 0.26454686E-01 0.80896657E+02</pdfrwt>
<pdfrwt beam="2">  1       -2 0.14637666E-02 0.80896657E+02</pdfrwt>
<totfact> 0.15722722E+05</totfact>
</mgrwt>
</event>
<event>
 8    1  0.8247621E-018  0.7991037E+02  0.7818608E-02  0.1329306E+00
         -2   -1    0    0    0  501 -0.00000000000E+00  0.00000000000E+00  0.12039884772E+02  0.12039885042E+02  0.25500000000E-02 0.  1.
          1   -1    0    0  501    0  0.00000000000E+00 -0.00000000000E+00 -0.13259404050E+03  0.13259404060E+03  0.50400000000E-02 0. -1.
        -24    2    1    2    0    0  0.11102230246E-15  0.00000000000E+00 -0.12055415573E+03  0.14463392564E+03  0.79910374684E+02 0.  0.
         66    2    3    3    0    0 -0.68064902105E+00 -0.27439093736E+02 -0.78247275093E+01  0.28611073153E+02  0.19999995513E+01 0.  0.
         13    1    3    3    0    0  0.68064902105E+00  0.27439093736E+02 -0.11272942822E+03  0.11602285249E+03  0.10566000000E+00 0. -1.
         13    1    4    4    0    0  0.16658722642E+00 -0.14013641343E+02 -0.46751889724E+01  0.14774249590E+02  0.10566000000E+00 0. -1.
        -13    1    4    4    0    0 -0.47015809335E-02 -0.56891607455E+01 -0.14298094964E+01  0.58670342869E+01  0.10566000000E+00 0.  1.
         14    1    4    4    0    0 -0.84253466653E+00 -0.77362916478E+01 -0.17197290405E+01  0.79697892755E+01  0.00000000000E+00 0. -1.
<mgrwt>
<rscale>  0 0.79910375E+02</rscale>
<asrwt>0</asrwt>
<pdfrwt beam="1">  1        1 0.20399082E-01 0.79910375E+02</pdfrwt>
<pdfrwt beam="2">  1       -2 0.18522901E-02 0.79910375E+02</pdfrwt>
<totfact> 0.15484127E+05</totfact>
</mgrwt>
</event>
<event>
 8    1  0.8247621E-018  0.8003961E+02  0.7818608E-02  0.1328939E+00
         -2   -1    0    0    0  501 -0.00000000000E+00  0.00000000000E+00  0.26738573187E+03  0.26738573189E+03  0.25500000000E-02 0.  1.
          1   -1    0    0  501    0  0.00000000000E+00 -0.00000000000E+00 -0.59897908737E+01  0.59897929942E+01  0.50400000000E-02 0. -1.
        -24    2    1    2    0    0 -0.71054273576E-14  0.00000000000E+00  0.26139594100E+03  0.27337552488E+03  0.80039612894E+02 0.  0.
         66    2    3    3    0    0 -0.29207531054E+02  0.22738919462E+02  0.18251509813E+03  0.18624150819E+03  0.19999997634E+01 0.  0.
         13    1    3    3    0    0  0.29207531054E+02 -0.22738919462E+02  0.78880842872E+02  0.87134016692E+02  0.10566000000E+00 0. -1.
         13    1    4    4    0    0 -0.16944350633E+02  0.13613670868E+02  0.11041701150E+03  0.11253608597E+03  0.10566000000E+00 0. -1.
        -13    1    4    4    0    0 -0.14395476048E+01  0.10667940045E+01  0.73283629416E+01  0.75449595223E+01  0.10566000000E+00 0.  1.
        -14    1    4    4    0    0 -0.10823632817E+02  0.80584545888E+01  0.64769723684E+02  0.66160462693E+02  0.00000000000E+00 0.  1.
<mgrwt>
<rscale>  0 0.80039613E+02</rscale>
<asrwt>0</asrwt>
<pdfrwt beam="1">  1        1 0.92150639E-03 0.80039613E+02</pdfrwt>
<pdfrwt beam="2">  1       -2 0.41136269E-01 0.80039613E+02</pdfrwt>
<totfact> 0.74526690E+04</totfact>
</mgrwt>
</event>
<event>
 8    1  0.8247621E-018  0.7817742E+02  0.7818608E-02  0.1334305E+00
          1   -1    0    0  501    0  0.00000000000E+00  0.00000000000E+00  0.34747920489E+02  0.34747920854E+02  0.50400000000E-02 0. -1.
         -2   -1    0    0    0  501 -0.00000000000E+00 -0.00000000000E+00 -0.43971760351E+02  0.43971760425E+02  0.25500000000E-02 0.  1.
        -24    2    1    2    0    0  0.71054273576E-14 -0.88817841970E-15 -0.92238398623E+01  0.78719681280E+02  0.78177420007E+02 0.  0.
         66    2    3    3    0    0 -0.35758476136E+02  0.65976320395E+01 -0.18987158150E+02  0.41069569565E+02  0.20000013850E+01 0.  0.
         13    1    3    3    0    0  0.35758476136E+02 -0.65976320395E+01  0.97633182879E+01  0.37650111715E+02  0.10566000000E+00 0. -1.
         13    1    4    4    0    0 -0.47603791024E+01  0.68179555024E+00 -0.29331958583E+01  0.56339024087E+01  0.10566000000E+00 0. -1.
        -13    1    4    4    0    0 -0.12575963150E+02  0.28421885549E+01 -0.71797247797E+01  0.14757794445E+02  0.10566000000E+00 0.  1.
        -14    1    4    4    0    0 -0.18422133883E+02  0.30736479343E+01 -0.88742375122E+01  0.20677872711E+02  0.00000000000E+00 0.  1.
<mgrwt>
<rscale>  0 0.78177420E+02</rscale>
<asrwt>0</asrwt>
<pdfrwt beam="1">  1        1 0.53458340E-02 0.78177420E+02</pdfrwt>
<pdfrwt beam="2">  1       -2 0.67648862E-02 0.78177420E+02</pdfrwt>
<totfact> 0.13243634E+05</totfact>
</mgrwt>
</event>
<event>
 8    1  0.8247621E-018  0.8016998E+02  0.7818608E-02  0.1328570E+00
         -2   -1    0    0    0  501 -0.00000000000E+00  0.00000000000E+00  0.41007898694E+03  0.41007898695E+03  0.25500000000E-02 0.  1.
          1   -1    0    0  501    0  0.00000000000E+00 -0.00000000000E+00 -0.39182836074E+01  0.39182868488E+01  0.50400000000E-02 0. -1.
        -24    2    1    2    0    0  0.00000000000E+00  0.11102230246E-15  0.40616070333E+03  0.41399727380E+03  0.80169980538E+02 0.  0.
         66    2    3    3    0    0 -0.10690016478E+02 -0.38055466873E+00  0.40256464916E+03  0.40271170585E+03  0.20000015739E+01 0.  0.
         13    1    3    3    0    0  0.10690016478E+02  0.38055466873E+00  0.35960541774E+01  0.11285567945E+02  0.10566000000E+00 0. -1.
         13    1    4    4    0    0 -0.34217665018E+01 -0.10212860451E+01  0.13491816044E+03  0.13496544999E+03  0.10566000000E+00 0. -1.
        -13    1    4    4    0    0 -0.39574396289E+01  0.30653619255E+00  0.13854039039E+03  0.13859728073E+03  0.10566000000E+00 0.  1.
         14    1    4    4    0    0 -0.33108103475E+01  0.33419518378E+00  0.12910609833E+03  0.12914897513E+03  0.00000000000E+00 0. -1.
<mgrwt>
<rscale>  0 0.80169981E+02</rscale>
<asrwt>0</asrwt>
<pdfrwt beam="1">  1        1 0.60281311E-03 0.80169981E+02</pdfrwt>
<pdfrwt beam="2">  1       -2 0.63089075E-01 0.80169981E+02</pdfrwt>
<totfact> 0.57800861E+04</totfact>
</mgrwt>
</event>
<event>
 8    1  0.8247621E-018  0.8936678E+02  0.7818608E-02  0.1304392E+00
          1   -1    0    0  501    0  0.00000000000E+00  0.00000000000E+00  0.26452777177E+03  0.26452777182E+03  0.50400000000E-02 0. -1.
         -2   -1    0    0    0  501 -0.00000000000E+00 -0.00000000000E+00 -0.75478089550E+01  0.75478093857E+01  0.25500000000E-02 0.  1.
        -24    2    1    2    0    0  0.00000000000E+00  0.00000000000E+00  0.25697996282E+03  0.27207558121E+03  0.89366775700E+02 0.  0.
         66    2    3    3    0    0  0.20591911410E+02 -0.31680292142E+02  0.56063990776E+02  0.67637554628E+02  0.20000021504E+01 0.  0.
         13    1    3    3    0    0 -0.20591911410E+02  0.31680292142E+02  0.20091597204E+03  0.20443802658E+03  0.10566000000E+00 0. -1.
         13    1    4    4    0    0  0.75533711997E+01 -0.10379524412E+02  0.19594419525E+02  0.23425208304E+02  0.10566000000E+00 0. -1.
        -13    1    4    4    0    0  0.51685890302E+01 -0.76373625389E+01  0.13826501292E+02  0.16620075846E+02  0.10566000000E+00 0.  1.
         14    1    4    4    0    0  0.78699511800E+01 -0.13663405192E+02  0.22643069958E+02  0.27592270478E+02  0.00000000000E+00 0. -1.
<mgrwt>
<rscale>  0 0.89366776E+02</rscale>
<asrwt>0</asrwt>
<pdfrwt beam="1">  1        1 0.40696573E-01 0.89366776E+02</pdfrwt>
<pdfrwt beam="2">  1       -2 0.11612016E-02 0.89366776E+02</pdfrwt>
<totfact> 0.13120122E+05</totfact>
</mgrwt>
</event>
<event>
 8    1  0.8247621E-018  0.7918439E+02  0.7818608E-02  0.1331382E+00
         -2   -1    0    0    0  501 -0.00000000000E+00  0.00000000000E+00  0.98044118787E+02  0.98044118820E+02  0.25500000000E-02 0.  1.
          1   -1    0    0  501    0  0.00000000000E+00 -0.00000000000E+00 -0.15988128788E+02  0.15988129582E+02  0.50400000000E-02 0. -1.
        -24    2    1    2    0    0 -0.35527136788E-14 -0.35527136788E-14  0.82055989999E+02  0.11403224840E+03  0.79184393544E+02 0.  0.
         66    2    3    3    0    0 -0.27206378843E+02 -0.17608717861E+02  0.73743803563E+02  0.80575446375E+02  0.20000000442E+01 0.  0.
         13    1    3    3    0    0  0.27206378843E+02  0.17608717861E+02  0.83121864363E+01  0.33456802027E+02  0.10566000000E+00 0. -1.
         13    1    4    4    0    0 -0.28555165817E+01 -0.24055141332E+01  0.85342286975E+01  0.93158304348E+01  0.10566000000E+00 0. -1.
        -13    1    4    4    0    0 -0.44188885265E+01 -0.33247218401E+01  0.12531892141E+02  0.13698169067E+02  0.10566000000E+00 0.  1.
         14    1    4    4    0    0 -0.19931973735E+02 -0.11878481888E+02  0.52677682725E+02  0.57561446873E+02  0.00000000000E+00 0. -1.
<mgrwt>
<rscale>  0 0.79184394E+02</rscale>
<asrwt>0</asrwt>
<pdfrwt beam="1">  1        1 0.24597122E-02 0.79184394E+02</pdfrwt>
<pdfrwt beam="2">  1       -2 0.15083710E-01 0.79184394E+02</pdfrwt>
<totfact> 0.10947890E+05</totfact>
</mgrwt>
</event>
<event>
 8    1  0.8247621E-018  0.8055002E+02  0.7818608E-02  0.1327498E+00
         -2   -1    0    0    0  501 -0.00000000000E+00  0.00000000000E+00  0.40083256892E+02  0.40083256973E+02  0.25500000000E-02 0.  1.
          1   -1    0    0  501    0  0.00000000000E+00 -0.00000000000E+00 -0.40467681398E+02  0.40467681712E+02  0.50400000000E-02 0. -1.
        -24    2    1    2    0    0  0.17763568394E-14  0.00000000000E+00 -0.38442450636E+00  0.80550938685E+02  0.80550021358E+02 0.  0.
         66    2    3    3    0    0  0.88765921368E+01 -0.22840307338E+02  0.31739177533E+02  0.40147838565E+02  0.20000059303E+01 0.  0.
         13    1    3    3    0    0 -0.88765921368E+01  0.22840307338E+02 -0.32123602040E+02  0.40403100120E+02  0.10566000000E+00 0. -1.
         13    1    4    4    0    0  0.36378925011E+01 -0.73726032894E+01  0.11231646486E+02  0.13919432026E+02  0.10566000000E+00 0. -1.
        -13    1    4    4    0    0  0.21497726164E+01 -0.75828359646E+01  0.10011546765E+02  0.12742180199E+02  0.10566000000E+00 0.  1.
         14    1    4    4    0    0  0.30889270193E+01 -0.78848680838E+01  0.10495984282E+02  0.13486226340E+02  0.00000000000E+00 0. -1.
<mgrwt>
<rscale>  0 0.80550021E+02</rscale>
<asrwt>0</asrwt>
<pdfrwt beam="1">  1        1 0.62257972E-02 0.80550021E+02</pdfrwt>
<pdfrwt beam="2">  1       -2 0.61666549E-02 0.80550021E+02</pdfrwt>
<totfact> 0.12478322E+05</totfact>
</mgrwt>
</event>
<event>
 8    1  0.8247621E-018  0.7932169E+02  0.7818608E-02  0.1330987E+00
         -2   -1    0    0    0  501 -0.00000000000E+00  0.00000000000E+00  0.18956500620E+02  0.18956500792E+02  0.25500000000E-02 0.  1.
          1   -1    0    0  501    0  0.00000000000E+00 -0.00000000000E+00 -0.82978529198E+02  0.82978529351E+02  0.50400000000E-02 0. -1.
        -24    2    1    2    0    0  0.00000000000E+00  0.00000000000E+00 -0.64022028578E+02  0.10193503014E+03  0.79321688251E+02 0.  0.
         66    2    3    3    0    0  0.18753116134E+02  0.19295211868E+02  0.53686769382E+01  0.27510130130E+02  0.20000004919E+01 0.  0.
         13    1    3    3    0    0 -0.18753116134E+02 -0.19295211868E+02 -0.69390705516E+02  0.74424900012E+02  0.10566000000E+00 0. -1.
         13    1    4    4    0    0  0.12136228501E+01  0.14161959164E+01 -0.54983955743E-01  0.18688709338E+01  0.10566000000E+00 0.  1.
        -13    1    4    4    0    0  0.10988803434E+02  0.10654503013E+02  0.34922400750E+01  0.15699654141E+02  0.10566000000E+00 0.  1.
         14    1    4    4    0    0  0.65506898494E+01  0.72245129384E+01  0.19314208190E+01  0.99416050555E+01  0.00000000000E+00 0. -1.
<mgrwt>
<rscale>  0 0.79321688E+02</rscale>
<asrwt>0</asrwt>
<pdfrwt beam="1">  1        1 0.12765927E-01 0.79321688E+02</pdfrwt>
<pdfrwt beam="2">  1       -2 0.29163848E-02 0.79321688E+02</pdfrwt>
<totfact> 0.14587144E+05</totfact>
</mgrwt>
</event>
<event>
 8    1  0.8247621E-018  0.8080751E+02  0.7818608E-02  0.1326775E+00
         -2   -1    0    0    0  501 -0.00000000000E+00  0.00000000000E+00  0.16361287147E+03  0.16361287149E+03  0.25500000000E-02 0.  1.
          1   -1    0    0  501    0  0.00000000000E+00 -0.00000000000E+00 -0.99775982338E+01  0.99775995067E+01  0.50400000000E-02 0. -1.
        -24    2    1    2    0    0  0.00000000000E+00  0.17763568394E-14  0.15363527323E+03  0.17359047099E+03  0.80807514739E+02 0.  0.
         66    2    3    3    0    0  0.34183291772E+02  0.88264895280E+01  0.11896343146E+03  0.12410762417E+03  0.19999996325E+01 0.  0.
         13    1    3    3    0    0 -0.34183291772E+02 -0.88264895280E+01  0.34671841772E+02  0.49482846823E+02  0.10566000000E+00 0. -1.
         13    1    4    4    0    0  0.13092729454E+01  0.45891822296E+00  0.39504593896E+01  0.41883284262E+01  0.10566000000E+00 0. -1.
        -13    1    4    4    0    0  0.23795356157E+02  0.61321000240E+01  0.85443253042E+02  0.88906593005E+02  0.10566000000E+00 0.  1.
        -14    1    4    4    0    0  0.90786626702E+01  0.22354712811E+01  0.29569719028E+02  0.31012702738E+02  0.00000000000E+00 0.  1.
<mgrwt>
<rscale>  0 0.80807515E+02</rscale>
<asrwt>0</asrwt>
<pdfrwt beam="1">  1        1 0.15350154E-02 0.80807515E+02</pdfrwt>
<pdfrwt beam="2">  1       -2 0.25171209E-01 0.80807515E+02</pdfrwt>
<totfact> 0.89423580E+04</totfact>
</mgrwt>
</event>
<event>
 8    1  0.8247621E-018  0.7889659E+02  0.7818608E-02  0.1332212E+00
         -2   -1    0    0    0  501 -0.00000000000E+00  0.00000000000E+00  0.12123491781E+03  0.12123491783E+03  0.25500000000E-02 0.  1.
          1   -1    0    0  501    0  0.00000000000E+00 -0.00000000000E+00 -0.12835969831E+02  0.12835970821E+02  0.50400000000E-02 0. -1.
        -24    2    1    2    0    0  0.00000000000E+00  0.00000000000E+00  0.10839894798E+03  0.13407088866E+03  0.78896585873E+02 0.  0.
         66    2    3    3    0    0 -0.66868108402E+01  0.93410291822E+01  0.11831911752E+03  0.11889231187E+03  0.19999959747E+01 0.  0.
         13    1    3    3    0    0  0.66868108402E+01 -0.93410291822E+01 -0.99201695487E+01  0.15178576788E+02  0.10566000000E+00 0. -1.
         13    1    4    4    0    0 -0.12872458677E+01  0.19582406234E+01  0.23351347189E+02  0.23468879135E+02  0.10566000000E+00 0. -1.
        -13    1    4    4    0    0 -0.26629918824E+01  0.50841304963E+01  0.58517658364E+02  0.58798532406E+02  0.10566000000E+00 0.  1.
         14    1    4    4    0    0 -0.27365730900E+01  0.22986580625E+01  0.36450111972E+02  0.36624900327E+02  0.00000000000E+00 0. -1.
<mgrwt>
<rscale>  0 0.78896586E+02</rscale>
<asrwt>0</asrwt>
<pdfrwt beam="1">  1        1 0.19747646E-02 0.78896586E+02</pdfrwt>
<pdfrwt beam="2">  1       -2 0.18651527E-01 0.78896586E+02</pdfrwt>
<totfact> 0.10451405E+05</totfact>
</mgrwt>
</event>
<event>
 8    1  0.8247621E-018  0.7930535E+02  0.7818608E-02  0.1331034E+00
          1   -1    0    0  501    0  0.00000000000E+00  0.00000000000E+00  0.16954694182E+02  0.16954694931E+02  0.50400000000E-02 0. -1.
         -2   -1    0    0    0  501 -0.00000000000E+00 -0.00000000000E+00 -0.92737418475E+02  0.92737418510E+02  0.25500000000E-02 0.  1.
        -24    2    1    2    0    0 -0.71054273576E-14  0.88817841970E-15 -0.75782724293E+02  0.10969211344E+03  0.79305349440E+02 0.  0.
         66    2    3    3    0    0 -0.37355663651E+02  0.44792971098E+01 -0.55125612179E+02  0.66770823219E+02  0.20000014620E+01 0.  0.
         13    1    3    3    0    0  0.37355663651E+02 -0.44792971098E+01 -0.20657112114E+02  0.42921290222E+02  0.10566000000E+00 0. -1.
         13    1    4    4    0    0 -0.21934425195E+02  0.24252338862E+01 -0.31467446386E+02  0.38434517222E+02  0.10566000000E+00 0. -1.
        -13    1    4    4    0    0 -0.14332284009E+02  0.21795706263E+01 -0.22120550173E+02  0.26447963949E+02  0.10566000000E+00 0.  1.
         14    1    4    4    0    0 -0.10889544468E+01 -0.12550740271E+00 -0.15376156205E+01  0.18883420484E+01  0.00000000000E+00 0. -1.
<mgrwt>
<rscale>  0 0.79305349E+02</rscale>
<asrwt>0</asrwt>
<pdfrwt beam="1">  1        1 0.26084146E-02 0.79305349E+02</pdfrwt>
<pdfrwt beam="2">  1       -2 0.14267295E-01 0.79305349E+02</pdfrwt>
<totfact> 0.11052190E+05</totfact>
</mgrwt>
</event>
<event>
 8    1  0.8247621E-018  0.7534225E+02  0.7818608E-02  0.1342814E+00
         -2   -1    0    0    0  501 -0.00000000000E+00  0.00000000000E+00  0.19427323705E+02  0.19427323873E+02  0.25500000000E-02 0.  1.
          1   -1    0    0  501    0  0.00000000000E+00 -0.00000000000E+00 -0.73047310664E+02  0.73047310838E+02  0.50400000000E-02 0. -1.
        -24    2    1    2    0    0  0.22204460493E-15 -0.35527136788E-14 -0.53619986959E+02  0.92474634711E+02  0.75342252843E+02 0.  0.
         66    2    3    3    0    0 -0.14614498584E+01  0.17262351164E+02  0.14192290540E+02  0.22484344334E+02  0.20000064905E+01 0.  0.
         13    1    3    3    0    0  0.14614498584E+01 -0.17262351164E+02 -0.67812277499E+02  0.69990290377E+02  0.10566000000E+00 0. -1.
         13    1    4    4    0    0 -0.18832530601E+00  0.67307503385E+01  0.59668153926E+01  0.89973616413E+01  0.10566000000E+00 0. -1.
        -13    1    4    4    0    0 -0.56465549059E+00  0.83534443203E+01  0.60713483934E+01  0.10342693227E+02  0.10566000000E+00 0.  1.
        -14    1    4    4    0    0 -0.70846906183E+00  0.21781565053E+01  0.21541267540E+01  0.31442894659E+01  0.00000000000E+00 0.  1.
<mgrwt>
<rscale>  0 0.75342253E+02</rscale>
<asrwt>0</asrwt>
<pdfrwt beam="1">  1        1 0.11238048E-01 0.75342253E+02</pdfrwt>
<pdfrwt beam="2">  1       -2 0.29888191E-02 0.75342253E+02</pdfrwt>
<totfact> 0.16440964E+05</totfact>
</mgrwt>
</event>
<event>
 8    1  0.8247621E-018  0.8080665E+02  0.7818608E-02  0.1326778E+00
         -2   -1    0    0    0  501 -0.00000000000E+00  0.00000000000E+00  0.63012353919E+02  0.63012353971E+02  0.25500000000E-02 0.  1.
          1   -1    0    0  501    0  0.00000000000E+00 -0.00000000000E+00 -0.25906486394E+02  0.25906486884E+02  0.50400000000E-02 0. -1.
        -24    2    1    2    0    0  0.00000000000E+00  0.00000000000E+00  0.37105867525E+02  0.88918840855E+02  0.80806651052E+02 0.  0.
         66    2    3    3    0    0  0.18120577105E+01  0.10716025962E+02  0.61356668821E+02  0.62343865915E+02  0.20000107220E+01 0.  0.
         13    1    3    3    0    0 -0.18120577105E+01 -0.10716025962E+02 -0.24250801295E+02  0.26574974940E+02  0.10566000000E+00 0. -1.
         13    1    4    4    0    0  0.22258438065E+00  0.22761732645E+01  0.96336283607E+01  0.99019426359E+01  0.10566000000E+00 0. -1.
        -13    1    4    4    0    0  0.14856919618E+01  0.53519292849E+01  0.34335133878E+02  0.34781647605E+02  0.10566000000E+00 0.  1.
        -14    1    4    4    0    0  0.10378136806E+00  0.30879234129E+01  0.17387906582E+02  0.17660275674E+02  0.00000000000E+00 0.  1.
<mgrwt>
<rscale>  0 0.80806651E+02</rscale>
<asrwt>0</asrwt>
<pdfrwt beam="1">  1        1 0.39856134E-02 0.80806651E+02</pdfrwt>
<pdfrwt beam="2">  1       -2 0.96942082E-02 0.80806651E+02</pdfrwt>
<totfact> 0.11435724E+05</totfact>
</mgrwt>
</event>
<event>
 8    1  0.8247621E-018  0.8164846E+02  0.7818608E-02  0.1324437E+00
         -2   -1    0    0    0  501 -0.00000000000E+00  0.00000000000E+00  0.25956653076E+02  0.25956653201E+02  0.25500000000E-02 0.  1.
          1   -1    0    0  501    0  0.00000000000E+00 -0.00000000000E+00 -0.64207734953E+02  0.64207735151E+02  0.50400000000E-02 0. -1.
        -24    2    1    2    0    0 -0.35527136788E-14 -0.17763568394E-14 -0.38251081877E+02  0.90164388352E+02  0.81648463930E+02 0.  0.
         66    2    3    3    0    0  0.27386950128E+02  0.14861798151E+02  0.99481620290E+01  0.32770169491E+02  0.19999997712E+01 0.  0.
         13    1    3    3    0    0 -0.27386950128E+02 -0.14861798151E+02 -0.48199243906E+02  0.57394218862E+02  0.10566000000E+00 0. -1.
         13    1    4    4    0    0  0.12484245661E+02  0.65436433437E+01  0.53128878233E+01  0.15063651582E+02  0.10566000000E+00 0. -1.
        -13    1    4    4    0    0  0.57171982354E+01  0.29832381278E+01  0.21358624450E+01  0.67940516490E+01  0.10566000000E+00 0.  1.
         14    1    4    4    0    0  0.91855062319E+01  0.53349166798E+01  0.24994117608E+01  0.10912466260E+02  0.00000000000E+00 0. -1.
<mgrwt>
<rscale>  0 0.81648464E+02</rscale>
<asrwt>0</asrwt>
<pdfrwt beam="1">  1        1 0.98781131E-02 0.81648464E+02</pdfrwt>
<pdfrwt beam="2">  1       -2 0.39933313E-02 0.81648464E+02</pdfrwt>
<totfact> 0.12936090E+05</totfact>
</mgrwt>
</event>
<event>
 8    1  0.8247621E-018  0.7895662E+02  0.7818608E-02  0.1332039E+00
          1   -1    0    0  501    0  0.00000000000E+00  0.00000000000E+00  0.69875212813E+01  0.69875230989E+01  0.50400000000E-02 0. -1.
         -2   -1    0    0    0  501 -0.00000000000E+00 -0.00000000000E+00 -0.22304571432E+03  0.22304571433E+03  0.25500000000E-02 0.  1.
        -24    2    1    2    0    0  0.00000000000E+00  0.00000000000E+00 -0.21605819304E+03  0.23003323743E+03  0.78956618120E+02 0.  0.
         66    2    3    3    0    0  0.17024929463E+01  0.38182378378E+02 -0.79591479928E+02  0.88315322362E+02  0.19999964972E+01 0.  0.
         13    1    3    3    0    0 -0.17024929463E+01 -0.38182378378E+02 -0.13646671311E+03  0.14171791507E+03  0.10566000000E+00 0. -1.
         13    1    4    4    0    0 -0.50681125239E-01  0.88533072814E+01 -0.17197609996E+02  0.19343023859E+02  0.10566000000E+00 0. -1.
        -13    1    4    4    0    0  0.15321932583E+01  0.28369278877E+02 -0.60185695233E+02  0.66554433923E+02  0.10566000000E+00 0.  1.
        -14    1    4    4    0    0  0.22098081328E+00  0.95979221951E+00 -0.22081746987E+01  0.24178645794E+01  0.00000000000E+00 0.  1.
<mgrwt>
<rscale>  0 0.78956618E+02</rscale>
<asrwt>0</asrwt>
<pdfrwt beam="1">  1        1 0.10750036E-02 0.78956618E+02</pdfrwt>
<pdfrwt beam="2">  1       -2 0.34314720E-01 0.78956618E+02</pdfrwt>
<totfact> 0.84047413E+04</totfact>
</mgrwt>
</event>
<event>
 8    1  0.8247621E-018  0.7945462E+02  0.7818608E-02  0.1330606E+00
         -2   -1    0    0    0  501 -0.00000000000E+00  0.00000000000E+00  0.10519315361E+03  0.10519315364E+03  0.25500000000E-02 0.  1.
          1   -1    0    0  501    0  0.00000000000E+00 -0.00000000000E+00 -0.15003438306E+02  0.15003439152E+02  0.50400000000E-02 0. -1.
        -24    2    1    2    0    0 -0.17763568394E-14  0.17763568394E-14  0.90189715301E+02  0.12019659279E+03  0.79454617061E+02 0.  0.
         66    2    3    3    0    0  0.86125800212E+01  0.11800861992E+02  0.10096931845E+03  0.10204038486E+03  0.19999985271E+01 0.  0.
         13    1    3    3    0    0 -0.86125800212E+01 -0.11800861992E+02 -0.10779603153E+02  0.18156207934E+02  0.10566000000E+00 0. -1.
         13    1    4    4    0    0  0.47534505984E+00  0.79493470888E+00  0.81623423410E+01  0.82154044723E+01  0.10566000000E+00 0.  1.
        -13    1    4    4    0    0  0.16041921766E+00  0.33948463584E+00  0.47998032030E+01  0.48156265393E+01  0.10566000000E+00 0.  1.
        -14    1    4    4    0    0  0.79768157437E+01  0.10666442647E+02  0.88007172910E+02  0.89009353844E+02  0.00000000000E+00 0.  1.
<mgrwt>
<rscale>  0 0.79454617E+02</rscale>
<asrwt>0</asrwt>
<pdfrwt beam="1">  1        1 0.23082213E-02 0.79454617E+02</pdfrwt>
<pdfrwt beam="2">  1       -2 0.16183562E-01 0.79454617E+02</pdfrwt>
<totfact> 0.10663232E+05</totfact>
</mgrwt>
</event>
<event>
 8    1  0.8247621E-018  0.8110346E+02  0.7818608E-02  0.1325949E+00
         -2   -1    0    0    0  501 -0.00000000000E+00  0.00000000000E+00  0.32310243863E+02  0.32310243963E+02  0.25500000000E-02 0.  1.
          1   -1    0    0  501    0  0.00000000000E+00 -0.00000000000E+00 -0.50895401030E+02  0.50895401279E+02  0.50400000000E-02 0. -1.
        -24    2    1    2    0    0  0.00000000000E+00  0.00000000000E+00 -0.18585157167E+02  0.83205645243E+02  0.81103460674E+02 0.  0.
         66    2    3    3    0    0 -0.15666764518E+02 -0.18070537138E+02  0.24267493035E+02  0.34130675896E+02  0.19999989984E+01 0.  0.
         13    1    3    3    0    0  0.15666764518E+02  0.18070537138E+02 -0.42852650202E+02  0.49074969346E+02  0.10566000000E+00 0. -1.
         13    1    4    4    0    0 -0.84338624304E+00 -0.88746231879E+00  0.10525424410E+01  0.16179923819E+01  0.10566000000E+00 0. -1.
        -13    1    4    4    0    0 -0.14770221245E+02 -0.17084869956E+02  0.23231155646E+02  0.32399845273E+02  0.10566000000E+00 0.  1.
         14    1    4    4    0    0 -0.53157029949E-01 -0.98204863639E-01 -0.16205051358E-01  0.11283824159E+00  0.00000000000E+00 0. -1.
<mgrwt>
<rscale>  0 0.81103461E+02</rscale>
<asrwt>0</asrwt>
<pdfrwt beam="1">  1        1 0.78300617E-02 0.81103461E+02</pdfrwt>
<pdfrwt beam="2">  1       -2 0.49708068E-02 0.81103461E+02</pdfrwt>
<totfact> 0.12700448E+05</totfact>
</mgrwt>
</event>
<event>
 8    1  0.8247621E-018  0.7958826E+02  0.7818608E-02  0.1330224E+00
          1   -1    0    0  501    0  0.00000000000E+00  0.00000000000E+00  0.22100748188E+03  0.22100748194E+03  0.50400000000E-02 0. -1.
         -2   -1    0    0    0  501 -0.00000000000E+00 -0.00000000000E+00 -0.71652441595E+01  0.71652446133E+01  0.25500000000E-02 0.  1.
        -24    2    1    2    0    0  0.35527136788E-14 -0.71054273576E-14  0.21384223772E+03  0.22817272655E+03  0.79588256096E+02 0.  0.
         66    2    3    3    0    0 -0.14629495150E+02  0.32403499413E+02  0.55899520122E+02  0.66277939393E+02  0.19999994362E+01 0.  0.
         13    1    3    3    0    0  0.14629495150E+02 -0.32403499413E+02  0.15794271760E+03  0.16189478716E+03  0.10566000000E+00 0. -1.
         13    1    4    4    0    0 -0.54260890537E+01  0.10311317668E+02  0.17538921457E+02  0.21056843172E+02  0.10566000000E+00 0. -1.
        -13    1    4    4    0    0 -0.20442493065E+01  0.53798207901E+01  0.87101413936E+01  0.10440265997E+02  0.10566000000E+00 0.  1.
         14    1    4    4    0    0 -0.71591567900E+01  0.16712360954E+02  0.29650457272E+02  0.34780830224E+02  0.00000000000E+00 0. -1.
<mgrwt>
<rscale>  0 0.79588256E+02</rscale>
<asrwt>0</asrwt>
<pdfrwt beam="1">  1        1 0.34001150E-01 0.79588256E+02</pdfrwt>
<pdfrwt beam="2">  1       -2 0.11023453E-02 0.79588256E+02</pdfrwt>
<totfact> 0.17235406E+05</totfact>
</mgrwt>
</event>
<event>
 8    1  0.8247621E-018  0.7675264E+02  0.7818608E-02  0.1338528E+00
         -2   -1    0    0    0  501 -0.00000000000E+00  0.00000000000E+00  0.12768620201E+03  0.12768620204E+03  0.25500000000E-02 0.  1.
          1   -1    0    0  501    0  0.00000000000E+00 -0.00000000000E+00 -0.11534071099E+02  0.11534072200E+02  0.50400000000E-02 0. -1.
        -24    2    1    2    0    0  0.71054273576E-14  0.88817841970E-15  0.11615213091E+03  0.13922027424E+03  0.76752636717E+02 0.  0.
         66    2    3    3    0    0  0.38010115613E+02  0.48791178306E+01  0.60782611962E+02  0.71882547273E+02  0.20000014555E+01 0.  0.
         13    1    3    3    0    0 -0.38010115613E+02 -0.48791178306E+01  0.55369518952E+02  0.67337726965E+02  0.10566000000E+00 0. -1.
         13    1    4    4    0    0  0.14952268427E+01  0.27136074646E+00  0.27506120725E+01  0.31442599725E+01  0.10566000000E+00 0.  1.
        -13    1    4    4    0    0  0.24846766489E+02  0.31011319601E+01  0.40877451324E+02  0.47937000482E+02  0.10566000000E+00 0.  1.
        -14    1    4    4    0    0  0.11668122282E+02  0.15066251240E+01  0.17154548565E+02  0.20801286819E+02  0.00000000000E+00 0.  1.
<mgrwt>
<rscale>  0 0.76752637E+02</rscale>
<asrwt>0</asrwt>
<pdfrwt beam="1">  1        1 0.17744727E-02 0.76752637E+02</pdfrwt>
<pdfrwt beam="2">  1       -2 0.19644030E-01 0.76752637E+02</pdfrwt>
<totfact> 0.11050674E+05</totfact>
</mgrwt>
</event>
<event>
 8    1  0.8247621E-018  0.8076434E+02  0.7818608E-02  0.1326896E+00
          1   -1    0    0  501    0  0.00000000000E+00  0.00000000000E+00  0.31560063006E+03  0.31560063010E+03  0.50400000000E-02 0. -1.
         -2   -1    0    0    0  501 -0.00000000000E+00 -0.00000000000E+00 -0.51670351322E+01  0.51670357615E+01  0.25500000000E-02 0.  1.
        -24    2    1    2    0    0  0.00000000000E+00 -0.71054273576E-14  0.31043359493E+03  0.32076766586E+03  0.80764339919E+02 0.  0.
         66    2    3    3    0    0 -0.10143496286E+02  0.39020850881E+02  0.14820994977E+03  0.15360894030E+03  0.20000019325E+01 0.  0.
         13    1    3    3    0    0  0.10143496286E+02 -0.39020850881E+02  0.16222364515E+03  0.16715872556E+03  0.10566000000E+00 0. -1.
         13    1    4    4    0    0 -0.24349484679E+01  0.11718893595E+02  0.41564949796E+02  0.43254105663E+02  0.10566000000E+00 0. -1.
        -13    1    4    4    0    0 -0.29416618924E+01  0.96757709600E+01  0.37870258611E+02  0.39197468919E+02  0.10566000000E+00 0.  1.
         14    1    4    4    0    0 -0.47668859261E+01  0.17626186326E+02  0.68774741368E+02  0.71157365719E+02  0.00000000000E+00 0. -1.
<mgrwt>
<rscale>  0 0.80764340E+02</rscale>
<asrwt>0</asrwt>
<pdfrwt beam="1">  1        1 0.48553955E-01 0.80764340E+02</pdfrwt>
<pdfrwt beam="2">  1       -2 0.79492835E-03 0.80764340E+02</pdfrwt>
<totfact> 0.17764292E+05</totfact>
</mgrwt>
</event>
<event>
 8    1  0.8247621E-018  0.8017477E+02  0.7818608E-02  0.1328556E+00
          1   -1    0    0  501    0  0.00000000000E+00  0.00000000000E+00  0.27534938619E+02  0.27534939080E+02  0.50400000000E-02 0. -1.
         -2   -1    0    0    0  501 -0.00000000000E+00 -0.00000000000E+00 -0.58362153117E+02  0.58362153173E+02  0.25500000000E-02 0.  1.
        -24    2    1    2    0    0  0.00000000000E+00 -0.71054273576E-14 -0.30827214498E+02  0.85897092253E+02  0.80174767251E+02 0.  0.
         66    2    3    3    0    0 -0.11291268082E+01 -0.39926144375E+02 -0.18746403242E+02  0.44167856739E+02  0.20000006021E+01 0.  0.
         13    1    3    3    0    0  0.11291268082E+01  0.39926144375E+02 -0.12080811257E+02  0.41729235514E+02  0.10566000000E+00 0. -1.
         13    1    4    4    0    0 -0.16600871299E+00 -0.14681828554E+02 -0.63201851615E+01  0.15985604558E+02  0.10566000000E+00 0. -1.
        -13    1    4    4    0    0 -0.83807040131E+00 -0.14430957856E+02 -0.77276267394E+01  0.16391530914E+02  0.10566000000E+00 0.  1.
        -14    1    4    4    0    0 -0.12504769388E+00 -0.10813357965E+02 -0.46985913408E+01  0.11790721267E+02  0.00000000000E+00 0.  1.
<mgrwt>
<rscale>  0 0.80174767E+02</rscale>
<asrwt>0</asrwt>
<pdfrwt beam="1">  1        1 0.42361445E-02 0.80174767E+02</pdfrwt>
<pdfrwt beam="2">  1       -2 0.89787928E-02 0.80174767E+02</pdfrwt>
<totfact> 0.11834399E+05</totfact>
</mgrwt>
</event>
<event>
 8    1  0.8247621E-018  0.7818741E+02  0.7818608E-02  0.1334275E+00
          1   -1    0    0  501    0  0.00000000000E+00  0.00000000000E+00  0.65330159668E+02  0.65330159862E+02  0.50400000000E-02 0. -1.
         -2   -1    0    0    0  501 -0.00000000000E+00 -0.00000000000E+00 -0.23393752610E+02  0.23393752749E+02  0.25500000000E-02 0.  1.
        -24    2    1    2    0    0 -0.35527136788E-14  0.00000000000E+00  0.41936407058E+02  0.88723912611E+02  0.78187405841E+02 0.  0.
         66    2    3    3    0    0  0.16927486275E+02  0.32533892684E+02  0.57018206714E+01  0.37168598827E+02  0.20000037573E+01 0.  0.
         13    1    3    3    0    0 -0.16927486275E+02 -0.32533892684E+02  0.36234586386E+02  0.51555313784E+02  0.10566000000E+00 0. -1.
         13    1    4    4    0    0  0.84255772712E+00  0.14558201238E+01  0.16040909554E+00  0.16929887389E+01  0.10566000000E+00 0. -1.
        -13    1    4    4    0    0  0.10126257854E+02  0.17752784701E+02  0.29307771952E+01  0.20647108315E+02  0.10566000000E+00 0.  1.
         14    1    4    4    0    0  0.59586706942E+01  0.13325287859E+02  0.26106343807E+01  0.14828501773E+02  0.00000000000E+00 0. -1.
<mgrwt>
<rscale>  0 0.78187406E+02</rscale>
<asrwt>0</asrwt>
<pdfrwt beam="1">  1        1 0.10050794E-01 0.78187406E+02</pdfrwt>
<pdfrwt beam="2">  1       -2 0.35990390E-02 0.78187406E+02</pdfrwt>
<totfact> 0.14610012E+05</totfact>
</mgrwt>
</event>
<event>
 8    1  0.8247621E-018  0.7907674E+02  0.7818608E-02  0.1331692E+00
         -2   -1    0    0    0  501 -0.00000000000E+00  0.00000000000E+00  0.35295678208E+02  0.35295678300E+02  0.25500000000E-02 0.  1.
          1   -1    0    0  501    0  0.00000000000E+00 -0.00000000000E+00 -0.44291054143E+02  0.44291054430E+02  0.50400000000E-02 0. -1.
        -24    2    1    2    0    0  0.71054273576E-14 -0.88817841970E-15 -0.89953759349E+01  0.79586732730E+02  0.79076742715E+02 0.  0.
         66    2    3    3    0    0  0.20087550010E+02 -0.59741005008E+01  0.29212915715E+02  0.36008248852E+02  0.19999996430E+01 0.  0.
         13    1    3    3    0    0 -0.20087550010E+02  0.59741005008E+01 -0.38208291650E+02  0.43578483878E+02  0.10566000000E+00 0. -1.
         13    1    4    4    0    0  0.15811498163E+01 -0.26739148913E+00  0.28029109550E+01  0.32309451879E+01  0.10566000000E+00 0. -1.
        -13    1    4    4    0    0  0.64008494132E+01 -0.13468886566E+01  0.92326159906E+01  0.11315358780E+02  0.10566000000E+00 0.  1.
         14    1    4    4    0    0  0.12105550781E+02 -0.43598203551E+01  0.17177388770E+02  0.21461944884E+02  0.00000000000E+00 0. -1.
<mgrwt>
<rscale>  0 0.79076743E+02</rscale>
<asrwt>0</asrwt>
<pdfrwt beam="1">  1        1 0.68140084E-02 0.79076743E+02</pdfrwt>
<pdfrwt beam="2">  1       -2 0.54301044E-02 0.79076743E+02</pdfrwt>
<totfact> 0.13333179E+05</totfact>
</mgrwt>
</event>
<event>
 8    1  0.8247621E-018  0.8301297E+02  0.7818608E-02  0.1320712E+00
         -2   -1    0    0    0  501 -0.00000000000E+00  0.00000000000E+00  0.94917123671E+01  0.94917127096E+01  0.25500000000E-02 0.  1.
          1   -1    0    0  501    0  0.00000000000E+00 -0.00000000000E+00 -0.18150447192E+03  0.18150447199E+03  0.50400000000E-02 0. -1.
        -24    2    1    2    0    0  0.00000000000E+00  0.00000000000E+00 -0.17201275955E+03  0.19099618470E+03  0.83012969593E+02 0.  0.
         66    2    3    3    0    0  0.40015855040E+02  0.10480797644E+02 -0.93209934432E+02  0.10199611625E+03  0.20000195957E+01 0.  0.
         13    1    3    3    0    0 -0.40015855040E+02 -0.10480797644E+02 -0.78802825117E+02  0.89000068451E+02  0.10566000000E+00 0. -1.
         13    1    4    4    0    0  0.21759882437E+02  0.64611590095E+01 -0.52433535475E+02  0.57136029490E+02  0.10566000000E+00 0. -1.
        -13    1    4    4    0    0  0.10689040472E+02  0.25893998820E+01 -0.23757529895E+02  0.26179991763E+02  0.10566000000E+00 0.  1.
         14    1    4    4    0    0  0.75669321306E+01  0.14302387520E+01 -0.17018869063E+02  0.18680094993E+02  0.00000000000E+00 0. -1.
<mgrwt>
<rscale>  0 0.83012970E+02</rscale>
<asrwt>0</asrwt>
<pdfrwt beam="1">  1        1 0.27923762E-01 0.83012970E+02</pdfrwt>
<pdfrwt beam="2">  1       -2 0.14602636E-02 0.83012970E+02</pdfrwt>
<totfact> 0.14828459E+05</totfact>
</mgrwt>
</event>
<event>
 8    1  0.8247621E-018  0.7956228E+02  0.7818608E-02  0.1330298E+00
         -2   -1    0    0    0  501 -0.00000000000E+00  0.00000000000E+00  0.54584892252E+01  0.54584898209E+01  0.25500000000E-02 0.  1.
          1   -1    0    0  501    0  0.00000000000E+00 -0.00000000000E+00 -0.28992256225E+03  0.28992256229E+03  0.50400000000E-02 0. -1.
        -24    2    1    2    0    0  0.00000000000E+00 -0.17763568394E-14 -0.28446407302E+03  0.29538105211E+03  0.79562284447E+02 0.  0.
         66    2    3    3    0    0  0.35152692656E+02 -0.97732370673E+01 -0.83702167543E+02  0.91330612712E+02  0.20000007910E+01 0.  0.
         13    1    3    3    0    0 -0.35152692656E+02  0.97732370673E+01 -0.20076190548E+03  0.20405043940E+03  0.10566000000E+00 0. -1.
         13    1    4    4    0    0  0.26327985253E+01 -0.55063719164E+00 -0.71439310726E+01  0.76342481356E+01  0.10566000000E+00 0. -1.
        -13    1    4    4    0    0  0.31206927989E+02 -0.86105611089E+01 -0.73300219753E+02  0.80130814902E+02  0.10566000000E+00 0.  1.
        -14    1    4    4    0    0  0.13129661422E+01 -0.61203876677E+00 -0.32580167178E+01  0.35655496738E+01  0.00000000000E+00 0.  1.
<mgrwt>
<rscale>  0 0.79562284E+02</rscale>
<asrwt>0</asrwt>
<pdfrwt beam="1">  1        1 0.44603460E-01 0.79562284E+02</pdfrwt>
<pdfrwt beam="2">  1       -2 0.83976784E-03 0.79562284E+02</pdfrwt>
<totfact> 0.18185289E+05</totfact>
</mgrwt>
</event>
<event>
 8    1  0.8247621E-018  0.7627186E+02  0.7818608E-02  0.1339977E+00
         -2   -1    0    0    0  501 -0.00000000000E+00  0.00000000000E+00  0.59874288382E+03  0.59874288382E+03  0.25500000000E-02 0.  1.
          1   -1    0    0  501    0  0.00000000000E+00 -0.00000000000E+00 -0.24290019435E+01  0.24290071723E+01  0.50400000000E-02 0. -1.
        -24    2    1    2    0    0  0.00000000000E+00  0.00000000000E+00  0.59631388187E+03  0.60117189099E+03  0.76271861175E+02 0.  0.
         66    2    3    3    0    0  0.35187450692E+02 -0.98430604226E+01  0.38372771327E+03  0.38546854663E+03  0.19999961959E+01 0.  0.
         13    1    3    3    0    0 -0.35187450692E+02  0.98430604226E+01  0.21258616860E+03  0.21570334437E+03  0.10566000000E+00 0. -1.
         13    1    4    4    0    0  0.14129438437E+02 -0.41883758413E+01  0.16240742207E+03  0.16307472346E+03  0.10566000000E+00 0.  1.
        -13    1    4    4    0    0  0.17090018246E+02 -0.43103976481E+01  0.17607522640E+03  0.17695520554E+03  0.10566000000E+00 0. -1.
         14    1    4    4    0    0  0.39679940091E+01 -0.13442869333E+01  0.45245064795E+02  0.45438617630E+02  0.00000000000E+00 0. -1.
<mgrwt>
<rscale>  0 0.76271861E+02</rscale>
<asrwt>0</asrwt>
<pdfrwt beam="1">  1        1 0.37369242E-03 0.76271861E+02</pdfrwt>
<pdfrwt beam="2">  1       -2 0.92114435E-01 0.76271861E+02</pdfrwt>
<totfact> 0.49243497E+04</totfact>
</mgrwt>
</event>
<event>
 8    1  0.8247621E-018  0.7970010E+02  0.7818608E-02  0.1329905E+00
         -2   -1    0    0    0  501 -0.00000000000E+00  0.00000000000E+00  0.39750483179E+01  0.39750491358E+01  0.25500000000E-02 0.  1.
          1   -1    0    0  501    0  0.00000000000E+00 -0.00000000000E+00 -0.39949857652E+03  0.39949857656E+03  0.50400000000E-02 0. -1.
        -24    2    1    2    0    0  0.00000000000E+00 -0.35527136788E-14 -0.39552352821E+03  0.40347362569E+03  0.79700095760E+02 0.  0.
         66    2    3    3    0    0  0.28259328221E+02  0.28060601369E+02 -0.19694729394E+03  0.20094333423E+03  0.19999999786E+01 0.  0.
         13    1    3    3    0    0 -0.28259328221E+02 -0.28060601369E+02 -0.19857623426E+03  0.20253029146E+03  0.10566000000E+00 0. -1.
         13    1    4    4    0    0  0.11062888811E+02  0.10978869310E+02 -0.77242103705E+02  0.78798964644E+02  0.10566000000E+00 0.  1.
        -13    1    4    4    0    0  0.50952924651E+01  0.47612483945E+01 -0.31188879875E+02  0.31959175262E+02  0.10566000000E+00 0. -1.
         14    1    4    4    0    0  0.12101146945E+02  0.12320483665E+02 -0.88516310364E+02  0.90185194326E+02  0.00000000000E+00 0. -1.
<mgrwt>
<rscale>  0 0.79700096E+02</rscale>
<asrwt>0</asrwt>
<pdfrwt beam="1">  1        1 0.61461288E-01 0.79700096E+02</pdfrwt>
<pdfrwt beam="2">  1       -2 0.61154628E-03 0.79700096E+02</pdfrwt>
<totfact> 0.19177803E+05</totfact>
</mgrwt>
</event>
<event>
 8    1  0.8247621E-018  0.7950394E+02  0.7818608E-02  0.1330465E+00
          1   -1    0    0  501    0  0.00000000000E+00  0.00000000000E+00  0.33028859302E+02  0.33028859686E+02  0.50400000000E-02 0. -1.
         -2   -1    0    0    0  501 -0.00000000000E+00 -0.00000000000E+00 -0.47843583838E+02  0.47843583906E+02  0.25500000000E-02 0.  1.
        -24    2    1    2    0    0  0.00000000000E+00  0.35527136788E-14 -0.14814724536E+02  0.80872443592E+02  0.79503937446E+02 0.  0.
         66    2    3    3    0    0 -0.27835281099E+02 -0.23678388104E+02 -0.23260501157E+02  0.43364961087E+02  0.19999997384E+01 0.  0.
         13    1    3    3    0    0  0.27835281099E+02  0.23678388104E+02  0.84457766208E+01  0.37507482505E+02  0.10566000000E+00 0. -1.
         13    1    4    4    0    0 -0.21660542369E+01 -0.14038381558E+01 -0.15432390010E+01  0.30092030797E+01  0.10566000000E+00 0. -1.
        -13    1    4    4    0    0 -0.72372133018E+01 -0.66923881273E+01 -0.69341957739E+01  0.12052366999E+02  0.10566000000E+00 0.  1.
         14    1    4    4    0    0 -0.18432013561E+02 -0.15582161821E+02 -0.14783066382E+02  0.28303391008E+02  0.00000000000E+00 0. -1.
<mgrwt>
<rscale>  0 0.79503937E+02</rscale>
<asrwt>0</asrwt>
<pdfrwt beam="1">  1        1 0.50813631E-02 0.79503937E+02</pdfrwt>
<pdfrwt beam="2">  1       -2 0.73605513E-02 0.79503937E+02</pdfrwt>
<totfact> 0.12519102E+05</totfact>
</mgrwt>
</event>
<event>
 8    1  0.8247621E-018  0.8025000E+02  0.7818608E-02  0.1328343E+00
          1   -1    0    0  501    0  0.00000000000E+00  0.00000000000E+00  0.26299893295E+03  0.26299893300E+03  0.50400000000E-02 0. -1.
         -2   -1    0    0    0  501 -0.00000000000E+00 -0.00000000000E+00 -0.61217571031E+01  0.61217576342E+01  0.25500000000E-02 0.  1.
        -24    2    1    2    0    0 -0.35527136788E-14 -0.35527136788E-14  0.25687717585E+03  0.26912069064E+03  0.80250000969E+02 0.  0.
         66    2    3    3    0    0  0.29165008864E+02 -0.19049203728E+02  0.19512945389E+03  0.19822455368E+03  0.19999997820E+01 0.  0.
         13    1    3    3    0    0 -0.29165008864E+02  0.19049203728E+02  0.61747721956E+02  0.70896136957E+02  0.10566000000E+00 0. -1.
         13    1    4    4    0    0  0.66968640986E+01 -0.48474986299E+01  0.43593111639E+02  0.44370224004E+02  0.10566000000E+00 0. -1.
        -13    1    4    4    0    0  0.14601269085E+02 -0.98625774416E+01  0.10116720746E+03  0.10269022602E+03  0.10566000000E+00 0.  1.
         14    1    4    4    0    0  0.78668756802E+01 -0.43391276564E+01  0.50369134800E+02  0.51164103650E+02  0.00000000000E+00 0. -1.
<mgrwt>
<rscale>  0 0.80250001E+02</rscale>
<asrwt>0</asrwt>
<pdfrwt beam="1">  1        1 0.40461362E-01 0.80250001E+02</pdfrwt>
<pdfrwt beam="2">  1       -2 0.94180911E-03 0.80250001E+02</pdfrwt>
<totfact> 0.17443987E+05</totfact>
</mgrwt>
</event>
<event>
 8    1  0.8247621E-018  0.7931689E+02  0.7818608E-02  0.1331001E+00
         -2   -1    0    0    0  501 -0.00000000000E+00  0.00000000000E+00  0.38771752678E+01  0.38771761063E+01  0.25500000000E-02 0.  1.
          1   -1    0    0  501    0  0.00000000000E+00 -0.00000000000E+00 -0.40565409936E+03  0.40565409939E+03  0.50400000000E-02 0. -1.
        -24    2    1    2    0    0 -0.14210854715E-13 -0.35527136788E-14 -0.40177692409E+03  0.40953127549E+03  0.79316888981E+02 0.  0.
         66    2    3    3    0    0  0.33642510722E+02  0.16783413364E+02 -0.26576976323E+03  0.26842330102E+03  0.19999976002E+01 0.  0.
         13    1    3    3    0    0 -0.33642510722E+02 -0.16783413364E+02 -0.13600716086E+03  0.14110797448E+03  0.10566000000E+00 0. -1.
         13    1    4    4    0    0  0.18197689944E+01  0.10168388171E+01 -0.14928553282E+02  0.15073764875E+02  0.10566000000E+00 0.  1.
        -13    1    4    4    0    0  0.50988327883E+00  0.41567069227E-01 -0.38186567682E+01  0.38542200674E+01  0.10566000000E+00 0.  1.
        -14    1    4    4    0    0  0.31312858449E+02  0.15725007477E+02 -0.24702255318E+03  0.24949531607E+03  0.00000000000E+00 0.  1.
<mgrwt>
<rscale>  0 0.79316889E+02</rscale>
<asrwt>0</asrwt>
<pdfrwt beam="1">  1        1 0.62408290E-01 0.79316889E+02</pdfrwt>
<pdfrwt beam="2">  1       -2 0.59648889E-03 0.79316889E+02</pdfrwt>
<totfact> 0.19470195E+05</totfact>
</mgrwt>
</event>
<event>
 8    1  0.8247621E-018  0.7797867E+02  0.7818608E-02  0.1334888E+00
         -2   -1    0    0    0  501 -0.00000000000E+00  0.00000000000E+00  0.84960144113E+02  0.84960144152E+02  0.25500000000E-02 0.  1.
          1   -1    0    0  501    0  0.00000000000E+00 -0.00000000000E+00 -0.17892720718E+02  0.17892721428E+02  0.50400000000E-02 0. -1.
        -24    2    1    2    0    0  0.00000000000E+00  0.00000000000E+00  0.67067423396E+02  0.10285286558E+03  0.77978668089E+02 0.  0.
         66    2    3    3    0    0  0.25073879174E+02 -0.29811706929E+02  0.34679523246E+02  0.52192974867E+02  0.20000014905E+01 0.  0.
         13    1    3    3    0    0 -0.25073879174E+02  0.29811706929E+02  0.32387900149E+02  0.50659890713E+02  0.10566000000E+00 0. -1.
         13    1    4    4    0    0  0.20350454433E+02 -0.24062490067E+02  0.28504438181E+02  0.42493041594E+02  0.10566000000E+00 0. -1.
        -13    1    4    4    0    0  0.37074543179E+01 -0.44429350282E+01  0.51916296693E+01  0.77749001178E+01  0.10566000000E+00 0.  1.
         14    1    4    4    0    0  0.10159704227E+01 -0.13062818347E+01  0.98345539575E+00  0.19250331547E+01  0.00000000000E+00 0. -1.
<mgrwt>
<rscale>  0 0.77978668E+02</rscale>
<asrwt>0</asrwt>
<pdfrwt beam="1">  1        1 0.27527263E-02 0.77978668E+02</pdfrwt>
<pdfrwt beam="2">  1       -2 0.13070792E-01 0.77978668E+02</pdfrwt>
<totfact> 0.11772938E+05</totfact>
</mgrwt>
</event>
<event>
 8    1  0.8247621E-018  0.8048376E+02  0.7818608E-02  0.1327684E+00
         -2   -1    0    0    0  501 -0.00000000000E+00  0.00000000000E+00  0.87865178567E+01  0.87865182268E+01  0.25500000000E-02 0.  1.
          1   -1    0    0  501    0  0.00000000000E+00 -0.00000000000E+00 -0.18430611878E+03  0.18430611885E+03  0.50400000000E-02 0. -1.
        -24    2    1    2    0    0  0.00000000000E+00 -0.35527136788E-14 -0.17551960092E+03  0.19309263707E+03  0.80483763484E+02 0.  0.
         66    2    3    3    0    0  0.29624334825E+02 -0.23940211820E+02 -0.56840720125E+02  0.68451460623E+02  0.20000103363E+01 0.  0.
         13    1    3    3    0    0 -0.29624334825E+02  0.23940211820E+02 -0.11867888080E+03  0.12464117645E+03  0.10566000000E+00 0. -1.
         13    1    4    4    0    0  0.33576012487E+00 -0.16435348969E+00 -0.49791670451E+00  0.63153148081E+00  0.10566000000E+00 0.  1.
        -13    1    4    4    0    0  0.16110883468E+02 -0.12457256163E+02 -0.31283502135E+02  0.37328440459E+02  0.10566000000E+00 0.  1.
        -14    1    4    4    0    0  0.13177691232E+02 -0.11318602168E+02 -0.25059301286E+02  0.30491488684E+02  0.00000000000E+00 0.  1.
<mgrwt>
<rscale>  0 0.80483763E+02</rscale>
<asrwt>0</asrwt>
<pdfrwt beam="1">  1        1 0.28354785E-01 0.80483763E+02</pdfrwt>
<pdfrwt beam="2">  1       -2 0.13517721E-02 0.80483763E+02</pdfrwt>
<totfact> 0.16151568E+05</totfact>
</mgrwt>
</event>
<event>
 8    1  0.8247621E-018  0.8071517E+02  0.7818608E-02  0.1327034E+00
         -2   -1    0    0    0  501 -0.00000000000E+00  0.00000000000E+00  0.52650866742E+03  0.52650866742E+03  0.25500000000E-02 0.  1.
          1   -1    0    0  501    0  0.00000000000E+00 -0.00000000000E+00 -0.30934601501E+01  0.30934642558E+01  0.50400000000E-02 0. -1.
        -24    2    1    2    0    0 -0.35527136788E-14  0.00000000000E+00  0.52341520727E+03  0.52960213168E+03  0.80715170078E+02 0.  0.
         66    2    3    3    0    0  0.26377074434E+02 -0.17321492470E+02  0.42668046956E+03  0.42785044962E+03  0.19999963417E+01 0.  0.
         13    1    3    3    0    0 -0.26377074434E+02  0.17321492470E+02  0.96734737710E+02  0.10175168205E+03  0.10566000000E+00 0. -1.
         13    1    4    4    0    0  0.20486741521E+02 -0.13375204764E+02  0.32750369593E+03  0.32841632830E+03  0.10566000000E+00 0. -1.
        -13    1    4    4    0    0  0.56841502388E+01 -0.38819840490E+01  0.97621255816E+02  0.97863681288E+02  0.10566000000E+00 0.  1.
         14    1    4    4    0    0  0.20618267418E+00 -0.64303657379E-01  0.15555178064E+01  0.15704400344E+01  0.00000000000E+00 0. -1.
<mgrwt>
<rscale>  0 0.80715170E+02</rscale>
<asrwt>0</asrwt>
<pdfrwt beam="1">  1        1 0.47591712E-03 0.80715170E+02</pdfrwt>
<pdfrwt beam="2">  1       -2 0.81001357E-01 0.80715170E+02</pdfrwt>
<totfact> 0.47298619E+04</totfact>
</mgrwt>
</event>
<event>
 8    1  0.8247621E-018  0.8095506E+02  0.7818608E-02  0.1326363E+00
          1   -1    0    0  501    0  0.00000000000E+00  0.00000000000E+00  0.16216562591E+02  0.16216563374E+02  0.50400000000E-02 0. -1.
         -2   -1    0    0    0  501 -0.00000000000E+00 -0.00000000000E+00 -0.10103439446E+03  0.10103439449E+03  0.25500000000E-02 0.  1.
        -24    2    1    2    0    0  0.88817841970E-15  0.71054273576E-14 -0.84817831871E+02  0.11725095787E+03  0.80955064805E+02 0.  0.
         66    2    3    3    0    0 -0.65655127859E+01  0.39770590493E+02 -0.47371830588E+02  0.62232597273E+02  0.20000009479E+01 0.  0.
         13    1    3    3    0    0  0.65655127859E+01 -0.39770590493E+02 -0.37446001283E+02  0.55018360594E+02  0.10566000000E+00 0. -1.
         13    1    4    4    0    0 -0.24594969974E+01  0.12080932479E+02 -0.14535766367E+02  0.19060370484E+02  0.10566000000E+00 0. -1.
        -13    1    4    4    0    0 -0.27529861037E+01  0.15382869594E+02 -0.19140120471E+02  0.24709653683E+02  0.10566000000E+00 0.  1.
         14    1    4    4    0    0 -0.13530296848E+01  0.12306788420E+02 -0.13695943750E+02  0.18462573107E+02  0.00000000000E+00 0. -1.
<mgrwt>
<rscale>  0 0.80955065E+02</rscale>
<asrwt>0</asrwt>
<pdfrwt beam="1">  1        1 0.24948559E-02 0.80955065E+02</pdfrwt>
<pdfrwt beam="2">  1       -2 0.15543753E-01 0.80955065E+02</pdfrwt>
<totfact> 0.10268773E+05</totfact>
</mgrwt>
</event>
<event>
 8    1  0.8247621E-018  0.8442626E+02  0.7818608E-02  0.1316940E+00
          1   -1    0    0  501    0  0.00000000000E+00  0.00000000000E+00  0.64141014129E+02  0.64141014327E+02  0.50400000000E-02 0. -1.
         -2   -1    0    0    0  501 -0.00000000000E+00 -0.00000000000E+00 -0.27781728421E+02  0.27781728538E+02  0.25500000000E-02 0.  1.
        -24    2    1    2    0    0  0.00000000000E+00  0.00000000000E+00  0.36359285708E+02  0.91922742864E+02  0.84426257755E+02 0.  0.
         66    2    3    3    0    0 -0.21030530190E+02 -0.36571713901E+02  0.18638432522E+02  0.46164538579E+02  0.19999993981E+01 0.  0.
         13    1    3    3    0    0  0.21030530190E+02  0.36571713901E+02  0.17720853186E+02  0.45758204285E+02  0.10566000000E+00 0. -1.
         13    1    4    4    0    0 -0.10699921711E+02 -0.18805758816E+02  0.91292483658E+01  0.23484020717E+02  0.10566000000E+00 0. -1.
        -13    1    4    4    0    0 -0.92424178141E+01 -0.15461581697E+02  0.79255303239E+01  0.19680142037E+02  0.10566000000E+00 0.  1.
         14    1    4    4    0    0 -0.10881906648E+01 -0.23043733878E+01  0.15836538321E+01  0.30003758253E+01  0.00000000000E+00 0. -1.
<mgrwt>
<rscale>  0 0.84426258E+02</rscale>
<asrwt>0</asrwt>
<pdfrwt beam="1">  1        1 0.98678482E-02 0.84426258E+02</pdfrwt>
<pdfrwt beam="2">  1       -2 0.42741121E-02 0.84426258E+02</pdfrwt>
<totfact> 0.11791449E+05</totfact>
</mgrwt>
</event>
<event>
 8    1  0.8247621E-018  0.8001037E+02  0.7818608E-02  0.1329022E+00
          1   -1    0    0  501    0  0.00000000000E+00  0.00000000000E+00  0.26388504338E+03  0.26388504343E+03  0.50400000000E-02 0. -1.
         -2   -1    0    0    0  501 -0.00000000000E+00 -0.00000000000E+00 -0.60648175235E+01  0.60648180595E+01  0.25500000000E-02 0.  1.
        -24    2    1    2    0    0  0.35527136788E-14  0.00000000000E+00  0.25782022585E+03  0.26994986149E+03  0.80010367181E+02 0.  0.
         66    2    3    3    0    0  0.23391273452E+02 -0.32001079556E+02  0.11139770110E+03  0.11825679082E+03  0.19999999310E+01 0.  0.
         13    1    3    3    0    0 -0.23391273452E+02  0.32001079556E+02  0.14642252476E+03  0.15169307066E+03  0.10566000000E+00 0. -1.
         13    1    4    4    0    0  0.13166761303E+02 -0.18198464421E+02  0.63666468418E+02  0.67512799345E+02  0.10566000000E+00 0. -1.
        -13    1    4    4    0    0  0.57385588116E+01 -0.67054479541E+01  0.24850521620E+02  0.26371455749E+02  0.10566000000E+00 0.  1.
         14    1    4    4    0    0  0.44859533379E+01 -0.70971671814E+01  0.22880711058E+02  0.24372535729E+02  0.00000000000E+00 0. -1.
<mgrwt>
<rscale>  0 0.80010367E+02</rscale>
<asrwt>0</asrwt>
<pdfrwt beam="1">  1        1 0.40597701E-01 0.80010367E+02</pdfrwt>
<pdfrwt beam="2">  1       -2 0.93304884E-03 0.80010367E+02</pdfrwt>
<totfact> 0.17593931E+05</totfact>
</mgrwt>
</event>
<event>
 8    1  0.8247621E-018  0.7872151E+02  0.7818608E-02  0.1332719E+00
         -2   -1    0    0    0  501 -0.00000000000E+00  0.00000000000E+00  0.16065002726E+03  0.16065002728E+03  0.25500000000E-02 0.  1.
          1   -1    0    0  501    0  0.00000000000E+00 -0.00000000000E+00 -0.96437525631E+01  0.96437538801E+01  0.50400000000E-02 0. -1.
        -24    2    1    2    0    0  0.00000000000E+00  0.00000000000E+00  0.15100627469E+03  0.17029378116E+03  0.78721514873E+02 0.  0.
         66    2    3    3    0    0  0.34585396664E+02  0.18569699381E+02  0.70130279743E+02  0.80394275481E+02  0.19999989467E+01 0.  0.
         13    1    3    3    0    0 -0.34585396664E+02 -0.18569699381E+02  0.80875994951E+02  0.89899505676E+02  0.10566000000E+00 0. -1.
         13    1    4    4    0    0  0.10841813531E+01  0.67750630251E+00  0.26211777477E+01  0.29182530419E+01  0.10566000000E+00 0. -1.
        -13    1    4    4    0    0  0.37984286346E+01  0.15086051643E+01  0.76075940825E+01  0.86365850539E+01  0.10566000000E+00 0.  1.
        -14    1    4    4    0    0  0.29702786676E+02  0.16383587915E+02  0.59901507912E+02  0.68839437385E+02  0.00000000000E+00 0.  1.
<mgrwt>
<rscale>  0 0.78721515E+02</rscale>
<asrwt>0</asrwt>
<pdfrwt beam="1">  1        1 0.14836545E-02 0.78721515E+02</pdfrwt>
<pdfrwt beam="2">  1       -2 0.24715386E-01 0.78721515E+02</pdfrwt>
<totfact> 0.96262580E+04</totfact>
</mgrwt>
</event>
<event>
 8    1  0.8247621E-018  0.8101296E+02  0.7818608E-02  0.1326201E+00
          1   -1    0    0  501    0  0.00000000000E+00  0.00000000000E+00  0.86729145081E+02  0.86729145227E+02  0.50400000000E-02 0. -1.
         -2   -1    0    0    0  501 -0.00000000000E+00 -0.00000000000E+00 -0.18918379187E+02  0.18918379359E+02  0.25500000000E-02 0.  1.
        -24    2    1    2    0    0  0.35527136788E-14 -0.17763568394E-14  0.67810765894E+02  0.10564752459E+03  0.81012958717E+02 0.  0.
         66    2    3    3    0    0  0.21713504534E+02 -0.14033537921E+02 -0.66968057571E+01  0.26781778771E+02  0.20000002665E+01 0.  0.
         13    1    3    3    0    0 -0.21713504534E+02  0.14033537921E+02  0.74507571651E+02  0.78865745816E+02  0.10566000000E+00 0. -1.
         13    1    4    4    0    0  0.35175371098E+01 -0.15977084874E+01 -0.66103324369E+00  0.39209525264E+01  0.10566000000E+00 0. -1.
        -13    1    4    4    0    0  0.12356026258E+02 -0.84159910443E+01 -0.44089245902E+01  0.15586855688E+02  0.10566000000E+00 0.  1.
        -14    1    4    4    0    0  0.58399411656E+01 -0.40198383891E+01 -0.16268479232E+01  0.72739705565E+01  0.00000000000E+00 0.  1.
<mgrwt>
<rscale>  0 0.81012959E+02</rscale>
<asrwt>0</asrwt>
<pdfrwt beam="1">  1        1 0.13342946E-01 0.81012959E+02</pdfrwt>
<pdfrwt beam="2">  1       -2 0.29105199E-02 0.81012959E+02</pdfrwt>
<totfact> 0.13873650E+05</totfact>
</mgrwt>
</event>
<event>
 8    1  0.8247621E-018  0.7957581E+02  0.7818608E-02  0.1330260E+00
          1   -1    0    0  501    0  0.00000000000E+00  0.00000000000E+00  0.10093887744E+03  0.10093887756E+03  0.50400000000E-02 0. -1.
         -2   -1    0    0    0  501 -0.00000000000E+00 -0.00000000000E+00 -0.15683526101E+02  0.15683526308E+02  0.25500000000E-02 0.  1.
        -24    2    1    2    0    0 -0.11102230246E-15  0.00000000000E+00  0.85255351335E+02  0.11662240387E+03  0.79575813871E+02 0.  0.
         66    2    3    3    0    0 -0.56623631328E+00  0.33198369573E+02  0.74716956613E+02  0.81786771348E+02  0.19999990492E+01 0.  0.
         13    1    3    3    0    0  0.56623631328E+00 -0.33198369573E+02  0.10538394722E+02  0.34835632522E+02  0.10566000000E+00 0. -1.
         13    1    4    4    0    0  0.31152856387E+00  0.43974720005E+01  0.10929258179E+02  0.11785357798E+02  0.10566000000E+00 0. -1.
        -13    1    4    4    0    0 -0.56377506684E+00  0.76751301662E+01  0.17775217252E+02  0.19369950382E+02  0.10566000000E+00 0.  1.
         14    1    4    4    0    0 -0.31398981031E+00  0.21125767406E+02  0.46012481182E+02  0.50631463169E+02  0.00000000000E+00 0. -1.
<mgrwt>
<rscale>  0 0.79575814E+02</rscale>
<asrwt>0</asrwt>
<pdfrwt beam="1">  1        1 0.15529058E-01 0.79575814E+02</pdfrwt>
<pdfrwt beam="2">  1       -2 0.24128502E-02 0.79575814E+02</pdfrwt>
<totfact> 0.14935187E+05</totfact>
</mgrwt>
</event>
<event>
 8    1  0.8247621E-018  0.7876231E+02  0.7818608E-02  0.1332601E+00
          1   -1    0    0  501    0  0.00000000000E+00  0.00000000000E+00  0.61931308122E+01  0.61931328630E+01  0.50400000000E-02 0. -1.
         -2   -1    0    0    0  501 -0.00000000000E+00 -0.00000000000E+00 -0.25041858445E+03  0.25041858447E+03  0.25500000000E-02 0.  1.
        -24    2    1    2    0    0  0.00000000000E+00  0.71054273576E-14 -0.24422545364E+03  0.25661171733E+03  0.78762308654E+02 0.  0.
         66    2    3    3    0    0  0.12171539453E+01  0.33420308381E+02 -0.18978871606E+03  0.19272300128E+03  0.20000006887E+01 0.  0.
         13    1    3    3    0    0 -0.12171539453E+01 -0.33420308381E+02 -0.54436737586E+02  0.63888716054E+02  0.10566000000E+00 0. -1.
         13    1    4    4    0    0  0.64723822460E+00  0.67720330652E+01 -0.37454906062E+02  0.38067840775E+02  0.10566000000E+00 0. -1.
        -13    1    4    4    0    0  0.96542886016E+00  0.18174298127E+02 -0.10600993747E+03  0.10756093701E+03  0.10566000000E+00 0.  1.
         14    1    4    4    0    0 -0.39551313947E+00  0.84739771887E+01 -0.46323872528E+02  0.47094223489E+02  0.00000000000E+00 0. -1.
<mgrwt>
<rscale>  0 0.78762309E+02</rscale>
<asrwt>0</asrwt>
<pdfrwt beam="1">  1        1 0.95278971E-03 0.78762309E+02</pdfrwt>
<pdfrwt beam="2">  1       -2 0.38525928E-01 0.78762309E+02</pdfrwt>
<totfact> 0.80217931E+04</totfact>
</mgrwt>
</event>
<event>
 8    1  0.8247621E-018  0.8033361E+02  0.7818608E-02  0.1328107E+00
          1   -1    0    0  501    0  0.00000000000E+00  0.00000000000E+00  0.13685841153E+03  0.13685841162E+03  0.50400000000E-02 0. -1.
         -2   -1    0    0    0  501 -0.00000000000E+00 -0.00000000000E+00 -0.11788624139E+02  0.11788624415E+02  0.25500000000E-02 0.  1.
        -24    2    1    2    0    0  0.00000000000E+00  0.00000000000E+00  0.12506978739E+03  0.14864703604E+03  0.80333614413E+02 0.  0.
         66    2    3    3    0    0 -0.18452130454E+02 -0.12107136949E+02  0.52941029727E+00  0.22166284244E+02  0.19999996367E+01 0.  0.
         13    1    3    3    0    0  0.18452130454E+02  0.12107136949E+02  0.12454037709E+03  0.12648075179E+03  0.10566000000E+00 0. -1.
         13    1    4    4    0    0 -0.25129955886E+01 -0.17722015726E+01 -0.39935573217E+00  0.31026592270E+01  0.10566000000E+00 0. -1.
        -13    1    4    4    0    0 -0.10113880100E+02 -0.67772930253E+01  0.11883611507E+01  0.12232973379E+02  0.10566000000E+00 0.  1.
        -14    1    4    4    0    0 -0.58252547655E+01 -0.35576423509E+01 -0.25959512126E+00  0.68306516385E+01  0.00000000000E+00 0.  1.
<mgrwt>
<rscale>  0 0.80333614E+02</rscale>
<asrwt>0</asrwt>
<pdfrwt beam="1">  1        1 0.21055140E-01 0.80333614E+02</pdfrwt>
<pdfrwt beam="2">  1       -2 0.18136346E-02 0.80333614E+02</pdfrwt>
<totfact> 0.15353943E+05</totfact>
</mgrwt>
</event>
<event>
 8    1  0.8247621E-018  0.7743513E+02  0.7818608E-02  0.1336492E+00
          1   -1    0    0  501    0  0.00000000000E+00  0.00000000000E+00  0.10923757225E+03  0.10923757236E+03  0.50400000000E-02 0. -1.
         -2   -1    0    0    0  501 -0.00000000000E+00 -0.00000000000E+00 -0.13722839758E+02  0.13722839995E+02  0.25500000000E-02 0.  1.
        -24    2    1    2    0    0  0.00000000000E+00  0.00000000000E+00  0.95514732489E+02  0.12296041236E+03  0.77435126945E+02 0.  0.
         66    2    3    3    0    0  0.17213355237E+02 -0.91525061263E+01 -0.52808999563E+01  0.20296696027E+02  0.19999995919E+01 0.  0.
         13    1    3    3    0    0 -0.17213355237E+02  0.91525061263E+01  0.10079563245E+03  0.10266371633E+03  0.10566000000E+00 0. -1.
         13    1    4    4    0    0  0.45349924435E+01 -0.29647894694E+01 -0.10878511730E+01  0.55272703273E+01  0.10566000000E+00 0. -1.
        -13    1    4    4    0    0  0.76825185641E+01 -0.39907395758E+01 -0.19875485602E+01  0.88830516808E+01  0.10566000000E+00 0.  1.
        -14    1    4    4    0    0  0.49958442293E+01 -0.21969770811E+01 -0.22055002232E+01  0.58863740191E+01  0.00000000000E+00 0.  1.
<mgrwt>
<rscale>  0 0.77435127E+02</rscale>
<asrwt>0</asrwt>
<pdfrwt beam="1">  1        1 0.16805780E-01 0.77435127E+02</pdfrwt>
<pdfrwt beam="2">  1       -2 0.21112061E-02 0.77435127E+02</pdfrwt>
<totfact> 0.16288159E+05</totfact>
</mgrwt>
</event>
<event>
 8    1  0.8247621E-018  0.7872389E+02  0.7818608E-02  0.1332712E+00
          1   -1    0    0  501    0  0.00000000000E+00  0.00000000000E+00  0.12722562794E+03  0.12722562804E+03  0.50400000000E-02 0. -1.
         -2   -1    0    0    0  501 -0.00000000000E+00 -0.00000000000E+00 -0.12178070396E+02  0.12178070663E+02  0.25500000000E-02 0.  1.
        -24    2    1    2    0    0  0.00000000000E+00  0.00000000000E+00  0.11504755755E+03  0.13940369870E+03  0.78723889100E+02 0.  0.
         66    2    3    3    0    0  0.22079048896E+02  0.15169955399E+02  0.65525689307E+01  0.27650463110E+02  0.20000009136E+01 0.  0.
         13    1    3    3    0    0 -0.22079048896E+02 -0.15169955399E+02  0.10849498862E+03  0.11175323559E+03  0.10566000000E+00 0. -1.
         13    1    4    4    0    0  0.50514136407E+00  0.47462433583E+00  0.14166269530E+00  0.71531001160E+00  0.10566000000E+00 0.  1.
        -13    1    4    4    0    0  0.29494962857E+01  0.15413033829E+01  0.39014643281E+00  0.33523905995E+01  0.10566000000E+00 0.  1.
        -14    1    4    4    0    0  0.18624411246E+02  0.13154027681E+02  0.60207598026E+01  0.23582762499E+02  0.00000000000E+00 0.  1.
<mgrwt>
<rscale>  0 0.78723889E+02</rscale>
<asrwt>0</asrwt>
<pdfrwt beam="1">  1        1 0.19573175E-01 0.78723889E+02</pdfrwt>
<pdfrwt beam="2">  1       -2 0.18735492E-02 0.78723889E+02</pdfrwt>
<totfact> 0.15998936E+05</totfact>
</mgrwt>
</event>
<event>
 8    1  0.8247621E-018  0.8096269E+02  0.7818608E-02  0.1326341E+00
         -2   -1    0    0    0  501 -0.00000000000E+00  0.00000000000E+00  0.81235872998E+02  0.81235873038E+02  0.25500000000E-02 0.  1.
          1   -1    0    0  501    0  0.00000000000E+00 -0.00000000000E+00 -0.20172606555E+02  0.20172607185E+02  0.50400000000E-02 0. -1.
        -24    2    1    2    0    0  0.00000000000E+00  0.00000000000E+00  0.61063266443E+02  0.10140848022E+03  0.80962691113E+02 0.  0.
         66    2    3    3    0    0 -0.37404592054E+02 -0.17486109989E+01  0.11366681539E+02  0.39183703306E+02  0.20000021001E+01 0.  0.
         13    1    3    3    0    0  0.37404592054E+02  0.17486109989E+01  0.49696584904E+02  0.62224776916E+02  0.10566000000E+00 0. -1.
         13    1    4    4    0    0 -0.23720030759E+02 -0.14278342473E+01  0.78106135551E+01  0.25013904494E+02  0.10566000000E+00 0. -1.
        -13    1    4    4    0    0 -0.13380997981E+02 -0.44287574921E+00  0.34549392104E+01  0.13827328552E+02  0.10566000000E+00 0.  1.
         14    1    4    4    0    0 -0.30356331393E+00  0.12209899759E+00  0.10112877340E+00  0.34247026088E+00  0.00000000000E+00 0. -1.
<mgrwt>
<rscale>  0 0.80962691E+02</rscale>
<asrwt>0</asrwt>
<pdfrwt beam="1">  1        1 0.31034779E-02 0.80962691E+02</pdfrwt>
<pdfrwt beam="2">  1       -2 0.12497827E-01 0.80962691E+02</pdfrwt>
<totfact> 0.10804306E+05</totfact>
</mgrwt>
</event>
<event>
 8    1  0.8247621E-018  0.8040367E+02  0.7818608E-02  0.1327910E+00
          1   -1    0    0  501    0  0.00000000000E+00  0.00000000000E+00  0.21617008822E+02  0.21617009410E+02  0.50400000000E-02 0. -1.
         -2   -1    0    0    0  501 -0.00000000000E+00 -0.00000000000E+00 -0.74764624907E+02  0.74764624950E+02  0.25500000000E-02 0.  1.
        -24    2    1    2    0    0  0.71054273576E-14  0.35527136788E-14 -0.53147616084E+02  0.96381634360E+02  0.80403671225E+02 0.  0.
         66    2    3    3    0    0  0.35244186814E+02 -0.16675395309E+02 -0.38209839045E+02  0.54627953567E+02  0.19999995436E+01 0.  0.
         13    1    3    3    0    0 -0.35244186814E+02  0.16675395309E+02 -0.14937777040E+02  0.41753680794E+02  0.10566000000E+00 0. -1.
         13    1    4    4    0    0  0.99032224427E+01 -0.46735414355E+01 -0.10177624642E+02  0.14950284669E+02  0.10566000000E+00 0. -1.
        -13    1    4    4    0    0  0.44367167371E+01 -0.16082239051E+01 -0.52017487394E+01  0.70242575065E+01  0.10566000000E+00 0.  1.
        -14    1    4    4    0    0  0.20904247634E+02 -0.10393629969E+02 -0.22830465664E+02  0.32653411391E+02  0.00000000000E+00 0.  1.
<mgrwt>
<rscale>  0 0.80403671E+02</rscale>
<asrwt>0</asrwt>
<pdfrwt beam="1">  1        1 0.33256937E-02 0.80403671E+02</pdfrwt>
<pdfrwt beam="2">  1       -2 0.11502250E-01 0.80403671E+02</pdfrwt>
<totfact> 0.11193225E+05</totfact>
</mgrwt>
</event>
<event>
 8    1  0.8247621E-018  0.8116567E+02  0.7818608E-02  0.1325776E+00
          1   -1    0    0  501    0  0.00000000000E+00  0.00000000000E+00  0.86639815285E+01  0.86639829944E+01  0.50400000000E-02 0. -1.
         -2   -1    0    0    0  501 -0.00000000000E+00 -0.00000000000E+00 -0.19009345218E+03  0.19009345220E+03  0.25500000000E-02 0.  1.
        -24    2    1    2    0    0 -0.35527136788E-14 -0.17763568394E-14 -0.18142947065E+03  0.19875743519E+03  0.81165665297E+02 0.  0.
         66    2    3    3    0    0  0.21139579724E+02  0.14749989558E+02 -0.16744905362E+03  0.16943326006E+03  0.20000084808E+01 0.  0.
         13    1    3    3    0    0 -0.21139579724E+02 -0.14749989558E+02 -0.13980417038E+02  0.29324175136E+02  0.10566000000E+00 0. -1.
         13    1    4    4    0    0  0.44874470990E+01  0.37378024337E+01 -0.34787448826E+02  0.35274439873E+02  0.10566000000E+00 0. -1.
        -13    1    4    4    0    0  0.12404744931E+02  0.83560597290E+01 -0.10195255888E+03  0.10304385890E+03  0.10566000000E+00 0.  1.
        -14    1    4    4    0    0  0.42473876936E+01  0.26561273948E+01 -0.30709045914E+02  0.31114961287E+02  0.00000000000E+00 0.  1.
<mgrwt>
<rscale>  0 0.81165665E+02</rscale>
<asrwt>0</asrwt>
<pdfrwt beam="1">  1        1 0.13329205E-02 0.81165665E+02</pdfrwt>
<pdfrwt beam="2">  1       -2 0.29245143E-01 0.81165665E+02</pdfrwt>
<totfact> 0.83634886E+04</totfact>
</mgrwt>
</event>
<event>
 8    1  0.8247621E-018  0.8031662E+02  0.7818608E-02  0.1328155E+00
          1   -1    0    0  501    0  0.00000000000E+00  0.00000000000E+00  0.27414951539E+02  0.27414952002E+02  0.50400000000E-02 0. -1.
         -2   -1    0    0    0  501 -0.00000000000E+00 -0.00000000000E+00 -0.58825197236E+02  0.58825197292E+02  0.25500000000E-02 0.  1.
        -24    2    1    2    0    0  0.00000000000E+00  0.35527136788E-14 -0.31410245697E+02  0.86240149294E+02  0.80316622286E+02 0.  0.
         66    2    3    3    0    0 -0.25342438349E+02 -0.28392321839E+02 -0.29395037192E+02  0.48129319466E+02  0.20000149629E+01 0.  0.
         13    1    3    3    0    0  0.25342438349E+02  0.28392321839E+02 -0.20152085049E+01  0.38110829828E+02  0.10566000000E+00 0. -1.
         13    1    4    4    0    0 -0.20604945309E+01 -0.16208193521E+01 -0.19928495981E+01  0.32947392371E+01  0.10566000000E+00 0. -1.
        -13    1    4    4    0    0 -0.52980651729E+01 -0.57877921517E+01 -0.63047707878E+01  0.10066247130E+02  0.10566000000E+00 0.  1.
         14    1    4    4    0    0 -0.17983878645E+02 -0.20983710335E+02 -0.21097416807E+02  0.34768333098E+02  0.00000000000E+00 0. -1.
<mgrwt>
<rscale>  0 0.80316622E+02</rscale>
<asrwt>0</asrwt>
<pdfrwt beam="1">  1        1 0.42176849E-02 0.80316622E+02</pdfrwt>
<pdfrwt beam="2">  1       -2 0.90500303E-02 0.80316622E+02</pdfrwt>
<totfact> 0.11764449E+05</totfact>
</mgrwt>
</event>
<event>
 8    1  0.8247621E-018  0.7134213E+02  0.7818608E-02  0.1355588E+00
          1   -1    0    0  501    0  0.00000000000E+00  0.00000000000E+00  0.22957655264E+03  0.22957655270E+03  0.50400000000E-02 0. -1.
         -2   -1    0    0    0  501 -0.00000000000E+00 -0.00000000000E+00 -0.55424863139E+01  0.55424869006E+01  0.25500000000E-02 0.  1.
        -24    2    1    2    0    0  0.35527136788E-14  0.00000000000E+00  0.22403406633E+03  0.23511903960E+03  0.71342132754E+02 0.  0.
         66    2    3    3    0    0  0.20121974909E+02 -0.23880712940E+02  0.55477278239E+02  0.63693883044E+02  0.20000029100E+01 0.  0.
         13    1    3    3    0    0 -0.20121974909E+02  0.23880712940E+02  0.16855678809E+03  0.17142515655E+03  0.10566000000E+00 0. -1.
         13    1    4    4    0    0  0.10108305994E+02 -0.12110977563E+02  0.28594190863E+02  0.32657197411E+02  0.10566000000E+00 0.  1.
        -13    1    4    4    0    0  0.72688018459E+01 -0.76944150182E+01  0.18911488168E+02  0.21672449135E+02  0.10566000000E+00 0. -1.
         14    1    4    4    0    0  0.27448670686E+01 -0.40753203581E+01  0.79715992080E+01  0.93642364973E+01  0.00000000000E+00 0. -1.
<mgrwt>
<rscale>  0 0.71342133E+02</rscale>
<asrwt>0</asrwt>
<pdfrwt beam="1">  1        1 0.35319465E-01 0.71342133E+02</pdfrwt>
<pdfrwt beam="2">  1       -2 0.85269036E-03 0.71342133E+02</pdfrwt>
<totfact> 0.23148422E+05</totfact>
</mgrwt>
</event>
<event>
 8    1  0.8247621E-018  0.7898093E+02  0.7818608E-02  0.1331969E+00
          1   -1    0    0  501    0  0.00000000000E+00  0.00000000000E+00  0.74497994869E+01  0.74498011918E+01  0.50400000000E-02 0. -1.
         -2   -1    0    0    0  501 -0.00000000000E+00 -0.00000000000E+00 -0.20933406632E+03  0.20933406633E+03  0.25500000000E-02 0.  1.
        -24    2    1    2    0    0 -0.35527136788E-14  0.00000000000E+00 -0.20188426683E+03  0.21678386753E+03  0.78980934569E+02 0.  0.
         66    2    3    3    0    0 -0.31475275041E+02 -0.23782009759E+02 -0.97981044390E+02  0.10564356104E+03  0.20000008064E+01 0.  0.
         13    1    3    3    0    0  0.31475275041E+02  0.23782009759E+02 -0.10390322244E+03  0.11114030648E+03  0.10566000000E+00 0. -1.
         13    1    4    4    0    0 -0.18915827499E+01 -0.15170826204E+01 -0.50456239329E+01  0.55990275839E+01  0.10566000000E+00 0. -1.
        -13    1    4    4    0    0 -0.10770176142E+02 -0.77607883872E+01 -0.32292544991E+02  0.34914841494E+02  0.10566000000E+00 0.  1.
         14    1    4    4    0    0 -0.18813516149E+02 -0.14504138752E+02 -0.60642875466E+02  0.65129691966E+02  0.00000000000E+00 0. -1.
<mgrwt>
<rscale>  0 0.78980935E+02</rscale>
<asrwt>0</asrwt>
<pdfrwt beam="1">  1        1 0.11461233E-02 0.78980935E+02</pdfrwt>
<pdfrwt beam="2">  1       -2 0.32205237E-01 0.78980935E+02</pdfrwt>
<totfact> 0.86297376E+04</totfact>
</mgrwt>
</event>
<event>
 8    1  0.8247621E-018  0.8485299E+02  0.7818608E-02  0.1315817E+00
          1   -1    0    0  501    0  0.00000000000E+00  0.00000000000E+00  0.62439909538E+02  0.62439909741E+02  0.50400000000E-02 0. -1.
         -2   -1    0    0    0  501 -0.00000000000E+00 -0.00000000000E+00 -0.28827837481E+02  0.28827837594E+02  0.25500000000E-02 0.  1.
        -24    2    1    2    0    0 -0.35527136788E-14 -0.17763568394E-14  0.33612072057E+02  0.91267747335E+02  0.84852992379E+02 0.  0.
         66    2    3    3    0    0  0.23748187009E+02  0.15724388179E+02 -0.16972311175E+02  0.33215841589E+02  0.20000040145E+01 0.  0.
         13    1    3    3    0    0 -0.23748187009E+02 -0.15724388179E+02  0.50584383231E+02  0.58051905746E+02  0.10566000000E+00 0. -1.
         13    1    4    4    0    0  0.80334376426E+01  0.45864913829E+01 -0.50530622562E+01  0.10541187114E+02  0.10566000000E+00 0.  1.
        -13    1    4    4    0    0  0.13883847523E+01  0.70391881056E+00 -0.81674251000E+00  0.17610639612E+01  0.10566000000E+00 0.  1.
        -14    1    4    4    0    0  0.14326364614E+02  0.10433977985E+02 -0.11102506409E+02  0.20913590515E+02  0.00000000000E+00 0.  1.
<mgrwt>
<rscale>  0 0.84852992E+02</rscale>
<asrwt>0</asrwt>
<pdfrwt beam="1">  1        1 0.96061399E-02 0.84852992E+02</pdfrwt>
<pdfrwt beam="2">  1       -2 0.44350520E-02 0.84852992E+02</pdfrwt>
<totfact> 0.11576389E+05</totfact>
</mgrwt>
</event>
<event>
 8    1  0.8247621E-018  0.8012210E+02  0.7818608E-02  0.1328705E+00
          1   -1    0    0  501    0  0.00000000000E+00  0.00000000000E+00  0.30060474860E+03  0.30060474865E+03  0.50400000000E-02 0. -1.
         -2   -1    0    0    0  501 -0.00000000000E+00 -0.00000000000E+00 -0.53388628591E+01  0.53388634680E+01  0.25500000000E-02 0.  1.
        -24    2    1    2    0    0  0.35527136788E-14  0.35527136788E-14  0.29526588575E+03  0.30594361212E+03  0.80122097506E+02 0.  0.
         66    2    3    3    0    0  0.27731600097E+02  0.26399360103E+02  0.10304455998E+03  0.10994611952E+03  0.19999999268E+01 0.  0.
         13    1    3    3    0    0 -0.27731600097E+02 -0.26399360103E+02  0.19222132577E+03  0.19599749259E+03  0.10566000000E+00 0. -1.
         13    1    4    4    0    0  0.18418055032E+01  0.16163986242E+01  0.71966300057E+01  0.76031335315E+01  0.10566000000E+00 0.  1.
        -13    1    4    4    0    0  0.20261839602E+02  0.19394430491E+02  0.72992735312E+02  0.78196142172E+02  0.10566000000E+00 0.  1.
        -14    1    4    4    0    0  0.56279549919E+01  0.53885309880E+01  0.22855194659E+02  0.24146843821E+02  0.00000000000E+00 0.  1.
<mgrwt>
<rscale>  0 0.80122098E+02</rscale>
<asrwt>0</asrwt>
<pdfrwt beam="1">  1        1 0.46246884E-01 0.80122098E+02</pdfrwt>
<pdfrwt beam="2">  1       -2 0.82136358E-03 0.80122098E+02</pdfrwt>
<totfact> 0.17976102E+05</totfact>
</mgrwt>
</event>
<event>
 8    1  0.8247621E-018  0.8027145E+02  0.7818608E-02  0.1328283E+00
          1   -1    0    0  501    0  0.00000000000E+00  0.00000000000E+00  0.51642905731E+01  0.51642930325E+01  0.50400000000E-02 0. -1.
         -2   -1    0    0    0  501 -0.00000000000E+00 -0.00000000000E+00 -0.31192588840E+03  0.31192588841E+03  0.25500000000E-02 0.  1.
        -24    2    1    2    0    0  0.00000000000E+00  0.00000000000E+00 -0.30676159782E+03  0.31709018144E+03  0.80271447390E+02 0.  0.
         66    2    3    3    0    0 -0.33990901116E+02 -0.19252253939E+02 -0.18942945082E+03  0.19342581905E+03  0.19999993157E+01 0.  0.
         13    1    3    3    0    0  0.33990901116E+02  0.19252253939E+02 -0.11733214700E+03  0.12366436239E+03  0.10566000000E+00 0. -1.
         13    1    4    4    0    0 -0.27993809196E+01 -0.20990248446E+01 -0.16111560152E+02  0.16487448966E+02  0.10566000000E+00 0. -1.
        -13    1    4    4    0    0 -0.18144736741E+02 -0.10289373876E+02 -0.10347856288E+03  0.10556006265E+03  0.10566000000E+00 0.  1.
        -14    1    4    4    0    0 -0.13046783455E+02 -0.68638552179E+01 -0.69839327786E+02  0.71378307437E+02  0.00000000000E+00 0.  1.
<mgrwt>
<rscale>  0 0.80271447E+02</rscale>
<asrwt>0</asrwt>
<pdfrwt beam="1">  1        1 0.79450668E-03 0.80271447E+02</pdfrwt>
<pdfrwt beam="2">  1       -2 0.47988584E-01 0.80271447E+02</pdfrwt>
<totfact> 0.68175896E+04</totfact>
</mgrwt>
</event>
<event>
 8    1  0.8247621E-018  0.8266666E+02  0.7818608E-02  0.1321650E+00
          1   -1    0    0  501    0  0.00000000000E+00  0.00000000000E+00  0.10922446029E+03  0.10922446041E+03  0.50400000000E-02 0. -1.
         -2   -1    0    0    0  501 -0.00000000000E+00 -0.00000000000E+00 -0.15641590264E+02  0.15641590471E+02  0.25500000000E-02 0.  1.
        -24    2    1    2    0    0  0.71054273576E-14  0.00000000000E+00  0.93582870029E+02  0.12486605088E+03  0.82666662565E+02 0.  0.
         66    2    3    3    0    0  0.35361464519E+02 -0.21143438765E+02  0.42297120925E+02  0.59080661918E+02  0.19999995847E+01 0.  0.
         13    1    3    3    0    0 -0.35361464519E+02  0.21143438765E+02  0.51285749104E+02  0.65785388962E+02  0.10566000000E+00 0. -1.
         13    1    4    4    0    0  0.17533768954E+02 -0.10610017559E+02  0.20082185211E+02  0.28693393895E+02  0.10566000000E+00 0. -1.
        -13    1    4    4    0    0  0.12437774650E+02 -0.68237539834E+01  0.14946615358E+02  0.20607627990E+02  0.10566000000E+00 0.  1.
         14    1    4    4    0    0  0.53899209154E+01 -0.37096672220E+01  0.72683203563E+01  0.97796400329E+01  0.00000000000E+00 0. -1.
<mgrwt>
<rscale>  0 0.82666663E+02</rscale>
<asrwt>0</asrwt>
<pdfrwt beam="1">  1        1 0.16803763E-01 0.82666663E+02</pdfrwt>
<pdfrwt beam="2">  1       -2 0.24063986E-02 0.82666663E+02</pdfrwt>
<totfact> 0.13656382E+05</totfact>
</mgrwt>
</event>
<event>
 8    1  0.8247621E-018  0.8021240E+02  0.7818608E-02  0.1328450E+00
          1   -1    0    0  501    0  0.00000000000E+00  0.00000000000E+00  0.92878535226E+01  0.92878548900E+01  0.50400000000E-02 0. -1.
         -2   -1    0    0    0  501 -0.00000000000E+00 -0.00000000000E+00 -0.17318395718E+03  0.17318395720E+03  0.25500000000E-02 0.  1.
        -24    2    1    2    0    0  0.00000000000E+00  0.17763568394E-14 -0.16389610366E+03  0.18247181209E+03  0.80212401864E+02 0.  0.
         66    2    3    3    0    0  0.20736201883E+02  0.14374911440E+02 -0.15284430860E+03  0.15492582353E+03  0.19999946811E+01 0.  0.
         13    1    3    3    0    0 -0.20736201883E+02 -0.14374911440E+02 -0.11051795057E+02  0.27545988555E+02  0.10566000000E+00 0. -1.
         13    1    4    4    0    0  0.26312050316E+01  0.18084170732E+01 -0.17004972357E+02  0.17302423562E+02  0.10566000000E+00 0. -1.
        -13    1    4    4    0    0  0.37514028386E+01  0.25629645894E+01 -0.31844107256E+02  0.32166755225E+02  0.10566000000E+00 0.  1.
        -14    1    4    4    0    0  0.14353594013E+02  0.10003529777E+02 -0.10399522899E+03  0.10545664475E+03  0.00000000000E+00 0.  1.
<mgrwt>
<rscale>  0 0.80212402E+02</rscale>
<asrwt>0</asrwt>
<pdfrwt beam="1">  1        1 0.14289008E-02 0.80212402E+02</pdfrwt>
<pdfrwt beam="2">  1       -2 0.26643683E-01 0.80212402E+02</pdfrwt>
<totfact> 0.89312172E+04</totfact>
</mgrwt>
</event>
<event>
 8    1  0.8247621E-018  0.7966816E+02  0.7818608E-02  0.1329996E+00
         -2   -1    0    0    0  501 -0.00000000000E+00  0.00000000000E+00  0.73552189493E+02  0.73552189537E+02  0.25500000000E-02 0.  1.
          1   -1    0    0  501    0  0.00000000000E+00 -0.00000000000E+00 -0.21573172780E+02  0.21573173369E+02  0.50400000000E-02 0. -1.
        -24    2    1    2    0    0  0.00000000000E+00  0.17763568394E-14  0.51979016713E+02  0.95125362906E+02  0.79668164844E+02 0.  0.
         66    2    3    3    0    0  0.16950024110E+02 -0.12079337158E+02  0.66524044318E+02  0.69732791245E+02  0.19999997022E+01 0.  0.
         13    1    3    3    0    0 -0.16950024110E+02  0.12079337158E+02 -0.14545027605E+02  0.25392571661E+02  0.10566000000E+00 0. -1.
         13    1    4    4    0    0  0.40533268976E+01 -0.31496391906E+01  0.14782087431E+02  0.15648353230E+02  0.10566000000E+00 0.  1.
        -13    1    4    4    0    0  0.61284149964E+01 -0.34306482464E+01  0.23105005603E+02  0.24149104864E+02  0.10566000000E+00 0. -1.
         14    1    4    4    0    0  0.67682822156E+01 -0.54990497210E+01  0.28636951284E+02  0.29935333151E+02  0.00000000000E+00 0. -1.
<mgrwt>
<rscale>  0 0.79668165E+02</rscale>
<asrwt>0</asrwt>
<pdfrwt beam="1">  1        1 0.33189497E-02 0.79668165E+02</pdfrwt>
<pdfrwt beam="2">  1       -2 0.11315721E-01 0.79668165E+02</pdfrwt>
<totfact> 0.11496844E+05</totfact>
</mgrwt>
</event>
<event>
 8    1  0.8247621E-018  0.7943698E+02  0.7818608E-02  0.1330657E+00
         -2   -1    0    0    0  501 -0.00000000000E+00  0.00000000000E+00  0.11096662575E+03  0.11096662577E+03  0.25500000000E-02 0.  1.
          1   -1    0    0  501    0  0.00000000000E+00 -0.00000000000E+00 -0.14216510747E+02  0.14216511640E+02  0.50400000000E-02 0. -1.
        -24    2    1    2    0    0  0.00000000000E+00  0.00000000000E+00  0.96750114999E+02  0.12518313741E+03  0.79436975904E+02 0.  0.
         66    2    3    3    0    0 -0.23060918001E+02 -0.54328153553E+01  0.98592697576E+02  0.10141913741E+03  0.19999988613E+01 0.  0.
         13    1    3    3    0    0  0.23060918001E+02  0.54328153553E+01 -0.18425825774E+01  0.23764000007E+02  0.10566000000E+00 0. -1.
         13    1    4    4    0    0 -0.11993151886E+02 -0.30477807018E+01  0.48905311962E+02  0.50446658576E+02  0.10566000000E+00 0. -1.
        -13    1    4    4    0    0 -0.77912094160E+01 -0.21769318223E+01  0.35265813080E+02  0.36181911400E+02  0.10566000000E+00 0.  1.
         14    1    4    4    0    0 -0.32765566987E+01 -0.20810283118E+00  0.14421572534E+02  0.14790567432E+02  0.00000000000E+00 0. -1.
<mgrwt>
<rscale>  0 0.79436976E+02</rscale>
<asrwt>0</asrwt>
<pdfrwt beam="1">  1        1 0.21871556E-02 0.79436976E+02</pdfrwt>
<pdfrwt beam="2">  1       -2 0.17071789E-01 0.79436976E+02</pdfrwt>
<totfact> 0.10521638E+05</totfact>
</mgrwt>
</event>
<event>
 8    1  0.8247621E-018  0.8039573E+02  0.7818608E-02  0.1327932E+00
          1   -1    0    0  501    0  0.00000000000E+00  0.00000000000E+00  0.49846135044E+02  0.49846135298E+02  0.50400000000E-02 0. -1.
         -2   -1    0    0    0  501 -0.00000000000E+00 -0.00000000000E+00 -0.32417125854E+02  0.32417125954E+02  0.25500000000E-02 0.  1.
        -24    2    1    2    0    0  0.00000000000E+00  0.00000000000E+00  0.17429009190E+02  0.82263261252E+02  0.80395732415E+02 0.  0.
         66    2    3    3    0    0 -0.34269901564E+02 -0.10577460622E+02 -0.97990016147E+01  0.37233442656E+02  0.19999982286E+01 0.  0.
         13    1    3    3    0    0  0.34269901564E+02  0.10577460622E+02  0.27228010805E+02  0.45029818597E+02  0.10566000000E+00 0. -1.
         13    1    4    4    0    0 -0.11974418089E+02 -0.35940515869E+01 -0.41013254037E+01  0.13158112687E+02  0.10566000000E+00 0.  1.
        -13    1    4    4    0    0 -0.15820639816E+02 -0.53762707459E+01 -0.43976474701E+01  0.17278524203E+02  0.10566000000E+00 0. -1.
        -14    1    4    4    0    0 -0.64748436592E+01 -0.16071382893E+01 -0.13000287410E+01  0.67968057659E+01  0.00000000000E+00 0.  1.
<mgrwt>
<rscale>  0 0.80395732E+02</rscale>
<asrwt>0</asrwt>
<pdfrwt beam="1">  1        1 0.76686362E-02 0.80395732E+02</pdfrwt>
<pdfrwt beam="2">  1       -2 0.49872502E-02 0.80395732E+02</pdfrwt>
<totfact> 0.12971361E+05</totfact>
</mgrwt>
</event>
<event>
 8    1  0.8247621E-018  0.7702925E+02  0.7818608E-02  0.1337700E+00
          1   -1    0    0  501    0  0.00000000000E+00  0.00000000000E+00  0.92079127266E+01  0.92079141059E+01  0.50400000000E-02 0. -1.
         -2   -1    0    0    0  501 -0.00000000000E+00 -0.00000000000E+00 -0.16109799505E+03  0.16109799507E+03  0.25500000000E-02 0.  1.
        -24    2    1    2    0    0  0.00000000000E+00  0.00000000000E+00 -0.15189008232E+03  0.17030590917E+03  0.77029251535E+02 0.  0.
         66    2    3    3    0    0 -0.10014640675E+02  0.13539681066E+01 -0.15810585598E+03  0.15844111825E+03  0.19999996035E+01 0.  0.
         13    1    3    3    0    0  0.10014640675E+02 -0.13539681066E+01  0.62157736604E+01  0.11864790926E+02  0.10566000000E+00 0. -1.
         13    1    4    4    0    0 -0.43556568186E+01  0.83173462856E+00 -0.56586716826E+02  0.56760296106E+02  0.10566000000E+00 0. -1.
        -13    1    4    4    0    0 -0.34277652687E+01  0.40013555351E+00 -0.55275766950E+02  0.55383492659E+02  0.10566000000E+00 0.  1.
         14    1    4    4    0    0 -0.22312185880E+01  0.12209792455E+00 -0.46243372205E+02  0.46297329482E+02  0.00000000000E+00 0. -1.
<mgrwt>
<rscale>  0 0.77029252E+02</rscale>
<asrwt>0</asrwt>
<pdfrwt beam="1">  1        1 0.14166022E-02 0.77029252E+02</pdfrwt>
<pdfrwt beam="2">  1       -2 0.24784305E-01 0.77029252E+02</pdfrwt>
<totfact> 0.10169720E+05</totfact>
</mgrwt>
</event>
<event>
 8    1  0.8247621E-018  0.7828036E+02  0.7818608E-02  0.1334004E+00
         -2   -1    0    0    0  501 -0.00000000000E+00  0.00000000000E+00  0.14645601428E+02  0.14645601650E+02  0.25500000000E-02 0.  1.
          1   -1    0    0  501    0  0.00000000000E+00 -0.00000000000E+00 -0.10460161393E+03  0.10460161405E+03  0.50400000000E-02 0. -1.
        -24    2    1    2    0    0 -0.71054273576E-14  0.00000000000E+00 -0.89956012502E+02  0.11924721570E+03  0.78280356843E+02 0.  0.
         66    2    3    3    0    0 -0.32961106086E+02 -0.13632309387E+02 -0.69460217802E+02  0.78108874243E+02  0.20000011656E+01 0.  0.
         13    1    3    3    0    0  0.32961106086E+02  0.13632309387E+02 -0.20495794699E+02  0.41138341459E+02  0.10566000000E+00 0. -1.
         13    1    4    4    0    0 -0.20443750741E+01 -0.11559198050E+01 -0.46686276653E+01  0.52271281171E+01  0.10566000000E+00 0.  1.
        -13    1    4    4    0    0 -0.17030606643E+02 -0.67311107861E+01 -0.33968247461E+02  0.38590185470E+02  0.10566000000E+00 0. -1.
         14    1    4    4    0    0 -0.13886124369E+02 -0.57452787962E+01 -0.30823342676E+02  0.34291560655E+02  0.00000000000E+00 0. -1.
<mgrwt>
<rscale>  0 0.78280357E+02</rscale>
<asrwt>0</asrwt>
<pdfrwt beam="1">  1        1 0.16092556E-01 0.78280357E+02</pdfrwt>
<pdfrwt beam="2">  1       -2 0.22531695E-02 0.78280357E+02</pdfrwt>
<totfact> 0.15704606E+05</totfact>
</mgrwt>
</event>
<event>
 8    1  0.8247621E-018  0.8099933E+02  0.7818608E-02  0.1326239E+00
         -2   -1    0    0    0  501 -0.00000000000E+00  0.00000000000E+00  0.89587841638E+01  0.89587845267E+01  0.25500000000E-02 0.  1.
          1   -1    0    0  501    0  0.00000000000E+00 -0.00000000000E+00 -0.18308541573E+03  0.18308541580E+03  0.50400000000E-02 0. -1.
        -24    2    1    2    0    0 -0.71054273576E-14  0.44408920985E-15 -0.17412663156E+03  0.19204420032E+03  0.80999327517E+02 0.  0.
         66    2    3    3    0    0  0.36181233449E+02 -0.20336958788E+01 -0.12985891394E+03  0.13483528878E+03  0.19999991582E+01 0.  0.
         13    1    3    3    0    0 -0.36181233449E+02  0.20336958788E+01 -0.44267717620E+02  0.57208911545E+02  0.10566000000E+00 0. -1.
         13    1    4    4    0    0  0.11552319431E+02 -0.12730248987E+01 -0.42730909372E+02  0.44283388041E+02  0.10566000000E+00 0. -1.
        -13    1    4    4    0    0  0.20055146361E+02 -0.19584037849E+00 -0.70813498622E+02  0.73598980972E+02  0.10566000000E+00 0.  1.
        -14    1    4    4    0    0  0.45737676567E+01 -0.56483060159E+00 -0.16314505949E+02  0.16952919764E+02  0.00000000000E+00 0.  1.
<mgrwt>
<rscale>  0 0.80999328E+02</rscale>
<asrwt>0</asrwt>
<pdfrwt beam="1">  1        1 0.28166984E-01 0.80999328E+02</pdfrwt>
<pdfrwt beam="2">  1       -2 0.13782746E-02 0.80999328E+02</pdfrwt>
<totfact> 0.15858986E+05</totfact>
</mgrwt>
</event>
<event>
 8    1  0.8247621E-018  0.7913809E+02  0.7818608E-02  0.1331515E+00
         -2   -1    0    0    0  501 -0.00000000000E+00  0.00000000000E+00  0.13178231730E+02  0.13178231977E+02  0.25500000000E-02 0.  1.
          1   -1    0    0  501    0  0.00000000000E+00 -0.00000000000E+00 -0.11881028030E+03  0.11881028041E+03  0.50400000000E-02 0. -1.
        -24    2    1    2    0    0  0.00000000000E+00  0.00000000000E+00 -0.10563204857E+03  0.13198851238E+03  0.79138092700E+02 0.  0.
         66    2    3    3    0    0  0.29738782204E+02  0.12255231177E+02 -0.14485380869E+02  0.35332875946E+02  0.20000013800E+01 0.  0.
         13    1    3    3    0    0 -0.29738782204E+02 -0.12255231177E+02 -0.91146667701E+02  0.96655636438E+02  0.10566000000E+00 0. -1.
         13    1    4    4    0    0  0.19401908534E+02  0.76206758054E+01 -0.96136066082E+01  0.22955203126E+02  0.10566000000E+00 0. -1.
        -13    1    4    4    0    0  0.81896096116E+01  0.40174436614E+01 -0.42130260831E+01  0.10048398478E+02  0.10566000000E+00 0.  1.
         14    1    4    4    0    0  0.21472640587E+01  0.61711171004E+00 -0.65874817810E+00  0.23292743425E+01  0.00000000000E+00 0. -1.
<mgrwt>
<rscale>  0 0.79138093E+02</rscale>
<asrwt>0</asrwt>
<pdfrwt beam="1">  1        1 0.18278504E-01 0.79138093E+02</pdfrwt>
<pdfrwt beam="2">  1       -2 0.20274204E-02 0.79138093E+02</pdfrwt>
<totfact> 0.15587098E+05</totfact>
</mgrwt>
</event>
<event>
 8    1  0.8247621E-018  0.7810043E+02  0.7818608E-02  0.1334530E+00
          1   -1    0    0  501    0  0.00000000000E+00  0.00000000000E+00  0.31347694213E+02  0.31347694618E+02  0.50400000000E-02 0. -1.
         -2   -1    0    0    0  501 -0.00000000000E+00 -0.00000000000E+00 -0.48645345934E+02  0.48645346001E+02  0.25500000000E-02 0.  1.
        -24    2    1    2    0    0  0.00000000000E+00  0.35527136788E-14 -0.17297651721E+02  0.79993040619E+02  0.78100434009E+02 0.  0.
         66    2    3    3    0    0  0.23338724146E+02  0.31021964135E+02 -0.45759996648E+01  0.39140746943E+02  0.19999986993E+01 0.  0.
         13    1    3    3    0    0 -0.23338724146E+02 -0.31021964135E+02 -0.12721652056E+02  0.40852293676E+02  0.10566000000E+00 0. -1.
         13    1    4    4    0    0  0.84552799152E+00  0.10518699449E+01  0.71546391301E-01  0.13555924487E+01  0.10566000000E+00 0. -1.
        -13    1    4    4    0    0  0.20322818745E+02  0.27713273622E+02 -0.43224978407E+01  0.34637229223E+02  0.10566000000E+00 0.  1.
        -14    1    4    4    0    0  0.21703774099E+01  0.22568205674E+01 -0.32504821539E+00  0.31479252718E+01  0.00000000000E+00 0.  1.
<mgrwt>
<rscale>  0 0.78100434E+02</rscale>
<asrwt>0</asrwt>
<pdfrwt beam="1">  1        1 0.48227222E-02 0.78100434E+02</pdfrwt>
<pdfrwt beam="2">  1       -2 0.74838994E-02 0.78100434E+02</pdfrwt>
<totfact> 0.13054865E+05</totfact>
</mgrwt>
</event>
<event>
 8    1  0.8247621E-018  0.8005123E+02  0.7818608E-02  0.1328906E+00
         -2   -1    0    0    0  501 -0.00000000000E+00  0.00000000000E+00  0.42564436194E+03  0.42564436195E+03  0.25500000000E-02 0.  1.
          1   -1    0    0  501    0  0.00000000000E+00 -0.00000000000E+00 -0.37638207101E+01  0.37638240845E+01  0.50400000000E-02 0. -1.
        -24    2    1    2    0    0 -0.17763568394E-14  0.55511151231E-16  0.42188054123E+03  0.42940818603E+03  0.80051228367E+02 0.  0.
         66    2    3    3    0    0  0.11435291018E+02 -0.28014354345E+00  0.41668091636E+03  0.41684269265E+03  0.19999998311E+01 0.  0.
         13    1    3    3    0    0 -0.11435291018E+02  0.28014354345E+00  0.51996248739E+01  0.12565493382E+02  0.10566000000E+00 0. -1.
         13    1    4    4    0    0  0.53699471910E+01  0.19993974529E+00  0.16472699103E+03  0.16481465058E+03  0.10566000000E+00 0. -1.
        -13    1    4    4    0    0  0.35605519543E+01 -0.44271504164E+00  0.13898190833E+03  0.13902825444E+03  0.10566000000E+00 0.  1.
         14    1    4    4    0    0  0.25047918729E+01 -0.37368247102E-01  0.11297201700E+03  0.11299978762E+03  0.00000000000E+00 0. -1.
<mgrwt>
<rscale>  0 0.80051228E+02</rscale>
<asrwt>0</asrwt>
<pdfrwt beam="1">  1        1 0.57905003E-03 0.80051228E+02</pdfrwt>
<pdfrwt beam="2">  1       -2 0.65483700E-01 0.80051228E+02</pdfrwt>
<totfact> 0.56566250E+04</totfact>
</mgrwt>
</event>
<event>
 8    1  0.8247621E-018  0.8019847E+02  0.7818608E-02  0.1328489E+00
          1   -1    0    0  501    0  0.00000000000E+00  0.00000000000E+00  0.31342755930E+02  0.31342756335E+02  0.50400000000E-02 0. -1.
         -2   -1    0    0    0  501 -0.00000000000E+00 -0.00000000000E+00 -0.51302075836E+02  0.51302075900E+02  0.25500000000E-02 0.  1.
        -24    2    1    2    0    0  0.00000000000E+00  0.17763568394E-14 -0.19959319906E+02  0.82644832235E+02  0.80198465347E+02 0.  0.
         66    2    3    3    0    0  0.16991777376E+02  0.15714378774E+02 -0.43698943183E+02  0.49489997353E+02  0.20000010136E+01 0.  0.
         13    1    3    3    0    0 -0.16991777376E+02 -0.15714378774E+02  0.23739623277E+02  0.33154834882E+02  0.10566000000E+00 0. -1.
         13    1    4    4    0    0  0.71695434913E+01  0.57406721519E+01 -0.18478215495E+02  0.20635243699E+02  0.10566000000E+00 0. -1.
        -13    1    4    4    0    0  0.49743523200E+01  0.47280672015E+01 -0.11766398272E+02  0.13621970959E+02  0.10566000000E+00 0.  1.
        -14    1    4    4    0    0  0.48478815647E+01  0.52456394202E+01 -0.13454329417E+02  0.15232782695E+02  0.00000000000E+00 0.  1.
<mgrwt>
<rscale>  0 0.80198465E+02</rscale>
<asrwt>0</asrwt>
<pdfrwt beam="1">  1        1 0.48219625E-02 0.80198465E+02</pdfrwt>
<pdfrwt beam="2">  1       -2 0.78926271E-02 0.80198465E+02</pdfrwt>
<totfact> 0.12101960E+05</totfact>
</mgrwt>
</event>
<event>
 8    1  0.8247621E-018  0.7028623E+02  0.7818608E-02  0.1359122E+00
          1   -1    0    0  501    0  0.00000000000E+00  0.00000000000E+00  0.69440881781E+02  0.69440881964E+02  0.50400000000E-02 0. -1.
         -2   -1    0    0    0  501 -0.00000000000E+00 -0.00000000000E+00 -0.17785468972E+02  0.17785469155E+02  0.25500000000E-02 0.  1.
        -24    2    1    2    0    0  0.00000000000E+00  0.00000000000E+00  0.51655412809E+02  0.87226351119E+02  0.70286233767E+02 0.  0.
         66    2    3    3    0    0  0.16858136830E+02  0.97836282340E+01 -0.10399261448E+02  0.22182443487E+02  0.20000003993E+01 0.  0.
         13    1    3    3    0    0 -0.16858136830E+02 -0.97836282340E+01  0.62054674257E+02  0.65043907632E+02  0.10566000000E+00 0. -1.
         13    1    4    4    0    0  0.94470673130E+00  0.10279495944E+01 -0.49431217340E+00  0.14848096636E+01  0.10566000000E+00 0. -1.
        -13    1    4    4    0    0  0.66735736822E+01  0.36308090676E+01 -0.44778513096E+01  0.88193920745E+01  0.10566000000E+00 0.  1.
        -14    1    4    4    0    0  0.92398564169E+01  0.51248695720E+01 -0.54270979650E+01  0.11878241749E+02  0.00000000000E+00 0.  1.
<mgrwt>
<rscale>  0 0.70286234E+02</rscale>
<asrwt>0</asrwt>
<pdfrwt beam="1">  1        1 0.10683213E-01 0.70286234E+02</pdfrwt>
<pdfrwt beam="2">  1       -2 0.27362260E-02 0.70286234E+02</pdfrwt>
<totfact> 0.19673826E+05</totfact>
</mgrwt>
</event>
<event>
 8    1  0.8247621E-018  0.8065563E+02  0.7818608E-02  0.1327201E+00
          1   -1    0    0  501    0  0.00000000000E+00  0.00000000000E+00  0.22474355410E+02  0.22474355975E+02  0.50400000000E-02 0. -1.
         -2   -1    0    0    0  501 -0.00000000000E+00 -0.00000000000E+00 -0.72363920520E+02  0.72363920565E+02  0.25500000000E-02 0.  1.
        -24    2    1    2    0    0  0.00000000000E+00 -0.35527136788E-14 -0.49889565110E+02  0.94838276540E+02  0.80655625905E+02 0.  0.
         66    2    3    3    0    0  0.23203926931E+02 -0.28935719691E+02 -0.43500740515E+02  0.57201508044E+02  0.19999995306E+01 0.  0.
         13    1    3    3    0    0 -0.23203926931E+02  0.28935719691E+02 -0.63888245953E+01  0.37636768496E+02  0.10566000000E+00 0. -1.
         13    1    4    4    0    0  0.92330838658E+01 -0.10720792437E+02 -0.17440152504E+02  0.22457856343E+02  0.10566000000E+00 0. -1.
        -13    1    4    4    0    0  0.10887943039E+02 -0.14094412637E+02 -0.20824522724E+02  0.27402037916E+02  0.10566000000E+00 0.  1.
         14    1    4    4    0    0  0.30829000255E+01 -0.41205146178E+01 -0.52360652873E+01  0.73416137855E+01  0.00000000000E+00 0. -1.
<mgrwt>
<rscale>  0 0.80655626E+02</rscale>
<asrwt>0</asrwt>
<pdfrwt beam="1">  1        1 0.34575932E-02 0.80655626E+02</pdfrwt>
<pdfrwt beam="2">  1       -2 0.11132911E-01 0.80655626E+02</pdfrwt>
<totfact> 0.11179630E+05</totfact>
</mgrwt>
</event>
<event>
 8    1  0.8247621E-018  0.8141652E+02  0.7818608E-02  0.1325079E+00
         -2   -1    0    0    0  501 -0.00000000000E+00  0.00000000000E+00  0.40441919512E+02  0.40441919592E+02  0.25500000000E-02 0.  1.
          1   -1    0    0  501    0  0.00000000000E+00 -0.00000000000E+00 -0.40976358178E+02  0.40976358488E+02  0.50400000000E-02 0. -1.
        -24    2    1    2    0    0 -0.17763568394E-14  0.35527136788E-14 -0.53443866600E+00  0.81418278080E+02  0.81416524004E+02 0.  0.
         66    2    3    3    0    0 -0.15071122797E+02  0.27429931491E+02  0.25725827461E+02  0.40563013731E+02  0.20000001123E+01 0.  0.
         13    1    3    3    0    0  0.15071122797E+02 -0.27429931491E+02 -0.26260266127E+02  0.40855264349E+02  0.10566000000E+00 0. -1.
         13    1    4    4    0    0 -0.18848456162E+00  0.37754284696E+00  0.20093122747E+00  0.47916847250E+00  0.10566000000E+00 0. -1.
        -13    1    4    4    0    0 -0.14216031395E+02  0.25146406424E+02  0.23893230586E+02  0.37487797168E+02  0.10566000000E+00 0.  1.
        -14    1    4    4    0    0 -0.66660684072E+00  0.19059822201E+01  0.16316656476E+01  0.25960480906E+01  0.00000000000E+00 0.  1.
<mgrwt>
<rscale>  0 0.81416524E+02</rscale>
<asrwt>0</asrwt>
<pdfrwt beam="1">  1        1 0.63040552E-02 0.81416524E+02</pdfrwt>
<pdfrwt beam="2">  1       -2 0.62218337E-02 0.81416524E+02</pdfrwt>
<totfact> 0.12132116E+05</totfact>
</mgrwt>
</event>
<event>
 8    1  0.8247621E-018  0.8311293E+02  0.7818608E-02  0.1320443E+00
         -2   -1    0    0    0  501 -0.00000000000E+00  0.00000000000E+00  0.49708616968E+01  0.49708623509E+01  0.25500000000E-02 0.  1.
          1   -1    0    0  501    0  0.00000000000E+00 -0.00000000000E+00 -0.34741253138E+03  0.34741253142E+03  0.50400000000E-02 0. -1.
        -24    2    1    2    0    0  0.00000000000E+00  0.71054273576E-14 -0.34244166969E+03  0.35238339377E+03  0.83112929606E+02 0.  0.
         66    2    3    3    0    0 -0.20956754013E+01 -0.39530253373E+02 -0.11804259861E+03  0.12451942766E+03  0.19999978396E+01 0.  0.
         13    1    3    3    0    0  0.20956754013E+01  0.39530253373E+02 -0.22439907108E+03  0.22786396611E+03  0.10566000000E+00 0. -1.
         13    1    4    4    0    0 -0.52247223041E+00 -0.16076734991E+02 -0.50042550859E+02  0.52564269668E+02  0.10566000000E+00 0. -1.
        -13    1    4    4    0    0 -0.93422738185E+00 -0.12966776313E+02 -0.39090897962E+02  0.41196110694E+02  0.10566000000E+00 0.  1.
        -14    1    4    4    0    0 -0.63897578900E+00 -0.10486742068E+02 -0.28909149788E+02  0.30759047299E+02  0.00000000000E+00 0.  1.
<mgrwt>
<rscale>  0 0.83112930E+02</rscale>
<asrwt>0</asrwt>
<pdfrwt beam="1">  1        1 0.53448063E-01 0.83112930E+02</pdfrwt>
<pdfrwt beam="2">  1       -2 0.76474828E-03 0.83112930E+02</pdfrwt>
<totfact> 0.16763932E+05</totfact>
</mgrwt>
</event>
<event>
 8    1  0.8247621E-018  0.8089329E+02  0.7818608E-02  0.1326535E+00
         -2   -1    0    0    0  501 -0.00000000000E+00  0.00000000000E+00  0.85711984316E+03  0.85711984317E+03  0.25500000000E-02 0.  1.
          1   -1    0    0  501    0  0.00000000000E+00 -0.00000000000E+00 -0.19086341056E+01  0.19086407600E+01  0.50400000000E-02 0. -1.
        -24    2    1    2    0    0  0.00000000000E+00  0.35527136788E-14  0.85521120906E+03  0.85902848393E+03  0.80893288350E+02 0.  0.
         66    2    3    3    0    0  0.27992876068E+02  0.20654627719E+02  0.64645616047E+03  0.64739461086E+03  0.19999992957E+01 0.  0.
         13    1    3    3    0    0 -0.27992876068E+02 -0.20654627719E+02  0.20875504858E+03  0.21163387307E+03  0.10566000000E+00 0. -1.
         13    1    4    4    0    0  0.70608118446E+01  0.47922465674E+01  0.17314269604E+03  0.17335289166E+03  0.10566000000E+00 0. -1.
        -13    1    4    4    0    0  0.14946655121E+02  0.11491976494E+02  0.34153614292E+03  0.34205615929E+03  0.10566000000E+00 0.  1.
         14    1    4    4    0    0  0.59854091025E+01  0.43704046577E+01  0.13177732151E+03  0.13198555990E+03  0.00000000000E+00 0. -1.
<mgrwt>
<rscale>  0 0.80893288E+02</rscale>
<asrwt>0</asrwt>
<pdfrwt beam="1">  1        1 0.29363687E-03 0.80893288E+02</pdfrwt>
<pdfrwt beam="2">  1       -2 0.13186444E+00 0.80893288E+02</pdfrwt>
<totfact> 0.30063607E+04</totfact>
</mgrwt>
</event>
<event>
 8    1  0.8247621E-018  0.8015962E+02  0.7818608E-02  0.1328599E+00
         -2   -1    0    0    0  501 -0.00000000000E+00  0.00000000000E+00  0.28893627040E+02  0.28893627153E+02  0.25500000000E-02 0.  1.
          1   -1    0    0  501    0  0.00000000000E+00 -0.00000000000E+00 -0.55596735598E+02  0.55596735827E+02  0.50400000000E-02 0. -1.
        -24    2    1    2    0    0  0.00000000000E+00 -0.88817841970E-15 -0.26703108558E+02  0.84490362979E+02  0.80159624685E+02 0.  0.
         66    2    3    3    0    0  0.35869916877E+02  0.72872092091E+01 -0.30506233150E+02  0.47690508692E+02  0.20000008829E+01 0.  0.
         13    1    3    3    0    0 -0.35869916877E+02 -0.72872092091E+01  0.38031245916E+01  0.36799854287E+02  0.10566000000E+00 0. -1.
         13    1    4    4    0    0  0.22892680476E+01  0.23334200963E+00 -0.20367118991E+01  0.30748261874E+01  0.10566000000E+00 0. -1.
        -13    1    4    4    0    0  0.19092536748E+02  0.34820091829E+01 -0.16886178244E+02  0.25725542310E+02  0.10566000000E+00 0.  1.
         14    1    4    4    0    0  0.14488112082E+02  0.35718580166E+01 -0.11583343007E+02  0.18890140195E+02  0.00000000000E+00 0. -1.
<mgrwt>
<rscale>  0 0.80159625E+02</rscale>
<asrwt>0</asrwt>
<pdfrwt beam="1">  1        1 0.85533440E-02 0.80159625E+02</pdfrwt>
<pdfrwt beam="2">  1       -2 0.44451734E-02 0.80159625E+02</pdfrwt>
<totfact> 0.13304300E+05</totfact>
</mgrwt>
</event>
<event>
 8    1  0.8247621E-018  0.7909772E+02  0.7818608E-02  0.1331632E+00
          1   -1    0    0  501    0  0.00000000000E+00  0.00000000000E+00  0.20261673951E+02  0.20261674578E+02  0.50400000000E-02 0. -1.
         -2   -1    0    0    0  501 -0.00000000000E+00 -0.00000000000E+00 -0.77195603726E+02  0.77195603768E+02  0.25500000000E-02 0.  1.
        -24    2    1    2    0    0  0.55511151231E-16  0.00000000000E+00 -0.56933929774E+02  0.97457278346E+02  0.79097716422E+02 0.  0.
         66    2    3    3    0    0  0.37878179173E+00 -0.35093557325E+02 -0.60889162668E+01  0.35675988266E+02  0.19999990217E+01 0.  0.
         13    1    3    3    0    0 -0.37878179173E+00  0.35093557325E+02 -0.50845013508E+02  0.61781290080E+02  0.10566000000E+00 0. -1.
         13    1    4    4    0    0 -0.46979007820E+00 -0.44822956673E+01 -0.11043760925E+01  0.46413885590E+01  0.10566000000E+00 0. -1.
        -13    1    4    4    0    0  0.13700120397E+00 -0.97371801910E+01 -0.12815915444E+01  0.98226823386E+01  0.10566000000E+00 0.  1.
         14    1    4    4    0    0  0.71157066597E+00 -0.20874081467E+02 -0.37029486299E+01  0.21211917368E+02  0.00000000000E+00 0. -1.
<mgrwt>
<rscale>  0 0.79097716E+02</rscale>
<asrwt>0</asrwt>
<pdfrwt beam="1">  1        1 0.31171807E-02 0.79097716E+02</pdfrwt>
<pdfrwt beam="2">  1       -2 0.11876247E-01 0.79097716E+02</pdfrwt>
<totfact> 0.11591567E+05</totfact>
</mgrwt>
</event>
<event>
 8    1  0.8247621E-018  0.7398600E+02  0.7818608E-02  0.1347040E+00
          1   -1    0    0  501    0  0.00000000000E+00  0.00000000000E+00  0.28374091106E+01  0.28374135868E+01  0.50400000000E-02 0. -1.
         -2   -1    0    0    0  501 -0.00000000000E+00 -0.00000000000E+00 -0.48229943567E+03  0.48229943568E+03  0.25500000000E-02 0.  1.
        -24    2    1    2    0    0  0.00000000000E+00 -0.35527136788E-14 -0.47946202656E+03  0.48513684927E+03  0.73985995979E+02 0.  0.
         66    2    3    3    0    0  0.61088352512E+01 -0.26773756444E+02 -0.40216357971E+03  0.40310506914E+03  0.20000030154E+01 0.  0.
         13    1    3    3    0    0 -0.61088352512E+01  0.26773756444E+02 -0.77298446849E+02  0.82031780131E+02  0.10566000000E+00 0. -1.
         13    1    4    4    0    0  0.76005855250E+00 -0.26259726571E+01 -0.35105677941E+02  0.35212117362E+02  0.10566000000E+00 0. -1.
        -13    1    4    4    0    0  0.48767828064E+01 -0.19933431440E+02 -0.30823713555E+03  0.30891951638E+03  0.10566000000E+00 0.  1.
         14    1    4    4    0    0  0.47199389228E+00 -0.42143523473E+01 -0.58820766219E+02  0.58973435398E+02  0.00000000000E+00 0. -1.
<mgrwt>
<rscale>  0 0.73985996E+02</rscale>
<asrwt>0</asrwt>
<pdfrwt beam="1">  1        1 0.43652521E-03 0.73985996E+02</pdfrwt>
<pdfrwt beam="2">  1       -2 0.74199848E-01 0.73985996E+02</pdfrwt>
<totfact> 0.63325212E+04</totfact>
</mgrwt>
</event>
<event>
 8    1  0.8247621E-018  0.7863612E+02  0.7818608E-02  0.1332967E+00
          1   -1    0    0  501    0  0.00000000000E+00  0.00000000000E+00  0.12077290675E+03  0.12077290686E+03  0.50400000000E-02 0. -1.
         -2   -1    0    0    0  501 -0.00000000000E+00 -0.00000000000E+00 -0.12800137652E+02  0.12800137906E+02  0.25500000000E-02 0.  1.
        -24    2    1    2    0    0  0.00000000000E+00  0.00000000000E+00  0.10797276910E+03  0.13357304476E+03  0.78636120329E+02 0.  0.
         66    2    3    3    0    0  0.34973086653E+02  0.63506424523E+01  0.82467801667E+02  0.89824193609E+02  0.19999990581E+01 0.  0.
         13    1    3    3    0    0 -0.34973086653E+02 -0.63506424523E+01  0.25504967435E+02  0.43748851156E+02  0.10566000000E+00 0. -1.
         13    1    4    4    0    0  0.32822144759E+01  0.82052656424E+00  0.83694422553E+01  0.90280077209E+01  0.10566000000E+00 0. -1.
        -13    1    4    4    0    0  0.38913553268E+01  0.37185250300E+00  0.80050787797E+01  0.89091734111E+01  0.10566000000E+00 0.  1.
        -14    1    4    4    0    0  0.27799516850E+02  0.51582633850E+01  0.66093280632E+02  0.71887012477E+02  0.00000000000E+00 0.  1.
<mgrwt>
<rscale>  0 0.78636120E+02</rscale>
<asrwt>0</asrwt>
<pdfrwt beam="1">  1        1 0.18580447E-01 0.78636120E+02</pdfrwt>
<pdfrwt beam="2">  1       -2 0.19692520E-02 0.78636120E+02</pdfrwt>
<totfact> 0.15900771E+05</totfact>
</mgrwt>
</event>
<event>
 8    1  0.8247621E-018  0.8023367E+02  0.7818608E-02  0.1328390E+00
         -2   -1    0    0    0  501 -0.00000000000E+00  0.00000000000E+00  0.95332827538E+01  0.95332830949E+01  0.25500000000E-02 0.  1.
          1   -1    0    0  501    0  0.00000000000E+00 -0.00000000000E+00 -0.16881491402E+03  0.16881491409E+03  0.50400000000E-02 0. -1.
        -24    2    1    2    0    0  0.00000000000E+00  0.00000000000E+00 -0.15928163126E+03  0.17834819719E+03  0.80233667385E+02 0.  0.
         66    2    3    3    0    0 -0.33295791868E+02  0.21026950079E+02 -0.96415318463E+02  0.10416648222E+03  0.19999997321E+01 0.  0.
         13    1    3    3    0    0  0.33295791868E+02 -0.21026950079E+02 -0.62866312801E+02  0.74181714964E+02  0.10566000000E+00 0. -1.
         13    1    4    4    0    0 -0.56026067238E+01  0.42390076480E+01 -0.16876830697E+02  0.18281054848E+02  0.10566000000E+00 0. -1.
        -13    1    4    4    0    0 -0.10485695003E+02  0.68535629152E+01 -0.29945889661E+02  0.32460569865E+02  0.10566000000E+00 0.  1.
         14    1    4    4    0    0 -0.17207490141E+02  0.99343795154E+01 -0.49592598105E+02  0.53424857512E+02  0.00000000000E+00 0. -1.
<mgrwt>
<rscale>  0 0.80233667E+02</rscale>
<asrwt>0</asrwt>
<pdfrwt beam="1">  1        1 0.25971523E-01 0.80233667E+02</pdfrwt>
<pdfrwt beam="2">  1       -2 0.14666590E-02 0.80233667E+02</pdfrwt>
<totfact> 0.16015529E+05</totfact>
</mgrwt>
</event>
<event>
 8    1  0.8247621E-018  0.7953092E+02  0.7818608E-02  0.1330388E+00
         -2   -1    0    0    0  501 -0.00000000000E+00  0.00000000000E+00  0.14649347876E+03  0.14649347878E+03  0.25500000000E-02 0.  1.
          1   -1    0    0  501    0  0.00000000000E+00 -0.00000000000E+00 -0.10794280643E+02  0.10794281820E+02  0.50400000000E-02 0. -1.
        -24    2    1    2    0    0 -0.17763568394E-14  0.35527136788E-14  0.13569919812E+03  0.15728776060E+03  0.79530920186E+02 0.  0.
         66    2    3    3    0    0  0.14894380218E+02 -0.30566657943E+02  0.10857347973E+03  0.11379087678E+03  0.19999997011E+01 0.  0.
         13    1    3    3    0    0 -0.14894380218E+02  0.30566657943E+02  0.27125718390E+02  0.43496883821E+02  0.10566000000E+00 0. -1.
         13    1    4    4    0    0  0.40675528381E+00 -0.70463531724E+00  0.23617398674E+01  0.25001879986E+01  0.10566000000E+00 0.  1.
        -13    1    4    4    0    0  0.42601217028E+01 -0.10668547792E+02  0.36923258737E+02  0.38669170520E+02  0.10566000000E+00 0.  1.
        -14    1    4    4    0    0  0.10227503231E+02 -0.19193474834E+02  0.69288481121E+02  0.72621518262E+02  0.00000000000E+00 0.  1.
<mgrwt>
<rscale>  0 0.79530920E+02</rscale>
<asrwt>0</asrwt>
<pdfrwt beam="1">  1        1 0.16606587E-02 0.79530920E+02</pdfrwt>
<pdfrwt beam="2">  1       -2 0.22537457E-01 0.79530920E+02</pdfrwt>
<totfact> 0.96693384E+04</totfact>
</mgrwt>
</event>
<event>
 8    1  0.8247621E-018  0.8060223E+02  0.7818608E-02  0.1327351E+00
         -2   -1    0    0    0  501 -0.00000000000E+00  0.00000000000E+00  0.10643104392E+02  0.10643104697E+02  0.25500000000E-02 0.  1.
          1   -1    0    0  501    0  0.00000000000E+00 -0.00000000000E+00 -0.15260397021E+03  0.15260397029E+03  0.50400000000E-02 0. -1.
        -24    2    1    2    0    0  0.00000000000E+00  0.00000000000E+00 -0.14196086582E+03  0.16324707499E+03  0.80602233649E+02 0.  0.
         66    2    3    3    0    0 -0.61236689725E+01 -0.31061133604E+02 -0.20598219739E+02  0.37823008840E+02  0.19999997162E+01 0.  0.
         13    1    3    3    0    0  0.61236689725E+01  0.31061133604E+02 -0.12136264608E+03  0.12542406615E+03  0.10566000000E+00 0. -1.
         13    1    4    4    0    0 -0.38674770750E+01 -0.15770066223E+02 -0.10755890649E+02  0.19476979112E+02  0.10566000000E+00 0. -1.
        -13    1    4    4    0    0 -0.12384962490E+01 -0.11107578742E+02 -0.70935810382E+01  0.13237908991E+02  0.10566000000E+00 0.  1.
        -14    1    4    4    0    0 -0.10176956485E+01 -0.41834886379E+01 -0.27487480510E+01  0.51081207371E+01  0.00000000000E+00 0.  1.
<mgrwt>
<rscale>  0 0.80602234E+02</rscale>
<asrwt>0</asrwt>
<pdfrwt beam="1">  1        1 0.23477532E-01 0.80602234E+02</pdfrwt>
<pdfrwt beam="2">  1       -2 0.16374008E-02 0.80602234E+02</pdfrwt>
<totfact> 0.15524495E+05</totfact>
</mgrwt>
</event>
<event>
 8    1  0.8247621E-018  0.7981633E+02  0.7818608E-02  0.1329573E+00
          1   -1    0    0  501    0  0.00000000000E+00  0.00000000000E+00  0.22636284662E+03  0.22636284668E+03  0.50400000000E-02 0. -1.
         -2   -1    0    0    0  501 -0.00000000000E+00 -0.00000000000E+00 -0.70358790563E+01  0.70358795184E+01  0.25500000000E-02 0.  1.
        -24    2    1    2    0    0  0.00000000000E+00  0.00000000000E+00  0.21932696756E+03  0.23339872619E+03  0.79816330964E+02 0.  0.
         66    2    3    3    0    0  0.32613931140E+02 -0.19125301500E+02  0.14686036717E+03  0.15166216768E+03  0.19999992059E+01 0.  0.
         13    1    3    3    0    0 -0.32613931140E+02  0.19125301500E+02  0.72466600393E+02  0.81736558518E+02  0.10566000000E+00 0. -1.
         13    1    4    4    0    0  0.64852626796E+01 -0.45675728096E+01  0.29805164422E+02  0.30842832939E+02  0.10566000000E+00 0. -1.
        -13    1    4    4    0    0  0.17755218207E+02 -0.10073487657E+02  0.78384599285E+02  0.80999256146E+02  0.10566000000E+00 0.  1.
        -14    1    4    4    0    0  0.83734502539E+01 -0.44842410332E+01  0.38670603464E+02  0.39820078592E+02  0.00000000000E+00 0.  1.
<mgrwt>
<rscale>  0 0.79816331E+02</rscale>
<asrwt>0</asrwt>
<pdfrwt beam="1">  1        1 0.34825050E-01 0.79816331E+02</pdfrwt>
<pdfrwt beam="2">  1       -2 0.10824431E-02 0.79816331E+02</pdfrwt>
<totfact> 0.17185352E+05</totfact>
</mgrwt>
</event>
<event>
 8    1  0.8247621E-018  0.7716436E+02  0.7818608E-02  0.1337297E+00
          1   -1    0    0  501    0  0.00000000000E+00  0.00000000000E+00  0.11883464837E+02  0.11883465906E+02  0.50400000000E-02 0. -1.
         -2   -1    0    0    0  501 -0.00000000000E+00 -0.00000000000E+00 -0.12526518038E+03  0.12526518041E+03  0.25500000000E-02 0.  1.
        -24    2    1    2    0    0 -0.17763568394E-14  0.00000000000E+00 -0.11338171554E+03  0.13714864631E+03  0.77164355540E+02 0.  0.
         66    2    3    3    0    0 -0.13890025811E+02  0.22452678125E+02 -0.10666985981E+03  0.10990684491E+03  0.19999989024E+01 0.  0.
         13    1    3    3    0    0  0.13890025811E+02 -0.22452678125E+02 -0.67118557364E+01  0.27241801399E+02  0.10566000000E+00 0. -1.
         13    1    4    4    0    0 -0.11171809588E+01  0.12780284563E+01 -0.77757460457E+01  0.79595754053E+01  0.10566000000E+00 0. -1.
        -13    1    4    4    0    0 -0.11290444513E+02  0.18181046178E+02 -0.86903308629E+02  0.89499836828E+02  0.10566000000E+00 0.  1.
         14    1    4    4    0    0 -0.14824003386E+01  0.29936034912E+01 -0.11990805132E+02  0.12447432681E+02  0.00000000000E+00 0. -1.
<mgrwt>
<rscale>  0 0.77164356E+02</rscale>
<asrwt>0</asrwt>
<pdfrwt beam="1">  1        1 0.18282255E-02 0.77164356E+02</pdfrwt>
<pdfrwt beam="2">  1       -2 0.19271565E-01 0.77164356E+02</pdfrwt>
<totfact> 0.10960897E+05</totfact>
</mgrwt>
</event>
<event>
 8    1  0.8247621E-018  0.7974502E+02  0.7818608E-02  0.1329777E+00
          1   -1    0    0  501    0  0.00000000000E+00  0.00000000000E+00  0.88141557993E+02  0.88141558137E+02  0.50400000000E-02 0. -1.
         -2   -1    0    0    0  501 -0.00000000000E+00 -0.00000000000E+00 -0.18037086084E+02  0.18037086265E+02  0.25500000000E-02 0.  1.
        -24    2    1    2    0    0  0.00000000000E+00 -0.17763568394E-14  0.70104471909E+02  0.10617864440E+03  0.79745015803E+02 0.  0.
         66    2    3    3    0    0  0.29118551180E+02  0.13575200068E+02  0.36887436112E+01  0.32400353496E+02  0.19999993724E+01 0.  0.
         13    1    3    3    0    0 -0.29118551180E+02 -0.13575200068E+02  0.66415728298E+02  0.73778290906E+02  0.10566000000E+00 0. -1.
         13    1    4    4    0    0  0.77930051756E+01  0.34216701254E+01  0.17132967514E+01  0.86824711868E+01  0.10566000000E+00 0.  1.
        -13    1    4    4    0    0  0.16593618622E+02  0.75532468172E+01  0.17075363976E+01  0.18311924012E+02  0.10566000000E+00 0. -1.
         14    1    4    4    0    0  0.47319273826E+01  0.26002831258E+01  0.26791046225E+00  0.54059582966E+01  0.00000000000E+00 0. -1.
<mgrwt>
<rscale>  0 0.79745016E+02</rscale>
<asrwt>0</asrwt>
<pdfrwt beam="1">  1        1 0.13560240E-01 0.79745016E+02</pdfrwt>
<pdfrwt beam="2">  1       -2 0.27749364E-02 0.79745016E+02</pdfrwt>
<totfact> 0.14519538E+05</totfact>
</mgrwt>
</event>
<event>
 8    1  0.8247621E-018  0.7856097E+02  0.7818608E-02  0.1333185E+00
          1   -1    0    0  501    0  0.00000000000E+00  0.00000000000E+00  0.14644139244E+03  0.14644139253E+03  0.50400000000E-02 0. -1.
         -2   -1    0    0    0  501 -0.00000000000E+00 -0.00000000000E+00 -0.10536342425E+02  0.10536342733E+02  0.25500000000E-02 0.  1.
        -24    2    1    2    0    0  0.00000000000E+00  0.17763568394E-14  0.13590505002E+03  0.15697773526E+03  0.78560974713E+02 0.  0.
         66    2    3    3    0    0  0.32365174264E+02  0.10911566849E+02  0.29333902007E+02  0.45067112225E+02  0.20000002825E+01 0.  0.
         13    1    3    3    0    0 -0.32365174264E+02 -0.10911566849E+02  0.10657114801E+03  0.11191062304E+03  0.10566000000E+00 0. -1.
         13    1    4    4    0    0  0.76520118681E+01  0.21220657545E+01  0.63949884896E+01  0.10196248845E+02  0.10566000000E+00 0. -1.
        -13    1    4    4    0    0  0.16656670696E+02  0.54038546217E+01  0.15817882433E+02  0.23597942540E+02  0.10566000000E+00 0.  1.
         14    1    4    4    0    0  0.80564917002E+01  0.33856464724E+01  0.71210310846E+01  0.11272920840E+02  0.00000000000E+00 0. -1.
<mgrwt>
<rscale>  0 0.78560975E+02</rscale>
<asrwt>0</asrwt>
<pdfrwt beam="1">  1        1 0.22529445E-01 0.78560975E+02</pdfrwt>
<pdfrwt beam="2">  1       -2 0.16209758E-02 0.78560975E+02</pdfrwt>
<totfact> 0.16499617E+05</totfact>
</mgrwt>
</event>
<event>
 8    1  0.8247621E-018  0.8035692E+02  0.7818608E-02  0.1328042E+00
          1   -1    0    0  501    0  0.00000000000E+00  0.00000000000E+00  0.23452061226E+01  0.23452115383E+01  0.50400000000E-02 0. -1.
         -2   -1    0    0    0  501 -0.00000000000E+00 -0.00000000000E+00 -0.68834328178E+03  0.68834328179E+03  0.25500000000E-02 0.  1.
        -24    2    1    2    0    0  0.17763568394E-14  0.00000000000E+00 -0.68599807566E+03  0.69068849332E+03  0.80356922559E+02 0.  0.
         66    2    3    3    0    0  0.15785285167E+02  0.48755163262E+01 -0.65777363555E+03  0.65798411944E+03  0.19999831045E+01 0.  0.
         13    1    3    3    0    0 -0.15785285167E+02 -0.48755163262E+01 -0.28224440113E+02  0.32704373882E+02  0.10566000000E+00 0. -1.
         13    1    4    4    0    0  0.84800810439E+00  0.15739619399E+00 -0.29502892063E+02  0.29515685582E+02  0.10566000000E+00 0.  1.
        -13    1    4    4    0    0  0.14601483913E+02  0.48713972347E+01 -0.61363976670E+03  0.61383280157E+03  0.10566000000E+00 0.  1.
        -14    1    4    4    0    0  0.33579315028E+00 -0.15327710249E+00 -0.14630976786E+02  0.14635632294E+02  0.00000000000E+00 0.  1.
<mgrwt>
<rscale>  0 0.80356923E+02</rscale>
<asrwt>0</asrwt>
<pdfrwt beam="1">  1        1 0.36080191E-03 0.80356923E+02</pdfrwt>
<pdfrwt beam="2">  1       -2 0.10589881E+00 0.80356923E+02</pdfrwt>
<totfact> 0.38003176E+04</totfact>
</mgrwt>
</event>
<event>
 8    1  0.8247621E-018  0.7980732E+02  0.7818608E-02  0.1329599E+00
          1   -1    0    0  501    0  0.00000000000E+00  0.00000000000E+00  0.78001038855E+02  0.78001039017E+02  0.50400000000E-02 0. -1.
         -2   -1    0    0    0  501 -0.00000000000E+00 -0.00000000000E+00 -0.20413858374E+02  0.20413858534E+02  0.25500000000E-02 0.  1.
        -24    2    1    2    0    0  0.00000000000E+00  0.00000000000E+00  0.57587180480E+02  0.98414897551E+02  0.79807322373E+02 0.  0.
         66    2    3    3    0    0 -0.12369082546E+02 -0.13590136711E+02 -0.14832548455E+02  0.23700010668E+02  0.19999982864E+01 0.  0.
         13    1    3    3    0    0  0.12369082546E+02  0.13590136711E+02  0.72419728935E+02  0.74714886883E+02  0.10566000000E+00 0. -1.
         13    1    4    4    0    0 -0.18119279523E+01 -0.26022273447E+01 -0.20186735276E+01  0.37604357333E+01  0.10566000000E+00 0. -1.
        -13    1    4    4    0    0 -0.53252633413E+01 -0.61061129951E+01 -0.63116849219E+01  0.10270909217E+02  0.10566000000E+00 0.  1.
         14    1    4    4    0    0 -0.52318912528E+01 -0.48817963711E+01 -0.65021900054E+01  0.96686657175E+01  0.00000000000E+00 0. -1.
<mgrwt>
<rscale>  0 0.79807322E+02</rscale>
<asrwt>0</asrwt>
<pdfrwt beam="1">  1        1 0.12000160E-01 0.79807322E+02</pdfrwt>
<pdfrwt beam="2">  1       -2 0.31405935E-02 0.79807322E+02</pdfrwt>
<totfact> 0.14204927E+05</totfact>
</mgrwt>
</event>
<event>
 8    1  0.8247621E-018  0.7951265E+02  0.7818608E-02  0.1330440E+00
          1   -1    0    0  501    0  0.00000000000E+00  0.00000000000E+00  0.68125722416E+02  0.68125722602E+02  0.50400000000E-02 0. -1.
         -2   -1    0    0    0  501 -0.00000000000E+00 -0.00000000000E+00 -0.23200712526E+02  0.23200712667E+02  0.25500000000E-02 0.  1.
        -24    2    1    2    0    0 -0.35527136788E-14  0.00000000000E+00  0.44925009889E+02  0.91326435269E+02  0.79512648461E+02 0.  0.
         66    2    3    3    0    0 -0.29776320547E+02  0.15797992196E+02 -0.16804638695E+01  0.33808723465E+02  0.20000001986E+01 0.  0.
         13    1    3    3    0    0  0.29776320547E+02 -0.15797992196E+02  0.46605473759E+02  0.57517711803E+02  0.10566000000E+00 0. -1.
         13    1    4    4    0    0 -0.42442780431E+01  0.18678549504E+01  0.15480575382E+00  0.46408950731E+01  0.10566000000E+00 0. -1.
        -13    1    4    4    0    0 -0.22382402173E+02  0.12575074379E+02 -0.18394737584E+01  0.25739060791E+02  0.10566000000E+00 0.  1.
        -14    1    4    4    0    0 -0.31496403314E+01  0.13550628667E+01  0.42041350450E-02  0.34287676014E+01  0.00000000000E+00 0.  1.
<mgrwt>
<rscale>  0 0.79512648E+02</rscale>
<asrwt>0</asrwt>
<pdfrwt beam="1">  1        1 0.10480880E-01 0.79512648E+02</pdfrwt>
<pdfrwt beam="2">  1       -2 0.35693404E-02 0.79512648E+02</pdfrwt>
<totfact> 0.14044442E+05</totfact>
</mgrwt>
</event>
<event>
 8    1  0.8247621E-018  0.8022403E+02  0.7818608E-02  0.1328417E+00
          1   -1    0    0  501    0  0.00000000000E+00  0.00000000000E+00  0.37188379345E+02  0.37188379687E+02  0.50400000000E-02 0. -1.
         -2   -1    0    0    0  501 -0.00000000000E+00 -0.00000000000E+00 -0.43265494246E+02  0.43265494321E+02  0.25500000000E-02 0.  1.
        -24    2    1    2    0    0  0.00000000000E+00  0.35527136788E-14 -0.60771149011E+01  0.80453874008E+02  0.80224027058E+02 0.  0.
         66    2    3    3    0    0 -0.25647246105E+02  0.16981283660E+02 -0.28820577748E+02  0.42199181566E+02  0.19999988965E+01 0.  0.
         13    1    3    3    0    0  0.25647246105E+02 -0.16981283660E+02  0.22743462847E+02  0.38254692442E+02  0.10566000000E+00 0. -1.
         13    1    4    4    0    0 -0.60985480206E+00  0.21946836248E+00 -0.83472818369E+00  0.10620849392E+01  0.10566000000E+00 0. -1.
        -13    1    4    4    0    0 -0.10319643852E+02  0.72065892266E+01 -0.11038010222E+02  0.16741529536E+02  0.10566000000E+00 0.  1.
        -14    1    4    4    0    0 -0.14717747451E+02  0.95552260712E+01 -0.16947839342E+02  0.24395567091E+02  0.00000000000E+00 0.  1.
<mgrwt>
<rscale>  0 0.80224027E+02</rscale>
<asrwt>0</asrwt>
<pdfrwt beam="1">  1        1 0.57212892E-02 0.80224027E+02</pdfrwt>
<pdfrwt beam="2">  1       -2 0.66562299E-02 0.80224027E+02</pdfrwt>
<totfact> 0.12447791E+05</totfact>
</mgrwt>
</event>
<event>
 8    1  0.8247621E-018  0.7962211E+02  0.7818608E-02  0.1330127E+00
          1   -1    0    0  501    0  0.00000000000E+00  0.00000000000E+00  0.36413308839E+03  0.36413308843E+03  0.50400000000E-02 0. -1.
         -2   -1    0    0    0  501 -0.00000000000E+00 -0.00000000000E+00 -0.43525846893E+01  0.43525854363E+01  0.25500000000E-02 0.  1.
        -24    2    1    2    0    0 -0.35527136788E-14 -0.35527136788E-14  0.35978050370E+03  0.36848567386E+03  0.79622113749E+02 0.  0.
         66    2    3    3    0    0 -0.23905752418E+02  0.31330415133E+02  0.20528200701E+03  0.20904014537E+03  0.20000161181E+01 0.  0.
         13    1    3    3    0    0  0.23905752418E+02 -0.31330415133E+02  0.15449849669E+03  0.15944552849E+03  0.10566000000E+00 0. -1.
         13    1    4    4    0    0 -0.76454163084E+01  0.10966248587E+02  0.66487397130E+02  0.67818110706E+02  0.10566000000E+00 0. -1.
        -13    1    4    4    0    0 -0.39137883437E+01  0.53070398574E+01  0.33976965088E+02  0.34611092613E+02  0.10566000000E+00 0.  1.
         14    1    4    4    0    0 -0.12346547766E+02  0.15057126689E+02  0.10481764479E+03  0.10661094205E+03  0.00000000000E+00 0. -1.
<mgrwt>
<rscale>  0 0.79622114E+02</rscale>
<asrwt>0</asrwt>
<pdfrwt beam="1">  1        1 0.56020469E-01 0.79622114E+02</pdfrwt>
<pdfrwt beam="2">  1       -2 0.66962855E-03 0.79622114E+02</pdfrwt>
<totfact> 0.18927445E+05</totfact>
</mgrwt>
</event>
<event>
 8    1  0.8247621E-018  0.7948995E+02  0.7818608E-02  0.1330505E+00
          1   -1    0    0  501    0  0.00000000000E+00  0.00000000000E+00  0.69464270690E+01  0.69464288974E+01  0.50400000000E-02 0. -1.
         -2   -1    0    0    0  501 -0.00000000000E+00 -0.00000000000E+00 -0.22740650828E+03  0.22740650829E+03  0.25500000000E-02 0.  1.
        -24    2    1    2    0    0  0.00000000000E+00 -0.35527136788E-14 -0.22046008121E+03  0.23435293719E+03  0.79489947557E+02 0.  0.
         66    2    3    3    0    0  0.23786505865E+02 -0.29872701099E+02 -0.14252582971E+03  0.14756621670E+03  0.20000112347E+01 0.  0.
         13    1    3    3    0    0 -0.23786505865E+02  0.29872701099E+02 -0.77934251493E+02  0.86786720482E+02  0.10566000000E+00 0. -1.
         13    1    4    4    0    0  0.36861266003E+01 -0.45791799233E+01 -0.20868655890E+02  0.21681060416E+02  0.10566000000E+00 0. -1.
        -13    1    4    4    0    0  0.55687623102E+01 -0.81329687467E+01 -0.35865245551E+02  0.37195205293E+02  0.10566000000E+00 0.  1.
         14    1    4    4    0    0  0.14531616954E+02 -0.17160552429E+02 -0.85791928272E+02  0.88689950996E+02  0.00000000000E+00 0. -1.
<mgrwt>
<rscale>  0 0.79489948E+02</rscale>
<asrwt>0</asrwt>
<pdfrwt beam="1">  1        1 0.10686814E-02 0.79489948E+02</pdfrwt>
<pdfrwt beam="2">  1       -2 0.34985611E-01 0.79489948E+02</pdfrwt>
<totfact> 0.81896549E+04</totfact>
</mgrwt>
</event>
<event>
 8    1  0.8247621E-018  0.7955090E+02  0.7818608E-02  0.1330331E+00
          1   -1    0    0  501    0  0.00000000000E+00  0.00000000000E+00  0.87798853336E+01  0.87798867802E+01  0.50400000000E-02 0. -1.
         -2   -1    0    0    0  501 -0.00000000000E+00 -0.00000000000E+00 -0.18019442963E+03  0.18019442965E+03  0.25500000000E-02 0.  1.
        -24    2    1    2    0    0  0.00000000000E+00  0.71054273576E-14 -0.17141454430E+03  0.18897431643E+03  0.79550903661E+02 0.  0.
         66    2    3    3    0    0 -0.12717873431E+02  0.36695967656E+02 -0.10588223307E+03  0.11279798595E+03  0.20000017692E+01 0.  0.
         13    1    3    3    0    0  0.12717873431E+02 -0.36695967656E+02 -0.65532311226E+02  0.76176330481E+02  0.10566000000E+00 0. -1.
         13    1    4    4    0    0 -0.64732408351E+01  0.20566939835E+02 -0.58768790796E+02  0.62599391345E+02  0.10566000000E+00 0.  1.
        -13    1    4    4    0    0 -0.80434075673E+00  0.16509772196E+01 -0.58151178427E+01  0.60991351349E+01  0.10566000000E+00 0. -1.
         14    1    4    4    0    0 -0.54402918396E+01  0.14478050601E+02 -0.41298324434E+02  0.44099459470E+02  0.00000000000E+00 0. -1.
<mgrwt>
<rscale>  0 0.79550904E+02</rscale>
<asrwt>0</asrwt>
<pdfrwt beam="1">  1        1 0.13507518E-02 0.79550904E+02</pdfrwt>
<pdfrwt beam="2">  1       -2 0.27722217E-01 0.79550904E+02</pdfrwt>
<totfact> 0.89908594E+04</totfact>
</mgrwt>
</event>
<event>
 8    1  0.8247621E-018  0.7541426E+02  0.7818608E-02  0.1342593E+00
          1   -1    0    0  501    0  0.00000000000E+00  0.00000000000E+00  0.11821700865E+03  0.11821700876E+03  0.50400000000E-02 0. -1.
         -2   -1    0    0    0  501 -0.00000000000E+00 -0.00000000000E+00 -0.12027269081E+02  0.12027269351E+02  0.25500000000E-02 0.  1.
        -24    2    1    2    0    0  0.35527136788E-14  0.00000000000E+00  0.10618973957E+03  0.13024427811E+03  0.75414263837E+02 0.  0.
         66    2    3    3    0    0 -0.22903823497E+02 -0.12444109418E+02  0.61391202325E+01  0.26853859869E+02  0.20000006649E+01 0.  0.
         13    1    3    3    0    0  0.22903823497E+02  0.12444109418E+02  0.10005061934E+03  0.10339041824E+03  0.10566000000E+00 0. -1.
         13    1    4    4    0    0 -0.10251578457E+02 -0.55403753437E+01  0.29632605831E+01  0.12024254535E+02  0.10566000000E+00 0. -1.
        -13    1    4    4    0    0 -0.40717068237E+01 -0.22021438176E+01  0.17113480789E+01  0.49364066015E+01  0.10566000000E+00 0.  1.
        -14    1    4    4    0    0 -0.85805382157E+01 -0.47015902566E+01  0.14645115705E+01  0.98931987321E+01  0.00000000000E+00 0.  1.
<mgrwt>
<rscale>  0 0.75414264E+02</rscale>
<asrwt>0</asrwt>
<pdfrwt beam="1">  1        1 0.18187233E-01 0.75414264E+02</pdfrwt>
<pdfrwt beam="2">  1       -2 0.18503490E-02 0.75414264E+02</pdfrwt>
<totfact> 0.17718355E+05</totfact>
</mgrwt>
</event>
<event>
 8    1  0.8247621E-018  0.7713174E+02  0.7818608E-02  0.1337394E+00
         -2   -1    0    0    0  501 -0.00000000000E+00  0.00000000000E+00  0.11632487007E+02  0.11632487287E+02  0.25500000000E-02 0.  1.
          1   -1    0    0  501    0  0.00000000000E+00 -0.00000000000E+00 -0.12785971102E+03  0.12785971112E+03  0.50400000000E-02 0. -1.
        -24    2    1    2    0    0  0.71054273576E-14  0.44408920985E-15 -0.11622722402E+03  0.13949219841E+03  0.77131743236E+02 0.  0.
         66    2    3    3    0    0 -0.35439350757E+02 -0.23318253138E+01 -0.31089368110E+02  0.47243346580E+02  0.19999988091E+01 0.  0.
         13    1    3    3    0    0  0.35439350757E+02  0.23318253138E+01 -0.85137855905E+02  0.92248851828E+02  0.10566000000E+00 0. -1.
         13    1    4    4    0    0 -0.37291819562E+01  0.27018460360E+00 -0.34374473381E+01  0.50800596473E+01  0.10566000000E+00 0. -1.
        -13    1    4    4    0    0 -0.17894600688E+02 -0.12913756344E+01 -0.15055952119E+02  0.23421725877E+02  0.10566000000E+00 0.  1.
         14    1    4    4    0    0 -0.13815568114E+02 -0.13106342830E+01 -0.12595968653E+02  0.18741561056E+02  0.00000000000E+00 0. -1.
<mgrwt>
<rscale>  0 0.77131743E+02</rscale>
<asrwt>0</asrwt>
<pdfrwt beam="1">  1        1 0.19670724E-01 0.77131743E+02</pdfrwt>
<pdfrwt beam="2">  1       -2 0.17896135E-02 0.77131743E+02</pdfrwt>
<totfact> 0.16912326E+05</totfact>
</mgrwt>
</event>
<event>
 8    1  0.8247621E-018  0.8683313E+02  0.7818608E-02  0.1310707E+00
         -2   -1    0    0    0  501 -0.00000000000E+00  0.00000000000E+00  0.16462543774E+03  0.16462543776E+03  0.25500000000E-02 0.  1.
          1   -1    0    0  501    0  0.00000000000E+00 -0.00000000000E+00 -0.11450223211E+02  0.11450224320E+02  0.50400000000E-02 0. -1.
        -24    2    1    2    0    0  0.00000000000E+00  0.00000000000E+00  0.15317521453E+03  0.17607566208E+03  0.86833129798E+02 0.  0.
         66    2    3    3    0    0 -0.40216413048E+01 -0.31225486410E+02  0.13718239736E+03  0.14076297363E+03  0.19999998792E+01 0.  0.
         13    1    3    3    0    0  0.40216413048E+01  0.31225486410E+02  0.15992817166E+02  0.35312688446E+02  0.10566000000E+00 0. -1.
         13    1    4    4    0    0 -0.90054812975E-01 -0.92182857495E+00  0.30578804335E+01  0.31968225744E+01  0.10566000000E+00 0. -1.
        -13    1    4    4    0    0 -0.13908073672E+01 -0.98599433438E+01  0.41425541799E+02  0.42605627625E+02  0.10566000000E+00 0.  1.
        -14    1    4    4    0    0 -0.25407791247E+01 -0.20443714491E+02  0.92698975127E+02  0.94960523432E+02  0.00000000000E+00 0.  1.
<mgrwt>
<rscale>  0 0.86833130E+02</rscale>
<asrwt>0</asrwt>
<pdfrwt beam="1">  1        1 0.17615730E-02 0.86833130E+02</pdfrwt>
<pdfrwt beam="2">  1       -2 0.25326989E-01 0.86833130E+02</pdfrwt>
<totfact> 0.74106402E+04</totfact>
</mgrwt>
</event>
<event>
 8    1  0.8247621E-018  0.8141480E+02  0.7818608E-02  0.1325084E+00
         -2   -1    0    0    0  501 -0.00000000000E+00  0.00000000000E+00  0.12849574108E+02  0.12849574361E+02  0.25500000000E-02 0.  1.
          1   -1    0    0  501    0  0.00000000000E+00 -0.00000000000E+00 -0.12896086619E+03  0.12896086629E+03  0.50400000000E-02 0. -1.
        -24    2    1    2    0    0  0.00000000000E+00 -0.88817841970E-15 -0.11611129208E+03  0.14181044065E+03  0.81414795512E+02 0.  0.
         66    2    3    3    0    0 -0.22594305121E+02 -0.75258764960E+01 -0.63813997294E+00  0.23907084196E+02  0.20000027980E+01 0.  0.
         13    1    3    3    0    0  0.22594305121E+02  0.75258764960E+01 -0.11547315211E+03  0.11790335645E+03  0.10566000000E+00 0. -1.
         13    1    4    4    0    0 -0.10237814323E+02 -0.28016084733E+01 -0.95062194217E+00  0.10657236896E+02  0.10566000000E+00 0. -1.
        -13    1    4    4    0    0 -0.75363138434E+01 -0.30708491785E+01 -0.78388227236E-01  0.81390079108E+01  0.10566000000E+00 0.  1.
         14    1    4    4    0    0 -0.48201769550E+01 -0.16534188442E+01  0.39087019646E+00  0.51108393892E+01  0.00000000000E+00 0. -1.
<mgrwt>
<rscale>  0 0.81414796E+02</rscale>
<asrwt>0</asrwt>
<pdfrwt beam="1">  1        1 0.19840133E-01 0.81414796E+02</pdfrwt>
<pdfrwt beam="2">  1       -2 0.19768577E-02 0.81414796E+02</pdfrwt>
<totfact> 0.14654697E+05</totfact>
</mgrwt>
</event>
<event>
 8    1  0.8247621E-018  0.7961925E+02  0.7818608E-02  0.1330135E+00
         -2   -1    0    0    0  501 -0.00000000000E+00  0.00000000000E+00  0.18630792808E+02  0.18630792983E+02  0.25500000000E-02 0.  1.
          1   -1    0    0  501    0  0.00000000000E+00 -0.00000000000E+00 -0.85063800134E+02  0.85063800283E+02  0.50400000000E-02 0. -1.
        -24    2    1    2    0    0  0.00000000000E+00  0.00000000000E+00 -0.66433007326E+02  0.10369459327E+03  0.79619245225E+02 0.  0.
         66    2    3    3    0    0 -0.26712181036E+02  0.29105672327E+02 -0.39362794027E+02  0.55804214385E+02  0.20000030298E+01 0.  0.
         13    1    3    3    0    0  0.26712181036E+02 -0.29105672327E+02 -0.27070213298E+02  0.47890378881E+02  0.10566000000E+00 0. -1.
         13    1    4    4    0    0 -0.42621259950E+01  0.54978322889E+01 -0.74966242940E+01  0.10227532338E+02  0.10566000000E+00 0. -1.
        -13    1    4    4    0    0 -0.94928177974E+01  0.96869212537E+01 -0.13610031825E+02  0.19214425920E+02  0.10566000000E+00 0.  1.
         14    1    4    4    0    0 -0.12957237244E+02  0.13920918785E+02 -0.18256137908E+02  0.26362256127E+02  0.00000000000E+00 0. -1.
<mgrwt>
<rscale>  0 0.79619245E+02</rscale>
<asrwt>0</asrwt>
<pdfrwt beam="1">  1        1 0.13086738E-01 0.79619245E+02</pdfrwt>
<pdfrwt beam="2">  1       -2 0.28662759E-02 0.79619245E+02</pdfrwt>
<totfact> 0.14497633E+05</totfact>
</mgrwt>
</event>
<event>
 8    1  0.8247621E-018  0.7878737E+02  0.7818608E-02  0.1332528E+00
         -2   -1    0    0    0  501 -0.00000000000E+00  0.00000000000E+00  0.11959644498E+02  0.11959644770E+02  0.25500000000E-02 0.  1.
          1   -1    0    0  501    0  0.00000000000E+00 -0.00000000000E+00 -0.12975823176E+03  0.12975823186E+03  0.50400000000E-02 0. -1.
        -24    2    1    2    0    0  0.00000000000E+00  0.00000000000E+00 -0.11779858726E+03  0.14171787663E+03  0.78787368246E+02 0.  0.
         66    2    3    3    0    0 -0.38091700303E+02 -0.63772386795E+01 -0.45213508932E+02  0.59497127633E+02  0.20000003703E+01 0.  0.
         13    1    3    3    0    0  0.38091700303E+02  0.63772386795E+01 -0.72585078331E+02  0.82220748996E+02  0.10566000000E+00 0. -1.
         13    1    4    4    0    0 -0.78243906644E+01 -0.17400539173E+01 -0.98986285544E+01  0.12737460037E+02  0.10566000000E+00 0. -1.
        -13    1    4    4    0    0 -0.27301068736E+02 -0.40378640686E+01 -0.32355728275E+02  0.42527132711E+02  0.10566000000E+00 0.  1.
         14    1    4    4    0    0 -0.29662409028E+01 -0.59932069364E+00 -0.29591521023E+01  0.42325348849E+01  0.00000000000E+00 0. -1.
<mgrwt>
<rscale>  0 0.78787368E+02</rscale>
<asrwt>0</asrwt>
<pdfrwt beam="1">  1        1 0.19962804E-01 0.78787368E+02</pdfrwt>
<pdfrwt beam="2">  1       -2 0.18399454E-02 0.78787368E+02</pdfrwt>
<totfact> 0.16020347E+05</totfact>
</mgrwt>
</event>
<event>
 8    1  0.8247621E-018  0.8196429E+02  0.7818608E-02  0.1323568E+00
         -2   -1    0    0    0  501 -0.00000000000E+00  0.00000000000E+00  0.99948622707E+01  0.99948625960E+01  0.25500000000E-02 0.  1.
          1   -1    0    0  501    0  0.00000000000E+00 -0.00000000000E+00 -0.16803996349E+03  0.16803996356E+03  0.50400000000E-02 0. -1.
        -24    2    1    2    0    0  0.00000000000E+00  0.00000000000E+00 -0.15804510122E+03  0.17803482616E+03  0.81964292877E+02 0.  0.
         66    2    3    3    0    0  0.40516012966E+02  0.46696004757E+01 -0.70890454145E+02  0.81809589628E+02  0.19999977197E+01 0.  0.
         13    1    3    3    0    0 -0.40516012966E+02 -0.46696004757E+01 -0.87154647071E+02  0.96225236530E+02  0.10566000000E+00 0. -1.
         13    1    4    4    0    0  0.28702099862E+01  0.58177242827E+00 -0.47258572207E+01  0.55607063427E+01  0.10566000000E+00 0. -1.
        -13    1    4    4    0    0  0.23949959335E+02  0.32959263448E+01 -0.41855252749E+02  0.48335670361E+02  0.10566000000E+00 0.  1.
         14    1    4    4    0    0  0.13695843645E+02  0.79190170264E+00 -0.24309344176E+02  0.27913212924E+02  0.00000000000E+00 0. -1.
<mgrwt>
<rscale>  0 0.81964293E+02</rscale>
<asrwt>0</asrwt>
<pdfrwt beam="1">  1        1 0.25852300E-01 0.81964293E+02</pdfrwt>
<pdfrwt beam="2">  1       -2 0.15376713E-02 0.81964293E+02</pdfrwt>
<totfact> 0.15115606E+05</totfact>
</mgrwt>
</event>
<event>
 8    1  0.8247621E-018  0.8322601E+02  0.7818608E-02  0.1320138E+00
         -2   -1    0    0    0  501 -0.00000000000E+00  0.00000000000E+00  0.96335359682E+01  0.96335363057E+01  0.25500000000E-02 0.  1.
          1   -1    0    0  501    0  0.00000000000E+00 -0.00000000000E+00 -0.17975147750E+03  0.17975147757E+03  0.50400000000E-02 0. -1.
        -24    2    1    2    0    0  0.00000000000E+00  0.00000000000E+00 -0.17011794153E+03  0.18938501387E+03  0.83226014261E+02 0.  0.
         66    2    3    3    0    0  0.53538590318E+01 -0.32666338389E+02 -0.27816299129E+02  0.43283945896E+02  0.20000012038E+01 0.  0.
         13    1    3    3    0    0 -0.53538590318E+01  0.32666338389E+02 -0.14230164240E+03  0.14610106798E+03  0.10566000000E+00 0. -1.
         13    1    4    4    0    0  0.13211047989E+01 -0.99739687253E+01 -0.94446420806E+01  0.13799920220E+02  0.10566000000E+00 0. -1.
        -13    1    4    4    0    0  0.82581748877E+00 -0.60410962082E+01 -0.51346537714E+01  0.79719916777E+01  0.10566000000E+00 0.  1.
        -14    1    4    4    0    0  0.32069367441E+01 -0.16651273456E+02 -0.13237003277E+02  0.21512033998E+02  0.00000000000E+00 0.  1.
<mgrwt>
<rscale>  0 0.83226014E+02</rscale>
<asrwt>0</asrwt>
<pdfrwt beam="1">  1        1 0.27654071E-01 0.83226014E+02</pdfrwt>
<pdfrwt beam="2">  1       -2 0.14820826E-02 0.83226014E+02</pdfrwt>
<totfact> 0.14699522E+05</totfact>
</mgrwt>
</event>
<event>
 8    1  0.8247621E-018  0.7830194E+02  0.7818608E-02  0.1333941E+00
          1   -1    0    0  501    0  0.00000000000E+00  0.00000000000E+00  0.24937681055E+02  0.24937681564E+02  0.50400000000E-02 0. -1.
         -2   -1    0    0    0  501 -0.00000000000E+00 -0.00000000000E+00 -0.61465152202E+02  0.61465152255E+02  0.25500000000E-02 0.  1.
        -24    2    1    2    0    0  0.00000000000E+00  0.17763568394E-14 -0.36527471147E+02  0.86402833819E+02  0.78301938313E+02 0.  0.
         66    2    3    3    0    0  0.25866588205E+02 -0.10343478906E+02 -0.48590088278E+02  0.56045201544E+02  0.19999989937E+01 0.  0.
         13    1    3    3    0    0 -0.25866588205E+02  0.10343478906E+02  0.12062617131E+02  0.30357632275E+02  0.10566000000E+00 0. -1.
         13    1    4    4    0    0  0.39947655582E+01 -0.13045200426E+01 -0.62715795336E+01  0.75500859789E+01  0.10566000000E+00 0. -1.
        -13    1    4    4    0    0  0.93001300509E+01 -0.35542018710E+01 -0.17072676912E+02  0.19763912338E+02  0.10566000000E+00 0.  1.
         14    1    4    4    0    0  0.12571692596E+02 -0.54847569928E+01 -0.25245831832E+02  0.28731203227E+02  0.00000000000E+00 0. -1.
<mgrwt>
<rscale>  0 0.78301938E+02</rscale>
<asrwt>0</asrwt>
<pdfrwt beam="1">  1        1 0.38365664E-02 0.78301938E+02</pdfrwt>
<pdfrwt beam="2">  1       -2 0.94561772E-02 0.78301938E+02</pdfrwt>
<totfact> 0.12443035E+05</totfact>
</mgrwt>
</event>
<event>
 8    1  0.8247621E-018  0.7781213E+02  0.7818608E-02  0.1335377E+00
         -2   -1    0    0    0  501 -0.00000000000E+00  0.00000000000E+00  0.46250267491E+03  0.46250267492E+03  0.25500000000E-02 0.  1.
          1   -1    0    0  501    0  0.00000000000E+00 -0.00000000000E+00 -0.32728047921E+01  0.32728086728E+01  0.50400000000E-02 0. -1.
        -24    2    1    2    0    0 -0.35527136788E-14  0.00000000000E+00  0.45922987012E+03  0.46577548359E+03  0.77812129548E+02 0.  0.
         66    2    3    3    0    0  0.30287337200E+02  0.43614281632E+01  0.37334444533E+03  0.37460168141E+03  0.20000001477E+01 0.  0.
         13    1    3    3    0    0 -0.30287337200E+02 -0.43614281632E+01  0.85885424790E+02  0.91173802189E+02  0.10566000000E+00 0. -1.
         13    1    4    4    0    0  0.10142488190E+02  0.16226957367E+01  0.11780652055E+03  0.11825350167E+03  0.10566000000E+00 0. -1.
        -13    1    4    4    0    0  0.11037698022E+02  0.18875779118E+01  0.13492894801E+03  0.13539285765E+03  0.10566000000E+00 0.  1.
         14    1    4    4    0    0  0.91071509866E+01  0.85115451465E+00  0.12060897677E+03  0.12095532209E+03  0.00000000000E+00 0. -1.
<mgrwt>
<rscale>  0 0.77812130E+02</rscale>
<asrwt>0</asrwt>
<pdfrwt beam="1">  1        1 0.50350880E-03 0.77812130E+02</pdfrwt>
<pdfrwt beam="2">  1       -2 0.71154248E-01 0.77812130E+02</pdfrwt>
<totfact> 0.57377385E+04</totfact>
</mgrwt>
</event>
<event>
 8    1  0.8247621E-018  0.7864931E+02  0.7818608E-02  0.1332929E+00
          1   -1    0    0  501    0  0.00000000000E+00  0.00000000000E+00  0.99865242237E+01  0.99865254955E+01  0.50400000000E-02 0. -1.
         -2   -1    0    0    0  501 -0.00000000000E+00 -0.00000000000E+00 -0.15485151886E+03  0.15485151888E+03  0.25500000000E-02 0.  1.
        -24    2    1    2    0    0  0.00000000000E+00 -0.71054273576E-14 -0.14486499464E+03  0.16483804438E+03  0.78649311522E+02 0.  0.
         66    2    3    3    0    0 -0.13974206290E+02 -0.27112075568E+02 -0.12441600566E+03  0.12811590668E+03  0.19999990914E+01 0.  0.
         13    1    3    3    0    0  0.13974206290E+02  0.27112075568E+02 -0.20448988977E+02  0.36722137700E+02  0.10566000000E+00 0. -1.
         13    1    4    4    0    0 -0.76178345200E+01 -0.13293738480E+02 -0.60417015352E+02  0.62329622120E+02  0.10566000000E+00 0. -1.
        -13    1    4    4    0    0 -0.81792376352E+00 -0.23818557252E+01 -0.10132787008E+02  0.10441588603E+02  0.10566000000E+00 0.  1.
        -14    1    4    4    0    0 -0.55384480061E+01 -0.11436481363E+02 -0.53866203300E+02  0.55344695954E+02  0.00000000000E+00 0.  1.
<mgrwt>
<rscale>  0 0.78649312E+02</rscale>
<asrwt>0</asrwt>
<pdfrwt beam="1">  1        1 0.15363886E-02 0.78649312E+02</pdfrwt>
<pdfrwt beam="2">  1       -2 0.23823309E-01 0.78649312E+02</pdfrwt>
<totfact> 0.97704313E+04</totfact>
</mgrwt>
</event>
<event>
 8    1  0.8247621E-018  0.8112964E+02  0.7818608E-02  0.1325876E+00
          1   -1    0    0  501    0  0.00000000000E+00  0.00000000000E+00  0.12292906769E+02  0.12292907803E+02  0.50400000000E-02 0. -1.
         -2   -1    0    0    0  501 -0.00000000000E+00 -0.00000000000E+00 -0.13385804390E+03  0.13385804392E+03  0.25500000000E-02 0.  1.
        -24    2    1    2    0    0  0.35527136788E-14  0.00000000000E+00 -0.12156513713E+03  0.14615095172E+03  0.81129637772E+02 0.  0.
         66    2    3    3    0    0 -0.23969534132E+02  0.27860381131E+01 -0.11950351401E+03  0.12193190903E+03  0.20000014776E+01 0.  0.
         13    1    3    3    0    0  0.23969534132E+02 -0.27860381131E+01 -0.20616231209E+01  0.24219042690E+02  0.10566000000E+00 0. -1.
         13    1    4    4    0    0 -0.31806641019E+01  0.12376849788E+00 -0.13984563940E+02  0.14342633489E+02  0.10566000000E+00 0. -1.
        -13    1    4    4    0    0 -0.97625450430E+01  0.16689673068E+01 -0.52661763261E+02  0.53585121176E+02  0.10566000000E+00 0.  1.
        -14    1    4    4    0    0 -0.11026324987E+02  0.99330230842E+00 -0.52857186805E+02  0.54004154369E+02  0.00000000000E+00 0.  1.
<mgrwt>
<rscale>  0 0.81129638E+02</rscale>
<asrwt>0</asrwt>
<pdfrwt beam="1">  1        1 0.18912166E-02 0.81129638E+02</pdfrwt>
<pdfrwt beam="2">  1       -2 0.20593544E-01 0.81129638E+02</pdfrwt>
<totfact> 0.94500478E+04</totfact>
</mgrwt>
</event>
<event>
 8    1  0.8247621E-018  0.8047443E+02  0.7818608E-02  0.1327710E+00
          1   -1    0    0  501    0  0.00000000000E+00  0.00000000000E+00  0.25165938078E+02  0.25165938583E+02  0.50400000000E-02 0. -1.
         -2   -1    0    0    0  501 -0.00000000000E+00 -0.00000000000E+00 -0.64334314061E+02  0.64334314111E+02  0.25500000000E-02 0.  1.
        -24    2    1    2    0    0 -0.35527136788E-14  0.35527136788E-14 -0.39168375983E+02  0.89500252694E+02  0.80474427958E+02 0.  0.
         66    2    3    3    0    0 -0.16723036586E+02  0.90562943071E+01 -0.59001050050E+02  0.62022579140E+02  0.19999992303E+01 0.  0.
         13    1    3    3    0    0  0.16723036586E+02 -0.90562943071E+01  0.19832674067E+02  0.27477673554E+02  0.10566000000E+00 0. -1.
         13    1    4    4    0    0 -0.10515012515E+00  0.12392794428E+00 -0.29598485349E+00  0.35381598789E+00  0.10566000000E+00 0. -1.
        -13    1    4    4    0    0 -0.83902531176E+01  0.40478619455E+01 -0.28383501518E+02  0.29873330182E+02  0.10566000000E+00 0.  1.
         14    1    4    4    0    0 -0.82276333434E+01  0.48845044173E+01 -0.30321563679E+02  0.31795432970E+02  0.00000000000E+00 0. -1.
<mgrwt>
<rscale>  0 0.80474428E+02</rscale>
<asrwt>0</asrwt>
<pdfrwt beam="1">  1        1 0.38716829E-02 0.80474428E+02</pdfrwt>
<pdfrwt beam="2">  1       -2 0.98975867E-02 0.80474428E+02</pdfrwt>
<totfact> 0.11509692E+05</totfact>
</mgrwt>
</event>
<event>
 8    1  0.8247621E-018  0.8036962E+02  0.7818608E-02  0.1328006E+00
          1   -1    0    0  501    0  0.00000000000E+00  0.00000000000E+00  0.13004038632E+03  0.13004038642E+03  0.50400000000E-02 0. -1.
         -2   -1    0    0    0  501 -0.00000000000E+00 -0.00000000000E+00 -0.12417825438E+02  0.12417825700E+02  0.25500000000E-02 0.  1.
        -24    2    1    2    0    0 -0.35527136788E-14  0.71054273576E-14  0.11762256088E+03  0.14245821212E+03  0.80369617214E+02 0.  0.
         66    2    3    3    0    0  0.17582321848E+02 -0.35355526242E+02  0.45862910472E+02  0.60552108142E+02  0.19999915207E+01 0.  0.
         13    1    3    3    0    0 -0.17582321848E+02  0.35355526242E+02  0.71759650409E+02  0.81906103974E+02  0.10566000000E+00 0. -1.
         13    1    4    4    0    0  0.78309206933E+01 -0.14289069555E+02  0.18029938221E+02  0.24302071186E+02  0.10566000000E+00 0. -1.
        -13    1    4    4    0    0  0.34607940054E+01 -0.78149390429E+01  0.10718981215E+02  0.13709780805E+02  0.10566000000E+00 0.  1.
        -14    1    4    4    0    0  0.62906071493E+01 -0.13251517644E+02  0.17113991035E+02  0.22540256151E+02  0.00000000000E+00 0.  1.
<mgrwt>
<rscale>  0 0.80369617E+02</rscale>
<asrwt>0</asrwt>
<pdfrwt beam="1">  1        1 0.20006214E-01 0.80369617E+02</pdfrwt>
<pdfrwt beam="2">  1       -2 0.19104346E-02 0.80369617E+02</pdfrwt>
<totfact> 0.15194882E+05</totfact>
</mgrwt>
</event>
<event>
 8    1  0.8247621E-018  0.7856964E+02  0.7818608E-02  0.1333160E+00
          1   -1    0    0  501    0  0.00000000000E+00  0.00000000000E+00  0.29845090702E+02  0.29845091127E+02  0.50400000000E-02 0. -1.
         -2   -1    0    0    0  501 -0.00000000000E+00 -0.00000000000E+00 -0.51710251839E+02  0.51710251902E+02  0.25500000000E-02 0.  1.
        -24    2    1    2    0    0  0.00000000000E+00 -0.35527136788E-14 -0.21865161137E+02  0.81555343029E+02  0.78569642388E+02 0.  0.
         66    2    3    3    0    0 -0.14814562745E+02 -0.26377424384E+02 -0.36911501712E+02  0.47767130363E+02  0.19999995055E+01 0.  0.
         13    1    3    3    0    0  0.14814562745E+02  0.26377424384E+02  0.15046340575E+02  0.33788212666E+02  0.10566000000E+00 0. -1.
         13    1    4    4    0    0 -0.42491587176E+01 -0.63367208986E+01 -0.92832500582E+01  0.12016625035E+02  0.10566000000E+00 0. -1.
        -13    1    4    4    0    0 -0.20828178799E+01 -0.35888350034E+01 -0.43950226805E+01  0.60452671901E+01  0.10566000000E+00 0.  1.
         14    1    4    4    0    0 -0.84825861473E+01 -0.16451868482E+02 -0.23233228973E+02  0.29705238138E+02  0.00000000000E+00 0. -1.
<mgrwt>
<rscale>  0 0.78569642E+02</rscale>
<asrwt>0</asrwt>
<pdfrwt beam="1">  1        1 0.45915525E-02 0.78569642E+02</pdfrwt>
<pdfrwt beam="2">  1       -2 0.79554234E-02 0.78569642E+02</pdfrwt>
<totfact> 0.12725788E+05</totfact>
</mgrwt>
</event>
<event>
 8    1  0.8247621E-018  0.7467041E+02  0.7818608E-02  0.1344895E+00
         -2   -1    0    0    0  501 -0.00000000000E+00  0.00000000000E+00  0.19489879336E+02  0.19489879502E+02  0.25500000000E-02 0.  1.
          1   -1    0    0  501    0  0.00000000000E+00 -0.00000000000E+00 -0.71520070482E+02  0.71520070659E+02  0.50400000000E-02 0. -1.
        -24    2    1    2    0    0 -0.44408920985E-15 -0.17763568394E-14 -0.52030191146E+02  0.91009950162E+02  0.74670410724E+02 0.  0.
         66    2    3    3    0    0 -0.31612238255E+01 -0.11341426677E+02  0.17114859264E+02  0.20869587635E+02  0.19999963183E+01 0.  0.
         13    1    3    3    0    0  0.31612238255E+01  0.11341426677E+02 -0.69145050410E+02  0.70140362527E+02  0.10566000000E+00 0. -1.
         13    1    4    4    0    0 -0.45701624789E+00 -0.12694576433E+01  0.25213217150E+01  0.28615754026E+01  0.10566000000E+00 0. -1.
        -13    1    4    4    0    0 -0.97329789843E+00 -0.59825225232E+01  0.92600197596E+01  0.11067836940E+02  0.10566000000E+00 0.  1.
         14    1    4    4    0    0 -0.17309096792E+01 -0.40894465104E+01  0.53335177896E+01  0.69401752925E+01  0.00000000000E+00 0. -1.
<mgrwt>
<rscale>  0 0.74670411E+02</rscale>
<asrwt>0</asrwt>
<pdfrwt beam="1">  1        1 0.11003088E-01 0.74670411E+02</pdfrwt>
<pdfrwt beam="2">  1       -2 0.29984430E-02 0.74670411E+02</pdfrwt>
<totfact> 0.16789839E+05</totfact>
</mgrwt>
</event>
<event>
 8    1  0.8247621E-018  0.8000752E+02  0.7818608E-02  0.1329030E+00
         -2   -1    0    0    0  501 -0.00000000000E+00  0.00000000000E+00  0.50144648043E+02  0.50144648107E+02  0.25500000000E-02 0.  1.
          1   -1    0    0  501    0  0.00000000000E+00 -0.00000000000E+00 -0.31913688372E+02  0.31913688770E+02  0.50400000000E-02 0. -1.
        -24    2    1    2    0    0  0.00000000000E+00  0.00000000000E+00  0.18230959670E+02  0.82058336878E+02  0.80007516901E+02 0.  0.
         66    2    3    3    0    0  0.29896985584E+02  0.22126764401E+02  0.24155422040E+02  0.44394908087E+02  0.20000000507E+01 0.  0.
         13    1    3    3    0    0 -0.29896985584E+02 -0.22126764401E+02 -0.59244623701E+01  0.37663428791E+02  0.10566000000E+00 0. -1.
         13    1    4    4    0    0  0.55744658607E+01  0.49674045391E+01  0.47110380492E+01  0.88292027400E+01  0.10566000000E+00 0. -1.
        -13    1    4    4    0    0  0.78604762785E+01  0.50472140032E+01  0.61170980372E+01  0.11166535226E+02  0.10566000000E+00 0.  1.
        -14    1    4    4    0    0  0.16462043445E+02  0.12112145859E+02  0.13327285954E+02  0.24399170121E+02  0.00000000000E+00 0.  1.
<mgrwt>
<rscale>  0 0.80007517E+02</rscale>
<asrwt>0</asrwt>
<pdfrwt beam="1">  1        1 0.49097983E-02 0.80007517E+02</pdfrwt>
<pdfrwt beam="2">  1       -2 0.77145612E-02 0.80007517E+02</pdfrwt>
<totfact> 0.12223180E+05</totfact>
</mgrwt>
</event>
<event>
 8    1  0.8247621E-018  0.8323095E+02  0.7818608E-02  0.1320125E+00
         -2   -1    0    0    0  501 -0.00000000000E+00  0.00000000000E+00  0.25438557859E+03  0.25438557860E+03  0.25500000000E-02 0.  1.
          1   -1    0    0  501    0  0.00000000000E+00 -0.00000000000E+00 -0.68079632563E+01  0.68079651219E+01  0.50400000000E-02 0. -1.
        -24    2    1    2    0    0 -0.35527136788E-14  0.00000000000E+00  0.24757761534E+03  0.26119354373E+03  0.83230953792E+02 0.  0.
         66    2    3    3    0    0  0.31424580786E+02  0.21937545105E+02  0.17456693837E+03  0.17873549210E+03  0.20000005296E+01 0.  0.
         13    1    3    3    0    0 -0.31424580786E+02 -0.21937545105E+02  0.73010676967E+02  0.82458051626E+02  0.10566000000E+00 0. -1.
         13    1    4    4    0    0  0.15396355568E+02  0.11077528097E+02  0.88123051857E+02  0.90141238211E+02  0.10566000000E+00 0. -1.
        -13    1    4    4    0    0  0.10204860164E+01  0.66104244863E+00  0.68883620774E+01  0.69956461441E+01  0.10566000000E+00 0.  1.
         14    1    4    4    0    0  0.15007739202E+02  0.10198974559E+02  0.79555524435E+02  0.81598607746E+02  0.00000000000E+00 0. -1.
<mgrwt>
<rscale>  0 0.83230954E+02</rscale>
<asrwt>0</asrwt>
<pdfrwt beam="1">  1        1 0.10473792E-02 0.83230954E+02</pdfrwt>
<pdfrwt beam="2">  1       -2 0.39136238E-01 0.83230954E+02</pdfrwt>
<totfact> 0.69031732E+04</totfact>
</mgrwt>
</event>
<event>
 8    1  0.8247621E-018  0.7856735E+02  0.7818608E-02  0.1333167E+00
          1   -1    0    0  501    0  0.00000000000E+00  0.00000000000E+00  0.40443537852E+02  0.40443538166E+02  0.50400000000E-02 0. -1.
         -2   -1    0    0    0  501 -0.00000000000E+00 -0.00000000000E+00 -0.38157079655E+02  0.38157079741E+02  0.25500000000E-02 0.  1.
        -24    2    1    2    0    0  0.35527136788E-14  0.00000000000E+00  0.22864581967E+01  0.78600617907E+02  0.78567354825E+02 0.  0.
         66    2    3    3    0    0  0.22305616582E+02  0.23101656000E+02 -0.21448226371E+02  0.38668507312E+02  0.20000005543E+01 0.  0.
         13    1    3    3    0    0 -0.22305616582E+02 -0.23101656000E+02  0.23734684568E+02  0.39932110595E+02  0.10566000000E+00 0. -1.
         13    1    4    4    0    0  0.17586798640E+02  0.17391530293E+02 -0.17153403458E+02  0.30100020374E+02  0.10566000000E+00 0. -1.
        -13    1    4    4    0    0  0.34488008896E+01  0.39752414345E+01 -0.30033814994E+01  0.60603825378E+01  0.10566000000E+00 0.  1.
         14    1    4    4    0    0  0.12700170524E+01  0.17348842724E+01 -0.12914414141E+01  0.25081043994E+01  0.00000000000E+00 0. -1.
<mgrwt>
<rscale>  0 0.78567355E+02</rscale>
<asrwt>0</asrwt>
<pdfrwt beam="1">  1        1 0.62220828E-02 0.78567355E+02</pdfrwt>
<pdfrwt beam="2">  1       -2 0.58703200E-02 0.78567355E+02</pdfrwt>
<totfact> 0.13382997E+05</totfact>
</mgrwt>
</event>
<event>
 8    1  0.8247621E-018  0.7963681E+02  0.7818608E-02  0.1330085E+00
         -2   -1    0    0    0  501 -0.00000000000E+00  0.00000000000E+00  0.18411845641E+01  0.18411863299E+01  0.25500000000E-02 0.  1.
          1   -1    0    0  501    0  0.00000000000E+00 -0.00000000000E+00 -0.86113292313E+03  0.86113292314E+03  0.50400000000E-02 0. -1.
        -24    2    1    2    0    0  0.00000000000E+00  0.88817841970E-15 -0.85929173856E+03  0.86297410947E+03  0.79636810935E+02 0.  0.
         66    2    3    3    0    0 -0.33174146923E+02 -0.73405841598E+01 -0.65438658187E+03  0.65527109408E+03  0.20000009972E+01 0.  0.
         13    1    3    3    0    0  0.33174146923E+02  0.73405841598E+01 -0.20490515669E+03  0.20770301539E+03  0.10566000000E+00 0. -1.
         13    1    4    4    0    0 -0.29394032193E+01 -0.19154885450E+00 -0.57583372721E+02  0.57658761349E+02  0.10566000000E+00 0. -1.
        -13    1    4    4    0    0 -0.20715816106E+02 -0.53665253886E+01 -0.40689457387E+03  0.40745693029E+03  0.10566000000E+00 0.  1.
        -14    1    4    4    0    0 -0.95189275973E+01 -0.17825099168E+01 -0.18990863527E+03  0.19015540244E+03  0.00000000000E+00 0.  1.
<mgrwt>
<rscale>  0 0.79636811E+02</rscale>
<asrwt>0</asrwt>
<pdfrwt beam="1">  1        1 0.13248167E+00 0.79636811E+02</pdfrwt>
<pdfrwt beam="2">  1       -2 0.28325999E-03 0.79636811E+02</pdfrwt>
<totfact> 0.19971390E+05</totfact>
</mgrwt>
</event>
<event>
 8    1  0.8247621E-018  0.7958552E+02  0.7818608E-02  0.1330232E+00
         -2   -1    0    0    0  501 -0.00000000000E+00  0.00000000000E+00  0.64947157274E+02  0.64947157324E+02  0.25500000000E-02 0.  1.
          1   -1    0    0  501    0  0.00000000000E+00 -0.00000000000E+00 -0.24380803806E+02  0.24380804327E+02  0.50400000000E-02 0. -1.
        -24    2    1    2    0    0  0.17763568394E-14 -0.71054273576E-14  0.40566353469E+02  0.89327961651E+02  0.79585524431E+02 0.  0.
         66    2    3    3    0    0  0.71554293089E+01 -0.30983164720E+02  0.47100338897E+02  0.56864739471E+02  0.20000015366E+01 0.  0.
         13    1    3    3    0    0 -0.71554293089E+01  0.30983164720E+02 -0.65339854290E+01  0.32463222180E+02  0.10566000000E+00 0. -1.
         13    1    4    4    0    0  0.27551816639E+01 -0.14752815312E+02  0.22884299110E+02  0.27366747988E+02  0.10566000000E+00 0. -1.
        -13    1    4    4    0    0  0.43233338565E+01 -0.15400371471E+02  0.23262374364E+02  0.28231398870E+02  0.10566000000E+00 0.  1.
        -14    1    4    4    0    0  0.76913788597E-01 -0.82997793752E+00  0.95366542387E+00  0.12665926134E+01  0.00000000000E+00 0.  1.
<mgrwt>
<rscale>  0 0.79585524E+02</rscale>
<asrwt>0</asrwt>
<pdfrwt beam="1">  1        1 0.37508930E-02 0.79585524E+02</pdfrwt>
<pdfrwt beam="2">  1       -2 0.99918703E-02 0.79585524E+02</pdfrwt>
<totfact> 0.11816678E+05</totfact>
</mgrwt>
</event>
<event>
 8    1  0.8247621E-018  0.8433301E+02  0.7818608E-02  0.1317186E+00
          1   -1    0    0  501    0  0.00000000000E+00  0.00000000000E+00  0.12362543796E+03  0.12362543807E+03  0.50400000000E-02 0. -1.
         -2   -1    0    0    0  501 -0.00000000000E+00 -0.00000000000E+00 -0.14382267725E+02  0.14382267951E+02  0.25500000000E-02 0.  1.
        -24    2    1    2    0    0  0.00000000000E+00  0.00000000000E+00  0.10924317024E+03  0.13800770602E+03  0.84333010596E+02 0.  0.
         66    2    3    3    0    0  0.33056618235E+02 -0.16798006376E+02  0.21878181310E+02  0.43099510997E+02  0.20000008593E+01 0.  0.
         13    1    3    3    0    0 -0.33056618235E+02  0.16798006376E+02  0.87364988928E+02  0.94908195019E+02  0.10566000000E+00 0. -1.
         13    1    4    4    0    0  0.88757186184E+01 -0.45150092059E+01  0.64958547224E+01  0.11889952974E+02  0.10566000000E+00 0. -1.
        -13    1    4    4    0    0  0.15474474661E+02 -0.73155711775E+01  0.92023895029E+01  0.19433787183E+02  0.10566000000E+00 0.  1.
        -14    1    4    4    0    0  0.87064249556E+01 -0.49674259922E+01  0.61799370845E+01  0.11775770839E+02  0.00000000000E+00 0.  1.
<mgrwt>
<rscale>  0 0.84333011E+02</rscale>
<asrwt>0</asrwt>
<pdfrwt beam="1">  1        1 0.19019299E-01 0.84333011E+02</pdfrwt>
<pdfrwt beam="2">  1       -2 0.22126566E-02 0.84333011E+02</pdfrwt>
<totfact> 0.13226126E+05</totfact>
</mgrwt>
</event>
<event>
 8    1  0.8247621E-018  0.8531329E+02  0.7818608E-02  0.1314615E+00
         -2   -1    0    0    0  501 -0.00000000000E+00  0.00000000000E+00  0.80959794261E+01  0.80959798276E+01  0.25500000000E-02 0.  1.
          1   -1    0    0  501    0  0.00000000000E+00 -0.00000000000E+00 -0.22475223054E+03  0.22475223060E+03  0.50400000000E-02 0. -1.
        -24    2    1    2    0    0  0.00000000000E+00  0.00000000000E+00 -0.21665625112E+03  0.23284821043E+03  0.85313292933E+02 0.  0.
         66    2    3    3    0    0  0.35267582654E+02  0.16411385354E+02 -0.60764891837E+02  0.72176921711E+02  0.19999980457E+01 0.  0.
         13    1    3    3    0    0 -0.35267582654E+02 -0.16411385354E+02 -0.15589135928E+03  0.16067128872E+03  0.10566000000E+00 0. -1.
         13    1    4    4    0    0  0.25641314041E+02  0.11561337061E+02 -0.44016957389E+02  0.52236435581E+02  0.10566000000E+00 0. -1.
        -13    1    4    4    0    0  0.92323312345E+01  0.47404477127E+01 -0.16374784209E+02  0.19386915857E+02  0.10566000000E+00 0.  1.
         14    1    4    4    0    0  0.39393737874E+00  0.10960058035E+00 -0.37315023917E+00  0.55357027248E+00  0.00000000000E+00 0. -1.
<mgrwt>
<rscale>  0 0.85313293E+02</rscale>
<asrwt>0</asrwt>
<pdfrwt beam="1">  1        1 0.34577262E-01 0.85313293E+02</pdfrwt>
<pdfrwt beam="2">  1       -2 0.12455355E-02 0.85313293E+02</pdfrwt>
<totfact> 0.14376964E+05</totfact>
</mgrwt>
</event>
<event>
 8    1  0.8247621E-018  0.8078773E+02  0.7818608E-02  0.1326831E+00
          1   -1    0    0  501    0  0.00000000000E+00  0.00000000000E+00  0.21817647046E+01  0.21817705259E+01  0.50400000000E-02 0. -1.
         -2   -1    0    0    0  501 -0.00000000000E+00 -0.00000000000E+00 -0.74786344167E+03  0.74786344168E+03  0.25500000000E-02 0.  1.
        -24    2    1    2    0    0  0.88817841970E-15  0.00000000000E+00 -0.74568167697E+03  0.75004521220E+03  0.80787727920E+02 0.  0.
         66    2    3    3    0    0  0.70905555661E+01  0.14739466356E+02 -0.71571935053E+03  0.71590901416E+03  0.19999991600E+01 0.  0.
         13    1    3    3    0    0 -0.70905555661E+01 -0.14739466356E+02 -0.29962326441E+02  0.34136198038E+02  0.10566000000E+00 0. -1.
         13    1    4    4    0    0 -0.81802380066E-02  0.86205784364E+00 -0.35862355020E+02  0.35872871119E+02  0.10566000000E+00 0.  1.
        -13    1    4    4    0    0  0.68260335267E+01  0.13529678763E+02 -0.65565065527E+03  0.65582576944E+03  0.10566000000E+00 0.  1.
        -14    1    4    4    0    0  0.27270227737E+00  0.34772975006E+00 -0.24206340240E+02  0.24210373609E+02  0.00000000000E+00 0.  1.
<mgrwt>
<rscale>  0 0.80787728E+02</rscale>
<asrwt>0</asrwt>
<pdfrwt beam="1">  1        1 0.33565715E-03 0.80787728E+02</pdfrwt>
<pdfrwt beam="2">  1       -2 0.11505571E+00 0.80787728E+02</pdfrwt>
<totfact> 0.34641067E+04</totfact>
</mgrwt>
</event>
<event>
 8    1  0.8247621E-018  0.8046699E+02  0.7818608E-02  0.1327731E+00
         -2   -1    0    0    0  501 -0.00000000000E+00  0.00000000000E+00  0.29358872770E+02  0.29358872881E+02  0.25500000000E-02 0.  1.
          1   -1    0    0  501    0  0.00000000000E+00 -0.00000000000E+00 -0.55136118990E+02  0.55136119220E+02  0.50400000000E-02 0. -1.
        -24    2    1    2    0    0 -0.35527136788E-14  0.17763568394E-14 -0.25777246220E+02  0.84494992101E+02  0.80466994895E+02 0.  0.
         66    2    3    3    0    0  0.28045501891E+02 -0.58207763435E+01  0.16734752223E+02  0.33233770996E+02  0.19999972838E+01 0.  0.
         13    1    3    3    0    0 -0.28045501891E+02  0.58207763435E+01 -0.42511998442E+02  0.51261221105E+02  0.10566000000E+00 0. -1.
         13    1    4    4    0    0  0.45891362420E+01 -0.69549648907E+00  0.21436281774E+01  0.51137259032E+01  0.10566000000E+00 0. -1.
        -13    1    4    4    0    0  0.49954844750E+00 -0.25137228985E+00  0.37599586234E+00  0.68210967124E+00  0.10566000000E+00 0.  1.
        -14    1    4    4    0    0  0.22956817201E+02 -0.48739075646E+01  0.14215128183E+02  0.27437935422E+02  0.00000000000E+00 0.  1.
<mgrwt>
<rscale>  0 0.80466995E+02</rscale>
<asrwt>0</asrwt>
<pdfrwt beam="1">  1        1 0.84824799E-02 0.80466995E+02</pdfrwt>
<pdfrwt beam="2">  1       -2 0.45167497E-02 0.80466995E+02</pdfrwt>
<totfact> 0.13146851E+05</totfact>
</mgrwt>
</event>
<event>
 8    1  0.8247621E-018  0.7853786E+02  0.7818608E-02  0.1333253E+00
         -2   -1    0    0    0  501 -0.00000000000E+00  0.00000000000E+00  0.39237637310E+02  0.39237637392E+02  0.25500000000E-02 0.  1.
          1   -1    0    0  501    0  0.00000000000E+00 -0.00000000000E+00 -0.39300248440E+02  0.39300248763E+02  0.50400000000E-02 0. -1.
        -24    2    1    2    0    0  0.00000000000E+00  0.00000000000E+00 -0.62611130397E-01  0.78537886156E+02  0.78537861199E+02 0.  0.
         66    2    3    3    0    0 -0.98576411413E+01  0.12983162342E+02  0.35666141739E+02  0.39265879091E+02  0.20000002607E+01 0.  0.
         13    1    3    3    0    0  0.98576411413E+01 -0.12983162342E+02 -0.35728752869E+02  0.39272007064E+02  0.10566000000E+00 0. -1.
         13    1    4    4    0    0 -0.31957676306E+01  0.44530801111E+01  0.13592704625E+02  0.14656590200E+02  0.10566000000E+00 0. -1.
        -13    1    4    4    0    0 -0.37513747185E+01  0.39487649588E+01  0.11429467616E+02  0.12661336856E+02  0.10566000000E+00 0.  1.
         14    1    4    4    0    0 -0.29104987922E+01  0.45813172717E+01  0.10643969498E+02  0.11947952035E+02  0.00000000000E+00 0. -1.
<mgrwt>
<rscale>  0 0.78537861E+02</rscale>
<asrwt>0</asrwt>
<pdfrwt beam="1">  1        1 0.60461921E-02 0.78537861E+02</pdfrwt>
<pdfrwt beam="2">  1       -2 0.60365596E-02 0.78537861E+02</pdfrwt>
<totfact> 0.13336076E+05</totfact>
</mgrwt>
</event>
<event>
 8    1  0.8247621E-018  0.8006591E+02  0.7818608E-02  0.1328864E+00
          1   -1    0    0  501    0  0.00000000000E+00  0.00000000000E+00  0.61212443117E+02  0.61212443324E+02  0.50400000000E-02 0. -1.
         -2   -1    0    0    0  501 -0.00000000000E+00 -0.00000000000E+00 -0.26181565889E+02  0.26181566013E+02  0.25500000000E-02 0.  1.
        -24    2    1    2    0    0  0.17763568394E-14  0.00000000000E+00  0.35030877228E+02  0.87394009337E+02  0.80065913525E+02 0.  0.
         66    2    3    3    0    0  0.79212718467E+01 -0.34414637747E+02 -0.29966357518E+01  0.35497798045E+02  0.20000003200E+01 0.  0.
         13    1    3    3    0    0 -0.79212718467E+01  0.34414637747E+02  0.38027512980E+02  0.51896211292E+02  0.10566000000E+00 0. -1.
         13    1    4    4    0    0  0.24067567012E+00 -0.23533203134E+01 -0.53679703279E+00  0.24280354951E+01  0.10566000000E+00 0. -1.
        -13    1    4    4    0    0  0.48061785777E+01 -0.18426595700E+02 -0.13435650095E+01  0.19090707493E+02  0.10566000000E+00 0.  1.
         14    1    4    4    0    0  0.28744175989E+01 -0.13634721734E+02 -0.11162737095E+01  0.13979055058E+02  0.00000000000E+00 0. -1.
<mgrwt>
<rscale>  0 0.80065914E+02</rscale>
<asrwt>0</asrwt>
<pdfrwt beam="1">  1        1 0.94172990E-02 0.80065914E+02</pdfrwt>
<pdfrwt beam="2">  1       -2 0.40279332E-02 0.80065914E+02</pdfrwt>
<totfact> 0.13550173E+05</totfact>
</mgrwt>
</event>
<event>
 8    1  0.8247621E-018  0.7885913E+02  0.7818608E-02  0.1332321E+00
          1   -1    0    0  501    0  0.00000000000E+00  0.00000000000E+00  0.18119677050E+02  0.18119677750E+02  0.50400000000E-02 0. -1.
         -2   -1    0    0    0  501 -0.00000000000E+00 -0.00000000000E+00 -0.85801235435E+02  0.85801235473E+02  0.25500000000E-02 0.  1.
        -24    2    1    2    0    0  0.00000000000E+00  0.00000000000E+00 -0.67681558385E+02  0.10392091322E+03  0.78859133014E+02 0.  0.
         66    2    3    3    0    0  0.32890469456E+02 -0.17204824677E+02 -0.51290257936E+02  0.63344135780E+02  0.20000013585E+01 0.  0.
         13    1    3    3    0    0 -0.32890469456E+02  0.17204824677E+02 -0.16391300449E+02  0.40576777443E+02  0.10566000000E+00 0. -1.
         13    1    4    4    0    0  0.11638471378E+02 -0.53605707588E+01 -0.17176001125E+02  0.21429323684E+02  0.10566000000E+00 0. -1.
        -13    1    4    4    0    0  0.18790130792E+02 -0.10154168194E+02 -0.29561836952E+02  0.36470392305E+02  0.10566000000E+00 0.  1.
         14    1    4    4    0    0  0.24618672862E+01 -0.16900857241E+01 -0.45524198589E+01  0.54444197911E+01  0.00000000000E+00 0. -1.
<mgrwt>
<rscale>  0 0.78859133E+02</rscale>
<asrwt>0</asrwt>
<pdfrwt beam="1">  1        1 0.27876427E-02 0.78859133E+02</pdfrwt>
<pdfrwt beam="2">  1       -2 0.13200190E-01 0.78859133E+02</pdfrwt>
<totfact> 0.11415417E+05</totfact>
</mgrwt>
</event>
<event>
 8    1  0.8247621E-018  0.8153352E+02  0.7818608E-02  0.1324755E+00
          1   -1    0    0  501    0  0.00000000000E+00  0.00000000000E+00  0.38726361099E+01  0.38726393896E+01  0.50400000000E-02 0. -1.
         -2   -1    0    0    0  501 -0.00000000000E+00 -0.00000000000E+00 -0.42914645706E+03  0.42914645706E+03  0.25500000000E-02 0.  1.
        -24    2    1    2    0    0  0.17763568394E-14  0.00000000000E+00 -0.42527382095E+03  0.43301909645E+03  0.81533521395E+02 0.  0.
         66    2    3    3    0    0 -0.81954492420E+01 -0.17186417686E+02 -0.40406026691E+03  0.40451358155E+03  0.20000050158E+01 0.  0.
         13    1    3    3    0    0  0.81954492420E+01  0.17186417686E+02 -0.21213554037E+02  0.28505514907E+02  0.10566000000E+00 0. -1.
         13    1    4    4    0    0 -0.64949855842E+00 -0.19041496047E+01 -0.35436607784E+02  0.35493830019E+02  0.10566000000E+00 0. -1.
        -13    1    4    4    0    0 -0.12041117465E+01 -0.33432851003E+01 -0.84105940298E+02  0.84181041795E+02  0.10566000000E+00 0.  1.
         14    1    4    4    0    0 -0.63418389370E+01 -0.11938982981E+02 -0.28451771883E+03  0.28483870973E+03  0.00000000000E+00 0. -1.
<mgrwt>
<rscale>  0 0.81533521E+02</rscale>
<asrwt>0</asrwt>
<pdfrwt beam="1">  1        1 0.59579076E-03 0.81533521E+02</pdfrwt>
<pdfrwt beam="2">  1       -2 0.66022494E-01 0.81533521E+02</pdfrwt>
<totfact> 0.53639765E+04</totfact>
</mgrwt>
</event>
<event>
 8    1  0.8247621E-018  0.8158774E+02  0.7818608E-02  0.1324605E+00
          1   -1    0    0  501    0  0.00000000000E+00  0.00000000000E+00  0.48723591255E+02  0.48723591515E+02  0.50400000000E-02 0. -1.
         -2   -1    0    0    0  501 -0.00000000000E+00 -0.00000000000E+00 -0.34154707219E+02  0.34154707314E+02  0.25500000000E-02 0.  1.
        -24    2    1    2    0    0  0.00000000000E+00 -0.35527136788E-14  0.14568884036E+02  0.82878298829E+02  0.81587744391E+02 0.  0.
         66    2    3    3    0    0  0.42453119604E+01 -0.29628752350E+02 -0.20830264093E+02  0.36521028722E+02  0.19999993235E+01 0.  0.
         13    1    3    3    0    0 -0.42453119604E+01  0.29628752350E+02  0.35399148129E+02  0.46357270107E+02  0.10566000000E+00 0. -1.
         13    1    4    4    0    0  0.14742165776E+01 -0.13776858623E+02 -0.97300772963E+01  0.16931057742E+02  0.10566000000E+00 0. -1.
        -13    1    4    4    0    0  0.32370424155E+00 -0.16232091071E+01 -0.71967429993E+00  0.18079511539E+01  0.10566000000E+00 0.  1.
        -14    1    4    4    0    0  0.24473911413E+01 -0.14228684620E+02 -0.10380512497E+02  0.17782019827E+02  0.00000000000E+00 0.  1.
<mgrwt>
<rscale>  0 0.81587744E+02</rscale>
<asrwt>0</asrwt>
<pdfrwt beam="1">  1        1 0.74959371E-02 0.81587744E+02</pdfrwt>
<pdfrwt beam="2">  1       -2 0.52545704E-02 0.81587744E+02</pdfrwt>
<totfact> 0.12404482E+05</totfact>
</mgrwt>
</event>
<event>
 8    1  0.8247621E-018  0.8139070E+02  0.7818608E-02  0.1325151E+00
         -2   -1    0    0    0  501 -0.00000000000E+00  0.00000000000E+00  0.86819260053E+01  0.86819263798E+01  0.25500000000E-02 0.  1.
          1   -1    0    0  501    0  0.00000000000E+00 -0.00000000000E+00 -0.19075392905E+03  0.19075392912E+03  0.50400000000E-02 0. -1.
        -24    2    1    2    0    0  0.35527136788E-14  0.71054273576E-14 -0.18207200304E+03  0.19943585550E+03  0.81390700727E+02 0.  0.
         66    2    3    3    0    0 -0.19938246447E+02 -0.33098856994E+02 -0.59995615772E+02  0.71390068766E+02  0.20000002187E+01 0.  0.
         13    1    3    3    0    0  0.19938246447E+02  0.33098856994E+02 -0.12207638727E+03  0.12804578673E+03  0.10566000000E+00 0. -1.
         13    1    4    4    0    0 -0.12560702564E+02 -0.20166988383E+02 -0.38277196715E+02  0.45051455268E+02  0.10566000000E+00 0. -1.
        -13    1    4    4    0    0 -0.24137779869E+01 -0.38317916990E+01 -0.69222988326E+01  0.82727466393E+01  0.10566000000E+00 0.  1.
         14    1    4    4    0    0 -0.49637658965E+01 -0.91000769123E+01 -0.14796120224E+02  0.18065866859E+02  0.00000000000E+00 0. -1.
<mgrwt>
<rscale>  0 0.81390701E+02</rscale>
<asrwt>0</asrwt>
<pdfrwt beam="1">  1        1 0.29346755E-01 0.81390701E+02</pdfrwt>
<pdfrwt beam="2">  1       -2 0.13356811E-02 0.81390701E+02</pdfrwt>
<totfact> 0.15781471E+05</totfact>
</mgrwt>
</event>
<event>
 8    1  0.8247621E-018  0.7958172E+02  0.7818608E-02  0.1330243E+00
          1   -1    0    0  501    0  0.00000000000E+00  0.00000000000E+00  0.45610522356E+02  0.45610522635E+02  0.50400000000E-02 0. -1.
         -2   -1    0    0    0  501 -0.00000000000E+00 -0.00000000000E+00 -0.34713756855E+02  0.34713756948E+02  0.25500000000E-02 0.  1.
        -24    2    1    2    0    0  0.00000000000E+00  0.00000000000E+00  0.10896765502E+02  0.80324279583E+02  0.79581721470E+02 0.  0.
         66    2    3    3    0    0 -0.33257593358E+02 -0.44634575681E+01  0.26989089743E+02  0.43109174680E+02  0.20000017507E+01 0.  0.
         13    1    3    3    0    0  0.33257593358E+02  0.44634575681E+01 -0.16092324241E+02  0.37215104903E+02  0.10566000000E+00 0. -1.
         13    1    4    4    0    0 -0.36399562109E+01 -0.71963149727E+00  0.32939894216E+01  0.49627291942E+01  0.10566000000E+00 0. -1.
        -13    1    4    4    0    0 -0.24825934784E+02 -0.35417538540E+01  0.20407505609E+02  0.32331849738E+02  0.10566000000E+00 0.  1.
         14    1    4    4    0    0 -0.47917023637E+01 -0.20207221691E+00  0.32875947121E+01  0.58145957481E+01  0.00000000000E+00 0. -1.
<mgrwt>
<rscale>  0 0.79581721E+02</rscale>
<asrwt>0</asrwt>
<pdfrwt beam="1">  1        1 0.70170035E-02 0.79581721E+02</pdfrwt>
<pdfrwt beam="2">  1       -2 0.53405780E-02 0.79581721E+02</pdfrwt>
<totfact> 0.13158939E+05</totfact>
</mgrwt>
</event>
<event>
 8    1  0.8247621E-018  0.7991745E+02  0.7818608E-02  0.1329286E+00
          1   -1    0    0  501    0  0.00000000000E+00  0.00000000000E+00  0.54906940201E+02  0.54906940432E+02  0.50400000000E-02 0. -1.
         -2   -1    0    0    0  501 -0.00000000000E+00 -0.00000000000E+00 -0.29080104062E+02  0.29080104174E+02  0.25500000000E-02 0.  1.
        -24    2    1    2    0    0  0.35527136788E-14  0.00000000000E+00  0.25826836139E+02  0.83987044606E+02  0.79917446135E+02 0.  0.
         66    2    3    3    0    0  0.31195695484E+02  0.22436533498E+02  0.24343476038E+02  0.45532123291E+02  0.19999934138E+01 0.  0.
         13    1    3    3    0    0 -0.31195695484E+02 -0.22436533498E+02  0.14833601006E+01  0.38454921315E+02  0.10566000000E+00 0. -1.
         13    1    4    4    0    0  0.18026139944E+02  0.13689723108E+02  0.14460973516E+02  0.26860401321E+02  0.10566000000E+00 0. -1.
        -13    1    4    4    0    0  0.79184330176E+01  0.55477662517E+01  0.55353467341E+01  0.11141387676E+02  0.10566000000E+00 0.  1.
        -14    1    4    4    0    0  0.52511225218E+01  0.31990441381E+01  0.43471557881E+01  0.75303342942E+01  0.00000000000E+00 0.  1.
<mgrwt>
<rscale>  0 0.79917446E+02</rscale>
<asrwt>0</asrwt>
<pdfrwt beam="1">  1        1 0.84472215E-02 0.79917446E+02</pdfrwt>
<pdfrwt beam="2">  1       -2 0.44738622E-02 0.79917446E+02</pdfrwt>
<totfact> 0.13389975E+05</totfact>
</mgrwt>
</event>
<event>
 8    1  0.8247621E-018  0.8124147E+02  0.7818608E-02  0.1325565E+00
         -2   -1    0    0    0  501 -0.00000000000E+00  0.00000000000E+00  0.70785969116E+01  0.70785973709E+01  0.25500000000E-02 0.  1.
          1   -1    0    0  501    0  0.00000000000E+00 -0.00000000000E+00 -0.23310329259E+03  0.23310329265E+03  0.50400000000E-02 0. -1.
        -24    2    1    2    0    0 -0.17763568394E-14 -0.71054273576E-14 -0.22602469568E+03  0.24018189002E+03  0.81241474845E+02 0.  0.
         66    2    3    3    0    0  0.11271349413E+02  0.38225913383E+02 -0.13593791322E+03  0.14167349794E+03  0.19999991317E+01 0.  0.
         13    1    3    3    0    0 -0.11271349413E+02 -0.38225913383E+02 -0.90086782463E+02  0.98508392080E+02  0.10566000000E+00 0. -1.
         13    1    4    4    0    0  0.11196562858E+01  0.48216725576E+01 -0.18210047456E+02  0.18871119438E+02  0.10566000000E+00 0. -1.
        -13    1    4    4    0    0  0.98206920639E+01  0.31244519078E+02 -0.11033183026E+03  0.11509035536E+03  0.10566000000E+00 0.  1.
        -14    1    4    4    0    0  0.33100106360E+00  0.21597217466E+01 -0.73960355065E+01  0.77120231419E+01  0.00000000000E+00 0.  1.
<mgrwt>
<rscale>  0 0.81241475E+02</rscale>
<asrwt>0</asrwt>
<pdfrwt beam="1">  1        1 0.35862039E-01 0.81241475E+02</pdfrwt>
<pdfrwt beam="2">  1       -2 0.10890151E-02 0.81241475E+02</pdfrwt>
<totfact> 0.16492362E+05</totfact>
</mgrwt>
</event>
<event>
 8    1  0.8247621E-018  0.7795915E+02  0.7818608E-02  0.1334945E+00
         -2   -1    0    0    0  501 -0.00000000000E+00  0.00000000000E+00  0.15147587472E+03  0.15147587474E+03  0.25500000000E-02 0.  1.
          1   -1    0    0  501    0  0.00000000000E+00 -0.00000000000E+00 -0.10030688193E+02  0.10030689460E+02  0.50400000000E-02 0. -1.
        -24    2    1    2    0    0  0.71054273576E-14 -0.88817841970E-15  0.14144518653E+03  0.16150656420E+03  0.77959152692E+02 0.  0.
         66    2    3    3    0    0  0.37703200462E+02 -0.54444389797E+01  0.53909388420E+02  0.66040861694E+02  0.20000031646E+01 0.  0.
         13    1    3    3    0    0 -0.37703200462E+02  0.54444389797E+01  0.87535798108E+02  0.95465702508E+02  0.10566000000E+00 0. -1.
         13    1    4    4    0    0  0.16581273737E+02 -0.26877472705E+01  0.24080627309E+02  0.29360694811E+02  0.10566000000E+00 0. -1.
        -13    1    4    4    0    0  0.63740792074E+01 -0.11072537167E+01  0.10062488576E+02  0.11963266147E+02  0.10566000000E+00 0.  1.
         14    1    4    4    0    0  0.14747847518E+02 -0.16494379925E+01  0.19766272535E+02  0.24716900737E+02  0.00000000000E+00 0. -1.
<mgrwt>
<rscale>  0 0.77959153E+02</rscale>
<asrwt>0</asrwt>
<pdfrwt beam="1">  1        1 0.15431829E-02 0.77959153E+02</pdfrwt>
<pdfrwt beam="2">  1       -2 0.23303981E-01 0.77959153E+02</pdfrwt>
<totfact> 0.10067986E+05</totfact>
</mgrwt>
</event>
<event>
 8    1  0.8247621E-018  0.7476138E+02  0.7818608E-02  0.1344612E+00
          1   -1    0    0  501    0  0.00000000000E+00  0.00000000000E+00  0.26136841257E+02  0.26136841743E+02  0.50400000000E-02 0. -1.
         -2   -1    0    0    0  501 -0.00000000000E+00 -0.00000000000E+00 -0.53461541740E+02  0.53461541801E+02  0.25500000000E-02 0.  1.
        -24    2    1    2    0    0  0.88817841970E-15  0.00000000000E+00 -0.27324700483E+02  0.79598383544E+02  0.74761376434E+02 0.  0.
         66    2    3    3    0    0 -0.54578434729E+01 -0.31493441962E+02 -0.34253760376E+02  0.46892910347E+02  0.19999997305E+01 0.  0.
         13    1    3    3    0    0  0.54578434729E+01  0.31493441962E+02  0.69290598938E+01  0.32705473197E+02  0.10566000000E+00 0. -1.
         13    1    4    4    0    0 -0.29441589763E+00 -0.23186317928E+01 -0.20153261763E+01  0.30879504115E+01  0.10566000000E+00 0. -1.
        -13    1    4    4    0    0 -0.16521097533E+00 -0.71071877218E+00 -0.10781735773E+01  0.13061539488E+01  0.10566000000E+00 0.  1.
        -14    1    4    4    0    0 -0.49982165999E+01 -0.28464091397E+02 -0.31160260623E+02  0.42498805987E+02  0.00000000000E+00 0.  1.
<mgrwt>
<rscale>  0 0.74761376E+02</rscale>
<asrwt>0</asrwt>
<pdfrwt beam="1">  1        1 0.40210526E-02 0.74761376E+02</pdfrwt>
<pdfrwt beam="2">  1       -2 0.82248525E-02 0.74761376E+02</pdfrwt>
<totfact> 0.14337888E+05</totfact>
</mgrwt>
</event>
<event>
 8    1  0.8247621E-018  0.7751732E+02  0.7818608E-02  0.1336248E+00
         -2   -1    0    0    0  501 -0.00000000000E+00  0.00000000000E+00  0.13288496284E+02  0.13288496528E+02  0.25500000000E-02 0.  1.
          1   -1    0    0  501    0  0.00000000000E+00 -0.00000000000E+00 -0.11304767579E+03  0.11304767590E+03  0.50400000000E-02 0. -1.
        -24    2    1    2    0    0 -0.35527136788E-14  0.44408920985E-15 -0.99759179504E+02  0.12633617243E+03  0.77517317863E+02 0.  0.
         66    2    3    3    0    0  0.27554247521E+02 -0.24933785029E+01 -0.57346823611E+01  0.28325608101E+02  0.19999999176E+01 0.  0.
         13    1    3    3    0    0 -0.27554247521E+02  0.24933785029E+01 -0.94024497143E+02  0.98010564328E+02  0.10566000000E+00 0. -1.
         13    1    4    4    0    0  0.10530094061E+02 -0.10441483933E+01 -0.28968399429E+01  0.10971598448E+02  0.10566000000E+00 0. -1.
        -13    1    4    4    0    0  0.11012630513E+02 -0.61242478783E+00 -0.22384944148E+01  0.11255004052E+02  0.10566000000E+00 0.  1.
        -14    1    4    4    0    0  0.60115229473E+01 -0.83680532182E+00 -0.59934800343E+00  0.60990056010E+01  0.00000000000E+00 0.  1.
<mgrwt>
<rscale>  0 0.77517318E+02</rscale>
<asrwt>0</asrwt>
<pdfrwt beam="1">  1        1 0.17391950E-01 0.77517318E+02</pdfrwt>
<pdfrwt beam="2">  1       -2 0.20443841E-02 0.77517318E+02</pdfrwt>
<totfact> 0.16336621E+05</totfact>
</mgrwt>
</event>
<event>
 8    1  0.8247621E-018  0.8541867E+02  0.7818608E-02  0.1314341E+00
          1   -1    0    0  501    0  0.00000000000E+00  0.00000000000E+00  0.20251401132E+03  0.20251401138E+03  0.50400000000E-02 0. -1.
         -2   -1    0    0    0  501 -0.00000000000E+00 -0.00000000000E+00 -0.90072150932E+01  0.90072154542E+01  0.25500000000E-02 0.  1.
        -24    2    1    2    0    0 -0.35527136788E-14 -0.35527136788E-14  0.19350679623E+03  0.21152122684E+03  0.85418670188E+02 0.  0.
         66    2    3    3    0    0 -0.30159464253E+02 -0.29680452175E+02  0.82894987056E+02  0.93091897626E+02  0.19999998227E+01 0.  0.
         13    1    3    3    0    0  0.30159464253E+02  0.29680452175E+02  0.11061180917E+03  0.11842932921E+03  0.10566000000E+00 0. -1.
         13    1    4    4    0    0 -0.52076554226E+01 -0.49951772995E+01  0.12764952760E+02  0.14663787173E+02  0.10566000000E+00 0. -1.
        -13    1    4    4    0    0 -0.24747498235E+02 -0.24567029195E+02  0.69562227159E+02  0.77813187853E+02  0.10566000000E+00 0.  1.
         14    1    4    4    0    0 -0.20431059510E+00 -0.11824567983E+00  0.56780713683E+00  0.61492260058E+00  0.00000000000E+00 0. -1.
<mgrwt>
<rscale>  0 0.85418670E+02</rscale>
<asrwt>0</asrwt>
<pdfrwt beam="1">  1        1 0.31156000E-01 0.85418670E+02</pdfrwt>
<pdfrwt beam="2">  1       -2 0.13857255E-02 0.85418670E+02</pdfrwt>
<totfact> 0.14036685E+05</totfact>
</mgrwt>
</event>
<event>
 8    1  0.8247621E-018  0.8520267E+02  0.7818608E-02  0.1314903E+00
         -2   -1    0    0    0  501 -0.00000000000E+00  0.00000000000E+00  0.74105490849E+01  0.74105495237E+01  0.25500000000E-02 0.  1.
          1   -1    0    0  501    0  0.00000000000E+00 -0.00000000000E+00 -0.24490405016E+03  0.24490405021E+03  0.50400000000E-02 0. -1.
        -24    2    1    2    0    0  0.00000000000E+00  0.35527136788E-14 -0.23749350107E+03  0.25231459973E+03  0.85202665373E+02 0.  0.
         66    2    3    3    0    0  0.32541804153E+02  0.17119400471E+02 -0.55241221455E+02  0.66390025026E+02  0.19999962915E+01 0.  0.
         13    1    3    3    0    0 -0.32541804153E+02 -0.17119400471E+02 -0.18225227962E+03  0.18592457471E+03  0.10566000000E+00 0. -1.
         13    1    4    4    0    0  0.67962316418E+01  0.41844697336E+01 -0.12699916224E+02  0.14999919587E+02  0.10566000000E+00 0. -1.
        -13    1    4    4    0    0  0.38923426922E+01  0.21039442687E+01 -0.71327292086E+01  0.83942779987E+01  0.10566000000E+00 0.  1.
        -14    1    4    4    0    0  0.21853229819E+02  0.10830986469E+02 -0.35408576022E+02  0.42995827441E+02  0.00000000000E+00 0.  1.
<mgrwt>
<rscale>  0 0.85202665E+02</rscale>
<asrwt>0</asrwt>
<pdfrwt beam="1">  1        1 0.37677540E-01 0.85202665E+02</pdfrwt>
<pdfrwt beam="2">  1       -2 0.11400847E-02 0.85202665E+02</pdfrwt>
<totfact> 0.14674493E+05</totfact>
</mgrwt>
</event>
<event>
 8    1  0.8247621E-018  0.8026595E+02  0.7818608E-02  0.1328298E+00
         -2   -1    0    0    0  501 -0.00000000000E+00  0.00000000000E+00  0.81549003304E+02  0.81549003343E+02  0.25500000000E-02 0.  1.
          1   -1    0    0  501    0  0.00000000000E+00 -0.00000000000E+00 -0.19750768943E+02  0.19750769586E+02  0.50400000000E-02 0. -1.
        -24    2    1    2    0    0  0.35527136788E-14  0.00000000000E+00  0.61798234361E+02  0.10129977293E+03  0.80265946860E+02 0.  0.
         66    2    3    3    0    0 -0.25665498413E+02 -0.29741676345E+02  0.41121798831E+02  0.56905952741E+02  0.19999994203E+01 0.  0.
         13    1    3    3    0    0  0.25665498413E+02  0.29741676345E+02  0.20676435530E+02  0.44393820188E+02  0.10566000000E+00 0. -1.
         13    1    4    4    0    0 -0.10649119077E+01 -0.17488577018E+01  0.23264097060E+01  0.31009493366E+01  0.10566000000E+00 0. -1.
        -13    1    4    4    0    0 -0.22439381854E+02 -0.25264012916E+02  0.34806662341E+02  0.48510938085E+02  0.10566000000E+00 0.  1.
        -14    1    4    4    0    0 -0.21612046514E+01 -0.27288057278E+01  0.39887267843E+01  0.52940653193E+01  0.00000000000E+00 0.  1.
<mgrwt>
<rscale>  0 0.80265947E+02</rscale>
<asrwt>0</asrwt>
<pdfrwt beam="1">  1        1 0.30385799E-02 0.80265947E+02</pdfrwt>
<pdfrwt beam="2">  1       -2 0.12546001E-01 0.80265947E+02</pdfrwt>
<totfact> 0.11035778E+05</totfact>
</mgrwt>
</event>
<event>
 8    1  0.8247621E-018  0.8026637E+02  0.7818608E-02  0.1328297E+00
          1   -1    0    0  501    0  0.00000000000E+00  0.00000000000E+00  0.89963077444E+01  0.89963091562E+01  0.50400000000E-02 0. -1.
         -2   -1    0    0    0  501 -0.00000000000E+00 -0.00000000000E+00 -0.17903702899E+03  0.17903702901E+03  0.25500000000E-02 0.  1.
        -24    2    1    2    0    0  0.00000000000E+00 -0.71054273576E-14 -0.17004072125E+03  0.18803333817E+03  0.80266365182E+02 0.  0.
         66    2    3    3    0    0 -0.10752337625E+02 -0.38639780946E+02 -0.84725989244E+02  0.93761072379E+02  0.20000010540E+01 0.  0.
         13    1    3    3    0    0  0.10752337625E+02  0.38639780946E+02 -0.85314732004E+02  0.94272265788E+02  0.10566000000E+00 0. -1.
         13    1    4    4    0    0 -0.23639911636E+01 -0.96972847410E+01 -0.22756266487E+02  0.24849237695E+02  0.10566000000E+00 0.  1.
        -13    1    4    4    0    0 -0.40991990019E+00 -0.18840667733E+01 -0.37945423845E+01  0.42576352444E+01  0.10566000000E+00 0. -1.
         14    1    4    4    0    0 -0.79784265607E+01 -0.27058429432E+02 -0.58175180373E+02  0.64654199439E+02  0.00000000000E+00 0. -1.
<mgrwt>
<rscale>  0 0.80266365E+02</rscale>
<asrwt>0</asrwt>
<pdfrwt beam="1">  1        1 0.13840476E-02 0.80266365E+02</pdfrwt>
<pdfrwt beam="2">  1       -2 0.27544156E-01 0.80266365E+02</pdfrwt>
<totfact> 0.88070207E+04</totfact>
</mgrwt>
</event>
<event>
 8    1  0.8247621E-018  0.8139034E+02  0.7818608E-02  0.1325152E+00
         -2   -1    0    0    0  501 -0.00000000000E+00  0.00000000000E+00  0.22570092563E+03  0.22570092565E+03  0.25500000000E-02 0.  1.
          1   -1    0    0  501    0  0.00000000000E+00 -0.00000000000E+00 -0.73375716573E+01  0.73375733882E+01  0.50400000000E-02 0. -1.
        -24    2    1    2    0    0 -0.17763568394E-14  0.71054273576E-14  0.21836335398E+03  0.23303849904E+03  0.81390341400E+02 0.  0.
         66    2    3    3    0    0  0.10131049182E+02 -0.35733642258E+02  0.15669061251E+03  0.16104496078E+03  0.19999993212E+01 0.  0.
         13    1    3    3    0    0 -0.10131049182E+02  0.35733642258E+02  0.61672741464E+02  0.71993538253E+02  0.10566000000E+00 0. -1.
         13    1    4    4    0    0  0.58036329626E+01 -0.19126402732E+02  0.87067382460E+02  0.89332198504E+02  0.10566000000E+00 0. -1.
        -13    1    4    4    0    0  0.28156507128E+01 -0.10044202683E+02  0.40680260916E+02  0.41996531865E+02  0.10566000000E+00 0.  1.
         14    1    4    4    0    0  0.15117655071E+01 -0.65630368432E+01  0.28942969136E+02  0.29716230413E+02  0.00000000000E+00 0. -1.
<mgrwt>
<rscale>  0 0.81390341E+02</rscale>
<asrwt>0</asrwt>
<pdfrwt beam="1">  1        1 0.11288573E-02 0.81390341E+02</pdfrwt>
<pdfrwt beam="2">  1       -2 0.34723220E-01 0.81390341E+02</pdfrwt>
<totfact> 0.77307506E+04</totfact>
</mgrwt>
</event>
<event>
 8    1  0.8247621E-018  0.7944077E+02  0.7818608E-02  0.1330646E+00
         -2   -1    0    0    0  501 -0.00000000000E+00  0.00000000000E+00  0.25771898321E+03  0.25771898322E+03  0.25500000000E-02 0.  1.
          1   -1    0    0  501    0  0.00000000000E+00 -0.00000000000E+00 -0.61218186504E+01  0.61218207251E+01  0.50400000000E-02 0. -1.
        -24    2    1    2    0    0 -0.71054273576E-14  0.17763568394E-14  0.25159716456E+03  0.26384080395E+03  0.79440774250E+02 0.  0.
         66    2    3    3    0    0  0.38681283776E+02 -0.60399057456E+01  0.14765228101E+03  0.15276753013E+03  0.19999997969E+01 0.  0.
         13    1    3    3    0    0 -0.38681283776E+02  0.60399057456E+01  0.10394488355E+03  0.11107327382E+03  0.10566000000E+00 0. -1.
         13    1    4    4    0    0  0.18411994608E+02 -0.30543627172E+01  0.73513940989E+02  0.75846169058E+02  0.10566000000E+00 0. -1.
        -13    1    4    4    0    0  0.51747894586E+01 -0.42615659852E+00  0.18985571354E+02  0.19683067319E+02  0.10566000000E+00 0.  1.
         14    1    4    4    0    0  0.15094499710E+02 -0.25593864298E+01  0.55152768665E+02  0.57238293754E+02  0.00000000000E+00 0. -1.
<mgrwt>
<rscale>  0 0.79440774E+02</rscale>
<asrwt>0</asrwt>
<pdfrwt beam="1">  1        1 0.94181836E-03 0.79440774E+02</pdfrwt>
<pdfrwt beam="2">  1       -2 0.39649077E-01 0.79440774E+02</pdfrwt>
<totfact> 0.77381818E+04</totfact>
</mgrwt>
</event>
<event>
 8    1  0.8247621E-018  0.8129672E+02  0.7818608E-02  0.1325411E+00
         -2   -1    0    0    0  501 -0.00000000000E+00  0.00000000000E+00  0.70041882830E+02  0.70041882876E+02  0.25500000000E-02 0.  1.
          1   -1    0    0  501    0  0.00000000000E+00 -0.00000000000E+00 -0.23590014840E+02  0.23590015378E+02  0.50400000000E-02 0. -1.
        -24    2    1    2    0    0  0.35527136788E-14  0.35527136788E-14  0.46451867990E+02  0.93631898254E+02  0.81296717836E+02 0.  0.
         66    2    3    3    0    0 -0.30589499201E+02 -0.15271921371E+02  0.48508166559E+02  0.59380057843E+02  0.20000006988E+01 0.  0.
         13    1    3    3    0    0  0.30589499201E+02  0.15271921371E+02 -0.20562985690E+01  0.34251840411E+02  0.10566000000E+00 0. -1.
         13    1    4    4    0    0 -0.73830434319E+01 -0.38565342957E+01  0.12998944607E+02  0.15439103343E+02  0.10566000000E+00 0. -1.
        -13    1    4    4    0    0 -0.17619093285E+02 -0.88500205540E+01  0.27737692355E+02  0.34031544973E+02  0.10566000000E+00 0.  1.
         14    1    4    4    0    0 -0.55873624841E+01 -0.25653665214E+01  0.77715295966E+01  0.99094095277E+01  0.00000000000E+00 0. -1.
<mgrwt>
<rscale>  0 0.81296718E+02</rscale>
<asrwt>0</asrwt>
<pdfrwt beam="1">  1        1 0.36292332E-02 0.81296718E+02</pdfrwt>
<pdfrwt beam="2">  1       -2 0.10775674E-01 0.81296718E+02</pdfrwt>
<totfact> 0.11029842E+05</totfact>
</mgrwt>
</event>
<event>
 8    1  0.8247621E-018  0.8114978E+02  0.7818608E-02  0.1325820E+00
          1   -1    0    0  501    0  0.00000000000E+00  0.00000000000E+00  0.12113907350E+02  0.12113908398E+02  0.50400000000E-02 0. -1.
         -2   -1    0    0    0  501 -0.00000000000E+00 -0.00000000000E+00 -0.13590343817E+03  0.13590343819E+03  0.25500000000E-02 0.  1.
        -24    2    1    2    0    0  0.00000000000E+00 -0.53290705182E-14 -0.12378953082E+03  0.14801734659E+03  0.81149780970E+02 0.  0.
         66    2    3    3    0    0 -0.34766918895E+02  0.15643635338E+02 -0.87130878123E+02  0.95127555916E+02  0.19999990269E+01 0.  0.
         13    1    3    3    0    0  0.34766918895E+02 -0.15643635338E+02 -0.36658652695E+02  0.52889790674E+02  0.10566000000E+00 0. -1.
         13    1    4    4    0    0 -0.56899225308E+01  0.24121695683E+01 -0.15061744797E+02  0.16280697184E+02  0.10566000000E+00 0. -1.
        -13    1    4    4    0    0 -0.15721732713E+02  0.68633118804E+01 -0.40437512253E+02  0.43925863574E+02  0.10566000000E+00 0.  1.
        -14    1    4    4    0    0 -0.13355263652E+02  0.63681538898E+01 -0.31631621073E+02  0.34920995159E+02  0.00000000000E+00 0.  1.
<mgrwt>
<rscale>  0 0.81149781E+02</rscale>
<asrwt>0</asrwt>
<pdfrwt beam="1">  1        1 0.18636782E-02 0.81149781E+02</pdfrwt>
<pdfrwt beam="2">  1       -2 0.20908220E-01 0.81149781E+02</pdfrwt>
<totfact> 0.94003857E+04</totfact>
</mgrwt>
</event>
<event>
 8    1  0.8247621E-018  0.7926185E+02  0.7818608E-02  0.1331159E+00
         -2   -1    0    0    0  501 -0.00000000000E+00  0.00000000000E+00  0.10898193333E+02  0.10898193631E+02  0.25500000000E-02 0.  1.
          1   -1    0    0  501    0  0.00000000000E+00 -0.00000000000E+00 -0.14411657039E+03  0.14411657048E+03  0.50400000000E-02 0. -1.
        -24    2    1    2    0    0  0.00000000000E+00  0.00000000000E+00 -0.13321837706E+03  0.15501476411E+03  0.79261851519E+02 0.  0.
         66    2    3    3    0    0  0.33788974471E+02 -0.19953915015E+02 -0.77138238591E+02  0.86568824751E+02  0.20000114129E+01 0.  0.
         13    1    3    3    0    0 -0.33788974471E+02  0.19953915015E+02 -0.56080138467E+02  0.68445939359E+02  0.10566000000E+00 0. -1.
         13    1    4    4    0    0  0.11733189226E+02 -0.75661926083E+01 -0.27459817065E+02  0.30805319627E+02  0.10566000000E+00 0. -1.
        -13    1    4    4    0    0  0.20438659809E+02 -0.11559507220E+02 -0.46783699260E+02  0.52345837490E+02  0.10566000000E+00 0.  1.
         14    1    4    4    0    0  0.16171254353E+01 -0.82821518688E+00 -0.28947222655E+01  0.34176676351E+01  0.00000000000E+00 0. -1.
<mgrwt>
<rscale>  0 0.79261852E+02</rscale>
<asrwt>0</asrwt>
<pdfrwt beam="1">  1        1 0.22171779E-01 0.79261852E+02</pdfrwt>
<pdfrwt beam="2">  1       -2 0.16766453E-02 0.79261852E+02</pdfrwt>
<totfact> 0.16065997E+05</totfact>
</mgrwt>
</event>
<event>
 8    1  0.8247621E-018  0.8379679E+02  0.7818608E-02  0.1318609E+00
         -2   -1    0    0    0  501 -0.00000000000E+00  0.00000000000E+00  0.76485957527E+02  0.76485957569E+02  0.25500000000E-02 0.  1.
          1   -1    0    0  501    0  0.00000000000E+00 -0.00000000000E+00 -0.22951603191E+02  0.22951603744E+02  0.50400000000E-02 0. -1.
        -24    2    1    2    0    0  0.00000000000E+00  0.00000000000E+00  0.53534354336E+02  0.99437561314E+02  0.83796786966E+02 0.  0.
         66    2    3    3    0    0  0.12700321456E+02  0.36234650233E+02  0.46611260481E+02  0.60422327941E+02  0.20000168875E+01 0.  0.
         13    1    3    3    0    0 -0.12700321456E+02 -0.36234650233E+02  0.69230938551E+01  0.39015233373E+02  0.10566000000E+00 0. -1.
         13    1    4    4    0    0  0.39355626317E+01  0.13535921435E+02  0.16353909287E+02  0.21591001258E+02  0.10566000000E+00 0. -1.
        -13    1    4    4    0    0  0.62352908038E+01  0.16603948700E+02  0.21767505781E+02  0.28078558292E+02  0.10566000000E+00 0.  1.
         14    1    4    4    0    0  0.25294680200E+01  0.60947800989E+01  0.84898454132E+01  0.10752768390E+02  0.00000000000E+00 0. -1.
<mgrwt>
<rscale>  0 0.83796787E+02</rscale>
<asrwt>0</asrwt>
<pdfrwt beam="1">  1        1 0.35310160E-02 0.83796787E+02</pdfrwt>
<pdfrwt beam="2">  1       -2 0.11767070E-01 0.83796787E+02</pdfrwt>
<totfact> 0.10026614E+05</totfact>
</mgrwt>
</event>
<event>
 8    1  0.8247621E-018  0.8148819E+02  0.7818608E-02  0.1324880E+00
         -2   -1    0    0    0  501 -0.00000000000E+00  0.00000000000E+00  0.18857064161E+02  0.18857064333E+02  0.25500000000E-02 0.  1.
          1   -1    0    0  501    0  0.00000000000E+00 -0.00000000000E+00 -0.88034982116E+02  0.88034982261E+02  0.50400000000E-02 0. -1.
        -24    2    1    2    0    0 -0.44408920985E-15  0.00000000000E+00 -0.69177917956E+02  0.10689204659E+03  0.81488191122E+02 0.  0.
         66    2    3    3    0    0 -0.35576266710E+01 -0.39286444226E+02 -0.47857422070E+02  0.62051706315E+02  0.20000005077E+01 0.  0.
         13    1    3    3    0    0  0.35576266710E+01  0.39286444226E+02 -0.21320495886E+02  0.44840340278E+02  0.10566000000E+00 0. -1.
         13    1    4    4    0    0 -0.48133226992E+00 -0.45575376601E+01 -0.50596962794E+01  0.68274827537E+01  0.10566000000E+00 0. -1.
        -13    1    4    4    0    0 -0.29869732664E+01 -0.26195541601E+02 -0.32109983664E+02  0.41547450271E+02  0.10566000000E+00 0.  1.
         14    1    4    4    0    0 -0.89321134682E-01 -0.85333649645E+01 -0.10687742127E+02  0.13676773291E+02  0.00000000000E+00 0. -1.
<mgrwt>
<rscale>  0 0.81488191E+02</rscale>
<asrwt>0</asrwt>
<pdfrwt beam="1">  1        1 0.13543843E-01 0.81488191E+02</pdfrwt>
<pdfrwt beam="2">  1       -2 0.29010869E-02 0.81488191E+02</pdfrwt>
<totfact> 0.13688370E+05</totfact>
</mgrwt>
</event>
<event>
 8    1  0.8247621E-018  0.7010008E+02  0.7818608E-02  0.1359753E+00
          1   -1    0    0  501    0  0.00000000000E+00  0.00000000000E+00  0.35189033071E+02  0.35189033432E+02  0.50400000000E-02 0. -1.
         -2   -1    0    0    0  501 -0.00000000000E+00 -0.00000000000E+00 -0.34911599404E+02  0.34911599498E+02  0.25500000000E-02 0.  1.
        -24    2    1    2    0    0  0.35527136788E-14 -0.17763568394E-14  0.27743366707E+00  0.70100632930E+02  0.70100083935E+02 0.  0.
         66    2    3    3    0    0  0.22828301477E+02 -0.13132858560E+02 -0.22945920820E+02  0.34987406363E+02  0.19999998671E+01 0.  0.
         13    1    3    3    0    0 -0.22828301477E+02  0.13132858560E+02  0.23223354487E+02  0.35113226567E+02  0.10566000000E+00 0. -1.
         13    1    4    4    0    0  0.51025187611E+01 -0.35205712096E+01 -0.46938276296E+01  0.77764581399E+01  0.10566000000E+00 0. -1.
        -13    1    4    4    0    0  0.76113326072E+01 -0.41529080953E+01 -0.73046194107E+01  0.11337885979E+02  0.10566000000E+00 0.  1.
        -14    1    4    4    0    0  0.10114450109E+02 -0.54593792547E+01 -0.10947473779E+02  0.15873062244E+02  0.00000000000E+00 0.  1.
<mgrwt>
<rscale>  0 0.70100084E+02</rscale>
<asrwt>0</asrwt>
<pdfrwt beam="1">  1        1 0.54136974E-02 0.70100084E+02</pdfrwt>
<pdfrwt beam="2">  1       -2 0.53710153E-02 0.70100084E+02</pdfrwt>
<totfact> 0.17998655E+05</totfact>
</mgrwt>
</event>
<event>
 8    1  0.8247621E-018  0.7665312E+02  0.7818608E-02  0.1338827E+00
          1   -1    0    0  501    0  0.00000000000E+00  0.00000000000E+00  0.58178718709E+02  0.58178718927E+02  0.50400000000E-02 0. -1.
         -2   -1    0    0    0  501 -0.00000000000E+00 -0.00000000000E+00 -0.25248499737E+02  0.25248499866E+02  0.25500000000E-02 0.  1.
        -24    2    1    2    0    0  0.00000000000E+00 -0.17763568394E-14  0.32930218971E+02  0.83427218793E+02  0.76653124620E+02 0.  0.
         66    2    3    3    0    0 -0.23110703989E+02  0.15627608724E+02 -0.12083792735E+02  0.30468751980E+02  0.20000017744E+01 0.  0.
         13    1    3    3    0    0  0.23110703989E+02 -0.15627608724E+02  0.45014011706E+02  0.52958466813E+02  0.10566000000E+00 0. -1.
         13    1    4    4    0    0 -0.14367390271E+02  0.97257778481E+01 -0.65658743878E+01  0.18550863281E+02  0.10566000000E+00 0. -1.
        -13    1    4    4    0    0 -0.67171301635E+01  0.44682160206E+01 -0.39626097205E+01  0.89887836703E+01  0.10566000000E+00 0.  1.
        -14    1    4    4    0    0 -0.20261835542E+01  0.14336148555E+01 -0.15553086262E+01  0.29291050292E+01  0.00000000000E+00 0.  1.
<mgrwt>
<rscale>  0 0.76653125E+02</rscale>
<asrwt>0</asrwt>
<pdfrwt beam="1">  1        1 0.89505720E-02 0.76653125E+02</pdfrwt>
<pdfrwt beam="2">  1       -2 0.38843846E-02 0.76653125E+02</pdfrwt>
<totfact> 0.15154183E+05</totfact>
</mgrwt>
</event>
<event>
 8    1  0.8247621E-018  0.8205946E+02  0.7818608E-02  0.1323307E+00
         -2   -1    0    0    0  501 -0.00000000000E+00  0.00000000000E+00  0.17868421806E+02  0.17868421988E+02  0.25500000000E-02 0.  1.
          1   -1    0    0  501    0  0.00000000000E+00 -0.00000000000E+00 -0.94213070320E+02  0.94213070454E+02  0.50400000000E-02 0. -1.
        -24    2    1    2    0    0  0.88817841970E-15  0.00000000000E+00 -0.76344648514E+02  0.11208149244E+03  0.82059463752E+02 0.  0.
         66    2    3    3    0    0 -0.44042087537E+01 -0.21063440695E+02  0.94804840150E+01  0.23599685689E+02  0.19999996930E+01 0.  0.
         13    1    3    3    0    0  0.44042087537E+01  0.21063440695E+02 -0.85825132529E+02  0.88481806753E+02  0.10566000000E+00 0. -1.
         13    1    4    4    0    0 -0.29473432608E+00 -0.29334177289E+01  0.18814415565E+01  0.34989704573E+01  0.10566000000E+00 0. -1.
        -13    1    4    4    0    0 -0.41254581411E+01 -0.17663218843E+02  0.73508145009E+01  0.19571774131E+02  0.10566000000E+00 0.  1.
        -14    1    4    4    0    0  0.15983713485E-01 -0.46680412384E+00  0.24822795762E+00  0.52894110076E+00  0.00000000000E+00 0.  1.
<mgrwt>
<rscale>  0 0.82059464E+02</rscale>
<asrwt>0</asrwt>
<pdfrwt beam="1">  1        1 0.14494318E-01 0.82059464E+02</pdfrwt>
<pdfrwt beam="2">  1       -2 0.27489880E-02 0.82059464E+02</pdfrwt>
<totfact> 0.13583822E+05</totfact>
</mgrwt>
</event>
<event>
 8    1  0.8247621E-018  0.8040213E+02  0.7818608E-02  0.1327914E+00
         -2   -1    0    0    0  501 -0.00000000000E+00  0.00000000000E+00  0.24993969823E+02  0.24993969953E+02  0.25500000000E-02 0.  1.
          1   -1    0    0  501    0  0.00000000000E+00 -0.00000000000E+00 -0.64660623097E+02  0.64660623294E+02  0.50400000000E-02 0. -1.
        -24    2    1    2    0    0  0.00000000000E+00  0.00000000000E+00 -0.39666653275E+02  0.89654593246E+02  0.80402131241E+02 0.  0.
         66    2    3    3    0    0 -0.32619930714E+02  0.19586316601E+02 -0.54598985809E+01  0.38490182681E+02  0.19999981311E+01 0.  0.
         13    1    3    3    0    0  0.32619930714E+02 -0.19586316601E+02 -0.34206754694E+02  0.51164410565E+02  0.10566000000E+00 0. -1.
         13    1    4    4    0    0 -0.45852583418E+01  0.34365533999E+01 -0.50866774414E+00  0.57536423456E+01  0.10566000000E+00 0. -1.
        -13    1    4    4    0    0 -0.58208148902E+01  0.30965851049E+01 -0.10993886365E+01  0.66850987059E+01  0.10566000000E+00 0.  1.
        -14    1    4    4    0    0 -0.22213857482E+02  0.13053178096E+02 -0.38518422003E+01  0.26051441629E+02  0.00000000000E+00 0.  1.
<mgrwt>
<rscale>  0 0.80402131E+02</rscale>
<asrwt>0</asrwt>
<pdfrwt beam="1">  1        1 0.99477881E-02 0.80402131E+02</pdfrwt>
<pdfrwt beam="2">  1       -2 0.38452262E-02 0.80402131E+02</pdfrwt>
<totfact> 0.13510735E+05</totfact>
</mgrwt>
</event>
<event>
 8    1  0.8247621E-018  0.7912814E+02  0.7818608E-02  0.1331544E+00
          1   -1    0    0  501    0  0.00000000000E+00  0.00000000000E+00  0.12113873453E+02  0.12113874502E+02  0.50400000000E-02 0. -1.
         -2   -1    0    0    0  501 -0.00000000000E+00 -0.00000000000E+00 -0.12921677904E+03  0.12921677906E+03  0.25500000000E-02 0.  1.
        -24    2    1    2    0    0  0.00000000000E+00  0.35527136788E-14 -0.11710290558E+03  0.14133065356E+03  0.79128143796E+02 0.  0.
         66    2    3    3    0    0 -0.24123177483E+02  0.24802414847E+02 -0.92769254129E+02  0.99031419158E+02  0.19999986640E+01 0.  0.
         13    1    3    3    0    0  0.24123177483E+02 -0.24802414847E+02 -0.24333651454E+02  0.42299234405E+02  0.10566000000E+00 0. -1.
         13    1    4    4    0    0 -0.34111696976E+01  0.42304871101E+01 -0.14324172990E+02  0.15320776605E+02  0.10566000000E+00 0.  1.
        -13    1    4    4    0    0 -0.73188788492E+01  0.66339558759E+01 -0.25400805146E+02  0.27254126738E+02  0.10566000000E+00 0. -1.
         14    1    4    4    0    0 -0.13393128936E+02  0.13937971862E+02 -0.53044275993E+02  0.56456515814E+02  0.00000000000E+00 0. -1.
<mgrwt>
<rscale>  0 0.79128144E+02</rscale>
<asrwt>0</asrwt>
<pdfrwt beam="1">  1        1 0.18636730E-02 0.79128144E+02</pdfrwt>
<pdfrwt beam="2">  1       -2 0.19879503E-01 0.79128144E+02</pdfrwt>
<totfact> 0.10183702E+05</totfact>
</mgrwt>
</event>
<event>
 8    1  0.8247621E-018  0.7895624E+02  0.7818608E-02  0.1332040E+00
          1   -1    0    0  501    0  0.00000000000E+00  0.00000000000E+00  0.24988157393E+03  0.24988157398E+03  0.50400000000E-02 0. -1.
         -2   -1    0    0    0  501 -0.00000000000E+00 -0.00000000000E+00 -0.62370428261E+01  0.62370433474E+01  0.25500000000E-02 0.  1.
        -24    2    1    2    0    0  0.17763568394E-14  0.00000000000E+00  0.24364453111E+03  0.25611861733E+03  0.78956244878E+02 0.  0.
         66    2    3    3    0    0  0.11470644924E+02  0.33689883370E+02  0.66666569519E+02  0.75597721067E+02  0.20000006387E+01 0.  0.
         13    1    3    3    0    0 -0.11470644924E+02 -0.33689883370E+02  0.17697796159E+03  0.18052089626E+03  0.10566000000E+00 0. -1.
         13    1    4    4    0    0  0.30031941784E+01  0.98954016119E+01  0.20030078098E+02  0.22542256786E+02  0.10566000000E+00 0. -1.
        -13    1    4    4    0    0  0.83305762214E+01  0.22767457870E+02  0.45079657553E+02  0.51185372200E+02  0.10566000000E+00 0.  1.
        -14    1    4    4    0    0  0.13687452428E+00  0.10270238872E+01  0.15568338678E+01  0.18700920812E+01  0.00000000000E+00 0.  1.
<mgrwt>
<rscale>  0 0.78956245E+02</rscale>
<asrwt>0</asrwt>
<pdfrwt beam="1">  1        1 0.38443318E-01 0.78956245E+02</pdfrwt>
<pdfrwt beam="2">  1       -2 0.95954512E-03 0.78956245E+02</pdfrwt>
<totfact> 0.18028551E+05</totfact>
</mgrwt>
</event>
<event>
 8    1  0.8247621E-018  0.7484507E+02  0.7818608E-02  0.1344351E+00
          1   -1    0    0  501    0  0.00000000000E+00  0.00000000000E+00  0.31034491859E+03  0.31034491863E+03  0.50400000000E-02 0. -1.
         -2   -1    0    0    0  501 -0.00000000000E+00 -0.00000000000E+00 -0.45125467500E+01  0.45125474704E+01  0.25500000000E-02 0.  1.
        -24    2    1    2    0    0  0.00000000000E+00  0.00000000000E+00  0.30583237184E+03  0.31485746610E+03  0.74845068604E+02 0.  0.
         66    2    3    3    0    0  0.16624808607E+02 -0.33374875867E+02  0.14099733144E+03  0.14585785572E+03  0.20000006024E+01 0.  0.
         13    1    3    3    0    0 -0.16624808607E+02  0.33374875867E+02  0.16483504039E+03  0.16899961037E+03  0.10566000000E+00 0. -1.
         13    1    4    4    0    0  0.17583025677E+01 -0.39073230867E+01  0.18263452237E+02  0.18759628282E+02  0.10566000000E+00 0. -1.
        -13    1    4    4    0    0  0.74181517608E+01 -0.15604461374E+02  0.65323965356E+02  0.67570406275E+02  0.10566000000E+00 0.  1.
        -14    1    4    4    0    0  0.74483542788E+01 -0.13863091407E+02  0.57409913849E+02  0.59527821167E+02  0.00000000000E+00 0.  1.
<mgrwt>
<rscale>  0 0.74845069E+02</rscale>
<asrwt>0</asrwt>
<pdfrwt beam="1">  1        1 0.47745374E-01 0.74845069E+02</pdfrwt>
<pdfrwt beam="2">  1       -2 0.69423799E-03 0.74845069E+02</pdfrwt>
<totfact> 0.21627733E+05</totfact>
</mgrwt>
</event>
<event>
 8    1  0.8247621E-018  0.8354208E+02  0.7818608E-02  0.1319290E+00
          1   -1    0    0  501    0  0.00000000000E+00  0.00000000000E+00  0.39702162323E+02  0.39702162643E+02  0.50400000000E-02 0. -1.
         -2   -1    0    0    0  501 -0.00000000000E+00 -0.00000000000E+00 -0.43947727384E+02  0.43947727458E+02  0.25500000000E-02 0.  1.
        -24    2    1    2    0    0  0.00000000000E+00  0.35527136788E-14 -0.42455650619E+01  0.83649890101E+02  0.83542080960E+02 0.  0.
         66    2    3    3    0    0 -0.26718545588E+02 -0.16350173478E+02 -0.29756818612E+02  0.43251324868E+02  0.19999994417E+01 0.  0.
         13    1    3    3    0    0  0.26718545588E+02  0.16350173478E+02  0.25511253551E+02  0.40398565233E+02  0.10566000000E+00 0. -1.
         13    1    4    4    0    0 -0.55225582027E+01 -0.27097768079E+01 -0.64009594573E+01  0.88783436214E+01  0.10566000000E+00 0. -1.
        -13    1    4    4    0    0 -0.19352884943E+02 -0.12501048453E+02 -0.21645139919E+02  0.31612238361E+02  0.10566000000E+00 0.  1.
        -14    1    4    4    0    0 -0.18431024430E+01 -0.11393482179E+01 -0.17107192358E+01  0.27607428857E+01  0.00000000000E+00 0.  1.
<mgrwt>
<rscale>  0 0.83542081E+02</rscale>
<asrwt>0</asrwt>
<pdfrwt beam="1">  1        1 0.61080251E-02 0.83542081E+02</pdfrwt>
<pdfrwt beam="2">  1       -2 0.67611888E-02 0.83542081E+02</pdfrwt>
<totfact> 0.11218334E+05</totfact>
</mgrwt>
</event>
<event>
 8    1  0.8247621E-018  0.7979139E+02  0.7818608E-02  0.1329644E+00
         -2   -1    0    0    0  501 -0.00000000000E+00  0.00000000000E+00  0.50683069268E+02  0.50683069332E+02  0.25500000000E-02 0.  1.
          1   -1    0    0  501    0  0.00000000000E+00 -0.00000000000E+00 -0.31404301849E+02  0.31404302253E+02  0.50400000000E-02 0. -1.
        -24    2    1    2    0    0  0.00000000000E+00  0.00000000000E+00  0.19278767419E+02  0.82087371585E+02  0.79791388637E+02 0.  0.
         66    2    3    3    0    0 -0.32705716689E+02 -0.11123772608E+02  0.30124483558E+02  0.45879044590E+02  0.20000004132E+01 0.  0.
         13    1    3    3    0    0  0.32705716689E+02  0.11123772608E+02 -0.10845716139E+02  0.36208326995E+02  0.10566000000E+00 0. -1.
         13    1    4    4    0    0 -0.31628496630E+01 -0.13106100195E+01  0.35683246012E+01  0.49462532395E+01  0.10566000000E+00 0. -1.
        -13    1    4    4    0    0 -0.17610144998E+02 -0.55030187504E+01  0.16280912741E+02  0.24606497230E+02  0.10566000000E+00 0.  1.
        -14    1    4    4    0    0 -0.11932722028E+02 -0.43101438376E+01  0.10275246216E+02  0.16326294120E+02  0.00000000000E+00 0.  1.
<mgrwt>
<rscale>  0 0.79791389E+02</rscale>
<asrwt>0</asrwt>
<pdfrwt beam="1">  1        1 0.48314311E-02 0.79791389E+02</pdfrwt>
<pdfrwt beam="2">  1       -2 0.77973953E-02 0.79791389E+02</pdfrwt>
<totfact> 0.12283854E+05</totfact>
</mgrwt>
</event>
<event>
 8    1  0.8247621E-018  0.8077397E+02  0.7818608E-02  0.1326869E+00
         -2   -1    0    0    0  501 -0.00000000000E+00  0.00000000000E+00  0.27922502115E+02  0.27922502231E+02  0.25500000000E-02 0.  1.
          1   -1    0    0  501    0  0.00000000000E+00 -0.00000000000E+00 -0.58415562144E+02  0.58415562362E+02  0.50400000000E-02 0. -1.
        -24    2    1    2    0    0  0.71054273576E-14 -0.17763568394E-14 -0.30493060030E+02  0.86338064593E+02  0.80773972836E+02 0.  0.
         66    2    3    3    0    0 -0.37930222373E+02  0.98965144268E+01 -0.25533884171E+02  0.46825441847E+02  0.19999990619E+01 0.  0.
         13    1    3    3    0    0  0.37930222373E+02 -0.98965144268E+01 -0.49591758587E+01  0.39512622746E+02  0.10566000000E+00 0. -1.
         13    1    4    4    0    0 -0.12995552306E+02  0.37259251081E+01 -0.91965454211E+01  0.16350978851E+02  0.10566000000E+00 0. -1.
        -13    1    4    4    0    0 -0.13459420356E+02  0.33393248126E+01 -0.96425410756E+01  0.16890732635E+02  0.10566000000E+00 0.  1.
         14    1    4    4    0    0 -0.11475249710E+02  0.28312645061E+01 -0.66947976746E+01  0.13583730361E+02  0.00000000000E+00 0. -1.
<mgrwt>
<rscale>  0 0.80773973E+02</rscale>
<asrwt>0</asrwt>
<pdfrwt beam="1">  1        1 0.89870096E-02 0.80773973E+02</pdfrwt>
<pdfrwt beam="2">  1       -2 0.42957696E-02 0.80773973E+02</pdfrwt>
<totfact> 0.13128048E+05</totfact>
</mgrwt>
</event>
<event>
 8    1  0.8247621E-018  0.7990251E+02  0.7818608E-02  0.1329328E+00
          1   -1    0    0  501    0  0.00000000000E+00  0.00000000000E+00  0.43081357146E+01  0.43081386627E+01  0.50400000000E-02 0. -1.
         -2   -1    0    0    0  501 -0.00000000000E+00 -0.00000000000E+00 -0.37048558134E+03  0.37048558135E+03  0.25500000000E-02 0.  1.
        -24    2    1    2    0    0  0.71054273576E-14 -0.17763568394E-14 -0.36617744562E+03  0.37479372001E+03  0.79902508567E+02 0.  0.
         66    2    3    3    0    0 -0.35844837792E+02  0.10624890194E+02 -0.24893183090E+03  0.25173159738E+03  0.20000002320E+01 0.  0.
         13    1    3    3    0    0  0.35844837792E+02 -0.10624890194E+02 -0.11724561473E+03  0.12306212262E+03  0.10566000000E+00 0. -1.
         13    1    4    4    0    0 -0.15042592798E+02  0.48590558275E+01 -0.11086402288E+03  0.11198541314E+03  0.10566000000E+00 0. -1.
        -13    1    4    4    0    0 -0.11170983160E+01  0.35149659947E+00 -0.71640130775E+01  0.72598695524E+01  0.10566000000E+00 0.  1.
         14    1    4    4    0    0 -0.19685146678E+02  0.54143377675E+01 -0.13090379493E+03  0.13248631469E+03  0.00000000000E+00 0. -1.
<mgrwt>
<rscale>  0 0.79902509E+02</rscale>
<asrwt>0</asrwt>
<pdfrwt beam="1">  1        1 0.66279063E-03 0.79902509E+02</pdfrwt>
<pdfrwt beam="2">  1       -2 0.56997757E-01 0.79902509E+02</pdfrwt>
<totfact> 0.62288866E+04</totfact>
</mgrwt>
</event>
<event>
 8    1  0.8247621E-018  0.8024285E+02  0.7818608E-02  0.1328364E+00
          1   -1    0    0  501    0  0.00000000000E+00  0.00000000000E+00  0.62275841891E+02  0.62275842095E+02  0.50400000000E-02 0. -1.
         -2   -1    0    0    0  501 -0.00000000000E+00 -0.00000000000E+00 -0.25848368177E+02  0.25848368302E+02  0.25500000000E-02 0.  1.
        -24    2    1    2    0    0  0.00000000000E+00 -0.35527136788E-14  0.36427473714E+02  0.88124210397E+02  0.80242853993E+02 0.  0.
         66    2    3    3    0    0 -0.14527448093E+02  0.18692626027E+02 -0.17314923674E+02  0.29398428521E+02  0.20000004548E+01 0.  0.
         13    1    3    3    0    0  0.14527448093E+02 -0.18692626027E+02  0.53742397388E+02  0.58725781875E+02  0.10566000000E+00 0. -1.
         13    1    4    4    0    0 -0.47809074607E+01  0.55322865318E+01 -0.47554805959E+01  0.87229026219E+01  0.10566000000E+00 0. -1.
        -13    1    4    4    0    0 -0.90715116004E+01  0.12190317112E+02 -0.11218516366E+02  0.18888155746E+02  0.10566000000E+00 0.  1.
         14    1    4    4    0    0 -0.67502903184E+00  0.97002238341E+00 -0.13409267120E+01  0.17873701533E+01  0.00000000000E+00 0. -1.
<mgrwt>
<rscale>  0 0.80242854E+02</rscale>
<asrwt>0</asrwt>
<pdfrwt beam="1">  1        1 0.95808988E-02 0.80242854E+02</pdfrwt>
<pdfrwt beam="2">  1       -2 0.39766720E-02 0.80242854E+02</pdfrwt>
<totfact> 0.13504512E+05</totfact>
</mgrwt>
</event>
<event>
 8    1  0.8247621E-018  0.8574239E+02  0.7818608E-02  0.1313502E+00
         -2   -1    0    0    0  501 -0.00000000000E+00  0.00000000000E+00  0.36221347795E+03  0.36221347796E+03  0.25500000000E-02 0.  1.
          1   -1    0    0  501    0  0.00000000000E+00 -0.00000000000E+00 -0.50741871782E+01  0.50741896812E+01  0.50400000000E-02 0. -1.
        -24    2    1    2    0    0  0.35527136788E-14  0.00000000000E+00  0.35713929077E+03  0.36728766764E+03  0.85742392010E+02 0.  0.
         66    2    3    3    0    0 -0.14978493640E+02 -0.85876365576E+01  0.34664945948E+03  0.34708493273E+03  0.19999991352E+01 0.  0.
         13    1    3    3    0    0  0.14978493640E+02  0.85876365576E+01  0.10489831295E+02  0.20202734914E+02  0.10566000000E+00 0. -1.
         13    1    4    4    0    0 -0.31450693910E+01 -0.13159748772E+01  0.79019126298E+02  0.79092709755E+02  0.10566000000E+00 0. -1.
        -13    1    4    4    0    0 -0.73217856827E+01 -0.39591854674E+01  0.15839578581E+03  0.15861437458E+03  0.10566000000E+00 0.  1.
        -14    1    4    4    0    0 -0.45116385663E+01 -0.33124762130E+01  0.10923454737E+03  0.10937784840E+03  0.00000000000E+00 0.  1.
<mgrwt>
<rscale>  0 0.85742392E+02</rscale>
<asrwt>0</asrwt>
<pdfrwt beam="1">  1        1 0.78064411E-03 0.85742392E+02</pdfrwt>
<pdfrwt beam="2">  1       -2 0.55725169E-01 0.85742392E+02</pdfrwt>
<totfact> 0.52622891E+04</totfact>
</mgrwt>
</event>
<event>
 8    1  0.8247621E-018  0.8145270E+02  0.7818608E-02  0.1324979E+00
         -2   -1    0    0    0  501 -0.00000000000E+00  0.00000000000E+00  0.86675656672E+01  0.86675660423E+01  0.25500000000E-02 0.  1.
          1   -1    0    0  501    0  0.00000000000E+00 -0.00000000000E+00 -0.19136119426E+03  0.19136119432E+03  0.50400000000E-02 0. -1.
        -24    2    1    2    0    0  0.00000000000E+00  0.00000000000E+00 -0.18269362859E+03  0.20002876037E+03  0.81452704352E+02 0.  0.
         66    2    3    3    0    0 -0.40241929249E+02  0.48958012067E+01 -0.82462935886E+02  0.91910377733E+02  0.20000002471E+01 0.  0.
         13    1    3    3    0    0  0.40241929249E+02 -0.48958012067E+01 -0.10023069271E+03  0.10811838263E+03  0.10566000000E+00 0. -1.
         13    1    4    4    0    0 -0.80221485041E+01  0.16307811500E+01 -0.16339725263E+02  0.18275997907E+02  0.10566000000E+00 0. -1.
        -13    1    4    4    0    0 -0.11248036515E+02  0.15906980389E+01 -0.22937309419E+02  0.25596483609E+02  0.10566000000E+00 0.  1.
         14    1    4    4    0    0 -0.20971744230E+02  0.16743220178E+01 -0.43185901204E+02  0.48037896218E+02  0.00000000000E+00 0. -1.
<mgrwt>
<rscale>  0 0.81452704E+02</rscale>
<asrwt>0</asrwt>
<pdfrwt beam="1">  1        1 0.29440181E-01 0.81452704E+02</pdfrwt>
<pdfrwt beam="2">  1       -2 0.13334718E-02 0.81452704E+02</pdfrwt>
<totfact> 0.15759224E+05</totfact>
</mgrwt>
</event>
<event>
 8    1  0.8247621E-018  0.7814371E+02  0.7818608E-02  0.1334403E+00
         -2   -1    0    0    0  501 -0.00000000000E+00  0.00000000000E+00  0.15155208678E+02  0.15155208892E+02  0.25500000000E-02 0.  1.
          1   -1    0    0  501    0  0.00000000000E+00 -0.00000000000E+00 -0.10073168312E+03  0.10073168325E+03  0.50400000000E-02 0. -1.
        -24    2    1    2    0    0  0.00000000000E+00  0.71054273576E-14 -0.85576474442E+02  0.11588689214E+03  0.78143706026E+02 0.  0.
         66    2    3    3    0    0 -0.54525536794E+01 -0.38440021154E+02 -0.36658764359E+02  0.53434357428E+02  0.19999953658E+01 0.  0.
         13    1    3    3    0    0  0.54525536794E+01  0.38440021154E+02 -0.48917710083E+02  0.62452534710E+02  0.10566000000E+00 0. -1.
         13    1    4    4    0    0 -0.15698734997E+01 -0.80171861110E+01 -0.78955311637E+01  0.11361793535E+02  0.10566000000E+00 0.  1.
        -13    1    4    4    0    0 -0.69551210934E+00 -0.10686472795E+02 -0.10315614324E+02  0.14869683951E+02  0.10566000000E+00 0.  1.
        -14    1    4    4    0    0 -0.31871680703E+01 -0.19736362248E+02 -0.18447618871E+02  0.27202879941E+02  0.00000000000E+00 0.  1.
<mgrwt>
<rscale>  0 0.78143706E+02</rscale>
<asrwt>0</asrwt>
<pdfrwt beam="1">  1        1 0.15497182E-01 0.78143706E+02</pdfrwt>
<pdfrwt beam="2">  1       -2 0.23315706E-02 0.78143706E+02</pdfrwt>
<totfact> 0.15679469E+05</totfact>
</mgrwt>
</event>
<event>
 8    1  0.8247621E-018  0.8047861E+02  0.7818608E-02  0.1327699E+00
          1   -1    0    0  501    0  0.00000000000E+00  0.00000000000E+00  0.55295071394E+02  0.55295071623E+02  0.50400000000E-02 0. -1.
         -2   -1    0    0    0  501 -0.00000000000E+00 -0.00000000000E+00 -0.29282927701E+02  0.29282927812E+02  0.25500000000E-02 0.  1.
        -24    2    1    2    0    0  0.00000000000E+00  0.00000000000E+00  0.26012143692E+02  0.84577999436E+02  0.80478608146E+02 0.  0.
         66    2    3    3    0    0 -0.20735607256E+02 -0.18407040952E+02 -0.17597119126E+02  0.32900504020E+02  0.19999995898E+01 0.  0.
         13    1    3    3    0    0  0.20735607256E+02  0.18407040952E+02  0.43609262818E+02  0.51677495416E+02  0.10566000000E+00 0. -1.
         13    1    4    4    0    0 -0.90193626788E+01 -0.77620078957E+01 -0.76919481087E+01  0.14169505971E+02  0.10566000000E+00 0. -1.
        -13    1    4    4    0    0 -0.51686465136E+01 -0.38031605772E+01 -0.43235145902E+01  0.77384029105E+01  0.10566000000E+00 0.  1.
         14    1    4    4    0    0 -0.65475980638E+01 -0.68418724787E+01 -0.55816564269E+01  0.10992595139E+02  0.00000000000E+00 0. -1.
<mgrwt>
<rscale>  0 0.80478608E+02</rscale>
<asrwt>0</asrwt>
<pdfrwt beam="1">  1        1 0.85069341E-02 0.80478608E+02</pdfrwt>
<pdfrwt beam="2">  1       -2 0.45050658E-02 0.80478608E+02</pdfrwt>
<totfact> 0.13147552E+05</totfact>
</mgrwt>
</event>
<event>
 8    1  0.8305734E-018  0.7509487E+02  0.7818608E-02  0.1343578E+00
          1   -1    0    0  501    0  0.00000000000E+00  0.00000000000E+00  0.86963275319E+02  0.86963275465E+02  0.50400000000E-02 0. -1.
         -2   -1    0    0    0  501 -0.00000000000E+00 -0.00000000000E+00 -0.16211553166E+02  0.16211553366E+02  0.25500000000E-02 0.  1.
        -24    2    1    2    0    0 -0.17763568394E-14  0.00000000000E+00  0.70751722153E+02  0.10317482883E+03  0.75094867445E+02 0.  0.
         66    2    3    3    0    0 -0.11365907582E+02 -0.16591552706E+02 -0.81190149184E+01  0.21780309319E+02  0.19999986039E+01 0.  0.
         13    1    3    3    0    0  0.11365907582E+02  0.16591552706E+02  0.78870737072E+02  0.81394519512E+02  0.10566000000E+00 0. -1.
         13    1    4    4    0    0 -0.12381134291E+01 -0.21974727481E+01 -0.60021731069E+00  0.25948480105E+01  0.10566000000E+00 0. -1.
        -13    1    4    4    0    0 -0.21446063683E+00 -0.61920639256E+00 -0.13385395200E+00  0.67711951486E+00  0.10566000000E+00 0. -1.
        -14    1    4    4    0    0 -0.99133335160E+01 -0.13774873565E+02 -0.73849436557E+01  0.18508341793E+02  0.00000000000E+00 0.  1.
<mgrwt>
<rscale>  0 0.75094867E+02</rscale>
<asrwt>0</asrwt>
<pdfrwt beam="1">  1        1 0.13378966E-01 0.75094867E+02</pdfrwt>
<pdfrwt beam="2">  1       -2 0.24940851E-02 0.75094867E+02</pdfrwt>
<totfact> 0.17041753E+05</totfact>
</mgrwt>
</event>
<event>
 8    1  0.8247621E-018  0.8062218E+02  0.7818608E-02  0.1327295E+00
          1   -1    0    0  501    0  0.00000000000E+00  0.00000000000E+00  0.10004017599E+03  0.10004017612E+03  0.50400000000E-02 0. -1.
         -2   -1    0    0    0  501 -0.00000000000E+00 -0.00000000000E+00 -0.16243313408E+02  0.16243313608E+02  0.25500000000E-02 0.  1.
        -24    2    1    2    0    0  0.35527136788E-14  0.00000000000E+00  0.83796862580E+02  0.11628348972E+03  0.80622179356E+02 0.  0.
         66    2    3    3    0    0  0.21327999380E+02 -0.15604280839E+02 -0.19330566998E+01  0.26572802725E+02  0.19999995942E+01 0.  0.
         13    1    3    3    0    0 -0.21327999380E+02  0.15604280839E+02  0.85729919280E+02  0.89710686999E+02  0.10566000000E+00 0. -1.
         13    1    4    4    0    0  0.47599863491E+00 -0.24314409870E+00 -0.18628510901E+00  0.57581240922E+00  0.10566000000E+00 0. -1.
        -13    1    4    4    0    0  0.18735739131E+02 -0.14097554045E+02 -0.12367599078E+01  0.23479984879E+02  0.10566000000E+00 0.  1.
        -14    1    4    4    0    0  0.21162616146E+01 -0.12635826956E+01 -0.51001168299E+00  0.25170054364E+01  0.00000000000E+00 0.  1.
<mgrwt>
<rscale>  0 0.80622179E+02</rscale>
<asrwt>0</asrwt>
<pdfrwt beam="1">  1        1 0.15390796E-01 0.80622179E+02</pdfrwt>
<pdfrwt beam="2">  1       -2 0.24989714E-02 0.80622179E+02</pdfrwt>
<totfact> 0.14395377E+05</totfact>
</mgrwt>
</event>
<event>
 8    1  0.8247621E-018  0.8279553E+02  0.7818608E-02  0.1321300E+00
          1   -1    0    0  501    0  0.00000000000E+00  0.00000000000E+00  0.44010456045E+01  0.44010484904E+01  0.50400000000E-02 0. -1.
         -2   -1    0    0    0  501 -0.00000000000E+00 -0.00000000000E+00 -0.38940160164E+03  0.38940160165E+03  0.25500000000E-02 0.  1.
        -24    2    1    2    0    0  0.17763568394E-14  0.00000000000E+00 -0.38500055604E+03  0.39380265014E+03  0.82795525898E+02 0.  0.
         66    2    3    3    0    0  0.83094338505E+01 -0.19341851276E+02 -0.36202142915E+03  0.36263848260E+03  0.19999999320E+01 0.  0.
         13    1    3    3    0    0 -0.83094338505E+01  0.19341851276E+02 -0.22979126885E+02  0.31164167535E+02  0.10566000000E+00 0. -1.
         13    1    4    4    0    0  0.31457071935E+01 -0.68892802567E+01 -0.12166236261E+03  0.12189790521E+03  0.10566000000E+00 0. -1.
        -13    1    4    4    0    0  0.32459822757E+01 -0.81552574328E+01 -0.14499521366E+03  0.14526068902E+03  0.10566000000E+00 0.  1.
         14    1    4    4    0    0  0.19177443813E+01 -0.42973135861E+01 -0.95363852882E+02  0.95479888375E+02  0.00000000000E+00 0. -1.
<mgrwt>
<rscale>  0 0.82795526E+02</rscale>
<asrwt>0</asrwt>
<pdfrwt beam="1">  1        1 0.67708447E-03 0.82795526E+02</pdfrwt>
<pdfrwt beam="2">  1       -2 0.59907912E-01 0.82795526E+02</pdfrwt>
<totfact> 0.55030294E+04</totfact>
</mgrwt>
</event>
<event>
 8    1  0.8247621E-018  0.7925038E+02  0.7818608E-02  0.1331192E+00
          1   -1    0    0  501    0  0.00000000000E+00  0.00000000000E+00  0.59822204316E+01  0.59822225547E+01  0.50400000000E-02 0. -1.
         -2   -1    0    0    0  501 -0.00000000000E+00 -0.00000000000E+00 -0.26247035156E+03  0.26247035157E+03  0.25500000000E-02 0.  1.
        -24    2    1    2    0    0  0.00000000000E+00  0.00000000000E+00 -0.25648813113E+03  0.26845257413E+03  0.79250382622E+02 0.  0.
         66    2    3    3    0    0  0.74940235479E+01  0.73579356980E+01 -0.25766252119E+03  0.25788422692E+03  0.20000150013E+01 0.  0.
         13    1    3    3    0    0 -0.74940235479E+01 -0.73579356980E+01  0.11743900627E+01  0.10568347209E+02  0.10566000000E+00 0. -1.
         13    1    4    4    0    0  0.24999358398E+00  0.77706480147E-01 -0.13377682039E+02  0.13380660516E+02  0.10566000000E+00 0. -1.
        -13    1    4    4    0    0  0.12542811322E+01  0.19041393161E+01 -0.49935229759E+02  0.49987371433E+02  0.10566000000E+00 0.  1.
        -14    1    4    4    0    0  0.59897488318E+01  0.53760899017E+01 -0.19434960940E+03  0.19451619497E+03  0.00000000000E+00 0.  1.
<mgrwt>
<rscale>  0 0.79250383E+02</rscale>
<asrwt>0</asrwt>
<pdfrwt beam="1">  1        1 0.92034197E-03 0.79250383E+02</pdfrwt>
<pdfrwt beam="2">  1       -2 0.40380045E-01 0.79250383E+02</pdfrwt>
<totfact> 0.77167304E+04</totfact>
</mgrwt>
</event>
<event>
 8    1  0.8247621E-018  0.6995412E+02  0.7818608E-02  0.1360249E+00
         -2   -1    0    0    0  501 -0.00000000000E+00  0.00000000000E+00  0.17002204572E+02  0.17002204764E+02  0.25500000000E-02 0.  1.
          1   -1    0    0  501    0  0.00000000000E+00 -0.00000000000E+00 -0.71955057482E+02  0.71955057658E+02  0.50400000000E-02 0. -1.
        -24    2    1    2    0    0  0.00000000000E+00 -0.88817841970E-15 -0.54952852910E+02  0.88957262422E+02  0.69954117068E+02 0.  0.
         66    2    3    3    0    0  0.18060782481E+02 -0.71163090656E+01  0.94569585738E+01  0.21685658473E+02  0.19999998437E+01 0.  0.
         13    1    3    3    0    0 -0.18060782481E+02  0.71163090656E+01 -0.64409811483E+02  0.67271603949E+02  0.10566000000E+00 0. -1.
         13    1    4    4    0    0  0.11187572114E+01 -0.64354254188E+00  0.30678311857E+00  0.13308060034E+01  0.10566000000E+00 0. -1.
        -13    1    4    4    0    0  0.50704754257E+00 -0.25878461369E+00  0.89926400737E-01  0.58593299946E+00  0.10566000000E+00 0.  1.
        -14    1    4    4    0    0  0.16434977727E+02 -0.62139819101E+01  0.90602490545E+01  0.19768919470E+02  0.00000000000E+00 0.  1.
<mgrwt>
<rscale>  0 0.69954117E+02</rscale>
<asrwt>0</asrwt>
<pdfrwt beam="1">  1        1 0.11070009E-01 0.69954117E+02</pdfrwt>
<pdfrwt beam="2">  1       -2 0.26157238E-02 0.69954117E+02</pdfrwt>
<totfact> 0.20028095E+05</totfact>
</mgrwt>
</event>
<event>
 8    1  0.8247621E-018  0.8019130E+02  0.7818608E-02  0.1328509E+00
          1   -1    0    0  501    0  0.00000000000E+00  0.00000000000E+00  0.12271260012E+03  0.12271260022E+03  0.50400000000E-02 0. -1.
         -2   -1    0    0    0  501 -0.00000000000E+00 -0.00000000000E+00 -0.13101028256E+02  0.13101028504E+02  0.25500000000E-02 0.  1.
        -24    2    1    2    0    0  0.00000000000E+00  0.00000000000E+00  0.10961157186E+03  0.13581362873E+03  0.80191302904E+02 0.  0.
         66    2    3    3    0    0 -0.25104650732E+02 -0.29088911572E+02  0.35585466545E+02  0.52409290126E+02  0.19999993619E+01 0.  0.
         13    1    3    3    0    0  0.25104650732E+02  0.29088911572E+02  0.74026105317E+02  0.83404338600E+02  0.10566000000E+00 0. -1.
         13    1    4    4    0    0 -0.35066062502E+01 -0.48334448596E+01  0.61643657154E+01  0.85830673604E+01  0.10566000000E+00 0. -1.
        -13    1    4    4    0    0 -0.20110126880E+02 -0.22473914188E+02  0.27485912123E+02  0.40804173210E+02  0.10566000000E+00 0.  1.
         14    1    4    4    0    0 -0.14879176017E+01 -0.17815525241E+01  0.19351887069E+01  0.30220495557E+01  0.00000000000E+00 0. -1.
<mgrwt>
<rscale>  0 0.80191303E+02</rscale>
<asrwt>0</asrwt>
<pdfrwt beam="1">  1        1 0.18878862E-01 0.80191303E+02</pdfrwt>
<pdfrwt beam="2">  1       -2 0.20155428E-02 0.80191303E+02</pdfrwt>
<totfact> 0.15128757E+05</totfact>
</mgrwt>
</event>
<event>
 8    1  0.8247621E-018  0.8005547E+02  0.7818608E-02  0.1328894E+00
         -2   -1    0    0    0  501 -0.00000000000E+00  0.00000000000E+00  0.29702126194E+02  0.29702126303E+02  0.25500000000E-02 0.  1.
          1   -1    0    0  501    0  0.00000000000E+00 -0.00000000000E+00 -0.53942924212E+02  0.53942924447E+02  0.50400000000E-02 0. -1.
        -24    2    1    2    0    0  0.00000000000E+00  0.88817841970E-15 -0.24240798018E+02  0.83645050750E+02  0.80055469685E+02 0.  0.
         66    2    3    3    0    0  0.35084205271E+02  0.70052242206E+01 -0.30825591809E+02  0.47267237468E+02  0.20000003982E+01 0.  0.
         13    1    3    3    0    0 -0.35084205271E+02 -0.70052242206E+01  0.65847937911E+01  0.36377813282E+02  0.10566000000E+00 0. -1.
         13    1    4    4    0    0  0.67714258621E+01  0.11264885483E+01 -0.50184433665E+01  0.85039474665E+01  0.10566000000E+00 0. -1.
        -13    1    4    4    0    0  0.26095467387E+02  0.52763154551E+01 -0.23887825940E+02  0.35769432692E+02  0.10566000000E+00 0.  1.
        -14    1    4    4    0    0  0.22173120225E+01  0.60242021724E+00 -0.19193225024E+01  0.29938573098E+01  0.00000000000E+00 0.  1.
<mgrwt>
<rscale>  0 0.80055470E+02</rscale>
<asrwt>0</asrwt>
<pdfrwt beam="1">  1        1 0.82989115E-02 0.80055470E+02</pdfrwt>
<pdfrwt beam="2">  1       -2 0.45695579E-02 0.80055470E+02</pdfrwt>
<totfact> 0.13289215E+05</totfact>
</mgrwt>
</event>
<event>
 8    1  0.8247621E-018  0.7417368E+02  0.7818608E-02  0.1346449E+00
          1   -1    0    0  501    0  0.00000000000E+00  0.00000000000E+00  0.47922568042E+02  0.47922568307E+02  0.50400000000E-02 0. -1.
         -2   -1    0    0    0  501 -0.00000000000E+00 -0.00000000000E+00 -0.28701168608E+02  0.28701168722E+02  0.25500000000E-02 0.  1.
        -24    2    1    2    0    0  0.00000000000E+00 -0.17763568394E-14  0.19221399433E+02  0.76623737028E+02  0.74173680507E+02 0.  0.
         66    2    3    3    0    0  0.78883364852E+01 -0.95310795027E+01 -0.26469911951E+02  0.29286918070E+02  0.20000005967E+01 0.  0.
         13    1    3    3    0    0 -0.78883364852E+01  0.95310795027E+01  0.45691311384E+02  0.47336818958E+02  0.10566000000E+00 0. -1.
         13    1    4    4    0    0  0.90051918146E+00 -0.46760529805E+00 -0.22190010943E+01  0.24422775033E+01  0.10566000000E+00 0. -1.
        -13    1    4    4    0    0  0.26823081067E+01 -0.42584421734E+01 -0.97343958177E+01  0.10958956725E+02  0.10566000000E+00 0.  1.
         14    1    4    4    0    0  0.43055091970E+01 -0.48050320313E+01 -0.14516515039E+02  0.15885683842E+02  0.00000000000E+00 0. -1.
<mgrwt>
<rscale>  0 0.74173681E+02</rscale>
<asrwt>0</asrwt>
<pdfrwt beam="1">  1        1 0.73727028E-02 0.74173681E+02</pdfrwt>
<pdfrwt beam="2">  1       -2 0.44155644E-02 0.74173681E+02</pdfrwt>
<totfact> 0.16112948E+05</totfact>
</mgrwt>
</event>
<event>
 8    1  0.1011537E-017  0.7460907E+02  0.7818608E-02  0.1345086E+00
         -2   -1    0    0    0  501 -0.00000000000E+00  0.00000000000E+00  0.16134866842E+02  0.16134867044E+02  0.25500000000E-02 0.  1.
          1   -1    0    0  501    0  0.00000000000E+00 -0.00000000000E+00 -0.86249762126E+02  0.86249762273E+02  0.50400000000E-02 0. -1.
        -24    2    1    2    0    0  0.00000000000E+00  0.44408920985E-15 -0.70114895284E+02  0.10238462932E+03  0.74609073039E+02 0.  0.
         66    2    3    3    0    0 -0.18265522128E+02  0.38385934199E+01  0.91989594209E+01  0.20904184975E+02  0.19999992459E+01 0.  0.
         13    1    3    3    0    0  0.18265522128E+02 -0.38385934199E+01 -0.79313854705E+02  0.81480444342E+02  0.10566000000E+00 0. -1.
         13    1    4    4    0    0 -0.95581218507E+00  0.74598232081E-01  0.84035415225E+00  0.12792579748E+01  0.10566000000E+00 0. -1.
        -13    1    4    4    0    0 -0.10254146425E+02  0.18391510943E+01  0.54129952296E+01  0.11740599518E+02  0.10566000000E+00 0.  1.
        -14    1    4    4    0    0 -0.70555635186E+01  0.19248440935E+01  0.29456100391E+01  0.78843274825E+01  0.00000000000E+00 0.  1.
<mgrwt>
<rscale>  0 0.74609073E+02</rscale>
<asrwt>0</asrwt>
<pdfrwt beam="1">  1        1 0.13269194E-01 0.74609073E+02</pdfrwt>
<pdfrwt beam="2">  1       -2 0.24822873E-02 0.74609073E+02</pdfrwt>
<totfact> 0.17318897E+05</totfact>
</mgrwt>
</event>
<event>
 8    1  0.8247621E-018  0.7948532E+02  0.7818608E-02  0.1330518E+00
          1   -1    0    0  501    0  0.00000000000E+00  0.00000000000E+00  0.55854857898E+01  0.55854880637E+01  0.50400000000E-02 0. -1.
         -2   -1    0    0    0  501 -0.00000000000E+00 -0.00000000000E+00 -0.28278268517E+03  0.28278268518E+03  0.25500000000E-02 0.  1.
        -24    2    1    2    0    0  0.17763568394E-14  0.00000000000E+00 -0.27719719938E+03  0.28836817324E+03  0.79485319377E+02 0.  0.
         66    2    3    3    0    0  0.15695299096E+02  0.35128392622E+02 -0.17444070027E+03  0.17864463130E+03  0.20000006162E+01 0.  0.
         13    1    3    3    0    0 -0.15695299096E+02 -0.35128392622E+02 -0.10275649911E+03  0.10972354194E+03  0.10566000000E+00 0. -1.
         13    1    4    4    0    0  0.29969584138E+01  0.60076635069E+01 -0.32905205524E+02  0.33583291904E+02  0.10566000000E+00 0. -1.
        -13    1    4    4    0    0  0.91943699975E+00  0.22947927684E+01 -0.98515026279E+01  0.10157495080E+02  0.10566000000E+00 0.  1.
        -14    1    4    4    0    0  0.11778903683E+02  0.26825936346E+02 -0.13168399211E+03  0.13490384432E+03  0.00000000000E+00 0.  1.
<mgrwt>
<rscale>  0 0.79485319E+02</rscale>
<asrwt>0</asrwt>
<pdfrwt beam="1">  1        1 0.85930590E-03 0.79485319E+02</pdfrwt>
<pdfrwt beam="2">  1       -2 0.43505017E-01 0.79485319E+02</pdfrwt>
<totfact> 0.73735821E+04</totfact>
</mgrwt>
</event>
<event>
 8    1  0.8247621E-018  0.8013903E+02  0.7818608E-02  0.1328657E+00
          1   -1    0    0  501    0  0.00000000000E+00  0.00000000000E+00  0.16256924373E+03  0.16256924381E+03  0.50400000000E-02 0. -1.
         -2   -1    0    0    0  501 -0.00000000000E+00 -0.00000000000E+00 -0.98761988216E+01  0.98761991508E+01  0.25500000000E-02 0.  1.
        -24    2    1    2    0    0  0.71054273576E-14  0.17763568394E-14  0.15269304491E+03  0.17244544296E+03  0.80139034395E+02 0.  0.
         66    2    3    3    0    0 -0.33866257417E+02 -0.15959042369E+02  0.45814740250E+02  0.59199703103E+02  0.19999996321E+01 0.  0.
         13    1    3    3    0    0  0.33866257417E+02  0.15959042369E+02  0.10687830466E+03  0.11324573985E+03  0.10566000000E+00 0. -1.
         13    1    4    4    0    0 -0.33367516985E+01 -0.13670903712E+01  0.53024440063E+01  0.64132616082E+01  0.10566000000E+00 0. -1.
        -13    1    4    4    0    0 -0.85618160013E+01 -0.42291980552E+01  0.11246027868E+02  0.14753817007E+02  0.10566000000E+00 0.  1.
         14    1    4    4    0    0 -0.21967689718E+02 -0.10362753942E+02  0.29266268376E+02  0.38032624488E+02  0.00000000000E+00 0. -1.
<mgrwt>
<rscale>  0 0.80139034E+02</rscale>
<asrwt>0</asrwt>
<pdfrwt beam="1">  1        1 0.25010654E-01 0.80139034E+02</pdfrwt>
<pdfrwt beam="2">  1       -2 0.15194152E-02 0.80139034E+02</pdfrwt>
<totfact> 0.15952446E+05</totfact>
</mgrwt>
</event>
<event>
 8    1  0.8247621E-018  0.8012478E+02  0.7818608E-02  0.1328698E+00
          1   -1    0    0  501    0  0.00000000000E+00  0.00000000000E+00  0.27959124415E+03  0.27959124420E+03  0.50400000000E-02 0. -1.
         -2   -1    0    0    0  501 -0.00000000000E+00 -0.00000000000E+00 -0.57405055461E+01  0.57405061125E+01  0.25500000000E-02 0.  1.
        -24    2    1    2    0    0  0.17763568394E-14  0.00000000000E+00  0.27385073861E+03  0.28533175031E+03  0.80124782059E+02 0.  0.
         66    2    3    3    0    0 -0.14293103456E+02  0.36687308026E+02  0.11114925265E+03  0.11793391259E+03  0.19999994680E+01 0.  0.
         13    1    3    3    0    0  0.14293103456E+02 -0.36687308026E+02  0.16270148595E+03  0.16739783772E+03  0.10566000000E+00 0. -1.
         13    1    4    4    0    0 -0.28254724224E+00  0.64522056800E+00  0.16057996279E+01  0.17566727088E+01  0.10566000000E+00 0. -1.
        -13    1    4    4    0    0 -0.12326649164E+02  0.31864057501E+02  0.98094110975E+02  0.10387362616E+03  0.10566000000E+00 0.  1.
        -14    1    4    4    0    0 -0.16839070497E+01  0.41780299567E+01  0.11449342050E+02  0.12303613723E+02  0.00000000000E+00 0.  1.
<mgrwt>
<rscale>  0 0.80124782E+02</rscale>
<asrwt>0</asrwt>
<pdfrwt beam="1">  1        1 0.43014021E-01 0.80124782E+02</pdfrwt>
<pdfrwt beam="2">  1       -2 0.88315508E-03 0.80124782E+02</pdfrwt>
<totfact> 0.17725997E+05</totfact>
</mgrwt>
</event>
<event>
 8    1  0.8247621E-018  0.8117540E+02  0.7818608E-02  0.1325749E+00
          1   -1    0    0  501    0  0.00000000000E+00  0.00000000000E+00  0.16518204025E+03  0.16518204033E+03  0.50400000000E-02 0. -1.
         -2   -1    0    0    0  501 -0.00000000000E+00 -0.00000000000E+00 -0.99730043079E+01  0.99730046339E+01  0.25500000000E-02 0.  1.
        -24    2    1    2    0    0  0.00000000000E+00  0.00000000000E+00  0.15520903594E+03  0.17515504496E+03  0.81175396131E+02 0.  0.
         66    2    3    3    0    0  0.62717199670E+01 -0.35487212107E+02  0.37475896766E+02  0.52029986915E+02  0.20000013642E+01 0.  0.
         13    1    3    3    0    0 -0.62717199670E+01  0.35487212107E+02  0.11773313917E+03  0.12312505804E+03  0.10566000000E+00 0. -1.
         13    1    4    4    0    0  0.13026385448E+01 -0.77966756924E+01  0.89465180394E+01  0.11938859581E+02  0.10566000000E+00 0. -1.
        -13    1    4    4    0    0  0.20173519727E+01 -0.13082588636E+02  0.14282562522E+02  0.19473741054E+02  0.10566000000E+00 0.  1.
         14    1    4    4    0    0  0.29517294496E+01 -0.14607947779E+02  0.14246816205E+02  0.20617386280E+02  0.00000000000E+00 0. -1.
<mgrwt>
<rscale>  0 0.81175396E+02</rscale>
<asrwt>0</asrwt>
<pdfrwt beam="1">  1        1 0.25412620E-01 0.81175396E+02</pdfrwt>
<pdfrwt beam="2">  1       -2 0.15343085E-02 0.81175396E+02</pdfrwt>
<totfact> 0.15460940E+05</totfact>
</mgrwt>
</event>
<event>
 8    1  0.8247621E-018  0.8012950E+02  0.7818608E-02  0.1328684E+00
         -2   -1    0    0    0  501 -0.00000000000E+00  0.00000000000E+00  0.10058858984E+02  0.10058859307E+02  0.25500000000E-02 0.  1.
          1   -1    0    0  501    0  0.00000000000E+00 -0.00000000000E+00 -0.15957915112E+03  0.15957915120E+03  0.50400000000E-02 0. -1.
        -24    2    1    2    0    0  0.00000000000E+00  0.00000000000E+00 -0.14952029214E+03  0.16963801051E+03  0.80129500487E+02 0.  0.
         66    2    3    3    0    0 -0.17171315076E+02  0.19154591583E+02 -0.98498807543E+01  0.27618337856E+02  0.19999987271E+01 0.  0.
         13    1    3    3    0    0  0.17171315076E+02 -0.19154591583E+02 -0.13967041139E+03  0.14201967265E+03  0.10566000000E+00 0. -1.
         13    1    4    4    0    0 -0.12474473981E+01  0.16073248146E+01 -0.11250044142E+01  0.23273197112E+01  0.10566000000E+00 0. -1.
        -13    1    4    4    0    0 -0.15761977281E+02  0.17075313684E+02 -0.85773848028E+01  0.24770727872E+02  0.10566000000E+00 0.  1.
        -14    1    4    4    0    0 -0.16189039687E+00  0.47195308465E+00 -0.14749153727E+00  0.52029027309E+00  0.00000000000E+00 0.  1.
<mgrwt>
<rscale>  0 0.80129500E+02</rscale>
<asrwt>0</asrwt>
<pdfrwt beam="1">  1        1 0.24550637E-01 0.80129500E+02</pdfrwt>
<pdfrwt beam="2">  1       -2 0.15475169E-02 0.80129500E+02</pdfrwt>
<totfact> 0.15902158E+05</totfact>
</mgrwt>
</event>
<event>
 8    1  0.8247621E-018  0.8086750E+02  0.7818608E-02  0.1326607E+00
          1   -1    0    0  501    0  0.00000000000E+00  0.00000000000E+00  0.41115400763E+03  0.41115400766E+03  0.50400000000E-02 0. -1.
         -2   -1    0    0    0  501 -0.00000000000E+00 -0.00000000000E+00 -0.39763398786E+01  0.39763406963E+01  0.25500000000E-02 0.  1.
        -24    2    1    2    0    0  0.00000000000E+00  0.00000000000E+00  0.40717766775E+03  0.41513034836E+03  0.80867502816E+02 0.  0.
         66    2    3    3    0    0  0.29554196238E+02 -0.23968552250E+02  0.27352457810E+03  0.27616595885E+03  0.19999983764E+01 0.  0.
         13    1    3    3    0    0 -0.29554196238E+02  0.23968552250E+02  0.13365308966E+03  0.13896438951E+03  0.10566000000E+00 0. -1.
         13    1    4    4    0    0  0.12438059296E+02 -0.94518047541E+01  0.11087114599E+03  0.11196635258E+03  0.10566000000E+00 0. -1.
        -13    1    4    4    0    0  0.11917991841E+02 -0.10625250129E+02  0.11242536534E+03  0.11355354863E+03  0.10566000000E+00 0.  1.
         14    1    4    4    0    0  0.51981451015E+01 -0.38914973666E+01  0.50228066766E+02  0.50646057649E+02  0.00000000000E+00 0. -1.
<mgrwt>
<rscale>  0 0.80867503E+02</rscale>
<asrwt>0</asrwt>
<pdfrwt beam="1">  1        1 0.63254481E-01 0.80867503E+02</pdfrwt>
<pdfrwt beam="2">  1       -2 0.61174448E-03 0.80867503E+02</pdfrwt>
<totfact> 0.18545042E+05</totfact>
</mgrwt>
</event>
<event>
 8    1  0.8247621E-018  0.7949837E+02  0.7818608E-02  0.1330481E+00
         -2   -1    0    0    0  501 -0.00000000000E+00  0.00000000000E+00  0.35193276466E+02  0.35193276558E+02  0.25500000000E-02 0.  1.
          1   -1    0    0  501    0  0.00000000000E+00 -0.00000000000E+00 -0.44894871244E+02  0.44894871527E+02  0.50400000000E-02 0. -1.
        -24    2    1    2    0    0  0.88817841970E-15  0.00000000000E+00 -0.97015947788E+01  0.80088148085E+02  0.79498368049E+02 0.  0.
         66    2    3    3    0    0  0.46161161178E+01 -0.17336000589E+02  0.30851245811E+02  0.35744157643E+02  0.19999982648E+01 0.  0.
         13    1    3    3    0    0 -0.46161161178E+01  0.17336000589E+02 -0.40552840590E+02  0.44343990443E+02  0.10566000000E+00 0. -1.
         13    1    4    4    0    0  0.17317681166E+01 -0.67818587739E+01  0.10389241234E+02  0.12527574653E+02  0.10566000000E+00 0. -1.
        -13    1    4    4    0    0  0.82501504071E+00 -0.25292854748E+01  0.43739871749E+01  0.51206310814E+01  0.10566000000E+00 0.  1.
         14    1    4    4    0    0  0.20593329604E+01 -0.80248563400E+01  0.16088017403E+02  0.18095951908E+02  0.00000000000E+00 0. -1.
<mgrwt>
<rscale>  0 0.79498368E+02</rscale>
<asrwt>0</asrwt>
<pdfrwt beam="1">  1        1 0.69069034E-02 0.79498368E+02</pdfrwt>
<pdfrwt beam="2">  1       -2 0.54143502E-02 0.79498368E+02</pdfrwt>
<totfact> 0.13164597E+05</totfact>
</mgrwt>
</event>
<event>
 8    1  0.8247621E-018  0.7747880E+02  0.7818608E-02  0.1336362E+00
         -2   -1    0    0    0  501 -0.00000000000E+00  0.00000000000E+00  0.10017412140E+03  0.10017412143E+03  0.25500000000E-02 0.  1.
          1   -1    0    0  501    0  0.00000000000E+00 -0.00000000000E+00 -0.14981326133E+02  0.14981326981E+02  0.50400000000E-02 0. -1.
        -24    2    1    2    0    0  0.00000000000E+00  0.71054273576E-14  0.85192795262E+02  0.11515544841E+03  0.77478803125E+02 0.  0.
         66    2    3    3    0    0 -0.13442759807E+02  0.34299092096E+02  0.24938504935E+02  0.44531612655E+02  0.19999968444E+01 0.  0.
         13    1    3    3    0    0  0.13442759807E+02 -0.34299092096E+02  0.60254290327E+02  0.70623835754E+02  0.10566000000E+00 0. -1.
         13    1    4    4    0    0 -0.29419140989E+01  0.82580374857E+01  0.66533828246E+01  0.11005848842E+02  0.10566000000E+00 0. -1.
        -13    1    4    4    0    0 -0.26877061092E+01  0.79862816877E+01  0.55732142979E+01  0.10103283673E+02  0.10566000000E+00 0.  1.
        -14    1    4    4    0    0 -0.78131395994E+01  0.18054772923E+02  0.12711907813E+02  0.23422480140E+02  0.00000000000E+00 0.  1.
<mgrwt>
<rscale>  0 0.77478803E+02</rscale>
<asrwt>0</asrwt>
<pdfrwt beam="1">  1        1 0.23048195E-02 0.77478803E+02</pdfrwt>
<pdfrwt beam="2">  1       -2 0.15411403E-01 0.77478803E+02</pdfrwt>
<totfact> 0.11513697E+05</totfact>
</mgrwt>
</event>
<event>
 8    1  0.8247621E-018  0.8375441E+02  0.7818608E-02  0.1318722E+00
         -2   -1    0    0    0  501 -0.00000000000E+00  0.00000000000E+00  0.90933460796E+01  0.90933464371E+01  0.25500000000E-02 0.  1.
          1   -1    0    0  501    0  0.00000000000E+00 -0.00000000000E+00 -0.19285531393E+03  0.19285531400E+03  0.50400000000E-02 0. -1.
        -24    2    1    2    0    0  0.00000000000E+00  0.35527136788E-14 -0.18376196785E+03  0.20194866044E+03  0.83754406586E+02 0.  0.
         66    2    3    3    0    0 -0.10260329355E+01 -0.27718278341E+02 -0.16360676071E+02  0.32264956586E+02  0.20000010496E+01 0.  0.
         13    1    3    3    0    0  0.10260329355E+01  0.27718278341E+02 -0.16740129178E+03  0.16968370385E+03  0.10566000000E+00 0. -1.
         13    1    4    4    0    0 -0.11085903119E+01 -0.15462328318E+02 -0.83887567878E+01  0.17626541748E+02  0.10566000000E+00 0. -1.
        -13    1    4    4    0    0 -0.23887431488E+00 -0.91148236390E+01 -0.60101223990E+01  0.10921071660E+02  0.10566000000E+00 0.  1.
        -14    1    4    4    0    0  0.32143169122E+00 -0.31411263840E+01 -0.19617968840E+01  0.37173431784E+01  0.00000000000E+00 0.  1.
<mgrwt>
<rscale>  0 0.83754407E+02</rscale>
<asrwt>0</asrwt>
<pdfrwt beam="1">  1        1 0.29670045E-01 0.83754407E+02</pdfrwt>
<pdfrwt beam="2">  1       -2 0.13989765E-02 0.83754407E+02</pdfrwt>
<totfact> 0.14652782E+05</totfact>
</mgrwt>
</event>
<event>
 8    1  0.8247621E-018  0.7973637E+02  0.7818608E-02  0.1329801E+00
          1   -1    0    0  501    0  0.00000000000E+00  0.00000000000E+00  0.22579786651E+02  0.22579787213E+02  0.50400000000E-02 0. -1.
         -2   -1    0    0    0  501 -0.00000000000E+00 -0.00000000000E+00 -0.70393583284E+02  0.70393583330E+02  0.25500000000E-02 0.  1.
        -24    2    1    2    0    0  0.22204460493E-15  0.00000000000E+00 -0.47813796633E+02  0.92973370543E+02  0.79736368626E+02 0.  0.
         66    2    3    3    0    0  0.96693318090E+00  0.39728003448E+02 -0.27264491370E+02  0.48234859967E+02  0.20000021799E+01 0.  0.
         13    1    3    3    0    0 -0.96693318090E+00 -0.39728003448E+02 -0.20549305263E+02  0.44738510576E+02  0.10566000000E+00 0. -1.
         13    1    4    4    0    0  0.13194715217E+00  0.87410103180E+01 -0.57457905882E+01  0.10461737186E+02  0.10566000000E+00 0. -1.
        -13    1    4    4    0    0  0.80972856780E+00  0.30757048076E+02 -0.21143815797E+02  0.37332610105E+02  0.10566000000E+00 0.  1.
         14    1    4    4    0    0  0.25257460929E-01  0.22994505313E+00 -0.37488498448E+00  0.44051267676E+00  0.00000000000E+00 0. -1.
<mgrwt>
<rscale>  0 0.79736369E+02</rscale>
<asrwt>0</asrwt>
<pdfrwt beam="1">  1        1 0.34738134E-02 0.79736369E+02</pdfrwt>
<pdfrwt beam="2">  1       -2 0.10829782E-01 0.79736369E+02</pdfrwt>
<totfact> 0.11574826E+05</totfact>
</mgrwt>
</event>
<event>
 8    1  0.8247621E-018  0.7930908E+02  0.7818608E-02  0.1331024E+00
         -2   -1    0    0    0  501 -0.00000000000E+00  0.00000000000E+00  0.14810837884E+03  0.14810837886E+03  0.25500000000E-02 0.  1.
          1   -1    0    0  501    0  0.00000000000E+00 -0.00000000000E+00 -0.10617106020E+02  0.10617107216E+02  0.50400000000E-02 0. -1.
        -24    2    1    2    0    0  0.00000000000E+00 -0.17763568394E-14  0.13749127282E+03  0.15872548608E+03  0.79309077848E+02 0.  0.
         66    2    3    3    0    0  0.15322465739E+02  0.12970407398E+02  0.13717193716E+03  0.13864757375E+03  0.19999841684E+01 0.  0.
         13    1    3    3    0    0 -0.15322465739E+02 -0.12970407398E+02  0.31933565991E+00  0.20077912334E+02  0.10566000000E+00 0. -1.
         13    1    4    4    0    0  0.37131648206E+01  0.27920072163E+01  0.28749440097E+02  0.29122574873E+02  0.10566000000E+00 0.  1.
        -13    1    4    4    0    0  0.10463679286E+02  0.87867930497E+01  0.97955953302E+02  0.98904379416E+02  0.10566000000E+00 0.  1.
        -14    1    4    4    0    0  0.11456216319E+01  0.13916071319E+01  0.10466543762E+02  0.10620619457E+02  0.00000000000E+00 0.  1.
<mgrwt>
<rscale>  0 0.79309078E+02</rscale>
<asrwt>0</asrwt>
<pdfrwt beam="1">  1        1 0.16334012E-02 0.79309078E+02</pdfrwt>
<pdfrwt beam="2">  1       -2 0.22785902E-01 0.79309078E+02</pdfrwt>
<totfact> 0.97045053E+04</totfact>
</mgrwt>
</event>
<event>
 8    1  0.8361999E-018  0.7860154E+02  0.7818608E-02  0.1333068E+00
         -2   -1    0    0    0  501 -0.00000000000E+00  0.00000000000E+00  0.14716268176E+02  0.14716268397E+02  0.25500000000E-02 0.  1.
          1   -1    0    0  501    0  0.00000000000E+00 -0.00000000000E+00 -0.10495531848E+03  0.10495531860E+03  0.50400000000E-02 0. -1.
        -24    2    1    2    0    0  0.00000000000E+00  0.00000000000E+00 -0.90239050299E+02  0.11967158699E+03  0.78601542826E+02 0.  0.
         66    2    3    3    0    0 -0.17440268246E+02  0.10134721658E+02  0.61594624982E+01  0.21185242899E+02  0.19999997010E+01 0.  0.
         13    1    3    3    0    0  0.17440268246E+02 -0.10134721658E+02 -0.96398512797E+02  0.98486344095E+02  0.10566000000E+00 0. -1.
         13    1    4    4    0    0 -0.21003853720E+01  0.16926878699E+01  0.12031865699E+01  0.29556104096E+01  0.10566000000E+00 0. -1.
        -13    1    4    4    0    0 -0.25800678142E+01  0.18553431008E+01  0.75469017889E+00  0.32679916232E+01  0.10566000000E+00 0.  1.
        -14    1    4    4    0    0 -0.12759815060E+02  0.65866906877E+01  0.42015857495E+01  0.14961640866E+02  0.00000000000E+00 0.  1.
<mgrwt>
<rscale>  0 0.78601543E+02</rscale>
<asrwt>0</asrwt>
<pdfrwt beam="1">  1        1 0.16146972E-01 0.78601543E+02</pdfrwt>
<pdfrwt beam="2">  1       -2 0.22640413E-02 0.78601543E+02</pdfrwt>
<totfact> 0.15541289E+05</totfact>
</mgrwt>
</event>
<event>
 8    1  0.8247621E-018  0.7775387E+02  0.7818608E-02  0.1335549E+00
         -2   -1    0    0    0  501 -0.00000000000E+00  0.00000000000E+00  0.16903598722E+02  0.16903598914E+02  0.25500000000E-02 0.  1.
          1   -1    0    0  501    0  0.00000000000E+00 -0.00000000000E+00 -0.89413872600E+02  0.89413872742E+02  0.50400000000E-02 0. -1.
        -24    2    1    2    0    0 -0.35527136788E-14  0.22204460493E-15 -0.72510273878E+02  0.10631747166E+03  0.77753874255E+02 0.  0.
         66    2    3    3    0    0  0.27653361615E+02 -0.12583848453E+01  0.99544828575E+00  0.27771979769E+02  0.20000004864E+01 0.  0.
         13    1    3    3    0    0 -0.27653361615E+02  0.12583848453E+01 -0.73505722164E+02  0.78545491888E+02  0.10566000000E+00 0. -1.
         13    1    4    4    0    0  0.82751566890E+01 -0.15002960793E+00 -0.40508710851E+00  0.82870976048E+01  0.10566000000E+00 0. -1.
        -13    1    4    4    0    0  0.19171107108E+02 -0.10458377458E+01  0.14740485286E+01  0.19256404322E+02  0.10566000000E+00 0.  1.
        -14    1    4    4    0    0  0.20709781855E+00 -0.62517491535E-01 -0.73513134310E-01  0.22847784162E+00  0.00000000000E+00 0.  1.
<mgrwt>
<rscale>  0 0.77753874E+02</rscale>
<asrwt>0</asrwt>
<pdfrwt beam="1">  1        1 0.13755980E-01 0.77753874E+02</pdfrwt>
<pdfrwt beam="2">  1       -2 0.26005537E-02 0.77753874E+02</pdfrwt>
<totfact> 0.15584649E+05</totfact>
</mgrwt>
</event>
<event>
 8    1  0.8247621E-018  0.7792569E+02  0.7818608E-02  0.1335043E+00
         -2   -1    0    0    0  501 -0.00000000000E+00  0.00000000000E+00  0.15042847809E+03  0.15042847811E+03  0.25500000000E-02 0.  1.
          1   -1    0    0  501    0  0.00000000000E+00 -0.00000000000E+00 -0.10091861027E+02  0.10091862286E+02  0.50400000000E-02 0. -1.
        -24    2    1    2    0    0  0.35527136788E-14  0.00000000000E+00  0.14033661706E+03  0.16052034040E+03  0.77925692765E+02 0.  0.
         66    2    3    3    0    0 -0.21230652369E+02  0.24881419855E+02  0.11373046550E+03  0.11835727458E+03  0.20000025062E+01 0.  0.
         13    1    3    3    0    0  0.21230652369E+02 -0.24881419855E+02  0.26606151568E+02  0.42163065819E+02  0.10566000000E+00 0. -1.
         13    1    4    4    0    0 -0.22759906941E+01  0.26174469620E+01  0.14196509300E+02  0.14614486052E+02  0.10566000000E+00 0. -1.
        -13    1    4    4    0    0 -0.74921149601E+01  0.92945236274E+01  0.41286523838E+02  0.42977996355E+02  0.10566000000E+00 0.  1.
        -14    1    4    4    0    0 -0.11462546714E+02  0.12969449265E+02  0.58247432358E+02  0.60764792172E+02  0.00000000000E+00 0.  1.
<mgrwt>
<rscale>  0 0.77925693E+02</rscale>
<asrwt>0</asrwt>
<pdfrwt beam="1">  1        1 0.15525942E-02 0.77925693E+02</pdfrwt>
<pdfrwt beam="2">  1       -2 0.23142841E-01 0.77925693E+02</pdfrwt>
<totfact> 0.10102164E+05</totfact>
</mgrwt>
</event>
<event>
 8    1  0.8247621E-018  0.7910771E+02  0.7818608E-02  0.1331603E+00
          1   -1    0    0  501    0  0.00000000000E+00  0.00000000000E+00  0.19655113893E+03  0.19655113900E+03  0.50400000000E-02 0. -1.
         -2   -1    0    0    0  501 -0.00000000000E+00 -0.00000000000E+00 -0.79597984107E+01  0.79597988192E+01  0.25500000000E-02 0.  1.
        -24    2    1    2    0    0  0.17763568394E-14  0.00000000000E+00  0.18859134052E+03  0.20451093782E+03  0.79107711171E+02 0.  0.
         66    2    3    3    0    0  0.13279879921E+02  0.35009117231E+02  0.61603045757E+02  0.72117464898E+02  0.19999991865E+01 0.  0.
         13    1    3    3    0    0 -0.13279879921E+02 -0.35009117231E+02  0.12698829477E+03  0.13239347292E+03  0.10566000000E+00 0. -1.
         13    1    4    4    0    0  0.38737986867E+01  0.10193564135E+02  0.16690112207E+02  0.19937052830E+02  0.10566000000E+00 0. -1.
        -13    1    4    4    0    0  0.30401782063E+01  0.79160154267E+01  0.15409603442E+02  0.17589002985E+02  0.10566000000E+00 0.  1.
         14    1    4    4    0    0  0.63659030282E+01  0.16899537670E+02  0.29503330108E+02  0.34591409082E+02  0.00000000000E+00 0. -1.
<mgrwt>
<rscale>  0 0.79107711E+02</rscale>
<asrwt>0</asrwt>
<pdfrwt beam="1">  1        1 0.30238637E-01 0.79107711E+02</pdfrwt>
<pdfrwt beam="2">  1       -2 0.12245844E-02 0.79107711E+02</pdfrwt>
<totfact> 0.17119945E+05</totfact>
</mgrwt>
</event>
<event>
 8    1  0.8247621E-018  0.7959295E+02  0.7818608E-02  0.1330211E+00
         -2   -1    0    0    0  501 -0.00000000000E+00  0.00000000000E+00  0.54970773290E+02  0.54970773349E+02  0.25500000000E-02 0.  1.
          1   -1    0    0  501    0  0.00000000000E+00 -0.00000000000E+00 -0.28810938263E+02  0.28810938704E+02  0.50400000000E-02 0. -1.
        -24    2    1    2    0    0 -0.71054273576E-14  0.00000000000E+00  0.26159835027E+02  0.83781712054E+02  0.79592953871E+02 0.  0.
         66    2    3    3    0    0 -0.38607155399E+02 -0.66146380973E+01  0.20342025628E+02  0.44182167165E+02  0.20000009008E+01 0.  0.
         13    1    3    3    0    0  0.38607155399E+02  0.66146380973E+01  0.58178093990E+01  0.39599544888E+02  0.10566000000E+00 0. -1.
         13    1    4    4    0    0 -0.11173931335E+02 -0.20651948822E+01  0.66730334356E+01  0.13178099660E+02  0.10566000000E+00 0. -1.
        -13    1    4    4    0    0 -0.20520069458E+02 -0.35267943288E+01  0.10721831161E+02  0.23419657476E+02  0.10566000000E+00 0.  1.
        -14    1    4    4    0    0 -0.69131546058E+01 -0.10226488863E+01  0.29471610319E+01  0.75844100295E+01  0.00000000000E+00 0.  1.
<mgrwt>
<rscale>  0 0.79592954E+02</rscale>
<asrwt>0</asrwt>
<pdfrwt beam="1">  1        1 0.44324521E-02 0.79592954E+02</pdfrwt>
<pdfrwt beam="2">  1       -2 0.84570420E-02 0.79592954E+02</pdfrwt>
<totfact> 0.12185621E+05</totfact>
</mgrwt>
</event>
<event>
 8    1  0.8247621E-018  0.7988949E+02  0.7818608E-02  0.1329365E+00
          1   -1    0    0  501    0  0.00000000000E+00  0.00000000000E+00  0.19350131973E+03  0.19350131979E+03  0.50400000000E-02 0. -1.
         -2   -1    0    0    0  501 -0.00000000000E+00 -0.00000000000E+00 -0.82458492942E+01  0.82458496885E+01  0.25500000000E-02 0.  1.
        -24    2    1    2    0    0  0.00000000000E+00  0.00000000000E+00  0.18525547043E+03  0.20174716948E+03  0.79889492853E+02 0.  0.
         66    2    3    3    0    0  0.25470217622E+02 -0.15768019732E+02  0.26052591378E+02  0.39750471073E+02  0.20000002489E+01 0.  0.
         13    1    3    3    0    0 -0.25470217622E+02  0.15768019732E+02  0.15920287905E+03  0.16199669841E+03  0.10566000000E+00 0. -1.
         13    1    4    4    0    0  0.19987802517E+01 -0.17431970507E+01  0.26197496279E+01  0.37293579342E+01  0.10566000000E+00 0. -1.
        -13    1    4    4    0    0  0.10429526202E+02 -0.57674004645E+01  0.99604299655E+01  0.15532522463E+02  0.10566000000E+00 0.  1.
         14    1    4    4    0    0  0.13041911168E+02 -0.82574222165E+01  0.13472411785E+02  0.20488590676E+02  0.00000000000E+00 0. -1.
<mgrwt>
<rscale>  0 0.79889493E+02</rscale>
<asrwt>0</asrwt>
<pdfrwt beam="1">  1        1 0.29769434E-01 0.79889493E+02</pdfrwt>
<pdfrwt beam="2">  1       -2 0.12685922E-02 0.79889493E+02</pdfrwt>
<totfact> 0.16628496E+05</totfact>
</mgrwt>
</event>
<event>
 8    1  0.8247621E-018  0.7799772E+02  0.7818608E-02  0.1334832E+00
          1   -1    0    0  501    0  0.00000000000E+00  0.00000000000E+00  0.92857338604E+02  0.92857338741E+02  0.50400000000E-02 0. -1.
         -2   -1    0    0    0  501 -0.00000000000E+00 -0.00000000000E+00 -0.16379006523E+02  0.16379006721E+02  0.25500000000E-02 0.  1.
        -24    2    1    2    0    0  0.35527136788E-14  0.17763568394E-14  0.76478332081E+02  0.10923634546E+03  0.77997717223E+02 0.  0.
         66    2    3    3    0    0 -0.24937876806E+02  0.14148586691E+02  0.12944132039E+01  0.28770743950E+02  0.19999992332E+01 0.  0.
         13    1    3    3    0    0  0.24937876806E+02 -0.14148586691E+02  0.75183918877E+02  0.80465601512E+02  0.10566000000E+00 0. -1.
         13    1    4    4    0    0 -0.11120055268E+01  0.90845901219E+00 -0.11150779900E+00  0.14441094464E+01  0.10566000000E+00 0.  1.
        -13    1    4    4    0    0 -0.53281839312E+01  0.23462337937E+01  0.35933335664E+00  0.58339216242E+01  0.10566000000E+00 0.  1.
         14    1    4    4    0    0 -0.18497687348E+02  0.10893893885E+02  0.10465876462E+01  0.21492712879E+02  0.00000000000E+00 0. -1.
<mgrwt>
<rscale>  0 0.77997717E+02</rscale>
<asrwt>0</asrwt>
<pdfrwt beam="1">  1        1 0.14285744E-01 0.77997717E+02</pdfrwt>
<pdfrwt beam="2">  1       -2 0.25198472E-02 0.77997717E+02</pdfrwt>
<totfact> 0.15548626E+05</totfact>
</mgrwt>
</event>
<event>
 8    1  0.8247621E-018  0.7998404E+02  0.7818608E-02  0.1329097E+00
         -2   -1    0    0    0  501 -0.00000000000E+00  0.00000000000E+00  0.10244428878E+02  0.10244429195E+02  0.25500000000E-02 0.  1.
          1   -1    0    0  501    0  0.00000000000E+00 -0.00000000000E+00 -0.15612012283E+03  0.15612012291E+03  0.50400000000E-02 0. -1.
        -24    2    1    2    0    0  0.00000000000E+00  0.35527136788E-14 -0.14587569395E+03  0.16636455211E+03  0.79984036605E+02 0.  0.
         66    2    3    3    0    0  0.32227245442E+02  0.23634321010E+02 -0.73866082325E+02  0.84008181320E+02  0.19999830811E+01 0.  0.
         13    1    3    3    0    0 -0.32227245442E+02 -0.23634321010E+02 -0.72009611629E+02  0.82356370788E+02  0.10566000000E+00 0. -1.
         13    1    4    4    0    0  0.53039638423E+00  0.60200463040E+00 -0.12261678634E+01  0.14691431395E+01  0.10566000000E+00 0. -1.
        -13    1    4    4    0    0  0.28633903675E+02  0.20680499335E+02 -0.64893621303E+02  0.73883534988E+02  0.10566000000E+00 0.  1.
        -14    1    4    4    0    0  0.30629453825E+01  0.23518170441E+01 -0.77462931585E+01  0.86555031929E+01  0.00000000000E+00 0.  1.
<mgrwt>
<rscale>  0 0.79984037E+02</rscale>
<asrwt>0</asrwt>
<pdfrwt beam="1">  1        1 0.24018479E-01 0.79984037E+02</pdfrwt>
<pdfrwt beam="2">  1       -2 0.15760661E-02 0.79984037E+02</pdfrwt>
<totfact> 0.15914322E+05</totfact>
</mgrwt>
</event>
<event>
 8    1  0.8247621E-018  0.8080729E+02  0.7818608E-02  0.1326776E+00
         -2   -1    0    0    0  501 -0.00000000000E+00  0.00000000000E+00  0.11701883194E+03  0.11701883197E+03  0.25500000000E-02 0.  1.
          1   -1    0    0  501    0  0.00000000000E+00 -0.00000000000E+00 -0.13950356653E+02  0.13950357564E+02  0.50400000000E-02 0. -1.
        -24    2    1    2    0    0  0.00000000000E+00 -0.35527136788E-14  0.10306847529E+03  0.13096918954E+03  0.80807289329E+02 0.  0.
         66    2    3    3    0    0 -0.28960894337E+02  0.24285675016E+02  0.74596598874E+02  0.83649148089E+02  0.20000001683E+01 0.  0.
         13    1    3    3    0    0  0.28960894337E+02 -0.24285675016E+02  0.28471876416E+02  0.47320041446E+02  0.10566000000E+00 0. -1.
         13    1    4    4    0    0 -0.71142566607E+00  0.84172059057E+00  0.26080361949E+01  0.28333084655E+01  0.10566000000E+00 0. -1.
        -13    1    4    4    0    0 -0.10980808804E+02  0.84338548336E+01  0.27200681369E+02  0.30522062518E+02  0.10566000000E+00 0.  1.
        -14    1    4    4    0    0 -0.17268659866E+02  0.15010099592E+02  0.44787881310E+02  0.50293777106E+02  0.00000000000E+00 0.  1.
<mgrwt>
<rscale>  0 0.80807289E+02</rscale>
<asrwt>0</asrwt>
<pdfrwt beam="1">  1        1 0.21462088E-02 0.80807289E+02</pdfrwt>
<pdfrwt beam="2">  1       -2 0.18002897E-01 0.80807289E+02</pdfrwt>
<totfact> 0.99263421E+04</totfact>
</mgrwt>
</event>
<event>
 8    1  0.8247621E-018  0.8042366E+02  0.7818608E-02  0.1327853E+00
          1   -1    0    0  501    0  0.00000000000E+00  0.00000000000E+00  0.10023200257E+02  0.10023201524E+02  0.50400000000E-02 0. -1.
         -2   -1    0    0    0  501 -0.00000000000E+00 -0.00000000000E+00 -0.16132483737E+03  0.16132483739E+03  0.25500000000E-02 0.  1.
        -24    2    1    2    0    0  0.17763568394E-14 -0.17763568394E-14 -0.15130163712E+03  0.17134803892E+03  0.80423659747E+02 0.  0.
         66    2    3    3    0    0 -0.14664137283E+02  0.13458776782E+02 -0.15007871653E+03  0.15140606576E+03  0.19999995283E+01 0.  0.
         13    1    3    3    0    0  0.14664137283E+02 -0.13458776782E+02 -0.12229205859E+01  0.19941973160E+02  0.10566000000E+00 0. -1.
         13    1    4    4    0    0 -0.58419564681E+00  0.73617967124E+00 -0.86273842946E+01  0.86790649764E+01  0.10566000000E+00 0. -1.
        -13    1    4    4    0    0 -0.97061266801E+01  0.78134719385E+01 -0.94009677667E+02  0.94831903376E+02  0.10566000000E+00 0.  1.
        -14    1    4    4    0    0 -0.43738149563E+01  0.49091251723E+01 -0.47441654570E+02  0.47895097406E+02  0.00000000000E+00 0.  1.
<mgrwt>
<rscale>  0 0.80423660E+02</rscale>
<asrwt>0</asrwt>
<pdfrwt beam="1">  1        1 0.15420310E-02 0.80423660E+02</pdfrwt>
<pdfrwt beam="2">  1       -2 0.24819204E-01 0.80423660E+02</pdfrwt>
<totfact> 0.90972329E+04</totfact>
</mgrwt>
</event>
<event>
 8    1  0.8247621E-018  0.7995654E+02  0.7818608E-02  0.1329175E+00
         -2   -1    0    0    0  501 -0.00000000000E+00  0.00000000000E+00  0.76852413932E+01  0.76852418162E+01  0.25500000000E-02 0.  1.
          1   -1    0    0  501    0  0.00000000000E+00 -0.00000000000E+00 -0.20796511632E+03  0.20796511638E+03  0.50400000000E-02 0. -1.
        -24    2    1    2    0    0  0.00000000000E+00  0.00000000000E+00 -0.20027987492E+03  0.21565035819E+03  0.79956542508E+02 0.  0.
         66    2    3    3    0    0  0.13047976945E+01 -0.30222907386E+02 -0.29812355284E+02  0.42519445172E+02  0.20000155545E+01 0.  0.
         13    1    3    3    0    0 -0.13047976945E+01  0.30222907386E+02 -0.17046751964E+03  0.17313091302E+03  0.10566000000E+00 0. -1.
         13    1    4    4    0    0  0.35672358623E-01 -0.81456214110E+00 -0.11218277312E+01  0.13908434466E+01  0.10566000000E+00 0. -1.
        -13    1    4    4    0    0  0.14979939328E+01 -0.24397057829E+02 -0.23413867929E+02  0.33847906759E+02  0.10566000000E+00 0.  1.
        -14    1    4    4    0    0 -0.22886859690E+00 -0.50112874159E+01 -0.52766596240E+01  0.72806949659E+01  0.00000000000E+00 0.  1.
<mgrwt>
<rscale>  0 0.79956543E+02</rscale>
<asrwt>0</asrwt>
<pdfrwt beam="1">  1        1 0.31994629E-01 0.79956543E+02</pdfrwt>
<pdfrwt beam="2">  1       -2 0.11823450E-02 0.79956543E+02</pdfrwt>
<totfact> 0.16825210E+05</totfact>
</mgrwt>
</event>
<event>
 8    1  0.8247621E-018  0.7891553E+02  0.7818608E-02  0.1332157E+00
         -2   -1    0    0    0  501 -0.00000000000E+00  0.00000000000E+00  0.29199285809E+01  0.29199296944E+01  0.25500000000E-02 0.  1.
          1   -1    0    0  501    0  0.00000000000E+00 -0.00000000000E+00 -0.53320312739E+03  0.53320312741E+03  0.50400000000E-02 0. -1.
        -24    2    1    2    0    0  0.00000000000E+00  0.00000000000E+00 -0.53028319881E+03  0.53612305711E+03  0.78915533476E+02 0.  0.
         66    2    3    3    0    0 -0.30017275999E+02 -0.23456044006E+02 -0.33448899291E+03  0.33665725782E+03  0.20000011873E+01 0.  0.
         13    1    3    3    0    0  0.30017275999E+02  0.23456044006E+02 -0.19579420590E+03  0.19946579929E+03  0.10566000000E+00 0. -1.
         13    1    4    4    0    0 -0.40868627715E+00 -0.34335031886E+00 -0.42127893968E+01  0.42477844168E+01  0.10566000000E+00 0. -1.
        -13    1    4    4    0    0 -0.39420435836E+01 -0.38185894224E+01 -0.48141896424E+02  0.48453840798E+02  0.10566000000E+00 0.  1.
        -14    1    4    4    0    0 -0.25666546138E+02 -0.19294104264E+02 -0.28213430709E+03  0.28395563260E+03  0.00000000000E+00 0.  1.
<mgrwt>
<rscale>  0 0.78915533E+02</rscale>
<asrwt>0</asrwt>
<pdfrwt beam="1">  1        1 0.82031173E-01 0.78915533E+02</pdfrwt>
<pdfrwt beam="2">  1       -2 0.44922029E-03 0.78915533E+02</pdfrwt>
<totfact> 0.20464666E+05</totfact>
</mgrwt>
</event>
<event>
 8    1  0.8247621E-018  0.7399421E+02  0.7818608E-02  0.1347014E+00
         -2   -1    0    0    0  501 -0.00000000000E+00  0.00000000000E+00  0.21146766777E+03  0.21146766778E+03  0.25500000000E-02 0.  1.
          1   -1    0    0  501    0  0.00000000000E+00 -0.00000000000E+00 -0.64727881279E+01  0.64727900901E+01  0.50400000000E-02 0. -1.
        -24    2    1    2    0    0  0.00000000000E+00  0.00000000000E+00  0.20499487964E+03  0.21794045787E+03  0.73994205850E+02 0.  0.
         66    2    3    3    0    0  0.12349174862E+02  0.32951330066E+02  0.13595871719E+03  0.14045307075E+03  0.20000078157E+01 0.  0.
         13    1    3    3    0    0 -0.12349174862E+02 -0.32951330066E+02  0.69036162455E+02  0.77487387124E+02  0.10566000000E+00 0. -1.
         13    1    4    4    0    0  0.59922752670E+01  0.16569366239E+02  0.64832583664E+02  0.67184271440E+02  0.10566000000E+00 0. -1.
        -13    1    4    4    0    0  0.31961104512E+01  0.71842921213E+01  0.31784135367E+02  0.32742504491E+02  0.10566000000E+00 0.  1.
         14    1    4    4    0    0  0.31607891435E+01  0.91976717056E+01  0.39341998155E+02  0.40526294818E+02  0.00000000000E+00 0. -1.
<mgrwt>
<rscale>  0 0.73994206E+02</rscale>
<asrwt>0</asrwt>
<pdfrwt beam="1">  1        1 0.99581369E-03 0.73994206E+02</pdfrwt>
<pdfrwt beam="2">  1       -2 0.32533488E-01 0.73994206E+02</pdfrwt>
<totfact> 0.10161971E+05</totfact>
</mgrwt>
</event>
<event>
 8    1  0.8247621E-018  0.8114392E+02  0.7818608E-02  0.1325836E+00
          1   -1    0    0  501    0  0.00000000000E+00  0.00000000000E+00  0.48193714999E+02  0.48193715262E+02  0.50400000000E-02 0. -1.
         -2   -1    0    0    0  501 -0.00000000000E+00 -0.00000000000E+00 -0.34155569805E+02  0.34155569900E+02  0.25500000000E-02 0.  1.
        -24    2    1    2    0    0  0.00000000000E+00  0.35527136788E-14  0.14038145194E+02  0.82349285163E+02  0.81143916878E+02 0.  0.
         66    2    3    3    0    0  0.66673260199E+01 -0.23684535466E+02 -0.25683796355E+02  0.35623978732E+02  0.20000022496E+01 0.  0.
         13    1    3    3    0    0 -0.66673260199E+01  0.23684535466E+02  0.39721941549E+02  0.46725306430E+02  0.10566000000E+00 0. -1.
         13    1    4    4    0    0  0.11903834652E+01 -0.25756431266E+01 -0.24962965956E+01  0.37806892280E+01  0.10566000000E+00 0. -1.
        -13    1    4    4    0    0  0.45943472340E+01 -0.16865963544E+02 -0.18180089271E+02  0.25220935008E+02  0.10566000000E+00 0.  1.
         14    1    4    4    0    0  0.88259532073E+00 -0.42429287961E+01 -0.50074104889E+01  0.66223544962E+01  0.00000000000E+00 0. -1.
<mgrwt>
<rscale>  0 0.81143917E+02</rscale>
<asrwt>0</asrwt>
<pdfrwt beam="1">  1        1 0.74144177E-02 0.81143917E+02</pdfrwt>
<pdfrwt beam="2">  1       -2 0.52547031E-02 0.81143917E+02</pdfrwt>
<totfact> 0.12572969E+05</totfact>
</mgrwt>
</event>
<event>
 8    1  0.8247621E-018  0.8025638E+02  0.7818608E-02  0.1328325E+00
         -2   -1    0    0    0  501 -0.00000000000E+00  0.00000000000E+00  0.39710178743E+01  0.39710186930E+01  0.25500000000E-02 0.  1.
          1   -1    0    0  501    0  0.00000000000E+00 -0.00000000000E+00 -0.40550601821E+03  0.40550601824E+03  0.50400000000E-02 0. -1.
        -24    2    1    2    0    0  0.00000000000E+00 -0.17763568394E-14 -0.40153500034E+03  0.40947703693E+03  0.80256384680E+02 0.  0.
         66    2    3    3    0    0  0.38208677355E+02 -0.99221367131E+01 -0.23693853973E+03  0.24021287112E+03  0.20000045787E+01 0.  0.
         13    1    3    3    0    0 -0.38208677355E+02  0.99221367131E+01 -0.16459646060E+03  0.16926416581E+03  0.10566000000E+00 0. -1.
         13    1    4    4    0    0  0.11130286945E+02 -0.32269806175E+01 -0.66849684475E+02  0.67846799260E+02  0.10566000000E+00 0. -1.
        -13    1    4    4    0    0  0.19773403098E+02 -0.45119897699E+01 -0.12069341326E+03  0.12238568826E+03  0.10566000000E+00 0.  1.
        -14    1    4    4    0    0  0.73049873113E+01 -0.21831663257E+01 -0.49395442002E+02  0.49980383606E+02  0.00000000000E+00 0.  1.
<mgrwt>
<rscale>  0 0.80256385E+02</rscale>
<asrwt>0</asrwt>
<pdfrwt beam="1">  1        1 0.62385509E-01 0.80256385E+02</pdfrwt>
<pdfrwt beam="2">  1       -2 0.61092621E-03 0.80256385E+02</pdfrwt>
<totfact> 0.18876432E+05</totfact>
</mgrwt>
</event>
<event>
 8    1  0.8247621E-018  0.8494482E+02  0.7818608E-02  0.1315577E+00
          1   -1    0    0  501    0  0.00000000000E+00  0.00000000000E+00  0.23735438382E+01  0.23735491892E+01  0.50400000000E-02 0. -1.
         -2   -1    0    0    0  501 -0.00000000000E+00 -0.00000000000E+00 -0.76000435958E+03  0.76000435958E+03  0.25500000000E-02 0.  1.
        -24    2    1    2    0    0  0.17763568394E-14  0.00000000000E+00 -0.75763081574E+03  0.76237790877E+03  0.84944822233E+02 0.  0.
         66    2    3    3    0    0 -0.13854829791E+02  0.30571183959E+02 -0.61226152773E+03  0.61318409303E+03  0.20000000502E+01 0.  0.
         13    1    3    3    0    0  0.13854829791E+02 -0.30571183959E+02 -0.14536928801E+03  0.14919381575E+03  0.10566000000E+00 0. -1.
         13    1    4    4    0    0 -0.82672362311E+01  0.18074395535E+02 -0.37232864335E+03  0.37285876789E+03  0.10566000000E+00 0. -1.
        -13    1    4    4    0    0 -0.30693167587E+01  0.80791518938E+01 -0.15190173247E+03  0.15214743144E+03  0.10566000000E+00 0.  1.
        -14    1    4    4    0    0 -0.25182768017E+01  0.44176365303E+01 -0.88031151910E+02  0.88177893699E+02  0.00000000000E+00 0.  1.
<mgrwt>
<rscale>  0 0.84944822E+02</rscale>
<asrwt>0</asrwt>
<pdfrwt beam="1">  1        1 0.36516161E-03 0.84944822E+02</pdfrwt>
<pdfrwt beam="2">  1       -2 0.11692355E+00 0.84944822E+02</pdfrwt>
<totfact> 0.29948950E+04</totfact>
</mgrwt>
</event>
<event>
 8    1  0.8247621E-018  0.8000428E+02  0.7818608E-02  0.1329039E+00
         -2   -1    0    0    0  501 -0.00000000000E+00  0.00000000000E+00  0.21040347054E+02  0.21040347208E+02  0.25500000000E-02 0.  1.
          1   -1    0    0  501    0  0.00000000000E+00 -0.00000000000E+00 -0.76052512664E+02  0.76052512831E+02  0.50400000000E-02 0. -1.
        -24    2    1    2    0    0  0.17763568394E-14  0.00000000000E+00 -0.55012165610E+02  0.97092860039E+02  0.80004281795E+02 0.  0.
         66    2    3    3    0    0  0.13267027122E+02 -0.21891737965E+02  0.97423510136E+01  0.27462257665E+02  0.19999982628E+01 0.  0.
         13    1    3    3    0    0 -0.13267027122E+02  0.21891737965E+02 -0.64754516623E+02  0.69630602374E+02  0.10566000000E+00 0. -1.
         13    1    4    4    0    0  0.61992247483E+00 -0.12310565688E+01  0.41188906068E+00  0.14424357124E+01  0.10566000000E+00 0. -1.
        -13    1    4    4    0    0  0.46432014000E+01 -0.70006780041E+01  0.40818208749E+01  0.93403017857E+01  0.10566000000E+00 0.  1.
        -14    1    4    4    0    0  0.80039032468E+01 -0.13660003392E+02  0.52486410780E+01  0.16679520167E+02  0.00000000000E+00 0.  1.
<mgrwt>
<rscale>  0 0.80004282E+02</rscale>
<asrwt>0</asrwt>
<pdfrwt beam="1">  1        1 0.11700386E-01 0.80004282E+02</pdfrwt>
<pdfrwt beam="2">  1       -2 0.32369765E-02 0.80004282E+02</pdfrwt>
<totfact> 0.14052732E+05</totfact>
</mgrwt>
</event>
<event>
 8    1  0.8247621E-018  0.7947713E+02  0.7818608E-02  0.1330542E+00
          1   -1    0    0  501    0  0.00000000000E+00  0.00000000000E+00  0.13621636557E+02  0.13621637490E+02  0.50400000000E-02 0. -1.
         -2   -1    0    0    0  501 -0.00000000000E+00 -0.00000000000E+00 -0.11592978200E+03  0.11592978203E+03  0.25500000000E-02 0.  1.
        -24    2    1    2    0    0  0.00000000000E+00  0.00000000000E+00 -0.10230814545E+03  0.12955141952E+03  0.79477126743E+02 0.  0.
         66    2    3    3    0    0  0.35119035913E+02  0.59298345563E+01 -0.79823229851E+02  0.87431445463E+02  0.20000026602E+01 0.  0.
         13    1    3    3    0    0 -0.35119035913E+02 -0.59298345563E+01 -0.22484915595E+02  0.42119974058E+02  0.10566000000E+00 0. -1.
         13    1    4    4    0    0  0.42120034722E+01  0.10497208478E+01 -0.91052117501E+01  0.10087563242E+02  0.10566000000E+00 0. -1.
        -13    1    4    4    0    0  0.19933654164E+02  0.32373624251E+01 -0.43981691211E+02  0.48396605353E+02  0.10566000000E+00 0.  1.
        -14    1    4    4    0    0  0.10973378276E+02  0.16427512834E+01 -0.26736326890E+02  0.28947276869E+02  0.00000000000E+00 0.  1.
<mgrwt>
<rscale>  0 0.79477127E+02</rscale>
<asrwt>0</asrwt>
<pdfrwt beam="1">  1        1 0.20956366E-02 0.79477127E+02</pdfrwt>
<pdfrwt beam="2">  1       -2 0.17835350E-01 0.79477127E+02</pdfrwt>
<totfact> 0.10384868E+05</totfact>
</mgrwt>
</event>
<event>
 8    1  0.8247621E-018  0.7881517E+02  0.7818608E-02  0.1332448E+00
         -2   -1    0    0    0  501 -0.00000000000E+00  0.00000000000E+00  0.44535298925E+02  0.44535298998E+02  0.25500000000E-02 0.  1.
          1   -1    0    0  501    0  0.00000000000E+00 -0.00000000000E+00 -0.34870266666E+02  0.34870267030E+02  0.50400000000E-02 0. -1.
        -24    2    1    2    0    0 -0.35527136788E-14  0.35527136788E-14  0.96650322592E+01  0.79405566028E+02  0.78815170289E+02 0.  0.
         66    2    3    3    0    0  0.18253013943E+02 -0.26890876086E+02  0.27243201889E+02  0.42455668244E+02  0.19999955374E+01 0.  0.
         13    1    3    3    0    0 -0.18253013943E+02  0.26890876086E+02 -0.17578169630E+02  0.36949897784E+02  0.10566000000E+00 0. -1.
         13    1    4    4    0    0  0.23512556182E+01 -0.24375708331E+01  0.26286528650E+01  0.42884885996E+01  0.10566000000E+00 0. -1.
        -13    1    4    4    0    0  0.81935751354E+01 -0.12592789253E+02  0.12727842085E+02  0.19690661311E+02  0.10566000000E+00 0.  1.
         14    1    4    4    0    0  0.77081831897E+01 -0.11860516000E+02  0.11886706939E+02  0.18476518333E+02  0.00000000000E+00 0. -1.
<mgrwt>
<rscale>  0 0.78815170E+02</rscale>
<asrwt>0</asrwt>
<pdfrwt beam="1">  1        1 0.53646565E-02 0.78815170E+02</pdfrwt>
<pdfrwt beam="2">  1       -2 0.68515844E-02 0.78815170E+02</pdfrwt>
<totfact> 0.12949827E+05</totfact>
</mgrwt>
</event>
<event>
 8    1  0.8247621E-018  0.8580698E+02  0.7818608E-02  0.1313336E+00
          1   -1    0    0  501    0  0.00000000000E+00  0.00000000000E+00  0.15131117778E+03  0.15131117787E+03  0.50400000000E-02 0. -1.
         -2   -1    0    0    0  501 -0.00000000000E+00 -0.00000000000E+00 -0.12165058158E+02  0.12165058425E+02  0.25500000000E-02 0.  1.
        -24    2    1    2    0    0 -0.27755575616E-16 -0.35527136788E-14  0.13914611962E+03  0.16347623629E+03  0.85806976555E+02 0.  0.
         66    2    3    3    0    0 -0.92542868671E-01 -0.29303792061E+02  0.99702333535E+01  0.31018161599E+02  0.20000006243E+01 0.  0.
         13    1    3    3    0    0  0.92542868671E-01  0.29303792061E+02  0.12917588627E+03  0.13245807469E+03  0.10566000000E+00 0. -1.
         13    1    4    4    0    0 -0.15008838613E+00 -0.23053165040E+01  0.74998258615E+00  0.24311825564E+01  0.10566000000E+00 0. -1.
        -13    1    4    4    0    0 -0.77875325386E+00 -0.12775961758E+02  0.47895773698E+01  0.13666852998E+02  0.10566000000E+00 0.  1.
         14    1    4    4    0    0  0.83629877132E+00 -0.14222513800E+02  0.44306733975E+01  0.14920126044E+02  0.00000000000E+00 0. -1.
<mgrwt>
<rscale>  0 0.85806977E+02</rscale>
<asrwt>0</asrwt>
<pdfrwt beam="1">  1        1 0.23278641E-01 0.85806977E+02</pdfrwt>
<pdfrwt beam="2">  1       -2 0.18715476E-02 0.85806977E+02</pdfrwt>
<totfact> 0.13103815E+05</totfact>
</mgrwt>
</event>
<event>
 8    1  0.8247621E-018  0.7460756E+02  0.7818608E-02  0.1345091E+00
         -2   -1    0    0    0  501 -0.00000000000E+00  0.00000000000E+00  0.21945638956E+02  0.21945639104E+02  0.25500000000E-02 0.  1.
          1   -1    0    0  501    0  0.00000000000E+00 -0.00000000000E+00 -0.63409949684E+02  0.63409949884E+02  0.50400000000E-02 0. -1.
        -24    2    1    2    0    0  0.44408920985E-15  0.00000000000E+00 -0.41464310728E+02  0.85355588988E+02  0.74607556637E+02 0.  0.
         66    2    3    3    0    0  0.32598669118E+01 -0.26936491407E+02  0.84963507643E+01  0.28502443408E+02  0.20000005753E+01 0.  0.
         13    1    3    3    0    0 -0.32598669118E+01  0.26936491407E+02 -0.49960661493E+02  0.56853145581E+02  0.10566000000E+00 0. -1.
         13    1    4    4    0    0  0.19922036016E+01 -0.14792113934E+02  0.51346357744E+01  0.15784522748E+02  0.10566000000E+00 0. -1.
        -13    1    4    4    0    0  0.12196575453E+01 -0.10758899755E+02  0.33389411192E+01  0.11331424460E+02  0.10566000000E+00 0.  1.
         14    1    4    4    0    0  0.48005764808E-01 -0.13854777185E+01  0.22773870700E-01  0.13864961994E+01  0.00000000000E+00 0. -1.
<mgrwt>
<rscale>  0 0.74607557E+02</rscale>
<asrwt>0</asrwt>
<pdfrwt beam="1">  1        1 0.97553769E-02 0.74607557E+02</pdfrwt>
<pdfrwt beam="2">  1       -2 0.33762522E-02 0.74607557E+02</pdfrwt>
<totfact> 0.16526861E+05</totfact>
</mgrwt>
</event>
<event>
 8    1  0.8247621E-018  0.7902693E+02  0.7818608E-02  0.1331836E+00
          1   -1    0    0  501    0  0.00000000000E+00  0.00000000000E+00  0.96458965825E+01  0.96458978992E+01  0.50400000000E-02 0. -1.
         -2   -1    0    0    0  501 -0.00000000000E+00 -0.00000000000E+00 -0.16186302040E+03  0.16186302042E+03  0.25500000000E-02 0.  1.
        -24    2    1    2    0    0  0.00000000000E+00  0.00000000000E+00 -0.15221712382E+03  0.17150891832E+03  0.79026933888E+02 0.  0.
         66    2    3    3    0    0  0.53363357490E+01  0.13345203483E+02 -0.15597840882E+03  0.15665195483E+03  0.19999990916E+01 0.  0.
         13    1    3    3    0    0 -0.53363357490E+01 -0.13345203483E+02  0.37612850085E+01  0.14856963491E+02  0.10566000000E+00 0. -1.
         13    1    4    4    0    0  0.25787634179E+01  0.75189603529E+01 -0.91771367110E+02  0.92115035531E+02  0.10566000000E+00 0. -1.
        -13    1    4    4    0    0  0.67698960476E+00  0.24407647997E+01 -0.23460109777E+02  0.23596685414E+02  0.10566000000E+00 0.  1.
         14    1    4    4    0    0  0.20805827264E+01  0.33854783303E+01 -0.40746931937E+02  0.40940233882E+02  0.00000000000E+00 0. -1.
<mgrwt>
<rscale>  0 0.79026934E+02</rscale>
<asrwt>0</asrwt>
<pdfrwt beam="1">  1        1 0.14839843E-02 0.79026934E+02</pdfrwt>
<pdfrwt beam="2">  1       -2 0.24902001E-01 0.79026934E+02</pdfrwt>
<totfact> 0.95060606E+04</totfact>
</mgrwt>
</event>
<event>
 8    1  0.8247621E-018  0.7743073E+02  0.7818608E-02  0.1336505E+00
         -2   -1    0    0    0  501 -0.00000000000E+00  0.00000000000E+00  0.14183374205E+03  0.14183374208E+03  0.25500000000E-02 0.  1.
          1   -1    0    0  501    0  0.00000000000E+00 -0.00000000000E+00 -0.10567861970E+02  0.10567863172E+02  0.50400000000E-02 0. -1.
        -24    2    1    2    0    0 -0.35527136788E-14  0.00000000000E+00  0.13126588008E+03  0.15240160525E+03  0.77430730387E+02 0.  0.
         66    2    3    3    0    0  0.30118516186E+02 -0.22905269236E+02  0.81556978947E+02  0.89929512341E+02  0.19999997382E+01 0.  0.
         13    1    3    3    0    0 -0.30118516186E+02  0.22905269236E+02  0.49708901136E+02  0.62472092908E+02  0.10566000000E+00 0. -1.
         13    1    4    4    0    0  0.10841648460E+02 -0.83648055000E+01  0.28120182590E+02  0.31277262434E+02  0.10566000000E+00 0. -1.
        -13    1    4    4    0    0  0.11582115736E+02 -0.83952295927E+01  0.30308079182E+02  0.33514416489E+02  0.10566000000E+00 0.  1.
         14    1    4    4    0    0  0.76947519901E+01 -0.61452341438E+01  0.23128717174E+02  0.25137833418E+02  0.00000000000E+00 0. -1.
<mgrwt>
<rscale>  0 0.77430730E+02</rscale>
<asrwt>0</asrwt>
<pdfrwt beam="1">  1        1 0.16258250E-02 0.77430730E+02</pdfrwt>
<pdfrwt beam="2">  1       -2 0.21820577E-01 0.77430730E+02</pdfrwt>
<totfact> 0.10465089E+05</totfact>
</mgrwt>
</event>
<event>
 8    1  0.8247621E-018  0.7937708E+02  0.7818608E-02  0.1330829E+00
         -2   -1    0    0    0  501 -0.00000000000E+00  0.00000000000E+00  0.11455707252E+02  0.11455707536E+02  0.25500000000E-02 0.  1.
          1   -1    0    0  501    0  0.00000000000E+00 -0.00000000000E+00 -0.13750179213E+03  0.13750179222E+03  0.50400000000E-02 0. -1.
        -24    2    1    2    0    0  0.00000000000E+00  0.00000000000E+00 -0.12604608488E+03  0.14895749976E+03  0.79377082468E+02 0.  0.
         66    2    3    3    0    0 -0.24308206666E+02  0.90411934167E+01 -0.67485301346E+01  0.26873308229E+02  0.19999866112E+01 0.  0.
         13    1    3    3    0    0  0.24308206666E+02 -0.90411934167E+01 -0.11929755474E+03  0.12208419153E+03  0.10566000000E+00 0. -1.
         13    1    4    4    0    0 -0.15412978129E+01  0.23025008070E+00 -0.61589878156E+00  0.16790203669E+01  0.10566000000E+00 0. -1.
        -13    1    4    4    0    0 -0.10121294289E+02  0.36609829126E+01 -0.22125090001E+01  0.10988619298E+02  0.10566000000E+00 0.  1.
        -14    1    4    4    0    0 -0.12645614564E+02  0.51499604234E+01 -0.39201223530E+01  0.14205668563E+02  0.00000000000E+00 0.  1.
<mgrwt>
<rscale>  0 0.79377082E+02</rscale>
<asrwt>0</asrwt>
<pdfrwt beam="1">  1        1 0.21154121E-01 0.79377082E+02</pdfrwt>
<pdfrwt beam="2">  1       -2 0.17624166E-02 0.79377082E+02</pdfrwt>
<totfact> 0.15867804E+05</totfact>
</mgrwt>
</event>
<event>
 8    1  0.8247621E-018  0.7836212E+02  0.7818608E-02  0.1333765E+00
         -2   -1    0    0    0  501 -0.00000000000E+00  0.00000000000E+00  0.72561137347E+02  0.72561137392E+02  0.25500000000E-02 0.  1.
          1   -1    0    0  501    0  0.00000000000E+00 -0.00000000000E+00 -0.21156719375E+02  0.21156719976E+02  0.50400000000E-02 0. -1.
        -24    2    1    2    0    0  0.00000000000E+00  0.88817841970E-15  0.51404417972E+02  0.93717857368E+02  0.78362124796E+02 0.  0.
         66    2    3    3    0    0  0.82388445639E+01  0.77691049646E+01  0.70546029936E+02  0.71477128416E+02  0.19999987705E+01 0.  0.
         13    1    3    3    0    0 -0.82388445639E+01 -0.77691049646E+01 -0.19141611964E+02  0.22240728952E+02  0.10566000000E+00 0. -1.
         13    1    4    4    0    0  0.86750381515E-01  0.19981781627E+00  0.16319417492E+01  0.16498032297E+01  0.10566000000E+00 0.  1.
        -13    1    4    4    0    0  0.12876284613E+01  0.12314665638E+01  0.15484750017E+02  0.15587275069E+02  0.10566000000E+00 0.  1.
         14    1    4    4    0    0  0.68644657211E+01  0.63378205846E+01  0.53429338170E+02  0.54240050117E+02  0.00000000000E+00 0. -1.
<mgrwt>
<rscale>  0 0.78362125E+02</rscale>
<asrwt>0</asrwt>
<pdfrwt beam="1">  1        1 0.32548800E-02 0.78362125E+02</pdfrwt>
<pdfrwt beam="2">  1       -2 0.11163252E-01 0.78362125E+02</pdfrwt>
<totfact> 0.12023560E+05</totfact>
</mgrwt>
</event>
<event>
 8    1  0.8247621E-018  0.8387192E+02  0.7818608E-02  0.1318409E+00
         -2   -1    0    0    0  501 -0.00000000000E+00  0.00000000000E+00  0.17403690095E+03  0.17403690097E+03  0.25500000000E-02 0.  1.
          1   -1    0    0  501    0  0.00000000000E+00 -0.00000000000E+00 -0.10104894029E+02  0.10104895286E+02  0.50400000000E-02 0. -1.
        -24    2    1    2    0    0 -0.17763568394E-14  0.00000000000E+00  0.16393200692E+03  0.18414179626E+03  0.83871915650E+02 0.  0.
         66    2    3    3    0    0 -0.86821479063E+01 -0.21267043635E+02  0.15897927557E+03  0.16064269948E+03  0.19999999358E+01 0.  0.
         13    1    3    3    0    0  0.86821479063E+01  0.21267043635E+02  0.49527313535E+01  0.23499096772E+02  0.10566000000E+00 0. -1.
         13    1    4    4    0    0 -0.25342483561E+01 -0.77665305923E+01  0.58428060994E+02  0.58996532845E+02  0.10566000000E+00 0. -1.
        -13    1    4    4    0    0 -0.28040583024E+01 -0.69794088902E+01  0.54078038554E+02  0.54598720766E+02  0.10566000000E+00 0.  1.
        -14    1    4    4    0    0 -0.33438412479E+01 -0.65211041521E+01  0.46473176022E+02  0.47047445873E+02  0.00000000000E+00 0.  1.
<mgrwt>
<rscale>  0 0.83871916E+02</rscale>
<asrwt>0</asrwt>
<pdfrwt beam="1">  1        1 0.15545992E-02 0.83871916E+02</pdfrwt>
<pdfrwt beam="2">  1       -2 0.26774908E-01 0.83871916E+02</pdfrwt>
<totfact> 0.79456241E+04</totfact>
</mgrwt>
</event>
<event>
 8    1  0.8247621E-018  0.7992610E+02  0.7818608E-02  0.1329261E+00
         -2   -1    0    0    0  501 -0.00000000000E+00  0.00000000000E+00  0.60551011689E+02  0.60551011742E+02  0.25500000000E-02 0.  1.
          1   -1    0    0  501    0  0.00000000000E+00 -0.00000000000E+00 -0.26375205449E+02  0.26375205931E+02  0.50400000000E-02 0. -1.
        -24    2    1    2    0    0  0.71054273576E-14 -0.44408920985E-15  0.34175806239E+02  0.86926217673E+02  0.79926100786E+02 0.  0.
         66    2    3    3    0    0 -0.39165819679E+02  0.35280430222E+01  0.95141443658E+01  0.40508362821E+02  0.19999991775E+01 0.  0.
         13    1    3    3    0    0  0.39165819679E+02 -0.35280430222E+01  0.24661661874E+02  0.46417854852E+02  0.10566000000E+00 0. -1.
         13    1    4    4    0    0 -0.34805139259E+02  0.30671784259E+01  0.88372015133E+01  0.36040430033E+02  0.10566000000E+00 0. -1.
        -13    1    4    4    0    0 -0.35117293618E+01  0.48386267609E+00  0.37353041385E+00  0.35660980365E+01  0.10566000000E+00 0.  1.
         14    1    4    4    0    0 -0.84895105813E+00 -0.22998079880E-01  0.30341243860E+00  0.90183475131E+00  0.00000000000E+00 0. -1.
<mgrwt>
<rscale>  0 0.79926101E+02</rscale>
<asrwt>0</asrwt>
<pdfrwt beam="1">  1        1 0.40577240E-02 0.79926101E+02</pdfrwt>
<pdfrwt beam="2">  1       -2 0.93155402E-02 0.79926101E+02</pdfrwt>
<totfact> 0.11846398E+05</totfact>
</mgrwt>
</event>
<event>
 8    1  0.8247621E-018  0.7869428E+02  0.7818608E-02  0.1332798E+00
          1   -1    0    0  501    0  0.00000000000E+00  0.00000000000E+00  0.17779984480E+03  0.17779984487E+03  0.50400000000E-02 0. -1.
         -2   -1    0    0    0  501 -0.00000000000E+00 -0.00000000000E+00 -0.87075296197E+01  0.87075299931E+01  0.25500000000E-02 0.  1.
        -24    2    1    2    0    0 -0.88817841970E-15  0.00000000000E+00  0.16909231518E+03  0.18650737487E+03  0.78694280770E+02 0.  0.
         66    2    3    3    0    0  0.41026222845E+01  0.39068816323E+02  0.80503424329E+02  0.89599136490E+02  0.20000031664E+01 0.  0.
         13    1    3    3    0    0 -0.41026222845E+01 -0.39068816323E+02  0.88588890853E+02  0.96908238375E+02  0.10566000000E+00 0. -1.
         13    1    4    4    0    0  0.12446594144E+01  0.93510644409E+01  0.18306972431E+02  0.20594853407E+02  0.10566000000E+00 0. -1.
        -13    1    4    4    0    0  0.16315835114E+01  0.10247208203E+02  0.21431783591E+02  0.23811758705E+02  0.10566000000E+00 0.  1.
         14    1    4    4    0    0  0.12263793587E+01  0.19470543679E+02  0.40764668307E+02  0.45192524378E+02  0.00000000000E+00 0. -1.
<mgrwt>
<rscale>  0 0.78694281E+02</rscale>
<asrwt>0</asrwt>
<pdfrwt beam="1">  1        1 0.27353824E-01 0.78694281E+02</pdfrwt>
<pdfrwt beam="2">  1       -2 0.13396199E-02 0.78694281E+02</pdfrwt>
<totfact> 0.17029044E+05</totfact>
</mgrwt>
</event>
<event>
 8    1  0.8247621E-018  0.8251747E+02  0.7818608E-02  0.1322055E+00
          1   -1    0    0  501    0  0.00000000000E+00  0.00000000000E+00  0.30618420232E+02  0.30618420647E+02  0.50400000000E-02 0. -1.
         -2   -1    0    0    0  501 -0.00000000000E+00 -0.00000000000E+00 -0.55596696811E+02  0.55596696869E+02  0.25500000000E-02 0.  1.
        -24    2    1    2    0    0 -0.35527136788E-14  0.00000000000E+00 -0.24978276579E+02  0.86215117516E+02  0.82517465954E+02 0.  0.
         66    2    3    3    0    0  0.30188914934E+02  0.27626168553E+02 -0.71995347722E+01  0.41598185774E+02  0.19999962291E+01 0.  0.
         13    1    3    3    0    0 -0.30188914934E+02 -0.27626168553E+02 -0.17778741807E+02  0.44616931742E+02  0.10566000000E+00 0. -1.
         13    1    4    4    0    0  0.99468885307E+01  0.90299339505E+01 -0.22656605718E+01  0.13624414867E+02  0.10566000000E+00 0. -1.
        -13    1    4    4    0    0  0.18768905081E+02  0.17763115850E+02 -0.46815934079E+01  0.26262683860E+02  0.10566000000E+00 0.  1.
         14    1    4    4    0    0  0.14731213220E+01  0.83311875233E+00 -0.25228079245E+00  0.17110870472E+01  0.00000000000E+00 0. -1.
<mgrwt>
<rscale>  0 0.82517466E+02</rscale>
<asrwt>0</asrwt>
<pdfrwt beam="1">  1        1 0.47105262E-02 0.82517466E+02</pdfrwt>
<pdfrwt beam="2">  1       -2 0.85533380E-02 0.82517466E+02</pdfrwt>
<totfact> 0.11102414E+05</totfact>
</mgrwt>
</event>
<event>
 8    1  0.8247621E-018  0.8388804E+02  0.7818608E-02  0.1318366E+00
          1   -1    0    0  501    0  0.00000000000E+00  0.00000000000E+00  0.18530855843E+02  0.18530856528E+02  0.50400000000E-02 0. -1.
         -2   -1    0    0    0  501 -0.00000000000E+00 -0.00000000000E+00 -0.94938990438E+02  0.94938990472E+02  0.25500000000E-02 0.  1.
        -24    2    1    2    0    0  0.00000000000E+00 -0.17763568394E-14 -0.76408134595E+02  0.11346984700E+03  0.83888039350E+02 0.  0.
         66    2    3    3    0    0  0.31283121539E+02 -0.13466725330E+02 -0.71283990051E+02  0.79027802844E+02  0.20000000799E+01 0.  0.
         13    1    3    3    0    0 -0.31283121539E+02  0.13466725330E+02 -0.51241445440E+01  0.34442044157E+02  0.10566000000E+00 0. -1.
         13    1    4    4    0    0  0.71553668375E+00 -0.41216852528E+00 -0.17173790136E+01  0.19085152216E+01  0.10566000000E+00 0.  1.
        -13    1    4    4    0    0  0.24517620181E+01 -0.11070175026E+01 -0.46316857178E+01  0.53572662216E+01  0.10566000000E+00 0.  1.
        -14    1    4    4    0    0  0.28115822837E+02 -0.11947539302E+02 -0.64934925320E+02  0.71762021400E+02  0.00000000000E+00 0.  1.
<mgrwt>
<rscale>  0 0.83888039E+02</rscale>
<asrwt>0</asrwt>
<pdfrwt beam="1">  1        1 0.28509010E-02 0.83888039E+02</pdfrwt>
<pdfrwt beam="2">  1       -2 0.14605998E-01 0.83888039E+02</pdfrwt>
<totfact> 0.95190495E+04</totfact>
</mgrwt>
</event>
<event>
 8    1  0.8247621E-018  0.8104888E+02  0.7818608E-02  0.1326101E+00
         -2   -1    0    0    0  501 -0.00000000000E+00  0.00000000000E+00  0.81090574652E+02  0.81090574692E+02  0.25500000000E-02 0.  1.
          1   -1    0    0  501    0  0.00000000000E+00 -0.00000000000E+00 -0.20251801360E+02  0.20251801987E+02  0.50400000000E-02 0. -1.
        -24    2    1    2    0    0  0.00000000000E+00  0.00000000000E+00  0.60838773292E+02  0.10134237668E+03  0.81048880160E+02 0.  0.
         66    2    3    3    0    0 -0.19289995806E+02  0.16123433129E+02  0.70139456003E+02  0.74535980111E+02  0.20000021388E+01 0.  0.
         13    1    3    3    0    0  0.19289995806E+02 -0.16123433129E+02 -0.93006827108E+01  0.26806396569E+02  0.10566000000E+00 0. -1.
         13    1    4    4    0    0 -0.94424461865E+01  0.69567634141E+01  0.31298585667E+02  0.33424077788E+02  0.10566000000E+00 0. -1.
        -13    1    4    4    0    0 -0.58543136199E+01  0.53463904605E+01  0.21784498032E+02  0.23182588239E+02  0.10566000000E+00 0.  1.
         14    1    4    4    0    0 -0.39932360000E+01  0.38202792542E+01  0.17056372305E+02  0.17929314084E+02  0.00000000000E+00 0. -1.
<mgrwt>
<rscale>  0 0.81048880E+02</rscale>
<asrwt>0</asrwt>
<pdfrwt beam="1">  1        1 0.31156618E-02 0.81048880E+02</pdfrwt>
<pdfrwt beam="2">  1       -2 0.12475473E-01 0.81048880E+02</pdfrwt>
<totfact> 0.10779247E+05</totfact>
</mgrwt>
</event>
<event>
 8    1  0.8247621E-018  0.8109768E+02  0.7818608E-02  0.1325965E+00
         -2   -1    0    0    0  501 -0.00000000000E+00  0.00000000000E+00  0.21978455699E+02  0.21978455847E+02  0.25500000000E-02 0.  1.
          1   -1    0    0  501    0  0.00000000000E+00 -0.00000000000E+00 -0.74810008020E+02  0.74810008190E+02  0.50400000000E-02 0. -1.
        -24    2    1    2    0    0  0.00000000000E+00  0.00000000000E+00 -0.52831552321E+02  0.96788464037E+02  0.81097680916E+02 0.  0.
         66    2    3    3    0    0  0.40257680348E+02 -0.46034386962E+01 -0.27118451163E+02  0.48798389959E+02  0.19999985841E+01 0.  0.
         13    1    3    3    0    0 -0.40257680348E+02  0.46034386962E+01 -0.25713101158E+02  0.47990074078E+02  0.10566000000E+00 0. -1.
         13    1    4    4    0    0  0.15976239774E+02 -0.16694544052E+01 -0.97631817694E+01  0.18797824279E+02  0.10566000000E+00 0. -1.
        -13    1    4    4    0    0  0.10872989161E+02 -0.92562486960E+00 -0.76932080071E+01  0.13351976939E+02  0.10566000000E+00 0.  1.
         14    1    4    4    0    0  0.13408451413E+02 -0.20083594214E+01 -0.96620613865E+01  0.16648588742E+02  0.00000000000E+00 0. -1.
<mgrwt>
<rscale>  0 0.81097681E+02</rscale>
<asrwt>0</asrwt>
<pdfrwt beam="1">  1        1 0.11509232E-01 0.81097681E+02</pdfrwt>
<pdfrwt beam="2">  1       -2 0.33813009E-02 0.81097681E+02</pdfrwt>
<totfact> 0.13505269E+05</totfact>
</mgrwt>
</event>
<event>
 8    1  0.8247621E-018  0.8443057E+02  0.7818608E-02  0.1316928E+00
          1   -1    0    0  501    0  0.00000000000E+00  0.00000000000E+00  0.10775234000E+02  0.10775235178E+02  0.50400000000E-02 0. -1.
         -2   -1    0    0    0  501 -0.00000000000E+00 -0.00000000000E+00 -0.16539131510E+03  0.16539131512E+03  0.25500000000E-02 0.  1.
        -24    2    1    2    0    0  0.11102230246E-15  0.00000000000E+00 -0.15461608110E+03  0.17616655030E+03  0.84430568570E+02 0.  0.
         66    2    3    3    0    0  0.84381765247E+00 -0.35411168556E+02 -0.12518065424E+03  0.13011094906E+03  0.19999958164E+01 0.  0.
         13    1    3    3    0    0 -0.84381765247E+00  0.35411168556E+02 -0.29435426861E+02  0.46055601236E+02  0.10566000000E+00 0. -1.
         13    1    4    4    0    0  0.14833751896E+00 -0.34173458445E+01 -0.10801693854E+02  0.11330843340E+02  0.10566000000E+00 0. -1.
        -13    1    4    4    0    0  0.84855126355E+00 -0.22589249554E+02 -0.78705868126E+02  0.81887844495E+02  0.10566000000E+00 0.  1.
        -14    1    4    4    0    0 -0.15307113004E+00 -0.94045731569E+01 -0.35673092260E+02  0.36892261227E+02  0.00000000000E+00 0.  1.
<mgrwt>
<rscale>  0 0.84430569E+02</rscale>
<asrwt>0</asrwt>
<pdfrwt beam="1">  1        1 0.16577285E-02 0.84430569E+02</pdfrwt>
<pdfrwt beam="2">  1       -2 0.25444816E-01 0.84430569E+02</pdfrwt>
<totfact> 0.79551418E+04</totfact>
</mgrwt>
</event>
<event>
 8    1  0.8247621E-018  0.8056203E+02  0.7818608E-02  0.1327464E+00
         -2   -1    0    0    0  501 -0.00000000000E+00  0.00000000000E+00  0.20562835957E+02  0.20562836115E+02  0.25500000000E-02 0.  1.
          1   -1    0    0  501    0  0.00000000000E+00 -0.00000000000E+00 -0.78907404699E+02  0.78907404860E+02  0.50400000000E-02 0. -1.
        -24    2    1    2    0    0 -0.35527136788E-14  0.00000000000E+00 -0.58344568743E+02  0.99470240976E+02  0.80562026650E+02 0.  0.
         66    2    3    3    0    0  0.29089613118E+02  0.13469293070E+02  0.87495425687E+00  0.32130872732E+02  0.19999975979E+01 0.  0.
         13    1    3    3    0    0 -0.29089613118E+02 -0.13469293070E+02 -0.59219522999E+02  0.67339368244E+02  0.10566000000E+00 0. -1.
         13    1    4    4    0    0  0.94014757458E+01  0.49649711765E+01  0.60004101626E-01  0.10632659569E+02  0.10566000000E+00 0. -1.
        -13    1    4    4    0    0  0.15930472014E+02  0.71816508286E+01  0.26493401802E+00  0.17476767473E+02  0.10566000000E+00 0.  1.
        -14    1    4    4    0    0  0.37576653575E+01  0.13226710653E+01  0.55001613723E+00  0.40214456900E+01  0.00000000000E+00 0.  1.
<mgrwt>
<rscale>  0 0.80562027E+02</rscale>
<asrwt>0</asrwt>
<pdfrwt beam="1">  1        1 0.12139601E-01 0.80562027E+02</pdfrwt>
<pdfrwt beam="2">  1       -2 0.31635133E-02 0.80562027E+02</pdfrwt>
<totfact> 0.13870758E+05</totfact>
</mgrwt>
</event>
<event>
 8    1  0.8247621E-018  0.8028767E+02  0.7818608E-02  0.1328237E+00
         -2   -1    0    0    0  501 -0.00000000000E+00  0.00000000000E+00  0.28446036689E+03  0.28446036690E+03  0.25500000000E-02 0.  1.
          1   -1    0    0  501    0  0.00000000000E+00 -0.00000000000E+00 -0.56652077176E+01  0.56652099595E+01  0.50400000000E-02 0. -1.
        -24    2    1    2    0    0  0.88817841970E-15  0.00000000000E+00  0.27879515917E+03  0.29012557686E+03  0.80287667614E+02 0.  0.
         66    2    3    3    0    0 -0.56171299670E+01  0.38852499616E+02  0.16938135871E+03  0.17388247053E+03  0.20000002726E+01 0.  0.
         13    1    3    3    0    0  0.56171299670E+01 -0.38852499616E+02  0.10941380046E+03  0.11624310633E+03  0.10566000000E+00 0. -1.
         13    1    4    4    0    0 -0.29111802063E+01  0.20000523787E+02  0.89941309843E+02  0.92184306160E+02  0.10566000000E+00 0. -1.
        -13    1    4    4    0    0 -0.14435832938E+01  0.11270095620E+02  0.49473825393E+02  0.50761890736E+02  0.10566000000E+00 0.  1.
         14    1    4    4    0    0 -0.12623664669E+01  0.75818802097E+01  0.29966223477E+02  0.30936273629E+02  0.00000000000E+00 0. -1.
<mgrwt>
<rscale>  0 0.80287668E+02</rscale>
<asrwt>0</asrwt>
<pdfrwt beam="1">  1        1 0.87157065E-03 0.80287668E+02</pdfrwt>
<pdfrwt beam="2">  1       -2 0.43763130E-01 0.80287668E+02</pdfrwt>
<totfact> 0.71625727E+04</totfact>
</mgrwt>
</event>
<event>
 8    1  0.8247621E-018  0.8351869E+02  0.7818608E-02  0.1319352E+00
         -2   -1    0    0    0  501 -0.00000000000E+00  0.00000000000E+00  0.56913800507E+03  0.56913800507E+03  0.25500000000E-02 0.  1.
          1   -1    0    0  501    0  0.00000000000E+00 -0.00000000000E+00 -0.30640052658E+01  0.30640094110E+01  0.50400000000E-02 0. -1.
        -24    2    1    2    0    0  0.00000000000E+00 -0.17763568394E-14  0.56607399980E+03  0.57220201448E+03  0.83518693286E+02 0.  0.
         66    2    3    3    0    0 -0.19445255430E+02  0.13776303234E+02  0.51793903994E+03  0.51849084232E+03  0.19999986212E+01 0.  0.
         13    1    3    3    0    0  0.19445255430E+02 -0.13776303234E+02  0.48134959866E+02  0.53711172160E+02  0.10566000000E+00 0. -1.
         13    1    4    4    0    0 -0.79280240490E+01  0.57641996325E+01  0.20777315514E+03  0.20800426612E+03  0.10566000000E+00 0. -1.
        -13    1    4    4    0    0 -0.56614042853E+01  0.42125553815E+01  0.14047016071E+03  0.14064734030E+03  0.10566000000E+00 0.  1.
         14    1    4    4    0    0 -0.58558270955E+01  0.37995482196E+01  0.16969572409E+03  0.16983923590E+03  0.00000000000E+00 0. -1.
<mgrwt>
<rscale>  0 0.83518693E+02</rscale>
<asrwt>0</asrwt>
<pdfrwt beam="1">  1        1 0.47138612E-03 0.83518693E+02</pdfrwt>
<pdfrwt beam="2">  1       -2 0.87559624E-01 0.83518693E+02</pdfrwt>
<totfact> 0.40653850E+04</totfact>
</mgrwt>
</event>
<event>
 8    1  0.8247621E-018  0.8539187E+02  0.7818608E-02  0.1314411E+00
          1   -1    0    0  501    0  0.00000000000E+00  0.00000000000E+00  0.80678086513E+02  0.80678086670E+02  0.50400000000E-02 0. -1.
         -2   -1    0    0    0  501 -0.00000000000E+00 -0.00000000000E+00 -0.22595266109E+02  0.22595266253E+02  0.25500000000E-02 0.  1.
        -24    2    1    2    0    0 -0.71054273576E-14 -0.17763568394E-14  0.58082820403E+02  0.10327335292E+03  0.85391869625E+02 0.  0.
         66    2    3    3    0    0  0.38966081462E+02  0.10682897429E+02  0.12454583939E+02  0.42327254370E+02  0.19999998579E+01 0.  0.
         13    1    3    3    0    0 -0.38966081462E+02 -0.10682897429E+02  0.45628236464E+02  0.60946098553E+02  0.10566000000E+00 0. -1.
         13    1    4    4    0    0  0.13444284643E+02  0.36251187384E+01  0.34318932490E+01  0.14341524701E+02  0.10566000000E+00 0. -1.
        -13    1    4    4    0    0  0.25819521476E+01  0.78007699857E+00  0.70421788130E+00  0.27896386641E+01  0.10566000000E+00 0.  1.
        -14    1    4    4    0    0  0.22939844671E+02  0.62777016924E+01  0.83184728087E+01  0.25196091005E+02  0.00000000000E+00 0.  1.
<mgrwt>
<rscale>  0 0.85391870E+02</rscale>
<asrwt>0</asrwt>
<pdfrwt beam="1">  1        1 0.12412013E-01 0.85391870E+02</pdfrwt>
<pdfrwt beam="2">  1       -2 0.34761948E-02 0.85391870E+02</pdfrwt>
<totfact> 0.11869893E+05</totfact>
</mgrwt>
</event>
<event>
 8    1  0.8247621E-018  0.8030897E+02  0.7818608E-02  0.1328177E+00
         -2   -1    0    0    0  501 -0.00000000000E+00  0.00000000000E+00  0.12876016152E+04  0.12876016152E+04  0.25500000000E-02 0.  1.
          1   -1    0    0  501    0  0.00000000000E+00 -0.00000000000E+00 -0.12522322705E+01  0.12522424130E+01  0.50400000000E-02 0. -1.
        -24    2    1    2    0    0  0.00000000000E+00  0.00000000000E+00  0.12863493829E+04  0.12888538576E+04  0.80308974140E+02 0.  0.
         66    2    3    3    0    0  0.17838743055E+02  0.62524839665E+01  0.12116742516E+04  0.12118233395E+04  0.19999977713E+01 0.  0.
         13    1    3    3    0    0 -0.17838743055E+02 -0.62524839665E+01  0.74675131334E+02  0.77030518065E+02  0.10566000000E+00 0. -1.
         13    1    4    4    0    0  0.67942076680E+01  0.17835228530E+01  0.41948526402E+03  0.41954408601E+03  0.10566000000E+00 0. -1.
        -13    1    4    4    0    0  0.71215669475E+01  0.33392733572E+01  0.50551769550E+03  0.50557889502E+03  0.10566000000E+00 0.  1.
         14    1    4    4    0    0  0.39229684397E+01  0.11296877563E+01  0.28667129205E+03  0.28670035850E+03  0.00000000000E+00 0. -1.
<mgrwt>
<rscale>  0 0.80308974E+02</rscale>
<asrwt>0</asrwt>
<pdfrwt beam="1">  1        1 0.19265165E-03 0.80308974E+02</pdfrwt>
<pdfrwt beam="2">  1       -2 0.19809282E+00 0.80308974E+02</pdfrwt>
<totfact> 0.18643386E+04</totfact>
</mgrwt>
</event>
<event>
 8    1  0.8247621E-018  0.7898185E+02  0.7818608E-02  0.1331966E+00
         -2   -1    0    0    0  501 -0.00000000000E+00  0.00000000000E+00  0.12198519055E+02  0.12198519321E+02  0.25500000000E-02 0.  1.
          1   -1    0    0  501    0  0.00000000000E+00 -0.00000000000E+00 -0.12784610674E+03  0.12784610684E+03  0.50400000000E-02 0. -1.
        -24    2    1    2    0    0  0.00000000000E+00  0.00000000000E+00 -0.11564758768E+03  0.14004462616E+03  0.78981850946E+02 0.  0.
         66    2    3    3    0    0 -0.15396189086E+02  0.24568963016E+02 -0.10386990494E+02  0.30863670554E+02  0.20000016327E+01 0.  0.
         13    1    3    3    0    0  0.15396189086E+02 -0.24568963016E+02 -0.10526059719E+03  0.10918095560E+03  0.10566000000E+00 0. -1.
         13    1    4    4    0    0 -0.98737160775E+01  0.15748958301E+02 -0.66684245946E+01  0.19748392526E+02  0.10566000000E+00 0. -1.
        -13    1    4    4    0    0 -0.35352038202E+01  0.45344372283E+01 -0.20030612953E+01  0.60895160412E+01  0.10566000000E+00 0.  1.
         14    1    4    4    0    0 -0.19872691884E+01  0.42855674861E+01 -0.17155046045E+01  0.50257619873E+01  0.00000000000E+00 0. -1.
<mgrwt>
<rscale>  0 0.78981851E+02</rscale>
<asrwt>0</asrwt>
<pdfrwt beam="1">  1        1 0.19668631E-01 0.78981851E+02</pdfrwt>
<pdfrwt beam="2">  1       -2 0.18766954E-02 0.78981851E+02</pdfrwt>
<totfact> 0.15873037E+05</totfact>
</mgrwt>
</event>
<event>
 8    1  0.8247621E-018  0.8012918E+02  0.7818608E-02  0.1328685E+00
         -2   -1    0    0    0  501 -0.00000000000E+00  0.00000000000E+00  0.20785001064E+02  0.20785001221E+02  0.25500000000E-02 0.  1.
          1   -1    0    0  501    0  0.00000000000E+00 -0.00000000000E+00 -0.77227384672E+02  0.77227384836E+02  0.50400000000E-02 0. -1.
        -24    2    1    2    0    0  0.00000000000E+00  0.17763568394E-14 -0.56442383608E+02  0.98012386057E+02  0.80129177914E+02 0.  0.
         66    2    3    3    0    0 -0.14427679544E+02 -0.11817572567E+02  0.15099715499E+02  0.24079334808E+02  0.19999995550E+01 0.  0.
         13    1    3    3    0    0  0.14427679544E+02  0.11817572567E+02 -0.71542099107E+02  0.73933051249E+02  0.10566000000E+00 0. -1.
         13    1    4    4    0    0 -0.87800145932E+00 -0.37165774132E+00  0.11328986329E+01  0.14844660277E+01  0.10566000000E+00 0. -1.
        -13    1    4    4    0    0 -0.22019007793E+01 -0.22557422578E+01  0.26800525787E+01  0.41389112138E+01  0.10566000000E+00 0.  1.
         14    1    4    4    0    0 -0.11347777305E+02 -0.91901725680E+01  0.11286764287E+02  0.18455957566E+02  0.00000000000E+00 0. -1.
<mgrwt>
<rscale>  0 0.80129178E+02</rscale>
<asrwt>0</asrwt>
<pdfrwt beam="1">  1        1 0.11881136E-01 0.80129178E+02</pdfrwt>
<pdfrwt beam="2">  1       -2 0.31976925E-02 0.80129178E+02</pdfrwt>
<totfact> 0.14027446E+05</totfact>
</mgrwt>
</event>
<event>
 8    1  0.8247621E-018  0.7911517E+02  0.7818608E-02  0.1331581E+00
          1   -1    0    0  501    0  0.00000000000E+00  0.00000000000E+00  0.44078918215E+01  0.44078947029E+01  0.50400000000E-02 0. -1.
         -2   -1    0    0    0  501 -0.00000000000E+00 -0.00000000000E+00 -0.35500008897E+03  0.35500008898E+03  0.25500000000E-02 0.  1.
        -24    2    1    2    0    0  0.00000000000E+00  0.35527136788E-14 -0.35059219715E+03  0.35940798368E+03  0.79115169424E+02 0.  0.
         66    2    3    3    0    0 -0.11937041140E+02 -0.26867590436E+02 -0.29546595766E+03  0.29693179772E+03  0.19999999607E+01 0.  0.
         13    1    3    3    0    0  0.11937041140E+02  0.26867590436E+02 -0.55126239490E+02  0.62476185954E+02  0.10566000000E+00 0. -1.
         13    1    4    4    0    0 -0.21712840957E+01 -0.61823248183E+01 -0.62143152376E+02  0.62487744127E+02  0.10566000000E+00 0. -1.
        -13    1    4    4    0    0 -0.13481355950E+01 -0.33087748845E+01 -0.33098433138E+02  0.33290883152E+02  0.10566000000E+00 0.  1.
         14    1    4    4    0    0 -0.84176214490E+01 -0.17376490734E+02 -0.20022437214E+03  0.20115317045E+03  0.00000000000E+00 0. -1.
<mgrwt>
<rscale>  0 0.79115169E+02</rscale>
<asrwt>0</asrwt>
<pdfrwt beam="1">  1        1 0.67813771E-03 0.79115169E+02</pdfrwt>
<pdfrwt beam="2">  1       -2 0.54615376E-01 0.79115169E+02</pdfrwt>
<totfact> 0.65619765E+04</totfact>
</mgrwt>
</event>
<event>
 8    1  0.8247621E-018  0.7804739E+02  0.7818608E-02  0.1334686E+00
          1   -1    0    0  501    0  0.00000000000E+00  0.00000000000E+00  0.99726350630E+01  0.99726363366E+01  0.50400000000E-02 0. -1.
         -2   -1    0    0    0  501 -0.00000000000E+00 -0.00000000000E+00 -0.15270272596E+03  0.15270272598E+03  0.25500000000E-02 0.  1.
        -24    2    1    2    0    0 -0.35527136788E-14  0.35527136788E-14 -0.14273009090E+03  0.16267536232E+03  0.78047387259E+02 0.  0.
         66    2    3    3    0    0  0.22071519867E+02 -0.24246011941E+02 -0.27402475718E+02  0.42777526344E+02  0.20000000869E+01 0.  0.
         13    1    3    3    0    0 -0.22071519867E+02  0.24246011941E+02 -0.11532761518E+03  0.11989783598E+03  0.10566000000E+00 0. -1.
         13    1    4    4    0    0  0.39569326931E+01 -0.49510086335E+01 -0.60390027326E+01  0.87550283190E+01  0.10566000000E+00 0. -1.
        -13    1    4    4    0    0  0.34592905321E+01 -0.40427754735E+01 -0.40307038945E+01  0.66759615364E+01  0.10566000000E+00 0.  1.
         14    1    4    4    0    0  0.14655296642E+02 -0.15252227834E+02 -0.17332769090E+02  0.27346536488E+02  0.00000000000E+00 0. -1.
<mgrwt>
<rscale>  0 0.78047387E+02</rscale>
<asrwt>0</asrwt>
<pdfrwt beam="1">  1        1 0.15342518E-02 0.78047387E+02</pdfrwt>
<pdfrwt beam="2">  1       -2 0.23492725E-01 0.78047387E+02</pdfrwt>
<totfact> 0.10011970E+05</totfact>
</mgrwt>
</event>
<event>
 8    1  0.8247621E-018  0.8008059E+02  0.7818608E-02  0.1328823E+00
          1   -1    0    0  501    0  0.00000000000E+00  0.00000000000E+00  0.84277653784E+02  0.84277653934E+02  0.50400000000E-02 0. -1.
         -2   -1    0    0    0  501 -0.00000000000E+00 -0.00000000000E+00 -0.19023134650E+02  0.19023134821E+02  0.25500000000E-02 0.  1.
        -24    2    1    2    0    0  0.71054273576E-14  0.00000000000E+00  0.65254519134E+02  0.10330078876E+03  0.80080588723E+02 0.  0.
         66    2    3    3    0    0 -0.28210537215E+02 -0.17966175846E+02  0.43094301241E+01  0.33781489831E+02  0.19999956847E+01 0.  0.
         13    1    3    3    0    0  0.28210537215E+02  0.17966175846E+02  0.60945089010E+02  0.69519298924E+02  0.10566000000E+00 0. -1.
         13    1    4    4    0    0 -0.78548817517E+01 -0.56709480335E+01  0.15959851591E+01  0.98192235740E+01  0.10566000000E+00 0. -1.
        -13    1    4    4    0    0 -0.11885421334E+02 -0.75475173146E+01  0.20673211861E+01  0.14230714628E+02  0.10566000000E+00 0.  1.
         14    1    4    4    0    0 -0.84702341293E+01 -0.47477104979E+01  0.64612377890E+00  0.97315516293E+01  0.00000000000E+00 0. -1.
<mgrwt>
<rscale>  0 0.80080589E+02</rscale>
<asrwt>0</asrwt>
<pdfrwt beam="1">  1        1 0.12965793E-01 0.80080589E+02</pdfrwt>
<pdfrwt beam="2">  1       -2 0.29266362E-02 0.80080589E+02</pdfrwt>
<totfact> 0.14250287E+05</totfact>
</mgrwt>
</event>
<event>
 8    1  0.8247621E-018  0.7767583E+02  0.7818608E-02  0.1335780E+00
         -2   -1    0    0    0  501 -0.00000000000E+00  0.00000000000E+00  0.11061204946E+02  0.11061205240E+02  0.25500000000E-02 0.  1.
          1   -1    0    0  501    0  0.00000000000E+00 -0.00000000000E+00 -0.13636703655E+03  0.13636703665E+03  0.50400000000E-02 0. -1.
        -24    2    1    2    0    0 -0.71054273576E-14 -0.88817841970E-15 -0.12530583161E+03  0.14742824189E+03  0.77675833250E+02 0.  0.
         66    2    3    3    0    0 -0.34290194883E+02 -0.70220291040E+01 -0.30863873453E+02  0.46708725497E+02  0.19999987818E+01 0.  0.
         13    1    3    3    0    0  0.34290194883E+02  0.70220291040E+01 -0.94441958154E+02  0.10071951639E+03  0.10566000000E+00 0. -1.
         13    1    4    4    0    0 -0.23668908546E+01 -0.17913996974E+00 -0.20591662732E+01  0.31441363238E+01  0.10566000000E+00 0. -1.
        -13    1    4    4    0    0 -0.31137011618E+02 -0.69039550909E+01 -0.28065672554E+02  0.42483776060E+02  0.10566000000E+00 0.  1.
        -14    1    4    4    0    0 -0.78629241066E+00  0.61065956605E-01 -0.73903462604E+00  0.10808131127E+01  0.00000000000E+00 0.  1.
<mgrwt>
<rscale>  0 0.77675833E+02</rscale>
<asrwt>0</asrwt>
<pdfrwt beam="1">  1        1 0.20979543E-01 0.77675833E+02</pdfrwt>
<pdfrwt beam="2">  1       -2 0.17017240E-02 0.77675833E+02</pdfrwt>
<totfact> 0.16788515E+05</totfact>
</mgrwt>
</event>
<event>
 8    1  0.8247621E-018  0.8350294E+02  0.7818608E-02  0.1319395E+00
          1   -1    0    0  501    0  0.00000000000E+00  0.00000000000E+00  0.15345219884E+03  0.15345219892E+03  0.50400000000E-02 0. -1.
         -2   -1    0    0    0  501 -0.00000000000E+00 -0.00000000000E+00 -0.11359792855E+02  0.11359793141E+02  0.25500000000E-02 0.  1.
        -24    2    1    2    0    0  0.00000000000E+00  0.35527136788E-14  0.14209240598E+03  0.16481199206E+03  0.83502939403E+02 0.  0.
         66    2    3    3    0    0  0.12334794368E+02  0.22371765969E+02  0.59677032182E+01  0.26310768487E+02  0.19999980028E+01 0.  0.
         13    1    3    3    0    0 -0.12334794368E+02 -0.22371765969E+02  0.13612470276E+03  0.13850122357E+03  0.10566000000E+00 0. -1.
         13    1    4    4    0    0  0.22254111567E+01  0.56477436228E+01  0.11466831837E+01  0.61786332796E+01  0.10566000000E+00 0. -1.
        -13    1    4    4    0    0  0.53237579999E+01  0.91761341453E+01  0.26300962344E+01  0.10930343422E+02  0.10566000000E+00 0.  1.
         14    1    4    4    0    0  0.47856252117E+01  0.75478882006E+01  0.21909238002E+01  0.92017917849E+01  0.00000000000E+00 0. -1.
<mgrwt>
<rscale>  0 0.83502939E+02</rscale>
<asrwt>0</asrwt>
<pdfrwt beam="1">  1        1 0.23608029E-01 0.83502939E+02</pdfrwt>
<pdfrwt beam="2">  1       -2 0.17476606E-02 0.83502939E+02</pdfrwt>
<totfact> 0.14136313E+05</totfact>
</mgrwt>
</event>
<event>
 8    1  0.8247621E-018  0.7986626E+02  0.7818608E-02  0.1329431E+00
         -2   -1    0    0    0  501 -0.00000000000E+00  0.00000000000E+00  0.94362103720E+02  0.94362103754E+02  0.25500000000E-02 0.  1.
          1   -1    0    0  501    0  0.00000000000E+00 -0.00000000000E+00 -0.16899314854E+02  0.16899315606E+02  0.50400000000E-02 0. -1.
        -24    2    1    2    0    0 -0.35527136788E-14  0.00000000000E+00  0.77462788866E+02  0.11126141936E+03  0.79866261834E+02 0.  0.
         66    2    3    3    0    0 -0.19385731454E+02 -0.21943224760E+02  0.76532385514E+02  0.81966564671E+02  0.19999986726E+01 0.  0.
         13    1    3    3    0    0  0.19385731454E+02  0.21943224760E+02  0.93040335185E+00  0.29294854689E+02  0.10566000000E+00 0. -1.
         13    1    4    4    0    0 -0.62802206793E+01 -0.78818954906E+01  0.28173248546E+02  0.29921706936E+02  0.10566000000E+00 0. -1.
        -13    1    4    4    0    0 -0.10281561166E+02 -0.11409225806E+02  0.38179298674E+02  0.41152775663E+02  0.10566000000E+00 0.  1.
        -14    1    4    4    0    0 -0.28239496086E+01 -0.26521034627E+01  0.10179838294E+02  0.10892082072E+02  0.00000000000E+00 0.  1.
<mgrwt>
<rscale>  0 0.79866262E+02</rscale>
<asrwt>0</asrwt>
<pdfrwt beam="1">  1        1 0.25998947E-02 0.79866262E+02</pdfrwt>
<pdfrwt beam="2">  1       -2 0.14517247E-01 0.79866262E+02</pdfrwt>
<totfact> 0.10810138E+05</totfact>
</mgrwt>
</event>
<event>
 8    1  0.8247621E-018  0.8233275E+02  0.7818608E-02  0.1322559E+00
         -2   -1    0    0    0  501 -0.00000000000E+00  0.00000000000E+00  0.28634422014E+02  0.28634422127E+02  0.25500000000E-02 0.  1.
          1   -1    0    0  501    0  0.00000000000E+00 -0.00000000000E+00 -0.59182977473E+02  0.59182977687E+02  0.50400000000E-02 0. -1.
        -24    2    1    2    0    0  0.35527136788E-14 -0.35527136788E-14 -0.30548555459E+02  0.87817399815E+02  0.82332748464E+02 0.  0.
         66    2    3    3    0    0  0.25627490460E+02 -0.19996023200E+02  0.11616945585E+02  0.34576909082E+02  0.20000014617E+01 0.  0.
         13    1    3    3    0    0 -0.25627490460E+02  0.19996023200E+02 -0.42165501044E+02  0.53240490733E+02  0.10566000000E+00 0. -1.
         13    1    4    4    0    0  0.39354566032E+01 -0.28471549130E+01  0.21585164858E+01  0.53164336947E+01  0.10566000000E+00 0. -1.
        -13    1    4    4    0    0  0.20915138631E+02 -0.16768685227E+02  0.89773607977E+01  0.28270762266E+02  0.10566000000E+00 0.  1.
        -14    1    4    4    0    0  0.77689522579E+00 -0.38018305997E+00  0.48106830183E+00  0.98971312104E+00  0.00000000000E+00 0.  1.
<mgrwt>
<rscale>  0 0.82332748E+02</rscale>
<asrwt>0</asrwt>
<pdfrwt beam="1">  1        1 0.91050735E-02 0.82332748E+02</pdfrwt>
<pdfrwt beam="2">  1       -2 0.44052957E-02 0.82332748E+02</pdfrwt>
<totfact> 0.12477423E+05</totfact>
</mgrwt>
</event>
<event>
 8    1  0.8247621E-018  0.7906378E+02  0.7818608E-02  0.1331729E+00
         -2   -1    0    0    0  501 -0.00000000000E+00  0.00000000000E+00  0.22281027676E+02  0.22281027822E+02  0.25500000000E-02 0.  1.
          1   -1    0    0  501    0  0.00000000000E+00 -0.00000000000E+00 -0.70139065184E+02  0.70139065365E+02  0.50400000000E-02 0. -1.
        -24    2    1    2    0    0 -0.35527136788E-14  0.00000000000E+00 -0.47858037508E+02  0.92420093188E+02  0.79063783559E+02 0.  0.
         66    2    3    3    0    0  0.22761293717E+02  0.59877817731E+01  0.13146671599E+02  0.27032665348E+02  0.19999998585E+01 0.  0.
         13    1    3    3    0    0 -0.22761293717E+02 -0.59877817731E+01 -0.61004709107E+02  0.65387427840E+02  0.10566000000E+00 0. -1.
         13    1    4    4    0    0  0.43332021930E+01  0.68675905119E+00  0.22761991950E+01  0.49437360418E+01  0.10566000000E+00 0. -1.
        -13    1    4    4    0    0  0.12774880034E+02  0.30549303467E+01  0.70895219024E+01  0.14926575098E+02  0.10566000000E+00 0.  1.
         14    1    4    4    0    0  0.56532114900E+01  0.22460923752E+01  0.37809505015E+01  0.71623542082E+01  0.00000000000E+00 0. -1.
<mgrwt>
<rscale>  0 0.79063784E+02</rscale>
<asrwt>0</asrwt>
<pdfrwt beam="1">  1        1 0.10790625E-01 0.79063784E+02</pdfrwt>
<pdfrwt beam="2">  1       -2 0.34278504E-02 0.79063784E+02</pdfrwt>
<totfact> 0.14329050E+05</totfact>
</mgrwt>
</event>
<event>
 8    1  0.8247621E-018  0.8455551E+02  0.7818608E-02  0.1316599E+00
         -2   -1    0    0    0  501 -0.00000000000E+00  0.00000000000E+00  0.43623852821E+03  0.43623852821E+03  0.25500000000E-02 0.  1.
          1   -1    0    0  501    0  0.00000000000E+00 -0.00000000000E+00 -0.40973180540E+01  0.40973211538E+01  0.50400000000E-02 0. -1.
        -24    2    1    2    0    0  0.00000000000E+00  0.00000000000E+00  0.43214121015E+03  0.44033584937E+03  0.84555512690E+02 0.  0.
         66    2    3    3    0    0 -0.17453746892E+02  0.13486603237E+01  0.41646262088E+03  0.41683517936E+03  0.19999992235E+01 0.  0.
         13    1    3    3    0    0  0.17453746892E+02 -0.13486603237E+01  0.15678589275E+02  0.23500670010E+02  0.10566000000E+00 0. -1.
         13    1    4    4    0    0 -0.69739982480E+01  0.34055946180E+00  0.15713657022E+03  0.15729165743E+03  0.10566000000E+00 0. -1.
        -13    1    4    4    0    0 -0.10255186136E+02  0.11768197578E+01  0.24951812901E+03  0.24973157914E+03  0.10566000000E+00 0.  1.
         14    1    4    4    0    0 -0.22456250809E+00 -0.16871889596E+00  0.98079216442E+01  0.98119427925E+01  0.00000000000E+00 0. -1.
<mgrwt>
<rscale>  0 0.84555513E+02</rscale>
<asrwt>0</asrwt>
<pdfrwt beam="1">  1        1 0.63035704E-03 0.84555513E+02</pdfrwt>
<pdfrwt beam="2">  1       -2 0.67113601E-01 0.84555513E+02</pdfrwt>
<totfact> 0.48256628E+04</totfact>
</mgrwt>
</event>
<event>
 8    1  0.8247621E-018  0.8408077E+02  0.7818608E-02  0.1317854E+00
         -2   -1    0    0    0  501 -0.00000000000E+00  0.00000000000E+00  0.72430141518E+02  0.72430141563E+02  0.25500000000E-02 0.  1.
          1   -1    0    0  501    0  0.00000000000E+00 -0.00000000000E+00 -0.24401358511E+02  0.24401359031E+02  0.50400000000E-02 0. -1.
        -24    2    1    2    0    0  0.00000000000E+00  0.00000000000E+00  0.48028783007E+02  0.96831500594E+02  0.84080767779E+02 0.  0.
         66    2    3    3    0    0  0.16642202265E+01 -0.22242695314E+02  0.65035070250E+02  0.68782755638E+02  0.19999967391E+01 0.  0.
         13    1    3    3    0    0 -0.16642202265E+01  0.22242695314E+02 -0.17006287243E+02  0.28048744956E+02  0.10566000000E+00 0. -1.
         13    1    4    4    0    0  0.18879031524E+01 -0.21187393582E+02  0.61142845504E+02  0.64737381361E+02  0.10566000000E+00 0. -1.
        -13    1    4    4    0    0 -0.23321818337E-01 -0.26990209941E+00  0.11136977466E+01  0.11510333430E+01  0.10566000000E+00 0.  1.
         14    1    4    4    0    0 -0.20036110751E+00 -0.78539963223E+00  0.27785269996E+01  0.28943409342E+01  0.00000000000E+00 0. -1.
<mgrwt>
<rscale>  0 0.84080768E+02</rscale>
<asrwt>0</asrwt>
<pdfrwt beam="1">  1        1 0.37540552E-02 0.84080768E+02</pdfrwt>
<pdfrwt beam="2">  1       -2 0.11143099E-01 0.84080768E+02</pdfrwt>
<totfact> 0.10055348E+05</totfact>
</mgrwt>
</event>
<event>
 8    1  0.8247621E-018  0.8048722E+02  0.7818608E-02  0.1327674E+00
         -2   -1    0    0    0  501 -0.00000000000E+00  0.00000000000E+00  0.66022319158E+01  0.66022324083E+01  0.25500000000E-02 0.  1.
          1   -1    0    0  501    0  0.00000000000E+00 -0.00000000000E+00 -0.24530314057E+03  0.24530314063E+03  0.50400000000E-02 0. -1.
        -24    2    1    2    0    0  0.00000000000E+00  0.71054273576E-14 -0.23870090866E+03  0.25190537303E+03  0.80487223639E+02 0.  0.
         66    2    3    3    0    0 -0.26742768305E+01 -0.39788033117E+02 -0.10306996080E+03  0.11053350696E+03  0.20000015176E+01 0.  0.
         13    1    3    3    0    0  0.26742768305E+01  0.39788033117E+02 -0.13563094786E+03  0.14137186607E+03  0.10566000000E+00 0. -1.
         13    1    4    4    0    0 -0.95032388659E+00 -0.95230756125E+01 -0.23709331297E+02  0.25568254520E+02  0.10566000000E+00 0. -1.
        -13    1    4    4    0    0 -0.15951492291E+01 -0.17865053555E+02 -0.45806025673E+02  0.49192558295E+02  0.10566000000E+00 0.  1.
         14    1    4    4    0    0 -0.12880371483E+00 -0.12399903949E+02 -0.33554603833E+02  0.35772694149E+02  0.00000000000E+00 0. -1.
<mgrwt>
<rscale>  0 0.80487224E+02</rscale>
<asrwt>0</asrwt>
<pdfrwt beam="1">  1        1 0.37738938E-01 0.80487224E+02</pdfrwt>
<pdfrwt beam="2">  1       -2 0.10157282E-02 0.80487224E+02</pdfrwt>
<totfact> 0.17074522E+05</totfact>
</mgrwt>
</event>
<event>
 8    1  0.8247621E-018  0.8032193E+02  0.7818608E-02  0.1328140E+00
          1   -1    0    0  501    0  0.00000000000E+00  0.00000000000E+00  0.44103016245E+03  0.44103016248E+03  0.50400000000E-02 0. -1.
         -2   -1    0    0    0  501 -0.00000000000E+00 -0.00000000000E+00 -0.36571259053E+01  0.36571267943E+01  0.25500000000E-02 0.  1.
        -24    2    1    2    0    0  0.00000000000E+00  0.00000000000E+00  0.43737303654E+03  0.44468728927E+03  0.80321928169E+02 0.  0.
         66    2    3    3    0    0  0.11136551126E+02  0.38406987698E+02  0.19982112516E+03  0.20379303604E+03  0.20000006400E+01 0.  0.
         13    1    3    3    0    0 -0.11136551126E+02 -0.38406987698E+02  0.23755191138E+03  0.24089425323E+03  0.10566000000E+00 0. -1.
         13    1    4    4    0    0  0.15357791253E+00  0.25438591099E+00  0.12240599179E+01  0.12640352389E+01  0.10566000000E+00 0. -1.
        -13    1    4    4    0    0  0.74955008932E+01  0.27419701192E+02  0.14323450066E+03  0.14602792846E+03  0.10566000000E+00 0.  1.
         14    1    4    4    0    0  0.34874723200E+01  0.10732900594E+02  0.55362564588E+02  0.56501072344E+02  0.00000000000E+00 0. -1.
<mgrwt>
<rscale>  0 0.80321928E+02</rscale>
<asrwt>0</asrwt>
<pdfrwt beam="1">  1        1 0.67850778E-01 0.80321928E+02</pdfrwt>
<pdfrwt beam="2">  1       -2 0.56263496E-03 0.80321928E+02</pdfrwt>
<totfact> 0.19081806E+05</totfact>
</mgrwt>
</event>
<event>
 8    1  0.8247621E-018  0.7795460E+02  0.7818608E-02  0.1334958E+00
          1   -1    0    0  501    0  0.00000000000E+00  0.00000000000E+00  0.25271354100E+02  0.25271354603E+02  0.50400000000E-02 0. -1.
         -2   -1    0    0    0  501 -0.00000000000E+00 -0.00000000000E+00 -0.60116684243E+02  0.60116684298E+02  0.25500000000E-02 0.  1.
        -24    2    1    2    0    0  0.22204460493E-15  0.00000000000E+00 -0.34845330143E+02  0.85388038900E+02  0.77954603164E+02 0.  0.
         66    2    3    3    0    0  0.16469014817E+01 -0.26480965915E+02  0.13803162937E+02  0.29974675140E+02  0.20000006081E+01 0.  0.
         13    1    3    3    0    0 -0.16469014817E+01  0.26480965915E+02 -0.48648493080E+02  0.55413363760E+02  0.10566000000E+00 0. -1.
         13    1    4    4    0    0  0.21972788560E+00 -0.30596957660E+01  0.93788257450E+00  0.32094869190E+01  0.10566000000E+00 0. -1.
        -13    1    4    4    0    0  0.73067699909E+00 -0.14113893821E+02  0.79840751902E+01  0.16232452321E+02  0.10566000000E+00 0.  1.
        -14    1    4    4    0    0  0.69649659696E+00 -0.93073763279E+01  0.48812051720E+01  0.10532735901E+02  0.00000000000E+00 0.  1.
<mgrwt>
<rscale>  0 0.77954603E+02</rscale>
<asrwt>0</asrwt>
<pdfrwt beam="1">  1        1 0.38879007E-02 0.77954603E+02</pdfrwt>
<pdfrwt beam="2">  1       -2 0.92487207E-02 0.77954603E+02</pdfrwt>
<totfact> 0.12635726E+05</totfact>
</mgrwt>
</event>
<event>
 8    1  0.8247621E-018  0.8012460E+02  0.7818608E-02  0.1328698E+00
         -2   -1    0    0    0  501 -0.00000000000E+00  0.00000000000E+00  0.26608471751E+02  0.26608471874E+02  0.25500000000E-02 0.  1.
          1   -1    0    0  501    0  0.00000000000E+00 -0.00000000000E+00 -0.60318676590E+02  0.60318676800E+02  0.50400000000E-02 0. -1.
        -24    2    1    2    0    0 -0.71054273576E-14 -0.17763568394E-14 -0.33710204838E+02  0.86927148674E+02  0.80124598385E+02 0.  0.
         66    2    3    3    0    0 -0.39112511456E+02 -0.85233702010E+01 -0.17667564316E+02  0.43801589304E+02  0.20000011658E+01 0.  0.
         13    1    3    3    0    0  0.39112511456E+02  0.85233702010E+01 -0.16042640522E+02  0.43125559370E+02  0.10566000000E+00 0. -1.
         13    1    4    4    0    0 -0.48945612041E+01 -0.76653012346E+00 -0.17842351141E+01  0.52667785969E+01  0.10566000000E+00 0. -1.
        -13    1    4    4    0    0 -0.44419155142E+01 -0.14189440999E+01 -0.19779480031E+01  0.50663061626E+01  0.10566000000E+00 0.  1.
        -14    1    4    4    0    0 -0.29776034738E+02 -0.63378959776E+01 -0.13905381199E+02  0.33468504544E+02  0.00000000000E+00 0.  1.
<mgrwt>
<rscale>  0 0.80124598E+02</rscale>
<asrwt>0</asrwt>
<pdfrwt beam="1">  1        1 0.92797964E-02 0.80124598E+02</pdfrwt>
<pdfrwt beam="2">  1       -2 0.40936111E-02 0.80124598E+02</pdfrwt>
<totfact> 0.13491703E+05</totfact>
</mgrwt>
</event>
<event>
 8    1  0.8247621E-018  0.8222536E+02  0.7818608E-02  0.1322852E+00
         -2   -1    0    0    0  501 -0.00000000000E+00  0.00000000000E+00  0.64461675732E+01  0.64461680775E+01  0.25500000000E-02 0.  1.
          1   -1    0    0  501    0  0.00000000000E+00 -0.00000000000E+00 -0.26221043304E+03  0.26221043308E+03  0.50400000000E-02 0. -1.
        -24    2    1    2    0    0  0.00000000000E+00  0.00000000000E+00 -0.25576426546E+03  0.26865660116E+03  0.82225360201E+02 0.  0.
         66    2    3    3    0    0 -0.25140003275E+02  0.29743150417E+02 -0.85160332661E+02  0.93664064713E+02  0.19999995571E+01 0.  0.
         13    1    3    3    0    0  0.25140003275E+02 -0.29743150417E+02 -0.17060393280E+03  0.17499253645E+03  0.10566000000E+00 0. -1.
         13    1    4    4    0    0 -0.28573991339E+01  0.39685406922E+01 -0.10522653414E+02  0.11603940880E+02  0.10566000000E+00 0. -1.
        -13    1    4    4    0    0 -0.19340550328E+02  0.22916068111E+02 -0.64838962921E+02  0.71437422556E+02  0.10566000000E+00 0.  1.
        -14    1    4    4    0    0 -0.29420538132E+01  0.28585416130E+01 -0.97987163255E+01  0.10622701277E+02  0.00000000000E+00 0.  1.
<mgrwt>
<rscale>  0 0.82225360E+02</rscale>
<asrwt>0</asrwt>
<pdfrwt beam="1">  1        1 0.40340059E-01 0.82225360E+02</pdfrwt>
<pdfrwt beam="2">  1       -2 0.99171833E-03 0.82225360E+02</pdfrwt>
<totfact> 0.16347201E+05</totfact>
</mgrwt>
</event>
<event>
 8    1  0.8247621E-018  0.7981008E+02  0.7818608E-02  0.1329591E+00
          1   -1    0    0  501    0  0.00000000000E+00  0.00000000000E+00  0.71476805191E+02  0.71476805369E+02  0.50400000000E-02 0. -1.
         -2   -1    0    0    0  501 -0.00000000000E+00 -0.00000000000E+00 -0.22278727047E+02  0.22278727193E+02  0.25500000000E-02 0.  1.
        -24    2    1    2    0    0  0.00000000000E+00  0.00000000000E+00  0.49198078144E+02  0.93755532562E+02  0.79810080773E+02 0.  0.
         66    2    3    3    0    0  0.21297317195E+02  0.14716003411E+02 -0.11022215161E+02  0.28206837946E+02  0.20000009327E+01 0.  0.
         13    1    3    3    0    0 -0.21297317195E+02 -0.14716003411E+02  0.60220293305E+02  0.65548694616E+02  0.10566000000E+00 0. -1.
         13    1    4    4    0    0  0.14543085489E+02  0.10062795542E+02 -0.81858049197E+01  0.19487938728E+02  0.10566000000E+00 0.  1.
        -13    1    4    4    0    0  0.62933504717E+01  0.45226425919E+01 -0.25427883992E+01  0.81570517378E+01  0.10566000000E+00 0. -1.
         14    1    4    4    0    0  0.46088123475E+00  0.13056527668E+00 -0.29362184253E+00  0.56184747969E+00  0.00000000000E+00 0. -1.
<mgrwt>
<rscale>  0 0.79810081E+02</rscale>
<asrwt>0</asrwt>
<pdfrwt beam="1">  1        1 0.10996431E-01 0.79810081E+02</pdfrwt>
<pdfrwt beam="2">  1       -2 0.34274966E-02 0.79810081E+02</pdfrwt>
<totfact> 0.14007360E+05</totfact>
</mgrwt>
</event>
<event>
 8    1  0.8247621E-018  0.8784996E+02  0.7818608E-02  0.1308143E+00
         -2   -1    0    0    0  501 -0.00000000000E+00  0.00000000000E+00  0.24874767320E+03  0.24874767321E+03  0.25500000000E-02 0.  1.
          1   -1    0    0  501    0  0.00000000000E+00 -0.00000000000E+00 -0.77564683641E+01  0.77564700016E+01  0.50400000000E-02 0. -1.
        -24    2    1    2    0    0  0.17763568394E-14  0.00000000000E+00  0.24099120483E+03  0.25650414321E+03  0.87849955481E+02 0.  0.
         66    2    3    3    0    0 -0.99188790199E+01 -0.10722352996E+02  0.24144054454E+03  0.24189024281E+03  0.20000016773E+01 0.  0.
         13    1    3    3    0    0  0.99188790199E+01  0.10722352996E+02 -0.44933970041E+00  0.14613900403E+02  0.10566000000E+00 0. -1.
         13    1    4    4    0    0 -0.17404205005E+01 -0.12158157301E+01  0.32922767366E+02  0.32991317744E+02  0.10566000000E+00 0.  1.
        -13    1    4    4    0    0 -0.64396278791E+01 -0.78879979877E+01  0.16089968734E+03  0.16122161726E+03  0.10566000000E+00 0. -1.
         14    1    4    4    0    0 -0.17388306402E+01 -0.16185392785E+01  0.47618089825E+02  0.47677307810E+02  0.00000000000E+00 0. -1.
<mgrwt>
<rscale>  0 0.87849955E+02</rscale>
<asrwt>0</asrwt>
<pdfrwt beam="1">  1        1 0.11933031E-02 0.87849955E+02</pdfrwt>
<pdfrwt beam="2">  1       -2 0.38268869E-01 0.87849955E+02</pdfrwt>
<totfact> 0.60656467E+04</totfact>
</mgrwt>
</event>
<event>
 8    1  0.8247621E-018  0.7999269E+02  0.7818608E-02  0.1329072E+00
         -2   -1    0    0    0  501 -0.00000000000E+00  0.00000000000E+00  0.26810159912E+03  0.26810159913E+03  0.25500000000E-02 0.  1.
          1   -1    0    0  501    0  0.00000000000E+00 -0.00000000000E+00 -0.59667957642E+01  0.59667978928E+01  0.50400000000E-02 0. -1.
        -24    2    1    2    0    0  0.00000000000E+00  0.00000000000E+00  0.26213480335E+03  0.27406839702E+03  0.79992694150E+02 0.  0.
         66    2    3    3    0    0  0.14137454785E+01  0.38431929716E+02  0.16847561528E+03  0.17282084607E+03  0.19999991549E+01 0.  0.
         13    1    3    3    0    0 -0.14137454785E+01 -0.38431929716E+02  0.93659188074E+02  0.10124755095E+03  0.10566000000E+00 0. -1.
         13    1    4    4    0    0  0.26782238704E+00  0.48826169681E+01  0.20400500544E+02  0.20978638273E+02  0.10566000000E+00 0. -1.
        -13    1    4    4    0    0  0.13254454606E+01  0.27958137627E+02  0.12567434165E+03  0.12875350706E+03  0.10566000000E+00 0.  1.
        -14    1    4    4    0    0 -0.17952236907E+00  0.55911751212E+01  0.22400773079E+02  0.23088700744E+02  0.00000000000E+00 0.  1.
<mgrwt>
<rscale>  0 0.79992694E+02</rscale>
<asrwt>0</asrwt>
<pdfrwt beam="1">  1        1 0.91796915E-03 0.79992694E+02</pdfrwt>
<pdfrwt beam="2">  1       -2 0.41246382E-01 0.79992694E+02</pdfrwt>
<totfact> 0.74539667E+04</totfact>
</mgrwt>
</event>
<event>
 8    1  0.8247621E-018  0.7887192E+02  0.7818608E-02  0.1332284E+00
          1   -1    0    0  501    0  0.00000000000E+00  0.00000000000E+00  0.22577030105E+03  0.22577030111E+03  0.50400000000E-02 0. -1.
         -2   -1    0    0    0  501 -0.00000000000E+00 -0.00000000000E+00 -0.68883940757E+01  0.68883945476E+01  0.25500000000E-02 0.  1.
        -24    2    1    2    0    0  0.00000000000E+00 -0.17763568394E-14  0.21888190698E+03  0.23265869566E+03  0.78871918087E+02 0.  0.
         66    2    3    3    0    0  0.28305043373E+02  0.15329269331E+02  0.42437176376E+02  0.53301744022E+02  0.19999996152E+01 0.  0.
         13    1    3    3    0    0 -0.28305043373E+02 -0.15329269331E+02  0.17644473060E+03  0.17935695164E+03  0.10566000000E+00 0. -1.
         13    1    4    4    0    0  0.22773509692E+01  0.12737047113E+01  0.39120262752E+01  0.47035906223E+01  0.10566000000E+00 0. -1.
        -13    1    4    4    0    0  0.24184692519E+02  0.12976072822E+02  0.35022726686E+02  0.44495846622E+02  0.10566000000E+00 0.  1.
        -14    1    4    4    0    0  0.18429998849E+01  0.10794917984E+01  0.35024234147E+01  0.41023067773E+01  0.00000000000E+00 0.  1.
<mgrwt>
<rscale>  0 0.78871918E+02</rscale>
<asrwt>0</asrwt>
<pdfrwt beam="1">  1        1 0.34733890E-01 0.78871918E+02</pdfrwt>
<pdfrwt beam="2">  1       -2 0.10597531E-02 0.78871918E+02</pdfrwt>
<totfact> 0.17726265E+05</totfact>
</mgrwt>
</event>
<event>
 8    1  0.8247621E-018  0.8040876E+02  0.7818608E-02  0.1327895E+00
          1   -1    0    0  501    0  0.00000000000E+00  0.00000000000E+00  0.29476443266E+02  0.29476443697E+02  0.50400000000E-02 0. -1.
         -2   -1    0    0    0  501 -0.00000000000E+00 -0.00000000000E+00 -0.54836748731E+02  0.54836748790E+02  0.25500000000E-02 0.  1.
        -24    2    1    2    0    0 -0.22204460493E-15  0.00000000000E+00 -0.25360305465E+02  0.84313192488E+02  0.80408764039E+02 0.  0.
         66    2    3    3    0    0  0.14432370005E+01  0.11739144813E+02 -0.52951712646E+02  0.54293409539E+02  0.19999982949E+01 0.  0.
         13    1    3    3    0    0 -0.14432370005E+01 -0.11739144813E+02  0.27591407182E+02  0.30019782949E+02  0.10566000000E+00 0. -1.
         13    1    4    4    0    0 -0.17112774690E+00  0.21302926174E+01 -0.70902591323E+01  0.74061035599E+01  0.10566000000E+00 0. -1.
        -13    1    4    4    0    0  0.77206572281E+00  0.49467256533E+01 -0.24570306959E+02  0.25075432763E+02  0.10566000000E+00 0.  1.
         14    1    4    4    0    0  0.84229902459E+00  0.46621265424E+01 -0.21291146555E+02  0.21811873216E+02  0.00000000000E+00 0. -1.
<mgrwt>
<rscale>  0 0.80408764E+02</rscale>
<asrwt>0</asrwt>
<pdfrwt beam="1">  1        1 0.45348375E-02 0.80408764E+02</pdfrwt>
<pdfrwt beam="2">  1       -2 0.84364229E-02 0.80408764E+02</pdfrwt>
<totfact> 0.11881371E+05</totfact>
</mgrwt>
</event>
<event>
 8    1  0.8247621E-018  0.7883724E+02  0.7818608E-02  0.1332384E+00
          1   -1    0    0  501    0  0.00000000000E+00  0.00000000000E+00  0.13713716473E+02  0.13713717399E+02  0.50400000000E-02 0. -1.
         -2   -1    0    0    0  501 -0.00000000000E+00 -0.00000000000E+00 -0.11330462876E+03  0.11330462879E+03  0.25500000000E-02 0.  1.
        -24    2    1    2    0    0  0.00000000000E+00 -0.71054273576E-14 -0.99590912284E+02  0.12701834618E+03  0.78837240298E+02 0.  0.
         66    2    3    3    0    0 -0.37410897091E+01 -0.23212635011E+02 -0.10075087230E+03  0.10347734264E+03  0.19999990262E+01 0.  0.
         13    1    3    3    0    0  0.37410897091E+01  0.23212635011E+02  0.11599600115E+01  0.23541003539E+02  0.10566000000E+00 0. -1.
         13    1    4    4    0    0 -0.44431094572E-01 -0.44772456214E+01 -0.19245500912E+02  0.19759761433E+02  0.10566000000E+00 0. -1.
        -13    1    4    4    0    0 -0.86130755347E+00 -0.50298499425E+01 -0.20194140679E+02  0.20829203608E+02  0.10566000000E+00 0.  1.
         14    1    4    4    0    0 -0.28353510611E+01 -0.13705539447E+02 -0.61311230704E+02  0.62888377604E+02  0.00000000000E+00 0. -1.
<mgrwt>
<rscale>  0 0.78837240E+02</rscale>
<asrwt>0</asrwt>
<pdfrwt beam="1">  1        1 0.21098027E-02 0.78837240E+02</pdfrwt>
<pdfrwt beam="2">  1       -2 0.17431481E-01 0.78837240E+02</pdfrwt>
<totfact> 0.10668412E+05</totfact>
</mgrwt>
</event>
<event>
 8    1  0.8247621E-018  0.8011657E+02  0.7818608E-02  0.1328721E+00
          1   -1    0    0  501    0  0.00000000000E+00  0.00000000000E+00  0.80700193657E+01  0.80700209395E+01  0.50400000000E-02 0. -1.
         -2   -1    0    0    0  501 -0.00000000000E+00 -0.00000000000E+00 -0.19884287994E+03  0.19884287996E+03  0.25500000000E-02 0.  1.
        -24    2    1    2    0    0  0.00000000000E+00  0.00000000000E+00 -0.19077286058E+03  0.20691290090E+03  0.80116566486E+02 0.  0.
         66    2    3    3    0    0  0.26208439052E+02  0.11986524312E+02 -0.16720903936E+03  0.16968624544E+03  0.20000009877E+01 0.  0.
         13    1    3    3    0    0 -0.26208439052E+02 -0.11986524312E+02 -0.23563821220E+02  0.37226655465E+02  0.10566000000E+00 0. -1.
         13    1    4    4    0    0  0.11821625425E+02  0.58478191980E+01 -0.75709357198E+02  0.76849630763E+02  0.10566000000E+00 0. -1.
        -13    1    4    4    0    0  0.84582479300E+01  0.43105632800E+01 -0.55748584206E+02  0.56551204397E+02  0.10566000000E+00 0.  1.
         14    1    4    4    0    0  0.59285656972E+01  0.18281418337E+01 -0.35751097956E+02  0.36285410275E+02  0.00000000000E+00 0. -1.
<mgrwt>
<rscale>  0 0.80116566E+02</rscale>
<asrwt>0</asrwt>
<pdfrwt beam="1">  1        1 0.12415417E-02 0.80116566E+02</pdfrwt>
<pdfrwt beam="2">  1       -2 0.30591209E-01 0.80116566E+02</pdfrwt>
<totfact> 0.84956494E+04</totfact>
</mgrwt>
</event>
<event>
 8    1  0.8247621E-018  0.7924911E+02  0.7818608E-02  0.1331196E+00
         -2   -1    0    0    0  501 -0.00000000000E+00  0.00000000000E+00  0.81237265995E+02  0.81237266035E+02  0.25500000000E-02 0.  1.
          1   -1    0    0  501    0  0.00000000000E+00 -0.00000000000E+00 -0.19327402703E+02  0.19327403360E+02  0.50400000000E-02 0. -1.
        -24    2    1    2    0    0 -0.35527136788E-14  0.00000000000E+00  0.61909863292E+02  0.10056466940E+03  0.79249110770E+02 0.  0.
         66    2    3    3    0    0 -0.31603564406E+02  0.19096254316E+02  0.12821315051E+02  0.39138706281E+02  0.19999994150E+01 0.  0.
         13    1    3    3    0    0  0.31603564406E+02 -0.19096254316E+02  0.49088548241E+02  0.61425963115E+02  0.10566000000E+00 0. -1.
         13    1    4    4    0    0 -0.34078440565E+01  0.23463947601E+01  0.10180530783E+01  0.42622254269E+01  0.10566000000E+00 0. -1.
        -13    1    4    4    0    0 -0.26599383238E+02  0.16081780442E+02  0.11312980512E+02  0.33077870895E+02  0.10566000000E+00 0.  1.
        -14    1    4    4    0    0 -0.15963371109E+01  0.66807911394E+00  0.49028146003E+00  0.17986099589E+01  0.00000000000E+00 0.  1.
<mgrwt>
<rscale>  0 0.79249111E+02</rscale>
<asrwt>0</asrwt>
<pdfrwt beam="1">  1        1 0.29734466E-02 0.79249111E+02</pdfrwt>
<pdfrwt beam="2">  1       -2 0.12498041E-01 0.79249111E+02</pdfrwt>
<totfact> 0.11409847E+05</totfact>
</mgrwt>
</event>
<event>
 8    1  0.8247621E-018  0.8024957E+02  0.7818608E-02  0.1328345E+00
         -2   -1    0    0    0  501 -0.00000000000E+00  0.00000000000E+00  0.96598321497E+02  0.96598321531E+02  0.25500000000E-02 0.  1.
          1   -1    0    0  501    0  0.00000000000E+00 -0.00000000000E+00 -0.16666939892E+02  0.16666940654E+02  0.50400000000E-02 0. -1.
        -24    2    1    2    0    0  0.35527136788E-14  0.35527136788E-14  0.79931381605E+02  0.11326526218E+03  0.80249572289E+02 0.  0.
         66    2    3    3    0    0  0.26198690915E+02  0.26478390052E+02  0.60949659011E+02  0.71458641871E+02  0.20000047404E+01 0.  0.
         13    1    3    3    0    0 -0.26198690915E+02 -0.26478390052E+02  0.18981722594E+02  0.41806620314E+02  0.10566000000E+00 0. -1.
         13    1    4    4    0    0  0.40300577496E+01  0.40487062660E+01  0.99129696455E+01  0.11441657184E+02  0.10566000000E+00 0.  1.
        -13    1    4    4    0    0  0.45129909447E+01  0.36626413176E+01  0.94433075383E+01  0.11089150102E+02  0.10566000000E+00 0.  1.
        -14    1    4    4    0    0  0.17655642221E+02  0.18767042469E+02  0.41593381828E+02  0.48927834584E+02  0.00000000000E+00 0.  1.
<mgrwt>
<rscale>  0 0.80249572E+02</rscale>
<asrwt>0</asrwt>
<pdfrwt beam="1">  1        1 0.25641447E-02 0.80249572E+02</pdfrwt>
<pdfrwt beam="2">  1       -2 0.14861280E-01 0.80249572E+02</pdfrwt>
<totfact> 0.10618428E+05</totfact>
</mgrwt>
</event>
<event>
 8    1  0.8247621E-018  0.8265366E+02  0.7818608E-02  0.1321685E+00
         -2   -1    0    0    0  501 -0.00000000000E+00  0.00000000000E+00  0.47976944275E+03  0.47976944276E+03  0.25500000000E-02 0.  1.
          1   -1    0    0  501    0  0.00000000000E+00 -0.00000000000E+00 -0.35598472789E+01  0.35598508467E+01  0.50400000000E-02 0. -1.
        -24    2    1    2    0    0  0.00000000000E+00 -0.35527136788E-14  0.47620959547E+03  0.48332929360E+03  0.82653658337E+02 0.  0.
         66    2    3    3    0    0 -0.94362487786E+01  0.20518427370E+02  0.44046189330E+03  0.44104504089E+03  0.19999984250E+01 0.  0.
         13    1    3    3    0    0  0.94362487786E+01 -0.20518427370E+02  0.35747702170E+02  0.42284252710E+02  0.10566000000E+00 0. -1.
         13    1    4    4    0    0 -0.79922173753E+01  0.16934340974E+02  0.36478306772E+03  0.36526339141E+03  0.10566000000E+00 0. -1.
        -13    1    4    4    0    0 -0.15220881015E+01  0.33160155682E+01  0.71847852052E+02  0.71940515149E+02  0.10566000000E+00 0.  1.
         14    1    4    4    0    0  0.78056698251E-01  0.26807082782E+00  0.38309735273E+01  0.38411343356E+01  0.00000000000E+00 0. -1.
<mgrwt>
<rscale>  0 0.82653658E+02</rscale>
<asrwt>0</asrwt>
<pdfrwt beam="1">  1        1 0.54766931E-03 0.82653658E+02</pdfrwt>
<pdfrwt beam="2">  1       -2 0.73810654E-01 0.82653658E+02</pdfrwt>
<totfact> 0.47779802E+04</totfact>
</mgrwt>
</event>
<event>
 8    1  0.8247621E-018  0.7713041E+02  0.7818608E-02  0.1337398E+00
          1   -1    0    0  501    0  0.00000000000E+00  0.00000000000E+00  0.20789932864E+02  0.20789933475E+02  0.50400000000E-02 0. -1.
         -2   -1    0    0    0  501 -0.00000000000E+00 -0.00000000000E+00 -0.71538226408E+02  0.71538226453E+02  0.25500000000E-02 0.  1.
        -24    2    1    2    0    0  0.00000000000E+00  0.35527136788E-14 -0.50748293544E+02  0.92328159928E+02  0.77130407869E+02 0.  0.
         66    2    3    3    0    0  0.26373704955E+02 -0.27053172879E+02 -0.16288653802E+02  0.41191828312E+02  0.20000002896E+01 0.  0.
         13    1    3    3    0    0 -0.26373704955E+02  0.27053172879E+02 -0.34459639742E+02  0.51136331615E+02  0.10566000000E+00 0. -1.
         13    1    4    4    0    0  0.21788172071E+02 -0.22774912800E+02 -0.13299209533E+02  0.34209665791E+02  0.10566000000E+00 0. -1.
        -13    1    4    4    0    0  0.23782209888E+01 -0.26391151129E+01 -0.18398082830E+01  0.40021147166E+01  0.10566000000E+00 0.  1.
         14    1    4    4    0    0  0.22073118953E+01 -0.16391449657E+01 -0.11496359857E+01  0.29800478053E+01  0.00000000000E+00 0. -1.
<mgrwt>
<rscale>  0 0.77130408E+02</rscale>
<asrwt>0</asrwt>
<pdfrwt beam="1">  1        1 0.31984513E-02 0.77130408E+02</pdfrwt>
<pdfrwt beam="2">  1       -2 0.11005881E-01 0.77130408E+02</pdfrwt>
<totfact> 0.12553279E+05</totfact>
</mgrwt>
</event>
<event>
 8    1  0.8247621E-018  0.7975542E+02  0.7818608E-02  0.1329747E+00
          1   -1    0    0  501    0  0.00000000000E+00  0.00000000000E+00  0.40521398986E+02  0.40521399299E+02  0.50400000000E-02 0. -1.
         -2   -1    0    0    0  501 -0.00000000000E+00 -0.00000000000E+00 -0.39244246928E+02  0.39244247011E+02  0.25500000000E-02 0.  1.
        -24    2    1    2    0    0 -0.22204460493E-15  0.00000000000E+00  0.12771520578E+01  0.79765646310E+02  0.79755421220E+02 0.  0.
         66    2    3    3    0    0  0.11779858078E+01  0.38069156367E+02 -0.11091914944E+02  0.39720006103E+02  0.19999976590E+01 0.  0.
         13    1    3    3    0    0 -0.11779858078E+01 -0.38069156367E+02  0.12369067002E+02  0.40045640207E+02  0.10566000000E+00 0. -1.
         13    1    4    4    0    0  0.19154092924E+00  0.17458738984E+01 -0.12979262672E+00  0.17643054606E+01  0.10566000000E+00 0. -1.
        -13    1    4    4    0    0  0.46597319492E+00  0.15206570526E+02 -0.44487089170E+01  0.15851154319E+02  0.10566000000E+00 0.  1.
        -14    1    4    4    0    0  0.52047168363E+00  0.21116711943E+02 -0.65134134002E+01  0.22104546324E+02  0.00000000000E+00 0.  1.
<mgrwt>
<rscale>  0 0.79755421E+02</rscale>
<asrwt>0</asrwt>
<pdfrwt beam="1">  1        1 0.62340615E-02 0.79755421E+02</pdfrwt>
<pdfrwt beam="2">  1       -2 0.60375764E-02 0.79755421E+02</pdfrwt>
<totfact> 0.12834370E+05</totfact>
</mgrwt>
</event>
<event>
 8    1  0.8247621E-018  0.7944621E+02  0.7818608E-02  0.1330630E+00
          1   -1    0    0  501    0  0.00000000000E+00  0.00000000000E+00  0.40025568562E+01  0.40025600294E+01  0.50400000000E-02 0. -1.
         -2   -1    0    0    0  501 -0.00000000000E+00 -0.00000000000E+00 -0.39422908533E+03  0.39422908534E+03  0.25500000000E-02 0.  1.
        -24    2    1    2    0    0  0.00000000000E+00  0.00000000000E+00 -0.39022652847E+03  0.39823164537E+03  0.79446207257E+02 0.  0.
         66    2    3    3    0    0  0.29176891761E+02 -0.16109601057E+02 -0.30334021218E+03  0.30517223756E+03  0.19999976567E+01 0.  0.
         13    1    3    3    0    0 -0.29176891761E+02  0.16109601057E+02 -0.86886316293E+02  0.93059407810E+02  0.10566000000E+00 0. -1.
         13    1    4    4    0    0  0.14346361699E+02 -0.71208865379E+01 -0.15068944272E+03  0.15153826062E+03  0.10566000000E+00 0. -1.
        -13    1    4    4    0    0  0.78672718363E+01 -0.46707920574E+01 -0.83147912584E+02  0.83649846358E+02  0.10566000000E+00 0.  1.
         14    1    4    4    0    0  0.69632582256E+01 -0.43179224620E+01 -0.69502856877E+02  0.69984130583E+02  0.00000000000E+00 0. -1.
<mgrwt>
<rscale>  0 0.79446207E+02</rscale>
<asrwt>0</asrwt>
<pdfrwt beam="1">  1        1 0.61577854E-03 0.79446207E+02</pdfrwt>
<pdfrwt beam="2">  1       -2 0.60650598E-01 0.79446207E+02</pdfrwt>
<totfact> 0.60742954E+04</totfact>
</mgrwt>
</event>
<event>
 8    1  0.8247621E-018  0.8639703E+02  0.7818608E-02  0.1311819E+00
         -2   -1    0    0    0  501 -0.00000000000E+00  0.00000000000E+00  0.43036545958E+02  0.43036546034E+02  0.25500000000E-02 0.  1.
          1   -1    0    0  501    0  0.00000000000E+00 -0.00000000000E+00 -0.43361097457E+02  0.43361097750E+02  0.50400000000E-02 0. -1.
        -24    2    1    2    0    0  0.22204460493E-15  0.00000000000E+00 -0.32455149892E+00  0.86397643784E+02  0.86397034195E+02 0.  0.
         66    2    3    3    0    0  0.11568284643E+01 -0.41832195221E+02  0.10460141931E+02  0.43182003265E+02  0.20000069177E+01 0.  0.
         13    1    3    3    0    0 -0.11568284643E+01  0.41832195221E+02 -0.10784693430E+02  0.43215640519E+02  0.10566000000E+00 0. -1.
         13    1    4    4    0    0  0.12519575456E+01 -0.15549004608E+02  0.42944198457E+01  0.16179992208E+02  0.10566000000E+00 0. -1.
        -13    1    4    4    0    0  0.76336661977E-01 -0.13597307897E+02  0.34149203833E+01  0.14020180262E+02  0.10566000000E+00 0.  1.
         14    1    4    4    0    0 -0.17146574326E+00 -0.12685882716E+02  0.27508017016E+01  0.12981830795E+02  0.00000000000E+00 0. -1.
<mgrwt>
<rscale>  0 0.86397034E+02</rscale>
<asrwt>0</asrwt>
<pdfrwt beam="1">  1        1 0.66709381E-02 0.86397034E+02</pdfrwt>
<pdfrwt beam="2">  1       -2 0.66210071E-02 0.86397034E+02</pdfrwt>
<totfact> 0.10351720E+05</totfact>
</mgrwt>
</event>
<event>
 8    1  0.8247621E-018  0.7969169E+02  0.7818608E-02  0.1329929E+00
          1   -1    0    0  501    0  0.00000000000E+00  0.00000000000E+00  0.31075710767E+02  0.31075711176E+02  0.50400000000E-02 0. -1.
         -2   -1    0    0    0  501 -0.00000000000E+00 -0.00000000000E+00 -0.51091068465E+02  0.51091068528E+02  0.25500000000E-02 0.  1.
        -24    2    1    2    0    0  0.00000000000E+00  0.17763568394E-14 -0.20015357698E+02  0.82166779704E+02  0.79691688043E+02 0.  0.
         66    2    3    3    0    0  0.11147122380E+02  0.88284559224E+01 -0.48364433688E+02  0.50451148781E+02  0.19999989989E+01 0.  0.
         13    1    3    3    0    0 -0.11147122380E+02 -0.88284559224E+01  0.28349075990E+02  0.31715630923E+02  0.10566000000E+00 0. -1.
         13    1    4    4    0    0  0.59247713870E+01  0.40963586380E+01 -0.22989718163E+02  0.24091935898E+02  0.10566000000E+00 0. -1.
        -13    1    4    4    0    0  0.50717173978E+00  0.40623155214E+00 -0.37603517475E+01  0.38175458803E+01  0.10566000000E+00 0.  1.
        -14    1    4    4    0    0  0.47151792537E+01  0.43258657323E+01 -0.21614363778E+02  0.22541667002E+02  0.00000000000E+00 0.  1.
<mgrwt>
<rscale>  0 0.79691688E+02</rscale>
<asrwt>0</asrwt>
<pdfrwt beam="1">  1        1 0.47808786E-02 0.79691688E+02</pdfrwt>
<pdfrwt beam="2">  1       -2 0.78601644E-02 0.79691688E+02</pdfrwt>
<totfact> 0.12305398E+05</totfact>
</mgrwt>
</event>
<event>
 8    1  0.8247621E-018  0.8123298E+02  0.7818608E-02  0.1325588E+00
          1   -1    0    0  501    0  0.00000000000E+00  0.00000000000E+00  0.14240000478E+03  0.14240000487E+03  0.50400000000E-02 0. -1.
         -2   -1    0    0    0  501 -0.00000000000E+00 -0.00000000000E+00 -0.11584966583E+02  0.11584966864E+02  0.25500000000E-02 0.  1.
        -24    2    1    2    0    0  0.35527136788E-14  0.00000000000E+00  0.13081503820E+03  0.15398497173E+03  0.81232981609E+02 0.  0.
         66    2    3    3    0    0  0.28195936545E+02 -0.14501831335E+02  0.17402733121E+02  0.36223874352E+02  0.20000008097E+01 0.  0.
         13    1    3    3    0    0 -0.28195936545E+02  0.14501831335E+02  0.11341230508E+03  0.11776109738E+03  0.10566000000E+00 0. -1.
         13    1    4    4    0    0  0.18375132682E+01 -0.99036443312E+00  0.73491604928E+00  0.22155230435E+01  0.10566000000E+00 0. -1.
        -13    1    4    4    0    0  0.12987708730E+02 -0.70294874373E+01  0.77449261560E+01  0.16676010221E+02  0.10566000000E+00 0.  1.
         14    1    4    4    0    0  0.13370714547E+02 -0.64819794647E+01  0.89228909161E+01  0.17332341088E+02  0.00000000000E+00 0. -1.
<mgrwt>
<rscale>  0 0.81232982E+02</rscale>
<asrwt>0</asrwt>
<pdfrwt beam="1">  1        1 0.21907694E-01 0.81232982E+02</pdfrwt>
<pdfrwt beam="2">  1       -2 0.17823025E-02 0.81232982E+02</pdfrwt>
<totfact> 0.15010910E+05</totfact>
</mgrwt>
</event>
<event>
 8    1  0.8247621E-018  0.8008192E+02  0.7818608E-02  0.1328819E+00
         -2   -1    0    0    0  501 -0.00000000000E+00  0.00000000000E+00  0.31951890044E+02  0.31951890146E+02  0.25500000000E-02 0.  1.
          1   -1    0    0  501    0  0.00000000000E+00 -0.00000000000E+00 -0.50177897437E+02  0.50177897690E+02  0.50400000000E-02 0. -1.
        -24    2    1    2    0    0  0.00000000000E+00  0.00000000000E+00 -0.18226007393E+02  0.82129787836E+02  0.80081924955E+02 0.  0.
         66    2    3    3    0    0 -0.14887998271E+02 -0.16594356633E+02  0.24961330530E+02  0.33527498945E+02  0.19999997751E+01 0.  0.
         13    1    3    3    0    0  0.14887998271E+02  0.16594356633E+02 -0.43187337923E+02  0.48602288891E+02  0.10566000000E+00 0. -1.
         13    1    4    4    0    0 -0.30831576467E+01 -0.29778536149E+01  0.39204049938E+01  0.58098375689E+01  0.10566000000E+00 0. -1.
        -13    1    4    4    0    0 -0.66204130040E+01 -0.82563082252E+01  0.12564595043E+02  0.16427924594E+02  0.10566000000E+00 0.  1.
         14    1    4    4    0    0 -0.51844276200E+01 -0.53601947927E+01  0.84763304938E+01  0.11289736782E+02  0.00000000000E+00 0. -1.
<mgrwt>
<rscale>  0 0.80081925E+02</rscale>
<asrwt>0</asrwt>
<pdfrwt beam="1">  1        1 0.77196765E-02 0.80081925E+02</pdfrwt>
<pdfrwt beam="2">  1       -2 0.49156754E-02 0.80081925E+02</pdfrwt>
<totfact> 0.13127039E+05</totfact>
</mgrwt>
</event>
<event>
 8    1  0.8247621E-018  0.8306605E+02  0.7818608E-02  0.1320569E+00
          1   -1    0    0  501    0  0.00000000000E+00  0.00000000000E+00  0.90856805220E+01  0.90856819198E+01  0.50400000000E-02 0. -1.
         -2   -1    0    0    0  501 -0.00000000000E+00 -0.00000000000E+00 -0.18985833394E+03  0.18985833395E+03  0.25500000000E-02 0.  1.
        -24    2    1    2    0    0 -0.35527136788E-14  0.22204460493E-15 -0.18077265341E+03  0.19894401587E+03  0.83066053411E+02 0.  0.
         66    2    3    3    0    0  0.26438253000E+02 -0.48291645118E+00 -0.16707039374E+03  0.16916184815E+03  0.19999939284E+01 0.  0.
         13    1    3    3    0    0 -0.26438253000E+02  0.48291645118E+00 -0.13702259675E+02  0.29782167722E+02  0.10566000000E+00 0. -1.
         13    1    4    4    0    0  0.55833524019E+01  0.32420686675E+00 -0.37602433132E+02  0.38016221217E+02  0.10566000000E+00 0.  1.
        -13    1    4    4    0    0  0.24645022601E+01  0.21376533648E+00 -0.13798777680E+02  0.14019161762E+02  0.10566000000E+00 0.  1.
         14    1    4    4    0    0  0.18390398338E+02 -0.10208886544E+01 -0.11566918293E+03  0.11712646517E+03  0.00000000000E+00 0. -1.
<mgrwt>
<rscale>  0 0.83066053E+02</rscale>
<asrwt>0</asrwt>
<pdfrwt beam="1">  1        1 0.13977973E-02 0.83066053E+02</pdfrwt>
<pdfrwt beam="2">  1       -2 0.29208972E-01 0.83066053E+02</pdfrwt>
<totfact> 0.78820432E+04</totfact>
</mgrwt>
</event>
<event>
 8    1  0.8247621E-018  0.8213101E+02  0.7818608E-02  0.1323110E+00
         -2   -1    0    0    0  501 -0.00000000000E+00  0.00000000000E+00  0.19176916774E+02  0.19176916944E+02  0.25500000000E-02 0.  1.
          1   -1    0    0  501    0  0.00000000000E+00 -0.00000000000E+00 -0.87937790091E+02  0.87937790235E+02  0.50400000000E-02 0. -1.
        -24    2    1    2    0    0  0.00000000000E+00  0.00000000000E+00 -0.68760873317E+02  0.10711470718E+03  0.82131009946E+02 0.  0.
         66    2    3    3    0    0  0.72853523030E+01 -0.14725924721E+02  0.14648716101E+02  0.22102355207E+02  0.20000013068E+01 0.  0.
         13    1    3    3    0    0 -0.72853523030E+01  0.14725924721E+02 -0.83409589417E+02  0.85012351972E+02  0.10566000000E+00 0. -1.
         13    1    4    4    0    0  0.42404600916E+01 -0.90336676358E+01  0.84462430482E+01  0.13074358050E+02  0.10566000000E+00 0. -1.
        -13    1    4    4    0    0  0.14476104018E+01 -0.31316527584E+01  0.40487144826E+01  0.53203456534E+01  0.10566000000E+00 0.  1.
         14    1    4    4    0    0  0.15972818095E+01 -0.25606043266E+01  0.21537585698E+01  0.37076515038E+01  0.00000000000E+00 0. -1.
<mgrwt>
<rscale>  0 0.82131010E+02</rscale>
<asrwt>0</asrwt>
<pdfrwt beam="1">  1        1 0.13528891E-01 0.82131010E+02</pdfrwt>
<pdfrwt beam="2">  1       -2 0.29502949E-02 0.82131010E+02</pdfrwt>
<totfact> 0.13396162E+05</totfact>
</mgrwt>
</event>
<event>
 8    1  0.8247621E-018  0.8132534E+02  0.7818608E-02  0.1325332E+00
          1   -1    0    0  501    0  0.00000000000E+00  0.00000000000E+00  0.57345552321E+02  0.57345552543E+02  0.50400000000E-02 0. -1.
         -2   -1    0    0    0  501 -0.00000000000E+00 -0.00000000000E+00 -0.28833146177E+02  0.28833146290E+02  0.25500000000E-02 0.  1.
        -24    2    1    2    0    0  0.00000000000E+00  0.00000000000E+00  0.28512406144E+02  0.86178698833E+02  0.81325339399E+02 0.  0.
         66    2    3    3    0    0  0.14562089466E+01 -0.22065567364E+02 -0.21864447709E+02  0.31161897983E+02  0.20000011756E+01 0.  0.
         13    1    3    3    0    0 -0.14562089466E+01  0.22065567364E+02  0.50376853852E+02  0.55016800850E+02  0.10566000000E+00 0. -1.
         13    1    4    4    0    0 -0.27609537092E+00 -0.28223597187E+01 -0.22392441954E+01  0.36148750515E+01  0.10566000000E+00 0. -1.
        -13    1    4    4    0    0  0.15469073977E+01 -0.17437790279E+02 -0.18026838892E+02  0.25128619874E+02  0.10566000000E+00 0.  1.
         14    1    4    4    0    0  0.18539691983E+00 -0.18054173669E+01 -0.15983646215E+01  0.24184030578E+01  0.00000000000E+00 0. -1.
<mgrwt>
<rscale>  0 0.81325339E+02</rscale>
<asrwt>0</asrwt>
<pdfrwt beam="1">  1        1 0.88223926E-02 0.81325339E+02</pdfrwt>
<pdfrwt beam="2">  1       -2 0.44358687E-02 0.81325339E+02</pdfrwt>
<totfact> 0.12845560E+05</totfact>
</mgrwt>
</event>
<event>
 8    1  0.8247621E-018  0.7960489E+02  0.7818608E-02  0.1330176E+00
          1   -1    0    0  501    0  0.00000000000E+00  0.00000000000E+00  0.46082100133E+02  0.46082100409E+02  0.50400000000E-02 0. -1.
         -2   -1    0    0    0  501 -0.00000000000E+00 -0.00000000000E+00 -0.34378526456E+02  0.34378526551E+02  0.25500000000E-02 0.  1.
        -24    2    1    2    0    0  0.00000000000E+00  0.00000000000E+00  0.11703573677E+02  0.80460626960E+02  0.79604892148E+02 0.  0.
         66    2    3    3    0    0  0.15813781180E+02  0.34070911340E+02 -0.73744327524E+01  0.38331252788E+02  0.20000017921E+01 0.  0.
         13    1    3    3    0    0 -0.15813781180E+02 -0.34070911340E+02  0.19078006429E+02  0.42129374171E+02  0.10566000000E+00 0. -1.
         13    1    4    4    0    0  0.17996186009E+01  0.39961941970E+01 -0.33507067236E+00  0.43967751319E+01  0.10566000000E+00 0.  1.
        -13    1    4    4    0    0  0.42345505961E+01  0.10044276707E+02 -0.25906628279E+01  0.11204535298E+02  0.10566000000E+00 0. -1.
        -14    1    4    4    0    0  0.97796119825E+01  0.20030440436E+02 -0.44486992522E+01  0.22729942359E+02  0.00000000000E+00 0.  1.
<mgrwt>
<rscale>  0 0.79604892E+02</rscale>
<asrwt>0</asrwt>
<pdfrwt beam="1">  1        1 0.70895539E-02 0.79604892E+02</pdfrwt>
<pdfrwt beam="2">  1       -2 0.52890041E-02 0.79604892E+02</pdfrwt>
<totfact> 0.13169606E+05</totfact>
</mgrwt>
</event>
<event>
 8    1  0.8247621E-018  0.8534728E+02  0.7818608E-02  0.1314527E+00
         -2   -1    0    0    0  501 -0.00000000000E+00  0.00000000000E+00  0.71529673135E+01  0.71529677681E+01  0.25500000000E-02 0.  1.
          1   -1    0    0  501    0  0.00000000000E+00 -0.00000000000E+00 -0.25458520049E+03  0.25458520054E+03  0.50400000000E-02 0. -1.
        -24    2    1    2    0    0  0.00000000000E+00  0.00000000000E+00 -0.24743223317E+03  0.26173816830E+03  0.85347283111E+02 0.  0.
         66    2    3    3    0    0 -0.49825778972E+01 -0.40962678158E+02 -0.90715962444E+02  0.99680253473E+02  0.20000014703E+01 0.  0.
         13    1    3    3    0    0  0.49825778972E+01  0.40962678158E+02 -0.15671627073E+03  0.16205791483E+03  0.10566000000E+00 0. -1.
         13    1    4    4    0    0 -0.18247596204E+01 -0.16048333697E+02 -0.36565058899E+02  0.39973659558E+02  0.10566000000E+00 0. -1.
        -13    1    4    4    0    0 -0.29397437486E+01 -0.19835377852E+02 -0.42359529522E+02  0.46866034750E+02  0.10566000000E+00 0.  1.
        -14    1    4    4    0    0 -0.21807452809E+00 -0.50789666086E+01 -0.11791374023E+02  0.12840559165E+02  0.00000000000E+00 0.  1.
<mgrwt>
<rscale>  0 0.85347283E+02</rscale>
<asrwt>0</asrwt>
<pdfrwt beam="1">  1        1 0.39166947E-01 0.85347283E+02</pdfrwt>
<pdfrwt beam="2">  1       -2 0.11004567E-02 0.85347283E+02</pdfrwt>
<totfact> 0.14720764E+05</totfact>
</mgrwt>
</event>
<event>
 8    1  0.8247621E-018  0.8149651E+02  0.7818608E-02  0.1324857E+00
         -2   -1    0    0    0  501 -0.00000000000E+00  0.00000000000E+00  0.44567033433E+02  0.44567033506E+02  0.25500000000E-02 0.  1.
          1   -1    0    0  501    0  0.00000000000E+00 -0.00000000000E+00 -0.37256695106E+02  0.37256695447E+02  0.50400000000E-02 0. -1.
        -24    2    1    2    0    0  0.35527136788E-14  0.00000000000E+00  0.73103383268E+01  0.81823728953E+02  0.81496512645E+02 0.  0.
         66    2    3    3    0    0  0.27056055513E+02  0.21242966081E+02  0.25542168237E+02  0.42891678740E+02  0.19999997569E+01 0.  0.
         13    1    3    3    0    0 -0.27056055513E+02 -0.21242966081E+02 -0.18231829910E+02  0.38932050213E+02  0.10566000000E+00 0. -1.
         13    1    4    4    0    0  0.47812315625E+00  0.60262799823E+00  0.79250140861E+00  0.11094975327E+01  0.10566000000E+00 0. -1.
        -13    1    4    4    0    0  0.18977841432E+02  0.14228685509E+02  0.17455228601E+02  0.29450129478E+02  0.10566000000E+00 0.  1.
         14    1    4    4    0    0  0.76000909247E+01  0.64116525740E+01  0.72944382278E+01  0.12332051729E+02  0.00000000000E+00 0. -1.
<mgrwt>
<rscale>  0 0.81496513E+02</rscale>
<asrwt>0</asrwt>
<pdfrwt beam="1">  1        1 0.57317993E-02 0.81496513E+02</pdfrwt>
<pdfrwt beam="2">  1       -2 0.68564667E-02 0.81496513E+02</pdfrwt>
<totfact> 0.11907983E+05</totfact>
</mgrwt>
</event>
<event>
 8    1  0.8247621E-018  0.8387626E+02  0.7818608E-02  0.1318398E+00
         -2   -1    0    0    0  501 -0.00000000000E+00  0.00000000000E+00  0.32566751830E+01  0.32566761814E+01  0.25500000000E-02 0.  1.
          1   -1    0    0  501    0  0.00000000000E+00 -0.00000000000E+00 -0.54006200457E+03  0.54006200459E+03  0.50400000000E-02 0. -1.
        -24    2    1    2    0    0  0.00000000000E+00 -0.71054273576E-14 -0.53680532939E+03  0.54331868077E+03  0.83876261366E+02 0.  0.
         66    2    3    3    0    0  0.28511971010E+02 -0.30031476728E+02 -0.31052447873E+03  0.31327986530E+03  0.20000072209E+01 0.  0.
         13    1    3    3    0    0 -0.28511971010E+02  0.30031476728E+02 -0.22628085066E+03  0.23003881547E+03  0.10566000000E+00 0. -1.
         13    1    4    4    0    0  0.46014482429E+01 -0.53168137283E+01 -0.52509480915E+02  0.52978284081E+02  0.10566000000E+00 0. -1.
        -13    1    4    4    0    0  0.12359630987E+02 -0.11683794461E+02 -0.12962656158E+03  0.13073763101E+03  0.10566000000E+00 0.  1.
        -14    1    4    4    0    0  0.11550891780E+02 -0.13030868539E+02 -0.12838843624E+03  0.12956395022E+03  0.00000000000E+00 0.  1.
<mgrwt>
<rscale>  0 0.83876261E+02</rscale>
<asrwt>0</asrwt>
<pdfrwt beam="1">  1        1 0.83086391E-01 0.83876261E+02</pdfrwt>
<pdfrwt beam="2">  1       -2 0.50102746E-03 0.83876261E+02</pdfrwt>
<totfact> 0.17462141E+05</totfact>
</mgrwt>
</event>
<event>
 8    1  0.8247621E-018  0.8090134E+02  0.7818608E-02  0.1326513E+00
         -2   -1    0    0    0  501 -0.00000000000E+00  0.00000000000E+00  0.59850750535E+02  0.59850750590E+02  0.25500000000E-02 0.  1.
          1   -1    0    0  501    0  0.00000000000E+00 -0.00000000000E+00 -0.27338947734E+02  0.27338948199E+02  0.50400000000E-02 0. -1.
        -24    2    1    2    0    0  0.00000000000E+00 -0.35527136788E-14  0.32511802801E+02  0.87189698789E+02  0.80901336537E+02 0.  0.
         66    2    3    3    0    0 -0.15575688303E+02  0.25171681604E+02  0.45938325163E+02  0.54685879204E+02  0.20000111520E+01 0.  0.
         13    1    3    3    0    0  0.15575688303E+02 -0.25171681604E+02 -0.13426522362E+02  0.32503819585E+02  0.10566000000E+00 0. -1.
         13    1    4    4    0    0 -0.19839478683E-01  0.74077494393E-01  0.26327837085E+00  0.29387176837E+00  0.10566000000E+00 0. -1.
        -13    1    4    4    0    0 -0.18020207007E+01  0.26126326467E+01  0.47832586494E+01  0.57414157919E+01  0.10566000000E+00 0.  1.
         14    1    4    4    0    0 -0.13753828123E+02  0.22484971462E+02  0.40891788143E+02  0.48650591643E+02  0.00000000000E+00 0. -1.
<mgrwt>
<rscale>  0 0.80901337E+02</rscale>
<asrwt>0</asrwt>
<pdfrwt beam="1">  1        1 0.42059921E-02 0.80901337E+02</pdfrwt>
<pdfrwt beam="2">  1       -2 0.92078076E-02 0.80901337E+02</pdfrwt>
<totfact> 0.11513527E+05</totfact>
</mgrwt>
</event>
<event>
 8    1  0.8247621E-018  0.8025807E+02  0.7818608E-02  0.1328321E+00
         -2   -1    0    0    0  501 -0.00000000000E+00  0.00000000000E+00  0.30948434948E+02  0.30948435053E+02  0.25500000000E-02 0.  1.
          1   -1    0    0  501    0  0.00000000000E+00 -0.00000000000E+00 -0.52032986703E+02  0.52032986947E+02  0.50400000000E-02 0. -1.
        -24    2    1    2    0    0  0.17763568394E-14  0.35527136788E-14 -0.21084551756E+02  0.82981422000E+02  0.80258071709E+02 0.  0.
         66    2    3    3    0    0  0.14699404124E+02  0.20123787380E+02  0.21938649672E+02  0.33261744555E+02  0.20000003194E+01 0.  0.
         13    1    3    3    0    0 -0.14699404124E+02 -0.20123787380E+02 -0.43023201428E+02  0.49719677445E+02  0.10566000000E+00 0. -1.
         13    1    4    4    0    0  0.86622978453E+01  0.11032353788E+02  0.11964029799E+02  0.18436306765E+02  0.10566000000E+00 0. -1.
        -13    1    4    4    0    0  0.48843953088E+01  0.77973861696E+01  0.87978072447E+01  0.12730637257E+02  0.10566000000E+00 0.  1.
        -14    1    4    4    0    0  0.11527109695E+01  0.12940474230E+01  0.11768126283E+01  0.20948005333E+01  0.00000000000E+00 0.  1.
<mgrwt>
<rscale>  0 0.80258072E+02</rscale>
<asrwt>0</asrwt>
<pdfrwt beam="1">  1        1 0.80050750E-02 0.80258072E+02</pdfrwt>
<pdfrwt beam="2">  1       -2 0.47612977E-02 0.80258072E+02</pdfrwt>
<totfact> 0.13121857E+05</totfact>
</mgrwt>
</event>
<event>
 8    1  0.8247621E-018  0.7789610E+02  0.7818608E-02  0.1335130E+00
         -2   -1    0    0    0  501 -0.00000000000E+00  0.00000000000E+00  0.53893016976E+02  0.53893017037E+02  0.25500000000E-02 0.  1.
          1   -1    0    0  501    0  0.00000000000E+00 -0.00000000000E+00 -0.28147439917E+02  0.28147440368E+02  0.50400000000E-02 0. -1.
        -24    2    1    2    0    0  0.00000000000E+00  0.00000000000E+00  0.25745577060E+02  0.82040457405E+02  0.77896096905E+02 0.  0.
         66    2    3    3    0    0 -0.30424912469E+02  0.18533123320E+02  0.29393173675E+02  0.46228893855E+02  0.20000024147E+01 0.  0.
         13    1    3    3    0    0  0.30424912469E+02 -0.18533123320E+02 -0.36475966156E+01  0.35811563549E+02  0.10566000000E+00 0. -1.
         13    1    4    4    0    0 -0.62006221594E+01  0.30455157420E+01  0.61078564324E+01  0.92217110957E+01  0.10566000000E+00 0. -1.
        -13    1    4    4    0    0 -0.16444245035E+02  0.10083228730E+02  0.15508572039E+02  0.24750993255E+02  0.10566000000E+00 0.  1.
        -14    1    4    4    0    0 -0.77800452749E+01  0.54043788482E+01  0.77767452040E+01  0.12256189505E+02  0.00000000000E+00 0.  1.
<mgrwt>
<rscale>  0 0.77896097E+02</rscale>
<asrwt>0</asrwt>
<pdfrwt beam="1">  1        1 0.43303755E-02 0.77896097E+02</pdfrwt>
<pdfrwt beam="2">  1       -2 0.82912333E-02 0.77896097E+02</pdfrwt>
<totfact> 0.12911234E+05</totfact>
</mgrwt>
</event>
<event>
 8    1  0.8247621E-018  0.7890356E+02  0.7818608E-02  0.1332192E+00
         -2   -1    0    0    0  501 -0.00000000000E+00  0.00000000000E+00  0.13028829539E+02  0.13028829789E+02  0.25500000000E-02 0.  1.
          1   -1    0    0  501    0  0.00000000000E+00 -0.00000000000E+00 -0.11946145507E+03  0.11946145518E+03  0.50400000000E-02 0. -1.
        -24    2    1    2    0    0  0.00000000000E+00  0.00000000000E+00 -0.10643262553E+03  0.13249028497E+03  0.78903560331E+02 0.  0.
         66    2    3    3    0    0  0.35653631581E+02 -0.89308074187E+01 -0.77203782838E+02  0.85529906185E+02  0.20000003765E+01 0.  0.
         13    1    3    3    0    0 -0.35653631581E+02  0.89308074187E+01 -0.29228842694E+02  0.46960378782E+02  0.10566000000E+00 0. -1.
         13    1    4    4    0    0  0.35791306024E+01 -0.88858448099E+00 -0.91356716723E+01  0.98524828946E+01  0.10566000000E+00 0.  1.
        -13    1    4    4    0    0  0.11199750038E+02 -0.28431856687E+01 -0.23175216486E+02  0.25896330413E+02  0.10566000000E+00 0. -1.
        -14    1    4    4    0    0  0.20874750941E+02 -0.51990372690E+01 -0.44892894680E+02  0.49781092877E+02  0.00000000000E+00 0.  1.
<mgrwt>
<rscale>  0 0.78903560E+02</rscale>
<asrwt>0</asrwt>
<pdfrwt beam="1">  1        1 0.18378685E-01 0.78903560E+02</pdfrwt>
<pdfrwt beam="2">  1       -2 0.20044354E-02 0.78903560E+02</pdfrwt>
<totfact> 0.15726722E+05</totfact>
</mgrwt>
</event>
<event>
 8    1  0.8247621E-018  0.8231351E+02  0.7818608E-02  0.1322611E+00
         -2   -1    0    0    0  501 -0.00000000000E+00  0.00000000000E+00  0.14606177544E+03  0.14606177546E+03  0.25500000000E-02 0.  1.
          1   -1    0    0  501    0  0.00000000000E+00 -0.00000000000E+00 -0.11597000382E+02  0.11597001477E+02  0.50400000000E-02 0. -1.
        -24    2    1    2    0    0  0.00000000000E+00  0.00000000000E+00  0.13446477505E+03  0.15765877693E+03  0.82313511736E+02 0.  0.
         66    2    3    3    0    0 -0.27618110215E+01  0.27542295800E+02  0.12554594071E+03  0.12857678202E+03  0.19999971335E+01 0.  0.
         13    1    3    3    0    0  0.27618110215E+01 -0.27542295800E+02  0.89188343457E+01  0.29081994914E+02  0.10566000000E+00 0. -1.
         13    1    4    4    0    0 -0.41948881193E+00  0.12980802000E+01  0.50793431357E+01  0.52604062386E+01  0.10566000000E+00 0. -1.
        -13    1    4    4    0    0 -0.14580877895E+01  0.18670329426E+02  0.84523748637E+02  0.86573566801E+02  0.10566000000E+00 0.  1.
        -14    1    4    4    0    0 -0.88423442006E+00  0.75738861736E+01  0.35942848935E+02  0.36742808982E+02  0.00000000000E+00 0.  1.
<mgrwt>
<rscale>  0 0.82313512E+02</rscale>
<asrwt>0</asrwt>
<pdfrwt beam="1">  1        1 0.17841539E-02 0.82313512E+02</pdfrwt>
<pdfrwt beam="2">  1       -2 0.22471044E-01 0.82313512E+02</pdfrwt>
<totfact> 0.88585282E+04</totfact>
</mgrwt>
</event>
<event>
 8    1  0.8247621E-018  0.7895499E+02  0.7818608E-02  0.1332043E+00
         -2   -1    0    0    0  501 -0.00000000000E+00  0.00000000000E+00  0.50802158181E+02  0.50802158245E+02  0.25500000000E-02 0.  1.
          1   -1    0    0  501    0  0.00000000000E+00 -0.00000000000E+00 -0.30677292243E+02  0.30677292657E+02  0.50400000000E-02 0. -1.
        -24    2    1    2    0    0  0.88817841970E-15  0.35527136788E-14  0.20124865938E+02  0.81479450901E+02  0.78954991547E+02 0.  0.
         66    2    3    3    0    0 -0.65428831273E+01  0.28094252552E+02  0.37843556476E+02  0.47625950278E+02  0.20000067622E+01 0.  0.
         13    1    3    3    0    0  0.65428831273E+01 -0.28094252552E+02 -0.17718690538E+02  0.33853500624E+02  0.10566000000E+00 0. -1.
         13    1    4    4    0    0 -0.19217816023E+01  0.10684477247E+02  0.13778582159E+02  0.17541715678E+02  0.10566000000E+00 0. -1.
        -13    1    4    4    0    0 -0.15254763792E+01  0.73661495538E+01  0.10754393662E+02  0.13124609880E+02  0.10566000000E+00 0.  1.
         14    1    4    4    0    0 -0.30956251459E+01  0.10043625751E+02  0.13310580655E+02  0.16959624720E+02  0.00000000000E+00 0. -1.
<mgrwt>
<rscale>  0 0.78954992E+02</rscale>
<asrwt>0</asrwt>
<pdfrwt beam="1">  1        1 0.47195835E-02 0.78954992E+02</pdfrwt>
<pdfrwt beam="2">  1       -2 0.78157166E-02 0.78954992E+02</pdfrwt>
<totfact> 0.12608703E+05</totfact>
</mgrwt>
</event>
<event>
 8    1  0.8247621E-018  0.7956279E+02  0.7818608E-02  0.1330297E+00
          1   -1    0    0  501    0  0.00000000000E+00  0.00000000000E+00  0.28291225444E+03  0.28291225448E+03  0.50400000000E-02 0. -1.
         -2   -1    0    0    0  501 -0.00000000000E+00 -0.00000000000E+00 -0.55938167738E+01  0.55938173551E+01  0.25500000000E-02 0.  1.
        -24    2    1    2    0    0  0.71054273576E-14  0.00000000000E+00  0.27731843767E+03  0.28850607184E+03  0.79562790417E+02 0.  0.
         66    2    3    3    0    0  0.38352445801E+02 -0.84677480656E+01  0.11641072728E+03  0.12287420509E+03  0.19999987948E+01 0.  0.
         13    1    3    3    0    0 -0.38352445801E+02  0.84677480656E+01  0.16090771039E+03  0.16563186675E+03  0.10566000000E+00 0. -1.
         13    1    4    4    0    0  0.57613845610E+01 -0.15601908545E+01  0.18289571654E+02  0.19239213676E+02  0.10566000000E+00 0. -1.
        -13    1    4    4    0    0  0.23614821661E+02 -0.44206703585E+01  0.69353618981E+02  0.73397123638E+02  0.10566000000E+00 0.  1.
        -14    1    4    4    0    0  0.89762395792E+01 -0.24868868526E+01  0.28767536645E+02  0.30237867779E+02  0.00000000000E+00 0.  1.
<mgrwt>
<rscale>  0 0.79562790E+02</rscale>
<asrwt>0</asrwt>
<pdfrwt beam="1">  1        1 0.43524971E-01 0.79562790E+02</pdfrwt>
<pdfrwt beam="2">  1       -2 0.86058707E-03 0.79562790E+02</pdfrwt>
<totfact> 0.18099529E+05</totfact>
</mgrwt>
</event>
<event>
 8    1  0.8247621E-018  0.8134912E+02  0.7818608E-02  0.1325266E+00
         -2   -1    0    0    0  501 -0.00000000000E+00  0.00000000000E+00  0.89059768764E+01  0.89059772415E+01  0.25500000000E-02 0.  1.
          1   -1    0    0  501    0  0.00000000000E+00 -0.00000000000E+00 -0.18576509981E+03  0.18576509988E+03  0.50400000000E-02 0. -1.
        -24    2    1    2    0    0  0.00000000000E+00  0.00000000000E+00 -0.17685912293E+03  0.19467107712E+03  0.81349117402E+02 0.  0.
         66    2    3    3    0    0 -0.16004687655E+02 -0.37340850477E+02 -0.91803582809E+02  0.10041108979E+03  0.19999988194E+01 0.  0.
         13    1    3    3    0    0  0.16004687655E+02  0.37340850477E+02 -0.85055540123E+02  0.94259987327E+02  0.10566000000E+00 0. -1.
         13    1    4    4    0    0 -0.54097255086E+01 -0.11982052087E+02 -0.31362185818E+02  0.34006360664E+02  0.10566000000E+00 0. -1.
        -13    1    4    4    0    0 -0.47435077851E+01 -0.10063297534E+02 -0.24188702674E+02  0.26624712664E+02  0.10566000000E+00 0.  1.
         14    1    4    4    0    0 -0.58514543608E+01 -0.15295500856E+02 -0.36252694318E+02  0.39780016464E+02  0.00000000000E+00 0. -1.
<mgrwt>
<rscale>  0 0.81349117E+02</rscale>
<asrwt>0</asrwt>
<pdfrwt beam="1">  1        1 0.28579243E-01 0.81349117E+02</pdfrwt>
<pdfrwt beam="2">  1       -2 0.13701505E-02 0.81349117E+02</pdfrwt>
<totfact> 0.15722038E+05</totfact>
</mgrwt>
</event>
<event>
 8    1  0.8247621E-018  0.7832238E+02  0.7818608E-02  0.1333881E+00
         -2   -1    0    0    0  501 -0.00000000000E+00  0.00000000000E+00  0.80943313715E+02  0.80943313755E+02  0.25500000000E-02 0.  1.
          1   -1    0    0  501    0  0.00000000000E+00 -0.00000000000E+00 -0.18946575719E+02  0.18946576389E+02  0.50400000000E-02 0. -1.
        -24    2    1    2    0    0  0.00000000000E+00  0.00000000000E+00  0.61996737996E+02  0.99889890144E+02  0.78322376310E+02 0.  0.
         66    2    3    3    0    0  0.25507909522E+02  0.57805555750E+01 -0.61103722194E+01  0.26933342138E+02  0.19999997904E+01 0.  0.
         13    1    3    3    0    0 -0.25507909522E+02 -0.57805555750E+01  0.68107110216E+02  0.72956548006E+02  0.10566000000E+00 0. -1.
         13    1    4    4    0    0  0.25234568534E+01  0.30868819184E+00 -0.10878327954E+01  0.27672490161E+01  0.10566000000E+00 0. -1.
        -13    1    4    4    0    0  0.46025506740E+01  0.13511115136E+01 -0.88280605162E+00  0.48784716448E+01  0.10566000000E+00 0.  1.
        -14    1    4    4    0    0  0.18381901994E+02  0.41207558696E+01 -0.41397333724E+01  0.19287621477E+02  0.00000000000E+00 0.  1.
<mgrwt>
<rscale>  0 0.78322376E+02</rscale>
<asrwt>0</asrwt>
<pdfrwt beam="1">  1        1 0.29148579E-02 0.78322376E+02</pdfrwt>
<pdfrwt beam="2">  1       -2 0.12452817E-01 0.78322376E+02</pdfrwt>
<totfact> 0.11766232E+05</totfact>
</mgrwt>
</event>
<event>
 8    1  0.8247621E-018  0.8221020E+02  0.7818608E-02  0.1322894E+00
         -2   -1    0    0    0  501 -0.00000000000E+00  0.00000000000E+00  0.14025056597E+02  0.14025056829E+02  0.25500000000E-02 0.  1.
          1   -1    0    0  501    0  0.00000000000E+00 -0.00000000000E+00 -0.12047218973E+03  0.12047218984E+03  0.50400000000E-02 0. -1.
        -24    2    1    2    0    0  0.00000000000E+00  0.00000000000E+00 -0.10644713314E+03  0.13449724667E+03  0.82210201363E+02 0.  0.
         66    2    3    3    0    0 -0.25090879220E+02  0.26430651730E+02 -0.22235625193E+02  0.42738210028E+02  0.19999994266E+01 0.  0.
         13    1    3    3    0    0  0.25090879220E+02 -0.26430651730E+02 -0.84211507943E+02  0.91759036639E+02  0.10566000000E+00 0. -1.
         13    1    4    4    0    0 -0.25947373875E+01  0.25328867168E+01 -0.19951516923E+01  0.41400448719E+01  0.10566000000E+00 0.  1.
        -13    1    4    4    0    0 -0.13422051433E+02  0.13421938270E+02 -0.12429050784E+02  0.22689036097E+02  0.10566000000E+00 0.  1.
        -14    1    4    4    0    0 -0.90740904002E+01  0.10475826743E+02 -0.78114227167E+01  0.15909129058E+02  0.00000000000E+00 0.  1.
<mgrwt>
<rscale>  0 0.82210201E+02</rscale>
<asrwt>0</asrwt>
<pdfrwt beam="1">  1        1 0.18534182E-01 0.82210201E+02</pdfrwt>
<pdfrwt beam="2">  1       -2 0.21577011E-02 0.82210201E+02</pdfrwt>
<totfact> 0.14103173E+05</totfact>
</mgrwt>
</event>
<event>
 8    1  0.8247621E-018  0.8287533E+02  0.7818608E-02  0.1321084E+00
         -2   -1    0    0    0  501 -0.00000000000E+00  0.00000000000E+00  0.19000574411E+02  0.19000574582E+02  0.25500000000E-02 0.  1.
          1   -1    0    0  501    0  0.00000000000E+00 -0.00000000000E+00 -0.90369905539E+02  0.90369905679E+02  0.50400000000E-02 0. -1.
        -24    2    1    2    0    0 -0.88817841970E-15  0.00000000000E+00 -0.71369331127E+02  0.10937048026E+03  0.82875331234E+02 0.  0.
         66    2    3    3    0    0 -0.62549439884E+01  0.16451148499E+02  0.13766783755E+02  0.22434102188E+02  0.19999987018E+01 0.  0.
         13    1    3    3    0    0  0.62549439884E+01 -0.16451148499E+02 -0.85136114882E+02  0.86936378073E+02  0.10566000000E+00 0. -1.
         13    1    4    4    0    0 -0.14670120485E+01  0.23315843291E+01  0.21793930613E+01  0.35141610642E+01  0.10566000000E+00 0. -1.
        -13    1    4    4    0    0 -0.22732912945E+01  0.69289586988E+01  0.49291887651E+01  0.88026352802E+01  0.10566000000E+00 0.  1.
         14    1    4    4    0    0 -0.25146406453E+01  0.71906054707E+01  0.66582019287E+01  0.10117305844E+02  0.00000000000E+00 0. -1.
<mgrwt>
<rscale>  0 0.82875331E+02</rscale>
<asrwt>0</asrwt>
<pdfrwt beam="1">  1        1 0.13903062E-01 0.82875331E+02</pdfrwt>
<pdfrwt beam="2">  1       -2 0.29231654E-02 0.82875331E+02</pdfrwt>
<totfact> 0.13130698E+05</totfact>
</mgrwt>
</event>
<event>
 8    1  0.8247621E-018  0.7652353E+02  0.7818608E-02  0.1339217E+00
          1   -1    0    0  501    0  0.00000000000E+00  0.00000000000E+00  0.52628424968E+01  0.52628449101E+01  0.50400000000E-02 0. -1.
         -2   -1    0    0    0  501 -0.00000000000E+00 -0.00000000000E+00 -0.27816952290E+03  0.27816952291E+03  0.25500000000E-02 0.  1.
        -24    2    1    2    0    0  0.00000000000E+00  0.00000000000E+00 -0.27290668040E+03  0.28343236782E+03  0.76523531808E+02 0.  0.
         66    2    3    3    0    0 -0.25569031734E+02  0.25507116270E+02 -0.90052978057E+02  0.97046005686E+02  0.19999996423E+01 0.  0.
         13    1    3    3    0    0  0.25569031734E+02 -0.25507116270E+02 -0.18285370234E+03  0.18638636213E+03  0.10566000000E+00 0. -1.
         13    1    4    4    0    0 -0.10823096786E+02  0.10131420702E+02 -0.37772728485E+02  0.40578014869E+02  0.10566000000E+00 0. -1.
        -13    1    4    4    0    0 -0.25841422364E+01  0.20614789778E+01 -0.82081096201E+01  0.88493906144E+01  0.10566000000E+00 0.  1.
        -14    1    4    4    0    0 -0.12161792711E+02  0.13314216591E+02 -0.44072139951E+02  0.47618600203E+02  0.00000000000E+00 0.  1.
<mgrwt>
<rscale>  0 0.76523532E+02</rscale>
<asrwt>0</asrwt>
<pdfrwt beam="1">  1        1 0.80966848E-03 0.76523532E+02</pdfrwt>
<pdfrwt beam="2">  1       -2 0.42795300E-01 0.76523532E+02</pdfrwt>
<totfact> 0.82017413E+04</totfact>
</mgrwt>
</event>
<event>
 8    1  0.8247621E-018  0.7151354E+02  0.7818608E-02  0.1355021E+00
          1   -1    0    0  501    0  0.00000000000E+00  0.00000000000E+00  0.19275067128E+03  0.19275067135E+03  0.50400000000E-02 0. -1.
         -2   -1    0    0    0  501 -0.00000000000E+00 -0.00000000000E+00 -0.66331630142E+01  0.66331635043E+01  0.25500000000E-02 0.  1.
        -24    2    1    2    0    0  0.00000000000E+00  0.00000000000E+00  0.18611750826E+03  0.19938383485E+03  0.71513542189E+02 0.  0.
         66    2    3    3    0    0 -0.16558042334E+02 -0.30436481659E+02  0.68826629190E+02  0.77082119162E+02  0.20000067990E+01 0.  0.
         13    1    3    3    0    0  0.16558042334E+02  0.30436481659E+02  0.11729087908E+03  0.12230171569E+03  0.10566000000E+00 0. -1.
         13    1    4    4    0    0 -0.23873346435E+01 -0.59120010628E+01  0.12385324007E+02  0.13930489513E+02  0.10566000000E+00 0. -1.
        -13    1    4    4    0    0 -0.11705232737E+01 -0.18569742741E+01  0.44188140425E+01  0.49351352329E+01  0.10566000000E+00 0.  1.
         14    1    4    4    0    0 -0.13000184417E+02 -0.22667506322E+02  0.52022491140E+02  0.58216494416E+02  0.00000000000E+00 0. -1.
<mgrwt>
<rscale>  0 0.71513542E+02</rscale>
<asrwt>0</asrwt>
<pdfrwt beam="1">  1        1 0.29653946E-01 0.71513542E+02</pdfrwt>
<pdfrwt beam="2">  1       -2 0.10204868E-02 0.71513542E+02</pdfrwt>
<totfact> 0.22254851E+05</totfact>
</mgrwt>
</event>
<event>
 8    1  0.8247621E-018  0.7267832E+02  0.7818608E-02  0.1351215E+00
         -2   -1    0    0    0  501 -0.00000000000E+00  0.00000000000E+00  0.14553852523E+02  0.14553852746E+02  0.25500000000E-02 0.  1.
          1   -1    0    0  501    0  0.00000000000E+00 -0.00000000000E+00 -0.90734355629E+02  0.90734355769E+02  0.50400000000E-02 0. -1.
        -24    2    1    2    0    0 -0.35527136788E-14  0.00000000000E+00 -0.76180503106E+02  0.10528820852E+03  0.72678317254E+02 0.  0.
         66    2    3    3    0    0  0.25108110278E+02 -0.20933953241E+02 -0.61019379189E+02  0.69253247123E+02  0.20000001162E+01 0.  0.
         13    1    3    3    0    0 -0.25108110278E+02  0.20933953241E+02 -0.15161123918E+02  0.36034961392E+02  0.10566000000E+00 0. -1.
         13    1    4    4    0    0  0.16163805388E+02 -0.12749833208E+02 -0.37016215469E+02  0.42356088384E+02  0.10566000000E+00 0. -1.
        -13    1    4    4    0    0  0.40425715714E+01 -0.33650537939E+01 -0.10156544757E+02  0.11438205165E+02  0.10566000000E+00 0.  1.
         14    1    4    4    0    0  0.49017333190E+01 -0.48190662394E+01 -0.13846618962E+02  0.15458953575E+02  0.00000000000E+00 0. -1.
<mgrwt>
<rscale>  0 0.72678317E+02</rscale>
<asrwt>0</asrwt>
<pdfrwt beam="1">  1        1 0.13959131E-01 0.72678317E+02</pdfrwt>
<pdfrwt beam="2">  1       -2 0.22390543E-02 0.72678317E+02</pdfrwt>
<totfact> 0.18726742E+05</totfact>
</mgrwt>
</event>
<event>
 8    1  0.8247621E-018  0.7867236E+02  0.7818608E-02  0.1332862E+00
         -2   -1    0    0    0  501 -0.00000000000E+00  0.00000000000E+00  0.34913078702E+01  0.34913088014E+01  0.25500000000E-02 0.  1.
          1   -1    0    0  501    0  0.00000000000E+00 -0.00000000000E+00 -0.44319634250E+03  0.44319634253E+03  0.50400000000E-02 0. -1.
        -24    2    1    2    0    0  0.00000000000E+00  0.00000000000E+00 -0.43970503463E+03  0.44668765133E+03  0.78672360915E+02 0.  0.
         66    2    3    3    0    0  0.41296363365E+01 -0.39091871600E+02 -0.22180608761E+03  0.22527132266E+03  0.19999986373E+01 0.  0.
         13    1    3    3    0    0 -0.41296363365E+01  0.39091871600E+02 -0.21789894702E+03  0.22141632866E+03  0.10566000000E+00 0. -1.
         13    1    4    4    0    0  0.40573261374E+01 -0.34035285445E+02 -0.19447816991E+03  0.19747564986E+03  0.10566000000E+00 0. -1.
        -13    1    4    4    0    0 -0.24884629779E-02 -0.38126210237E+01 -0.19554573947E+02  0.19923067323E+02  0.10566000000E+00 0.  1.
         14    1    4    4    0    0  0.74798662020E-01 -0.12439651322E+01 -0.77733437446E+01  0.78726054811E+01  0.00000000000E+00 0. -1.
<mgrwt>
<rscale>  0 0.78672361E+02</rscale>
<asrwt>0</asrwt>
<pdfrwt beam="1">  1        1 0.68184008E-01 0.78672361E+02</pdfrwt>
<pdfrwt beam="2">  1       -2 0.53712471E-03 0.78672361E+02</pdfrwt>
<totfact> 0.20163084E+05</totfact>
</mgrwt>
</event>
<event>
 8    1  0.8247621E-018  0.7862804E+02  0.7818608E-02  0.1332991E+00
          1   -1    0    0  501    0  0.00000000000E+00  0.00000000000E+00  0.99486642110E+02  0.99486642238E+02  0.50400000000E-02 0. -1.
         -2   -1    0    0    0  501 -0.00000000000E+00 -0.00000000000E+00 -0.15535674129E+02  0.15535674338E+02  0.25500000000E-02 0.  1.
        -24    2    1    2    0    0 -0.17763568394E-14  0.00000000000E+00  0.83950967981E+02  0.11502231658E+03  0.78628037528E+02 0.  0.
         66    2    3    3    0    0 -0.13310717284E+02 -0.17017886436E+02 -0.60009329622E+01  0.22512104704E+02  0.20000021028E+01 0.  0.
         13    1    3    3    0    0  0.13310717284E+02  0.17017886436E+02  0.89951900943E+02  0.92510211872E+02  0.10566000000E+00 0. -1.
         13    1    4    4    0    0 -0.10492676539E+02 -0.12919786102E+02 -0.43061227096E+01  0.17192178184E+02  0.10566000000E+00 0.  1.
        -13    1    4    4    0    0 -0.25900214340E+01 -0.32804001274E+01 -0.15485546692E+01  0.44585223587E+01  0.10566000000E+00 0. -1.
        -14    1    4    4    0    0 -0.22801931163E+00 -0.81770020576E+00 -0.14625558338E+00  0.86140416104E+00  0.00000000000E+00 0.  1.
<mgrwt>
<rscale>  0 0.78628038E+02</rscale>
<asrwt>0</asrwt>
<pdfrwt beam="1">  1        1 0.15305637E-01 0.78628038E+02</pdfrwt>
<pdfrwt beam="2">  1       -2 0.23901037E-02 0.78628038E+02</pdfrwt>
<totfact> 0.15388607E+05</totfact>
</mgrwt>
</event>
<event>
 8    1  0.8247621E-018  0.8255633E+02  0.7818608E-02  0.1321950E+00
         -2   -1    0    0    0  501 -0.00000000000E+00  0.00000000000E+00  0.10177924858E+02  0.10177925177E+02  0.25500000000E-02 0.  1.
          1   -1    0    0  501    0  0.00000000000E+00 -0.00000000000E+00 -0.16741004632E+03  0.16741004640E+03  0.50400000000E-02 0. -1.
        -24    2    1    2    0    0  0.00000000000E+00  0.00000000000E+00 -0.15723212146E+03  0.17758797157E+03  0.82556330030E+02 0.  0.
         66    2    3    3    0    0  0.99019550436E+01 -0.31510565483E+02 -0.25493567355E+02  0.41771837580E+02  0.19999968800E+01 0.  0.
         13    1    3    3    0    0 -0.99019550436E+01  0.31510565483E+02 -0.13173855411E+03  0.13581613400E+03  0.10566000000E+00 0. -1.
         13    1    4    4    0    0  0.81053389934E+01 -0.24473988780E+02 -0.19359407023E+02  0.32240819644E+02  0.10566000000E+00 0. -1.
        -13    1    4    4    0    0  0.86183130259E+00 -0.34190865057E+01 -0.25427734987E+01  0.43485361708E+01  0.10566000000E+00 0.  1.
         14    1    4    4    0    0  0.93478474753E+00 -0.36174901976E+01 -0.35913868336E+01  0.51824817648E+01  0.00000000000E+00 0. -1.
<mgrwt>
<rscale>  0 0.82556330E+02</rscale>
<asrwt>0</asrwt>
<pdfrwt beam="1">  1        1 0.25755390E-01 0.82556330E+02</pdfrwt>
<pdfrwt beam="2">  1       -2 0.15658347E-02 0.82556330E+02</pdfrwt>
<totfact> 0.14816928E+05</totfact>
</mgrwt>
</event>
<event>
 8    1  0.8247621E-018  0.9018595E+02  0.7818608E-02  0.1302402E+00
         -2   -1    0    0    0  501 -0.00000000000E+00  0.00000000000E+00  0.18106418350E+03  0.18106418352E+03  0.25500000000E-02 0.  1.
          1   -1    0    0  501    0  0.00000000000E+00 -0.00000000000E+00 -0.11230140734E+02  0.11230141865E+02  0.50400000000E-02 0. -1.
        -24    2    1    2    0    0  0.00000000000E+00 -0.71054273576E-14  0.16983404277E+03  0.19229432539E+03  0.90185949530E+02 0.  0.
         66    2    3    3    0    0  0.49851121543E+00 -0.36068763899E+02  0.14257408186E+03  0.14708015863E+03  0.20000006131E+01 0.  0.
         13    1    3    3    0    0 -0.49851121543E+00  0.36068763899E+02  0.27259960913E+02  0.45214166758E+02  0.10566000000E+00 0. -1.
         13    1    4    4    0    0  0.70339541989E+00 -0.24449840793E+02  0.94779664719E+02  0.97885062640E+02  0.10566000000E+00 0. -1.
        -13    1    4    4    0    0 -0.98410046306E-01 -0.10804012341E+02  0.45205595871E+02  0.46478956843E+02  0.10566000000E+00 0.  1.
         14    1    4    4    0    0 -0.10647415815E+00 -0.81491076510E+00  0.25888212683E+01  0.27161391460E+01  0.00000000000E+00 0. -1.
<mgrwt>
<rscale>  0 0.90185950E+02</rscale>
<asrwt>0</asrwt>
<pdfrwt beam="1">  1        1 0.17277143E-02 0.90185950E+02</pdfrwt>
<pdfrwt beam="2">  1       -2 0.27856024E-01 0.90185950E+02</pdfrwt>
<totfact> 0.64875562E+04</totfact>
</mgrwt>
</event>
<event>
 8    1  0.8247621E-018  0.7950357E+02  0.7818608E-02  0.1330466E+00
          1   -1    0    0  501    0  0.00000000000E+00  0.00000000000E+00  0.14732898711E+03  0.14732898720E+03  0.50400000000E-02 0. -1.
         -2   -1    0    0    0  501 -0.00000000000E+00 -0.00000000000E+00 -0.10725684967E+02  0.10725685270E+02  0.25500000000E-02 0.  1.
        -24    2    1    2    0    0  0.00000000000E+00  0.00000000000E+00  0.13660330214E+03  0.15805467247E+03  0.79503568045E+02 0.  0.
         66    2    3    3    0    0 -0.10519826669E+02  0.27065738216E+02  0.14448571883E+02  0.32495880551E+02  0.20000212419E+01 0.  0.
         13    1    3    3    0    0  0.10519826669E+02 -0.27065738216E+02  0.12215473026E+03  0.12555879192E+03  0.10566000000E+00 0. -1.
         13    1    4    4    0    0 -0.28663472936E+01  0.81213347894E+01  0.38347300781E+01  0.94280615387E+01  0.10566000000E+00 0. -1.
        -13    1    4    4    0    0 -0.21599639775E+01  0.55040926409E+01  0.23687597827E+01  0.63704526627E+01  0.10566000000E+00 0.  1.
        -14    1    4    4    0    0 -0.54935153979E+01  0.13440310785E+02  0.82450820226E+01  0.16697366349E+02  0.00000000000E+00 0.  1.
<mgrwt>
<rscale>  0 0.79503568E+02</rscale>
<asrwt>0</asrwt>
<pdfrwt beam="1">  1        1 0.22665996E-01 0.79503568E+02</pdfrwt>
<pdfrwt beam="2">  1       -2 0.16501056E-02 0.79503568E+02</pdfrwt>
<totfact> 0.16000230E+05</totfact>
</mgrwt>
</event>
<event>
 8    1  0.8247621E-018  0.7729421E+02  0.7818608E-02  0.1336910E+00
          1   -1    0    0  501    0  0.00000000000E+00  0.00000000000E+00  0.51728593594E+02  0.51728593840E+02  0.50400000000E-02 0. -1.
         -2   -1    0    0    0  501 -0.00000000000E+00 -0.00000000000E+00 -0.28873752625E+02  0.28873752738E+02  0.25500000000E-02 0.  1.
        -24    2    1    2    0    0  0.00000000000E+00 -0.35527136788E-14  0.22854840969E+02  0.80602346577E+02  0.77294207532E+02 0.  0.
         66    2    3    3    0    0  0.19627107366E+02 -0.30370468633E+02 -0.27103602912E+01  0.36317141508E+02  0.20000014577E+01 0.  0.
         13    1    3    3    0    0 -0.19627107366E+02  0.30370468633E+02  0.25565201260E+02  0.44285205070E+02  0.10566000000E+00 0. -1.
         13    1    4    4    0    0  0.43213821343E+00 -0.83377087357E+00 -0.29660512646E+00  0.99048268120E+00  0.10566000000E+00 0. -1.
        -13    1    4    4    0    0  0.16516288716E+02 -0.25730942267E+02 -0.24356766080E+01  0.30672672976E+02  0.10566000000E+00 0.  1.
        -14    1    4    4    0    0  0.26786804360E+01 -0.38057554927E+01  0.21921443245E-01  0.46539858507E+01  0.00000000000E+00 0.  1.
<mgrwt>
<rscale>  0 0.77294208E+02</rscale>
<asrwt>0</asrwt>
<pdfrwt beam="1">  1        1 0.79582451E-02 0.77294208E+02</pdfrwt>
<pdfrwt beam="2">  1       -2 0.44421159E-02 0.77294208E+02</pdfrwt>
<totfact> 0.14549654E+05</totfact>
</mgrwt>
</event>
<event>
 8    1  0.8247621E-018  0.7962231E+02  0.7818608E-02  0.1330127E+00
          1   -1    0    0  501    0  0.00000000000E+00  0.00000000000E+00  0.69624490092E+01  0.69624508334E+01  0.50400000000E-02 0. -1.
         -2   -1    0    0    0  501 -0.00000000000E+00 -0.00000000000E+00 -0.22763943557E+03  0.22763943559E+03  0.25500000000E-02 0.  1.
        -24    2    1    2    0    0  0.17763568394E-14  0.00000000000E+00 -0.22067698657E+03  0.23460188642E+03  0.79622312911E+02 0.  0.
         66    2    3    3    0    0 -0.10888370670E+02 -0.33083788568E+02 -0.16707064855E+03  0.17067423730E+03  0.19999979782E+01 0.  0.
         13    1    3    3    0    0  0.10888370670E+02  0.33083788568E+02 -0.53606338020E+02  0.63927649118E+02  0.10566000000E+00 0. -1.
         13    1    4    4    0    0 -0.41149805111E+01 -0.10888994950E+02 -0.57726322666E+02  0.58888392474E+02  0.10566000000E+00 0. -1.
        -13    1    4    4    0    0 -0.46960071060E+01 -0.16956626683E+02 -0.81778599905E+02  0.83650046250E+02  0.10566000000E+00 0.  1.
        -14    1    4    4    0    0 -0.20773830526E+01 -0.52381669360E+01 -0.27565725974E+02  0.28135798579E+02  0.00000000000E+00 0.  1.
<mgrwt>
<rscale>  0 0.79622313E+02</rscale>
<asrwt>0</asrwt>
<pdfrwt beam="1">  1        1 0.10711463E-02 0.79622313E+02</pdfrwt>
<pdfrwt beam="2">  1       -2 0.35021446E-01 0.79622313E+02</pdfrwt>
<totfact> 0.81508519E+04</totfact>
</mgrwt>
</event>
<event>
 8    1  0.8247621E-018  0.7313749E+02  0.7818608E-02  0.1349738E+00
         -2   -1    0    0    0  501 -0.00000000000E+00  0.00000000000E+00  0.39054423623E+03  0.39054423623E+03  0.25500000000E-02 0.  1.
          1   -1    0    0  501    0  0.00000000000E+00 -0.00000000000E+00 -0.34241249486E+01  0.34241286579E+01  0.50400000000E-02 0. -1.
        -24    2    1    2    0    0 -0.35527136788E-14  0.00000000000E+00  0.38712011128E+03  0.39396836489E+03  0.73137486834E+02 0.  0.
         66    2    3    3    0    0 -0.29900974376E+02 -0.10264089980E+02  0.29242161579E+03  0.29413231918E+03  0.19999983835E+01 0.  0.
         13    1    3    3    0    0  0.29900974376E+02  0.10264089980E+02  0.94698495486E+02  0.99836045711E+02  0.10566000000E+00 0. -1.
         13    1    4    4    0    0 -0.13076329517E+02 -0.55087170012E+01  0.13138606457E+03  0.13215008696E+03  0.10566000000E+00 0. -1.
        -13    1    4    4    0    0 -0.11073198802E+02 -0.32518594360E+01  0.10547494367E+03  0.10610450145E+03  0.10566000000E+00 0.  1.
         14    1    4    4    0    0 -0.57514460572E+01 -0.15035135424E+01  0.55560607545E+02  0.55877730765E+02  0.00000000000E+00 0. -1.
<mgrwt>
<rscale>  0 0.73137487E+02</rscale>
<asrwt>0</asrwt>
<pdfrwt beam="1">  1        1 0.52678892E-03 0.73137487E+02</pdfrwt>
<pdfrwt beam="2">  1       -2 0.60083709E-01 0.73137487E+02</pdfrwt>
<totfact> 0.75617263E+04</totfact>
</mgrwt>
</event>
<event>
 8    1  0.8247621E-018  0.7965561E+02  0.7818608E-02  0.1330032E+00
          1   -1    0    0  501    0  0.00000000000E+00  0.00000000000E+00  0.62098294355E+02  0.62098294560E+02  0.50400000000E-02 0. -1.
         -2   -1    0    0    0  501 -0.00000000000E+00 -0.00000000000E+00 -0.25544242949E+02  0.25544243076E+02  0.25500000000E-02 0.  1.
        -24    2    1    2    0    0  0.00000000000E+00  0.00000000000E+00  0.36554051407E+02  0.87642537636E+02  0.79655607015E+02 0.  0.
         66    2    3    3    0    0 -0.85689990054E+01  0.32902798200E+02 -0.44800498927E+01  0.34352477523E+02  0.19999979016E+01 0.  0.
         13    1    3    3    0    0  0.85689990054E+01 -0.32902798200E+02  0.41034101299E+02  0.53290060113E+02  0.10566000000E+00 0. -1.
         13    1    4    4    0    0 -0.29503648896E+01  0.98830688348E+01 -0.18037169450E+01  0.10471115577E+02  0.10566000000E+00 0. -1.
        -13    1    4    4    0    0 -0.48690293251E+01  0.21001088972E+02 -0.27079636400E+01  0.21727802827E+02  0.10566000000E+00 0.  1.
         14    1    4    4    0    0 -0.74960479083E+00  0.20186403927E+01  0.31630692348E-01  0.21535591188E+01  0.00000000000E+00 0. -1.
<mgrwt>
<rscale>  0 0.79655607E+02</rscale>
<asrwt>0</asrwt>
<pdfrwt beam="1">  1        1 0.95535837E-02 0.79655607E+02</pdfrwt>
<pdfrwt beam="2">  1       -2 0.39298836E-02 0.79655607E+02</pdfrwt>
<totfact> 0.13774075E+05</totfact>
</mgrwt>
</event>
<event>
 8    1  0.8247621E-018  0.8051805E+02  0.7818608E-02  0.1327588E+00
         -2   -1    0    0    0  501 -0.00000000000E+00  0.00000000000E+00  0.27073974144E+02  0.27073974264E+02  0.25500000000E-02 0.  1.
          1   -1    0    0  501    0  0.00000000000E+00 -0.00000000000E+00 -0.59865204198E+02  0.59865204410E+02  0.50400000000E-02 0. -1.
        -24    2    1    2    0    0  0.00000000000E+00 -0.35527136788E-14 -0.32791230054E+02  0.86939178673E+02  0.80518047790E+02 0.  0.
         66    2    3    3    0    0  0.91560693047E+01 -0.21795883929E+02  0.18746510123E+02  0.30237820771E+02  0.20000004616E+01 0.  0.
         13    1    3    3    0    0 -0.91560693047E+01  0.21795883929E+02 -0.51537740177E+02  0.56701357902E+02  0.10566000000E+00 0. -1.
         13    1    4    4    0    0  0.74258184743E+00 -0.29023165246E+01  0.28261238308E+01  0.41198311800E+01  0.10566000000E+00 0. -1.
        -13    1    4    4    0    0  0.60285778490E+01 -0.13937717047E+02  0.12175033126E+02  0.19463974492E+02  0.10566000000E+00 0.  1.
         14    1    4    4    0    0  0.23849096082E+01 -0.49558503574E+01  0.37453531663E+01  0.66540150996E+01  0.00000000000E+00 0. -1.
<mgrwt>
<rscale>  0 0.80518048E+02</rscale>
<asrwt>0</asrwt>
<pdfrwt beam="1">  1        1 0.92100315E-02 0.80518048E+02</pdfrwt>
<pdfrwt beam="2">  1       -2 0.41652268E-02 0.80518048E+02</pdfrwt>
<totfact> 0.13294893E+05</totfact>
</mgrwt>
</event>
<event>
 8    1  0.8247621E-018  0.7953422E+02  0.7818608E-02  0.1330378E+00
         -2   -1    0    0    0  501 -0.00000000000E+00  0.00000000000E+00  0.14746193342E+03  0.14746193345E+03  0.25500000000E-02 0.  1.
          1   -1    0    0  501    0  0.00000000000E+00 -0.00000000000E+00 -0.10724278005E+02  0.10724279190E+02  0.50400000000E-02 0. -1.
        -24    2    1    2    0    0  0.00000000000E+00 -0.35527136788E-14  0.13673765542E+03  0.15818621264E+03  0.79534215648E+02 0.  0.
         66    2    3    3    0    0 -0.76150232101E+01  0.27238290179E+02  0.12394147562E+03  0.12714323578E+03  0.19999991153E+01 0.  0.
         13    1    3    3    0    0  0.76150232101E+01 -0.27238290179E+02  0.12796179799E+02  0.31042976852E+02  0.10566000000E+00 0. -1.
         13    1    4    4    0    0 -0.54394873994E+00  0.16431625695E+01  0.60507155091E+01  0.62942978695E+01  0.10566000000E+00 0. -1.
        -13    1    4    4    0    0 -0.19533312727E+01  0.82923788631E+01  0.39478381494E+02  0.40387285372E+02  0.10566000000E+00 0.  1.
        -14    1    4    4    0    0 -0.51177431975E+01  0.17302748746E+02  0.78412378615E+02  0.80461652541E+02  0.00000000000E+00 0.  1.
<mgrwt>
<rscale>  0 0.79534216E+02</rscale>
<asrwt>0</asrwt>
<pdfrwt beam="1">  1        1 0.16498891E-02 0.79534216E+02</pdfrwt>
<pdfrwt beam="2">  1       -2 0.22686451E-01 0.79534216E+02</pdfrwt>
<totfact> 0.96477061E+04</totfact>
</mgrwt>
</event>
<event>
 8    1  0.8247621E-018  0.8095583E+02  0.7818608E-02  0.1326361E+00
          1   -1    0    0  501    0  0.00000000000E+00  0.00000000000E+00  0.13260416069E+02  0.13260417027E+02  0.50400000000E-02 0. -1.
         -2   -1    0    0    0  501 -0.00000000000E+00 -0.00000000000E+00 -0.12356034124E+03  0.12356034127E+03  0.25500000000E-02 0.  1.
        -24    2    1    2    0    0 -0.88817841970E-15  0.71054273576E-14 -0.11029992517E+03  0.13682075829E+03  0.80955829977E+02 0.  0.
         66    2    3    3    0    0  0.79640849988E+01 -0.35992778191E+02 -0.83339751180E+02  0.91150539579E+02  0.20000017967E+01 0.  0.
         13    1    3    3    0    0 -0.79640849988E+01  0.35992778191E+02 -0.26960173992E+02  0.45670218715E+02  0.10566000000E+00 0. -1.
         13    1    4    4    0    0  0.41880395745E+01 -0.15447954064E+02 -0.36823705820E+02  0.40151904496E+02  0.10566000000E+00 0. -1.
        -13    1    4    4    0    0  0.35337786033E+01 -0.17536752243E+02 -0.39804134976E+02  0.43639495823E+02  0.10566000000E+00 0.  1.
         14    1    4    4    0    0  0.24226682096E+00 -0.30080718832E+01 -0.67119103828E+01  0.73591392604E+01  0.00000000000E+00 0. -1.
<mgrwt>
<rscale>  0 0.80955830E+02</rscale>
<asrwt>0</asrwt>
<pdfrwt beam="1">  1        1 0.20400642E-02 0.80955830E+02</pdfrwt>
<pdfrwt beam="2">  1       -2 0.19009282E-01 0.80955830E+02</pdfrwt>
<totfact> 0.97296611E+04</totfact>
</mgrwt>
</event>
<event>
 8    1  0.8247621E-018  0.8220054E+02  0.7818608E-02  0.1322920E+00
         -2   -1    0    0    0  501 -0.00000000000E+00  0.00000000000E+00  0.28718503475E+02  0.28718503588E+02  0.25500000000E-02 0.  1.
          1   -1    0    0  501    0  0.00000000000E+00 -0.00000000000E+00 -0.58820344188E+02  0.58820344404E+02  0.50400000000E-02 0. -1.
        -24    2    1    2    0    0  0.00000000000E+00 -0.17763568394E-14 -0.30101840713E+02  0.87538847992E+02  0.82200541930E+02 0.  0.
         66    2    3    3    0    0  0.28699803028E+02 -0.14906167375E+02  0.11909844414E+02  0.34521253074E+02  0.20000000427E+01 0.  0.
         13    1    3    3    0    0 -0.28699803028E+02  0.14906167375E+02 -0.42011685127E+02  0.53017594918E+02  0.10566000000E+00 0. -1.
         13    1    4    4    0    0  0.97530914904E+01 -0.54984350099E+01  0.41984664719E+01  0.11958004262E+02  0.10566000000E+00 0.  1.
        -13    1    4    4    0    0  0.47953962779E+01 -0.24595580794E+01  0.13041336091E+01  0.55459156065E+01  0.10566000000E+00 0. -1.
         14    1    4    4    0    0  0.14151315260E+02 -0.69481742858E+01  0.64072443330E+01  0.17017333206E+02  0.00000000000E+00 0. -1.
<mgrwt>
<rscale>  0 0.82200542E+02</rscale>
<asrwt>0</asrwt>
<pdfrwt beam="1">  1        1 0.90492838E-02 0.82200542E+02</pdfrwt>
<pdfrwt beam="2">  1       -2 0.44182313E-02 0.82200542E+02</pdfrwt>
<totfact> 0.12520774E+05</totfact>
</mgrwt>
</event>
<event>
 8    1  0.8247621E-018  0.8141871E+02  0.7818608E-02  0.1325073E+00
         -2   -1    0    0    0  501 -0.00000000000E+00  0.00000000000E+00  0.10930268552E+02  0.10930268849E+02  0.25500000000E-02 0.  1.
          1   -1    0    0  501    0  0.00000000000E+00 -0.00000000000E+00 -0.15162038026E+03  0.15162038034E+03  0.50400000000E-02 0. -1.
        -24    2    1    2    0    0  0.00000000000E+00  0.88817841970E-15 -0.14069011171E+03  0.16255064919E+03  0.81418708050E+02 0.  0.
         66    2    3    3    0    0 -0.29372401717E+02  0.46244468254E+01 -0.14946987513E+02  0.33339705626E+02  0.20000111126E+01 0.  0.
         13    1    3    3    0    0  0.29372401717E+02 -0.46244468254E+01 -0.12574312419E+03  0.12921094357E+03  0.10566000000E+00 0. -1.
         13    1    4    4    0    0 -0.14184562907E+02  0.23853808686E+01 -0.76938107297E+01  0.16312503006E+02  0.10566000000E+00 0. -1.
        -13    1    4    4    0    0 -0.57729947973E+01  0.11472249424E+01 -0.33820487055E+01  0.67891834178E+01  0.10566000000E+00 0.  1.
         14    1    4    4    0    0 -0.94148440125E+01  0.10918410144E+01 -0.38711280774E+01  0.10238019202E+02  0.00000000000E+00 0. -1.
<mgrwt>
<rscale>  0 0.81418708E+02</rscale>
<asrwt>0</asrwt>
<pdfrwt beam="1">  1        1 0.23326211E-01 0.81418708E+02</pdfrwt>
<pdfrwt beam="2">  1       -2 0.16815799E-02 0.81418708E+02</pdfrwt>
<totfact> 0.15093370E+05</totfact>
</mgrwt>
</event>
<event>
 8    1  0.8247621E-018  0.8275039E+02  0.7818608E-02  0.1321423E+00
         -2   -1    0    0    0  501 -0.00000000000E+00  0.00000000000E+00  0.17814773140E+03  0.17814773142E+03  0.25500000000E-02 0.  1.
          1   -1    0    0  501    0  0.00000000000E+00 -0.00000000000E+00 -0.96094780674E+01  0.96094793891E+01  0.50400000000E-02 0. -1.
        -24    2    1    2    0    0  0.00000000000E+00  0.71054273576E-14  0.16853825333E+03  0.18775721080E+03  0.82750391985E+02 0.  0.
         66    2    3    3    0    0 -0.99624959481E+01  0.40132717909E+02  0.84036009155E+02  0.93679972288E+02  0.20000002160E+01 0.  0.
         13    1    3    3    0    0  0.99624959481E+01 -0.40132717909E+02  0.84502244176E+02  0.94077238517E+02  0.10566000000E+00 0. -1.
         13    1    4    4    0    0 -0.30148487212E+01  0.11687401465E+02  0.22823213586E+02  0.25818499342E+02  0.10566000000E+00 0.  1.
        -13    1    4    4    0    0 -0.18774543610E+01  0.86896245959E+01  0.17864680641E+02  0.19954758554E+02  0.10566000000E+00 0.  1.
        -14    1    4    4    0    0 -0.50701928659E+01  0.19755691849E+02  0.43348114927E+02  0.47906714392E+02  0.00000000000E+00 0.  1.
<mgrwt>
<rscale>  0 0.82750392E+02</rscale>
<asrwt>0</asrwt>
<pdfrwt beam="1">  1        1 0.14783816E-02 0.82750392E+02</pdfrwt>
<pdfrwt beam="2">  1       -2 0.27407339E-01 0.82750392E+02</pdfrwt>
<totfact> 0.81560721E+04</totfact>
</mgrwt>
</event>
<event>
 8    1  0.8247621E-018  0.8034066E+02  0.7818608E-02  0.1328087E+00
         -2   -1    0    0    0  501 -0.00000000000E+00  0.00000000000E+00  0.53328479527E+02  0.53328479588E+02  0.25500000000E-02 0.  1.
          1   -1    0    0  501    0  0.00000000000E+00 -0.00000000000E+00 -0.30258793248E+02  0.30258793668E+02  0.50400000000E-02 0. -1.
        -24    2    1    2    0    0 -0.35527136788E-14  0.00000000000E+00  0.23069686280E+02  0.83587273256E+02  0.80340661096E+02 0.  0.
         66    2    3    3    0    0 -0.31664379218E+02 -0.21467798579E+02  0.24205576215E+02  0.45314558470E+02  0.20000005643E+01 0.  0.
         13    1    3    3    0    0  0.31664379218E+02  0.21467798579E+02 -0.11358899359E+01  0.38272714786E+02  0.10566000000E+00 0. -1.
         13    1    4    4    0    0 -0.36268687962E+00 -0.16065690700E+00  0.35629814652E+00  0.54356675692E+00  0.10566000000E+00 0.  1.
        -13    1    4    4    0    0 -0.44123089265E+01 -0.27583172408E+01  0.27985352529E+01  0.59092933301E+01  0.10566000000E+00 0. -1.
        -14    1    4    4    0    0 -0.26889383412E+02 -0.18548824432E+02  0.21050742816E+02  0.38861698383E+02  0.00000000000E+00 0.  1.
<mgrwt>
<rscale>  0 0.80340661E+02</rscale>
<asrwt>0</asrwt>
<pdfrwt beam="1">  1        1 0.46551991E-02 0.80340661E+02</pdfrwt>
<pdfrwt beam="2">  1       -2 0.82043814E-02 0.80340661E+02</pdfrwt>
<totfact> 0.11966181E+05</totfact>
</mgrwt>
</event>
<event>
 8    1  0.8247621E-018  0.8041876E+02  0.7818608E-02  0.1327867E+00
         -2   -1    0    0    0  501 -0.00000000000E+00  0.00000000000E+00  0.16034964552E+03  0.16034964554E+03  0.25500000000E-02 0.  1.
          1   -1    0    0  501    0  0.00000000000E+00 -0.00000000000E+00 -0.10082929545E+02  0.10082930804E+02  0.50400000000E-02 0. -1.
        -24    2    1    2    0    0  0.00000000000E+00  0.00000000000E+00  0.15026671597E+03  0.17043257634E+03  0.80418761178E+02 0.  0.
         66    2    3    3    0    0  0.16537258384E+02  0.24166643478E+02  0.13350056689E+03  0.13668909562E+03  0.19999826809E+01 0.  0.
         13    1    3    3    0    0 -0.16537258384E+02 -0.24166643478E+02  0.16766149082E+02  0.33743480717E+02  0.10566000000E+00 0. -1.
         13    1    4    4    0    0  0.31656472642E+01  0.47712903829E+01  0.24926972681E+02  0.25576388830E+02  0.10566000000E+00 0.  1.
        -13    1    4    4    0    0  0.10177712323E+02  0.15939664001E+02  0.86762266571E+02  0.88799553947E+02  0.10566000000E+00 0. -1.
        -14    1    4    4    0    0  0.31938987969E+01  0.34556890937E+01  0.21811327638E+02  0.22313152847E+02  0.00000000000E+00 0.  1.
<mgrwt>
<rscale>  0 0.80418761E+02</rscale>
<asrwt>0</asrwt>
<pdfrwt beam="1">  1        1 0.15512202E-02 0.80418761E+02</pdfrwt>
<pdfrwt beam="2">  1       -2 0.24669174E-01 0.80418761E+02</pdfrwt>
<totfact> 0.91177406E+04</totfact>
</mgrwt>
</event>
<event>
 8    1  0.8247621E-018  0.7202648E+02  0.7818608E-02  0.1353334E+00
          1   -1    0    0  501    0  0.00000000000E+00  0.00000000000E+00  0.47623569975E+01  0.47623596644E+01  0.50400000000E-02 0. -1.
         -2   -1    0    0    0  501 -0.00000000000E+00 -0.00000000000E+00 -0.27233425560E+03  0.27233425561E+03  0.25500000000E-02 0.  1.
        -24    2    1    2    0    0  0.35527136788E-14  0.00000000000E+00 -0.26757189860E+03  0.27709661527E+03  0.72026476214E+02 0.  0.
         66    2    3    3    0    0 -0.25286563985E+02 -0.56461071340E+01 -0.22996436558E+03  0.23142795481E+03  0.19999977249E+01 0.  0.
         13    1    3    3    0    0  0.25286563985E+02  0.56461071340E+01 -0.37607533022E+02  0.45668660458E+02  0.10566000000E+00 0. -1.
         13    1    4    4    0    0 -0.71074973295E+01 -0.21349619021E+01 -0.71103435763E+02  0.71489749769E+02  0.10566000000E+00 0. -1.
        -13    1    4    4    0    0 -0.87026717940E+01 -0.14735572412E+01 -0.78575662313E+02  0.79069929425E+02  0.10566000000E+00 0.  1.
         14    1    4    4    0    0 -0.94763948617E+01 -0.20375879906E+01 -0.80285267500E+02  0.80868275621E+02  0.00000000000E+00 0. -1.
<mgrwt>
<rscale>  0 0.72026476E+02</rscale>
<asrwt>0</asrwt>
<pdfrwt beam="1">  1        1 0.73267073E-03 0.72026476E+02</pdfrwt>
<pdfrwt beam="2">  1       -2 0.41897565E-01 0.72026476E+02</pdfrwt>
<totfact> 0.96851316E+04</totfact>
</mgrwt>
</event>
<event>
 8    1  0.8247621E-018  0.8193380E+02  0.7818608E-02  0.1323651E+00
          1   -1    0    0  501    0  0.00000000000E+00  0.00000000000E+00  0.61465841660E+02  0.61465841867E+02  0.50400000000E-02 0. -1.
         -2   -1    0    0    0  501 -0.00000000000E+00 -0.00000000000E+00 -0.27304385151E+02  0.27304385270E+02  0.25500000000E-02 0.  1.
        -24    2    1    2    0    0  0.88817841970E-15  0.00000000000E+00  0.34161456509E+02  0.88770227138E+02  0.81933803251E+02 0.  0.
         66    2    3    3    0    0 -0.65770640755E+01  0.36144715096E+02 -0.24886211514E+01  0.36876705791E+02  0.19999983870E+01 0.  0.
         13    1    3    3    0    0  0.65770640755E+01 -0.36144715096E+02  0.36650077660E+02  0.51893521347E+02  0.10566000000E+00 0. -1.
         13    1    4    4    0    0 -0.56782647302E+00  0.56847139973E+01 -0.91665569002E+00  0.57870391241E+01  0.10566000000E+00 0. -1.
        -13    1    4    4    0    0 -0.20152735907E+01  0.94906916283E+01 -0.59127971759E+00  0.97208708955E+01  0.10566000000E+00 0.  1.
         14    1    4    4    0    0 -0.39939640118E+01  0.20969309470E+02 -0.98068574375E+00  0.21368795771E+02  0.00000000000E+00 0. -1.
<mgrwt>
<rscale>  0 0.81933803E+02</rscale>
<asrwt>0</asrwt>
<pdfrwt beam="1">  1        1 0.94562833E-02 0.81933803E+02</pdfrwt>
<pdfrwt beam="2">  1       -2 0.42006747E-02 0.81933803E+02</pdfrwt>
<totfact> 0.12723186E+05</totfact>
</mgrwt>
</event>
<event>
 8    1  0.8247621E-018  0.7996164E+02  0.7818608E-02  0.1329160E+00
          1   -1    0    0  501    0  0.00000000000E+00  0.00000000000E+00  0.22975367915E+02  0.22975368468E+02  0.50400000000E-02 0. -1.
         -2   -1    0    0    0  501 -0.00000000000E+00 -0.00000000000E+00 -0.69573035713E+02  0.69573035760E+02  0.25500000000E-02 0.  1.
        -24    2    1    2    0    0  0.00000000000E+00  0.00000000000E+00 -0.46597667798E+02  0.92548404228E+02  0.79961643811E+02 0.  0.
         66    2    3    3    0    0  0.12158933020E+02 -0.12857273247E+02 -0.64775665452E+02  0.67179133639E+02  0.20000085587E+01 0.  0.
         13    1    3    3    0    0 -0.12158933020E+02  0.12857273247E+02  0.18177997654E+02  0.25369270589E+02  0.10566000000E+00 0. -1.
         13    1    4    4    0    0  0.34387465971E+01 -0.26909849221E+01 -0.16221133551E+02  0.16798890312E+02  0.10566000000E+00 0. -1.
        -13    1    4    4    0    0  0.26841194221E+01 -0.38329413649E+01 -0.15998097453E+02  0.16668719889E+02  0.10566000000E+00 0.  1.
        -14    1    4    4    0    0  0.60360670003E+01 -0.63333469596E+01 -0.32556434448E+02  0.33711523438E+02  0.00000000000E+00 0.  1.
<mgrwt>
<rscale>  0 0.79961644E+02</rscale>
<asrwt>0</asrwt>
<pdfrwt beam="1">  1        1 0.35346721E-02 0.79961644E+02</pdfrwt>
<pdfrwt beam="2">  1       -2 0.10703544E-01 0.79961644E+02</pdfrwt>
<totfact> 0.11519257E+05</totfact>
</mgrwt>
</event>
<event>
 8    1  0.8247621E-018  0.7904011E+02  0.7818608E-02  0.1331798E+00
          1   -1    0    0  501    0  0.00000000000E+00  0.00000000000E+00  0.29772640299E+02  0.29772640726E+02  0.50400000000E-02 0. -1.
         -2   -1    0    0    0  501 -0.00000000000E+00 -0.00000000000E+00 -0.52458718241E+02  0.52458718303E+02  0.25500000000E-02 0.  1.
        -24    2    1    2    0    0  0.35527136788E-14  0.00000000000E+00 -0.22686077941E+02  0.82231359029E+02  0.79040105487E+02 0.  0.
         66    2    3    3    0    0  0.28710440926E+02  0.21700321841E+02  0.55741705270E+01  0.36472794872E+02  0.20000006258E+01 0.  0.
         13    1    3    3    0    0 -0.28710440926E+02 -0.21700321841E+02 -0.28260248468E+02  0.45758564157E+02  0.10566000000E+00 0. -1.
         13    1    4    4    0    0  0.28018489850E+01  0.18407020588E+01  0.92355697188E+00  0.34788882304E+01  0.10566000000E+00 0. -1.
        -13    1    4    4    0    0  0.88818388288E+01  0.74726595610E+01  0.15300902029E+01  0.11708118635E+02  0.10566000000E+00 0.  1.
        -14    1    4    4    0    0  0.17026753113E+02  0.12386960221E+02  0.31205233522E+01  0.21285788007E+02  0.00000000000E+00 0.  1.
<mgrwt>
<rscale>  0 0.79040105E+02</rscale>
<asrwt>0</asrwt>
<pdfrwt beam="1">  1        1 0.45804062E-02 0.79040105E+02</pdfrwt>
<pdfrwt beam="2">  1       -2 0.80705721E-02 0.79040105E+02</pdfrwt>
<totfact> 0.12504594E+05</totfact>
</mgrwt>
</event>
<event>
 8    1  0.8247621E-018  0.7737364E+02  0.7818608E-02  0.1336674E+00
          1   -1    0    0  501    0  0.00000000000E+00  0.00000000000E+00  0.20661191788E+02  0.20661192403E+02  0.50400000000E-02 0. -1.
         -2   -1    0    0    0  501 -0.00000000000E+00 -0.00000000000E+00 -0.72438710827E+02  0.72438710872E+02  0.25500000000E-02 0.  1.
        -24    2    1    2    0    0 -0.35527136788E-14  0.00000000000E+00 -0.51777519039E+02  0.93099903275E+02  0.77373642230E+02 0.  0.
         66    2    3    3    0    0  0.19249567006E+02  0.27831021277E+02 -0.48402412708E+02  0.59092344085E+02  0.19999995478E+01 0.  0.
         13    1    3    3    0    0 -0.19249567006E+02 -0.27831021277E+02 -0.33751063301E+01  0.34007559190E+02  0.10566000000E+00 0. -1.
         13    1    4    4    0    0  0.41027332113E+01  0.65348410636E+01 -0.11727294428E+02  0.14038417509E+02  0.10566000000E+00 0. -1.
        -13    1    4    4    0    0  0.59353671424E+01  0.86699650635E+01 -0.15841487126E+02  0.19009491201E+02  0.10566000000E+00 0.  1.
         14    1    4    4    0    0  0.92114666525E+01  0.12626215150E+02 -0.20833631154E+02  0.26044435375E+02  0.00000000000E+00 0. -1.
<mgrwt>
<rscale>  0 0.77373642E+02</rscale>
<asrwt>0</asrwt>
<pdfrwt beam="1">  1        1 0.31786450E-02 0.77373642E+02</pdfrwt>
<pdfrwt beam="2">  1       -2 0.11144417E-01 0.77373642E+02</pdfrwt>
<totfact> 0.12421922E+05</totfact>
</mgrwt>
</event>
<event>
 8    1  0.8247621E-018  0.7649997E+02  0.7818608E-02  0.1339288E+00
         -2   -1    0    0    0  501 -0.00000000000E+00  0.00000000000E+00  0.88783296624E+02  0.88783296661E+02  0.25500000000E-02 0.  1.
          1   -1    0    0  501    0  0.00000000000E+00 -0.00000000000E+00 -0.16479013489E+02  0.16479014259E+02  0.50400000000E-02 0. -1.
        -24    2    1    2    0    0 -0.88817841970E-15  0.00000000000E+00  0.72304283136E+02  0.10526231092E+03  0.76499965624E+02 0.  0.
         66    2    3    3    0    0  0.63681461694E+01  0.19133502908E+02  0.80857161114E+02  0.83357811270E+02  0.19999942887E+01 0.  0.
         13    1    3    3    0    0 -0.63681461694E+01 -0.19133502908E+02 -0.85528779789E+01  0.21904499650E+02  0.10566000000E+00 0. -1.
         13    1    4    4    0    0  0.56427004384E+00  0.18364255265E+01  0.57314968823E+01  0.60458316173E+01  0.10566000000E+00 0. -1.
        -13    1    4    4    0    0  0.24340068901E+00  0.10729493868E+01  0.45921005914E+01  0.47232421237E+01  0.10566000000E+00 0.  1.
         14    1    4    4    0    0  0.55604754365E+01  0.16224127995E+02  0.70533563641E+02  0.72588737529E+02  0.00000000000E+00 0. -1.
<mgrwt>
<rscale>  0 0.76499966E+02</rscale>
<asrwt>0</asrwt>
<pdfrwt beam="1">  1        1 0.25352329E-02 0.76499966E+02</pdfrwt>
<pdfrwt beam="2">  1       -2 0.13658969E-01 0.76499966E+02</pdfrwt>
<totfact> 0.12239603E+05</totfact>
</mgrwt>
</event>
<event>
 8    1  0.8247621E-018  0.8038004E+02  0.7818608E-02  0.1327976E+00
          1   -1    0    0  501    0  0.00000000000E+00  0.00000000000E+00  0.33332947345E+02  0.33332947726E+02  0.50400000000E-02 0. -1.
         -2   -1    0    0    0  501 -0.00000000000E+00 -0.00000000000E+00 -0.48457691077E+02  0.48457691144E+02  0.25500000000E-02 0.  1.
        -24    2    1    2    0    0  0.00000000000E+00  0.00000000000E+00 -0.15124743732E+02  0.81790638870E+02  0.80380039399E+02 0.  0.
         66    2    3    3    0    0  0.82129215715E+01  0.34603762126E+02 -0.26558996873E+02  0.44432564202E+02  0.20000031533E+01 0.  0.
         13    1    3    3    0    0 -0.82129215715E+01 -0.34603762126E+02  0.11434253141E+02  0.37358074668E+02  0.10566000000E+00 0. -1.
         13    1    4    4    0    0  0.46125200763E+01  0.18144081126E+02 -0.14416433993E+02  0.23628960080E+02  0.10566000000E+00 0. -1.
        -13    1    4    4    0    0  0.34155936681E+01  0.15996595846E+02 -0.11993143434E+02  0.20283096712E+02  0.10566000000E+00 0.  1.
         14    1    4    4    0    0  0.18480782712E+00  0.46308515305E+00 -0.14941944716E+00  0.52050740930E+00  0.00000000000E+00 0. -1.
<mgrwt>
<rscale>  0 0.80380039E+02</rscale>
<asrwt>0</asrwt>
<pdfrwt beam="1">  1        1 0.51281458E-02 0.80380039E+02</pdfrwt>
<pdfrwt beam="2">  1       -2 0.74550294E-02 0.80380039E+02</pdfrwt>
<totfact> 0.12152799E+05</totfact>
</mgrwt>
</event>
<event>
 8    1  0.8247621E-018  0.8099851E+02  0.7818608E-02  0.1326241E+00
         -2   -1    0    0    0  501 -0.00000000000E+00  0.00000000000E+00  0.77635234261E+01  0.77635238449E+01  0.25500000000E-02 0.  1.
          1   -1    0    0  501    0  0.00000000000E+00 -0.00000000000E+00 -0.21126873195E+03  0.21126873201E+03  0.50400000000E-02 0. -1.
        -24    2    1    2    0    0  0.00000000000E+00  0.00000000000E+00 -0.20350520852E+03  0.21903225586E+03  0.80998513620E+02 0.  0.
         66    2    3    3    0    0 -0.82073207088E+01  0.32078817169E+02 -0.38872519160E+02  0.51102674794E+02  0.20000002591E+01 0.  0.
         13    1    3    3    0    0  0.82073207088E+01 -0.32078817169E+02 -0.16463268936E+03  0.16792958106E+03  0.10566000000E+00 0. -1.
         13    1    4    4    0    0 -0.10468344334E+01  0.26911158912E+01 -0.39530326790E+01  0.48964883813E+01  0.10566000000E+00 0.  1.
        -13    1    4    4    0    0 -0.30333891593E+01  0.13604094914E+02 -0.15603909023E+02  0.20922858052E+02  0.10566000000E+00 0.  1.
         14    1    4    4    0    0 -0.41270971160E+01  0.15783606364E+02 -0.19315577458E+02  0.25283328360E+02  0.00000000000E+00 0. -1.
<mgrwt>
<rscale>  0 0.80998514E+02</rscale>
<asrwt>0</asrwt>
<pdfrwt beam="1">  1        1 0.32502878E-01 0.80998514E+02</pdfrwt>
<pdfrwt beam="2">  1       -2 0.11943884E-02 0.80998514E+02</pdfrwt>
<totfact> 0.16306852E+05</totfact>
</mgrwt>
</event>
<event>
 8    1  0.8247621E-018  0.7993739E+02  0.7818608E-02  0.1329229E+00
          1   -1    0    0  501    0  0.00000000000E+00  0.00000000000E+00  0.20546218504E+02  0.20546219122E+02  0.50400000000E-02 0. -1.
         -2   -1    0    0    0  501 -0.00000000000E+00 -0.00000000000E+00 -0.77751360943E+02  0.77751360985E+02  0.25500000000E-02 0.  1.
        -24    2    1    2    0    0 -0.35527136788E-14  0.00000000000E+00 -0.57205142439E+02  0.98297580106E+02  0.79937387581E+02 0.  0.
         66    2    3    3    0    0  0.24379697839E+02 -0.47346047956E+01 -0.67090131411E+02  0.71567254251E+02  0.19999997557E+01 0.  0.
         13    1    3    3    0    0 -0.24379697839E+02  0.47346047956E+01  0.98849889719E+01  0.26730325855E+02  0.10566000000E+00 0. -1.
         13    1    4    4    0    0  0.10189223131E+01 -0.14484391048E+00 -0.37032035835E+01  0.38450049746E+01  0.10566000000E+00 0.  1.
        -13    1    4    4    0    0  0.16643790057E+02 -0.32312115196E+01 -0.43483627458E+02  0.46672191895E+02  0.10566000000E+00 0.  1.
        -14    1    4    4    0    0  0.67169854690E+01 -0.13585493655E+01 -0.19903300369E+02  0.21050057381E+02  0.00000000000E+00 0.  1.
<mgrwt>
<rscale>  0 0.79937388E+02</rscale>
<asrwt>0</asrwt>
<pdfrwt beam="1">  1        1 0.31609568E-02 0.79937388E+02</pdfrwt>
<pdfrwt beam="2">  1       -2 0.11961748E-01 0.79937388E+02</pdfrwt>
<totfact> 0.11266944E+05</totfact>
</mgrwt>
</event>
<event>
 8    1  0.8247621E-018  0.8123975E+02  0.7818608E-02  0.1325570E+00
          1   -1    0    0  501    0  0.00000000000E+00  0.00000000000E+00  0.87950951221E+01  0.87950965661E+01  0.50400000000E-02 0. -1.
         -2   -1    0    0    0  501 -0.00000000000E+00 -0.00000000000E+00 -0.18760163903E+03  0.18760163904E+03  0.25500000000E-02 0.  1.
        -24    2    1    2    0    0  0.00000000000E+00  0.35527136788E-14 -0.17880654390E+03  0.19639673561E+03  0.81239753909E+02 0.  0.
         66    2    3    3    0    0  0.26482670076E+01 -0.31215867427E+02 -0.15187017081E+03  0.15508060006E+03  0.20000088905E+01 0.  0.
         13    1    3    3    0    0 -0.26482670076E+01  0.31215867427E+02 -0.26936373095E+02  0.41316135552E+02  0.10566000000E+00 0. -1.
         13    1    4    4    0    0  0.20861033922E+01 -0.15431097242E+02 -0.73049009093E+02  0.74690290419E+02  0.10566000000E+00 0. -1.
        -13    1    4    4    0    0  0.40603909111E+00 -0.67209472550E+01 -0.32443278651E+02  0.33134777703E+02  0.10566000000E+00 0.  1.
         14    1    4    4    0    0  0.15612452427E+00 -0.90638229296E+01 -0.46377883065E+02  0.47255531936E+02  0.00000000000E+00 0. -1.
<mgrwt>
<rscale>  0 0.81239754E+02</rscale>
<asrwt>0</asrwt>
<pdfrwt beam="1">  1        1 0.13530918E-02 0.81239754E+02</pdfrwt>
<pdfrwt beam="2">  1       -2 0.28861788E-01 0.81239754E+02</pdfrwt>
<totfact> 0.83867970E+04</totfact>
</mgrwt>
</event>
<event>
 8    1  0.8247621E-018  0.8080290E+02  0.7818608E-02  0.1326788E+00
          1   -1    0    0  501    0  0.00000000000E+00  0.00000000000E+00  0.12124885913E+03  0.12124885923E+03  0.50400000000E-02 0. -1.
         -2   -1    0    0    0  501 -0.00000000000E+00 -0.00000000000E+00 -0.13462207818E+02  0.13462208059E+02  0.25500000000E-02 0.  1.
        -24    2    1    2    0    0  0.00000000000E+00  0.00000000000E+00  0.10778665131E+03  0.13471106729E+03  0.80802904962E+02 0.  0.
         66    2    3    3    0    0  0.27780670046E+02 -0.98597272443E+00  0.51057608277E+01  0.28333841324E+02  0.20000000246E+01 0.  0.
         13    1    3    3    0    0 -0.27780670046E+02  0.98597272443E+00  0.10268089048E+03  0.10637722597E+03  0.10566000000E+00 0. -1.
         13    1    4    4    0    0  0.10261307666E+01  0.27084162601E+00  0.16022835605E+00  0.10784881539E+01  0.10566000000E+00 0. -1.
        -13    1    4    4    0    0  0.23456248695E+02 -0.89740989918E+00  0.45940175074E+01  0.23918969632E+02  0.10566000000E+00 0.  1.
        -14    1    4    4    0    0  0.32982905848E+01 -0.35940445126E+00  0.35151496424E+00  0.33363835378E+01  0.00000000000E+00 0.  1.
<mgrwt>
<rscale>  0 0.80802905E+02</rscale>
<asrwt>0</asrwt>
<pdfrwt beam="1">  1        1 0.18653671E-01 0.80802905E+02</pdfrwt>
<pdfrwt beam="2">  1       -2 0.20711089E-02 0.80802905E+02</pdfrwt>
<totfact> 0.14791425E+05</totfact>
</mgrwt>
</event>
<event>
 8    1  0.8247621E-018  0.8120492E+02  0.7818608E-02  0.1325666E+00
          1   -1    0    0  501    0  0.00000000000E+00  0.00000000000E+00  0.42266432237E+03  0.42266432240E+03  0.50400000000E-02 0. -1.
         -2   -1    0    0    0  501 -0.00000000000E+00 -0.00000000000E+00 -0.39003993298E+01  0.39004001633E+01  0.25500000000E-02 0.  1.
        -24    2    1    2    0    0  0.00000000000E+00  0.00000000000E+00  0.41876392304E+03  0.42656472256E+03  0.81204921621E+02 0.  0.
         66    2    3    3    0    0  0.38958992483E+02  0.22478736376E+01  0.26793181754E+03  0.27076616273E+03  0.20000000943E+01 0.  0.
         13    1    3    3    0    0 -0.38958992483E+02 -0.22478736376E+01  0.15083210550E+03  0.15579855983E+03  0.10566000000E+00 0. -1.
         13    1    4    4    0    0  0.17749998808E+02  0.15033007764E+01  0.12479507953E+03  0.12606008651E+03  0.10566000000E+00 0. -1.
        -13    1    4    4    0    0  0.10110671210E+02  0.67979107149E-01  0.71569362217E+02  0.72280115286E+02  0.10566000000E+00 0.  1.
         14    1    4    4    0    0  0.11098322465E+02  0.67659375408E+00  0.71567375789E+02  0.72425960939E+02  0.00000000000E+00 0. -1.
<mgrwt>
<rscale>  0 0.81204922E+02</rscale>
<asrwt>0</asrwt>
<pdfrwt beam="1">  1        1 0.65025237E-01 0.81204922E+02</pdfrwt>
<pdfrwt beam="2">  1       -2 0.60006191E-03 0.81204922E+02</pdfrwt>
<totfact> 0.18422990E+05</totfact>
</mgrwt>
</event>
<event>
 8    1  0.8247621E-018  0.8053699E+02  0.7818608E-02  0.1327534E+00
         -2   -1    0    0    0  501 -0.00000000000E+00  0.00000000000E+00  0.53158553797E+02  0.53158553858E+02  0.25500000000E-02 0.  1.
          1   -1    0    0  501    0  0.00000000000E+00 -0.00000000000E+00 -0.30504058244E+02  0.30504058661E+02  0.50400000000E-02 0. -1.
        -24    2    1    2    0    0  0.00000000000E+00  0.00000000000E+00  0.22654495553E+02  0.83662612519E+02  0.80536988799E+02 0.  0.
         66    2    3    3    0    0  0.24948593643E+02 -0.27369736002E+02  0.27693799113E+02  0.46286945060E+02  0.20000000228E+01 0.  0.
         13    1    3    3    0    0 -0.24948593643E+02  0.27369736002E+02 -0.50393035605E+01  0.37375667459E+02  0.10566000000E+00 0. -1.
         13    1    4    4    0    0  0.87124119368E+01 -0.10777414168E+02  0.10580225502E+02  0.17435914476E+02  0.10566000000E+00 0. -1.
        -13    1    4    4    0    0  0.48384390737E+01 -0.51836666043E+01  0.56006882261E+01  0.90365792630E+01  0.10566000000E+00 0.  1.
         14    1    4    4    0    0  0.11397742632E+02 -0.11408655229E+02  0.11512885385E+02  0.19814451321E+02  0.00000000000E+00 0. -1.
<mgrwt>
<rscale>  0 0.80536989E+02</rscale>
<asrwt>0</asrwt>
<pdfrwt beam="1">  1        1 0.46929321E-02 0.80536989E+02</pdfrwt>
<pdfrwt beam="2">  1       -2 0.81782390E-02 0.80536989E+02</pdfrwt>
<totfact> 0.11899547E+05</totfact>
</mgrwt>
</event>
<event>
 8    1  0.8247621E-018  0.7975574E+02  0.7818608E-02  0.1329746E+00
         -2   -1    0    0    0  501 -0.00000000000E+00  0.00000000000E+00  0.10687904469E+03  0.10687904472E+03  0.25500000000E-02 0.  1.
          1   -1    0    0  501    0  0.00000000000E+00 -0.00000000000E+00 -0.14878919061E+02  0.14878919915E+02  0.50400000000E-02 0. -1.
        -24    2    1    2    0    0 -0.88817841970E-15  0.17763568394E-14  0.92000125625E+02  0.12175796463E+03  0.79755744847E+02 0.  0.
         66    2    3    3    0    0 -0.73312032379E+01  0.13469673528E+02  0.10218464266E+03  0.10334834222E+03  0.19999998206E+01 0.  0.
         13    1    3    3    0    0  0.73312032379E+01 -0.13469673528E+02 -0.10184517034E+02  0.18409622406E+02  0.10566000000E+00 0. -1.
         13    1    4    4    0    0 -0.18418929041E+01  0.37289985704E+01  0.28626785206E+02  0.28927530055E+02  0.10566000000E+00 0. -1.
        -13    1    4    4    0    0 -0.16111331488E+01  0.25677048339E+01  0.15599204132E+02  0.15891355881E+02  0.10566000000E+00 0.  1.
        -14    1    4    4    0    0 -0.38781771850E+01  0.71729701241E+01  0.57958653321E+02  0.58529456289E+02  0.00000000000E+00 0.  1.
<mgrwt>
<rscale>  0 0.79755745E+02</rscale>
<asrwt>0</asrwt>
<pdfrwt beam="1">  1        1 0.22890645E-02 0.79755745E+02</pdfrwt>
<pdfrwt beam="2">  1       -2 0.16442930E-01 0.79755745E+02</pdfrwt>
<totfact> 0.10517228E+05</totfact>
</mgrwt>
</event>
<event>
 8    1  0.8247621E-018  0.8163199E+02  0.7818608E-02  0.1324483E+00
         -2   -1    0    0    0  501 -0.00000000000E+00  0.00000000000E+00  0.16056631877E+03  0.16056631880E+03  0.25500000000E-02 0.  1.
          1   -1    0    0  501    0  0.00000000000E+00 -0.00000000000E+00 -0.10375435262E+02  0.10375436486E+02  0.50400000000E-02 0. -1.
        -24    2    1    2    0    0  0.00000000000E+00  0.00000000000E+00  0.15019088351E+03  0.17094175528E+03  0.81631992553E+02 0.  0.
         66    2    3    3    0    0 -0.20221633846E+02  0.28511065980E+02  0.11917257646E+03  0.12420909117E+03  0.19999974302E+01 0.  0.
         13    1    3    3    0    0  0.20221633846E+02 -0.28511065980E+02  0.31018307051E+02  0.46732664112E+02  0.10566000000E+00 0. -1.
         13    1    4    4    0    0 -0.13914483760E+02  0.19830924743E+02  0.83542619839E+02  0.86984245287E+02  0.10566000000E+00 0. -1.
        -13    1    4    4    0    0 -0.46781269161E+01  0.59042055779E+01  0.26137844058E+02  0.27201885431E+02  0.10566000000E+00 0.  1.
         14    1    4    4    0    0 -0.16290231690E+01  0.27759356584E+01  0.94921125649E+01  0.10022960451E+02  0.00000000000E+00 0. -1.
<mgrwt>
<rscale>  0 0.81631993E+02</rscale>
<asrwt>0</asrwt>
<pdfrwt beam="1">  1        1 0.15962211E-02 0.81631993E+02</pdfrwt>
<pdfrwt beam="2">  1       -2 0.24702508E-01 0.81631993E+02</pdfrwt>
<totfact> 0.87685075E+04</totfact>
</mgrwt>
</event>
<event>
 8    1  0.8247621E-018  0.8441585E+02  0.7818608E-02  0.1316967E+00
         -2   -1    0    0    0  501 -0.00000000000E+00  0.00000000000E+00  0.14924949782E+02  0.14924950000E+02  0.25500000000E-02 0.  1.
          1   -1    0    0  501    0  0.00000000000E+00 -0.00000000000E+00 -0.11936449077E+03  0.11936449087E+03  0.50400000000E-02 0. -1.
        -24    2    1    2    0    0  0.00000000000E+00  0.44408920985E-15 -0.10443954099E+03  0.13428944087E+03  0.84415852829E+02 0.  0.
         66    2    3    3    0    0 -0.40269477530E+02  0.35428566055E+01 -0.71426086224E+02  0.82096701793E+02  0.19999996391E+01 0.  0.
         13    1    3    3    0    0  0.40269477530E+02 -0.35428566055E+01 -0.33013454763E+02  0.52192739082E+02  0.10566000000E+00 0. -1.
         13    1    4    4    0    0 -0.18297033617E+02  0.22219576537E+01 -0.31521597413E+02  0.36514939443E+02  0.10566000000E+00 0. -1.
        -13    1    4    4    0    0 -0.19433445081E+02  0.14506408444E+01 -0.35262778688E+02  0.40289426298E+02  0.10566000000E+00 0.  1.
        -14    1    4    4    0    0 -0.25389988314E+01 -0.12974189258E+00 -0.46417101226E+01  0.52923360519E+01  0.00000000000E+00 0.  1.
<mgrwt>
<rscale>  0 0.84415853E+02</rscale>
<asrwt>0</asrwt>
<pdfrwt beam="1">  1        1 0.18363767E-01 0.84415853E+02</pdfrwt>
<pdfrwt beam="2">  1       -2 0.22961462E-02 0.84415853E+02</pdfrwt>
<totfact> 0.13107970E+05</totfact>
</mgrwt>
</event>
<event>
 8    1  0.8247621E-018  0.7849066E+02  0.7818608E-02  0.1333390E+00
          1   -1    0    0  501    0  0.00000000000E+00  0.00000000000E+00  0.41156796776E+01  0.41156827636E+01  0.50400000000E-02 0. -1.
         -2   -1    0    0    0  501 -0.00000000000E+00 -0.00000000000E+00 -0.37422628684E+03  0.37422628685E+03  0.25500000000E-02 0.  1.
        -24    2    1    2    0    0  0.00000000000E+00  0.00000000000E+00 -0.37011060716E+03  0.37834196961E+03  0.78490664642E+02 0.  0.
         66    2    3    3    0    0 -0.10838878511E+02  0.11879980082E+02 -0.35759984676E+03  0.35796684988E+03  0.19999999282E+01 0.  0.
         13    1    3    3    0    0  0.10838878511E+02 -0.11879980082E+02 -0.12510760408E+02  0.20375119733E+02  0.10566000000E+00 0. -1.
         13    1    4    4    0    0 -0.11645058660E+01  0.87624534600E+00 -0.39212150601E+02  0.39239365421E+02  0.10566000000E+00 0. -1.
        -13    1    4    4    0    0 -0.96370049410E+01  0.10829026975E+02 -0.31106517363E+03  0.31140278274E+03  0.10566000000E+00 0.  1.
        -14    1    4    4    0    0 -0.37367703580E-01  0.17470776113E+00 -0.73225225248E+01  0.73247017190E+01  0.00000000000E+00 0.  1.
<mgrwt>
<rscale>  0 0.78490665E+02</rscale>
<asrwt>0</asrwt>
<pdfrwt beam="1">  1        1 0.63318202E-03 0.78490665E+02</pdfrwt>
<pdfrwt beam="2">  1       -2 0.57573248E-01 0.78490665E+02</pdfrwt>
<totfact> 0.64810564E+04</totfact>
</mgrwt>
</event>
<event>
 8    1  0.8247621E-018  0.7926502E+02  0.7818608E-02  0.1331150E+00
          1   -1    0    0  501    0  0.00000000000E+00  0.00000000000E+00  0.20819763276E+03  0.20819763282E+03  0.50400000000E-02 0. -1.
         -2   -1    0    0    0  501 -0.00000000000E+00 -0.00000000000E+00 -0.75444463448E+01  0.75444467757E+01  0.25500000000E-02 0.  1.
        -24    2    1    2    0    0 -0.71054273576E-14  0.00000000000E+00  0.20065318642E+03  0.21574207960E+03  0.79265021858E+02 0.  0.
         66    2    3    3    0    0 -0.34971152206E+02  0.15408150825E+02  0.72060426696E+02  0.81591039293E+02  0.19999996923E+01 0.  0.
         13    1    3    3    0    0  0.34971152206E+02 -0.15408150825E+02  0.12859275972E+03  0.13415104030E+03  0.10566000000E+00 0. -1.
         13    1    4    4    0    0 -0.53003171332E+00  0.16024331972E+00  0.75565963909E+00  0.94276034303E+00  0.10566000000E+00 0. -1.
        -13    1    4    4    0    0 -0.25928446353E+02  0.11672316726E+02  0.54689691234E+02  0.61640090845E+02  0.10566000000E+00 0.  1.
        -14    1    4    4    0    0 -0.85126741394E+01  0.35755907793E+01  0.16615075823E+02  0.19008188105E+02  0.00000000000E+00 0.  1.
<mgrwt>
<rscale>  0 0.79265022E+02</rscale>
<asrwt>0</asrwt>
<pdfrwt beam="1">  1        1 0.32030405E-01 0.79265022E+02</pdfrwt>
<pdfrwt beam="2">  1       -2 0.11606841E-02 0.79265022E+02</pdfrwt>
<totfact> 0.17220968E+05</totfact>
</mgrwt>
</event>
<event>
 8    1  0.8247621E-018  0.7063191E+02  0.7818608E-02  0.1357957E+00
          1   -1    0    0  501    0  0.00000000000E+00  0.00000000000E+00  0.26881824581E+03  0.26881824586E+03  0.50400000000E-02 0. -1.
         -2   -1    0    0    0  501 -0.00000000000E+00 -0.00000000000E+00 -0.46396272750E+01  0.46396279758E+01  0.25500000000E-02 0.  1.
        -24    2    1    2    0    0  0.35527136788E-14 -0.35527136788E-14  0.26417861853E+03  0.27345787383E+03  0.70631906885E+02 0.  0.
         66    2    3    3    0    0  0.20369653171E+02 -0.28723991432E+02  0.14104159466E+03  0.14538473744E+03  0.20000001462E+01 0.  0.
         13    1    3    3    0    0 -0.20369653171E+02  0.28723991432E+02  0.12313702387E+03  0.12807313639E+03  0.10566000000E+00 0. -1.
         13    1    4    4    0    0  0.34953611041E+01 -0.60008145374E+01  0.29532666632E+02  0.30338373173E+02  0.10566000000E+00 0. -1.
        -13    1    4    4    0    0  0.86848533533E+01 -0.12130113637E+02  0.58315487254E+02  0.60193633819E+02  0.10566000000E+00 0.  1.
         14    1    4    4    0    0  0.81894387135E+01 -0.10593063258E+02  0.53193440777E+02  0.54852730446E+02  0.00000000000E+00 0. -1.
<mgrwt>
<rscale>  0 0.70631907E+02</rscale>
<asrwt>0</asrwt>
<pdfrwt beam="1">  1        1 0.41356659E-01 0.70631907E+02</pdfrwt>
<pdfrwt beam="2">  1       -2 0.71378877E-03 0.70631907E+02</pdfrwt>
<totfact> 0.24483651E+05</totfact>
</mgrwt>
</event>
<event>
 8    1  0.8247621E-018  0.7985434E+02  0.7818608E-02  0.1329465E+00
         -2   -1    0    0    0  501 -0.00000000000E+00  0.00000000000E+00  0.30884931380E+02  0.30884931486E+02  0.25500000000E-02 0.  1.
          1   -1    0    0  501    0  0.00000000000E+00 -0.00000000000E+00 -0.51616725988E+02  0.51616726234E+02  0.50400000000E-02 0. -1.
        -24    2    1    2    0    0  0.50306980803E-16  0.00000000000E+00 -0.20731794607E+02  0.82501657720E+02  0.79854343769E+02 0.  0.
         66    2    3    3    0    0  0.11057222200E-01 -0.16768187538E+02  0.27035730084E+02  0.31876369426E+02  0.19999977655E+01 0.  0.
         13    1    3    3    0    0 -0.11057222200E-01  0.16768187538E+02 -0.47767524692E+02  0.50625288293E+02  0.10566000000E+00 0. -1.
         13    1    4    4    0    0 -0.62259283471E+00 -0.67854440961E+01  0.12221762685E+02  0.13993302704E+02  0.10566000000E+00 0.  1.
        -13    1    4    4    0    0  0.62430674928E+00 -0.64841076573E+01  0.98745425625E+01  0.11830095768E+02  0.10566000000E+00 0. -1.
        -14    1    4    4    0    0  0.93433076336E-02 -0.34986357845E+01  0.49394248368E+01  0.60529709539E+01  0.00000000000E+00 0.  1.
<mgrwt>
<rscale>  0 0.79854344E+02</rscale>
<asrwt>0</asrwt>
<pdfrwt beam="1">  1        1 0.79410348E-02 0.79854344E+02</pdfrwt>
<pdfrwt beam="2">  1       -2 0.47515279E-02 0.79854344E+02</pdfrwt>
<totfact> 0.13290131E+05</totfact>
</mgrwt>
</event>
<event>
 8    1  0.8247621E-018  0.7861588E+02  0.7818608E-02  0.1333026E+00
          1   -1    0    0  501    0  0.00000000000E+00  0.00000000000E+00  0.46779260762E+02  0.46779261034E+02  0.50400000000E-02 0. -1.
         -2   -1    0    0    0  501 -0.00000000000E+00 -0.00000000000E+00 -0.33029897113E+02  0.33029897212E+02  0.25500000000E-02 0.  1.
        -24    2    1    2    0    0 -0.55511151231E-16 -0.35527136788E-14  0.13749363649E+02  0.79809158246E+02  0.78615880960E+02 0.  0.
         66    2    3    3    0    0  0.42102752130E+00  0.26210470181E+02 -0.22821461008E+02  0.34813576336E+02  0.20000008690E+01 0.  0.
         13    1    3    3    0    0 -0.42102752130E+00 -0.26210470181E+02  0.36570824657E+02  0.44995581910E+02  0.10566000000E+00 0. -1.
         13    1    4    4    0    0  0.19201718956E+00  0.89538617450E+00 -0.63226597081E+00  0.11178154123E+01  0.10566000000E+00 0. -1.
        -13    1    4    4    0    0  0.16774109552E+00  0.19048079225E+02 -0.15841472300E+02  0.24775408532E+02  0.10566000000E+00 0.  1.
        -14    1    4    4    0    0  0.61269236220E-01  0.62670047811E+01 -0.63477227371E+01  0.89203523917E+01  0.00000000000E+00 0.  1.
<mgrwt>
<rscale>  0 0.78615881E+02</rscale>
<asrwt>0</asrwt>
<pdfrwt beam="1">  1        1 0.71968094E-02 0.78615881E+02</pdfrwt>
<pdfrwt beam="2">  1       -2 0.50815227E-02 0.78615881E+02</pdfrwt>
<totfact> 0.13668702E+05</totfact>
</mgrwt>
</event>
<event>
 8    1  0.8247621E-018  0.8000850E+02  0.7818608E-02  0.1329027E+00
         -2   -1    0    0    0  501 -0.00000000000E+00  0.00000000000E+00  0.64390955621E+01  0.64390960670E+01  0.25500000000E-02 0.  1.
          1   -1    0    0  501    0  0.00000000000E+00 -0.00000000000E+00 -0.24853490473E+03  0.24853490478E+03  0.50400000000E-02 0. -1.
        -24    2    1    2    0    0  0.17763568394E-14  0.00000000000E+00 -0.24209580917E+03  0.25497400085E+03  0.80008501373E+02 0.  0.
         66    2    3    3    0    0  0.14095181403E+02  0.37386948211E+02 -0.12548948854E+03  0.13171207157E+03  0.20000068875E+01 0.  0.
         13    1    3    3    0    0 -0.14095181403E+02 -0.37386948211E+02 -0.11660632063E+03  0.12326192928E+03  0.10566000000E+00 0. -1.
         13    1    4    4    0    0  0.24826739535E+01  0.57914939605E+01 -0.19578149325E+02  0.20567454079E+02  0.10566000000E+00 0.  1.
        -13    1    4    4    0    0  0.95579662352E+01  0.23975320850E+02 -0.80832912732E+02  0.84853648556E+02  0.10566000000E+00 0.  1.
        -14    1    4    4    0    0  0.20545412148E+01  0.76201334005E+01 -0.25078426486E+02  0.26290968937E+02  0.00000000000E+00 0.  1.
<mgrwt>
<rscale>  0 0.80008501E+02</rscale>
<asrwt>0</asrwt>
<pdfrwt beam="1">  1        1 0.38236132E-01 0.80008501E+02</pdfrwt>
<pdfrwt beam="2">  1       -2 0.99063032E-03 0.80008501E+02</pdfrwt>
<totfact> 0.17390466E+05</totfact>
</mgrwt>
</event>
<event>
 8    1  0.1007371E-017  0.7639299E+02  0.7818608E-02  0.1339611E+00
          1   -1    0    0  501    0  0.00000000000E+00  0.00000000000E+00  0.18734495511E+03  0.18734495518E+03  0.50400000000E-02 0. -1.
         -2   -1    0    0    0  501 -0.00000000000E+00 -0.00000000000E+00 -0.77876236893E+01  0.77876241068E+01  0.25500000000E-02 0.  1.
        -24    2    1    2    0    0  0.88817841970E-15 -0.35527136788E-14  0.17955733142E+03  0.19513257929E+03  0.76392985486E+02 0.  0.
         66    2    3    3    0    0 -0.58214146552E+01 -0.26093000083E+02  0.20250064494E+02  0.33597598610E+02  0.19999996023E+01 0.  0.
         13    1    3    3    0    0  0.58214146552E+01  0.26093000083E+02  0.15930726693E+03  0.16153498068E+03  0.10566000000E+00 0. -1.
         13    1    4    4    0    0 -0.15893933623E+01 -0.51601103101E+01  0.44050691107E+01  0.69691253094E+01  0.10566000000E+00 0. -1.
        -13    1    4    4    0    0 -0.91243283611E+00 -0.40485894308E+01  0.24366819413E+01  0.48137504068E+01  0.10566000000E+00 0.  1.
        -14    1    4    4    0    0 -0.33195884568E+01 -0.16884300342E+02  0.13408313442E+02  0.21814722894E+02  0.00000000000E+00 0.  1.
<mgrwt>
<rscale>  0 0.76392985E+02</rscale>
<asrwt>0</asrwt>
<pdfrwt beam="1">  1        1 0.28822300E-01 0.76392985E+02</pdfrwt>
<pdfrwt beam="2">  1       -2 0.11980960E-02 0.76392985E+02</pdfrwt>
<totfact> 0.18607023E+05</totfact>
</mgrwt>
</event>
<event>
 8    1  0.8247621E-018  0.7809801E+02  0.7818608E-02  0.1334537E+00
         -2   -1    0    0    0  501 -0.00000000000E+00  0.00000000000E+00  0.97876432463E+02  0.97876432497E+02  0.25500000000E-02 0.  1.
          1   -1    0    0  501    0  0.00000000000E+00 -0.00000000000E+00 -0.15579079740E+02  0.15579080555E+02  0.50400000000E-02 0. -1.
        -24    2    1    2    0    0  0.17763568394E-14  0.00000000000E+00  0.82297352724E+02  0.11345551305E+03  0.78098010067E+02 0.  0.
         66    2    3    3    0    0 -0.13405291232E+02 -0.37382676304E+01  0.94138462026E+02  0.95182595621E+02  0.19999996692E+01 0.  0.
         13    1    3    3    0    0  0.13405291232E+02  0.37382676304E+01 -0.11841109302E+02  0.18272917431E+02  0.10566000000E+00 0. -1.
         13    1    4    4    0    0 -0.59198414902E+01 -0.20902538052E+01  0.36511641433E+02  0.37047601925E+02  0.10566000000E+00 0. -1.
        -13    1    4    4    0    0 -0.50699656770E+01 -0.12154865468E+01  0.38689199038E+02  0.39039047705E+02  0.10566000000E+00 0.  1.
         14    1    4    4    0    0 -0.24154840647E+01 -0.43252727838E+00  0.18937621555E+02  0.19095945990E+02  0.00000000000E+00 0. -1.
<mgrwt>
<rscale>  0 0.78098010E+02</rscale>
<asrwt>0</asrwt>
<pdfrwt beam="1">  1        1 0.23967816E-02 0.78098010E+02</pdfrwt>
<pdfrwt beam="2">  1       -2 0.15057913E-01 0.78098010E+02</pdfrwt>
<totfact> 0.11346244E+05</totfact>
</mgrwt>
</event>
<event>
 8    1  0.8247621E-018  0.8478501E+02  0.7818608E-02  0.1315996E+00
         -2   -1    0    0    0  501 -0.00000000000E+00  0.00000000000E+00  0.19036281025E+02  0.19036281196E+02  0.25500000000E-02 0.  1.
          1   -1    0    0  501    0  0.00000000000E+00 -0.00000000000E+00 -0.94405237361E+02  0.94405237496E+02  0.50400000000E-02 0. -1.
        -24    2    1    2    0    0  0.00000000000E+00  0.00000000000E+00 -0.75368956336E+02  0.11344151869E+03  0.84785013911E+02 0.  0.
         66    2    3    3    0    0  0.17377045391E+02 -0.20592005693E+02  0.60435604817E+01  0.27686043860E+02  0.19999990800E+01 0.  0.
         13    1    3    3    0    0 -0.17377045391E+02  0.20592005693E+02 -0.81412516818E+02  0.85755474832E+02  0.10566000000E+00 0. -1.
         13    1    4    4    0    0  0.83122169907E+01 -0.96262535076E+01  0.25846625928E+01  0.12978803976E+02  0.10566000000E+00 0. -1.
        -13    1    4    4    0    0  0.60302300168E+01 -0.79070502157E+01  0.18953403552E+01  0.10123665160E+02  0.10566000000E+00 0.  1.
         14    1    4    4    0    0  0.30345983836E+01 -0.30587019701E+01  0.15635575337E+01  0.45835747242E+01  0.00000000000E+00 0. -1.
<mgrwt>
<rscale>  0 0.84785014E+02</rscale>
<asrwt>0</asrwt>
<pdfrwt beam="1">  1        1 0.14523882E-01 0.84785014E+02</pdfrwt>
<pdfrwt beam="2">  1       -2 0.29286587E-02 0.84785014E+02</pdfrwt>
<totfact> 0.12431659E+05</totfact>
</mgrwt>
</event>
<event>
 8    1  0.8247621E-018  0.8076125E+02  0.7818608E-02  0.1326905E+00
          1   -1    0    0  501    0  0.00000000000E+00  0.00000000000E+00  0.36041098345E+03  0.36041098349E+03  0.50400000000E-02 0. -1.
         -2   -1    0    0    0  501 -0.00000000000E+00 -0.00000000000E+00 -0.45242646596E+01  0.45242653782E+01  0.25500000000E-02 0.  1.
        -24    2    1    2    0    0  0.00000000000E+00  0.00000000000E+00  0.35588671880E+03  0.36493524887E+03  0.80761248453E+02 0.  0.
         66    2    3    3    0    0  0.39751593433E+02  0.59692333351E+01  0.16190526166E+03  0.16683265474E+03  0.20000011997E+01 0.  0.
         13    1    3    3    0    0 -0.39751593433E+02 -0.59692333351E+01  0.19398145713E+03  0.19810259413E+03  0.10566000000E+00 0. -1.
         13    1    4    4    0    0  0.21582029754E+02  0.32593698218E+01  0.91297500636E+02  0.93870401546E+02  0.10566000000E+00 0. -1.
        -13    1    4    4    0    0  0.19775963013E+01  0.50210286513E+00  0.80696604545E+01  0.83242764433E+01  0.10566000000E+00 0.  1.
         14    1    4    4    0    0  0.16191967377E+02  0.22077606482E+01  0.62538100573E+02  0.64637976746E+02  0.00000000000E+00 0. -1.
<mgrwt>
<rscale>  0 0.80761248E+02</rscale>
<asrwt>0</asrwt>
<pdfrwt beam="1">  1        1 0.55447843E-01 0.80761248E+02</pdfrwt>
<pdfrwt beam="2">  1       -2 0.69604078E-03 0.80761248E+02</pdfrwt>
<totfact> 0.18200595E+05</totfact>
</mgrwt>
</event>
<event>
 8    1  0.8247621E-018  0.7036622E+02  0.7818608E-02  0.1358852E+00
          1   -1    0    0  501    0  0.00000000000E+00  0.00000000000E+00  0.24464492997E+02  0.24464493516E+02  0.50400000000E-02 0. -1.
         -2   -1    0    0    0  501 -0.00000000000E+00 -0.00000000000E+00 -0.50597871954E+02  0.50597872018E+02  0.25500000000E-02 0.  1.
        -24    2    1    2    0    0  0.35527136788E-14  0.00000000000E+00 -0.26133378957E+02  0.75062365535E+02  0.70366222181E+02 0.  0.
         66    2    3    3    0    0  0.25019148635E+02 -0.73870902796E+01 -0.38215146597E+02  0.46313327732E+02  0.19999987386E+01 0.  0.
         13    1    3    3    0    0 -0.25019148635E+02  0.73870902796E+01  0.12081767640E+02  0.28749037803E+02  0.10566000000E+00 0. -1.
         13    1    4    4    0    0  0.20607333645E+02 -0.59075429517E+01 -0.31772573335E+02  0.38328433885E+02  0.10566000000E+00 0. -1.
        -13    1    4    4    0    0  0.37780636434E+01 -0.12427467590E+01 -0.49857467502E+01  0.63786377146E+01  0.10566000000E+00 0.  1.
         14    1    4    4    0    0  0.63375134676E+00 -0.23680056886E+00 -0.14568265115E+01  0.16062561326E+01  0.00000000000E+00 0. -1.
<mgrwt>
<rscale>  0 0.70366222E+02</rscale>
<asrwt>0</asrwt>
<pdfrwt beam="1">  1        1 0.37637682E-02 0.70366222E+02</pdfrwt>
<pdfrwt beam="2">  1       -2 0.77842880E-02 0.70366222E+02</pdfrwt>
<totfact> 0.16845842E+05</totfact>
</mgrwt>
</event>
<event>
 8    1  0.8247621E-018  0.7914571E+02  0.7818608E-02  0.1331493E+00
         -2   -1    0    0    0  501 -0.00000000000E+00  0.00000000000E+00  0.22216017864E+03  0.22216017865E+03  0.25500000000E-02 0.  1.
          1   -1    0    0  501    0  0.00000000000E+00 -0.00000000000E+00 -0.70490159139E+01  0.70490177157E+01  0.50400000000E-02 0. -1.
        -24    2    1    2    0    0 -0.17763568394E-14  0.00000000000E+00  0.21511116272E+03  0.22920919637E+03  0.79145709747E+02 0.  0.
         66    2    3    3    0    0 -0.11517839581E+02  0.37562068003E+02  0.12071607632E+03  0.12696432812E+03  0.19999881004E+01 0.  0.
         13    1    3    3    0    0  0.11517839581E+02 -0.37562068003E+02  0.94395086407E+02  0.10224486825E+03  0.10566000000E+00 0. -1.
         13    1    4    4    0    0 -0.55068839805E+01  0.16758550780E+02  0.55038573356E+02  0.57796457647E+02  0.10566000000E+00 0. -1.
        -13    1    4    4    0    0 -0.49711997448E+01  0.18331031723E+02  0.58462207037E+02  0.61470158342E+02  0.10566000000E+00 0.  1.
         14    1    4    4    0    0 -0.10397558557E+01  0.24724854995E+01  0.72152959230E+01  0.76977121303E+01  0.00000000000E+00 0. -1.
<mgrwt>
<rscale>  0 0.79145710E+02</rscale>
<asrwt>0</asrwt>
<pdfrwt beam="1">  1        1 0.10844641E-02 0.79145710E+02</pdfrwt>
<pdfrwt beam="2">  1       -2 0.34178489E-01 0.79145710E+02</pdfrwt>
<totfact> 0.83676235E+04</totfact>
</mgrwt>
</event>
<event>
 8    1  0.8247621E-018  0.7876285E+02  0.7818608E-02  0.1332599E+00
         -2   -1    0    0    0  501 -0.00000000000E+00  0.00000000000E+00  0.49159302546E+01  0.49159309159E+01  0.25500000000E-02 0.  1.
          1   -1    0    0  501    0  0.00000000000E+00 -0.00000000000E+00 -0.31548381288E+03  0.31548381292E+03  0.50400000000E-02 0. -1.
        -24    2    1    2    0    0  0.17763568394E-14  0.00000000000E+00 -0.31056788263E+03  0.32039974384E+03  0.78762847409E+02 0.  0.
         66    2    3    3    0    0 -0.15749481477E+02  0.32642206902E+02 -0.92979988874E+02  0.99814017849E+02  0.19999974689E+01 0.  0.
         13    1    3    3    0    0  0.15749481477E+02 -0.32642206902E+02 -0.21758789375E+03  0.22058572599E+03  0.10566000000E+00 0. -1.
         13    1    4    4    0    0 -0.70999185693E+01  0.13543727383E+02 -0.39856212447E+02  0.42689228498E+02  0.10566000000E+00 0. -1.
        -13    1    4    4    0    0 -0.54278829782E+01  0.12421601565E+02 -0.35845957087E+02  0.38323646781E+02  0.10566000000E+00 0.  1.
         14    1    4    4    0    0 -0.32216799295E+01  0.66768779541E+01 -0.17277819340E+02  0.18801142570E+02  0.00000000000E+00 0. -1.
<mgrwt>
<rscale>  0 0.78762847E+02</rscale>
<asrwt>0</asrwt>
<pdfrwt beam="1">  1        1 0.48535956E-01 0.78762847E+02</pdfrwt>
<pdfrwt beam="2">  1       -2 0.75629726E-03 0.78762847E+02</pdfrwt>
<totfact> 0.18976646E+05</totfact>
</mgrwt>
</event>
<event>
 8    1  0.8247621E-018  0.7937954E+02  0.7818608E-02  0.1330821E+00
          1   -1    0    0  501    0  0.00000000000E+00  0.00000000000E+00  0.73635550115E+02  0.73635550288E+02  0.50400000000E-02 0. -1.
         -2   -1    0    0    0  501 -0.00000000000E+00 -0.00000000000E+00 -0.21392897827E+02  0.21392897979E+02  0.25500000000E-02 0.  1.
        -24    2    1    2    0    0 -0.35527136788E-14  0.00000000000E+00  0.52242652288E+02  0.95028448267E+02  0.79379539316E+02 0.  0.
         66    2    3    3    0    0 -0.24012402426E+02 -0.24463752446E+02  0.22489208655E+01  0.34411165257E+02  0.19999988141E+01 0.  0.
         13    1    3    3    0    0  0.24012402426E+02  0.24463752446E+02  0.49993731422E+02  0.60617283010E+02  0.10566000000E+00 0. -1.
         13    1    4    4    0    0 -0.16806807533E+01 -0.16949707716E+01  0.44521096772E+00  0.24304301168E+01  0.10566000000E+00 0. -1.
        -13    1    4    4    0    0 -0.10152068617E+02 -0.96203170137E+01  0.13579955889E+01  0.14052413056E+02  0.10566000000E+00 0.  1.
        -14    1    4    4    0    0 -0.12179653056E+02 -0.13148464661E+02  0.44571430887E+00  0.17928322084E+02  0.00000000000E+00 0.  1.
<mgrwt>
<rscale>  0 0.79379539E+02</rscale>
<asrwt>0</asrwt>
<pdfrwt beam="1">  1        1 0.11328546E-01 0.79379539E+02</pdfrwt>
<pdfrwt beam="2">  1       -2 0.32912150E-02 0.79379539E+02</pdfrwt>
<totfact> 0.14283048E+05</totfact>
</mgrwt>
</event>
<event>
 8    1  0.8247621E-018  0.7874065E+02  0.7818608E-02  0.1332664E+00
         -2   -1    0    0    0  501 -0.00000000000E+00  0.00000000000E+00  0.41850333924E+02  0.41850334002E+02  0.25500000000E-02 0.  1.
          1   -1    0    0  501    0  0.00000000000E+00 -0.00000000000E+00 -0.37037278874E+02  0.37037279217E+02  0.50400000000E-02 0. -1.
        -24    2    1    2    0    0  0.00000000000E+00  0.00000000000E+00  0.48130550496E+01  0.78887613219E+02  0.78740650369E+02 0.  0.
         66    2    3    3    0    0  0.40845119908E+01 -0.17661954646E+02  0.37393011229E+02  0.41603667762E+02  0.20000006010E+01 0.  0.
         13    1    3    3    0    0 -0.40845119908E+01  0.17661954646E+02 -0.32579956179E+02  0.37283945456E+02  0.10566000000E+00 0. -1.
         13    1    4    4    0    0  0.17119628311E+01 -0.99897692796E+01  0.19641383246E+02  0.22102520373E+02  0.10566000000E+00 0. -1.
        -13    1    4    4    0    0  0.63018063893E+00 -0.29172466828E+01  0.73015639271E+01  0.78886916319E+01  0.10566000000E+00 0.  1.
         14    1    4    4    0    0  0.17423685208E+01 -0.47549386839E+01  0.10450064056E+02  0.11612455758E+02  0.00000000000E+00 0. -1.
<mgrwt>
<rscale>  0 0.78740650E+02</rscale>
<asrwt>0</asrwt>
<pdfrwt beam="1">  1        1 0.56980430E-02 0.78740650E+02</pdfrwt>
<pdfrwt beam="2">  1       -2 0.64385129E-02 0.78740650E+02</pdfrwt>
<totfact> 0.13113574E+05</totfact>
</mgrwt>
</event>
<event>
 8    1  0.8247621E-018  0.7872061E+02  0.7818608E-02  0.1332722E+00
          1   -1    0    0  501    0  0.00000000000E+00  0.00000000000E+00  0.66568423293E+01  0.66568442372E+01  0.50400000000E-02 0. -1.
         -2   -1    0    0    0  501 -0.00000000000E+00 -0.00000000000E+00 -0.23272796729E+03  0.23272796730E+03  0.25500000000E-02 0.  1.
        -24    2    1    2    0    0  0.00000000000E+00  0.00000000000E+00 -0.22607112496E+03  0.23938481154E+03  0.78720610106E+02 0.  0.
         66    2    3    3    0    0 -0.32361738605E+02 -0.22323280596E+02 -0.10924063796E+03  0.11611687232E+03  0.20000185219E+01 0.  0.
         13    1    3    3    0    0  0.32361738605E+02  0.22323280596E+02 -0.11683048700E+03  0.12326793921E+03  0.10566000000E+00 0. -1.
         13    1    4    4    0    0 -0.20893354819E+01 -0.13704936880E+01 -0.82917014018E+01  0.86606611685E+01  0.10566000000E+00 0. -1.
        -13    1    4    4    0    0 -0.10949878328E+02 -0.71218991628E+01 -0.35457508865E+02  0.37787132493E+02  0.10566000000E+00 0.  1.
        -14    1    4    4    0    0 -0.19322524796E+02 -0.13830887745E+02 -0.65491427695E+02  0.69669078664E+02  0.00000000000E+00 0.  1.
<mgrwt>
<rscale>  0 0.78720610E+02</rscale>
<asrwt>0</asrwt>
<pdfrwt beam="1">  1        1 0.10241299E-02 0.78720610E+02</pdfrwt>
<pdfrwt beam="2">  1       -2 0.35804296E-01 0.78720610E+02</pdfrwt>
<totfact> 0.83109876E+04</totfact>
</mgrwt>
</event>
<event>
 8    1  0.8247621E-018  0.7959739E+02  0.7818608E-02  0.1330198E+00
         -2   -1    0    0    0  501 -0.00000000000E+00  0.00000000000E+00  0.15595678747E+03  0.15595678749E+03  0.25500000000E-02 0.  1.
          1   -1    0    0  501    0  0.00000000000E+00 -0.00000000000E+00 -0.10156250494E+02  0.10156251744E+02  0.50400000000E-02 0. -1.
        -24    2    1    2    0    0  0.00000000000E+00  0.00000000000E+00  0.14580053698E+03  0.16611303923E+03  0.79597394564E+02 0.  0.
         66    2    3    3    0    0  0.17476860238E+02 -0.20694740102E+02  0.13372588917E+03  0.13645631663E+03  0.20000008889E+01 0.  0.
         13    1    3    3    0    0 -0.17476860238E+02  0.20694740102E+02  0.12074647805E+02  0.29656722599E+02  0.10566000000E+00 0. -1.
         13    1    4    4    0    0  0.33427822337E+00 -0.43339176672E+00  0.20412599798E+01  0.21160048901E+01  0.10566000000E+00 0. -1.
        -13    1    4    4    0    0  0.59903673481E+01 -0.63421835190E+01  0.40887519091E+02  0.41807991750E+02  0.10566000000E+00 0.  1.
         14    1    4    4    0    0  0.11152214666E+02 -0.13919164817E+02  0.90797110099E+02  0.92532319994E+02  0.00000000000E+00 0. -1.
<mgrwt>
<rscale>  0 0.79597395E+02</rscale>
<asrwt>0</asrwt>
<pdfrwt beam="1">  1        1 0.15625004E-02 0.79597395E+02</pdfrwt>
<pdfrwt beam="2">  1       -2 0.23993348E-01 0.79597395E+02</pdfrwt>
<totfact> 0.94511403E+04</totfact>
</mgrwt>
</event>
<event>
 8    1  0.8247621E-018  0.8076836E+02  0.7818608E-02  0.1326885E+00
          1   -1    0    0  501    0  0.00000000000E+00  0.00000000000E+00  0.49019256851E+02  0.49019257110E+02  0.50400000000E-02 0. -1.
         -2   -1    0    0    0  501 -0.00000000000E+00 -0.00000000000E+00 -0.33270229963E+02  0.33270230061E+02  0.25500000000E-02 0.  1.
        -24    2    1    2    0    0  0.00000000000E+00  0.00000000000E+00  0.15749026888E+02  0.82289487171E+02  0.80768359219E+02 0.  0.
         66    2    3    3    0    0  0.17934374218E+02 -0.11488023825E+02 -0.27048386358E+02  0.34485238253E+02  0.19999956943E+01 0.  0.
         13    1    3    3    0    0 -0.17934374218E+02  0.11488023825E+02  0.42797413246E+02  0.47804248918E+02  0.10566000000E+00 0. -1.
         13    1    4    4    0    0  0.74578225206E+01 -0.44503724035E+01 -0.11778274422E+02  0.14634337829E+02  0.10566000000E+00 0. -1.
        -13    1    4    4    0    0  0.93380093195E+01 -0.57578543010E+01 -0.13203909172E+02  0.17166994078E+02  0.10566000000E+00 0.  1.
        -14    1    4    4    0    0  0.11385423783E+01 -0.12797971208E+01 -0.20662027640E+01  0.26839063470E+01  0.00000000000E+00 0.  1.
<mgrwt>
<rscale>  0 0.80768359E+02</rscale>
<asrwt>0</asrwt>
<pdfrwt beam="1">  1        1 0.75414242E-02 0.80768359E+02</pdfrwt>
<pdfrwt beam="2">  1       -2 0.51184969E-02 0.80768359E+02</pdfrwt>
<totfact> 0.12771378E+05</totfact>
</mgrwt>
</event>
<event>
 8    1  0.8247621E-018  0.7722691E+02  0.7818608E-02  0.1337110E+00
          1   -1    0    0  501    0  0.00000000000E+00  0.00000000000E+00  0.20415555178E+02  0.20415555800E+02  0.50400000000E-02 0. -1.
         -2   -1    0    0    0  501 -0.00000000000E+00 -0.00000000000E+00 -0.73032489203E+02  0.73032489247E+02  0.25500000000E-02 0.  1.
        -24    2    1    2    0    0 -0.71054273576E-14  0.00000000000E+00 -0.52616934025E+02  0.93448045047E+02  0.77226908374E+02 0.  0.
         66    2    3    3    0    0  0.33564006318E+02 -0.12676596043E+02 -0.43513616372E+02  0.56432910796E+02  0.20000009549E+01 0.  0.
         13    1    3    3    0    0 -0.33564006318E+02  0.12676596043E+02 -0.91033176527E+01  0.37015134251E+02  0.10566000000E+00 0. -1.
         13    1    4    4    0    0  0.15935572140E+02 -0.60426958731E+01 -0.20672044268E+02  0.26791812389E+02  0.10566000000E+00 0. -1.
        -13    1    4    4    0    0  0.54131904290E+01 -0.23618761397E+01 -0.81053192890E+01  0.10029379559E+02  0.10566000000E+00 0.  1.
         14    1    4    4    0    0  0.12215243748E+02 -0.42720240298E+01 -0.14736252815E+02  0.19611718848E+02  0.00000000000E+00 0. -1.
<mgrwt>
<rscale>  0 0.77226908E+02</rscale>
<asrwt>0</asrwt>
<pdfrwt beam="1">  1        1 0.31408547E-02 0.77226908E+02</pdfrwt>
<pdfrwt beam="2">  1       -2 0.11235767E-01 0.77226908E+02</pdfrwt>
<totfact> 0.12461313E+05</totfact>
</mgrwt>
</event>
<event>
 8    1  0.8247621E-018  0.8052570E+02  0.7818608E-02  0.1327566E+00
          1   -1    0    0  501    0  0.00000000000E+00  0.00000000000E+00  0.12645697464E+02  0.12645698468E+02  0.50400000000E-02 0. -1.
         -2   -1    0    0    0  501 -0.00000000000E+00 -0.00000000000E+00 -0.12819354904E+03  0.12819354907E+03  0.25500000000E-02 0.  1.
        -24    2    1    2    0    0 -0.17763568394E-14  0.00000000000E+00 -0.11554785158E+03  0.14083924754E+03  0.80525695540E+02 0.  0.
         66    2    3    3    0    0  0.92887409941E+01 -0.27345151614E+02 -0.10681430257E+03  0.11066767038E+03  0.20000015233E+01 0.  0.
         13    1    3    3    0    0 -0.92887409941E+01  0.27345151614E+02 -0.87335490033E+01  0.30171577159E+02  0.10566000000E+00 0. -1.
         13    1    4    4    0    0  0.92723622340E+00 -0.36004078578E+01 -0.15912993541E+02  0.16341885792E+02  0.10566000000E+00 0. -1.
        -13    1    4    4    0    0  0.41440029657E+01 -0.10875157774E+02 -0.42849270713E+02  0.44401722736E+02  0.10566000000E+00 0.  1.
        -14    1    4    4    0    0  0.42175018050E+01 -0.12869585982E+02 -0.48052038320E+02  0.49924061849E+02  0.00000000000E+00 0.  1.
<mgrwt>
<rscale>  0 0.80525696E+02</rscale>
<asrwt>0</asrwt>
<pdfrwt beam="1">  1        1 0.19454921E-02 0.80525696E+02</pdfrwt>
<pdfrwt beam="2">  1       -2 0.19722084E-01 0.80525696E+02</pdfrwt>
<totfact> 0.97587242E+04</totfact>
</mgrwt>
</event>
<event>
 8    1  0.8247621E-018  0.8043113E+02  0.7818608E-02  0.1327832E+00
          1   -1    0    0  501    0  0.00000000000E+00  0.00000000000E+00  0.26280297485E+01  0.26280345813E+01  0.50400000000E-02 0. -1.
         -2   -1    0    0    0  501 -0.00000000000E+00 -0.00000000000E+00 -0.61540020271E+03  0.61540020272E+03  0.25500000000E-02 0.  1.
        -24    2    1    2    0    0  0.35527136788E-14 -0.44408920985E-15 -0.61277217296E+03  0.61802823730E+03  0.80431126686E+02 0.  0.
         66    2    3    3    0    0 -0.24193045128E+02  0.25929369192E+01 -0.55237231124E+03  0.55291156344E+03  0.20000011434E+01 0.  0.
         13    1    3    3    0    0  0.24193045128E+02 -0.25929369192E+01 -0.60399861726E+02  0.65116673863E+02  0.10566000000E+00 0. -1.
         13    1    4    4    0    0 -0.30125363675E+00 -0.13100974833E+00 -0.10222522040E+02  0.10228344842E+02  0.10566000000E+00 0. -1.
        -13    1    4    4    0    0 -0.69948404958E+01  0.50669284856E+00 -0.15765154930E+03  0.15780749885E+03  0.10566000000E+00 0.  1.
         14    1    4    4    0    0 -0.16896950995E+02  0.22172538189E+01 -0.38449823990E+03  0.38487571975E+03  0.00000000000E+00 0. -1.
<mgrwt>
<rscale>  0 0.80431127E+02</rscale>
<asrwt>0</asrwt>
<pdfrwt beam="1">  1        1 0.40431313E-03 0.80431127E+02</pdfrwt>
<pdfrwt beam="2">  1       -2 0.94676840E-01 0.80431127E+02</pdfrwt>
<totfact> 0.41941685E+04</totfact>
</mgrwt>
</event>
<event>
 8    1  0.8247621E-018  0.7953410E+02  0.7818608E-02  0.1330379E+00
          1   -1    0    0  501    0  0.00000000000E+00  0.00000000000E+00  0.24005440236E+02  0.24005440765E+02  0.50400000000E-02 0. -1.
         -2   -1    0    0    0  501 -0.00000000000E+00 -0.00000000000E+00 -0.65877496033E+02  0.65877496082E+02  0.25500000000E-02 0.  1.
        -24    2    1    2    0    0  0.00000000000E+00  0.00000000000E+00 -0.41872055797E+02  0.89882936848E+02  0.79534101364E+02 0.  0.
         66    2    3    3    0    0  0.38216878475E+02 -0.62020762731E+01 -0.31083675646E+02  0.49690949328E+02  0.20000007645E+01 0.  0.
         13    1    3    3    0    0 -0.38216878475E+02  0.62020762731E+01 -0.10788380151E+02  0.40191987519E+02  0.10566000000E+00 0. -1.
         13    1    4    4    0    0  0.96348892282E+01 -0.12092511026E+01 -0.86382121680E+01  0.12997047825E+02  0.10566000000E+00 0. -1.
        -13    1    4    4    0    0  0.14645619016E+02 -0.29770643966E+01 -0.11375456763E+02  0.18782152416E+02  0.10566000000E+00 0.  1.
        -14    1    4    4    0    0  0.13936370230E+02 -0.20157607739E+01 -0.11070006715E+02  0.17911749087E+02  0.00000000000E+00 0.  1.
<mgrwt>
<rscale>  0 0.79534101E+02</rscale>
<asrwt>0</asrwt>
<pdfrwt beam="1">  1        1 0.36931447E-02 0.79534101E+02</pdfrwt>
<pdfrwt beam="2">  1       -2 0.10134999E-01 0.79534101E+02</pdfrwt>
<totfact> 0.11803478E+05</totfact>
</mgrwt>
</event>
<event>
 8    1  0.8247621E-018  0.7980825E+02  0.7818608E-02  0.1329596E+00
          1   -1    0    0  501    0  0.00000000000E+00  0.00000000000E+00  0.84173642299E+01  0.84173657388E+01  0.50400000000E-02 0. -1.
         -2   -1    0    0    0  501 -0.00000000000E+00 -0.00000000000E+00 -0.18917313453E+03  0.18917313455E+03  0.25500000000E-02 0.  1.
        -24    2    1    2    0    0  0.00000000000E+00  0.00000000000E+00 -0.18075577030E+03  0.19759050028E+03  0.79808253373E+02 0.  0.
         66    2    3    3    0    0 -0.18715886495E+02 -0.56402940336E+01 -0.17649309484E+03  0.17758352924E+03  0.20000023287E+01 0.  0.
         13    1    3    3    0    0  0.18715886495E+02  0.56402940336E+01 -0.42626754604E+01  0.20006971040E+02  0.10566000000E+00 0. -1.
         13    1    4    4    0    0 -0.18655598777E+01 -0.10078845795E+01 -0.20472213918E+02  0.20582003103E+02  0.10566000000E+00 0. -1.
        -13    1    4    4    0    0 -0.15105230564E+02 -0.38369270087E+01 -0.13662665090E+03  0.13751270087E+03  0.10566000000E+00 0.  1.
        -14    1    4    4    0    0 -0.17450960531E+01 -0.79548244537E+00 -0.19394230018E+02  0.19488825273E+02  0.00000000000E+00 0.  1.
<mgrwt>
<rscale>  0 0.79808253E+02</rscale>
<asrwt>0</asrwt>
<pdfrwt beam="1">  1        1 0.12949794E-02 0.79808253E+02</pdfrwt>
<pdfrwt beam="2">  1       -2 0.29103556E-01 0.79808253E+02</pdfrwt>
<totfact> 0.87519344E+04</totfact>
</mgrwt>
</event>
<event>
 8    1  0.8247621E-018  0.7980280E+02  0.7818608E-02  0.1329612E+00
          1   -1    0    0  501    0  0.00000000000E+00  0.00000000000E+00  0.36850404198E+02  0.36850404542E+02  0.50400000000E-02 0. -1.
         -2   -1    0    0    0  501 -0.00000000000E+00 -0.00000000000E+00 -0.43204997242E+02  0.43204997317E+02  0.25500000000E-02 0.  1.
        -24    2    1    2    0    0  0.00000000000E+00  0.00000000000E+00 -0.63545930439E+01  0.80055401859E+02  0.79802797658E+02 0.  0.
         66    2    3    3    0    0 -0.38220555795E+02  0.94286728012E+01  0.31973986641E+01  0.39546606941E+02  0.20000015551E+01 0.  0.
         13    1    3    3    0    0  0.38220555795E+02 -0.94286728012E+01 -0.95519917080E+01  0.40508794918E+02  0.10566000000E+00 0. -1.
         13    1    4    4    0    0 -0.14545411500E+02  0.34043323970E+01  0.20783388721E+01  0.15082742830E+02  0.10566000000E+00 0. -1.
        -13    1    4    4    0    0 -0.19790941955E+02  0.48547733227E+01  0.10942776931E+01  0.20407322588E+02  0.10566000000E+00 0.  1.
        -14    1    4    4    0    0 -0.38842023398E+01  0.11695670816E+01  0.24782098923E-01  0.40565415229E+01  0.00000000000E+00 0.  1.
<mgrwt>
<rscale>  0 0.79802798E+02</rscale>
<asrwt>0</asrwt>
<pdfrwt beam="1">  1        1 0.56692930E-02 0.79802798E+02</pdfrwt>
<pdfrwt beam="2">  1       -2 0.66469227E-02 0.79802798E+02</pdfrwt>
<totfact> 0.12615663E+05</totfact>
</mgrwt>
</event>
<event>
 8    1  0.8247621E-018  0.8103913E+02  0.7818608E-02  0.1326128E+00
          1   -1    0    0  501    0  0.00000000000E+00  0.00000000000E+00  0.44244104424E+01  0.44244133130E+01  0.50400000000E-02 0. -1.
         -2   -1    0    0    0  501 -0.00000000000E+00 -0.00000000000E+00 -0.37108553352E+03  0.37108553353E+03  0.25500000000E-02 0.  1.
        -24    2    1    2    0    0  0.00000000000E+00  0.00000000000E+00 -0.36666112308E+03  0.37550994684E+03  0.81039132526E+02 0.  0.
         66    2    3    3    0    0  0.35865181759E+02  0.32345332434E+01 -0.26926609562E+03  0.27167076346E+03  0.20000000585E+01 0.  0.
         13    1    3    3    0    0 -0.35865181759E+02 -0.32345332434E+01 -0.97395027451E+02  0.10383918338E+03  0.10566000000E+00 0. -1.
         13    1    4    4    0    0  0.62926704716E+01  0.88149999403E+00 -0.46024856908E+02  0.46461525602E+02  0.10566000000E+00 0. -1.
        -13    1    4    4    0    0  0.27156382721E+02  0.17832008929E+01 -0.20287702858E+03  0.20469428135E+03  0.10566000000E+00 0.  1.
        -14    1    4    4    0    0  0.24161285668E+01  0.56983235643E+00 -0.20364210134E+02  0.20514956509E+02  0.00000000000E+00 0.  1.
<mgrwt>
<rscale>  0 0.81039133E+02</rscale>
<asrwt>0</asrwt>
<pdfrwt beam="1">  1        1 0.68067905E-03 0.81039133E+02</pdfrwt>
<pdfrwt beam="2">  1       -2 0.57090057E-01 0.81039133E+02</pdfrwt>
<totfact> 0.59993963E+04</totfact>
</mgrwt>
</event>
<event>
 8    1  0.8247621E-018  0.8106654E+02  0.7818608E-02  0.1326052E+00
          1   -1    0    0  501    0  0.00000000000E+00  0.00000000000E+00  0.36287792782E+01  0.36287827782E+01  0.50400000000E-02 0. -1.
         -2   -1    0    0    0  501 -0.00000000000E+00 -0.00000000000E+00 -0.45275426386E+03  0.45275426387E+03  0.25500000000E-02 0.  1.
        -24    2    1    2    0    0  0.00000000000E+00  0.00000000000E+00 -0.44912548458E+03  0.45638304665E+03  0.81066542819E+02 0.  0.
         66    2    3    3    0    0 -0.95559839744E+01  0.11104801465E+02 -0.43731431734E+03  0.43756421882E+03  0.19999974097E+01 0.  0.
         13    1    3    3    0    0  0.95559839744E+01 -0.11104801465E+02 -0.11811167239E+02  0.18818827829E+02  0.10566000000E+00 0. -1.
         13    1    4    4    0    0 -0.55388458023E+01  0.57644276979E+01 -0.24518274987E+03  0.24531306414E+03  0.10566000000E+00 0. -1.
        -13    1    4    4    0    0 -0.16235465599E+01  0.17330225310E+01 -0.82234254700E+02  0.82268603250E+02  0.10566000000E+00 0.  1.
         14    1    4    4    0    0 -0.23935916122E+01  0.36073512360E+01 -0.10989731278E+03  0.10998255143E+03  0.00000000000E+00 0. -1.
<mgrwt>
<rscale>  0 0.81066543E+02</rscale>
<asrwt>0</asrwt>
<pdfrwt beam="1">  1        1 0.55827436E-03 0.81066543E+02</pdfrwt>
<pdfrwt beam="2">  1       -2 0.69654457E-01 0.81066543E+02</pdfrwt>
<totfact> 0.52419908E+04</totfact>
</mgrwt>
</event>
<event>
 8    1  0.8247621E-018  0.7887438E+02  0.7818608E-02  0.1332276E+00
         -2   -1    0    0    0  501 -0.00000000000E+00  0.00000000000E+00  0.54406727582E+01  0.54406733558E+01  0.25500000000E-02 0.  1.
          1   -1    0    0  501    0  0.00000000000E+00 -0.00000000000E+00 -0.28586387284E+03  0.28586387288E+03  0.50400000000E-02 0. -1.
        -24    2    1    2    0    0  0.00000000000E+00  0.00000000000E+00 -0.28042320008E+03  0.29130454624E+03  0.78874378071E+02 0.  0.
         66    2    3    3    0    0  0.80141898102E+01 -0.38199205040E+02 -0.12011297449E+03  0.12631125518E+03  0.20000096192E+01 0.  0.
         13    1    3    3    0    0 -0.80141898102E+01  0.38199205040E+02 -0.16031022559E+03  0.16499329106E+03  0.10566000000E+00 0. -1.
         13    1    4    4    0    0  0.11639098735E+01 -0.84714263632E+01 -0.27447890018E+02  0.28749218794E+02  0.10566000000E+00 0. -1.
        -13    1    4    4    0    0  0.15520284078E+01 -0.84135381920E+01 -0.25480215138E+02  0.26878410381E+02  0.10566000000E+00 0.  1.
        -14    1    4    4    0    0  0.52982515290E+01 -0.21314240485E+02 -0.67184869339E+02  0.70683626002E+02  0.00000000000E+00 0.  1.
<mgrwt>
<rscale>  0 0.78874378E+02</rscale>
<asrwt>0</asrwt>
<pdfrwt beam="1">  1        1 0.43979046E-01 0.78874378E+02</pdfrwt>
<pdfrwt beam="2">  1       -2 0.83702685E-03 0.78874378E+02</pdfrwt>
<totfact> 0.18555928E+05</totfact>
</mgrwt>
</event>
<event>
 8    1  0.8247621E-018  0.7987066E+02  0.7818608E-02  0.1329419E+00
         -2   -1    0    0    0  501 -0.00000000000E+00  0.00000000000E+00  0.84651536358E+01  0.84651540199E+01  0.25500000000E-02 0.  1.
          1   -1    0    0  501    0  0.00000000000E+00 -0.00000000000E+00 -0.18839949604E+03  0.18839949610E+03  0.50400000000E-02 0. -1.
        -24    2    1    2    0    0  0.00000000000E+00  0.00000000000E+00 -0.17993434240E+03  0.19686465012E+03  0.79870663533E+02 0.  0.
         66    2    3    3    0    0  0.23519427905E+02  0.16838885591E+02 -0.22247704536E+02  0.36546845492E+02  0.20000003424E+01 0.  0.
         13    1    3    3    0    0 -0.23519427905E+02 -0.16838885591E+02 -0.15768663786E+03  0.16031780463E+03  0.10566000000E+00 0. -1.
         13    1    4    4    0    0  0.96333634458E+01  0.69984877474E+01 -0.84631444739E+01  0.14608781621E+02  0.10566000000E+00 0. -1.
        -13    1    4    4    0    0  0.87503898237E+01  0.65339353032E+01 -0.81369052286E+01  0.13619178512E+02  0.10566000000E+00 0.  1.
        -14    1    4    4    0    0  0.51356746357E+01  0.33064625400E+01 -0.56476548338E+01  0.83188853588E+01  0.00000000000E+00 0.  1.
<mgrwt>
<rscale>  0 0.79870664E+02</rscale>
<asrwt>0</asrwt>
<pdfrwt beam="1">  1        1 0.28984535E-01 0.79870664E+02</pdfrwt>
<pdfrwt beam="2">  1       -2 0.13023315E-02 0.79870664E+02</pdfrwt>
<totfact> 0.16553309E+05</totfact>
</mgrwt>
</event>
<event>
 8    1  0.1272230E-017  0.8049841E+02  0.7818608E-02  0.1327643E+00
          1   -1    0    0  501    0  0.00000000000E+00  0.00000000000E+00  0.58925152292E+02  0.58925152507E+02  0.50400000000E-02 0. -1.
         -2   -1    0    0    0  501 -0.00000000000E+00 -0.00000000000E+00 -0.27492480816E+02  0.27492480935E+02  0.25500000000E-02 0.  1.
        -24    2    1    2    0    0 -0.17763568394E-14  0.00000000000E+00  0.31432671476E+02  0.86417633442E+02  0.80498413237E+02 0.  0.
         66    2    3    3    0    0 -0.14390622020E+02 -0.48494061552E+01 -0.24260530955E+02  0.28691116977E+02  0.20000222538E+01 0.  0.
         13    1    3    3    0    0  0.14390622020E+02  0.48494061552E+01  0.55693202430E+02  0.57726516465E+02  0.10566000000E+00 0. -1.
         13    1    4    4    0    0 -0.10163884941E+01 -0.13965793616E+00 -0.10591835267E+01  0.14783719724E+01  0.10566000000E+00 0. -1.
        -13    1    4    4    0    0 -0.41899129442E+01 -0.17619966035E+01 -0.66460767554E+01  0.80524221688E+01  0.10566000000E+00 0.  1.
        -14    1    4    4    0    0 -0.91843205814E+01 -0.29477516156E+01 -0.16555270673E+02  0.19160322836E+02  0.00000000000E+00 0.  1.
<mgrwt>
<rscale>  0 0.80498413E+02</rscale>
<asrwt>0</asrwt>
<pdfrwt beam="1">  1        1 0.90654080E-02 0.80498413E+02</pdfrwt>
<pdfrwt beam="2">  1       -2 0.42296125E-02 0.80498413E+02</pdfrwt>
<totfact> 0.13270766E+05</totfact>
</mgrwt>
</event>
<event>
 8    1  0.1088924E-017  0.7967485E+02  0.7818608E-02  0.1329977E+00
         -2   -1    0    0    0  501 -0.00000000000E+00  0.00000000000E+00  0.31079514400E+02  0.31079514505E+02  0.25500000000E-02 0.  1.
          1   -1    0    0  501    0  0.00000000000E+00 -0.00000000000E+00 -0.51063231014E+02  0.51063231263E+02  0.50400000000E-02 0. -1.
        -24    2    1    2    0    0  0.00000000000E+00  0.00000000000E+00 -0.19983716614E+02  0.82142745768E+02  0.79674850188E+02 0.  0.
         66    2    3    3    0    0 -0.11494245328E+02 -0.23905744042E+02  0.20610059525E+02  0.33650807272E+02  0.20000006363E+01 0.  0.
         13    1    3    3    0    0  0.11494245328E+02  0.23905744042E+02 -0.40593776139E+02  0.48491938496E+02  0.10566000000E+00 0. -1.
         13    1    4    4    0    0 -0.51059500013E+00 -0.65826333030E+00  0.49900281818E+00  0.97682430064E+00  0.10566000000E+00 0. -1.
        -13    1    4    4    0    0 -0.54638225581E+01 -0.11147524048E+02  0.88370172001E+01  0.15238920119E+02  0.10566000000E+00 0.  1.
        -14    1    4    4    0    0 -0.55198277701E+01 -0.12099956664E+02  0.11274039506E+02  0.17435062852E+02  0.00000000000E+00 0.  1.
<mgrwt>
<rscale>  0 0.79674850E+02</rscale>
<asrwt>0</asrwt>
<pdfrwt beam="1">  1        1 0.78558817E-02 0.79674850E+02</pdfrwt>
<pdfrwt beam="2">  1       -2 0.47814638E-02 0.79674850E+02</pdfrwt>
<totfact> 0.13350869E+05</totfact>
</mgrwt>
</event>
<event>
 8    1  0.8247621E-018  0.7941100E+02  0.7818608E-02  0.1330731E+00
         -2   -1    0    0    0  501 -0.00000000000E+00  0.00000000000E+00  0.13005997558E+02  0.13005997808E+02  0.25500000000E-02 0.  1.
          1   -1    0    0  501    0  0.00000000000E+00 -0.00000000000E+00 -0.12121536674E+03  0.12121536685E+03  0.50400000000E-02 0. -1.
        -24    2    1    2    0    0  0.00000000000E+00  0.00000000000E+00 -0.10820936918E+03  0.13422136465E+03  0.79411001446E+02 0.  0.
         66    2    3    3    0    0  0.23355022420E+02  0.16300155910E+02 -0.74398160801E+01  0.29504287959E+02  0.19999974305E+01 0.  0.
         13    1    3    3    0    0 -0.23355022420E+02 -0.16300155910E+02 -0.10076955310E+03  0.10471707670E+03  0.10566000000E+00 0. -1.
         13    1    4    4    0    0  0.64139335614E+01  0.41782886872E+01 -0.23381866696E+01  0.80046811942E+01  0.10566000000E+00 0. -1.
        -13    1    4    4    0    0  0.15072828085E+02  0.10829466819E+02 -0.40528482485E+01  0.18997479860E+02  0.10566000000E+00 0.  1.
        -14    1    4    4    0    0  0.18682607734E+01  0.12924004045E+01 -0.10487811619E+01  0.25021269050E+01  0.00000000000E+00 0.  1.
<mgrwt>
<rscale>  0 0.79411001E+02</rscale>
<asrwt>0</asrwt>
<pdfrwt beam="1">  1        1 0.18648517E-01 0.79411001E+02</pdfrwt>
<pdfrwt beam="2">  1       -2 0.20009228E-02 0.79411001E+02</pdfrwt>
<totfact> 0.15497801E+05</totfact>
</mgrwt>
</event>
<event>
 8    1  0.8247621E-018  0.7984323E+02  0.7818608E-02  0.1329497E+00
         -2   -1    0    0    0  501 -0.00000000000E+00  0.00000000000E+00  0.90951722265E+01  0.90951725840E+01  0.25500000000E-02 0.  1.
          1   -1    0    0  501    0  0.00000000000E+00 -0.00000000000E+00 -0.17522871445E+03  0.17522871453E+03  0.50400000000E-02 0. -1.
        -24    2    1    2    0    0  0.00000000000E+00 -0.71054273576E-14 -0.16613354223E+03  0.18432388711E+03  0.79843230812E+02 0.  0.
         66    2    3    3    0    0  0.11853164233E+02  0.35288784893E+02 -0.11624773333E+03  0.12207920111E+03  0.19999996098E+01 0.  0.
         13    1    3    3    0    0 -0.11853164233E+02 -0.35288784893E+02 -0.49885808897E+02  0.62244685997E+02  0.10566000000E+00 0. -1.
         13    1    4    4    0    0  0.42655941156E+01  0.12537756942E+02 -0.43978399250E+02  0.45929308801E+02  0.10566000000E+00 0. -1.
        -13    1    4    4    0    0  0.59867968823E+00  0.19091624952E+01 -0.67602701949E+01  0.70509386570E+01  0.10566000000E+00 0.  1.
        -14    1    4    4    0    0  0.69888904292E+01  0.20841865456E+02 -0.65509063886E+02  0.69098953656E+02  0.00000000000E+00 0.  1.
<mgrwt>
<rscale>  0 0.79843231E+02</rscale>
<asrwt>0</asrwt>
<pdfrwt beam="1">  1        1 0.26958261E-01 0.79843231E+02</pdfrwt>
<pdfrwt beam="2">  1       -2 0.13992574E-02 0.79843231E+02</pdfrwt>
<totfact> 0.16339917E+05</totfact>
</mgrwt>
</event>
<event>
 8    1  0.8247621E-018  0.7840128E+02  0.7818608E-02  0.1333651E+00
          1   -1    0    0  501    0  0.00000000000E+00  0.00000000000E+00  0.30593211094E+03  0.30593211098E+03  0.50400000000E-02 0. -1.
         -2   -1    0    0    0  501 -0.00000000000E+00 -0.00000000000E+00 -0.50229770538E+01  0.50229777011E+01  0.25500000000E-02 0.  1.
        -24    2    1    2    0    0  0.00000000000E+00 -0.35527136788E-14  0.30090913389E+03  0.31095508868E+03  0.78401277550E+02 0.  0.
         66    2    3    3    0    0 -0.23592531582E+02  0.26935485500E+02  0.87521169259E+02  0.94583735363E+02  0.20000002924E+01 0.  0.
         13    1    3    3    0    0  0.23592531582E+02 -0.26935485500E+02  0.21338796463E+03  0.21637135332E+03  0.10566000000E+00 0. -1.
         13    1    4    4    0    0 -0.14570650288E+02  0.17481264012E+02  0.55214369609E+02  0.59720484063E+02  0.10566000000E+00 0. -1.
        -13    1    4    4    0    0 -0.72205946473E+01  0.80002181360E+01  0.27140757370E+02  0.29202266213E+02  0.10566000000E+00 0.  1.
         14    1    4    4    0    0 -0.18012866469E+01  0.14540033521E+01  0.51660422792E+01  0.56609850876E+01  0.00000000000E+00 0. -1.
<mgrwt>
<rscale>  0 0.78401278E+02</rscale>
<asrwt>0</asrwt>
<pdfrwt beam="1">  1        1 0.47066485E-01 0.78401278E+02</pdfrwt>
<pdfrwt beam="2">  1       -2 0.77276564E-03 0.78401278E+02</pdfrwt>
<totfact> 0.19097251E+05</totfact>
</mgrwt>
</event>
<event>
 8    1  0.8247621E-018  0.7257797E+02  0.7818608E-02  0.1351540E+00
          1   -1    0    0  501    0  0.00000000000E+00  0.00000000000E+00  0.37474745396E+03  0.37474745400E+03  0.50400000000E-02 0. -1.
         -2   -1    0    0    0  501 -0.00000000000E+00 -0.00000000000E+00 -0.35140742717E+01  0.35140751969E+01  0.25500000000E-02 0.  1.
        -24    2    1    2    0    0  0.00000000000E+00 -0.17763568394E-14  0.37123337969E+03  0.37826152920E+03  0.72577973732E+02 0.  0.
         66    2    3    3    0    0 -0.29380835850E+02  0.15475108211E+02  0.26167313060E+03  0.26377933917E+03  0.20000003800E+01 0.  0.
         13    1    3    3    0    0  0.29380835850E+02 -0.15475108211E+02  0.10956024909E+03  0.11448219003E+03  0.10566000000E+00 0. -1.
         13    1    4    4    0    0 -0.52141478518E+01  0.24998401469E+01  0.50053273977E+02  0.50386287207E+02  0.10566000000E+00 0. -1.
        -13    1    4    4    0    0 -0.72760137825E+01  0.39962903502E+01  0.67988195346E+02  0.68493186402E+02  0.10566000000E+00 0.  1.
        -14    1    4    4    0    0 -0.16890674216E+02  0.89789777136E+01  0.14363166128E+03  0.14489986556E+03  0.00000000000E+00 0.  1.
<mgrwt>
<rscale>  0 0.72577974E+02</rscale>
<asrwt>0</asrwt>
<pdfrwt beam="1">  1        1 0.57653448E-01 0.72577974E+02</pdfrwt>
<pdfrwt beam="2">  1       -2 0.54062695E-03 0.72577974E+02</pdfrwt>
<totfact> 0.24231464E+05</totfact>
</mgrwt>
</event>
<event>
 8    1  0.8247621E-018  0.7837515E+02  0.7818608E-02  0.1333727E+00
          1   -1    0    0  501    0  0.00000000000E+00  0.00000000000E+00  0.56484270699E+02  0.56484270923E+02  0.50400000000E-02 0. -1.
         -2   -1    0    0    0  501 -0.00000000000E+00 -0.00000000000E+00 -0.27187499622E+02  0.27187499741E+02  0.25500000000E-02 0.  1.
        -24    2    1    2    0    0  0.35527136788E-14  0.00000000000E+00  0.29296771077E+02  0.83671770665E+02  0.78375151742E+02 0.  0.
         66    2    3    3    0    0  0.17676573190E+02 -0.80099256761E+01 -0.21656173632E+02  0.29148070426E+02  0.20000010212E+01 0.  0.
         13    1    3    3    0    0 -0.17676573190E+02  0.80099256761E+01  0.50952944709E+02  0.54523700238E+02  0.10566000000E+00 0. -1.
         13    1    4    4    0    0  0.88231599800E+01 -0.40692797334E+01 -0.12212535059E+02  0.15606548824E+02  0.10566000000E+00 0.  1.
        -13    1    4    4    0    0  0.24908112689E+01 -0.98201506945E+00 -0.28719541143E+01  0.39278211319E+01  0.10566000000E+00 0.  1.
         14    1    4    4    0    0  0.63626019416E+01 -0.29586308733E+01 -0.65716844587E+01  0.96137004705E+01  0.00000000000E+00 0. -1.
<mgrwt>
<rscale>  0 0.78375152E+02</rscale>
<asrwt>0</asrwt>
<pdfrwt beam="1">  1        1 0.86898879E-02 0.78375152E+02</pdfrwt>
<pdfrwt beam="2">  1       -2 0.41826922E-02 0.78375152E+02</pdfrwt>
<totfact> 0.14192538E+05</totfact>
</mgrwt>
</event>
<event>
 8    1  0.8247621E-018  0.6987041E+02  0.7818608E-02  0.1360534E+00
         -2   -1    0    0    0  501 -0.00000000000E+00  0.00000000000E+00  0.80769448934E+01  0.80769452960E+01  0.25500000000E-02 0.  1.
          1   -1    0    0  501    0  0.00000000000E+00 -0.00000000000E+00 -0.15110520327E+03  0.15110520336E+03  0.50400000000E-02 0. -1.
        -24    2    1    2    0    0 -0.35527136788E-14 -0.35527136788E-14 -0.14302825838E+03  0.15918214865E+03  0.69870406860E+02 0.  0.
         66    2    3    3    0    0  0.21862304569E+02  0.19021457619E+02 -0.27238088075E+02  0.39820718894E+02  0.20000000629E+01 0.  0.
         13    1    3    3    0    0 -0.21862304569E+02 -0.19021457619E+02 -0.11579017031E+03  0.11936142976E+03  0.10566000000E+00 0. -1.
         13    1    4    4    0    0  0.71029930273E+01  0.70211493006E+01 -0.95913474350E+01  0.13847532528E+02  0.10566000000E+00 0. -1.
        -13    1    4    4    0    0  0.14491686312E+02  0.11743129960E+02 -0.17053301140E+02  0.25273233217E+02  0.10566000000E+00 0.  1.
         14    1    4    4    0    0  0.26762522888E+00  0.25717835825E+00 -0.59343950014E+00  0.69995314944E+00  0.00000000000E+00 0. -1.
<mgrwt>
<rscale>  0 0.69870407E+02</rscale>
<asrwt>0</asrwt>
<pdfrwt beam="1">  1        1 0.23246952E-01 0.69870407E+02</pdfrwt>
<pdfrwt beam="2">  1       -2 0.12426071E-02 0.69870407E+02</pdfrwt>
<totfact> 0.22625874E+05</totfact>
</mgrwt>
</event>
<event>
 8    1  0.8247621E-018  0.8004713E+02  0.7818608E-02  0.1328918E+00
          1   -1    0    0  501    0  0.00000000000E+00  0.00000000000E+00  0.58344220316E+01  0.58344242084E+01  0.50400000000E-02 0. -1.
         -2   -1    0    0    0  501 -0.00000000000E+00 -0.00000000000E+00 -0.27455768733E+03  0.27455768735E+03  0.25500000000E-02 0.  1.
        -24    2    1    2    0    0  0.00000000000E+00  0.00000000000E+00 -0.26872326530E+03  0.28039211155E+03  0.80047129287E+02 0.  0.
         66    2    3    3    0    0  0.37795324877E+02  0.11224803625E+02 -0.15804670090E+03  0.16290255512E+03  0.20000001442E+01 0.  0.
         13    1    3    3    0    0 -0.37795324877E+02 -0.11224803625E+02 -0.11067656441E+03  0.11748955644E+03  0.10566000000E+00 0. -1.
         13    1    4    4    0    0  0.70650946832E+01  0.22728969488E+01 -0.30862011969E+02  0.31742031602E+02  0.10566000000E+00 0.  1.
        -13    1    4    4    0    0  0.21087012675E+02  0.54070146751E+01 -0.87521556716E+02  0.90188313906E+02  0.10566000000E+00 0.  1.
         14    1    4    4    0    0  0.96432175189E+01  0.35448920013E+01 -0.39663132213E+02  0.40972209610E+02  0.00000000000E+00 0. -1.
<mgrwt>
<rscale>  0 0.80047129E+02</rscale>
<asrwt>0</asrwt>
<pdfrwt beam="1">  1        1 0.89760377E-03 0.80047129E+02</pdfrwt>
<pdfrwt beam="2">  1       -2 0.42239634E-01 0.80047129E+02</pdfrwt>
<totfact> 0.73517861E+04</totfact>
</mgrwt>
</event>
<event>
 8    1  0.8247621E-018  0.8111481E+02  0.7818608E-02  0.1325917E+00
          1   -1    0    0  501    0  0.00000000000E+00  0.00000000000E+00  0.14736666304E+03  0.14736666312E+03  0.50400000000E-02 0. -1.
         -2   -1    0    0    0  501 -0.00000000000E+00 -0.00000000000E+00 -0.11161974110E+02  0.11161974402E+02  0.25500000000E-02 0.  1.
        -24    2    1    2    0    0 -0.35527136788E-14  0.00000000000E+00  0.13620468893E+03  0.15852863752E+03  0.81114805245E+02 0.  0.
         66    2    3    3    0    0 -0.27529282801E+02  0.27568672007E+02  0.46292646293E+02  0.60538435656E+02  0.20000007527E+01 0.  0.
         13    1    3    3    0    0  0.27529282801E+02 -0.27568672007E+02  0.89912042632E+02  0.97990201868E+02  0.10566000000E+00 0. -1.
         13    1    4    4    0    0 -0.24793030077E+00  0.20510778172E+00  0.33354715533E+00  0.47534868948E+00  0.10566000000E+00 0.  1.
        -13    1    4    4    0    0 -0.20848285235E+02  0.21376168993E+02  0.34652699694E+02  0.45742894073E+02  0.10566000000E+00 0.  1.
        -14    1    4    4    0    0 -0.64330672652E+01  0.59873952327E+01  0.11306399444E+02  0.14320192893E+02  0.00000000000E+00 0.  1.
<mgrwt>
<rscale>  0 0.81114805E+02</rscale>
<asrwt>0</asrwt>
<pdfrwt beam="1">  1        1 0.22671795E-01 0.81114805E+02</pdfrwt>
<pdfrwt beam="2">  1       -2 0.17172268E-02 0.81114805E+02</pdfrwt>
<totfact> 0.15165020E+05</totfact>
</mgrwt>
</event>
<event>
 8    1  0.8247621E-018  0.8154078E+02  0.7818608E-02  0.1324735E+00
          1   -1    0    0  501    0  0.00000000000E+00  0.00000000000E+00  0.10397586887E+03  0.10397586900E+03  0.50400000000E-02 0. -1.
         -2   -1    0    0    0  501 -0.00000000000E+00 -0.00000000000E+00 -0.15986638219E+02  0.15986638423E+02  0.25500000000E-02 0.  1.
        -24    2    1    2    0    0  0.00000000000E+00 -0.71054273576E-14  0.87989230655E+02  0.11996250742E+03  0.81540777989E+02 0.  0.
         66    2    3    3    0    0  0.45513820024E+01  0.32652188436E+02  0.87939420023E+01  0.34179144250E+02  0.19999994912E+01 0.  0.
         13    1    3    3    0    0 -0.45513820024E+01 -0.32652188436E+02  0.79195288653E+02  0.85783363169E+02  0.10566000000E+00 0. -1.
         13    1    4    4    0    0  0.14845383951E+01  0.75181841742E+01  0.27490737405E+01  0.81422059658E+01  0.10566000000E+00 0. -1.
        -13    1    4    4    0    0  0.23581385836E+01  0.18302883784E+02  0.42193643372E+01  0.18930678060E+02  0.10566000000E+00 0.  1.
         14    1    4    4    0    0  0.70870502371E+00  0.68311204782E+01  0.18255039246E+01  0.71062602244E+01  0.00000000000E+00 0. -1.
<mgrwt>
<rscale>  0 0.81540778E+02</rscale>
<asrwt>0</asrwt>
<pdfrwt beam="1">  1        1 0.15996287E-01 0.81540778E+02</pdfrwt>
<pdfrwt beam="2">  1       -2 0.24594829E-02 0.81540778E+02</pdfrwt>
<totfact> 0.14052703E+05</totfact>
</mgrwt>
</event>
<event>
 8    1  0.8247621E-018  0.7936117E+02  0.7818608E-02  0.1330874E+00
          1   -1    0    0  501    0  0.00000000000E+00  0.00000000000E+00  0.18399452223E+03  0.18399452230E+03  0.50400000000E-02 0. -1.
         -2   -1    0    0    0  501 -0.00000000000E+00 -0.00000000000E+00 -0.85575860320E+01  0.85575864119E+01  0.25500000000E-02 0.  1.
        -24    2    1    2    0    0  0.35527136788E-14  0.71054273576E-14  0.17543693620E+03  0.19255210871E+03  0.79361174302E+02 0.  0.
         66    2    3    3    0    0  0.17233120137E+02  0.21228909582E+02  0.18088901755E+02  0.32845934319E+02  0.20000007235E+01 0.  0.
         13    1    3    3    0    0 -0.17233120137E+02 -0.21228909582E+02  0.15734803445E+03  0.15970617440E+03  0.10566000000E+00 0. -1.
         13    1    4    4    0    0  0.94167236300E+01  0.11586962488E+02  0.90997484043E+01  0.17485678960E+02  0.10566000000E+00 0.  1.
        -13    1    4    4    0    0  0.33995360979E+01  0.35725803028E+01  0.31844585117E+01  0.58712959174E+01  0.10566000000E+00 0. -1.
        -14    1    4    4    0    0  0.44168604092E+01  0.60693667911E+01  0.58046948390E+01  0.94889594420E+01  0.00000000000E+00 0.  1.
<mgrwt>
<rscale>  0 0.79361174E+02</rscale>
<asrwt>0</asrwt>
<pdfrwt beam="1">  1        1 0.28306846E-01 0.79361174E+02</pdfrwt>
<pdfrwt beam="2">  1       -2 0.13165519E-02 0.79361174E+02</pdfrwt>
<totfact> 0.16760808E+05</totfact>
</mgrwt>
</event>
<event>
 8    1  0.8247621E-018  0.7987302E+02  0.7818608E-02  0.1329412E+00
         -2   -1    0    0    0  501 -0.00000000000E+00  0.00000000000E+00  0.15108374697E+02  0.15108374912E+02  0.25500000000E-02 0.  1.
          1   -1    0    0  501    0  0.00000000000E+00 -0.00000000000E+00 -0.10556561468E+03  0.10556561480E+03  0.50400000000E-02 0. -1.
        -24    2    1    2    0    0  0.00000000000E+00  0.00000000000E+00 -0.90457239979E+02  0.12067398971E+03  0.79873021274E+02 0.  0.
         66    2    3    3    0    0 -0.24053438946E+02  0.24367829500E+02 -0.14273574132E+02  0.37149615149E+02  0.19999868797E+01 0.  0.
         13    1    3    3    0    0  0.24053438946E+02 -0.24367829500E+02 -0.76183665847E+02  0.83524374560E+02  0.10566000000E+00 0. -1.
         13    1    4    4    0    0 -0.20257697636E+01  0.13863619760E+01 -0.10332611546E+01  0.26654334193E+01  0.10566000000E+00 0. -1.
        -13    1    4    4    0    0 -0.10639135087E+02  0.10676493310E+02 -0.64546606249E+01  0.16396722618E+02  0.10566000000E+00 0.  1.
        -14    1    4    4    0    0 -0.11388534095E+02  0.12304974214E+02 -0.67856523525E+01  0.18087459111E+02  0.00000000000E+00 0.  1.
<mgrwt>
<rscale>  0 0.79873021E+02</rscale>
<asrwt>0</asrwt>
<pdfrwt beam="1">  1        1 0.16240863E-01 0.79873021E+02</pdfrwt>
<pdfrwt beam="2">  1       -2 0.23243654E-02 0.79873021E+02</pdfrwt>
<totfact> 0.14898144E+05</totfact>
</mgrwt>
</event>
<event>
 8    1  0.8247621E-018  0.7969246E+02  0.7818608E-02  0.1329926E+00
         -2   -1    0    0    0  501 -0.00000000000E+00  0.00000000000E+00  0.30844528293E+03  0.30844528295E+03  0.25500000000E-02 0.  1.
          1   -1    0    0  501    0  0.00000000000E+00 -0.00000000000E+00 -0.51474990307E+01  0.51475014980E+01  0.50400000000E-02 0. -1.
        -24    2    1    2    0    0  0.00000000000E+00  0.88817841970E-15  0.30329778390E+03  0.31359278444E+03  0.79692463469E+02 0.  0.
         66    2    3    3    0    0 -0.20612565559E+02 -0.75735133238E+01  0.28246090387E+03  0.28332031020E+03  0.19999990779E+01 0.  0.
         13    1    3    3    0    0  0.20612565559E+02  0.75735133238E+01  0.20836880035E+02  0.30272474240E+02  0.10566000000E+00 0. -1.
         13    1    4    4    0    0 -0.29737672781E+01 -0.80834938173E+00  0.38309878217E+02  0.38433769703E+02  0.10566000000E+00 0.  1.
        -13    1    4    4    0    0 -0.25611618057E+01 -0.11519616445E+01  0.29581166881E+02  0.29714359550E+02  0.10566000000E+00 0. -1.
         14    1    4    4    0    0 -0.15077636475E+02 -0.56132022976E+01  0.21456985877E+03  0.21517218095E+03  0.00000000000E+00 0. -1.
<mgrwt>
<rscale>  0 0.79692463E+02</rscale>
<asrwt>0</asrwt>
<pdfrwt beam="1">  1        1 0.79192303E-03 0.79692463E+02</pdfrwt>
<pdfrwt beam="2">  1       -2 0.47453126E-01 0.79692463E+02</pdfrwt>
<totfact> 0.69898436E+04</totfact>
</mgrwt>
</event>
<event>
 8    1  0.8247621E-018  0.7923804E+02  0.7818608E-02  0.1331228E+00
          1   -1    0    0  501    0  0.00000000000E+00  0.00000000000E+00  0.10447803175E+02  0.10447804390E+02  0.50400000000E-02 0. -1.
         -2   -1    0    0    0  501 -0.00000000000E+00 -0.00000000000E+00 -0.15023892974E+03  0.15023892976E+03  0.25500000000E-02 0.  1.
        -24    2    1    2    0    0  0.71054273576E-14 -0.35527136788E-14 -0.13979112657E+03  0.16068673415E+03  0.79238043049E+02 0.  0.
         66    2    3    3    0    0  0.24307272625E+02 -0.29292780409E+02 -0.92038616206E+02  0.99619362372E+02  0.19999998968E+01 0.  0.
         13    1    3    3    0    0 -0.24307272625E+02  0.29292780409E+02 -0.47752510361E+02  0.61067371782E+02  0.10566000000E+00 0. -1.
         13    1    4    4    0    0  0.70661417744E+01 -0.79304991377E+01 -0.24308312961E+02  0.26527880036E+02  0.10566000000E+00 0. -1.
        -13    1    4    4    0    0  0.67775732177E+01 -0.77090530796E+01 -0.24374961417E+02  0.26448344111E+02  0.10566000000E+00 0.  1.
         14    1    4    4    0    0  0.10463557633E+02 -0.13653228192E+02 -0.43355341828E+02  0.46643138224E+02  0.00000000000E+00 0. -1.
<mgrwt>
<rscale>  0 0.79238043E+02</rscale>
<asrwt>0</asrwt>
<pdfrwt beam="1">  1        1 0.16073545E-02 0.79238043E+02</pdfrwt>
<pdfrwt beam="2">  1       -2 0.23113680E-01 0.79238043E+02</pdfrwt>
<totfact> 0.96815666E+04</totfact>
</mgrwt>
</event>
<event>
 8    1  0.8247621E-018  0.7805390E+02  0.7818608E-02  0.1334667E+00
         -2   -1    0    0    0  501 -0.00000000000E+00  0.00000000000E+00  0.16069601361E+02  0.16069601563E+02  0.25500000000E-02 0.  1.
          1   -1    0    0  501    0  0.00000000000E+00 -0.00000000000E+00 -0.94781612062E+02  0.94781612196E+02  0.50400000000E-02 0. -1.
        -24    2    1    2    0    0  0.71054273576E-14  0.00000000000E+00 -0.78712010701E+02  0.11085121376E+03  0.78053897811E+02 0.  0.
         66    2    3    3    0    0  0.23867293283E+02  0.13490337962E+02  0.13047760633E-01  0.27488854743E+02  0.20000144604E+01 0.  0.
         13    1    3    3    0    0 -0.23867293283E+02 -0.13490337962E+02 -0.78725058462E+02  0.83362359017E+02  0.10566000000E+00 0. -1.
         13    1    4    4    0    0  0.62031346848E+01  0.37633693198E+01 -0.15520632181E+00  0.72578978770E+01  0.10566000000E+00 0.  1.
        -13    1    4    4    0    0  0.14712578962E+02  0.74010744620E+01  0.59395907848E-02  0.16469580511E+02  0.10566000000E+00 0. -1.
         14    1    4    4    0    0  0.29515796368E+01  0.23258941802E+01  0.16231449166E+00  0.37613763550E+01  0.00000000000E+00 0. -1.
<mgrwt>
<rscale>  0 0.78053898E+02</rscale>
<asrwt>0</asrwt>
<pdfrwt beam="1">  1        1 0.14581786E-01 0.78053898E+02</pdfrwt>
<pdfrwt beam="2">  1       -2 0.24722464E-02 0.78053898E+02</pdfrwt>
<totfact> 0.15570647E+05</totfact>
</mgrwt>
</event>
<event>
 8    1  0.8247621E-018  0.8210442E+02  0.7818608E-02  0.1323183E+00
          1   -1    0    0  501    0  0.00000000000E+00  0.00000000000E+00  0.12058515431E+03  0.12058515442E+03  0.50400000000E-02 0. -1.
         -2   -1    0    0    0  501 -0.00000000000E+00 -0.00000000000E+00 -0.13975883075E+02  0.13975883307E+02  0.25500000000E-02 0.  1.
        -24    2    1    2    0    0 -0.88817841970E-15 -0.71054273576E-14  0.10660927124E+03  0.13456103773E+03  0.82104422292E+02 0.  0.
         66    2    3    3    0    0 -0.53173211447E+01 -0.37225467132E+02  0.26442724674E+02  0.46013334992E+02  0.20000003735E+01 0.  0.
         13    1    3    3    0    0  0.53173211447E+01  0.37225467132E+02  0.80166546565E+02  0.88547702735E+02  0.10566000000E+00 0. -1.
         13    1    4    4    0    0 -0.97682090576E+00 -0.58128154202E+01  0.44389061633E+01  0.73795700521E+01  0.10566000000E+00 0.  1.
        -13    1    4    4    0    0 -0.22554009991E+01 -0.21718564155E+02  0.15411834961E+02  0.26726740983E+02  0.10566000000E+00 0. -1.
         14    1    4    4    0    0 -0.20850992399E+01 -0.96940875568E+01  0.65919835491E+01  0.11907023957E+02  0.00000000000E+00 0. -1.
<mgrwt>
<rscale>  0 0.82104422E+02</rscale>
<asrwt>0</asrwt>
<pdfrwt beam="1">  1        1 0.18551562E-01 0.82104422E+02</pdfrwt>
<pdfrwt beam="2">  1       -2 0.21501359E-02 0.82104422E+02</pdfrwt>
<totfact> 0.14154578E+05</totfact>
</mgrwt>
</event>
<event>
 8    1  0.8247621E-018  0.7968066E+02  0.7818608E-02  0.1329960E+00
          1   -1    0    0  501    0  0.00000000000E+00  0.00000000000E+00  0.16734205375E+02  0.16734206134E+02  0.50400000000E-02 0. -1.
         -2   -1    0    0    0  501 -0.00000000000E+00 -0.00000000000E+00 -0.94850750667E+02  0.94850750702E+02  0.25500000000E-02 0.  1.
        -24    2    1    2    0    0  0.35527136788E-14  0.00000000000E+00 -0.78116545292E+02  0.11158495684E+03  0.79680662294E+02 0.  0.
         66    2    3    3    0    0  0.19901332817E+02 -0.34331700853E+02 -0.43624585854E+02  0.59007060707E+02  0.19999977365E+01 0.  0.
         13    1    3    3    0    0 -0.19901332817E+02  0.34331700853E+02 -0.34491959439E+02  0.52577896129E+02  0.10566000000E+00 0. -1.
         13    1    4    4    0    0  0.65667814187E+01 -0.12247356904E+02 -0.15695901694E+02  0.20964085083E+02  0.10566000000E+00 0. -1.
        -13    1    4    4    0    0  0.89361087754E+00 -0.20891236789E+01 -0.22152999845E+01  0.31751686889E+01  0.10566000000E+00 0.  1.
        -14    1    4    4    0    0  0.12440940521E+02 -0.19995220270E+02 -0.25713384175E+02  0.34867806935E+02  0.00000000000E+00 0.  1.
<mgrwt>
<rscale>  0 0.79680662E+02</rscale>
<asrwt>0</asrwt>
<pdfrwt beam="1">  1        1 0.25744933E-02 0.79680662E+02</pdfrwt>
<pdfrwt beam="2">  1       -2 0.14592423E-01 0.79680662E+02</pdfrwt>
<totfact> 0.10861180E+05</totfact>
</mgrwt>
</event>
<event>
 8    1  0.8247621E-018  0.8323102E+02  0.7818608E-02  0.1320124E+00
          1   -1    0    0  501    0  0.00000000000E+00  0.00000000000E+00  0.17231293179E+03  0.17231293187E+03  0.50400000000E-02 0. -1.
         -2   -1    0    0    0  501 -0.00000000000E+00 -0.00000000000E+00 -0.10050614375E+02  0.10050614699E+02  0.25500000000E-02 0.  1.
        -24    2    1    2    0    0  0.35527136788E-14  0.00000000000E+00  0.16226231742E+03  0.18236354656E+03  0.83231024636E+02 0.  0.
         66    2    3    3    0    0  0.24978014855E+02  0.15162377171E+02  0.16326904135E+02  0.33531577816E+02  0.20000011708E+01 0.  0.
         13    1    3    3    0    0 -0.24978014855E+02 -0.15162377171E+02  0.14593541328E+03  0.14883196875E+03  0.10566000000E+00 0. -1.
         13    1    4    4    0    0  0.42416751353E+01  0.28351367008E+01  0.35201284562E+01  0.61993771017E+01  0.10566000000E+00 0. -1.
        -13    1    4    4    0    0  0.10470857843E+01  0.51497095188E+00  0.82692393955E+00  0.14340679755E+01  0.10566000000E+00 0. -1.
        -14    1    4    4    0    0  0.19689253935E+02  0.11812269518E+02  0.11979851739E+02  0.25898132739E+02  0.00000000000E+00 0.  1.
<mgrwt>
<rscale>  0 0.83231025E+02</rscale>
<asrwt>0</asrwt>
<pdfrwt beam="1">  1        1 0.26509682E-01 0.83231025E+02</pdfrwt>
<pdfrwt beam="2">  1       -2 0.15462484E-02 0.83231025E+02</pdfrwt>
<totfact> 0.14577918E+05</totfact>
</mgrwt>
</event>
<event>
 8    1  0.8247621E-018  0.7863681E+02  0.7818608E-02  0.1332965E+00
          1   -1    0    0  501    0  0.00000000000E+00  0.00000000000E+00  0.69330374169E+02  0.69330374352E+02  0.50400000000E-02 0. -1.
         -2   -1    0    0    0  501 -0.00000000000E+00 -0.00000000000E+00 -0.22298116632E+02  0.22298116778E+02  0.25500000000E-02 0.  1.
        -24    2    1    2    0    0  0.00000000000E+00  0.35527136788E-14  0.47032257537E+02  0.91628491129E+02  0.78636805236E+02 0.  0.
         66    2    3    3    0    0 -0.20914324081E+02  0.18496322518E+02 -0.86844008013E+01  0.29307707447E+02  0.20000000116E+01 0.  0.
         13    1    3    3    0    0  0.20914324081E+02 -0.18496322518E+02  0.55716658338E+02  0.62320783683E+02  0.10566000000E+00 0. -1.
         13    1    4    4    0    0 -0.11472846854E+02  0.96296989770E+01 -0.45713045191E+01  0.15660948450E+02  0.10566000000E+00 0. -1.
        -13    1    4    4    0    0 -0.88974708583E+01  0.84208073054E+01 -0.41697521558E+01  0.12941135206E+02  0.10566000000E+00 0.  1.
        -14    1    4    4    0    0 -0.54400636847E+00  0.44581623598E+00  0.56655873672E-01  0.70562379015E+00  0.00000000000E+00 0.  1.
<mgrwt>
<rscale>  0 0.78636805E+02</rscale>
<asrwt>0</asrwt>
<pdfrwt beam="1">  1        1 0.10666211E-01 0.78636805E+02</pdfrwt>
<pdfrwt beam="2">  1       -2 0.34304796E-02 0.78636805E+02</pdfrwt>
<totfact> 0.14516272E+05</totfact>
</mgrwt>
</event>
<event>
 8    1  0.8247621E-018  0.8078866E+02  0.7818608E-02  0.1326828E+00
          1   -1    0    0  501    0  0.00000000000E+00  0.00000000000E+00  0.15908027945E+03  0.15908027953E+03  0.50400000000E-02 0. -1.
         -2   -1    0    0    0  501 -0.00000000000E+00 -0.00000000000E+00 -0.10257097037E+02  0.10257097354E+02  0.25500000000E-02 0.  1.
        -24    2    1    2    0    0  0.00000000000E+00  0.00000000000E+00  0.14882318241E+03  0.16933737688E+03  0.80788660012E+02 0.  0.
         66    2    3    3    0    0 -0.21532670042E+02  0.13832741006E+02  0.90180024663E+01  0.27208913490E+02  0.20000004845E+01 0.  0.
         13    1    3    3    0    0  0.21532670042E+02 -0.13832741006E+02  0.13980517994E+03  0.14212846339E+03  0.10566000000E+00 0. -1.
         13    1    4    4    0    0 -0.15169559417E+02  0.96702796722E+01  0.63252905327E+01  0.19069617359E+02  0.10566000000E+00 0. -1.
        -13    1    4    4    0    0 -0.63655777817E+01  0.41992140568E+01  0.27159166190E+01  0.80957610086E+01  0.10566000000E+00 0.  1.
         14    1    4    4    0    0  0.24671568486E-02 -0.36752722712E-01 -0.23204685407E-01  0.43535122769E-01  0.00000000000E+00 0. -1.
<mgrwt>
<rscale>  0 0.80788660E+02</rscale>
<asrwt>0</asrwt>
<pdfrwt beam="1">  1        1 0.24473886E-01 0.80788660E+02</pdfrwt>
<pdfrwt beam="2">  1       -2 0.15780151E-02 0.80788660E+02</pdfrwt>
<totfact> 0.15548974E+05</totfact>
</mgrwt>
</event>
<event>
 8    1  0.8247621E-018  0.7960356E+02  0.7818608E-02  0.1330180E+00
         -2   -1    0    0    0  501 -0.00000000000E+00  0.00000000000E+00  0.20311553415E+02  0.20311553576E+02  0.25500000000E-02 0.  1.
          1   -1    0    0  501    0  0.00000000000E+00 -0.00000000000E+00 -0.77994115082E+02  0.77994115245E+02  0.50400000000E-02 0. -1.
        -24    2    1    2    0    0 -0.35527136788E-14  0.00000000000E+00 -0.57682561667E+02  0.98305668821E+02  0.79603558977E+02 0.  0.
         66    2    3    3    0    0  0.27437469590E+02 -0.52229495809E+01  0.61153987640E+01  0.28661682296E+02  0.19999975441E+01 0.  0.
         13    1    3    3    0    0 -0.27437469590E+02  0.52229495809E+01 -0.63797960431E+02  0.69643986524E+02  0.10566000000E+00 0. -1.
         13    1    4    4    0    0  0.98803483924E+01 -0.26267976741E+01  0.23304364945E+01  0.10486345820E+02  0.10566000000E+00 0. -1.
        -13    1    4    4    0    0  0.11013247364E+02 -0.14894965321E+01  0.28444333467E+01  0.11472235289E+02  0.10566000000E+00 0.  1.
         14    1    4    4    0    0  0.65438738334E+01 -0.11066553747E+01  0.94052892278E+00  0.67031011868E+01  0.00000000000E+00 0. -1.
<mgrwt>
<rscale>  0 0.79603559E+02</rscale>
<asrwt>0</asrwt>
<pdfrwt beam="1">  1        1 0.11999095E-01 0.79603559E+02</pdfrwt>
<pdfrwt beam="2">  1       -2 0.31248544E-02 0.79603559E+02</pdfrwt>
<totfact> 0.14304025E+05</totfact>
</mgrwt>
</event>
<event>
 8    1  0.8247621E-018  0.7831257E+02  0.7818608E-02  0.1333909E+00
         -2   -1    0    0    0  501 -0.00000000000E+00  0.00000000000E+00  0.55908736629E+02  0.55908736687E+02  0.25500000000E-02 0.  1.
          1   -1    0    0  501    0  0.00000000000E+00 -0.00000000000E+00 -0.27423523332E+02  0.27423523796E+02  0.50400000000E-02 0. -1.
        -24    2    1    2    0    0  0.00000000000E+00  0.00000000000E+00  0.28485213296E+02  0.83332260482E+02  0.78312567705E+02 0.  0.
         66    2    3    3    0    0 -0.82880625427E+01  0.14497487574E+02  0.51908626808E+02  0.54565324754E+02  0.20000004467E+01 0.  0.
         13    1    3    3    0    0  0.82880625427E+01 -0.14497487574E+02 -0.23423413511E+02  0.28766935729E+02  0.10566000000E+00 0. -1.
         13    1    4    4    0    0 -0.40473411365E+01  0.63906998803E+01  0.22209951926E+02  0.23463059132E+02  0.10566000000E+00 0. -1.
        -13    1    4    4    0    0 -0.16153367829E+01  0.43226957805E+01  0.15792965915E+02  0.16453691020E+02  0.10566000000E+00 0.  1.
        -14    1    4    4    0    0 -0.26253846233E+01  0.37840919129E+01  0.13905708966E+02  0.14648574602E+02  0.00000000000E+00 0.  1.
<mgrwt>
<rscale>  0 0.78312568E+02</rscale>
<asrwt>0</asrwt>
<pdfrwt beam="1">  1        1 0.42190037E-02 0.78312568E+02</pdfrwt>
<pdfrwt beam="2">  1       -2 0.86013440E-02 0.78312568E+02</pdfrwt>
<totfact> 0.12656181E+05</totfact>
</mgrwt>
</event>
<event>
 8    1  0.8247621E-018  0.8501279E+02  0.7818608E-02  0.1315399E+00
          1   -1    0    0  501    0  0.00000000000E+00  0.00000000000E+00  0.12162325360E+02  0.12162326404E+02  0.50400000000E-02 0. -1.
         -2   -1    0    0    0  501 -0.00000000000E+00 -0.00000000000E+00 -0.14855659468E+03  0.14855659470E+03  0.25500000000E-02 0.  1.
        -24    2    1    2    0    0  0.00000000000E+00  0.00000000000E+00 -0.13639426932E+03  0.16071892111E+03  0.85012792555E+02 0.  0.
         66    2    3    3    0    0 -0.22113238270E+02  0.16622886273E+02 -0.12918696779E+03  0.13213095136E+03  0.20000016060E+01 0.  0.
         13    1    3    3    0    0  0.22113238270E+02 -0.16622886273E+02 -0.72073015346E+01  0.28587969747E+02  0.10566000000E+00 0. -1.
         13    1    4    4    0    0 -0.13893419978E+01  0.13744129642E+01 -0.77341363964E+01  0.79779265487E+01  0.10566000000E+00 0. -1.
        -13    1    4    4    0    0 -0.13176078321E+02  0.90782572614E+01 -0.76281791742E+02  0.77941944486E+02  0.10566000000E+00 0.  1.
        -14    1    4    4    0    0 -0.75478179517E+01  0.61702160470E+01 -0.45171039647E+02  0.46211080324E+02  0.00000000000E+00 0.  1.
<mgrwt>
<rscale>  0 0.85012793E+02</rscale>
<asrwt>0</asrwt>
<pdfrwt beam="1">  1        1 0.18711272E-02 0.85012793E+02</pdfrwt>
<pdfrwt beam="2">  1       -2 0.22854859E-01 0.85012793E+02</pdfrwt>
<totfact> 0.81063679E+04</totfact>
</mgrwt>
</event>
<event>
 8    1  0.8247621E-018  0.7791565E+02  0.7818608E-02  0.1335073E+00
          1   -1    0    0  501    0  0.00000000000E+00  0.00000000000E+00  0.56372469923E+01  0.56372492453E+01  0.50400000000E-02 0. -1.
         -2   -1    0    0    0  501 -0.00000000000E+00 -0.00000000000E+00 -0.26922926870E+03  0.26922926871E+03  0.25500000000E-02 0.  1.
        -24    2    1    2    0    0 -0.17763568394E-14  0.17763568394E-14 -0.26359202171E+03  0.27486651796E+03  0.77915651740E+02 0.  0.
         66    2    3    3    0    0  0.10865365633E+02 -0.80414405253E+01 -0.26068086277E+03  0.26103875796E+03  0.20000014439E+01 0.  0.
         13    1    3    3    0    0 -0.10865365633E+02  0.80414405253E+01 -0.29111589311E+01  0.13827759993E+02  0.10566000000E+00 0. -1.
         13    1    4    4    0    0  0.27736760455E+01 -0.14074354296E+01 -0.59118640339E+02  0.59200497910E+02  0.10566000000E+00 0. -1.
        -13    1    4    4    0    0  0.58788988445E+01 -0.51806077316E+01 -0.16001275948E+03  0.16020453960E+03  0.10566000000E+00 0.  1.
        -14    1    4    4    0    0  0.22127907428E+01 -0.14533973641E+01 -0.41549462960E+02  0.41633720456E+02  0.00000000000E+00 0.  1.
<mgrwt>
<rscale>  0 0.77915652E+02</rscale>
<asrwt>0</asrwt>
<pdfrwt beam="1">  1        1 0.86726916E-03 0.77915652E+02</pdfrwt>
<pdfrwt beam="2">  1       -2 0.41419877E-01 0.77915652E+02</pdfrwt>
<totfact> 0.79607756E+04</totfact>
</mgrwt>
</event>
<event>
 8    1  0.8247621E-018  0.8111692E+02  0.7818608E-02  0.1325911E+00
          1   -1    0    0  501    0  0.00000000000E+00  0.00000000000E+00  0.46915543153E+02  0.46915543423E+02  0.50400000000E-02 0. -1.
         -2   -1    0    0    0  501 -0.00000000000E+00 -0.00000000000E+00 -0.35062762382E+02  0.35062762475E+02  0.25500000000E-02 0.  1.
        -24    2    1    2    0    0  0.00000000000E+00  0.00000000000E+00  0.11852780770E+02  0.81978305898E+02  0.81116917015E+02 0.  0.
         66    2    3    3    0    0 -0.29025578192E+02 -0.10121496695E+02 -0.20771306167E+02  0.37153412176E+02  0.19999979255E+01 0.  0.
         13    1    3    3    0    0  0.29025578192E+02  0.10121496695E+02  0.32624086937E+02  0.44824893723E+02  0.10566000000E+00 0. -1.
         13    1    4    4    0    0 -0.64466149187E+01 -0.22375914370E+01 -0.39027731372E+01  0.78618357617E+01  0.10566000000E+00 0. -1.
        -13    1    4    4    0    0 -0.17148162113E+02 -0.61593285731E+01 -0.13439736627E+02  0.22641432750E+02  0.10566000000E+00 0.  1.
        -14    1    4    4    0    0 -0.54308011599E+01 -0.17245766854E+01 -0.34287964029E+01  0.66501436642E+01  0.00000000000E+00 0.  1.
<mgrwt>
<rscale>  0 0.81116917E+02</rscale>
<asrwt>0</asrwt>
<pdfrwt beam="1">  1        1 0.72177759E-02 0.81116917E+02</pdfrwt>
<pdfrwt beam="2">  1       -2 0.53942711E-02 0.81116917E+02</pdfrwt>
<totfact> 0.12530638E+05</totfact>
</mgrwt>
</event>
<event>
 8    1  0.8247621E-018  0.7842809E+02  0.7818608E-02  0.1333572E+00
         -2   -1    0    0    0  501 -0.00000000000E+00  0.00000000000E+00  0.47570100857E+02  0.47570100926E+02  0.25500000000E-02 0.  1.
          1   -1    0    0  501    0  0.00000000000E+00 -0.00000000000E+00 -0.32325790962E+02  0.32325791355E+02  0.50400000000E-02 0. -1.
        -24    2    1    2    0    0  0.00000000000E+00  0.00000000000E+00  0.15244309895E+02  0.79895892280E+02  0.78428085652E+02 0.  0.
         66    2    3    3    0    0 -0.71799247098E+00 -0.23584256338E+02  0.39501714630E+02  0.46055598122E+02  0.19999998752E+01 0.  0.
         13    1    3    3    0    0  0.71799247098E+00  0.23584256338E+02 -0.24257404734E+02  0.33840294158E+02  0.10566000000E+00 0. -1.
         13    1    4    4    0    0  0.13974186311E+00 -0.50478550253E+01  0.74358295075E+01  0.89890540462E+01  0.10566000000E+00 0. -1.
        -13    1    4    4    0    0  0.84612213679E-01 -0.26803435318E+00  0.49246673010E+00  0.57679212637E+00  0.10566000000E+00 0. -1.
        -14    1    4    4    0    0 -0.94234654776E+00 -0.18268366960E+02  0.31573418392E+02  0.36489751950E+02  0.00000000000E+00 0.  1.
<mgrwt>
<rscale>  0 0.78428086E+02</rscale>
<asrwt>0</asrwt>
<pdfrwt beam="1">  1        1 0.49731987E-02 0.78428086E+02</pdfrwt>
<pdfrwt beam="2">  1       -2 0.73184771E-02 0.78428086E+02</pdfrwt>
<totfact> 0.12967199E+05</totfact>
</mgrwt>
</event>
<event>
 8    1  0.8247621E-018  0.7827167E+02  0.7818608E-02  0.1334029E+00
         -2   -1    0    0    0  501 -0.00000000000E+00  0.00000000000E+00  0.91668655367E+01  0.91668658914E+01  0.25500000000E-02 0.  1.
          1   -1    0    0  501    0  0.00000000000E+00 -0.00000000000E+00 -0.16708148580E+03  0.16708148587E+03  0.50400000000E-02 0. -1.
        -24    2    1    2    0    0  0.00000000000E+00 -0.17763568394E-14 -0.15791462026E+03  0.17624835176E+03  0.78271669253E+02 0.  0.
         66    2    3    3    0    0 -0.24193854863E+02  0.85530329296E+01 -0.12549171422E+02  0.28635270145E+02  0.20000018655E+01 0.  0.
         13    1    3    3    0    0  0.24193854863E+02 -0.85530329296E+01 -0.14536544884E+03  0.14761308162E+03  0.10566000000E+00 0. -1.
         13    1    4    4    0    0 -0.32673641799E+01  0.96587244111E+00 -0.10277154727E+01  0.35603288311E+01  0.10566000000E+00 0. -1.
        -13    1    4    4    0    0 -0.67566113878E+01  0.25281357203E+01 -0.40960122523E+01  0.82964901056E+01  0.10566000000E+00 0.  1.
         14    1    4    4    0    0 -0.14169879295E+02  0.50590247682E+01 -0.74254436972E+01  0.16778451208E+02  0.00000000000E+00 0. -1.
<mgrwt>
<rscale>  0 0.78271669E+02</rscale>
<asrwt>0</asrwt>
<pdfrwt beam="1">  1        1 0.25704842E-01 0.78271669E+02</pdfrwt>
<pdfrwt beam="2">  1       -2 0.14102872E-02 0.78271669E+02</pdfrwt>
<totfact> 0.17073507E+05</totfact>
</mgrwt>
</event>
<event>
 8    1  0.8247621E-018  0.7974778E+02  0.7818608E-02  0.1329769E+00
          1   -1    0    0  501    0  0.00000000000E+00  0.00000000000E+00  0.97637891503E+01  0.97637904511E+01  0.50400000000E-02 0. -1.
         -2   -1    0    0    0  501 -0.00000000000E+00 -0.00000000000E+00 -0.16283913184E+03  0.16283913186E+03  0.25500000000E-02 0.  1.
        -24    2    1    2    0    0  0.00000000000E+00  0.00000000000E+00 -0.15307534269E+03  0.17260292231E+03  0.79747778970E+02 0.  0.
         66    2    3    3    0    0  0.37872797845E+02 -0.12253739371E+02 -0.80587788151E+02  0.89904919480E+02  0.20000006106E+01 0.  0.
         13    1    3    3    0    0 -0.37872797845E+02  0.12253739371E+02 -0.72487554536E+02  0.82698002828E+02  0.10566000000E+00 0. -1.
         13    1    4    4    0    0  0.56183719580E+01 -0.16641470272E+01 -0.12450147382E+02  0.13760553137E+02  0.10566000000E+00 0.  1.
        -13    1    4    4    0    0  0.23087136817E+02 -0.70913570121E+01 -0.47117853511E+02  0.52947204970E+02  0.10566000000E+00 0.  1.
         14    1    4    4    0    0  0.91672890700E+01 -0.34982353317E+01 -0.21019787259E+02  0.23197161373E+02  0.00000000000E+00 0. -1.
<mgrwt>
<rscale>  0 0.79747779E+02</rscale>
<asrwt>0</asrwt>
<pdfrwt beam="1">  1        1 0.15021216E-02 0.79747779E+02</pdfrwt>
<pdfrwt beam="2">  1       -2 0.25052172E-01 0.79747779E+02</pdfrwt>
<totfact> 0.92670339E+04</totfact>
</mgrwt>
</event>
<event>
 8    1  0.8247621E-018  0.7957813E+02  0.7818608E-02  0.1330253E+00
          1   -1    0    0  501    0  0.00000000000E+00  0.00000000000E+00  0.12876943701E+03  0.12876943711E+03  0.50400000000E-02 0. -1.
         -2   -1    0    0    0  501 -0.00000000000E+00 -0.00000000000E+00 -0.12294607450E+02  0.12294607714E+02  0.25500000000E-02 0.  1.
        -24    2    1    2    0    0 -0.71054273576E-14  0.00000000000E+00  0.11647482956E+03  0.14106404482E+03  0.79578130292E+02 0.  0.
         66    2    3    3    0    0  0.38149890855E+02 -0.10984910866E+02  0.54277839835E+02  0.67276788919E+02  0.19999977669E+01 0.  0.
         13    1    3    3    0    0 -0.38149890855E+02  0.10984910866E+02  0.62196989724E+02  0.73787255903E+02  0.10566000000E+00 0. -1.
         13    1    4    4    0    0  0.21166799910E+02 -0.62949819375E+01  0.29328736868E+02  0.36713024750E+02  0.10566000000E+00 0. -1.
        -13    1    4    4    0    0  0.52457457032E+01 -0.99176620420E+00  0.71126744644E+01  0.88939726927E+01  0.10566000000E+00 0. -1.
        -14    1    4    4    0    0  0.11737345242E+02 -0.36981627247E+01  0.17836428503E+02  0.21669791476E+02  0.00000000000E+00 0.  1.
<mgrwt>
<rscale>  0 0.79578130E+02</rscale>
<asrwt>0</asrwt>
<pdfrwt beam="1">  1        1 0.19810684E-01 0.79578130E+02</pdfrwt>
<pdfrwt beam="2">  1       -2 0.18914780E-02 0.79578130E+02</pdfrwt>
<totfact> 0.15576236E+05</totfact>
</mgrwt>
</event>
<event>
 8    1  0.8247621E-018  0.7817163E+02  0.7818608E-02  0.1334322E+00
          1   -1    0    0  501    0  0.00000000000E+00  0.00000000000E+00  0.11555440513E+02  0.11555441612E+02  0.50400000000E-02 0. -1.
         -2   -1    0    0    0  501 -0.00000000000E+00 -0.00000000000E+00 -0.13220620482E+03  0.13220620485E+03  0.25500000000E-02 0.  1.
        -24    2    1    2    0    0  0.17763568394E-14  0.88817841970E-15 -0.12065076431E+03  0.14376164646E+03  0.78171632094E+02 0.  0.
         66    2    3    3    0    0  0.94179620410E+01  0.78967127542E+01 -0.12854968156E+03  0.12915137134E+03  0.20000020654E+01 0.  0.
         13    1    3    3    0    0 -0.94179620410E+01 -0.78967127542E+01  0.78989172503E+01  0.14610275120E+02  0.10566000000E+00 0. -1.
         13    1    4    4    0    0  0.87940944327E+00  0.92281601430E+00 -0.96406949231E+01  0.97251793300E+01  0.10566000000E+00 0. -1.
        -13    1    4    4    0    0  0.67910187284E+01  0.53240338126E+01 -0.87067883787E+02  0.87494518814E+02  0.10566000000E+00 0.  1.
         14    1    4    4    0    0  0.17475338693E+01  0.16498629272E+01 -0.31841102852E+02  0.31931673197E+02  0.00000000000E+00 0. -1.
<mgrwt>
<rscale>  0 0.78171632E+02</rscale>
<asrwt>0</asrwt>
<pdfrwt beam="1">  1        1 0.17777603E-02 0.78171632E+02</pdfrwt>
<pdfrwt beam="2">  1       -2 0.20339415E-01 0.78171632E+02</pdfrwt>
<totfact> 0.10435382E+05</totfact>
</mgrwt>
</event>
<event>
 8    1  0.8247621E-018  0.8006827E+02  0.7818608E-02  0.1328858E+00
          1   -1    0    0  501    0  0.00000000000E+00  0.00000000000E+00  0.11098209814E+02  0.11098210959E+02  0.50400000000E-02 0. -1.
         -2   -1    0    0    0  501 -0.00000000000E+00 -0.00000000000E+00 -0.14441356487E+03  0.14441356489E+03  0.25500000000E-02 0.  1.
        -24    2    1    2    0    0  0.44408920985E-15 -0.14210854715E-13 -0.13331535505E+03  0.15551177585E+03  0.80068274209E+02 0.  0.
         66    2    3    3    0    0  0.30845510566E+01 -0.38273881924E+02 -0.88528635834E+02  0.96517997574E+02  0.20000000529E+01 0.  0.
         13    1    3    3    0    0 -0.30845510566E+01  0.38273881924E+02 -0.44786719219E+02  0.58993778276E+02  0.10566000000E+00 0. -1.
         13    1    4    4    0    0  0.90254366167E+00 -0.17038623868E+02 -0.38447228758E+02  0.42063402758E+02  0.10566000000E+00 0.  1.
        -13    1    4    4    0    0  0.58064130330E+00 -0.22992083656E+01 -0.52449061214E+01  0.57570572074E+01  0.10566000000E+00 0. -1.
        -14    1    4    4    0    0  0.16013660917E+01 -0.18936049691E+02 -0.44836500955E+02  0.48697537608E+02  0.00000000000E+00 0.  1.
<mgrwt>
<rscale>  0 0.80068274E+02</rscale>
<asrwt>0</asrwt>
<pdfrwt beam="1">  1        1 0.17074171E-02 0.80068274E+02</pdfrwt>
<pdfrwt beam="2">  1       -2 0.22217470E-01 0.80068274E+02</pdfrwt>
<totfact> 0.95470696E+04</totfact>
</mgrwt>
</event>
<event>
 8    1  0.8247621E-018  0.8086120E+02  0.7818608E-02  0.1326625E+00
          1   -1    0    0  501    0  0.00000000000E+00  0.00000000000E+00  0.15430595056E+02  0.15430595880E+02  0.50400000000E-02 0. -1.
         -2   -1    0    0    0  501 -0.00000000000E+00 -0.00000000000E+00 -0.10593456347E+03  0.10593456350E+03  0.25500000000E-02 0.  1.
        -24    2    1    2    0    0  0.00000000000E+00  0.00000000000E+00 -0.90503968417E+02  0.12136515938E+03  0.80861199676E+02 0.  0.
         66    2    3    3    0    0  0.12750282968E+02 -0.93406996702E+01 -0.10109255747E+03  0.10234023446E+03  0.20000066105E+01 0.  0.
         13    1    3    3    0    0 -0.12750282968E+02  0.93406996702E+01  0.10588589058E+02  0.19024924924E+02  0.10566000000E+00 0. -1.
         13    1    4    4    0    0  0.53973706396E+01 -0.32972958787E+01 -0.42066871109E+02  0.42539823447E+02  0.10566000000E+00 0. -1.
        -13    1    4    4    0    0  0.68998587996E+01 -0.57105602965E+01 -0.53321261196E+02  0.54068351278E+02  0.10566000000E+00 0.  1.
         14    1    4    4    0    0  0.45305352855E+00 -0.33284349502E+00 -0.57044251689E+01  0.57320597345E+01  0.00000000000E+00 0. -1.
<mgrwt>
<rscale>  0 0.80861200E+02</rscale>
<asrwt>0</asrwt>
<pdfrwt beam="1">  1        1 0.23739378E-02 0.80861200E+02</pdfrwt>
<pdfrwt beam="2">  1       -2 0.16297625E-01 0.80861200E+02</pdfrwt>
<totfact> 0.10176035E+05</totfact>
</mgrwt>
</event>
<event>
 8    1  0.8247621E-018  0.7992187E+02  0.7818608E-02  0.1329273E+00
          1   -1    0    0  501    0  0.00000000000E+00  0.00000000000E+00  0.85700994723E+02  0.85700994871E+02  0.50400000000E-02 0. -1.
         -2   -1    0    0    0  501 -0.00000000000E+00 -0.00000000000E+00 -0.18633110569E+02  0.18633110743E+02  0.25500000000E-02 0.  1.
        -24    2    1    2    0    0  0.00000000000E+00  0.35527136788E-14  0.67067884154E+02  0.10433410561E+03  0.79921865027E+02 0.  0.
         66    2    3    3    0    0 -0.26501332859E+02 -0.16789877321E+02  0.12954254415E+01  0.31462656384E+02  0.19999989747E+01 0.  0.
         13    1    3    3    0    0  0.26501332859E+02  0.16789877321E+02  0.65772458713E+02  0.72871449230E+02  0.10566000000E+00 0. -1.
         13    1    4    4    0    0 -0.11477957460E+02 -0.67280048282E+01  0.36343902344E+00  0.13309876347E+02  0.10566000000E+00 0. -1.
        -13    1    4    4    0    0 -0.12953499506E+02 -0.86097664310E+01  0.34943818602E+00  0.15558100737E+02  0.10566000000E+00 0.  1.
         14    1    4    4    0    0 -0.20698758933E+01 -0.14521060617E+01  0.58254823208E+00  0.25946793002E+01  0.00000000000E+00 0. -1.
<mgrwt>
<rscale>  0 0.79921865E+02</rscale>
<asrwt>0</asrwt>
<pdfrwt beam="1">  1        1 0.13184768E-01 0.79921865E+02</pdfrwt>
<pdfrwt beam="2">  1       -2 0.28666324E-02 0.79921865E+02</pdfrwt>
<totfact> 0.14366461E+05</totfact>
</mgrwt>
</event>
<event>
 8    1  0.8247621E-018  0.7862589E+02  0.7818608E-02  0.1332997E+00
          1   -1    0    0  501    0  0.00000000000E+00  0.00000000000E+00  0.60702886938E+02  0.60702887148E+02  0.50400000000E-02 0. -1.
         -2   -1    0    0    0  501 -0.00000000000E+00 -0.00000000000E+00 -0.25460201746E+02  0.25460201874E+02  0.25500000000E-02 0.  1.
        -24    2    1    2    0    0  0.71054273576E-14  0.00000000000E+00  0.35242685192E+02  0.86163089021E+02  0.78625893000E+02 0.  0.
         66    2    3    3    0    0  0.34012926640E+02 -0.19538444278E+02  0.20051765716E+02  0.44098790834E+02  0.20000153267E+01 0.  0.
         13    1    3    3    0    0 -0.34012926640E+02  0.19538444278E+02  0.15190919476E+02  0.42064298187E+02  0.10566000000E+00 0. -1.
         13    1    4    4    0    0  0.92013762617E+01 -0.53592924302E+01  0.60093294281E+01  0.12227450457E+02  0.10566000000E+00 0. -1.
        -13    1    4    4    0    0  0.24410031077E+02 -0.14035478391E+02  0.13990177601E+02  0.31441700084E+02  0.10566000000E+00 0.  1.
        -14    1    4    4    0    0  0.40151930085E+00 -0.14367345651E+00  0.52258687246E-01  0.42964029309E+00  0.00000000000E+00 0.  1.
<mgrwt>
<rscale>  0 0.78625893E+02</rscale>
<asrwt>0</asrwt>
<pdfrwt beam="1">  1        1 0.93389057E-02 0.78625893E+02</pdfrwt>
<pdfrwt beam="2">  1       -2 0.39169541E-02 0.78625893E+02</pdfrwt>
<totfact> 0.14225325E+05</totfact>
</mgrwt>
</event>
<event>
 8    1  0.8247621E-018  0.7861326E+02  0.7818608E-02  0.1333033E+00
         -2   -1    0    0    0  501 -0.00000000000E+00  0.00000000000E+00  0.15031657402E+02  0.15031657619E+02  0.25500000000E-02 0.  1.
          1   -1    0    0  501    0  0.00000000000E+00 -0.00000000000E+00 -0.10278382714E+03  0.10278382726E+03  0.50400000000E-02 0. -1.
        -24    2    1    2    0    0  0.00000000000E+00  0.35527136788E-14 -0.87752169738E+02  0.11781548488E+03  0.78613263412E+02 0.  0.
         66    2    3    3    0    0  0.32405791692E+02  0.19864156151E+02 -0.29046652465E+02  0.47879307140E+02  0.19999995016E+01 0.  0.
         13    1    3    3    0    0 -0.32405791692E+02 -0.19864156151E+02 -0.58705517274E+02  0.69936177742E+02  0.10566000000E+00 0. -1.
         13    1    4    4    0    0  0.48700227516E+01  0.28920569542E+01 -0.39472877656E+01  0.69045897610E+01  0.10566000000E+00 0. -1.
        -13    1    4    4    0    0  0.39636394671E+01  0.24960981500E+01 -0.43742179404E+01  0.64098276440E+01  0.10566000000E+00 0.  1.
        -14    1    4    4    0    0  0.23572129474E+02  0.14476001047E+02 -0.20725146759E+02  0.34564889735E+02  0.00000000000E+00 0.  1.
<mgrwt>
<rscale>  0 0.78613263E+02</rscale>
<asrwt>0</asrwt>
<pdfrwt beam="1">  1        1 0.15812896E-01 0.78613263E+02</pdfrwt>
<pdfrwt beam="2">  1       -2 0.23125628E-02 0.78613263E+02</pdfrwt>
<totfact> 0.15480536E+05</totfact>
</mgrwt>
</event>
<event>
 8    1  0.8247621E-018  0.7977169E+02  0.7818608E-02  0.1329701E+00
          1   -1    0    0  501    0  0.00000000000E+00  0.00000000000E+00  0.86326110780E+01  0.86326125493E+01  0.50400000000E-02 0. -1.
         -2   -1    0    0    0  501 -0.00000000000E+00 -0.00000000000E+00 -0.18428729811E+03  0.18428729813E+03  0.25500000000E-02 0.  1.
        -24    2    1    2    0    0  0.00000000000E+00 -0.35527136788E-14 -0.17565468703E+03  0.19291991068E+03  0.79771692093E+02 0.  0.
         66    2    3    3    0    0 -0.33569717932E+02 -0.20472284569E+02 -0.72054265965E+02  0.82108815534E+02  0.19999867737E+01 0.  0.
         13    1    3    3    0    0  0.33569717932E+02  0.20472284569E+02 -0.10360042107E+03  0.11081109514E+03  0.10566000000E+00 0. -1.
         13    1    4    4    0    0 -0.29484572343E+01 -0.14959742871E+01 -0.70989073397E+01  0.78317934462E+01  0.10566000000E+00 0. -1.
        -13    1    4    4    0    0 -0.13637396833E+02 -0.85936266034E+01 -0.28882977452E+02  0.33076676996E+02  0.10566000000E+00 0.  1.
         14    1    4    4    0    0 -0.16983863865E+02 -0.10382683678E+02 -0.36072381174E+02  0.41200345092E+02  0.00000000000E+00 0. -1.
<mgrwt>
<rscale>  0 0.79771692E+02</rscale>
<asrwt>0</asrwt>
<pdfrwt beam="1">  1        1 0.13280943E-02 0.79771692E+02</pdfrwt>
<pdfrwt beam="2">  1       -2 0.28351889E-01 0.79771692E+02</pdfrwt>
<totfact> 0.88511938E+04</totfact>
</mgrwt>
</event>
<event>
 8    1  0.8247621E-018  0.7943213E+02  0.7818608E-02  0.1330671E+00
         -2   -1    0    0    0  501 -0.00000000000E+00  0.00000000000E+00  0.12592159377E+02  0.12592159635E+02  0.25500000000E-02 0.  1.
          1   -1    0    0  501    0  0.00000000000E+00 -0.00000000000E+00 -0.12526571753E+03  0.12526571763E+03  0.50400000000E-02 0. -1.
        -24    2    1    2    0    0  0.10658141036E-13  0.35527136788E-14 -0.11267355816E+03  0.13785787727E+03  0.79432132150E+02 0.  0.
         66    2    3    3    0    0  0.30926706768E+02  0.23553354482E+02 -0.42472954244E+02  0.57612268963E+02  0.19999984967E+01 0.  0.
         13    1    3    3    0    0 -0.30926706768E+02 -0.23553354482E+02 -0.70200603913E+02  0.80245608307E+02  0.10566000000E+00 0. -1.
         13    1    4    4    0    0  0.71325410768E+01  0.61726860712E+01 -0.96513955791E+01  0.13495769567E+02  0.10566000000E+00 0. -1.
        -13    1    4    4    0    0  0.17322591152E+02  0.13118139168E+02 -0.24283885669E+02  0.32586439000E+02  0.10566000000E+00 0.  1.
         14    1    4    4    0    0  0.64715745390E+01  0.42625292433E+01 -0.85376729956E+01  0.11530060396E+02  0.00000000000E+00 0. -1.
<mgrwt>
<rscale>  0 0.79432132E+02</rscale>
<asrwt>0</asrwt>
<pdfrwt beam="1">  1        1 0.19271648E-01 0.79432132E+02</pdfrwt>
<pdfrwt beam="2">  1       -2 0.19372554E-02 0.79432132E+02</pdfrwt>
<totfact> 0.15576649E+05</totfact>
</mgrwt>
</event>
<event>
 8    1  0.8247621E-018  0.8035239E+02  0.7818608E-02  0.1328054E+00
          1   -1    0    0  501    0  0.00000000000E+00  0.00000000000E+00  0.84806967790E+01  0.84806982767E+01  0.50400000000E-02 0. -1.
         -2   -1    0    0    0  501 -0.00000000000E+00 -0.00000000000E+00 -0.19032947607E+03  0.19032947609E+03  0.25500000000E-02 0.  1.
        -24    2    1    2    0    0  0.00000000000E+00  0.00000000000E+00 -0.18184877929E+03  0.19881017436E+03  0.80352392005E+02 0.  0.
         66    2    3    3    0    0 -0.38788181026E+02  0.45433608442E+01 -0.11405287827E+03  0.12057041162E+03  0.20000003135E+01 0.  0.
         13    1    3    3    0    0  0.38788181026E+02 -0.45433608442E+01 -0.67795901022E+02  0.78239762746E+02  0.10566000000E+00 0. -1.
         13    1    4    4    0    0 -0.90401751622E+01  0.92973083305E+00 -0.25176101597E+02  0.26766330007E+02  0.10566000000E+00 0. -1.
        -13    1    4    4    0    0 -0.26275986730E+02  0.33224249832E+01 -0.79870581619E+02  0.84147412073E+02  0.10566000000E+00 0.  1.
        -14    1    4    4    0    0 -0.34720191343E+01  0.29120502796E+00 -0.90061950523E+01  0.96566695375E+01  0.00000000000E+00 0.  1.
<mgrwt>
<rscale>  0 0.80352392E+02</rscale>
<asrwt>0</asrwt>
<pdfrwt beam="1">  1        1 0.13047228E-02 0.80352392E+02</pdfrwt>
<pdfrwt beam="2">  1       -2 0.29281455E-01 0.80352392E+02</pdfrwt>
<totfact> 0.85794762E+04</totfact>
</mgrwt>
</event>
<event>
 8    1  0.8247621E-018  0.7931518E+02  0.7818608E-02  0.1331006E+00
          1   -1    0    0  501    0  0.00000000000E+00  0.00000000000E+00  0.32596765256E+01  0.32596804220E+01  0.50400000000E-02 0. -1.
         -2   -1    0    0    0  501 -0.00000000000E+00 -0.00000000000E+00 -0.48247844092E+03  0.48247844093E+03  0.25500000000E-02 0.  1.
        -24    2    1    2    0    0  0.00000000000E+00  0.00000000000E+00 -0.47921876440E+03  0.48573812135E+03  0.79315183816E+02 0.  0.
         66    2    3    3    0    0  0.17361939828E+02  0.16520575352E+02 -0.43307051356E+03  0.43373775035E+03  0.20000005452E+01 0.  0.
         13    1    3    3    0    0 -0.17361939828E+02 -0.16520575352E+02 -0.46148250837E+02  0.52000370998E+02  0.10566000000E+00 0. -1.
         13    1    4    4    0    0  0.97240126502E+00  0.12734213374E+01 -0.24217301566E+02  0.24270476412E+02  0.10566000000E+00 0. -1.
        -13    1    4    4    0    0  0.35997605766E+01  0.27379960065E+01 -0.80138435201E+02  0.80266025557E+02  0.10566000000E+00 0.  1.
         14    1    4    4    0    0  0.12789777987E+02  0.12509158008E+02 -0.32871477679E+03  0.32920124838E+03  0.00000000000E+00 0. -1.
<mgrwt>
<rscale>  0 0.79315184E+02</rscale>
<asrwt>0</asrwt>
<pdfrwt beam="1">  1        1 0.50148938E-03 0.79315184E+02</pdfrwt>
<pdfrwt beam="2">  1       -2 0.74227396E-01 0.79315184E+02</pdfrwt>
<totfact> 0.52932099E+04</totfact>
</mgrwt>
</event>
<event>
 8    1  0.8247621E-018  0.7990450E+02  0.7818608E-02  0.1329323E+00
         -2   -1    0    0    0  501 -0.00000000000E+00  0.00000000000E+00  0.12159181535E+02  0.12159181803E+02  0.25500000000E-02 0.  1.
          1   -1    0    0  501    0  0.00000000000E+00 -0.00000000000E+00 -0.13127382861E+03  0.13127382870E+03  0.50400000000E-02 0. -1.
        -24    2    1    2    0    0  0.00000000000E+00 -0.35527136788E-14 -0.11911464707E+03  0.14343301051E+03  0.79904501475E+02 0.  0.
         66    2    3    3    0    0  0.32300825547E+02 -0.22189328192E+02 -0.73320282230E+02  0.83159926696E+02  0.20000013039E+01 0.  0.
         13    1    3    3    0    0 -0.32300825547E+02  0.22189328192E+02 -0.45794364841E+02  0.60273083809E+02  0.10566000000E+00 0. -1.
         13    1    4    4    0    0  0.22204291507E+02 -0.15139287133E+02 -0.51934495666E+02  0.58475905981E+02  0.10566000000E+00 0. -1.
        -13    1    4    4    0    0  0.71623408355E+01 -0.47965681140E+01 -0.15322065048E+02  0.17580757472E+02  0.10566000000E+00 0.  1.
         14    1    4    4    0    0  0.29341932046E+01 -0.22534729458E+01 -0.60637215161E+01  0.71032632434E+01  0.00000000000E+00 0. -1.
<mgrwt>
<rscale>  0 0.79904501E+02</rscale>
<asrwt>0</asrwt>
<pdfrwt beam="1">  1        1 0.20195973E-01 0.79904501E+02</pdfrwt>
<pdfrwt beam="2">  1       -2 0.18706434E-02 0.79904501E+02</pdfrwt>
<totfact> 0.15459394E+05</totfact>
</mgrwt>
</event>
<event>
 8    1  0.8247621E-018  0.7860931E+02  0.7818608E-02  0.1333045E+00
         -2   -1    0    0    0  501 -0.00000000000E+00  0.00000000000E+00  0.34246926776E+02  0.34246926871E+02  0.25500000000E-02 0.  1.
          1   -1    0    0  501    0  0.00000000000E+00 -0.00000000000E+00 -0.45109326165E+02  0.45109326446E+02  0.50400000000E-02 0. -1.
        -24    2    1    2    0    0 -0.35527136788E-14  0.00000000000E+00 -0.10862399389E+02  0.79356253317E+02  0.78609307464E+02 0.  0.
         66    2    3    3    0    0 -0.25567745700E+02 -0.24704745731E+02  0.11421764850E+02  0.37396400819E+02  0.20000000204E+01 0.  0.
         13    1    3    3    0    0  0.25567745700E+02  0.24704745731E+02 -0.22284164239E+02  0.41959852498E+02  0.10566000000E+00 0. -1.
         13    1    4    4    0    0 -0.44220851546E+01 -0.46778135410E+01  0.17608014202E+01  0.66744559565E+01  0.10566000000E+00 0. -1.
        -13    1    4    4    0    0 -0.50067835725E+01 -0.38997908700E+01  0.20189821649E+01  0.66606083498E+01  0.10566000000E+00 0.  1.
        -14    1    4    4    0    0 -0.16138876973E+02 -0.16127141320E+02  0.76419812652E+01  0.24061336512E+02  0.00000000000E+00 0.  1.
<mgrwt>
<rscale>  0 0.78609307E+02</rscale>
<asrwt>0</asrwt>
<pdfrwt beam="1">  1        1 0.69398964E-02 0.78609307E+02</pdfrwt>
<pdfrwt beam="2">  1       -2 0.52687580E-02 0.78609307E+02</pdfrwt>
<totfact> 0.13594641E+05</totfact>
</mgrwt>
</event>
<event>
 8    1  0.8247621E-018  0.8127426E+02  0.7818608E-02  0.1325474E+00
         -2   -1    0    0    0  501 -0.00000000000E+00  0.00000000000E+00  0.26492131775E+02  0.26492131898E+02  0.25500000000E-02 0.  1.
          1   -1    0    0  501    0  0.00000000000E+00 -0.00000000000E+00 -0.62334594116E+02  0.62334594319E+02  0.50400000000E-02 0. -1.
        -24    2    1    2    0    0  0.00000000000E+00  0.00000000000E+00 -0.35842462341E+02  0.88826726217E+02  0.81274259048E+02 0.  0.
         66    2    3    3    0    0 -0.22304831571E+02 -0.69654214505E+01  0.18371324560E+02  0.29791410842E+02  0.19999966157E+01 0.  0.
         13    1    3    3    0    0  0.22304831571E+02  0.69654214505E+01 -0.54213786900E+02  0.59035315376E+02  0.10566000000E+00 0. -1.
         13    1    4    4    0    0 -0.80731222786E+00 -0.35041819708E-01  0.44325081136E+00  0.92769406582E+00  0.10566000000E+00 0. -1.
        -13    1    4    4    0    0 -0.71168174612E+01 -0.23797715319E+01  0.66917974837E+01  0.10055034606E+02  0.10566000000E+00 0.  1.
         14    1    4    4    0    0 -0.14380701882E+02 -0.45506080989E+01  0.11236276265E+02  0.18808682170E+02  0.00000000000E+00 0. -1.
<mgrwt>
<rscale>  0 0.81274259E+02</rscale>
<asrwt>0</asrwt>
<pdfrwt beam="1">  1        1 0.95899376E-02 0.81274259E+02</pdfrwt>
<pdfrwt beam="2">  1       -2 0.40757126E-02 0.81274259E+02</pdfrwt>
<totfact> 0.13039419E+05</totfact>
</mgrwt>
</event>
<event>
 8    1  0.8247621E-018  0.7897103E+02  0.7818608E-02  0.1331997E+00
          1   -1    0    0  501    0  0.00000000000E+00  0.00000000000E+00  0.22921402127E+03  0.22921402132E+03  0.50400000000E-02 0. -1.
         -2   -1    0    0    0  501 -0.00000000000E+00 -0.00000000000E+00 -0.68019645045E+01  0.68019649825E+01  0.25500000000E-02 0.  1.
        -24    2    1    2    0    0  0.00000000000E+00  0.35527136788E-14  0.22241205676E+03  0.23601598631E+03  0.78971025055E+02 0.  0.
         66    2    3    3    0    0  0.15269452467E+02  0.30483887691E+02  0.51903383334E+02  0.62131994904E+02  0.20000004498E+01 0.  0.
         13    1    3    3    0    0 -0.15269452467E+02 -0.30483887691E+02  0.17050867343E+03  0.17388399140E+03  0.10566000000E+00 0. -1.
         13    1    4    4    0    0  0.91981964484E+01  0.19778415647E+02  0.33539927438E+02  0.40009129458E+02  0.10566000000E+00 0.  1.
        -13    1    4    4    0    0  0.11958430703E+01  0.17263380637E+01  0.27131161447E+01  0.34325569200E+01  0.10566000000E+00 0. -1.
        -14    1    4    4    0    0  0.48754129479E+01  0.89791339795E+01  0.15650339752E+02  0.18690308526E+02  0.00000000000E+00 0.  1.
<mgrwt>
<rscale>  0 0.78971025E+02</rscale>
<asrwt>0</asrwt>
<pdfrwt beam="1">  1        1 0.35263690E-01 0.78971025E+02</pdfrwt>
<pdfrwt beam="2">  1       -2 0.10464563E-02 0.78971025E+02</pdfrwt>
<totfact> 0.17719621E+05</totfact>
</mgrwt>
</event>
<event>
 8    1  0.8247621E-018  0.8242945E+02  0.7818608E-02  0.1322295E+00
          1   -1    0    0  501    0  0.00000000000E+00  0.00000000000E+00  0.20068501643E+02  0.20068502275E+02  0.50400000000E-02 0. -1.
         -2   -1    0    0    0  501 -0.00000000000E+00 -0.00000000000E+00 -0.84642767081E+02  0.84642767120E+02  0.25500000000E-02 0.  1.
        -24    2    1    2    0    0  0.00000000000E+00  0.00000000000E+00 -0.64574265439E+02  0.10471126940E+03  0.82429449722E+02 0.  0.
         66    2    3    3    0    0 -0.40693611815E+01 -0.32650209468E+02 -0.63784572764E+02  0.71798799763E+02  0.20000114945E+01 0.  0.
         13    1    3    3    0    0  0.40693611815E+01  0.32650209468E+02 -0.78969267510E+00  0.32912469632E+02  0.10566000000E+00 0. -1.
         13    1    4    4    0    0  0.62974368900E-01 -0.11201108697E+01 -0.22718356051E+01  0.25359446334E+01  0.10566000000E+00 0. -1.
        -13    1    4    4    0    0 -0.17549315692E+00 -0.13902975241E+01 -0.34179060962E+01  0.36955339495E+01  0.10566000000E+00 0.  1.
         14    1    4    4    0    0 -0.39568423935E+01 -0.30139801075E+02 -0.58094831062E+02  0.65567321180E+02  0.00000000000E+00 0. -1.
<mgrwt>
<rscale>  0 0.82429450E+02</rscale>
<asrwt>0</asrwt>
<pdfrwt beam="1">  1        1 0.30874619E-02 0.82429450E+02</pdfrwt>
<pdfrwt beam="2">  1       -2 0.13021964E-01 0.82429450E+02</pdfrwt>
<totfact> 0.10226789E+05</totfact>
</mgrwt>
</event>
<event>
 8    1  0.8247621E-018  0.7910315E+02  0.7818608E-02  0.1331616E+00
          1   -1    0    0  501    0  0.00000000000E+00  0.00000000000E+00  0.10113552198E+02  0.10113553453E+02  0.50400000000E-02 0. -1.
         -2   -1    0    0    0  501 -0.00000000000E+00 -0.00000000000E+00 -0.15467632270E+03  0.15467632272E+03  0.25500000000E-02 0.  1.
        -24    2    1    2    0    0  0.00000000000E+00  0.00000000000E+00 -0.14456277051E+03  0.16478987618E+03  0.79103152114E+02 0.  0.
         66    2    3    3    0    0 -0.11405209826E+02 -0.29545156159E+02 -0.12159600226E+03  0.12566854349E+03  0.19999984101E+01 0.  0.
         13    1    3    3    0    0  0.11405209826E+02  0.29545156159E+02 -0.22966768246E+02  0.39121332688E+02  0.10566000000E+00 0. -1.
         13    1    4    4    0    0 -0.71359445133E+01 -0.17053109873E+02 -0.73228255947E+02  0.75525617465E+02  0.10566000000E+00 0. -1.
        -13    1    4    4    0    0 -0.40643592513E+01 -0.12209528004E+02 -0.46819119508E+02  0.48555460102E+02  0.10566000000E+00 0.  1.
         14    1    4    4    0    0 -0.20490606123E+00 -0.28251828199E+00 -0.15486268040E+01  0.15874659215E+01  0.00000000000E+00 0. -1.
<mgrwt>
<rscale>  0 0.79103152E+02</rscale>
<asrwt>0</asrwt>
<pdfrwt beam="1">  1        1 0.15559313E-02 0.79103152E+02</pdfrwt>
<pdfrwt beam="2">  1       -2 0.23796356E-01 0.79103152E+02</pdfrwt>
<totfact> 0.96305397E+04</totfact>
</mgrwt>
</event>
<event>
 8    1  0.8247621E-018  0.7835536E+02  0.7818608E-02  0.1333785E+00
         -2   -1    0    0    0  501 -0.00000000000E+00  0.00000000000E+00  0.17880873123E+02  0.17880873305E+02  0.25500000000E-02 0.  1.
          1   -1    0    0  501    0  0.00000000000E+00 -0.00000000000E+00 -0.85839791217E+02  0.85839791365E+02  0.50400000000E-02 0. -1.
        -24    2    1    2    0    0 -0.44408920985E-15  0.00000000000E+00 -0.67958918094E+02  0.10372066467E+03  0.78355355472E+02 0.  0.
         66    2    3    3    0    0  0.23161839345E+01 -0.38892004277E+02 -0.28886282224E+02  0.48542455723E+02  0.20000005739E+01 0.  0.
         13    1    3    3    0    0 -0.23161839345E+01  0.38892004277E+02 -0.39072635871E+02  0.55178208947E+02  0.10566000000E+00 0. -1.
         13    1    4    4    0    0  0.76842473173E+00 -0.93425548618E+01 -0.61243642270E+01  0.11197893067E+02  0.10566000000E+00 0. -1.
        -13    1    4    4    0    0  0.16153377304E+01 -0.25040875702E+02 -0.19080307114E+02  0.31523389024E+02  0.10566000000E+00 0.  1.
        -14    1    4    4    0    0 -0.67578527651E-01 -0.45085737126E+01 -0.36816108821E+01  0.58211736331E+01  0.00000000000E+00 0.  1.
<mgrwt>
<rscale>  0 0.78355355E+02</rscale>
<asrwt>0</asrwt>
<pdfrwt beam="1">  1        1 0.13206122E-01 0.78355355E+02</pdfrwt>
<pdfrwt beam="2">  1       -2 0.27509036E-02 0.78355355E+02</pdfrwt>
<totfact> 0.15162910E+05</totfact>
</mgrwt>
</event>
<event>
 8    1  0.8247621E-018  0.8105084E+02  0.7818608E-02  0.1326095E+00
         -2   -1    0    0    0  501 -0.00000000000E+00  0.00000000000E+00  0.31073980848E+03  0.31073980849E+03  0.25500000000E-02 0.  1.
          1   -1    0    0  501    0  0.00000000000E+00 -0.00000000000E+00 -0.52851586414E+01  0.52851610445E+01  0.50400000000E-02 0. -1.
        -24    2    1    2    0    0  0.00000000000E+00  0.00000000000E+00  0.30545464984E+03  0.31602496953E+03  0.81050837512E+02 0.  0.
         66    2    3    3    0    0 -0.18794948421E+02  0.33866018233E+02  0.19897904869E+03  0.20272350405E+03  0.19999998402E+01 0.  0.
         13    1    3    3    0    0  0.18794948421E+02 -0.33866018233E+02  0.10647560114E+03  0.11330146548E+03  0.10566000000E+00 0. -1.
         13    1    4    4    0    0 -0.10526026935E+02  0.17773745658E+02  0.10866636821E+03  0.11061235926E+03  0.10566000000E+00 0. -1.
        -13    1    4    4    0    0 -0.65399126643E+01  0.11986149495E+02  0.68821134893E+02  0.70162653950E+02  0.10566000000E+00 0.  1.
         14    1    4    4    0    0 -0.17290088219E+01  0.41061230802E+01  0.21491545590E+02  0.21948490839E+02  0.00000000000E+00 0. -1.
<mgrwt>
<rscale>  0 0.81050838E+02</rscale>
<asrwt>0</asrwt>
<pdfrwt beam="1">  1        1 0.81310145E-03 0.81050838E+02</pdfrwt>
<pdfrwt beam="2">  1       -2 0.47806128E-01 0.81050838E+02</pdfrwt>
<totfact> 0.66635452E+04</totfact>
</mgrwt>
</event>
<event>
 8    1  0.8247621E-018  0.8999456E+02  0.7818608E-02  0.1302865E+00
          1   -1    0    0  501    0  0.00000000000E+00  0.00000000000E+00  0.10193075616E+02  0.10193076862E+02  0.50400000000E-02 0. -1.
         -2   -1    0    0    0  501 -0.00000000000E+00 -0.00000000000E+00 -0.19864026871E+03  0.19864026873E+03  0.25500000000E-02 0.  1.
        -24    2    1    2    0    0 -0.35527136788E-14 -0.22204460493E-15 -0.18844719310E+03  0.20883334559E+03  0.89994564531E+02 0.  0.
         66    2    3    3    0    0 -0.31097889449E+02 -0.13490244910E+01 -0.16960093118E+03  0.17244527959E+03  0.20000000932E+01 0.  0.
         13    1    3    3    0    0  0.31097889449E+02  0.13490244910E+01 -0.18846261920E+02  0.36388066005E+02  0.10566000000E+00 0. -1.
         13    1    4    4    0    0 -0.78679138133E+01 -0.10716946172E+01 -0.41081402021E+02  0.41841909052E+02  0.10566000000E+00 0. -1.
        -13    1    4    4    0    0 -0.68508573719E+01 -0.28339351269E+00 -0.38367229597E+02  0.38975248935E+02  0.10566000000E+00 0.  1.
         14    1    4    4    0    0 -0.16379118263E+02  0.60636388806E-02 -0.90152299560E+02  0.91628121600E+02  0.00000000000E+00 0. -1.
<mgrwt>
<rscale>  0 0.89994565E+02</rscale>
<asrwt>0</asrwt>
<pdfrwt beam="1">  1        1 0.15681657E-02 0.89994565E+02</pdfrwt>
<pdfrwt beam="2">  1       -2 0.30560039E-01 0.89994565E+02</pdfrwt>
<totfact> 0.62902389E+04</totfact>
</mgrwt>
</event>
<event>
 8    1  0.8247621E-018  0.7935099E+02  0.7818608E-02  0.1330903E+00
          1   -1    0    0  501    0  0.00000000000E+00  0.00000000000E+00  0.30552475900E+02  0.30552476315E+02  0.50400000000E-02 0. -1.
         -2   -1    0    0    0  501 -0.00000000000E+00 -0.00000000000E+00 -0.51522655986E+02  0.51522656049E+02  0.25500000000E-02 0.  1.
        -24    2    1    2    0    0  0.00000000000E+00  0.00000000000E+00 -0.20970180086E+02  0.82075132364E+02  0.79350985500E+02 0.  0.
         66    2    3    3    0    0  0.14587111406E+02 -0.36502230447E+02 -0.51228575810E+01  0.39691816763E+02  0.20000003378E+01 0.  0.
         13    1    3    3    0    0 -0.14587111406E+02  0.36502230447E+02 -0.15847322505E+02  0.42383315602E+02  0.10566000000E+00 0. -1.
         13    1    4    4    0    0  0.38349144525E+01 -0.10579135471E+02 -0.16190320614E+01  0.11369129476E+02  0.10566000000E+00 0. -1.
        -13    1    4    4    0    0  0.10563243081E+02 -0.25312241422E+02 -0.31981370198E+01  0.27613962313E+02  0.10566000000E+00 0.  1.
         14    1    4    4    0    0  0.18895387206E+00 -0.61085355352E+00 -0.30568849989E+00  0.70872497386E+00  0.00000000000E+00 0. -1.
<mgrwt>
<rscale>  0 0.79350985E+02</rscale>
<asrwt>0</asrwt>
<pdfrwt beam="1">  1        1 0.47003810E-02 0.79350985E+02</pdfrwt>
<pdfrwt beam="2">  1       -2 0.79265625E-02 0.79350985E+02</pdfrwt>
<totfact> 0.12420594E+05</totfact>
</mgrwt>
</event>
<event>
 8    1  0.8247621E-018  0.8095858E+02  0.7818608E-02  0.1326353E+00
          1   -1    0    0  501    0  0.00000000000E+00  0.00000000000E+00  0.94788755235E+01  0.94788768634E+01  0.50400000000E-02 0. -1.
         -2   -1    0    0    0  501 -0.00000000000E+00 -0.00000000000E+00 -0.17286575319E+03  0.17286575321E+03  0.25500000000E-02 0.  1.
        -24    2    1    2    0    0  0.00000000000E+00 -0.71054273576E-14 -0.16338687767E+03  0.18234463008E+03  0.80958583997E+02 0.  0.
         66    2    3    3    0    0  0.55945180723E+01 -0.39309746545E+02 -0.99191485444E+02  0.10686208671E+03  0.19999963737E+01 0.  0.
         13    1    3    3    0    0 -0.55945180723E+01  0.39309746545E+02 -0.64195392227E+02  0.75482543367E+02  0.10566000000E+00 0. -1.
         13    1    4    4    0    0  0.28581163448E+01 -0.22582841673E+02 -0.55150772448E+02  0.59663828512E+02  0.10566000000E+00 0. -1.
        -13    1    4    4    0    0  0.20180114667E+01 -0.11844770772E+02 -0.30087772455E+02  0.32398397804E+02  0.10566000000E+00 0.  1.
         14    1    4    4    0    0  0.71839026080E+00 -0.48821341001E+01 -0.13952940541E+02  0.14799860394E+02  0.00000000000E+00 0. -1.
<mgrwt>
<rscale>  0 0.80958584E+02</rscale>
<asrwt>0</asrwt>
<pdfrwt beam="1">  1        1 0.14582888E-02 0.80958584E+02</pdfrwt>
<pdfrwt beam="2">  1       -2 0.26594729E-01 0.80958584E+02</pdfrwt>
<totfact> 0.87263750E+04</totfact>
</mgrwt>
</event>
<event>
 8    1  0.8247621E-018  0.8099477E+02  0.7818608E-02  0.1326252E+00
          1   -1    0    0  501    0  0.00000000000E+00  0.00000000000E+00  0.17055827292E+03  0.17055827300E+03  0.50400000000E-02 0. -1.
         -2   -1    0    0    0  501 -0.00000000000E+00 -0.00000000000E+00 -0.96157050738E+01  0.96157054119E+01  0.25500000000E-02 0.  1.
        -24    2    1    2    0    0  0.35527136788E-14 -0.35527136788E-14  0.16094256785E+03  0.18017397841E+03  0.80994767423E+02 0.  0.
         66    2    3    3    0    0  0.23603828196E+02 -0.13757902821E+02  0.14096495414E+02  0.30807982449E+02  0.20000010216E+01 0.  0.
         13    1    3    3    0    0 -0.23603828196E+02  0.13757902821E+02  0.14684607243E+03  0.14936599596E+03  0.10566000000E+00 0. -1.
         13    1    4    4    0    0  0.38714109959E+01 -0.26448828830E+01  0.28892927959E+01  0.55083940908E+01  0.10566000000E+00 0. -1.
        -13    1    4    4    0    0  0.11756154859E+02 -0.63659325047E+01  0.72558692082E+01  0.15211544160E+02  0.10566000000E+00 0.  1.
         14    1    4    4    0    0  0.79762623410E+01 -0.47470874333E+01  0.39513334100E+01  0.10088044198E+02  0.00000000000E+00 0. -1.
<mgrwt>
<rscale>  0 0.80994767E+02</rscale>
<asrwt>0</asrwt>
<pdfrwt beam="1">  1        1 0.26239732E-01 0.80994767E+02</pdfrwt>
<pdfrwt beam="2">  1       -2 0.14793394E-02 0.80994767E+02</pdfrwt>
<totfact> 0.15647719E+05</totfact>
</mgrwt>
</event>
<event>
 8    1  0.8247621E-018  0.7947502E+02  0.7818608E-02  0.1330548E+00
          1   -1    0    0  501    0  0.00000000000E+00  0.00000000000E+00  0.72589246498E+01  0.72589263994E+01  0.50400000000E-02 0. -1.
         -2   -1    0    0    0  501 -0.00000000000E+00 -0.00000000000E+00 -0.21753490089E+03  0.21753490090E+03  0.25500000000E-02 0.  1.
        -24    2    1    2    0    0  0.44408920985E-15 -0.35527136788E-14 -0.21027597624E+03  0.22479382730E+03  0.79475018782E+02 0.  0.
         66    2    3    3    0    0  0.38790273528E+01 -0.22365986388E+02 -0.19737046420E+03  0.19868161550E+03  0.19999996970E+01 0.  0.
         13    1    3    3    0    0 -0.38790273528E+01  0.22365986388E+02 -0.12905512041E+02  0.26112211806E+02  0.10566000000E+00 0. -1.
         13    1    4    4    0    0  0.24509992000E-01 -0.20680095164E+01 -0.15118328128E+02  0.15259497814E+02  0.10566000000E+00 0. -1.
        -13    1    4    4    0    0  0.37270660768E+01 -0.18763992514E+02 -0.16680208238E+03  0.16789557554E+03  0.10566000000E+00 0.  1.
        -14    1    4    4    0    0  0.12745128399E+00 -0.15339843572E+01 -0.15450053690E+02  0.15526542142E+02  0.00000000000E+00 0.  1.
<mgrwt>
<rscale>  0 0.79475019E+02</rscale>
<asrwt>0</asrwt>
<pdfrwt beam="1">  1        1 0.11167579E-02 0.79475019E+02</pdfrwt>
<pdfrwt beam="2">  1       -2 0.33466903E-01 0.79475019E+02</pdfrwt>
<totfact> 0.83544746E+04</totfact>
</mgrwt>
</event>
<event>
 8    1  0.8247621E-018  0.7991728E+02  0.7818608E-02  0.1329286E+00
         -2   -1    0    0    0  501 -0.00000000000E+00  0.00000000000E+00  0.34234188201E+02  0.34234188296E+02  0.25500000000E-02 0.  1.
          1   -1    0    0  501    0  0.00000000000E+00 -0.00000000000E+00 -0.46640298096E+02  0.46640298369E+02  0.50400000000E-02 0. -1.
        -24    2    1    2    0    0  0.00000000000E+00  0.00000000000E+00 -0.12406109895E+02  0.80874486665E+02  0.79917276171E+02 0.  0.
         66    2    3    3    0    0 -0.16865570666E+02 -0.36003114960E+02 -0.24182876988E+01  0.39881322393E+02  0.19999999106E+01 0.  0.
         13    1    3    3    0    0  0.16865570666E+02  0.36003114960E+02 -0.99878221964E+01  0.40993164272E+02  0.10566000000E+00 0. -1.
         13    1    4    4    0    0 -0.34886658713E+01 -0.89171903000E+01 -0.75073965960E+00  0.96053030395E+01  0.10566000000E+00 0. -1.
        -13    1    4    4    0    0 -0.66120981382E+01 -0.14644400024E+02 -0.85320373871E+00  0.16090910928E+02  0.10566000000E+00 0.  1.
         14    1    4    4    0    0 -0.67648066569E+01 -0.12441524637E+02 -0.81434430054E+00  0.14185108425E+02  0.00000000000E+00 0. -1.
<mgrwt>
<rscale>  0 0.79917276E+02</rscale>
<asrwt>0</asrwt>
<pdfrwt beam="1">  1        1 0.71754305E-02 0.79917276E+02</pdfrwt>
<pdfrwt beam="2">  1       -2 0.52667982E-02 0.79917276E+02</pdfrwt>
<totfact> 0.13051200E+05</totfact>
</mgrwt>
</event>
<event>
 8    1  0.8247621E-018  0.8057787E+02  0.7818608E-02  0.1327419E+00
         -2   -1    0    0    0  501 -0.00000000000E+00  0.00000000000E+00  0.25575967230E+02  0.25575967357E+02  0.25500000000E-02 0.  1.
          1   -1    0    0  501    0  0.00000000000E+00 -0.00000000000E+00 -0.63465769592E+02  0.63465769792E+02  0.50400000000E-02 0. -1.
        -24    2    1    2    0    0  0.35527136788E-14 -0.71054273576E-14 -0.37889802362E+02  0.89041737149E+02  0.80577874329E+02 0.  0.
         66    2    3    3    0    0 -0.13805282256E+02  0.31419496155E+02  0.43129525074E+01  0.34646385883E+02  0.19999846519E+01 0.  0.
         13    1    3    3    0    0  0.13805282256E+02 -0.31419496155E+02 -0.42202754869E+02  0.54395351266E+02  0.10566000000E+00 0. -1.
         13    1    4    4    0    0 -0.57014529990E+01  0.11802749793E+02  0.19297287746E+01  0.13249395690E+02  0.10566000000E+00 0.  1.
        -13    1    4    4    0    0 -0.66637346984E+01  0.16248395948E+02  0.14821932268E+01  0.17624522457E+02  0.10566000000E+00 0. -1.
         14    1    4    4    0    0 -0.14400945585E+01  0.33683504138E+01  0.90103050594E+00  0.37724677361E+01  0.00000000000E+00 0. -1.
<mgrwt>
<rscale>  0 0.80577874E+02</rscale>
<asrwt>0</asrwt>
<pdfrwt beam="1">  1        1 0.97639646E-02 0.80577874E+02</pdfrwt>
<pdfrwt beam="2">  1       -2 0.39347642E-02 0.80577874E+02</pdfrwt>
<totfact> 0.13390364E+05</totfact>
</mgrwt>
</event>
<event>
 8    1  0.8247621E-018  0.7956926E+02  0.7818608E-02  0.1330278E+00
          1   -1    0    0  501    0  0.00000000000E+00  0.00000000000E+00  0.22328613242E+03  0.22328613248E+03  0.50400000000E-02 0. -1.
         -2   -1    0    0    0  501 -0.00000000000E+00 -0.00000000000E+00 -0.70887378538E+01  0.70887383124E+01  0.25500000000E-02 0.  1.
        -24    2    1    2    0    0  0.17763568394E-14 -0.35527136788E-14  0.21619739457E+03  0.23037487079E+03  0.79569263374E+02 0.  0.
         66    2    3    3    0    0 -0.10430439352E+02  0.31562276301E+02  0.45009942370E+02  0.55989876298E+02  0.19999963331E+01 0.  0.
         13    1    3    3    0    0  0.10430439352E+02 -0.31562276301E+02  0.17118745220E+03  0.17438499449E+03  0.10566000000E+00 0. -1.
         13    1    4    4    0    0 -0.36832015626E+00  0.95253265386E+00  0.11039748971E+01  0.15076149386E+01  0.10566000000E+00 0. -1.
        -13    1    4    4    0    0 -0.89505992814E+01  0.27353741110E+02  0.39980169681E+02  0.49262211805E+02  0.10566000000E+00 0.  1.
        -14    1    4    4    0    0 -0.11115199144E+01  0.32560025371E+01  0.39257977922E+01  0.52200495540E+01  0.00000000000E+00 0.  1.
<mgrwt>
<rscale>  0 0.79569263E+02</rscale>
<asrwt>0</asrwt>
<pdfrwt beam="1">  1        1 0.34351715E-01 0.79569263E+02</pdfrwt>
<pdfrwt beam="2">  1       -2 0.10905750E-02 0.79569263E+02</pdfrwt>
<totfact> 0.17280825E+05</totfact>
</mgrwt>
</event>
<event>
 8    1  0.8247621E-018  0.7951535E+02  0.7818608E-02  0.1330432E+00
          1   -1    0    0  501    0  0.00000000000E+00  0.00000000000E+00  0.58085562120E+02  0.58085562339E+02  0.50400000000E-02 0. -1.
         -2   -1    0    0    0  501 -0.00000000000E+00 -0.00000000000E+00 -0.27212833062E+02  0.27212833181E+02  0.25500000000E-02 0.  1.
        -24    2    1    2    0    0  0.00000000000E+00  0.00000000000E+00  0.30872729058E+02  0.85298395521E+02  0.79515349957E+02 0.  0.
         66    2    3    3    0    0 -0.16552917671E+02 -0.23300732808E+02 -0.14160907663E+02  0.31960202514E+02  0.20000015326E+01 0.  0.
         13    1    3    3    0    0  0.16552917671E+02  0.23300732808E+02  0.45033636721E+02  0.53338193006E+02  0.10566000000E+00 0. -1.
         13    1    4    4    0    0 -0.74904222908E+01 -0.94445816664E+01 -0.59550267571E+01  0.13445447433E+02  0.10566000000E+00 0. -1.
        -13    1    4    4    0    0 -0.48909892457E+01 -0.69364689404E+01 -0.36561165793E+01  0.92420089612E+01  0.10566000000E+00 0.  1.
         14    1    4    4    0    0 -0.41715061342E+01 -0.69196822008E+01 -0.45497643266E+01  0.92727461205E+01  0.00000000000E+00 0. -1.
<mgrwt>
<rscale>  0 0.79515350E+02</rscale>
<asrwt>0</asrwt>
<pdfrwt beam="1">  1        1 0.89362403E-02 0.79515350E+02</pdfrwt>
<pdfrwt beam="2">  1       -2 0.41865897E-02 0.79515350E+02</pdfrwt>
<totfact> 0.13697691E+05</totfact>
</mgrwt>
</event>
<event>
 8    1  0.8247621E-018  0.7811262E+02  0.7818608E-02  0.1334494E+00
         -2   -1    0    0    0  501 -0.00000000000E+00  0.00000000000E+00  0.79872800317E+01  0.79872804388E+01  0.25500000000E-02 0.  1.
          1   -1    0    0  501    0  0.00000000000E+00 -0.00000000000E+00 -0.19097807355E+03  0.19097807362E+03  0.50400000000E-02 0. -1.
        -24    2    1    2    0    0  0.71054273576E-14  0.00000000000E+00 -0.18299079352E+03  0.19896535406E+03  0.78112621272E+02 0.  0.
         66    2    3    3    0    0 -0.38807176291E+02 -0.39405885398E+01 -0.95034018356E+02  0.10274721319E+03  0.20000011679E+01 0.  0.
         13    1    3    3    0    0  0.38807176291E+02  0.39405885398E+01 -0.87956775165E+02  0.96218140864E+02  0.10566000000E+00 0. -1.
         13    1    4    4    0    0 -0.95752885274E+00 -0.36875828850E-01 -0.31040709741E+01  0.32503295184E+01  0.10566000000E+00 0. -1.
        -13    1    4    4    0    0 -0.96628149347E+00 -0.17259613157E+00 -0.24673955675E+01  0.26575730039E+01  0.10566000000E+00 0.  1.
        -14    1    4    4    0    0 -0.36883365945E+02 -0.37311165793E+01 -0.89462551814E+02  0.96839310672E+02  0.00000000000E+00 0.  1.
<mgrwt>
<rscale>  0 0.78112621E+02</rscale>
<asrwt>0</asrwt>
<pdfrwt beam="1">  1        1 0.29381239E-01 0.78112621E+02</pdfrwt>
<pdfrwt beam="2">  1       -2 0.12288125E-02 0.78112621E+02</pdfrwt>
<totfact> 0.17606552E+05</totfact>
</mgrwt>
</event>
<event>
 8    1  0.8247621E-018  0.8276898E+02  0.7818608E-02  0.1321372E+00
          1   -1    0    0  501    0  0.00000000000E+00  0.00000000000E+00  0.89112265370E+01  0.89112279623E+01  0.50400000000E-02 0. -1.
         -2   -1    0    0    0  501 -0.00000000000E+00 -0.00000000000E+00 -0.19219307809E+03  0.19219307811E+03  0.25500000000E-02 0.  1.
        -24    2    1    2    0    0  0.00000000000E+00  0.00000000000E+00 -0.18328185155E+03  0.20110430607E+03  0.82768984595E+02 0.  0.
         66    2    3    3    0    0 -0.10313469342E+01 -0.38595977950E+02 -0.12772920985E+03  0.13345210466E+03  0.20000001739E+01 0.  0.
         13    1    3    3    0    0  0.10313469342E+01  0.38595977950E+02 -0.55552641707E+02  0.67652201406E+02  0.10566000000E+00 0. -1.
         13    1    4    4    0    0 -0.10288797281E+01 -0.14122506809E+02 -0.45023495236E+02  0.47197776212E+02  0.10566000000E+00 0. -1.
        -13    1    4    4    0    0 -0.20479949493E+00 -0.32900566996E+01 -0.10638623667E+02  0.11138127916E+02  0.10566000000E+00 0.  1.
        -14    1    4    4    0    0  0.20233228885E+00 -0.21183414442E+02 -0.72067090944E+02  0.75116200535E+02  0.00000000000E+00 0.  1.
<mgrwt>
<rscale>  0 0.82768985E+02</rscale>
<asrwt>0</asrwt>
<pdfrwt beam="1">  1        1 0.13709582E-02 0.82768985E+02</pdfrwt>
<pdfrwt beam="2">  1       -2 0.29568163E-01 0.82768985E+02</pdfrwt>
<totfact> 0.79172433E+04</totfact>
</mgrwt>
</event>
<event>
 8    1  0.8247621E-018  0.8176897E+02  0.7818608E-02  0.1324105E+00
         -2   -1    0    0    0  501 -0.00000000000E+00  0.00000000000E+00  0.79100059928E+02  0.79100059969E+02  0.25500000000E-02 0.  1.
          1   -1    0    0  501    0  0.00000000000E+00 -0.00000000000E+00 -0.21131980919E+02  0.21131981520E+02  0.50400000000E-02 0. -1.
        -24    2    1    2    0    0  0.00000000000E+00 -0.35527136788E-14  0.57968079009E+02  0.10023204149E+03  0.81768966956E+02 0.  0.
         66    2    3    3    0    0 -0.35552152527E+02  0.17404089568E+02  0.41422343915E+02  0.57329472838E+02  0.19999993774E+01 0.  0.
         13    1    3    3    0    0  0.35552152527E+02 -0.17404089568E+02  0.16545735094E+02  0.42902568651E+02  0.10566000000E+00 0. -1.
         13    1    4    4    0    0 -0.53773460156E+01  0.24536235690E+01  0.58377245798E+01  0.83082074537E+01  0.10566000000E+00 0. -1.
        -13    1    4    4    0    0 -0.19604753094E+01  0.58255572354E+00  0.24030285863E+01  0.31573002759E+01  0.10566000000E+00 0.  1.
        -14    1    4    4    0    0 -0.28214331202E+02  0.14367910275E+02  0.33181590749E+02  0.45863965109E+02  0.00000000000E+00 0.  1.
<mgrwt>
<rscale>  0 0.81768967E+02</rscale>
<asrwt>0</asrwt>
<pdfrwt beam="1">  1        1 0.32510740E-02 0.81768967E+02</pdfrwt>
<pdfrwt beam="2">  1       -2 0.12169240E-01 0.81768967E+02</pdfrwt>
<totfact> 0.10595906E+05</totfact>
</mgrwt>
</event>
<event>
 8    1  0.8247621E-018  0.8018192E+02  0.7818608E-02  0.1328536E+00
         -2   -1    0    0    0  501 -0.00000000000E+00  0.00000000000E+00  0.82485480919E+02  0.82485480958E+02  0.25500000000E-02 0.  1.
          1   -1    0    0  501    0  0.00000000000E+00 -0.00000000000E+00 -0.19485671041E+02  0.19485671693E+02  0.50400000000E-02 0. -1.
        -24    2    1    2    0    0  0.00000000000E+00  0.00000000000E+00  0.62999809877E+02  0.10197115265E+03  0.80181917715E+02 0.  0.
         66    2    3    3    0    0  0.24020378590E+01 -0.36678615085E+02  0.51795324750E+02  0.63544049697E+02  0.19999988681E+01 0.  0.
         13    1    3    3    0    0 -0.24020378590E+01  0.36678615085E+02  0.11204485127E+02  0.38427102954E+02  0.10566000000E+00 0. -1.
         13    1    4    4    0    0  0.15164919180E+01 -0.11070661490E+02  0.15620057319E+02  0.19205641053E+02  0.10566000000E+00 0. -1.
        -13    1    4    4    0    0  0.35759050786E+00 -0.89863457744E+01  0.12036550358E+02  0.15025710962E+02  0.10566000000E+00 0.  1.
         14    1    4    4    0    0  0.52795543323E+00 -0.16621607821E+02  0.24138717073E+02  0.29312697682E+02  0.00000000000E+00 0. -1.
<mgrwt>
<rscale>  0 0.80181918E+02</rscale>
<asrwt>0</asrwt>
<pdfrwt beam="1">  1        1 0.29977956E-02 0.80181918E+02</pdfrwt>
<pdfrwt beam="2">  1       -2 0.12690074E-01 0.80181918E+02</pdfrwt>
<totfact> 0.11037619E+05</totfact>
</mgrwt>
</event>
<event>
 8    1  0.8247621E-018  0.7984305E+02  0.7818608E-02  0.1329497E+00
          1   -1    0    0  501    0  0.00000000000E+00  0.00000000000E+00  0.45725141371E+02  0.45725141648E+02  0.50400000000E-02 0. -1.
         -2   -1    0    0    0  501 -0.00000000000E+00 -0.00000000000E+00 -0.34854525614E+02  0.34854525707E+02  0.25500000000E-02 0.  1.
        -24    2    1    2    0    0  0.00000000000E+00  0.00000000000E+00  0.10870615757E+02  0.80579667355E+02  0.79843049191E+02 0.  0.
         66    2    3    3    0    0  0.32430798481E+02 -0.31611102161E+01 -0.17794841587E+02  0.37180716715E+02  0.20000001130E+01 0.  0.
         13    1    3    3    0    0 -0.32430798481E+02  0.31611102161E+01  0.28665457344E+02  0.43398950640E+02  0.10566000000E+00 0. -1.
         13    1    4    4    0    0  0.20603495799E+02 -0.10853190537E+01 -0.11132366721E+02  0.23444033558E+02  0.10566000000E+00 0. -1.
        -13    1    4    4    0    0  0.62077170077E+01 -0.12390324957E+01 -0.34682487009E+01  0.72187855668E+01  0.10566000000E+00 0.  1.
         14    1    4    4    0    0  0.56195856739E+01 -0.83675866677E+00 -0.31942261644E+01  0.65178975906E+01  0.00000000000E+00 0. -1.
<mgrwt>
<rscale>  0 0.79843049E+02</rscale>
<asrwt>0</asrwt>
<pdfrwt beam="1">  1        1 0.70346372E-02 0.79843049E+02</pdfrwt>
<pdfrwt beam="2">  1       -2 0.53622347E-02 0.79843049E+02</pdfrwt>
<totfact> 0.13044153E+05</totfact>
</mgrwt>
</event>
<event>
 8    1  0.8247621E-018  0.8207092E+02  0.7818608E-02  0.1323275E+00
         -2   -1    0    0    0  501 -0.00000000000E+00  0.00000000000E+00  0.17331974479E+02  0.17331974667E+02  0.25500000000E-02 0.  1.
          1   -1    0    0  501    0  0.00000000000E+00 -0.00000000000E+00 -0.97156210467E+02  0.97156210598E+02  0.50400000000E-02 0. -1.
        -24    2    1    2    0    0  0.00000000000E+00  0.00000000000E+00 -0.79824235988E+02  0.11448818526E+03  0.82070920027E+02 0.  0.
         66    2    3    3    0    0 -0.15694470490E+01  0.33663020951E+02 -0.73322819240E+01  0.34545976691E+02  0.20000009238E+01 0.  0.
         13    1    3    3    0    0  0.15694470490E+01 -0.33663020951E+02 -0.72491954064E+02  0.79942208574E+02  0.10566000000E+00 0. -1.
         13    1    4    4    0    0  0.40161034599E-01  0.34381137724E+01 -0.72929737307E+00  0.35164297113E+01  0.10566000000E+00 0.  1.
        -13    1    4    4    0    0  0.29283266718E+00  0.92989278355E+01 -0.18449290291E+01  0.94852905606E+01  0.10566000000E+00 0.  1.
        -14    1    4    4    0    0 -0.19024407508E+01  0.20925979343E+02 -0.47580555219E+01  0.21544256419E+02  0.00000000000E+00 0.  1.
<mgrwt>
<rscale>  0 0.82070920E+02</rscale>
<asrwt>0</asrwt>
<pdfrwt beam="1">  1        1 0.14947109E-01 0.82070920E+02</pdfrwt>
<pdfrwt beam="2">  1       -2 0.26664577E-02 0.82070920E+02</pdfrwt>
<totfact> 0.13649418E+05</totfact>
</mgrwt>
</event>
<event>
 8    1  0.8247621E-018  0.8328203E+02  0.7818608E-02  0.1319987E+00
         -2   -1    0    0    0  501 -0.00000000000E+00  0.00000000000E+00  0.12242553585E+03  0.12242553587E+03  0.25500000000E-02 0.  1.
          1   -1    0    0  501    0  0.00000000000E+00 -0.00000000000E+00 -0.14163500069E+02  0.14163500965E+02  0.50400000000E-02 0. -1.
        -24    2    1    2    0    0  0.00000000000E+00  0.00000000000E+00  0.10826203578E+03  0.13658903684E+03  0.83282030437E+02 0.  0.
         66    2    3    3    0    0  0.26015411518E+02 -0.32328873007E+02  0.48972791984E+02  0.64220651061E+02  0.20000003879E+01 0.  0.
         13    1    3    3    0    0 -0.26015411518E+02  0.32328873007E+02  0.59289243793E+02  0.72368385777E+02  0.10566000000E+00 0. -1.
         13    1    4    4    0    0  0.50282007624E+01 -0.73131145148E+01  0.10152875817E+02  0.13485417984E+02  0.10566000000E+00 0. -1.
        -13    1    4    4    0    0  0.35434734171E+01 -0.38922755814E+01  0.66339596130E+01  0.84691556392E+01  0.10566000000E+00 0.  1.
         14    1    4    4    0    0  0.17443737339E+02 -0.21123482911E+02  0.32185956554E+02  0.42266077437E+02  0.00000000000E+00 0. -1.
<mgrwt>
<rscale>  0 0.83282030E+02</rscale>
<asrwt>0</asrwt>
<pdfrwt beam="1">  1        1 0.21790001E-02 0.83282030E+02</pdfrwt>
<pdfrwt beam="2">  1       -2 0.18834698E-01 0.83282030E+02</pdfrwt>
<totfact> 0.90702130E+04</totfact>
</mgrwt>
</event>
<event>
 8    1  0.8247621E-018  0.8464493E+02  0.7818608E-02  0.1316364E+00
         -2   -1    0    0    0  501 -0.00000000000E+00  0.00000000000E+00  0.19494513690E+02  0.19494513857E+02  0.25500000000E-02 0.  1.
          1   -1    0    0  501    0  0.00000000000E+00 -0.00000000000E+00 -0.91881794394E+02  0.91881794533E+02  0.50400000000E-02 0. -1.
        -24    2    1    2    0    0  0.00000000000E+00  0.00000000000E+00 -0.72387280704E+02  0.11137630839E+03  0.84644926976E+02 0.  0.
         66    2    3    3    0    0  0.80571426061E+01 -0.41521293909E+02 -0.35555235851E+02  0.55291140235E+02  0.19999993090E+01 0.  0.
         13    1    3    3    0    0 -0.80571426061E+01  0.41521293909E+02 -0.36832044853E+02  0.56085168155E+02  0.10566000000E+00 0. -1.
         13    1    4    4    0    0  0.28630264986E+01 -0.12868635398E+02 -0.11743302698E+02  0.17655452983E+02  0.10566000000E+00 0. -1.
        -13    1    4    4    0    0  0.32596388230E+01 -0.14595181102E+02 -0.12197268588E+02  0.19298421741E+02  0.10566000000E+00 0.  1.
        -14    1    4    4    0    0  0.19344772844E+01 -0.14057477409E+02 -0.11614664565E+02  0.18337265511E+02  0.00000000000E+00 0.  1.
<mgrwt>
<rscale>  0 0.84644927E+02</rscale>
<asrwt>0</asrwt>
<pdfrwt beam="1">  1        1 0.14135660E-01 0.84644927E+02</pdfrwt>
<pdfrwt beam="2">  1       -2 0.29991560E-02 0.84644927E+02</pdfrwt>
<totfact> 0.12430090E+05</totfact>
</mgrwt>
</event>
<event>
 8    1  0.8247621E-018  0.7798083E+02  0.7818608E-02  0.1334881E+00
         -2   -1    0    0    0  501 -0.00000000000E+00  0.00000000000E+00  0.10189526306E+03  0.10189526310E+03  0.25500000000E-02 0.  1.
          1   -1    0    0  501    0  0.00000000000E+00 -0.00000000000E+00 -0.14919754231E+02  0.14919755082E+02  0.50400000000E-02 0. -1.
        -24    2    1    2    0    0  0.00000000000E+00 -0.35527136788E-14  0.86975508834E+02  0.11681501818E+03  0.77980826716E+02 0.  0.
         66    2    3    3    0    0 -0.22866047230E+02 -0.31219378485E+02  0.36693945833E+02  0.53366200611E+02  0.19999994956E+01 0.  0.
         13    1    3    3    0    0  0.22866047230E+02  0.31219378485E+02  0.50281563001E+02  0.63448817568E+02  0.10566000000E+00 0. -1.
         13    1    4    4    0    0 -0.51363647832E+01 -0.71543497165E+01  0.91973390224E+01  0.12734566038E+02  0.10566000000E+00 0. -1.
        -13    1    4    4    0    0 -0.92381188465E+01 -0.13236758777E+02  0.14280282416E+02  0.21552082328E+02  0.10566000000E+00 0.  1.
        -14    1    4    4    0    0 -0.84915636003E+01 -0.10828269992E+02  0.13216324395E+02  0.19079552246E+02  0.00000000000E+00 0.  1.
<mgrwt>
<rscale>  0 0.77980827E+02</rscale>
<asrwt>0</asrwt>
<pdfrwt beam="1">  1        1 0.22953469E-02 0.77980827E+02</pdfrwt>
<pdfrwt beam="2">  1       -2 0.15676194E-01 0.77980827E+02</pdfrwt>
<totfact> 0.11277236E+05</totfact>
</mgrwt>
</event>
<event>
 8    1  0.8247621E-018  0.7983699E+02  0.7818608E-02  0.1329515E+00
          1   -1    0    0  501    0  0.00000000000E+00  0.00000000000E+00  0.53807125755E+01  0.53807149359E+01  0.50400000000E-02 0. -1.
         -2   -1    0    0    0  501 -0.00000000000E+00 -0.00000000000E+00 -0.29614773289E+03  0.29614773290E+03  0.25500000000E-02 0.  1.
        -24    2    1    2    0    0  0.00000000000E+00  0.35527136788E-14 -0.29076702032E+03  0.30152844784E+03  0.79836988623E+02 0.  0.
         66    2    3    3    0    0 -0.25615398186E+02  0.15080842806E+02 -0.24596159851E+03  0.24775933560E+03  0.19999975255E+01 0.  0.
         13    1    3    3    0    0  0.25615398186E+02 -0.15080842806E+02 -0.44805421807E+02  0.53769112242E+02  0.10566000000E+00 0. -1.
         13    1    4    4    0    0 -0.34392574117E+01  0.19647958534E+01 -0.34048452453E+02  0.34278232055E+02  0.10566000000E+00 0.  1.
        -13    1    4    4    0    0 -0.43566871406E+01  0.22066146323E+01 -0.45493810360E+02  0.45755303693E+02  0.10566000000E+00 0.  1.
        -14    1    4    4    0    0 -0.17819453633E+02  0.10909432320E+02 -0.16641933570E+03  0.16772579985E+03  0.00000000000E+00 0.  1.
<mgrwt>
<rscale>  0 0.79836989E+02</rscale>
<asrwt>0</asrwt>
<pdfrwt beam="1">  1        1 0.82780235E-03 0.79836989E+02</pdfrwt>
<pdfrwt beam="2">  1       -2 0.45561177E-01 0.79836989E+02</pdfrwt>
<totfact> 0.71136979E+04</totfact>
</mgrwt>
</event>
<event>
 8    1  0.8247621E-018  0.8053357E+02  0.7818608E-02  0.1327544E+00
          1   -1    0    0  501    0  0.00000000000E+00  0.00000000000E+00  0.97033660562E+02  0.97033660693E+02  0.50400000000E-02 0. -1.
         -2   -1    0    0    0  501 -0.00000000000E+00 -0.00000000000E+00 -0.16709808404E+02  0.16709808598E+02  0.25500000000E-02 0.  1.
        -24    2    1    2    0    0 -0.35527136788E-14  0.00000000000E+00  0.80323852159E+02  0.11374346929E+03  0.80533568037E+02 0.  0.
         66    2    3    3    0    0  0.31401332266E+02  0.18848792835E+02  0.16633917505E+02  0.40274158694E+02  0.19999968764E+01 0.  0.
         13    1    3    3    0    0 -0.31401332266E+02 -0.18848792835E+02  0.63689934654E+02  0.73469310598E+02  0.10566000000E+00 0. -1.
         13    1    4    4    0    0  0.27553656666E+01  0.14462306679E+01  0.18011985991E+01  0.35970965417E+01  0.10566000000E+00 0. -1.
        -13    1    4    4    0    0  0.39302787539E+01  0.21376206497E+01  0.24068735405E+01  0.50814089976E+01  0.10566000000E+00 0.  1.
        -14    1    4    4    0    0  0.24715687846E+02  0.15264941518E+02  0.12425845365E+02  0.31595653155E+02  0.00000000000E+00 0.  1.
<mgrwt>
<rscale>  0 0.80533568E+02</rscale>
<asrwt>0</asrwt>
<pdfrwt beam="1">  1        1 0.14928256E-01 0.80533568E+02</pdfrwt>
<pdfrwt beam="2">  1       -2 0.25707398E-02 0.80533568E+02</pdfrwt>
<totfact> 0.14364334E+05</totfact>
</mgrwt>
</event>
<event>
 8    1  0.8247621E-018  0.8041477E+02  0.7818608E-02  0.1327878E+00
          1   -1    0    0  501    0  0.00000000000E+00  0.00000000000E+00  0.33506988288E+02  0.33506988667E+02  0.50400000000E-02 0. -1.
         -2   -1    0    0    0  501 -0.00000000000E+00 -0.00000000000E+00 -0.48247660868E+02  0.48247660935E+02  0.25500000000E-02 0.  1.
        -24    2    1    2    0    0  0.13322676296E-14  0.00000000000E+00 -0.14740672580E+02  0.81754649602E+02  0.80414770431E+02 0.  0.
         66    2    3    3    0    0  0.33512866898E+01 -0.31231694954E+02 -0.32851935196E+02  0.45496148671E+02  0.20000013874E+01 0.  0.
         13    1    3    3    0    0 -0.33512866898E+01  0.31231694954E+02  0.18111262616E+02  0.36258500931E+02  0.10566000000E+00 0. -1.
         13    1    4    4    0    0  0.25947954032E+00 -0.26176560841E+01 -0.32057060054E+01  0.41481523640E+01  0.10566000000E+00 0. -1.
        -13    1    4    4    0    0  0.10017829423E+01 -0.61111998581E+01 -0.71634783091E+01  0.94697897701E+01  0.10566000000E+00 0.  1.
         14    1    4    4    0    0  0.20900242072E+01 -0.22502839012E+02 -0.22482750882E+02  0.31878206537E+02  0.00000000000E+00 0. -1.
<mgrwt>
<rscale>  0 0.80414770E+02</rscale>
<asrwt>0</asrwt>
<pdfrwt beam="1">  1        1 0.51549213E-02 0.80414770E+02</pdfrwt>
<pdfrwt beam="2">  1       -2 0.74227171E-02 0.80414770E+02</pdfrwt>
<totfact> 0.12148670E+05</totfact>
</mgrwt>
</event>
<event>
 8    1  0.8247621E-018  0.7933225E+02  0.7818608E-02  0.1330957E+00
         -2   -1    0    0    0  501 -0.00000000000E+00  0.00000000000E+00  0.69199247715E+02  0.69199247762E+02  0.25500000000E-02 0.  1.
          1   -1    0    0  501    0  0.00000000000E+00 -0.00000000000E+00 -0.22737264057E+02  0.22737264616E+02  0.50400000000E-02 0. -1.
        -24    2    1    2    0    0  0.00000000000E+00  0.00000000000E+00  0.46461983657E+02  0.91936512377E+02  0.79332253105E+02 0.  0.
         66    2    3    3    0    0 -0.33282281572E+02 -0.13323740376E+02  0.42849773341E+02  0.55904699328E+02  0.20000018235E+01 0.  0.
         13    1    3    3    0    0  0.33282281572E+02  0.13323740376E+02  0.36122103159E+01  0.36031813050E+02  0.10566000000E+00 0. -1.
         13    1    4    4    0    0 -0.13186997792E+02 -0.47095393704E+01  0.17563208477E+02  0.22462282339E+02  0.10566000000E+00 0. -1.
        -13    1    4    4    0    0 -0.11291802067E+02 -0.43904383376E+01  0.14379336065E+02  0.18803117093E+02  0.10566000000E+00 0.  1.
        -14    1    4    4    0    0 -0.88034817130E+01 -0.42237626677E+01  0.10907228800E+02  0.14639299896E+02  0.00000000000E+00 0.  1.
<mgrwt>
<rscale>  0 0.79332253E+02</rscale>
<asrwt>0</asrwt>
<pdfrwt beam="1">  1        1 0.34980407E-02 0.79332253E+02</pdfrwt>
<pdfrwt beam="2">  1       -2 0.10646038E-01 0.79332253E+02</pdfrwt>
<totfact> 0.11765390E+05</totfact>
</mgrwt>
</event>
<event>
 8    1  0.8247621E-018  0.7292629E+02  0.7818608E-02  0.1350416E+00
         -2   -1    0    0    0  501 -0.00000000000E+00  0.00000000000E+00  0.38908876771E+03  0.38908876772E+03  0.25500000000E-02 0.  1.
          1   -1    0    0  501    0  0.00000000000E+00 -0.00000000000E+00 -0.34171130554E+01  0.34171167723E+01  0.50400000000E-02 0. -1.
        -24    2    1    2    0    0  0.71054273576E-14 -0.22204460493E-15  0.38567165466E+03  0.39250588449E+03  0.72926292623E+02 0.  0.
         66    2    3    3    0    0 -0.36372671890E+02 -0.19707572870E+01  0.18847396040E+03  0.19197210447E+03  0.20000005980E+01 0.  0.
         13    1    3    3    0    0  0.36372671890E+02  0.19707572870E+01  0.19719769426E+03  0.20053378002E+03  0.10566000000E+00 0. -1.
         13    1    4    4    0    0 -0.11421573851E+02 -0.15048343208E+00  0.61263653715E+02  0.62319510790E+02  0.10566000000E+00 0. -1.
        -13    1    4    4    0    0 -0.23724378322E+02 -0.19741511519E+01  0.12139469895E+03  0.12370702282E+03  0.10566000000E+00 0.  1.
        -14    1    4    4    0    0 -0.12267197170E+01  0.15387729697E+00  0.58156077382E+01  0.59455708600E+01  0.00000000000E+00 0.  1.
<mgrwt>
<rscale>  0 0.72926293E+02</rscale>
<asrwt>0</asrwt>
<pdfrwt beam="1">  1        1 0.52570985E-03 0.72926293E+02</pdfrwt>
<pdfrwt beam="2">  1       -2 0.59859826E-01 0.72926293E+02</pdfrwt>
<totfact> 0.76365109E+04</totfact>
</mgrwt>
</event>
<event>
 8    1  0.8247621E-018  0.7810345E+02  0.7818608E-02  0.1334521E+00
         -2   -1    0    0    0  501 -0.00000000000E+00  0.00000000000E+00  0.10467552694E+03  0.10467552697E+03  0.25500000000E-02 0.  1.
          1   -1    0    0  501    0  0.00000000000E+00 -0.00000000000E+00 -0.14569185028E+02  0.14569185900E+02  0.50400000000E-02 0. -1.
        -24    2    1    2    0    0 -0.11102230246E-15  0.35527136788E-14  0.90106341912E+02  0.11924471287E+03  0.78103448675E+02 0.  0.
         66    2    3    3    0    0  0.85919936592E+00 -0.21091892151E+02  0.95197046225E+02  0.97529912101E+02  0.20000015668E+01 0.  0.
         13    1    3    3    0    0 -0.85919936592E+00  0.21091892151E+02 -0.50907043134E+01  0.21714800770E+02  0.10566000000E+00 0. -1.
         13    1    4    4    0    0 -0.39374808397E-01 -0.45754528483E+01  0.20904008518E+02  0.21399183520E+02  0.10566000000E+00 0. -1.
        -13    1    4    4    0    0  0.37073444037E+00 -0.15213421133E+02  0.67667276508E+02  0.69357458868E+02  0.10566000000E+00 0.  1.
        -14    1    4    4    0    0  0.52783973394E+00 -0.13030181692E+01  0.66257611988E+01  0.67732697125E+01  0.00000000000E+00 0.  1.
<mgrwt>
<rscale>  0 0.78103449E+02</rscale>
<asrwt>0</asrwt>
<pdfrwt beam="1">  1        1 0.22414131E-02 0.78103449E+02</pdfrwt>
<pdfrwt beam="2">  1       -2 0.16103927E-01 0.78103449E+02</pdfrwt>
<totfact> 0.11155916E+05</totfact>
</mgrwt>
</event>
<event>
 8    1  0.8247621E-018  0.8039450E+02  0.7818608E-02  0.1327936E+00
         -2   -1    0    0    0  501 -0.00000000000E+00  0.00000000000E+00  0.23670294322E+02  0.23670294460E+02  0.25500000000E-02 0.  1.
          1   -1    0    0  501    0  0.00000000000E+00 -0.00000000000E+00 -0.68263567784E+02  0.68263567970E+02  0.50400000000E-02 0. -1.
        -24    2    1    2    0    0  0.71054273576E-14  0.00000000000E+00 -0.44593273462E+02  0.91933862430E+02  0.80394496225E+02 0.  0.
         66    2    3    3    0    0  0.29872097096E+02  0.44903856358E+01  0.79729305872E+01  0.31306123562E+02  0.20000005764E+01 0.  0.
         13    1    3    3    0    0 -0.29872097096E+02 -0.44903856358E+01 -0.52566204049E+02  0.60627738868E+02  0.10566000000E+00 0. -1.
         13    1    4    4    0    0  0.97653669840E+01  0.10721760901E+01  0.32993530258E+01  0.10363824020E+02  0.10566000000E+00 0. -1.
        -13    1    4    4    0    0  0.19669850267E+01  0.52314684773E+00  0.30667057972E+00  0.20610491502E+01  0.10566000000E+00 0.  1.
         14    1    4    4    0    0  0.18139745085E+02  0.28950626980E+01  0.43669069817E+01  0.18881250392E+02  0.00000000000E+00 0. -1.
<mgrwt>
<rscale>  0 0.80394496E+02</rscale>
<asrwt>0</asrwt>
<pdfrwt beam="1">  1        1 0.10502087E-01 0.80394496E+02</pdfrwt>
<pdfrwt beam="2">  1       -2 0.36415838E-02 0.80394496E+02</pdfrwt>
<totfact> 0.13630581E+05</totfact>
</mgrwt>
</event>
<event>
 8    1  0.8247621E-018  0.7703497E+02  0.7818608E-02  0.1337683E+00
          1   -1    0    0  501    0  0.00000000000E+00  0.00000000000E+00  0.59274877942E+02  0.59274878156E+02  0.50400000000E-02 0. -1.
         -2   -1    0    0    0  501 -0.00000000000E+00 -0.00000000000E+00 -0.25029098143E+02  0.25029098273E+02  0.25500000000E-02 0.  1.
        -24    2    1    2    0    0  0.00000000000E+00 -0.17763568394E-14  0.34245779799E+02  0.84303976429E+02  0.77034972627E+02 0.  0.
         66    2    3    3    0    0  0.20576551575E+01  0.15525839949E+02 -0.21344545206E+02  0.26549487002E+02  0.19999997876E+01 0.  0.
         13    1    3    3    0    0 -0.20576551575E+01 -0.15525839949E+02  0.55590325004E+02  0.57754489427E+02  0.10566000000E+00 0. -1.
         13    1    4    4    0    0  0.11702035702E+01  0.57455276895E+01 -0.69279396828E+01  0.90767823105E+01  0.10566000000E+00 0. -1.
        -13    1    4    4    0    0  0.55050373744E+00  0.79210075143E+01 -0.10974962232E+02  0.13546452466E+02  0.10566000000E+00 0.  1.
        -14    1    4    4    0    0  0.33694784987E+00  0.18593047455E+01 -0.34416432912E+01  0.39262522249E+01  0.00000000000E+00 0.  1.
<mgrwt>
<rscale>  0 0.77034973E+02</rscale>
<asrwt>0</asrwt>
<pdfrwt beam="1">  1        1 0.91192119E-02 0.77034973E+02</pdfrwt>
<pdfrwt beam="2">  1       -2 0.38506306E-02 0.77034973E+02</pdfrwt>
<totfact> 0.14991449E+05</totfact>
</mgrwt>
</event>
<event>
 8    1  0.8247621E-018  0.8265140E+02  0.7818608E-02  0.1321691E+00
          1   -1    0    0  501    0  0.00000000000E+00  0.00000000000E+00  0.12830703270E+02  0.12830704260E+02  0.50400000000E-02 0. -1.
         -2   -1    0    0    0  501 -0.00000000000E+00 -0.00000000000E+00 -0.13310364854E+03  0.13310364856E+03  0.25500000000E-02 0.  1.
        -24    2    1    2    0    0  0.17763568394E-14  0.00000000000E+00 -0.12027294527E+03  0.14593435282E+03  0.82651400292E+02 0.  0.
         66    2    3    3    0    0 -0.85772457408E+01  0.64448336544E+01 -0.13059254581E+03  0.13104777011E+03  0.20000010532E+01 0.  0.
         13    1    3    3    0    0  0.85772457408E+01 -0.64448336544E+01  0.10319600545E+02  0.14886582710E+02  0.10566000000E+00 0. -1.
         13    1    4    4    0    0 -0.53342619781E+00  0.54462996847E+00 -0.11811253622E+02  0.11836301850E+02  0.10566000000E+00 0. -1.
        -13    1    4    4    0    0 -0.15388088856E+01  0.19376769542E+01 -0.32880785196E+02  0.32973924909E+02  0.10566000000E+00 0.  1.
        -14    1    4    4    0    0 -0.65050106574E+01  0.39625267317E+01 -0.85900506995E+02  0.86237543354E+02  0.00000000000E+00 0.  1.
<mgrwt>
<rscale>  0 0.82651400E+02</rscale>
<asrwt>0</asrwt>
<pdfrwt beam="1">  1        1 0.19739545E-02 0.82651400E+02</pdfrwt>
<pdfrwt beam="2">  1       -2 0.20477483E-01 0.82651400E+02</pdfrwt>
<totfact> 0.90242713E+04</totfact>
</mgrwt>
</event>
<event>
 8    1  0.8247621E-018  0.8105980E+02  0.7818608E-02  0.1326070E+00
         -2   -1    0    0    0  501 -0.00000000000E+00  0.00000000000E+00  0.25452647698E+02  0.25452647826E+02  0.25500000000E-02 0.  1.
          1   -1    0    0  501    0  0.00000000000E+00 -0.00000000000E+00 -0.64538385107E+02  0.64538385304E+02  0.50400000000E-02 0. -1.
        -24    2    1    2    0    0 -0.35527136788E-14  0.00000000000E+00 -0.39085737409E+02  0.89991033129E+02  0.81059799993E+02 0.  0.
         66    2    3    3    0    0 -0.17594442470E+02  0.12928048991E+02  0.18321293816E+02  0.28572165876E+02  0.19999997925E+01 0.  0.
         13    1    3    3    0    0  0.17594442470E+02 -0.12928048991E+02 -0.57407031225E+02  0.61418867253E+02  0.10566000000E+00 0. -1.
         13    1    4    4    0    0 -0.27533370397E+01  0.16921114701E+01  0.25796040282E+01  0.41363784957E+01  0.10566000000E+00 0. -1.
        -13    1    4    4    0    0 -0.34802390850E+01  0.34974556494E+01  0.38351463365E+01  0.62501017244E+01  0.10566000000E+00 0.  1.
        -14    1    4    4    0    0 -0.11360866346E+02  0.77384818719E+01  0.11906543452E+02  0.18185685656E+02  0.00000000000E+00 0.  1.
<mgrwt>
<rscale>  0 0.81059800E+02</rscale>
<asrwt>0</asrwt>
<pdfrwt beam="1">  1        1 0.99289823E-02 0.81059800E+02</pdfrwt>
<pdfrwt beam="2">  1       -2 0.39157920E-02 0.81059800E+02</pdfrwt>
<totfact> 0.13207338E+05</totfact>
</mgrwt>
</event>
<event>
 8    1  0.8247621E-018  0.8501190E+02  0.7818608E-02  0.1315401E+00
          1   -1    0    0  501    0  0.00000000000E+00  0.00000000000E+00  0.68536148314E+01  0.68536166846E+01  0.50400000000E-02 0. -1.
         -2   -1    0    0    0  501 -0.00000000000E+00 -0.00000000000E+00 -0.26362083909E+03  0.26362083910E+03  0.25500000000E-02 0.  1.
        -24    2    1    2    0    0  0.00000000000E+00  0.00000000000E+00 -0.25676722426E+03  0.27047445579E+03  0.85011903754E+02 0.  0.
         66    2    3    3    0    0 -0.23694312644E+01  0.26670235101E+02 -0.23339133533E+03  0.23493069414E+03  0.19999992702E+01 0.  0.
         13    1    3    3    0    0  0.23694312644E+01 -0.26670235101E+02 -0.23375888933E+02  0.35543761651E+02  0.10566000000E+00 0. -1.
         13    1    4    4    0    0 -0.75307542232E+00  0.10478256150E+02 -0.94500204584E+02  0.95082389563E+02  0.10566000000E+00 0. -1.
        -13    1    4    4    0    0 -0.14344627727E+01  0.12244959840E+02 -0.10981218922E+03  0.11050214835E+03  0.10566000000E+00 0.  1.
         14    1    4    4    0    0 -0.18189306945E+00  0.39470191110E+01 -0.29078941525E+02  0.29346156225E+02  0.00000000000E+00 0. -1.
<mgrwt>
<rscale>  0 0.85011904E+02</rscale>
<asrwt>0</asrwt>
<pdfrwt beam="1">  1        1 0.10544026E-02 0.85011904E+02</pdfrwt>
<pdfrwt beam="2">  1       -2 0.40557044E-01 0.85011904E+02</pdfrwt>
<totfact> 0.64214618E+04</totfact>
</mgrwt>
</event>
<event>
 8    1  0.8247621E-018  0.7990061E+02  0.7818608E-02  0.1329334E+00
          1   -1    0    0  501    0  0.00000000000E+00  0.00000000000E+00  0.17749531849E+02  0.17749532564E+02  0.50400000000E-02 0. -1.
         -2   -1    0    0    0  501 -0.00000000000E+00 -0.00000000000E+00 -0.89919380507E+02  0.89919380543E+02  0.25500000000E-02 0.  1.
        -24    2    1    2    0    0  0.00000000000E+00  0.71054273576E-14 -0.72169848658E+02  0.10766891311E+03  0.79900611977E+02 0.  0.
         66    2    3    3    0    0 -0.61604553127E+01  0.23150993087E+02 -0.79146461957E+02  0.82716879368E+02  0.20000003754E+01 0.  0.
         13    1    3    3    0    0  0.61604553127E+01 -0.23150993087E+02  0.69766132989E+01  0.24952033739E+02  0.10566000000E+00 0. -1.
         13    1    4    4    0    0 -0.11513614884E+00  0.62076730229E+00 -0.31510682521E+01  0.32154320925E+01  0.10566000000E+00 0. -1.
        -13    1    4    4    0    0 -0.17780663469E+01  0.63322118654E+01 -0.19959941262E+02  0.21015918878E+02  0.10566000000E+00 0.  1.
         14    1    4    4    0    0 -0.42672528170E+01  0.16198013919E+02 -0.56035452443E+02  0.58485528398E+02  0.00000000000E+00 0. -1.
<mgrwt>
<rscale>  0 0.79900612E+02</rscale>
<asrwt>0</asrwt>
<pdfrwt beam="1">  1        1 0.27306973E-02 0.79900612E+02</pdfrwt>
<pdfrwt beam="2">  1       -2 0.13833751E-01 0.79900612E+02</pdfrwt>
<totfact> 0.10921740E+05</totfact>
</mgrwt>
</event>
<event>
 8    1  0.8247621E-018  0.8151415E+02  0.7818608E-02  0.1324809E+00
         -2   -1    0    0    0  501 -0.00000000000E+00  0.00000000000E+00  0.31317553068E+02  0.31317553171E+02  0.25500000000E-02 0.  1.
          1   -1    0    0  501    0  0.00000000000E+00 -0.00000000000E+00 -0.53041797620E+02  0.53041797859E+02  0.50400000000E-02 0. -1.
        -24    2    1    2    0    0  0.71054273576E-14  0.00000000000E+00 -0.21724244552E+02  0.84359351030E+02  0.81514154016E+02 0.  0.
         66    2    3    3    0    0  0.38705660290E+02  0.11782951566E+02 -0.15741301524E+02  0.43459805099E+02  0.19999998522E+01 0.  0.
         13    1    3    3    0    0 -0.38705660290E+02 -0.11782951566E+02 -0.59829430277E+01  0.40899545932E+02  0.10566000000E+00 0. -1.
         13    1    4    4    0    0  0.59240407567E+01  0.12217666738E+01 -0.19788496138E+01  0.63650595065E+01  0.10566000000E+00 0. -1.
        -13    1    4    4    0    0  0.20228450800E+02  0.63807646632E+01 -0.81640682960E+01  0.22728122550E+02  0.10566000000E+00 0.  1.
         14    1    4    4    0    0  0.12553168734E+02  0.41804202287E+01 -0.55983836145E+01  0.14366623042E+02  0.00000000000E+00 0. -1.
<mgrwt>
<rscale>  0 0.81514154E+02</rscale>
<asrwt>0</asrwt>
<pdfrwt beam="1">  1        1 0.81602766E-02 0.81514154E+02</pdfrwt>
<pdfrwt beam="2">  1       -2 0.48180851E-02 0.81514154E+02</pdfrwt>
<totfact> 0.12605755E+05</totfact>
</mgrwt>
</event>
<event>
 8    1  0.8247621E-018  0.7967861E+02  0.7818608E-02  0.1329966E+00
         -2   -1    0    0    0  501 -0.00000000000E+00  0.00000000000E+00  0.46475039921E+01  0.46475046917E+01  0.25500000000E-02 0.  1.
          1   -1    0    0  501    0  0.00000000000E+00 -0.00000000000E+00 -0.34151021338E+03  0.34151021342E+03  0.50400000000E-02 0. -1.
        -24    2    1    2    0    0  0.00000000000E+00  0.00000000000E+00 -0.33686270939E+03  0.34615771811E+03  0.79678609615E+02 0.  0.
         66    2    3    3    0    0 -0.37844030549E+02 -0.36967088680E+01 -0.11725659746E+03  0.12328400529E+03  0.20000020732E+01 0.  0.
         13    1    3    3    0    0  0.37844030549E+02  0.36967088680E+01 -0.21960611193E+03  0.22287371282E+03  0.10566000000E+00 0. -1.
         13    1    4    4    0    0 -0.14270795510E+01 -0.27334494708E+00 -0.56388339865E+01  0.58239922963E+01  0.10566000000E+00 0. -1.
        -13    1    4    4    0    0 -0.19442099468E+02 -0.16044342294E+01 -0.60235413355E+02  0.63315761284E+02  0.10566000000E+00 0.  1.
         14    1    4    4    0    0 -0.16974851530E+02 -0.18189296915E+01 -0.51382350119E+02  0.54144251712E+02  0.00000000000E+00 0. -1.
<mgrwt>
<rscale>  0 0.79678610E+02</rscale>
<asrwt>0</asrwt>
<pdfrwt beam="1">  1        1 0.52540013E-01 0.79678610E+02</pdfrwt>
<pdfrwt beam="2">  1       -2 0.71500094E-03 0.79678610E+02</pdfrwt>
<totfact> 0.18678452E+05</totfact>
</mgrwt>
</event>
<event>
 8    1  0.8247621E-018  0.8005288E+02  0.7818608E-02  0.1328901E+00
          1   -1    0    0  501    0  0.00000000000E+00  0.00000000000E+00  0.38437872505E+01  0.38437905547E+01  0.50400000000E-02 0. -1.
         -2   -1    0    0    0  501 -0.00000000000E+00 -0.00000000000E+00 -0.41680638308E+03  0.41680638309E+03  0.25500000000E-02 0.  1.
        -24    2    1    2    0    0 -0.71054273576E-14  0.17763568394E-14 -0.41296259583E+03  0.42065017364E+03  0.80052876471E+02 0.  0.
         66    2    3    3    0    0  0.33904235784E+02 -0.94093333045E+01 -0.30659720670E+03  0.30861607202E+03  0.19999990703E+01 0.  0.
         13    1    3    3    0    0 -0.33904235784E+02  0.94093333045E+01 -0.10636538913E+03  0.11203410162E+03  0.10566000000E+00 0. -1.
         13    1    4    4    0    0  0.50835638264E+01 -0.75337088490E+00 -0.45623567622E+02  0.45912212705E+02  0.10566000000E+00 0. -1.
        -13    1    4    4    0    0  0.71163500808E+01 -0.24386364491E+01 -0.64558405313E+02  0.64995294036E+02  0.10566000000E+00 0.  1.
        -14    1    4    4    0    0  0.21704321877E+02 -0.62173259705E+01 -0.19641523377E+03  0.19770856528E+03  0.00000000000E+00 0.  1.
<mgrwt>
<rscale>  0 0.80052876E+02</rscale>
<asrwt>0</asrwt>
<pdfrwt beam="1">  1        1 0.59135247E-03 0.80052876E+02</pdfrwt>
<pdfrwt beam="2">  1       -2 0.64124023E-01 0.80052876E+02</pdfrwt>
<totfact> 0.57383416E+04</totfact>
</mgrwt>
</event>
<event>
 8    1  0.8247621E-018  0.8009956E+02  0.7818608E-02  0.1328769E+00
          1   -1    0    0  501    0  0.00000000000E+00  0.00000000000E+00  0.23543563920E+03  0.23543563926E+03  0.50400000000E-02 0. -1.
         -2   -1    0    0    0  501 -0.00000000000E+00 -0.00000000000E+00 -0.68128377530E+01  0.68128382302E+01  0.25500000000E-02 0.  1.
        -24    2    1    2    0    0  0.35527136788E-14  0.71054273576E-14  0.22862280145E+03  0.24224847749E+03  0.80099559937E+02 0.  0.
         66    2    3    3    0    0 -0.17429283543E+02 -0.30540305605E+02  0.56563743578E+02  0.66632929340E+02  0.19999983929E+01 0.  0.
         13    1    3    3    0    0  0.17429283543E+02  0.30540305605E+02  0.17205905787E+03  0.17561554815E+03  0.10566000000E+00 0. -1.
         13    1    4    4    0    0 -0.87822335320E-01 -0.45058902345E+00  0.73547808196E+00  0.87340441679E+00  0.10566000000E+00 0.  1.
        -13    1    4    4    0    0 -0.14442984272E+02 -0.24256001426E+02  0.45780223975E+02  0.53784695510E+02  0.10566000000E+00 0.  1.
        -14    1    4    4    0    0 -0.28984769355E+01 -0.58337151555E+01  0.10048041521E+02  0.11974829413E+02  0.00000000000E+00 0.  1.
<mgrwt>
<rscale>  0 0.80099560E+02</rscale>
<asrwt>0</asrwt>
<pdfrwt beam="1">  1        1 0.36220864E-01 0.80099560E+02</pdfrwt>
<pdfrwt beam="2">  1       -2 0.10481290E-02 0.80099560E+02</pdfrwt>
<totfact> 0.17156050E+05</totfact>
</mgrwt>
</event>
<event>
 8    1  0.8247621E-018  0.8082269E+02  0.7818608E-02  0.1326733E+00
          1   -1    0    0  501    0  0.00000000000E+00  0.00000000000E+00  0.30976882407E+02  0.30976882817E+02  0.50400000000E-02 0. -1.
         -2   -1    0    0    0  501 -0.00000000000E+00 -0.00000000000E+00 -0.52719210656E+02  0.52719210718E+02  0.25500000000E-02 0.  1.
        -24    2    1    2    0    0  0.00000000000E+00  0.00000000000E+00 -0.21742328249E+02  0.83696093535E+02  0.80822690102E+02 0.  0.
         66    2    3    3    0    0  0.33138666972E+02  0.16823846492E+02 -0.27246691046E+02  0.46125862855E+02  0.19999979117E+01 0.  0.
         13    1    3    3    0    0 -0.33138666972E+02 -0.16823846492E+02  0.55043627974E+01  0.37570230680E+02  0.10566000000E+00 0. -1.
         13    1    4    4    0    0  0.98953242929E+01  0.59712328743E+01 -0.80554880969E+01  0.14088119726E+02  0.10566000000E+00 0. -1.
        -13    1    4    4    0    0  0.12981954328E+02  0.60915726057E+01 -0.10577024538E+02  0.17819175264E+02  0.10566000000E+00 0.  1.
         14    1    4    4    0    0  0.10261388351E+02  0.47610410122E+01 -0.86141784115E+01  0.14218567865E+02  0.00000000000E+00 0. -1.
<mgrwt>
<rscale>  0 0.80822690E+02</rscale>
<asrwt>0</asrwt>
<pdfrwt beam="1">  1        1 0.47656743E-02 0.80822690E+02</pdfrwt>
<pdfrwt beam="2">  1       -2 0.81106478E-02 0.80822690E+02</pdfrwt>
<totfact> 0.11811221E+05</totfact>
</mgrwt>
</event>
<event>
 8    1  0.8247621E-018  0.8114541E+02  0.7818608E-02  0.1325832E+00
         -2   -1    0    0    0  501 -0.00000000000E+00  0.00000000000E+00  0.14951763016E+03  0.14951763018E+03  0.25500000000E-02 0.  1.
          1   -1    0    0  501    0  0.00000000000E+00 -0.00000000000E+00 -0.11009700359E+02  0.11009701513E+02  0.50400000000E-02 0. -1.
        -24    2    1    2    0    0  0.71054273576E-14  0.00000000000E+00  0.13850792980E+03  0.16052733169E+03  0.81145410241E+02 0.  0.
         66    2    3    3    0    0  0.38050168971E+02 -0.12677697947E+02  0.81099403329E+02  0.90496699399E+02  0.19999994567E+01 0.  0.
         13    1    3    3    0    0 -0.38050168971E+02  0.12677697947E+02  0.57408526468E+02  0.70030632292E+02  0.10566000000E+00 0. -1.
         13    1    4    4    0    0  0.27851114711E+01 -0.14658466733E+01  0.65496391720E+01  0.72673578208E+01  0.10566000000E+00 0. -1.
        -13    1    4    4    0    0  0.26297861552E+02 -0.84596685187E+01  0.55900243635E+02  0.62353764250E+02  0.10566000000E+00 0.  1.
         14    1    4    4    0    0  0.89671959479E+01 -0.27521827547E+01  0.18649520522E+02  0.20875577328E+02  0.00000000000E+00 0. -1.
<mgrwt>
<rscale>  0 0.81145410E+02</rscale>
<asrwt>0</asrwt>
<pdfrwt beam="1">  1        1 0.16938003E-02 0.81145410E+02</pdfrwt>
<pdfrwt beam="2">  1       -2 0.23002710E-01 0.81145410E+02</pdfrwt>
<totfact> 0.91210171E+04</totfact>
</mgrwt>
</event>
<event>
 8    1  0.8247621E-018  0.8576521E+02  0.7818608E-02  0.1313443E+00
          1   -1    0    0  501    0  0.00000000000E+00  0.00000000000E+00  0.42291620291E+01  0.42291650323E+01  0.50400000000E-02 0. -1.
         -2   -1    0    0    0  501 -0.00000000000E+00 -0.00000000000E+00 -0.43481834906E+03  0.43481834907E+03  0.25500000000E-02 0.  1.
        -24    2    1    2    0    0 -0.17763568394E-14  0.00000000000E+00 -0.43058918703E+03  0.43904751410E+03  0.85765212349E+02 0.  0.
         66    2    3    3    0    0  0.14628904581E+02  0.30416963462E+02 -0.35063099343E+03  0.35225742018E+03  0.19999997884E+01 0.  0.
         13    1    3    3    0    0 -0.14628904581E+02 -0.30416963462E+02 -0.79958193602E+02  0.86790093925E+02  0.10566000000E+00 0. -1.
         13    1    4    4    0    0  0.13528232868E+01  0.17528806351E+01 -0.23958950961E+02  0.24061280443E+02  0.10566000000E+00 0.  1.
        -13    1    4    4    0    0  0.43521650954E+01  0.94963054848E+01 -0.10997494325E+03  0.11046999803E+03  0.10566000000E+00 0.  1.
         14    1    4    4    0    0  0.89239161990E+01  0.19167777343E+02 -0.21669709923E+03  0.21772614170E+03  0.00000000000E+00 0. -1.
<mgrwt>
<rscale>  0 0.85765212E+02</rscale>
<asrwt>0</asrwt>
<pdfrwt beam="1">  1        1 0.65064089E-03 0.85765212E+02</pdfrwt>
<pdfrwt beam="2">  1       -2 0.66895095E-01 0.85765212E+02</pdfrwt>
<totfact> 0.46615805E+04</totfact>
</mgrwt>
</event>
<event>
 8    1  0.8247621E-018  0.7995355E+02  0.7818608E-02  0.1329183E+00
         -2   -1    0    0    0  501 -0.00000000000E+00  0.00000000000E+00  0.45503768376E+02  0.45503768447E+02  0.25500000000E-02 0.  1.
          1   -1    0    0  501    0  0.00000000000E+00 -0.00000000000E+00 -0.35121101137E+02  0.35121101499E+02  0.50400000000E-02 0. -1.
        -24    2    1    2    0    0  0.00000000000E+00  0.00000000000E+00  0.10382667238E+02  0.80624869946E+02  0.79953548232E+02 0.  0.
         66    2    3    3    0    0 -0.20842849538E+02 -0.33537456033E+02  0.11324443251E+02  0.41126978355E+02  0.19999999138E+01 0.  0.
         13    1    3    3    0    0  0.20842849538E+02  0.33537456033E+02 -0.94177601257E+00  0.39497891591E+02  0.10566000000E+00 0. -1.
         13    1    4    4    0    0 -0.29998998516E+01 -0.44761368206E+01  0.11663535884E+01  0.55142311055E+01  0.10566000000E+00 0. -1.
        -13    1    4    4    0    0 -0.21532135538E+01 -0.37103563476E+01  0.79979565651E+00  0.43650784600E+01  0.10566000000E+00 0.  1.
        -14    1    4    4    0    0 -0.15689736133E+02 -0.25350962865E+02  0.93582940061E+01  0.31247668790E+02  0.00000000000E+00 0.  1.
<mgrwt>
<rscale>  0 0.79953548E+02</rscale>
<asrwt>0</asrwt>
<pdfrwt beam="1">  1        1 0.54032464E-02 0.79953548E+02</pdfrwt>
<pdfrwt beam="2">  1       -2 0.70005797E-02 0.79953548E+02</pdfrwt>
<totfact> 0.12448249E+05</totfact>
</mgrwt>
</event>
<event>
 8    1  0.8247621E-018  0.8073176E+02  0.7818608E-02  0.1326988E+00
         -2   -1    0    0    0  501 -0.00000000000E+00  0.00000000000E+00  0.17705901773E+03  0.17705901775E+03  0.25500000000E-02 0.  1.
          1   -1    0    0  501    0  0.00000000000E+00 -0.00000000000E+00 -0.92026054536E+01  0.92026068337E+01  0.50400000000E-02 0. -1.
        -24    2    1    2    0    0  0.00000000000E+00  0.35527136788E-14  0.16785641227E+03  0.18626162458E+03  0.80731763573E+02 0.  0.
         66    2    3    3    0    0  0.28676016462E+02 -0.26716960216E+02  0.10602352484E+03  0.11305351700E+03  0.20000006451E+01 0.  0.
         13    1    3    3    0    0 -0.28676016462E+02  0.26716960216E+02  0.61832887431E+02  0.73208107580E+02  0.10566000000E+00 0. -1.
         13    1    4    4    0    0  0.10008836502E+01 -0.70741834407E+00  0.26800578766E+01  0.29489121812E+01  0.10566000000E+00 0. -1.
        -13    1    4    4    0    0  0.21161265261E+02 -0.20205665112E+02  0.80392679561E+02  0.85551517468E+02  0.10566000000E+00 0.  1.
        -14    1    4    4    0    0  0.65138675515E+01 -0.58038767595E+01  0.22950787406E+02  0.24553087351E+02  0.00000000000E+00 0.  1.
<mgrwt>
<rscale>  0 0.80731764E+02</rscale>
<asrwt>0</asrwt>
<pdfrwt beam="1">  1        1 0.14157855E-02 0.80731764E+02</pdfrwt>
<pdfrwt beam="2">  1       -2 0.27239849E-01 0.80731764E+02</pdfrwt>
<totfact> 0.87127076E+04</totfact>
</mgrwt>
</event>
<event>
 8    1  0.8247621E-018  0.8010797E+02  0.7818608E-02  0.1328745E+00
         -2   -1    0    0    0  501 -0.00000000000E+00  0.00000000000E+00  0.17905679730E+02  0.17905679912E+02  0.25500000000E-02 0.  1.
          1   -1    0    0  501    0  0.00000000000E+00 -0.00000000000E+00 -0.89598476248E+02  0.89598476390E+02  0.50400000000E-02 0. -1.
        -24    2    1    2    0    0 -0.44408920985E-15 -0.71054273576E-14 -0.71692796517E+02  0.10750415630E+03  0.80107968078E+02 0.  0.
         66    2    3    3    0    0 -0.27313121796E+01 -0.31865097249E+02 -0.35639702701E+01  0.32241997026E+02  0.19999998173E+01 0.  0.
         13    1    3    3    0    0  0.27313121796E+01  0.31865097249E+02 -0.68128826247E+02  0.75262159275E+02  0.10566000000E+00 0. -1.
         13    1    4    4    0    0 -0.13278462912E+01 -0.64389047220E+01 -0.61235645759E+00  0.66036970144E+01  0.10566000000E+00 0. -1.
        -13    1    4    4    0    0 -0.11394831716E+01 -0.17855272568E+02 -0.20077015097E+01  0.18004199782E+02  0.10566000000E+00 0.  1.
         14    1    4    4    0    0 -0.26398271683E+00 -0.75709199582E+01 -0.94391230280E+00  0.76341002301E+01  0.00000000000E+00 0. -1.
<mgrwt>
<rscale>  0 0.80107968E+02</rscale>
<asrwt>0</asrwt>
<pdfrwt beam="1">  1        1 0.13784381E-01 0.80107968E+02</pdfrwt>
<pdfrwt beam="2">  1       -2 0.27547200E-02 0.80107968E+02</pdfrwt>
<totfact> 0.14380401E+05</totfact>
</mgrwt>
</event>
<event>
 8    1  0.8247621E-018  0.7848984E+02  0.7818608E-02  0.1333393E+00
          1   -1    0    0  501    0  0.00000000000E+00  0.00000000000E+00  0.43386923814E+02  0.43386924107E+02  0.50400000000E-02 0. -1.
         -2   -1    0    0    0  501 -0.00000000000E+00 -0.00000000000E+00 -0.35498337312E+02  0.35498337404E+02  0.25500000000E-02 0.  1.
        -24    2    1    2    0    0  0.00000000000E+00  0.00000000000E+00  0.78885865019E+01  0.78885261510E+02  0.78489838110E+02 0.  0.
         66    2    3    3    0    0 -0.12617508861E+02 -0.36854627654E+02  0.85187894755E+01  0.39925366372E+02  0.19999991036E+01 0.  0.
         13    1    3    3    0    0  0.12617508861E+02  0.36854627654E+02 -0.63020297359E+00  0.38959895139E+02  0.10566000000E+00 0. -1.
         13    1    4    4    0    0 -0.40415860341E+01 -0.12043661705E+02  0.22965391298E+01  0.12910052709E+02  0.10566000000E+00 0. -1.
        -13    1    4    4    0    0 -0.86301396448E+01 -0.24679775487E+02  0.62104203424E+01  0.26872869464E+02  0.10566000000E+00 0.  1.
        -14    1    4    4    0    0  0.54216818258E-01 -0.13119046277E+00  0.11830003278E-01  0.14244419919E+00  0.00000000000E+00 0.  1.
<mgrwt>
<rscale>  0 0.78489838E+02</rscale>
<asrwt>0</asrwt>
<pdfrwt beam="1">  1        1 0.66749114E-02 0.78489838E+02</pdfrwt>
<pdfrwt beam="2">  1       -2 0.54612827E-02 0.78489838E+02</pdfrwt>
<totfact> 0.13569567E+05</totfact>
</mgrwt>
</event>
<event>
 8    1  0.8247621E-018  0.7975705E+02  0.7818608E-02  0.1329742E+00
         -2   -1    0    0    0  501 -0.00000000000E+00  0.00000000000E+00  0.29013885203E+03  0.29013885204E+03  0.25500000000E-02 0.  1.
          1   -1    0    0  501    0  0.00000000000E+00 -0.00000000000E+00 -0.54811567434E+01  0.54811590605E+01  0.50400000000E-02 0. -1.
        -24    2    1    2    0    0 -0.35527136788E-14  0.00000000000E+00  0.28465769529E+03  0.29562001110E+03  0.79757052841E+02 0.  0.
         66    2    3    3    0    0  0.22874674346E+02 -0.20788511303E+01  0.26313414744E+03  0.26414229479E+03  0.19999995491E+01 0.  0.
         13    1    3    3    0    0 -0.22874674346E+02  0.20788511303E+01  0.21523547848E+02  0.31477716315E+02  0.10566000000E+00 0. -1.
         13    1    4    4    0    0  0.17446514546E+02 -0.13284214777E+01  0.20578699222E+03  0.20652952066E+03  0.10566000000E+00 0. -1.
        -13    1    4    4    0    0  0.27356857169E+01 -0.26505425457E+00  0.32187031876E+02  0.32304340500E+02  0.10566000000E+00 0.  1.
         14    1    4    4    0    0  0.26924740823E+01 -0.48537539804E+00  0.25160123349E+02  0.25308433631E+02  0.00000000000E+00 0. -1.
<mgrwt>
<rscale>  0 0.79757053E+02</rscale>
<asrwt>0</asrwt>
<pdfrwt beam="1">  1        1 0.84325479E-03 0.79757053E+02</pdfrwt>
<pdfrwt beam="2">  1       -2 0.44636761E-01 0.79757053E+02</pdfrwt>
<totfact> 0.72107693E+04</totfact>
</mgrwt>
</event>
<event>
 8    1  0.8247621E-018  0.8104629E+02  0.7818608E-02  0.1326108E+00
          1   -1    0    0  501    0  0.00000000000E+00  0.00000000000E+00  0.14097470899E+03  0.14097470908E+03  0.50400000000E-02 0. -1.
         -2   -1    0    0    0  501 -0.00000000000E+00 -0.00000000000E+00 -0.11648368780E+02  0.11648369059E+02  0.25500000000E-02 0.  1.
        -24    2    1    2    0    0 -0.35527136788E-14 -0.11102230246E-15  0.12932634021E+03  0.15262307814E+03  0.81046293614E+02 0.  0.
         66    2    3    3    0    0 -0.26440913735E+02 -0.78514212366E+00  0.69541354996E+01  0.27424411944E+02  0.20000006596E+01 0.  0.
         13    1    3    3    0    0  0.26440913735E+02  0.78514212366E+00  0.12237220471E+03  0.12519866620E+03  0.10566000000E+00 0. -1.
         13    1    4    4    0    0 -0.10417825354E+02  0.10316420805E+00  0.30591800630E+01  0.10858705017E+02  0.10566000000E+00 0. -1.
        -13    1    4    4    0    0 -0.15981073240E+02 -0.91952914105E+00  0.39518081231E+01  0.16488425856E+02  0.10566000000E+00 0.  1.
         14    1    4    4    0    0 -0.42015141313E-01  0.31222809341E-01 -0.56852686539E-01  0.77281070705E-01  0.00000000000E+00 0. -1.
<mgrwt>
<rscale>  0 0.81046294E+02</rscale>
<asrwt>0</asrwt>
<pdfrwt beam="1">  1        1 0.21688418E-01 0.81046294E+02</pdfrwt>
<pdfrwt beam="2">  1       -2 0.17920566E-02 0.81046294E+02</pdfrwt>
<totfact> 0.15075943E+05</totfact>
</mgrwt>
</event>
<event>
 8    1  0.8247621E-018  0.8429541E+02  0.7818608E-02  0.1317285E+00
         -2   -1    0    0    0  501 -0.00000000000E+00  0.00000000000E+00  0.75896282814E+02  0.75896282857E+02  0.25500000000E-02 0.  1.
          1   -1    0    0  501    0  0.00000000000E+00 -0.00000000000E+00 -0.23406007161E+02  0.23406007704E+02  0.50400000000E-02 0. -1.
        -24    2    1    2    0    0  0.00000000000E+00  0.00000000000E+00  0.52490275653E+02  0.99302290560E+02  0.84295408371E+02 0.  0.
         66    2    3    3    0    0  0.36859154673E+02 -0.18055222995E+02  0.37425405832E+02  0.55581016250E+02  0.20000012809E+01 0.  0.
         13    1    3    3    0    0 -0.36859154673E+02  0.18055222995E+02  0.15064869821E+02  0.43721274311E+02  0.10566000000E+00 0. -1.
         13    1    4    4    0    0  0.54939811203E+01 -0.22181625301E+01  0.53322931865E+01  0.79717368385E+01  0.10566000000E+00 0. -1.
        -13    1    4    4    0    0  0.12648751420E+02 -0.56557806028E+01  0.12995998351E+02  0.18996997233E+02  0.10566000000E+00 0.  1.
        -14    1    4    4    0    0  0.18716422132E+02 -0.10181279862E+02  0.19097114294E+02  0.28612282178E+02  0.00000000000E+00 0.  1.
<mgrwt>
<rscale>  0 0.84295408E+02</rscale>
<asrwt>0</asrwt>
<pdfrwt beam="1">  1        1 0.36009243E-02 0.84295408E+02</pdfrwt>
<pdfrwt beam="2">  1       -2 0.11676351E-01 0.84295408E+02</pdfrwt>
<totfact> 0.98924790E+04</totfact>
</mgrwt>
</event>
<event>
 8    1  0.8247621E-018  0.8559512E+02  0.7818608E-02  0.1313884E+00
          1   -1    0    0  501    0  0.00000000000E+00  0.00000000000E+00  0.14623156432E+03  0.14623156441E+03  0.50400000000E-02 0. -1.
         -2   -1    0    0    0  501 -0.00000000000E+00 -0.00000000000E+00 -0.12525551993E+02  0.12525552252E+02  0.25500000000E-02 0.  1.
        -24    2    1    2    0    0  0.00000000000E+00 -0.35527136788E-14  0.13370601233E+03  0.15875711666E+03  0.85595118772E+02 0.  0.
         66    2    3    3    0    0 -0.13020219177E+01 -0.31832993077E+02  0.13953040920E+02  0.34838514205E+02  0.20000029561E+01 0.  0.
         13    1    3    3    0    0  0.13020219177E+01  0.31832993077E+02  0.11975297141E+03  0.12391860245E+03  0.10566000000E+00 0. -1.
         13    1    4    4    0    0  0.72291126957E-01 -0.13305352414E+01  0.32029285759E+00  0.13745186742E+01  0.10566000000E+00 0. -1.
        -13    1    4    4    0    0 -0.11542213622E+01 -0.29357892430E+02  0.12905659939E+02  0.32090267954E+02  0.10566000000E+00 0.  1.
        -14    1    4    4    0    0 -0.22009168248E+00 -0.11445654053E+01  0.72708812397E+00  0.13737275769E+01  0.00000000000E+00 0.  1.
<mgrwt>
<rscale>  0 0.85595119E+02</rscale>
<asrwt>0</asrwt>
<pdfrwt beam="1">  1        1 0.22497164E-01 0.85595119E+02</pdfrwt>
<pdfrwt beam="2">  1       -2 0.19270080E-02 0.85595119E+02</pdfrwt>
<totfact> 0.13106599E+05</totfact>
</mgrwt>
</event>
<event>
 8    1  0.8247621E-018  0.7894037E+02  0.7818608E-02  0.1332086E+00
         -2   -1    0    0    0  501 -0.00000000000E+00  0.00000000000E+00  0.27948258019E+03  0.27948258020E+03  0.25500000000E-02 0.  1.
          1   -1    0    0  501    0  0.00000000000E+00 -0.00000000000E+00 -0.55742117546E+01  0.55742140330E+01  0.50400000000E-02 0. -1.
        -24    2    1    2    0    0  0.00000000000E+00  0.00000000000E+00  0.27390836843E+03  0.28505679423E+03  0.78940367622E+02 0.  0.
         66    2    3    3    0    0 -0.64093432695E+01  0.22627525846E+02  0.25139303726E+03  0.25249860158E+03  0.20000023682E+01 0.  0.
         13    1    3    3    0    0  0.64093432695E+01 -0.22627525846E+02  0.22515331177E+02  0.32558192657E+02  0.10566000000E+00 0. -1.
         13    1    4    4    0    0 -0.20069055668E+01  0.52105221888E+01  0.61981971835E+02  0.62233055590E+02  0.10566000000E+00 0.  1.
        -13    1    4    4    0    0 -0.16858833037E+01  0.68293835716E+01  0.67636487814E+02  0.68001384767E+02  0.10566000000E+00 0. -1.
         14    1    4    4    0    0 -0.27165543989E+01  0.10587620086E+02  0.12177457761E+03  0.12226416122E+03  0.00000000000E+00 0. -1.
<mgrwt>
<rscale>  0 0.78940368E+02</rscale>
<asrwt>0</asrwt>
<pdfrwt beam="1">  1        1 0.85757153E-03 0.78940368E+02</pdfrwt>
<pdfrwt beam="2">  1       -2 0.42997304E-01 0.78940368E+02</pdfrwt>
<totfact> 0.75515879E+04</totfact>
</mgrwt>
</event>
<event>
 8    1  0.8247621E-018  0.7957408E+02  0.7818608E-02  0.1330265E+00
          1   -1    0    0  501    0  0.00000000000E+00  0.00000000000E+00  0.36107691374E+02  0.36107691726E+02  0.50400000000E-02 0. -1.
         -2   -1    0    0    0  501 -0.00000000000E+00 -0.00000000000E+00 -0.43841307530E+02  0.43841307604E+02  0.25500000000E-02 0.  1.
        -24    2    1    2    0    0  0.00000000000E+00  0.00000000000E+00 -0.77336161556E+01  0.79948999330E+02  0.79574076653E+02 0.  0.
         66    2    3    3    0    0 -0.19350395545E+02 -0.14674461911E+02 -0.35501322380E+02  0.43059511490E+02  0.19999997364E+01 0.  0.
         13    1    3    3    0    0  0.19350395545E+02  0.14674461911E+02  0.27767706224E+02  0.36889487840E+02  0.10566000000E+00 0. -1.
         13    1    4    4    0    0 -0.56466243205E+01 -0.43249997516E+01 -0.91142975534E+01  0.11561642314E+02  0.10566000000E+00 0. -1.
        -13    1    4    4    0    0 -0.10349365755E+02 -0.80112176275E+01 -0.19394770638E+02  0.23397804845E+02  0.10566000000E+00 0.  1.
        -14    1    4    4    0    0 -0.33544054692E+01 -0.23382445316E+01 -0.69922541881E+01  0.81000643313E+01  0.00000000000E+00 0.  1.
<mgrwt>
<rscale>  0 0.79574077E+02</rscale>
<asrwt>0</asrwt>
<pdfrwt beam="1">  1        1 0.55550295E-02 0.79574077E+02</pdfrwt>
<pdfrwt beam="2">  1       -2 0.67448166E-02 0.79574077E+02</pdfrwt>
<totfact> 0.12675850E+05</totfact>
</mgrwt>
</event>
<event>
 8    1  0.8247621E-018  0.8088876E+02  0.7818608E-02  0.1326548E+00
          1   -1    0    0  501    0  0.00000000000E+00  0.00000000000E+00  0.79409903409E+02  0.79409903569E+02  0.50400000000E-02 0. -1.
         -2   -1    0    0    0  501 -0.00000000000E+00 -0.00000000000E+00 -0.20598787105E+02  0.20598787263E+02  0.25500000000E-02 0.  1.
        -24    2    1    2    0    0  0.00000000000E+00  0.00000000000E+00  0.58811116304E+02  0.10000869083E+03  0.80888755962E+02 0.  0.
         66    2    3    3    0    0 -0.21842116013E+02  0.31834814054E+02  0.14627794886E+02  0.41334075594E+02  0.20000010501E+01 0.  0.
         13    1    3    3    0    0  0.21842116013E+02 -0.31834814054E+02  0.44183321418E+02  0.58674615238E+02  0.10566000000E+00 0. -1.
         13    1    4    4    0    0 -0.88650104268E+01  0.11344482602E+02  0.55360947418E+01  0.15425472582E+02  0.10566000000E+00 0. -1.
        -13    1    4    4    0    0 -0.59384593363E+01  0.96943548955E+01  0.44983735746E+01  0.12226706220E+02  0.10566000000E+00 0.  1.
         14    1    4    4    0    0 -0.70386462497E+01  0.10795976557E+02  0.45933265692E+01  0.13681896792E+02  0.00000000000E+00 0. -1.
<mgrwt>
<rscale>  0 0.80888756E+02</rscale>
<asrwt>0</asrwt>
<pdfrwt beam="1">  1        1 0.12216908E-01 0.80888756E+02</pdfrwt>
<pdfrwt beam="2">  1       -2 0.31690442E-02 0.80888756E+02</pdfrwt>
<totfact> 0.13732519E+05</totfact>
</mgrwt>
</event>
<event>
 8    1  0.8247621E-018  0.8041055E+02  0.7818608E-02  0.1327890E+00
          1   -1    0    0  501    0  0.00000000000E+00  0.00000000000E+00  0.46536423540E+01  0.46536450832E+01  0.50400000000E-02 0. -1.
         -2   -1    0    0    0  501 -0.00000000000E+00 -0.00000000000E+00 -0.34735452385E+03  0.34735452386E+03  0.25500000000E-02 0.  1.
        -24    2    1    2    0    0 -0.17763568394E-14  0.71054273576E-14 -0.34270088150E+03  0.35200816894E+03  0.80410551697E+02 0.  0.
         66    2    3    3    0    0 -0.13836065816E+02  0.35842842949E+02 -0.22294004396E+03  0.22623529635E+03  0.20000018445E+01 0.  0.
         13    1    3    3    0    0  0.13836065816E+02 -0.35842842949E+02 -0.11976083754E+03  0.12577287259E+03  0.10566000000E+00 0. -1.
         13    1    4    4    0    0 -0.59456811165E+01  0.17466142704E+02 -0.10945601859E+03  0.11100021817E+03  0.10566000000E+00 0. -1.
        -13    1    4    4    0    0 -0.16143390035E+01  0.44823218964E+01 -0.26519248065E+02  0.26943997141E+02  0.10566000000E+00 0.  1.
         14    1    4    4    0    0 -0.62760456965E+01  0.13894378349E+02 -0.86964777304E+02  0.88291081038E+02  0.00000000000E+00 0. -1.
<mgrwt>
<rscale>  0 0.80410552E+02</rscale>
<asrwt>0</asrwt>
<pdfrwt beam="1">  1        1 0.71594546E-03 0.80410552E+02</pdfrwt>
<pdfrwt beam="2">  1       -2 0.53439137E-01 0.80410552E+02</pdfrwt>
<totfact> 0.63760911E+04</totfact>
</mgrwt>
</event>
<event>
 8    1  0.8247621E-018  0.7937323E+02  0.7818608E-02  0.1330840E+00
          1   -1    0    0  501    0  0.00000000000E+00  0.00000000000E+00  0.16213355033E+02  0.16213355817E+02  0.50400000000E-02 0. -1.
         -2   -1    0    0    0  501 -0.00000000000E+00 -0.00000000000E+00 -0.97143833561E+02  0.97143833594E+02  0.25500000000E-02 0.  1.
        -24    2    1    2    0    0 -0.35527136788E-14  0.00000000000E+00 -0.80930478527E+02  0.11335718941E+03  0.79373232494E+02 0.  0.
         66    2    3    3    0    0  0.24606083232E+02 -0.18839225905E+02 -0.75840099553E+02  0.81951793587E+02  0.20000017951E+01 0.  0.
         13    1    3    3    0    0 -0.24606083232E+02  0.18839225905E+02 -0.50903789742E+01  0.31405395824E+02  0.10566000000E+00 0. -1.
         13    1    4    4    0    0  0.13353070282E+02 -0.11086633272E+02 -0.42360386131E+02  0.45778066806E+02  0.10566000000E+00 0. -1.
        -13    1    4    4    0    0  0.77743453003E+01 -0.50263032272E+01 -0.23568784834E+02  0.25321985537E+02  0.10566000000E+00 0.  1.
        -14    1    4    4    0    0  0.34786676498E+01 -0.27262894060E+01 -0.99109285881E+01  0.10851741244E+02  0.00000000000E+00 0.  1.
<mgrwt>
<rscale>  0 0.79373232E+02</rscale>
<asrwt>0</asrwt>
<pdfrwt beam="1">  1        1 0.24943624E-02 0.79373232E+02</pdfrwt>
<pdfrwt beam="2">  1       -2 0.14945205E-01 0.79373232E+02</pdfrwt>
<totfact> 0.10905928E+05</totfact>
</mgrwt>
</event>
<event>
 8    1  0.8247621E-018  0.7705698E+02  0.7818608E-02  0.1337617E+00
         -2   -1    0    0    0  501 -0.00000000000E+00  0.00000000000E+00  0.10099452271E+02  0.10099452592E+02  0.25500000000E-02 0.  1.
          1   -1    0    0  501    0  0.00000000000E+00 -0.00000000000E+00 -0.14698266341E+03  0.14698266350E+03  0.50400000000E-02 0. -1.
        -24    2    1    2    0    0  0.00000000000E+00  0.17763568394E-14 -0.13688321114E+03  0.15708211609E+03  0.77056976993E+02 0.  0.
         66    2    3    3    0    0 -0.18829016274E+02 -0.15497020549E+02 -0.77496346274E+01  0.25666054488E+02  0.20000040920E+01 0.  0.
         13    1    3    3    0    0  0.18829016274E+02  0.15497020549E+02 -0.12913357652E+03  0.13141606161E+03  0.10566000000E+00 0. -1.
         13    1    4    4    0    0 -0.38710234760E+01 -0.34478214618E+01 -0.24318374470E+01  0.57268920881E+01  0.10566000000E+00 0. -1.
        -13    1    4    4    0    0 -0.30728559236E+01 -0.23028912188E+01 -0.87951970669E+00  0.39408717872E+01  0.10566000000E+00 0.  1.
         14    1    4    4    0    0 -0.11885136875E+02 -0.97463078689E+01 -0.44382774737E+01  0.15998290613E+02  0.00000000000E+00 0. -1.
<mgrwt>
<rscale>  0 0.77056977E+02</rscale>
<asrwt>0</asrwt>
<pdfrwt beam="1">  1        1 0.22612716E-01 0.77056977E+02</pdfrwt>
<pdfrwt beam="2">  1       -2 0.15537620E-02 0.77056977E+02</pdfrwt>
<totfact> 0.17383426E+05</totfact>
</mgrwt>
</event>
<event>
 8    1  0.8247621E-018  0.7872792E+02  0.7818608E-02  0.1332701E+00
         -2   -1    0    0    0  501 -0.00000000000E+00  0.00000000000E+00  0.31403732338E+02  0.31403732442E+02  0.25500000000E-02 0.  1.
          1   -1    0    0  501    0  0.00000000000E+00 -0.00000000000E+00 -0.49341945422E+02  0.49341945679E+02  0.50400000000E-02 0. -1.
        -24    2    1    2    0    0 -0.35527136788E-14  0.00000000000E+00 -0.17938213084E+02  0.80745678121E+02  0.78727917835E+02 0.  0.
         66    2    3    3    0    0  0.28053395462E+02 -0.26746822097E+02 -0.20847515606E+01  0.38868131684E+02  0.19999955730E+01 0.  0.
         13    1    3    3    0    0 -0.28053395462E+02  0.26746822097E+02 -0.15853461523E+02  0.41877546437E+02  0.10566000000E+00 0. -1.
         13    1    4    4    0    0  0.10892733798E+02 -0.10509741775E+02 -0.16116468611E+01  0.15222184187E+02  0.10566000000E+00 0. -1.
        -13    1    4    4    0    0  0.11649208399E+02 -0.11064195232E+02 -0.72711370519E+00  0.16082920470E+02  0.10566000000E+00 0.  1.
         14    1    4    4    0    0  0.55114532644E+01 -0.51728850907E+01  0.25400900573E+00  0.75630270278E+01  0.00000000000E+00 0. -1.
<mgrwt>
<rscale>  0 0.78727918E+02</rscale>
<asrwt>0</asrwt>
<pdfrwt beam="1">  1        1 0.75910685E-02 0.78727918E+02</pdfrwt>
<pdfrwt beam="2">  1       -2 0.48313435E-02 0.78727918E+02</pdfrwt>
<totfact> 0.13727949E+05</totfact>
</mgrwt>
</event>
<event>
 8    1  0.8247621E-018  0.8010063E+02  0.7818608E-02  0.1328766E+00
         -2   -1    0    0    0  501 -0.00000000000E+00  0.00000000000E+00  0.27406751942E+02  0.27406752061E+02  0.25500000000E-02 0.  1.
          1   -1    0    0  501    0  0.00000000000E+00 -0.00000000000E+00 -0.58526735677E+02  0.58526735894E+02  0.50400000000E-02 0. -1.
        -24    2    1    2    0    0  0.88817841970E-15  0.00000000000E+00 -0.31119983735E+02  0.85933487954E+02  0.80100630237E+02 0.  0.
         66    2    3    3    0    0  0.43910584027E+01  0.38365473290E+02 -0.26863951523E+02  0.47083572783E+02  0.19999999832E+01 0.  0.
         13    1    3    3    0    0 -0.43910584027E+01 -0.38365473290E+02 -0.42560322118E+01  0.38849915172E+02  0.10566000000E+00 0. -1.
         13    1    4    4    0    0  0.29385820406E+01  0.25844737573E+02 -0.17703986598E+02  0.31464710870E+02  0.10566000000E+00 0. -1.
        -13    1    4    4    0    0  0.15972210860E+01  0.11633417057E+02 -0.86528570900E+01  0.14586658544E+02  0.10566000000E+00 0.  1.
         14    1    4    4    0    0 -0.14474472395E+00  0.88731865961E+00 -0.50710783489E+00  0.10322033690E+01  0.00000000000E+00 0. -1.
<mgrwt>
<rscale>  0 0.80100630E+02</rscale>
<asrwt>0</asrwt>
<pdfrwt beam="1">  1        1 0.90041132E-02 0.80100630E+02</pdfrwt>
<pdfrwt beam="2">  1       -2 0.42164234E-02 0.80100630E+02</pdfrwt>
<totfact> 0.13439191E+05</totfact>
</mgrwt>
</event>
<event>
 8    1  0.8247621E-018  0.7975836E+02  0.7818608E-02  0.1329739E+00
         -2   -1    0    0    0  501 -0.00000000000E+00  0.00000000000E+00  0.15660672536E+03  0.15660672538E+03  0.25500000000E-02 0.  1.
          1   -1    0    0  501    0  0.00000000000E+00 -0.00000000000E+00 -0.10155048461E+02  0.10155049712E+02  0.50400000000E-02 0. -1.
        -24    2    1    2    0    0 -0.17763568394E-14 -0.35527136788E-14  0.14645167689E+03  0.16676177509E+03  0.79758359847E+02 0.  0.
         66    2    3    3    0    0  0.10313118674E+02  0.24050043398E+02  0.13612147662E+03  0.13862835713E+03  0.20000000178E+01 0.  0.
         13    1    3    3    0    0 -0.10313118674E+02 -0.24050043398E+02  0.10330200278E+02  0.28133417959E+02  0.10566000000E+00 0. -1.
         13    1    4    4    0    0  0.14724803476E+01  0.26990053476E+01  0.18266130724E+02  0.18523377767E+02  0.10566000000E+00 0. -1.
        -13    1    4    4    0    0  0.22142512408E+01  0.42963855651E+01  0.25740217223E+02  0.26190299430E+02  0.10566000000E+00 0.  1.
        -14    1    4    4    0    0  0.66263870852E+01  0.17054652485E+02  0.92115128669E+02  0.93914679933E+02  0.00000000000E+00 0.  1.
<mgrwt>
<rscale>  0 0.79758360E+02</rscale>
<asrwt>0</asrwt>
<pdfrwt beam="1">  1        1 0.15623154E-02 0.79758360E+02</pdfrwt>
<pdfrwt beam="2">  1       -2 0.24093341E-01 0.79758360E+02</pdfrwt>
<totfact> 0.93889035E+04</totfact>
</mgrwt>
</event>
<event>
 8    1  0.8247621E-018  0.7901486E+02  0.7818608E-02  0.1331871E+00
          1   -1    0    0  501    0  0.00000000000E+00  0.00000000000E+00  0.69445483808E+01  0.69445502097E+01  0.50400000000E-02 0. -1.
         -2   -1    0    0    0  501 -0.00000000000E+00 -0.00000000000E+00 -0.22475715078E+03  0.22475715080E+03  0.25500000000E-02 0.  1.
        -24    2    1    2    0    0  0.44408920985E-15  0.17763568394E-14 -0.21781260240E+03  0.23170170101E+03  0.79014862427E+02 0.  0.
         66    2    3    3    0    0 -0.33560624553E+01  0.15125457392E+02 -0.21546572307E+03  0.21603129504E+03  0.20000002884E+01 0.  0.
         13    1    3    3    0    0  0.33560624553E+01 -0.15125457392E+02 -0.23468793294E+01  0.15670405966E+02  0.10566000000E+00 0. -1.
         13    1    4    4    0    0 -0.27214031928E+00  0.24941464313E+01 -0.41232750346E+02  0.41309147799E+02  0.10566000000E+00 0. -1.
        -13    1    4    4    0    0 -0.72555664862E+00  0.55575713178E+01 -0.72934388384E+02  0.73149499003E+02  0.10566000000E+00 0.  1.
        -14    1    4    4    0    0 -0.23583654874E+01  0.70737396432E+01 -0.10129858434E+03  0.10157264824E+03  0.00000000000E+00 0.  1.
<mgrwt>
<rscale>  0 0.79014862E+02</rscale>
<asrwt>0</asrwt>
<pdfrwt beam="1">  1        1 0.10683924E-02 0.79014862E+02</pdfrwt>
<pdfrwt beam="2">  1       -2 0.34578018E-01 0.79014862E+02</pdfrwt>
<totfact> 0.83606013E+04</totfact>
</mgrwt>
</event>
<event>
 8    1  0.8247621E-018  0.7910937E+02  0.7818608E-02  0.1331598E+00
          1   -1    0    0  501    0  0.00000000000E+00  0.00000000000E+00  0.16241697250E+03  0.16241697258E+03  0.50400000000E-02 0. -1.
         -2   -1    0    0    0  501 -0.00000000000E+00 -0.00000000000E+00 -0.96330630241E+01  0.96330633616E+01  0.25500000000E-02 0.  1.
        -24    2    1    2    0    0 -0.35527136788E-14  0.35527136788E-14  0.15278390947E+03  0.17205003594E+03  0.79109366525E+02 0.  0.
         66    2    3    3    0    0  0.29366333243E+02 -0.22706608673E+02  0.46891936695E+02  0.59839997756E+02  0.19999997265E+01 0.  0.
         13    1    3    3    0    0 -0.29366333243E+02  0.22706608673E+02  0.10589197278E+03  0.11221003818E+03  0.10566000000E+00 0. -1.
         13    1    4    4    0    0  0.12404071732E+02 -0.10454988493E+02  0.19820140469E+02  0.25612827102E+02  0.10566000000E+00 0. -1.
        -13    1    4    4    0    0  0.73266053894E+01 -0.57980778482E+01  0.12323642193E+02  0.15465450986E+02  0.10566000000E+00 0.  1.
         14    1    4    4    0    0  0.96356561217E+01 -0.64535423317E+01  0.14748154034E+02  0.18761719669E+02  0.00000000000E+00 0. -1.
<mgrwt>
<rscale>  0 0.79109367E+02</rscale>
<asrwt>0</asrwt>
<pdfrwt beam="1">  1        1 0.24987226E-01 0.79109367E+02</pdfrwt>
<pdfrwt beam="2">  1       -2 0.14820097E-02 0.79109367E+02</pdfrwt>
<totfact> 0.16509036E+05</totfact>
</mgrwt>
</event>
<event>
 8    1  0.8247621E-018  0.7764205E+02  0.7818608E-02  0.1335879E+00
         -2   -1    0    0    0  501 -0.00000000000E+00  0.00000000000E+00  0.82815524141E+02  0.82815524181E+02  0.25500000000E-02 0.  1.
          1   -1    0    0  501    0  0.00000000000E+00 -0.00000000000E+00 -0.18197937891E+02  0.18197938589E+02  0.50400000000E-02 0. -1.
        -24    2    1    2    0    0  0.00000000000E+00  0.00000000000E+00  0.64617586250E+02  0.10101346277E+03  0.77642045362E+02 0.  0.
         66    2    3    3    0    0 -0.37005764438E+02 -0.11633350424E+02  0.33049194320E+02  0.51000104786E+02  0.19999998197E+01 0.  0.
         13    1    3    3    0    0  0.37005764438E+02  0.11633350424E+02  0.31568391930E+02  0.50013357984E+02  0.10566000000E+00 0. -1.
         13    1    4    4    0    0 -0.15454853881E+02 -0.45076481764E+01  0.13197240942E+02  0.20817053900E+02  0.10566000000E+00 0. -1.
        -13    1    4    4    0    0 -0.19177408834E+02 -0.60814543345E+01  0.17128795826E+02  0.26422791429E+02  0.10566000000E+00 0.  1.
         14    1    4    4    0    0 -0.23735017233E+01 -0.10442479132E+01  0.27231575517E+01  0.37602594573E+01  0.00000000000E+00 0. -1.
<mgrwt>
<rscale>  0 0.77642045E+02</rscale>
<asrwt>0</asrwt>
<pdfrwt beam="1">  1        1 0.27996828E-02 0.77642045E+02</pdfrwt>
<pdfrwt beam="2">  1       -2 0.12740850E-01 0.77642045E+02</pdfrwt>
<totfact> 0.11970907E+05</totfact>
</mgrwt>
</event>
<event>
 8    1  0.8247621E-018  0.7987753E+02  0.7818608E-02  0.1329399E+00
          1   -1    0    0  501    0  0.00000000000E+00  0.00000000000E+00  0.43008492989E+01  0.43008522519E+01  0.50400000000E-02 0. -1.
         -2   -1    0    0    0  501 -0.00000000000E+00 -0.00000000000E+00 -0.37088122484E+03  0.37088122485E+03  0.25500000000E-02 0.  1.
        -24    2    1    2    0    0  0.88817841970E-15  0.00000000000E+00 -0.36658037554E+03  0.37518207710E+03  0.79877526538E+02 0.  0.
         66    2    3    3    0    0 -0.69846925931E+01 -0.19421496082E+02 -0.34386785410E+03  0.34449249849E+03  0.19999993467E+01 0.  0.
         13    1    3    3    0    0  0.69846925931E+01  0.19421496082E+02 -0.22712521449E+02  0.30689578610E+02  0.10566000000E+00 0. -1.
         13    1    4    4    0    0 -0.82874308426E+00 -0.24719498433E+01 -0.39981084354E+02  0.40066140584E+02  0.10566000000E+00 0. -1.
        -13    1    4    4    0    0 -0.25042485384E+01 -0.67797006704E+01 -0.10776337496E+03  0.10800551721E+03  0.10566000000E+00 0.  1.
         14    1    4    4    0    0 -0.36517009705E+01 -0.10169845568E+02 -0.19612339478E+03  0.19642084070E+03  0.00000000000E+00 0. -1.
<mgrwt>
<rscale>  0 0.79877527E+02</rscale>
<asrwt>0</asrwt>
<pdfrwt beam="1">  1        1 0.66166965E-03 0.79877527E+02</pdfrwt>
<pdfrwt beam="2">  1       -2 0.57058625E-01 0.79877527E+02</pdfrwt>
<totfact> 0.62297286E+04</totfact>
</mgrwt>
</event>
<event>
 8    1  0.8657206E-018  0.8039300E+02  0.7818608E-02  0.1327940E+00
          1   -1    0    0  501    0  0.00000000000E+00  0.00000000000E+00  0.84249088517E+02  0.84249088668E+02  0.50400000000E-02 0. -1.
         -2   -1    0    0    0  501 -0.00000000000E+00 -0.00000000000E+00 -0.19178353188E+02  0.19178353357E+02  0.25500000000E-02 0.  1.
        -24    2    1    2    0    0  0.00000000000E+00  0.00000000000E+00  0.65070735329E+02  0.10342744203E+03  0.80393004469E+02 0.  0.
         66    2    3    3    0    0  0.10083282061E+02  0.11962718398E+02 -0.15045458630E+02  0.21797821745E+02  0.19999997024E+01 0.  0.
         13    1    3    3    0    0 -0.10083282061E+02 -0.11962718398E+02  0.80116193959E+02  0.81629620281E+02  0.10566000000E+00 0. -1.
         13    1    4    4    0    0  0.50105986565E+00  0.31637502497E+00 -0.29108838185E+00  0.66861844653E+00  0.10566000000E+00 0. -1.
        -13    1    4    4    0    0  0.78581390819E+01  0.91694132115E+01 -0.11251982740E+02  0.16505961592E+02  0.10566000000E+00 0.  1.
        -14    1    4    4    0    0  0.17240831137E+01  0.24769301618E+01 -0.35023875084E+01  0.46232417056E+01  0.00000000000E+00 0.  1.
<mgrwt>
<rscale>  0 0.80393004E+02</rscale>
<asrwt>0</asrwt>
<pdfrwt beam="1">  1        1 0.12961399E-01 0.80393004E+02</pdfrwt>
<pdfrwt beam="2">  1       -2 0.29505158E-02 0.80393004E+02</pdfrwt>
<totfact> 0.14099394E+05</totfact>
</mgrwt>
</event>
<event>
 8    1  0.8247621E-018  0.8139334E+02  0.7818608E-02  0.1325143E+00
          1   -1    0    0  501    0  0.00000000000E+00  0.00000000000E+00  0.24580843218E+03  0.24580843224E+03  0.50400000000E-02 0. -1.
         -2   -1    0    0    0  501 -0.00000000000E+00 -0.00000000000E+00 -0.67378445486E+01  0.67378450312E+01  0.25500000000E-02 0.  1.
        -24    2    1    2    0    0 -0.35527136788E-14  0.00000000000E+00  0.23907058763E+03  0.25254627727E+03  0.81393343026E+02 0.  0.
         66    2    3    3    0    0 -0.25551951983E+02  0.10640414237E+02  0.21207312576E+03  0.21388111495E+03  0.19999992747E+01 0.  0.
         13    1    3    3    0    0  0.25551951983E+02 -0.10640414237E+02  0.26997461875E+02  0.38665162317E+02  0.10566000000E+00 0. -1.
         13    1    4    4    0    0 -0.33173372869E+01  0.11127760477E+01  0.24381944102E+02  0.24631958092E+02  0.10566000000E+00 0. -1.
        -13    1    4    4    0    0 -0.13525397710E+02  0.50553510160E+01  0.11341651300E+03  0.11433201451E+03  0.10566000000E+00 0.  1.
        -14    1    4    4    0    0 -0.87092169863E+01  0.44722871730E+01  0.74274668659E+02  0.74917142347E+02  0.00000000000E+00 0.  1.
<mgrwt>
<rscale>  0 0.81393343E+02</rscale>
<asrwt>0</asrwt>
<pdfrwt beam="1">  1        1 0.37816682E-01 0.81393343E+02</pdfrwt>
<pdfrwt beam="2">  1       -2 0.10365915E-02 0.81393343E+02</pdfrwt>
<totfact> 0.16582397E+05</totfact>
</mgrwt>
</event>
<event>
 8    1  0.8247621E-018  0.7984903E+02  0.7818608E-02  0.1329480E+00
         -2   -1    0    0    0  501 -0.00000000000E+00  0.00000000000E+00  0.37607373505E+02  0.37607373591E+02  0.25500000000E-02 0.  1.
          1   -1    0    0  501    0  0.00000000000E+00 -0.00000000000E+00 -0.42384424288E+02  0.42384424587E+02  0.50400000000E-02 0. -1.
        -24    2    1    2    0    0  0.17763568394E-14 -0.17763568394E-14 -0.47770507830E+01  0.79991798178E+02  0.79849029810E+02 0.  0.
         66    2    3    3    0    0 -0.14611047432E+02 -0.91217054704E+01  0.33664240865E+02  0.37867787384E+02  0.19999976493E+01 0.  0.
         13    1    3    3    0    0  0.14611047432E+02  0.91217054704E+01 -0.38441291648E+02  0.42124010794E+02  0.10566000000E+00 0. -1.
         13    1    4    4    0    0 -0.24307940394E+01 -0.13113451705E+01  0.64517470465E+01  0.70188738274E+01  0.10566000000E+00 0. -1.
        -13    1    4    4    0    0 -0.50021419494E+01 -0.29410131845E+01  0.96379168625E+01  0.11250403909E+02  0.10566000000E+00 0.  1.
         14    1    4    4    0    0 -0.71781114436E+01 -0.48693471153E+01  0.17574576956E+02  0.19598509648E+02  0.00000000000E+00 0. -1.
<mgrwt>
<rscale>  0 0.79849030E+02</rscale>
<asrwt>0</asrwt>
<pdfrwt beam="1">  1        1 0.65206807E-02 0.79849030E+02</pdfrwt>
<pdfrwt beam="2">  1       -2 0.57857498E-02 0.79849030E+02</pdfrwt>
<totfact> 0.12884871E+05</totfact>
</mgrwt>
</event>
<event>
 8    1  0.8247621E-018  0.7992140E+02  0.7818608E-02  0.1329275E+00
          1   -1    0    0  501    0  0.00000000000E+00  0.00000000000E+00  0.13208487198E+03  0.13208487208E+03  0.50400000000E-02 0. -1.
         -2   -1    0    0    0  501 -0.00000000000E+00 -0.00000000000E+00 -0.12089631685E+02  0.12089631954E+02  0.25500000000E-02 0.  1.
        -24    2    1    2    0    0  0.00000000000E+00  0.00000000000E+00  0.11999524030E+03  0.14417450403E+03  0.79921398381E+02 0.  0.
         66    2    3    3    0    0 -0.17753131790E+02  0.29111020655E+02  0.22530749764E+02  0.40917720765E+02  0.19999939372E+01 0.  0.
         13    1    3    3    0    0  0.17753131790E+02 -0.29111020655E+02  0.97464490532E+02  0.10325678327E+03  0.10566000000E+00 0. -1.
         13    1    4    4    0    0 -0.63073395050E+00  0.95473742100E+00  0.84608005723E+00  0.14270123889E+01  0.10566000000E+00 0. -1.
        -13    1    4    4    0    0 -0.14366960516E+02  0.24765070777E+02  0.19019086012E+02  0.34372301084E+02  0.10566000000E+00 0.  1.
        -14    1    4    4    0    0 -0.27554373229E+01  0.33912124571E+01  0.26655836950E+01  0.51184072918E+01  0.00000000000E+00 0.  1.
<mgrwt>
<rscale>  0 0.79921398E+02</rscale>
<asrwt>0</asrwt>
<pdfrwt beam="1">  1        1 0.20320750E-01 0.79921398E+02</pdfrwt>
<pdfrwt beam="2">  1       -2 0.18599433E-02 0.79921398E+02</pdfrwt>
<totfact> 0.15467714E+05</totfact>
</mgrwt>
</event>
<event>
 8    1  0.8247621E-018  0.7647593E+02  0.7818608E-02  0.1339361E+00
         -2   -1    0    0    0  501 -0.00000000000E+00  0.00000000000E+00  0.18783098016E+02  0.18783098189E+02  0.25500000000E-02 0.  1.
          1   -1    0    0  501    0  0.00000000000E+00 -0.00000000000E+00 -0.77843491801E+02  0.77843491964E+02  0.50400000000E-02 0. -1.
        -24    2    1    2    0    0  0.00000000000E+00  0.00000000000E+00 -0.59060393785E+02  0.96626590153E+02  0.76475929616E+02 0.  0.
         66    2    3    3    0    0  0.18443580493E+02 -0.22053509230E+02  0.22538504658E+01  0.28906795094E+02  0.20000074898E+01 0.  0.
         13    1    3    3    0    0 -0.18443580493E+02  0.22053509230E+02 -0.61314244251E+02  0.67719795059E+02  0.10566000000E+00 0. -1.
         13    1    4    4    0    0  0.80779154845E+01 -0.87783690890E+01  0.12919283957E+01  0.11999696890E+02  0.10566000000E+00 0. -1.
        -13    1    4    4    0    0  0.70219616746E+01 -0.89278022929E+01  0.11675134547E+01  0.11418749986E+02  0.10566000000E+00 0.  1.
         14    1    4    4    0    0  0.33437033341E+01 -0.43473378477E+01 -0.20559138466E+00  0.54883482184E+01  0.00000000000E+00 0. -1.
<mgrwt>
<rscale>  0 0.76475930E+02</rscale>
<asrwt>0</asrwt>
<pdfrwt beam="1">  1        1 0.11975922E-01 0.76475930E+02</pdfrwt>
<pdfrwt beam="2">  1       -2 0.28897075E-02 0.76475930E+02</pdfrwt>
<totfact> 0.15944784E+05</totfact>
</mgrwt>
</event>
<event>
 8    1  0.8247621E-018  0.8376930E+02  0.7818608E-02  0.1318683E+00
         -2   -1    0    0    0  501 -0.00000000000E+00  0.00000000000E+00  0.49872718719E+01  0.49872725238E+01  0.25500000000E-02 0.  1.
          1   -1    0    0  501    0  0.00000000000E+00 -0.00000000000E+00 -0.35176019921E+03  0.35176019925E+03  0.50400000000E-02 0. -1.
        -24    2    1    2    0    0  0.00000000000E+00  0.00000000000E+00 -0.34677292734E+03  0.35674747177E+03  0.83769299147E+02 0.  0.
         66    2    3    3    0    0  0.28247981026E+02 -0.14439778385E+02 -0.28979195870E+03  0.29153016131E+03  0.19999995791E+01 0.  0.
         13    1    3    3    0    0 -0.28247981026E+02  0.14439778385E+02 -0.56980968641E+02  0.65217310457E+02  0.10566000000E+00 0. -1.
         13    1    4    4    0    0  0.10438141081E+02 -0.46744392144E+01 -0.10150234239E+03  0.10214471032E+03  0.10566000000E+00 0. -1.
        -13    1    4    4    0    0  0.12972070676E+02 -0.73060853503E+01 -0.13343963607E+03  0.13426764740E+03  0.10566000000E+00 0.  1.
        -14    1    4    4    0    0  0.48377692680E+01 -0.24592538202E+01 -0.54849980237E+02  0.55117803592E+02  0.00000000000E+00 0.  1.
<mgrwt>
<rscale>  0 0.83769299E+02</rscale>
<asrwt>0</asrwt>
<pdfrwt beam="1">  1        1 0.54116934E-01 0.83769299E+02</pdfrwt>
<pdfrwt beam="2">  1       -2 0.76727292E-03 0.83769299E+02</pdfrwt>
<totfact> 0.16455882E+05</totfact>
</mgrwt>
</event>
<event>
 8    1  0.8247621E-018  0.7577549E+02  0.7818608E-02  0.1341486E+00
         -2   -1    0    0    0  501 -0.00000000000E+00  0.00000000000E+00  0.16445140705E+02  0.16445140903E+02  0.25500000000E-02 0.  1.
          1   -1    0    0  501    0  0.00000000000E+00 -0.00000000000E+00 -0.87289074504E+02  0.87289074649E+02  0.50400000000E-02 0. -1.
        -24    2    1    2    0    0  0.00000000000E+00  0.00000000000E+00 -0.70843933799E+02  0.10373421555E+03  0.75775487593E+02 0.  0.
         66    2    3    3    0    0 -0.36565401448E+02 -0.82350055806E+01 -0.42771809342E+02  0.56905813534E+02  0.20000098975E+01 0.  0.
         13    1    3    3    0    0  0.36565401448E+02  0.82350055806E+01 -0.28072124457E+02  0.46828402018E+02  0.10566000000E+00 0. -1.
         13    1    4    4    0    0 -0.28315840474E+01 -0.73068954267E+00 -0.30512930068E+01  0.42276859479E+01  0.10566000000E+00 0. -1.
        -13    1    4    4    0    0 -0.18714516812E+02 -0.32928034041E+01 -0.21973872136E+02  0.29050609536E+02  0.10566000000E+00 0.  1.
        -14    1    4    4    0    0 -0.15019300589E+02 -0.42115126338E+01 -0.17746644199E+02  0.23627518050E+02  0.00000000000E+00 0.  1.
<mgrwt>
<rscale>  0 0.75775488E+02</rscale>
<asrwt>0</asrwt>
<pdfrwt beam="1">  1        1 0.13429088E-01 0.75775488E+02</pdfrwt>
<pdfrwt beam="2">  1       -2 0.25300217E-02 0.75775488E+02</pdfrwt>
<totfact> 0.16642876E+05</totfact>
</mgrwt>
</event>
<event>
 8    1  0.8247621E-018  0.8060866E+02  0.7818608E-02  0.1327333E+00
         -2   -1    0    0    0  501 -0.00000000000E+00  0.00000000000E+00  0.41315689206E+02  0.41315689284E+02  0.25500000000E-02 0.  1.
          1   -1    0    0  501    0  0.00000000000E+00 -0.00000000000E+00 -0.39317724502E+02  0.39317724825E+02  0.50400000000E-02 0. -1.
        -24    2    1    2    0    0 -0.17763568394E-14 -0.35527136788E-14  0.19979647035E+01  0.80633414110E+02  0.80608657153E+02 0.  0.
         66    2    3    3    0    0 -0.10267026240E+02 -0.27113021476E+02  0.28970768796E+02  0.41034536777E+02  0.20000006237E+01 0.  0.
         13    1    3    3    0    0  0.10267026240E+02  0.27113021476E+02 -0.26972804092E+02  0.39598877333E+02  0.10566000000E+00 0. -1.
         13    1    4    4    0    0 -0.40054412855E+01 -0.96161391286E+01  0.11318840830E+02  0.15383140557E+02  0.10566000000E+00 0. -1.
        -13    1    4    4    0    0 -0.18666565240E+01 -0.55616157754E+01  0.62083454461E+01  0.85422885591E+01  0.10566000000E+00 0.  1.
        -14    1    4    4    0    0 -0.43949284304E+01 -0.11935266572E+02  0.11443582519E+02  0.17109107660E+02  0.00000000000E+00 0.  1.
<mgrwt>
<rscale>  0 0.80608657E+02</rscale>
<asrwt>0</asrwt>
<pdfrwt beam="1">  1        1 0.60488808E-02 0.80608657E+02</pdfrwt>
<pdfrwt beam="2">  1       -2 0.63562599E-02 0.80608657E+02</pdfrwt>
<totfact> 0.12394006E+05</totfact>
</mgrwt>
</event>
<event>
 8    1  0.8247621E-018  0.7667578E+02  0.7818608E-02  0.1338759E+00
         -2   -1    0    0    0  501 -0.00000000000E+00  0.00000000000E+00  0.13030984047E+02  0.13030984297E+02  0.25500000000E-02 0.  1.
          1   -1    0    0  501    0  0.00000000000E+00 -0.00000000000E+00 -0.11279222517E+03  0.11279222528E+03  0.50400000000E-02 0. -1.
        -24    2    1    2    0    0 -0.35527136788E-14  0.17763568394E-14 -0.99761241122E+02  0.12582320958E+03  0.76675777390E+02 0.  0.
         66    2    3    3    0    0 -0.25363602577E+02  0.11972707916E+02 -0.70874466911E+01  0.28998102252E+02  0.19999907636E+01 0.  0.
         13    1    3    3    0    0  0.25363602577E+02 -0.11972707916E+02 -0.92673794431E+02  0.96825107326E+02  0.10566000000E+00 0. -1.
         13    1    4    4    0    0 -0.86769908509E+01  0.37778655263E+01 -0.32701392956E+01  0.10013361734E+02  0.10566000000E+00 0. -1.
        -13    1    4    4    0    0 -0.97182738543E+01  0.48317888585E+01 -0.24640677825E+01  0.11129861830E+02  0.10566000000E+00 0.  1.
         14    1    4    4    0    0 -0.69683378724E+01  0.33630535309E+01 -0.13532396130E+01  0.78548786881E+01  0.00000000000E+00 0. -1.
<mgrwt>
<rscale>  0 0.76675777E+02</rscale>
<asrwt>0</asrwt>
<pdfrwt beam="1">  1        1 0.17352649E-01 0.76675777E+02</pdfrwt>
<pdfrwt beam="2">  1       -2 0.20047669E-02 0.76675777E+02</pdfrwt>
<totfact> 0.16815119E+05</totfact>
</mgrwt>
</event>
<event>
 8    1  0.8247621E-018  0.8145905E+02  0.7818608E-02  0.1324961E+00
          1   -1    0    0  501    0  0.00000000000E+00  0.00000000000E+00  0.39828692813E+02  0.39828693131E+02  0.50400000000E-02 0. -1.
         -2   -1    0    0    0  501 -0.00000000000E+00 -0.00000000000E+00 -0.41650729516E+02  0.41650729594E+02  0.25500000000E-02 0.  1.
        -24    2    1    2    0    0  0.00000000000E+00  0.00000000000E+00 -0.18220367032E+01  0.81479422725E+02  0.81459048054E+02 0.  0.
         66    2    3    3    0    0  0.24684932109E+02 -0.15100668950E+02 -0.29545864888E+02  0.41404519241E+02  0.20000014154E+01 0.  0.
         13    1    3    3    0    0 -0.24684932109E+02  0.15100668950E+02  0.27723828185E+02  0.40074903484E+02  0.10566000000E+00 0. -1.
         13    1    4    4    0    0  0.29878642684E+01 -0.23369310003E+01 -0.41892316443E+01  0.56523804889E+01  0.10566000000E+00 0. -1.
        -13    1    4    4    0    0  0.10529352274E+02 -0.60410384666E+01 -0.13093073827E+02  0.17855003538E+02  0.10566000000E+00 0.  1.
        -14    1    4    4    0    0  0.11167715567E+02 -0.67226994827E+01 -0.12263559417E+02  0.17897135215E+02  0.00000000000E+00 0.  1.
<mgrwt>
<rscale>  0 0.81459048E+02</rscale>
<asrwt>0</asrwt>
<pdfrwt beam="1">  1        1 0.61274912E-02 0.81459048E+02</pdfrwt>
<pdfrwt beam="2">  1       -2 0.64078046E-02 0.81459048E+02</pdfrwt>
<totfact> 0.12057458E+05</totfact>
</mgrwt>
</event>
<event>
 8    1  0.8247621E-018  0.7995310E+02  0.7818608E-02  0.1329185E+00
         -2   -1    0    0    0  501 -0.00000000000E+00  0.00000000000E+00  0.10417858696E+02  0.10417859008E+02  0.25500000000E-02 0.  1.
          1   -1    0    0  501    0  0.00000000000E+00 -0.00000000000E+00 -0.15340238061E+03  0.15340238069E+03  0.50400000000E-02 0. -1.
        -24    2    1    2    0    0 -0.35527136788E-14  0.00000000000E+00 -0.14298452191E+03  0.16382023970E+03  0.79953095178E+02 0.  0.
         66    2    3    3    0    0 -0.28217488745E+02  0.21419442101E+02 -0.33694940814E+02  0.48932281794E+02  0.19999985223E+01 0.  0.
         13    1    3    3    0    0  0.28217488745E+02 -0.21419442101E+02 -0.10928958110E+03  0.11488795790E+03  0.10566000000E+00 0. -1.
         13    1    4    4    0    0 -0.47148854849E+01  0.31257181621E+01 -0.58598572579E+01  0.81455110511E+01  0.10566000000E+00 0. -1.
        -13    1    4    4    0    0 -0.16676763147E+02  0.12329103977E+02 -0.18934684572E+02  0.28082996240E+02  0.10566000000E+00 0.  1.
        -14    1    4    4    0    0 -0.68258401134E+01  0.59646199620E+01 -0.89003989840E+01  0.12703774503E+02  0.00000000000E+00 0.  1.
<mgrwt>
<rscale>  0 0.79953095E+02</rscale>
<asrwt>0</asrwt>
<pdfrwt beam="1">  1        1 0.23600365E-01 0.79953095E+02</pdfrwt>
<pdfrwt beam="2">  1       -2 0.16027476E-02 0.79953095E+02</pdfrwt>
<totfact> 0.15878920E+05</totfact>
</mgrwt>
</event>
<event>
 8    1  0.8247621E-018  0.7965244E+02  0.7818608E-02  0.1330041E+00
          1   -1    0    0  501    0  0.00000000000E+00  0.00000000000E+00  0.23638123512E+03  0.23638123517E+03  0.50400000000E-02 0. -1.
         -2   -1    0    0    0  501 -0.00000000000E+00 -0.00000000000E+00 -0.67100403988E+01  0.67100408834E+01  0.25500000000E-02 0.  1.
        -24    2    1    2    0    0  0.00000000000E+00 -0.35527136788E-14  0.22967119472E+03  0.24309127605E+03  0.79652437567E+02 0.  0.
         66    2    3    3    0    0 -0.32847442874E+02  0.17090332803E+02  0.70357501796E+02  0.79531201784E+02  0.20000048855E+01 0.  0.
         13    1    3    3    0    0  0.32847442874E+02 -0.17090332803E+02  0.15931369292E+03  0.16356007427E+03  0.10566000000E+00 0. -1.
         13    1    4    4    0    0 -0.19100758757E+02  0.98679366889E+01  0.39618685281E+02  0.45076230399E+02  0.10566000000E+00 0. -1.
        -13    1    4    4    0    0 -0.13617686559E+02  0.72444821123E+01  0.30571572803E+02  0.34242607026E+02  0.10566000000E+00 0.  1.
         14    1    4    4    0    0 -0.12899755815E+00 -0.22085998374E-01  0.16724371244E+00  0.21236435832E+00  0.00000000000E+00 0. -1.
<mgrwt>
<rscale>  0 0.79652438E+02</rscale>
<asrwt>0</asrwt>
<pdfrwt beam="1">  1        1 0.36366342E-01 0.79652438E+02</pdfrwt>
<pdfrwt beam="2">  1       -2 0.10323140E-02 0.79652438E+02</pdfrwt>
<totfact> 0.17425712E+05</totfact>
</mgrwt>
</event>
<event>
 8    1  0.8247621E-018  0.8291213E+02  0.7818608E-02  0.1320985E+00
         -2   -1    0    0    0  501 -0.00000000000E+00  0.00000000000E+00  0.82154830597E+02  0.82154830637E+02  0.25500000000E-02 0.  1.
          1   -1    0    0  501    0  0.00000000000E+00 -0.00000000000E+00 -0.20919101086E+02  0.20919101693E+02  0.50400000000E-02 0. -1.
        -24    2    1    2    0    0  0.00000000000E+00  0.00000000000E+00  0.61235729511E+02  0.10307393233E+03  0.82912127925E+02 0.  0.
         66    2    3    3    0    0 -0.19742693679E+02 -0.25739437217E+02  0.62677320363E+02  0.70602684583E+02  0.20000000997E+01 0.  0.
         13    1    3    3    0    0  0.19742693679E+02  0.25739437217E+02 -0.14415908519E+01  0.32471247746E+02  0.10566000000E+00 0. -1.
         13    1    4    4    0    0 -0.52601852945E+01 -0.79137114257E+01  0.18875459201E+02  0.21132687997E+02  0.10566000000E+00 0. -1.
        -13    1    4    4    0    0 -0.13623609382E+02 -0.16371166402E+02  0.40299899129E+02  0.45581913692E+02  0.10566000000E+00 0.  1.
        -14    1    4    4    0    0 -0.85889900284E+00 -0.14545593898E+01  0.35019620326E+01  0.38880828943E+01  0.00000000000E+00 0.  1.
<mgrwt>
<rscale>  0 0.82912128E+02</rscale>
<asrwt>0</asrwt>
<pdfrwt beam="1">  1        1 0.32183234E-02 0.82912128E+02</pdfrwt>
<pdfrwt beam="2">  1       -2 0.12639204E-01 0.82912128E+02</pdfrwt>
<totfact> 0.10142830E+05</totfact>
</mgrwt>
</event>
<event>
 8    1  0.8247621E-018  0.7785325E+02  0.7818608E-02  0.1335256E+00
          1   -1    0    0  501    0  0.00000000000E+00  0.00000000000E+00  0.16828528072E+01  0.16828603544E+01  0.50400000000E-02 0. -1.
         -2   -1    0    0    0  501 -0.00000000000E+00 -0.00000000000E+00 -0.90042261946E+03  0.90042261947E+03  0.25500000000E-02 0.  1.
        -24    2    1    2    0    0  0.35527136788E-14  0.17763568394E-14 -0.89873976666E+03  0.90210547982E+03  0.77853250121E+02 0.  0.
         66    2    3    3    0    0 -0.19240313762E+02 -0.11232736569E+02 -0.81917247691E+03  0.81947782824E+03  0.20000008766E+01 0.  0.
         13    1    3    3    0    0  0.19240313762E+02  0.11232736569E+02 -0.79567289747E+02  0.82627651583E+02  0.10566000000E+00 0. -1.
         13    1    4    4    0    0 -0.40618865293E+01 -0.17597783545E+01 -0.17382074296E+03  0.17387713361E+03  0.10566000000E+00 0. -1.
        -13    1    4    4    0    0 -0.85148317062E+01 -0.57531646178E+01 -0.35546301732E+03  0.35561154243E+03  0.10566000000E+00 0.  1.
         14    1    4    4    0    0 -0.66635955261E+01 -0.37197935965E+01 -0.28988871662E+03  0.28998915220E+03  0.00000000000E+00 0. -1.
<mgrwt>
<rscale>  0 0.77853250E+02</rscale>
<asrwt>0</asrwt>
<pdfrwt beam="1">  1        1 0.25890173E-03 0.77853250E+02</pdfrwt>
<pdfrwt beam="2">  1       -2 0.13852617E+00 0.77853250E+02</pdfrwt>
<totfact> 0.31480875E+04</totfact>
</mgrwt>
</event>
<event>
 8    1  0.8247621E-018  0.7975744E+02  0.7818608E-02  0.1329741E+00
          1   -1    0    0  501    0  0.00000000000E+00  0.00000000000E+00  0.20740941696E+01  0.20741002931E+01  0.50400000000E-02 0. -1.
         -2   -1    0    0    0  501 -0.00000000000E+00 -0.00000000000E+00 -0.76674907934E+03  0.76674907934E+03  0.25500000000E-02 0.  1.
        -24    2    1    2    0    0  0.00000000000E+00  0.00000000000E+00 -0.76467498517E+03  0.76882317963E+03  0.79757436031E+02 0.  0.
         66    2    3    3    0    0  0.10154931156E+01 -0.22287075613E+02 -0.70090939391E+03  0.70126722684E+03  0.20000003349E+01 0.  0.
         13    1    3    3    0    0 -0.10154931156E+01  0.22287075613E+02 -0.63765591254E+02  0.67555952792E+02  0.10566000000E+00 0. -1.
         13    1    4    4    0    0 -0.32609783290E+00 -0.50093380763E+01 -0.13924411623E+03  0.13933461478E+03  0.10566000000E+00 0. -1.
        -13    1    4    4    0    0  0.49919670977E+00 -0.75016946291E+01 -0.24446857850E+03  0.24458418112E+03  0.10566000000E+00 0.  1.
         14    1    4    4    0    0  0.84239423876E+00 -0.97760429074E+01 -0.31719669919E+03  0.31734843094E+03  0.00000000000E+00 0. -1.
<mgrwt>
<rscale>  0 0.79757436E+02</rscale>
<asrwt>0</asrwt>
<pdfrwt beam="1">  1        1 0.31909250E-03 0.79757436E+02</pdfrwt>
<pdfrwt beam="2">  1       -2 0.11796117E+00 0.79757436E+02</pdfrwt>
<totfact> 0.34948974E+04</totfact>
</mgrwt>
</event>
<event>
 8    1  0.8247621E-018  0.7749403E+02  0.7818608E-02  0.1336317E+00
          1   -1    0    0  501    0  0.00000000000E+00  0.00000000000E+00  0.27733473530E+01  0.27733519326E+01  0.50400000000E-02 0. -1.
         -2   -1    0    0    0  501 -0.00000000000E+00 -0.00000000000E+00 -0.54134214164E+03  0.54134214164E+03  0.25500000000E-02 0.  1.
        -24    2    1    2    0    0  0.00000000000E+00  0.00000000000E+00 -0.53856879428E+03  0.54411549358E+03  0.77494026689E+02 0.  0.
         66    2    3    3    0    0 -0.34459613939E+02  0.44298957923E+01 -0.38949347086E+03  0.39104507779E+03  0.20000136915E+01 0.  0.
         13    1    3    3    0    0  0.34459613939E+02 -0.44298957923E+01 -0.14907532342E+03  0.15307041578E+03  0.10566000000E+00 0. -1.
         13    1    4    4    0    0 -0.64320508308E+01  0.60442124674E+00 -0.70862853798E+02  0.71156811447E+02  0.10566000000E+00 0. -1.
        -13    1    4    4    0    0 -0.18537841862E+02  0.28886279870E+01 -0.20306460516E+03  0.20392949955E+03  0.10566000000E+00 0.  1.
        -14    1    4    4    0    0 -0.94897212463E+01  0.93684655859E+00 -0.11556601190E+03  0.11595876679E+03  0.00000000000E+00 0.  1.
<mgrwt>
<rscale>  0 0.77494027E+02</rscale>
<asrwt>0</asrwt>
<pdfrwt beam="1">  1        1 0.42666961E-03 0.77494027E+02</pdfrwt>
<pdfrwt beam="2">  1       -2 0.83283323E-01 0.77494027E+02</pdfrwt>
<totfact> 0.51386940E+04</totfact>
</mgrwt>
</event>
<event>
 8    1  0.8247621E-018  0.7915317E+02  0.7818608E-02  0.1331472E+00
         -2   -1    0    0    0  501 -0.00000000000E+00  0.00000000000E+00  0.30973100132E+01  0.30973110629E+01  0.25500000000E-02 0.  1.
          1   -1    0    0  501    0  0.00000000000E+00 -0.00000000000E+00 -0.50569879270E+03  0.50569879273E+03  0.50400000000E-02 0. -1.
        -24    2    1    2    0    0  0.00000000000E+00  0.00000000000E+00 -0.50260148269E+03  0.50879610379E+03  0.79153173221E+02 0.  0.
         66    2    3    3    0    0  0.37951452526E+02  0.10740690273E+02 -0.27033988269E+03  0.27320931050E+03  0.19999981801E+01 0.  0.
         13    1    3    3    0    0 -0.37951452526E+02 -0.10740690273E+02 -0.23226160000E+03  0.23558679329E+03  0.10566000000E+00 0. -1.
         13    1    4    4    0    0  0.12070661566E+02  0.25864839670E+01 -0.85767366455E+02  0.86651272827E+02  0.10566000000E+00 0. -1.
        -13    1    4    4    0    0  0.16586926102E+02  0.48514213398E+01 -0.11786825593E+03  0.11912849922E+03  0.10566000000E+00 0.  1.
         14    1    4    4    0    0  0.92938648571E+01  0.33027849659E+01 -0.66704260311E+02  0.67429538455E+02  0.00000000000E+00 0. -1.
<mgrwt>
<rscale>  0 0.79153173E+02</rscale>
<asrwt>0</asrwt>
<pdfrwt beam="1">  1        1 0.77799749E-01 0.79153173E+02</pdfrwt>
<pdfrwt beam="2">  1       -2 0.47650971E-03 0.79153173E+02</pdfrwt>
<totfact> 0.20189240E+05</totfact>
</mgrwt>
</event>
<event>
 8    1  0.8247621E-018  0.8377911E+02  0.7818608E-02  0.1318657E+00
         -2   -1    0    0    0  501 -0.00000000000E+00  0.00000000000E+00  0.59542333991E+01  0.59542339451E+01  0.25500000000E-02 0.  1.
          1   -1    0    0  501    0  0.00000000000E+00 -0.00000000000E+00 -0.29470370377E+03  0.29470370381E+03  0.50400000000E-02 0. -1.
        -24    2    1    2    0    0  0.00000000000E+00  0.00000000000E+00 -0.28874947037E+03  0.30065793775E+03  0.83779107762E+02 0.  0.
         66    2    3    3    0    0  0.63359992788E+00  0.40588790648E+02 -0.10770487960E+03  0.11511816739E+03  0.19999998720E+01 0.  0.
         13    1    3    3    0    0 -0.63359992788E+00 -0.40588790648E+02 -0.18104459077E+03  0.18553977036E+03  0.10566000000E+00 0. -1.
         13    1    4    4    0    0  0.94569675216E+00  0.24465433824E+02 -0.62952969528E+02  0.67546571571E+02  0.10566000000E+00 0. -1.
        -13    1    4    4    0    0 -0.82472771338E-01  0.13323691202E+02 -0.36746839640E+02  0.39087964089E+02  0.10566000000E+00 0.  1.
         14    1    4    4    0    0 -0.22962405294E+00  0.27996656221E+01 -0.80050704318E+01  0.84836317352E+01  0.00000000000E+00 0. -1.
<mgrwt>
<rscale>  0 0.83779108E+02</rscale>
<asrwt>0</asrwt>
<pdfrwt beam="1">  1        1 0.45339020E-01 0.83779108E+02</pdfrwt>
<pdfrwt beam="2">  1       -2 0.91603618E-03 0.83779108E+02</pdfrwt>
<totfact> 0.15915092E+05</totfact>
</mgrwt>
</event>
<event>
 8    1  0.8247621E-018  0.8250791E+02  0.7818608E-02  0.1322081E+00
         -2   -1    0    0    0  501 -0.00000000000E+00  0.00000000000E+00  0.53130930826E+02  0.53130930887E+02  0.25500000000E-02 0.  1.
          1   -1    0    0  501    0  0.00000000000E+00 -0.00000000000E+00 -0.32031979779E+02  0.32031980176E+02  0.50400000000E-02 0. -1.
        -24    2    1    2    0    0  0.00000000000E+00  0.00000000000E+00  0.21098951047E+02  0.85162911063E+02  0.82507912866E+02 0.  0.
         66    2    3    3    0    0 -0.11292822609E+02  0.36942476161E+02  0.25427970960E+02  0.46290993631E+02  0.19999991914E+01 0.  0.
         13    1    3    3    0    0  0.11292822609E+02 -0.36942476161E+02 -0.43290199137E+01  0.38871917432E+02  0.10566000000E+00 0. -1.
         13    1    4    4    0    0 -0.70641544080E+00  0.22275563901E+01  0.16467415019E+01  0.28607607128E+01  0.10566000000E+00 0.  1.
        -13    1    4    4    0    0 -0.10265463324E+02  0.34335292647E+02  0.23546055323E+02  0.42880297850E+02  0.10566000000E+00 0.  1.
        -14    1    4    4    0    0 -0.32094384508E+00  0.37962712440E+00  0.23517413505E+00  0.54993506805E+00  0.00000000000E+00 0.  1.
<mgrwt>
<rscale>  0 0.82507913E+02</rscale>
<asrwt>0</asrwt>
<pdfrwt beam="1">  1        1 0.49279969E-02 0.82507913E+02</pdfrwt>
<pdfrwt beam="2">  1       -2 0.81739894E-02 0.82507913E+02</pdfrwt>
<totfact> 0.11197239E+05</totfact>
</mgrwt>
</event>
<event>
 8    1  0.8247621E-018  0.7967727E+02  0.7818608E-02  0.1329970E+00
         -2   -1    0    0    0  501 -0.00000000000E+00  0.00000000000E+00  0.15061413606E+02  0.15061413822E+02  0.25500000000E-02 0.  1.
          1   -1    0    0  501    0  0.00000000000E+00 -0.00000000000E+00 -0.10537636269E+03  0.10537636281E+03  0.50400000000E-02 0. -1.
        -24    2    1    2    0    0  0.71054273576E-14  0.00000000000E+00 -0.90314949084E+02  0.12043777663E+03  0.79677274127E+02 0.  0.
         66    2    3    3    0    0 -0.37653220451E+02  0.12862506411E+02 -0.43100666922E+02  0.58693070904E+02  0.20000003525E+01 0.  0.
         13    1    3    3    0    0  0.37653220451E+02 -0.12862506411E+02 -0.47214282161E+02  0.61744705729E+02  0.10566000000E+00 0. -1.
         13    1    4    4    0    0 -0.43129390777E+01  0.16570546729E+01 -0.50386801113E+01  0.68371583993E+01  0.10566000000E+00 0.  1.
        -13    1    4    4    0    0 -0.31723322318E+02  0.11040002923E+02 -0.36448241163E+02  0.49565474792E+02  0.10566000000E+00 0.  1.
         14    1    4    4    0    0 -0.16169590557E+01  0.16544881516E+00 -0.16137456482E+01  0.22904377126E+01  0.00000000000E+00 0. -1.
<mgrwt>
<rscale>  0 0.79677274E+02</rscale>
<asrwt>0</asrwt>
<pdfrwt beam="1">  1        1 0.16211748E-01 0.79677274E+02</pdfrwt>
<pdfrwt beam="2">  1       -2 0.23171406E-02 0.79677274E+02</pdfrwt>
<totfact> 0.14992496E+05</totfact>
</mgrwt>
</event>
<event>
 8    1  0.8247621E-018  0.7836098E+02  0.7818608E-02  0.1333768E+00
         -2   -1    0    0    0  501 -0.00000000000E+00  0.00000000000E+00  0.12811070987E+02  0.12811071241E+02  0.25500000000E-02 0.  1.
          1   -1    0    0  501    0  0.00000000000E+00 -0.00000000000E+00 -0.11982689461E+03  0.11982689471E+03  0.50400000000E-02 0. -1.
        -24    2    1    2    0    0  0.00000000000E+00  0.35527136788E-14 -0.10701582362E+03  0.13263796595E+03  0.78360982047E+02 0.  0.
         66    2    3    3    0    0 -0.85317691389E+01 -0.28542252303E+02 -0.10532799628E+02  0.31660560888E+02  0.19999991400E+01 0.  0.
         13    1    3    3    0    0  0.85317691389E+01  0.28542252303E+02 -0.96483023990E+02  0.10097740506E+03  0.10566000000E+00 0. -1.
         13    1    4    4    0    0 -0.49471427434E+01 -0.14013485971E+02 -0.55737411972E+01  0.15872295529E+02  0.10566000000E+00 0. -1.
        -13    1    4    4    0    0 -0.26387411757E+01 -0.91510582990E+01 -0.29659338969E+01  0.99756077960E+01  0.10566000000E+00 0.  1.
         14    1    4    4    0    0 -0.94588521980E+00 -0.53777080335E+01 -0.19931245338E+01  0.58126575634E+01  0.00000000000E+00 0. -1.
<mgrwt>
<rscale>  0 0.78360982E+02</rscale>
<asrwt>0</asrwt>
<pdfrwt beam="1">  1        1 0.18434906E-01 0.78360982E+02</pdfrwt>
<pdfrwt beam="2">  1       -2 0.19709341E-02 0.78360982E+02</pdfrwt>
<totfact> 0.16028980E+05</totfact>
</mgrwt>
</event>
<event>
 8    1  0.8247621E-018  0.7923407E+02  0.7818608E-02  0.1331239E+00
          1   -1    0    0  501    0  0.00000000000E+00  0.00000000000E+00  0.17714457406E+02  0.17714458123E+02  0.50400000000E-02 0. -1.
         -2   -1    0    0    0  501 -0.00000000000E+00 -0.00000000000E+00 -0.88600474883E+02  0.88600474920E+02  0.25500000000E-02 0.  1.
        -24    2    1    2    0    0 -0.17763568394E-14  0.00000000000E+00 -0.70886017476E+02  0.10631493304E+03  0.79234067889E+02 0.  0.
         66    2    3    3    0    0 -0.15037383953E+02 -0.90866006023E+01 -0.83071704858E+02  0.84932899285E+02  0.20000015807E+01 0.  0.
         13    1    3    3    0    0  0.15037383953E+02  0.90866006023E+01  0.12185687381E+02  0.21382033758E+02  0.10566000000E+00 0. -1.
         13    1    4    4    0    0 -0.11849261912E+01 -0.30712983784E+00 -0.45549621823E+01  0.47177561757E+01  0.10566000000E+00 0. -1.
        -13    1    4    4    0    0 -0.60593035998E+01 -0.35868618965E+01 -0.35253268708E+02  0.35949754617E+02  0.10566000000E+00 0.  1.
         14    1    4    4    0    0 -0.77931541617E+01 -0.51926088680E+01 -0.43263473967E+02  0.44265388492E+02  0.00000000000E+00 0. -1.
<mgrwt>
<rscale>  0 0.79234068E+02</rscale>
<asrwt>0</asrwt>
<pdfrwt beam="1">  1        1 0.27253012E-02 0.79234068E+02</pdfrwt>
<pdfrwt beam="2">  1       -2 0.13630842E-01 0.79234068E+02</pdfrwt>
<totfact> 0.11196041E+05</totfact>
</mgrwt>
</event>
<event>
 8    1  0.8247621E-018  0.7877334E+02  0.7818608E-02  0.1332569E+00
          1   -1    0    0  501    0  0.00000000000E+00  0.00000000000E+00  0.18208416273E+02  0.18208416971E+02  0.50400000000E-02 0. -1.
         -2   -1    0    0    0  501 -0.00000000000E+00 -0.00000000000E+00 -0.85197410959E+02  0.85197410997E+02  0.25500000000E-02 0.  1.
        -24    2    1    2    0    0  0.00000000000E+00  0.00000000000E+00 -0.66988994686E+02  0.10340582797E+03  0.78773344785E+02 0.  0.
         66    2    3    3    0    0 -0.27348386370E+02 -0.22251279151E+01 -0.70561633582E+02  0.75735259777E+02  0.20000021055E+01 0.  0.
         13    1    3    3    0    0  0.27348386370E+02  0.22251279151E+01  0.35726388966E+01  0.27670568190E+02  0.10566000000E+00 0. -1.
         13    1    4    4    0    0 -0.12334360071E+02 -0.45364809441E+00 -0.29999120374E+02  0.32439183439E+02  0.10566000000E+00 0. -1.
        -13    1    4    4    0    0 -0.12144567855E+02 -0.17278689325E+01 -0.33222376696E+02  0.35414877337E+02  0.10566000000E+00 0.  1.
        -14    1    4    4    0    0 -0.28694584431E+01 -0.43610888266E-01 -0.73401365130E+01  0.78811990011E+01  0.00000000000E+00 0.  1.
<mgrwt>
<rscale>  0 0.78773345E+02</rscale>
<asrwt>0</asrwt>
<pdfrwt beam="1">  1        1 0.28012949E-02 0.78773345E+02</pdfrwt>
<pdfrwt beam="2">  1       -2 0.13107294E-01 0.78773345E+02</pdfrwt>
<totfact> 0.11465322E+05</totfact>
</mgrwt>
</event>
<event>
 8    1  0.9341866E-018  0.7898525E+02  0.7818608E-02  0.1331956E+00
         -2   -1    0    0    0  501 -0.00000000000E+00  0.00000000000E+00  0.13685626769E+02  0.13685627007E+02  0.25500000000E-02 0.  1.
          1   -1    0    0  501    0  0.00000000000E+00 -0.00000000000E+00 -0.11396391478E+03  0.11396391489E+03  0.50400000000E-02 0. -1.
        -24    2    1    2    0    0  0.00000000000E+00  0.00000000000E+00 -0.10027828801E+03  0.12764954190E+03  0.78985254956E+02 0.  0.
         66    2    3    3    0    0 -0.22912215251E+02  0.23325254399E+02 -0.14447098528E+02  0.35801616758E+02  0.20000015362E+01 0.  0.
         13    1    3    3    0    0  0.22912215251E+02 -0.23325254399E+02 -0.85831189481E+02  0.91847925139E+02  0.10566000000E+00 0. -1.
         13    1    4    4    0    0 -0.71027965330E+00  0.10339957316E+01 -0.43359889219E+00  0.13314715144E+01  0.10566000000E+00 0.  1.
        -13    1    4    4    0    0 -0.22524349559E+01  0.17525415739E+01 -0.14429583782E+01  0.31997121926E+01  0.10566000000E+00 0.  1.
        -14    1    4    4    0    0 -0.19949500642E+02  0.20538717093E+02 -0.12570541258E+02  0.31270433051E+02  0.00000000000E+00 0.  1.
<mgrwt>
<rscale>  0 0.78985255E+02</rscale>
<asrwt>0</asrwt>
<pdfrwt beam="1">  1        1 0.17532909E-01 0.78985255E+02</pdfrwt>
<pdfrwt beam="2">  1       -2 0.21054811E-02 0.78985255E+02</pdfrwt>
<totfact> 0.15555713E+05</totfact>
</mgrwt>
</event>
<event>
 8    1  0.8247621E-018  0.8006201E+02  0.7818608E-02  0.1328876E+00
         -2   -1    0    0    0  501 -0.00000000000E+00  0.00000000000E+00  0.88965506573E+01  0.88965510228E+01  0.25500000000E-02 0.  1.
          1   -1    0    0  501    0  0.00000000000E+00 -0.00000000000E+00 -0.18012391240E+03  0.18012391247E+03  0.50400000000E-02 0. -1.
        -24    2    1    2    0    0  0.00000000000E+00 -0.35527136788E-14 -0.17122736174E+03  0.18902046349E+03  0.80062014775E+02 0.  0.
         66    2    3    3    0    0  0.28088907207E+02 -0.22615100064E+02 -0.44771313673E+02  0.57523038741E+02  0.19999997523E+01 0.  0.
         13    1    3    3    0    0 -0.28088907207E+02  0.22615100064E+02 -0.12645604807E+03  0.13149742475E+03  0.10566000000E+00 0. -1.
         13    1    4    4    0    0  0.50824317321E+01 -0.36242071116E+01 -0.75379762932E+01  0.97876575406E+01  0.10566000000E+00 0. -1.
        -13    1    4    4    0    0  0.12548567363E+02 -0.93936987776E+01 -0.19851764765E+02  0.25294502326E+02  0.10566000000E+00 0.  1.
         14    1    4    4    0    0  0.10457908113E+02 -0.95971941746E+01 -0.17381572614E+02  0.22440878874E+02  0.00000000000E+00 0. -1.
<mgrwt>
<rscale>  0 0.80062015E+02</rscale>
<asrwt>0</asrwt>
<pdfrwt beam="1">  1        1 0.27711368E-01 0.80062015E+02</pdfrwt>
<pdfrwt beam="2">  1       -2 0.13687003E-02 0.80062015E+02</pdfrwt>
<totfact> 0.16306899E+05</totfact>
</mgrwt>
</event>
<event>
 8    1  0.8247621E-018  0.7329955E+02  0.7818608E-02  0.1349219E+00
         -2   -1    0    0    0  501 -0.00000000000E+00  0.00000000000E+00  0.23720248620E+02  0.23720248757E+02  0.25500000000E-02 0.  1.
          1   -1    0    0  501    0  0.00000000000E+00 -0.00000000000E+00 -0.56626979085E+02  0.56626979309E+02  0.50400000000E-02 0. -1.
        -24    2    1    2    0    0  0.00000000000E+00  0.00000000000E+00 -0.32906730464E+02  0.80347228066E+02  0.73299550804E+02 0.  0.
         66    2    3    3    0    0 -0.41365564000E+00  0.16903266842E+02  0.19143400247E+02  0.25619549402E+02  0.19999994109E+01 0.  0.
         13    1    3    3    0    0  0.41365564000E+00 -0.16903266842E+02 -0.52050130711E+02  0.54727678664E+02  0.10566000000E+00 0. -1.
         13    1    4    4    0    0  0.20234504284E+00  0.11514235921E+02  0.12659077670E+02  0.17113795133E+02  0.10566000000E+00 0. -1.
        -13    1    4    4    0    0 -0.78120584052E+00  0.34559430495E+01  0.45287853618E+01  0.57510769266E+01  0.10566000000E+00 0.  1.
        -14    1    4    4    0    0  0.16520515768E+00  0.19330878719E+01  0.19555372143E+01  0.27546773425E+01  0.00000000000E+00 0.  1.
<mgrwt>
<rscale>  0 0.73299551E+02</rscale>
<asrwt>0</asrwt>
<pdfrwt beam="1">  1        1 0.87118430E-02 0.73299551E+02</pdfrwt>
<pdfrwt beam="2">  1       -2 0.36492690E-02 0.73299551E+02</pdfrwt>
<totfact> 0.17054049E+05</totfact>
</mgrwt>
</event>
<event>
 8    1  0.8247621E-018  0.8207355E+02  0.7818608E-02  0.1323268E+00
         -2   -1    0    0    0  501 -0.00000000000E+00  0.00000000000E+00  0.22601246928E+03  0.22601246930E+03  0.25500000000E-02 0.  1.
          1   -1    0    0  501    0  0.00000000000E+00 -0.00000000000E+00 -0.74509900916E+01  0.74509917962E+01  0.50400000000E-02 0. -1.
        -24    2    1    2    0    0  0.00000000000E+00  0.00000000000E+00  0.21856147919E+03  0.23346346109E+03  0.82073549207E+02 0.  0.
         66    2    3    3    0    0 -0.22620954359E+02  0.20343625534E+01  0.20648494424E+03  0.20773992970E+03  0.19999962573E+01 0.  0.
         13    1    3    3    0    0  0.22620954359E+02 -0.20343625534E+01  0.12076534951E+02  0.25723531398E+02  0.10566000000E+00 0. -1.
         13    1    4    4    0    0 -0.11375422354E+02  0.15307762272E+01  0.10131323594E+03  0.10196139686E+03  0.10566000000E+00 0. -1.
        -13    1    4    4    0    0 -0.46447588782E+00 -0.18441904224E+00  0.49261504783E+01  0.49525620445E+01  0.10566000000E+00 0.  1.
        -14    1    4    4    0    0 -0.10781056117E+02  0.68800536847E+00  0.10024555782E+03  0.10082597079E+03  0.00000000000E+00 0.  1.
<mgrwt>
<rscale>  0 0.82073549E+02</rscale>
<asrwt>0</asrwt>
<pdfrwt beam="1">  1        1 0.11463065E-02 0.82073549E+02</pdfrwt>
<pdfrwt beam="2">  1       -2 0.34771143E-01 0.82073549E+02</pdfrwt>
<totfact> 0.75608763E+04</totfact>
</mgrwt>
</event>
<event>
 8    1  0.8247621E-018  0.8255190E+02  0.7818608E-02  0.1321962E+00
          1   -1    0    0  501    0  0.00000000000E+00  0.00000000000E+00  0.11886520058E+03  0.11886520069E+03  0.50400000000E-02 0. -1.
         -2   -1    0    0    0  501 -0.00000000000E+00 -0.00000000000E+00 -0.14333075130E+02  0.14333075357E+02  0.25500000000E-02 0.  1.
        -24    2    1    2    0    0  0.71054273576E-14  0.35527136788E-14  0.10453212545E+03  0.13319827605E+03  0.82551895738E+02 0.  0.
         66    2    3    3    0    0 -0.35718849414E+02 -0.20589337186E+02  0.50048214378E+02  0.64873575247E+02  0.19999984420E+01 0.  0.
         13    1    3    3    0    0  0.35718849414E+02  0.20589337186E+02  0.54483911075E+02  0.68324700799E+02  0.10566000000E+00 0. -1.
         13    1    4    4    0    0 -0.23110430355E+02 -0.14178538489E+02  0.31986521039E+02  0.41931749750E+02  0.10566000000E+00 0. -1.
        -13    1    4    4    0    0 -0.75188146821E+01 -0.38841145651E+01  0.10831527687E+02  0.13745984005E+02  0.10566000000E+00 0.  1.
         14    1    4    4    0    0 -0.50896043763E+01 -0.25266841320E+01  0.72301656510E+01  0.91958414923E+01  0.00000000000E+00 0. -1.
<mgrwt>
<rscale>  0 0.82551896E+02</rscale>
<asrwt>0</asrwt>
<pdfrwt beam="1">  1        1 0.18286954E-01 0.82551896E+02</pdfrwt>
<pdfrwt beam="2">  1       -2 0.22050885E-02 0.82551896E+02</pdfrwt>
<totfact> 0.13913041E+05</totfact>
</mgrwt>
</event>
<event>
 8    1  0.8247621E-018  0.8020312E+02  0.7818608E-02  0.1328476E+00
         -2   -1    0    0    0  501 -0.00000000000E+00  0.00000000000E+00  0.19878398431E+03  0.19878398433E+03  0.25500000000E-02 0.  1.
          1   -1    0    0  501    0  0.00000000000E+00 -0.00000000000E+00 -0.80898625588E+01  0.80898641287E+01  0.50400000000E-02 0. -1.
        -24    2    1    2    0    0  0.00000000000E+00  0.00000000000E+00  0.19069412175E+03  0.20687384846E+03  0.80203124030E+02 0.  0.
         66    2    3    3    0    0 -0.30130227567E+02  0.14918401565E+02  0.15166616874E+03  0.15536092193E+03  0.20000013540E+01 0.  0.
         13    1    3    3    0    0  0.30130227567E+02 -0.14918401565E+02  0.39027953012E+02  0.51512926521E+02  0.10566000000E+00 0. -1.
         13    1    4    4    0    0 -0.37952152639E+00  0.12607145605E+00  0.16708303115E+01  0.17212694637E+01  0.10566000000E+00 0.  1.
        -13    1    4    4    0    0 -0.26234558819E+02  0.13064794235E+02  0.13458371557E+03  0.13773789815E+03  0.10566000000E+00 0.  1.
        -14    1    4    4    0    0 -0.35161472210E+01  0.17275358747E+01  0.15411622853E+02  0.15901754320E+02  0.00000000000E+00 0.  1.
<mgrwt>
<rscale>  0 0.80203124E+02</rscale>
<asrwt>0</asrwt>
<pdfrwt beam="1">  1        1 0.12445944E-02 0.80203124E+02</pdfrwt>
<pdfrwt beam="2">  1       -2 0.30582149E-01 0.80203124E+02</pdfrwt>
<totfact> 0.84730303E+04</totfact>
</mgrwt>
</event>
<event>
 8    1  0.8247621E-018  0.8357575E+02  0.7818608E-02  0.1319200E+00
         -2   -1    0    0    0  501 -0.00000000000E+00  0.00000000000E+00  0.14807107965E+03  0.14807107967E+03  0.25500000000E-02 0.  1.
          1   -1    0    0  501    0  0.00000000000E+00 -0.00000000000E+00 -0.11793163024E+02  0.11793164101E+02  0.50400000000E-02 0. -1.
        -24    2    1    2    0    0  0.35527136788E-14  0.00000000000E+00  0.13627791662E+03  0.15986424377E+03  0.83575749334E+02 0.  0.
         66    2    3    3    0    0 -0.28096502247E+02 -0.11989888068E+02  0.12265259345E+03  0.12641530582E+03  0.20000025724E+01 0.  0.
         13    1    3    3    0    0  0.28096502247E+02  0.11989888068E+02  0.13625323168E+02  0.33448937948E+02  0.10566000000E+00 0. -1.
         13    1    4    4    0    0 -0.13664695948E+02 -0.48531400224E+01  0.59442735576E+02  0.61186002159E+02  0.10566000000E+00 0. -1.
        -13    1    4    4    0    0 -0.13326834581E+02 -0.64744758106E+01  0.58243951770E+02  0.60099021946E+02  0.10566000000E+00 0.  1.
         14    1    4    4    0    0 -0.11049717172E+01 -0.66227223512E+00  0.49659061070E+01  0.51302817148E+01  0.00000000000E+00 0. -1.
<mgrwt>
<rscale>  0 0.83575749E+02</rscale>
<asrwt>0</asrwt>
<pdfrwt beam="1">  1        1 0.18143329E-02 0.83575749E+02</pdfrwt>
<pdfrwt beam="2">  1       -2 0.22780166E-01 0.83575749E+02</pdfrwt>
<totfact> 0.84799897E+04</totfact>
</mgrwt>
</event>
<event>
 8    1  0.8247621E-018  0.7718569E+02  0.7818608E-02  0.1337233E+00
         -2   -1    0    0    0  501 -0.00000000000E+00  0.00000000000E+00  0.13898193768E+02  0.13898194002E+02  0.25500000000E-02 0.  1.
          1   -1    0    0  501    0  0.00000000000E+00 -0.00000000000E+00 -0.10716556699E+03  0.10716556711E+03  0.50400000000E-02 0. -1.
        -24    2    1    2    0    0  0.44408920985E-15  0.71054273576E-14 -0.93267373220E+02  0.12106376111E+03  0.77185693923E+02 0.  0.
         66    2    3    3    0    0 -0.36348537327E+01 -0.36864843834E+02 -0.63497643718E+02  0.73540326561E+02  0.20000001155E+01 0.  0.
         13    1    3    3    0    0  0.36348537327E+01  0.36864843834E+02 -0.29769729502E+02  0.47523434547E+02  0.10566000000E+00 0. -1.
         13    1    4    4    0    0 -0.23721681344E+01 -0.27152725836E+02 -0.47764694597E+02  0.54994317124E+02  0.10566000000E+00 0.  1.
        -13    1    4    4    0    0 -0.97417740149E-01 -0.28203914188E+00 -0.56616449642E+00  0.64864671914E+00  0.10566000000E+00 0. -1.
        -14    1    4    4    0    0 -0.11652678582E+01 -0.94300788553E+01 -0.15166784625E+02  0.17897362718E+02  0.00000000000E+00 0.  1.
<mgrwt>
<rscale>  0 0.77185694E+02</rscale>
<asrwt>0</asrwt>
<pdfrwt beam="1">  1        1 0.16487010E-01 0.77185694E+02</pdfrwt>
<pdfrwt beam="2">  1       -2 0.21381837E-02 0.77185694E+02</pdfrwt>
<totfact> 0.16376928E+05</totfact>
</mgrwt>
</event>
<event>
 8    1  0.8247621E-018  0.7830302E+02  0.7818608E-02  0.1333937E+00
         -2   -1    0    0    0  501 -0.00000000000E+00  0.00000000000E+00  0.11607412612E+03  0.11607412615E+03  0.25500000000E-02 0.  1.
          1   -1    0    0  501    0  0.00000000000E+00 -0.00000000000E+00 -0.13205704085E+02  0.13205705047E+02  0.50400000000E-02 0. -1.
        -24    2    1    2    0    0  0.00000000000E+00  0.00000000000E+00  0.10286842203E+03  0.12927983119E+03  0.78303017195E+02 0.  0.
         66    2    3    3    0    0 -0.12953100798E+02  0.25321028404E+02  0.95827547542E+02  0.99979278684E+02  0.19999996269E+01 0.  0.
         13    1    3    3    0    0  0.12953100798E+02 -0.25321028404E+02  0.70408744912E+01  0.29300552510E+02  0.10566000000E+00 0. -1.
         13    1    4    4    0    0 -0.44605959070E+01  0.10009218801E+02  0.39585370343E+02  0.41074250889E+02  0.10566000000E+00 0. -1.
        -13    1    4    4    0    0 -0.26545367604E+01  0.48172186657E+01  0.17818495093E+02  0.18648380426E+02  0.10566000000E+00 0.  1.
         14    1    4    4    0    0 -0.58379681308E+01  0.10494590938E+02  0.38423682107E+02  0.40256647370E+02  0.00000000000E+00 0. -1.
<mgrwt>
<rscale>  0 0.78303017E+02</rscale>
<asrwt>0</asrwt>
<pdfrwt beam="1">  1        1 0.20316469E-02 0.78303017E+02</pdfrwt>
<pdfrwt beam="2">  1       -2 0.17857557E-01 0.78303017E+02</pdfrwt>
<totfact> 0.10785148E+05</totfact>
</mgrwt>
</event>
<event>
 8    1  0.8247621E-018  0.8017119E+02  0.7818608E-02  0.1328566E+00
          1   -1    0    0  501    0  0.00000000000E+00  0.00000000000E+00  0.20105587203E+02  0.20105587835E+02  0.50400000000E-02 0. -1.
         -2   -1    0    0    0  501 -0.00000000000E+00 -0.00000000000E+00 -0.79920816796E+02  0.79920816836E+02  0.25500000000E-02 0.  1.
        -24    2    1    2    0    0  0.88817841970E-15  0.00000000000E+00 -0.59815229593E+02  0.10002640467E+03  0.80171191461E+02 0.  0.
         66    2    3    3    0    0 -0.72577249413E+01  0.39211192974E+02 -0.25149446106E+02  0.47187783053E+02  0.20000010675E+01 0.  0.
         13    1    3    3    0    0  0.72577249413E+01 -0.39211192974E+02 -0.34665783487E+02  0.52838621618E+02  0.10566000000E+00 0. -1.
         13    1    4    4    0    0 -0.10493097932E+01  0.67207633327E+01 -0.47741647483E+01  0.83110483031E+01  0.10566000000E+00 0. -1.
        -13    1    4    4    0    0 -0.39429415148E+01  0.19649699631E+02 -0.13134372996E+02  0.23962061711E+02  0.10566000000E+00 0.  1.
         14    1    4    4    0    0 -0.22654736333E+01  0.12840730010E+02 -0.72409083612E+01  0.14914673039E+02  0.00000000000E+00 0. -1.
<mgrwt>
<rscale>  0 0.80171191E+02</rscale>
<asrwt>0</asrwt>
<pdfrwt beam="1">  1        1 0.30931674E-02 0.80171191E+02</pdfrwt>
<pdfrwt beam="2">  1       -2 0.12295510E-01 0.80171191E+02</pdfrwt>
<totfact> 0.11117676E+05</totfact>
</mgrwt>
</event>
<event>
 8    1  0.8247621E-018  0.8258213E+02  0.7818608E-02  0.1321879E+00
         -2   -1    0    0    0  501 -0.00000000000E+00  0.00000000000E+00  0.23449759820E+02  0.23449759959E+02  0.25500000000E-02 0.  1.
          1   -1    0    0  501    0  0.00000000000E+00 -0.00000000000E+00 -0.72706588090E+02  0.72706588265E+02  0.50400000000E-02 0. -1.
        -24    2    1    2    0    0  0.00000000000E+00  0.35527136788E-14 -0.49256828270E+02  0.96156348224E+02  0.82582129862E+02 0.  0.
         66    2    3    3    0    0  0.31441007256E+02  0.18425452305E+02 -0.20974660137E+01  0.36557263982E+02  0.19999890659E+01 0.  0.
         13    1    3    3    0    0 -0.31441007256E+02 -0.18425452305E+02 -0.47159362257E+02  0.59599084242E+02  0.10566000000E+00 0. -1.
         13    1    4    4    0    0  0.15998865267E+01  0.84597706018E+00 -0.36333413403E+00  0.18489158481E+01  0.10566000000E+00 0. -1.
        -13    1    4    4    0    0  0.21384179989E+02  0.11910587212E+02 -0.15226862397E+01  0.24524986829E+02  0.10566000000E+00 0.  1.
         14    1    4    4    0    0  0.84569407409E+01  0.56688880327E+01 -0.21144564001E+00  0.10183361306E+02  0.00000000000E+00 0. -1.
<mgrwt>
<rscale>  0 0.82582130E+02</rscale>
<asrwt>0</asrwt>
<pdfrwt beam="1">  1        1 0.11185629E-01 0.82582130E+02</pdfrwt>
<pdfrwt beam="2">  1       -2 0.36076554E-02 0.82582130E+02</pdfrwt>
<totfact> 0.12790964E+05</totfact>
</mgrwt>
</event>
<event>
 8    1  0.8247621E-018  0.7972155E+02  0.7818608E-02  0.1329844E+00
         -2   -1    0    0    0  501 -0.00000000000E+00  0.00000000000E+00  0.63796738327E+01  0.63796743424E+01  0.25500000000E-02 0.  1.
          1   -1    0    0  501    0  0.00000000000E+00 -0.00000000000E+00 -0.24905367256E+03  0.24905367261E+03  0.50400000000E-02 0. -1.
        -24    2    1    2    0    0 -0.71054273576E-14  0.00000000000E+00 -0.24267399873E+03  0.25543334695E+03  0.79721547135E+02 0.  0.
         66    2    3    3    0    0 -0.38807502624E+02  0.87427976884E+01 -0.12814741275E+03  0.13419470282E+03  0.20000248716E+01 0.  0.
         13    1    3    3    0    0  0.38807502624E+02 -0.87427976884E+01 -0.11452658598E+03  0.12123864413E+03  0.10566000000E+00 0. -1.
         13    1    4    4    0    0 -0.77695287419E+01  0.20493566183E+01 -0.23637085239E+02  0.24965744572E+02  0.10566000000E+00 0. -1.
        -13    1    4    4    0    0 -0.12223046414E+02  0.25995271833E+01 -0.40121530435E+02  0.42022717353E+02  0.10566000000E+00 0.  1.
        -14    1    4    4    0    0 -0.18814927468E+02  0.40939138868E+01 -0.64388797078E+02  0.67206240898E+02  0.00000000000E+00 0.  1.
<mgrwt>
<rscale>  0 0.79721547E+02</rscale>
<asrwt>0</asrwt>
<pdfrwt beam="1">  1        1 0.38315942E-01 0.79721547E+02</pdfrwt>
<pdfrwt beam="2">  1       -2 0.98148851E-03 0.79721547E+02</pdfrwt>
<totfact> 0.17563583E+05</totfact>
</mgrwt>
</event>
<event>
 8    1  0.8247621E-018  0.7798398E+02  0.7818608E-02  0.1334872E+00
         -2   -1    0    0    0  501 -0.00000000000E+00  0.00000000000E+00  0.24216561828E+02  0.24216561963E+02  0.25500000000E-02 0.  1.
          1   -1    0    0  501    0  0.00000000000E+00 -0.00000000000E+00 -0.62782453484E+02  0.62782453686E+02  0.50400000000E-02 0. -1.
        -24    2    1    2    0    0  0.00000000000E+00 -0.17763568394E-14 -0.38565891655E+02  0.86999015649E+02  0.77983977359E+02 0.  0.
         66    2    3    3    0    0  0.33431779273E+02  0.12833211641E+02 -0.21575823927E+01  0.35930910791E+02  0.20000005252E+01 0.  0.
         13    1    3    3    0    0 -0.33431779273E+02 -0.12833211641E+02 -0.36408309263E+02  0.51068104858E+02  0.10566000000E+00 0. -1.
         13    1    4    4    0    0  0.14654200764E+02  0.46391433397E+01 -0.76252724053E+00  0.15390252200E+02  0.10566000000E+00 0. -1.
        -13    1    4    4    0    0  0.12782336849E+01  0.62083677322E+00 -0.61195904776E-01  0.14262638699E+01  0.10566000000E+00 0.  1.
         14    1    4    4    0    0  0.17499344824E+02  0.75732315282E+01 -0.13338592474E+01  0.19114394721E+02  0.00000000000E+00 0. -1.
<mgrwt>
<rscale>  0 0.77983977E+02</rscale>
<asrwt>0</asrwt>
<pdfrwt beam="1">  1        1 0.96588390E-02 0.77983977E+02</pdfrwt>
<pdfrwt beam="2">  1       -2 0.37256249E-02 0.77983977E+02</pdfrwt>
<totfact> 0.14624627E+05</totfact>
</mgrwt>
</event>
<event>
 8    1  0.8247621E-018  0.8068025E+02  0.7818608E-02  0.1327132E+00
          1   -1    0    0  501    0  0.00000000000E+00  0.00000000000E+00  0.20129773891E+02  0.20129774522E+02  0.50400000000E-02 0. -1.
         -2   -1    0    0    0  501 -0.00000000000E+00 -0.00000000000E+00 -0.80841726090E+02  0.80841726130E+02  0.25500000000E-02 0.  1.
        -24    2    1    2    0    0  0.88817841970E-15  0.35527136788E-14 -0.60711952199E+02  0.10097150065E+03  0.80680250398E+02 0.  0.
         66    2    3    3    0    0 -0.68808072239E+01 -0.28872448693E+02 -0.64519190657E+02  0.71047095390E+02  0.19999997143E+01 0.  0.
         13    1    3    3    0    0  0.68808072239E+01  0.28872448693E+02  0.38072384580E+01  0.29924405262E+02  0.10566000000E+00 0. -1.
         13    1    4    4    0    0 -0.35338270791E+01 -0.11729383005E+02 -0.27413561589E+02  0.30026336482E+02  0.10566000000E+00 0. -1.
        -13    1    4    4    0    0 -0.12938853520E+01 -0.88942983642E+01 -0.18948843128E+02  0.20972660838E+02  0.10566000000E+00 0.  1.
         14    1    4    4    0    0 -0.20530947928E+01 -0.82487673230E+01 -0.18156785940E+02  0.20048098070E+02  0.00000000000E+00 0. -1.
<mgrwt>
<rscale>  0 0.80680250E+02</rscale>
<asrwt>0</asrwt>
<pdfrwt beam="1">  1        1 0.30968884E-02 0.80680250E+02</pdfrwt>
<pdfrwt beam="2">  1       -2 0.12437188E-01 0.80680250E+02</pdfrwt>
<totfact> 0.10912587E+05</totfact>
</mgrwt>
</event>
<event>
 8    1  0.8247621E-018  0.7879805E+02  0.7818608E-02  0.1332497E+00
         -2   -1    0    0    0  501 -0.00000000000E+00  0.00000000000E+00  0.82354777728E+01  0.82354781676E+01  0.25500000000E-02 0.  1.
          1   -1    0    0  501    0  0.00000000000E+00 -0.00000000000E+00 -0.18848729748E+03  0.18848729755E+03  0.50400000000E-02 0. -1.
        -24    2    1    2    0    0 -0.71054273576E-14 -0.17763568394E-14 -0.18025181971E+03  0.19672277572E+03  0.78798045517E+02 0.  0.
         66    2    3    3    0    0  0.38114178633E+02  0.93360640559E+01 -0.82122887151E+02  0.91038570303E+02  0.19999959669E+01 0.  0.
         13    1    3    3    0    0 -0.38114178633E+02 -0.93360640559E+01 -0.98128932559E+02  0.10568420541E+03  0.10566000000E+00 0. -1.
         13    1    4    4    0    0  0.47270339697E+01  0.80114893333E+00 -0.11040056906E+02  0.12036640324E+02  0.10566000000E+00 0. -1.
        -13    1    4    4    0    0  0.23431989056E+02  0.59456087205E+01 -0.50883830494E+02  0.56334569706E+02  0.10566000000E+00 0.  1.
        -14    1    4    4    0    0  0.99551556070E+01  0.25893064021E+01 -0.20198999751E+02  0.22667360273E+02  0.00000000000E+00 0.  1.
<mgrwt>
<rscale>  0 0.78798046E+02</rscale>
<asrwt>0</asrwt>
<pdfrwt beam="1">  1        1 0.28998043E-01 0.78798046E+02</pdfrwt>
<pdfrwt beam="2">  1       -2 0.12669967E-02 0.78798046E+02</pdfrwt>
<totfact> 0.17160013E+05</totfact>
</mgrwt>
</event>
<event>
 8    1  0.8247621E-018  0.8271751E+02  0.7818608E-02  0.1321512E+00
          1   -1    0    0  501    0  0.00000000000E+00  0.00000000000E+00  0.44236887381E+01  0.44236916092E+01  0.50400000000E-02 0. -1.
         -2   -1    0    0    0  501 -0.00000000000E+00 -0.00000000000E+00 -0.38667863732E+03  0.38667863733E+03  0.25500000000E-02 0.  1.
        -24    2    1    2    0    0  0.00000000000E+00 -0.88817841970E-15 -0.38225494859E+03  0.39110232894E+03  0.82717507126E+02 0.  0.
         66    2    3    3    0    0  0.26699986115E+02  0.76803181685E+01 -0.33594441738E+03  0.33709720872E+03  0.20000027936E+01 0.  0.
         13    1    3    3    0    0 -0.26699986115E+02 -0.76803181685E+01 -0.46310531205E+02  0.54005120222E+02  0.10566000000E+00 0. -1.
         13    1    4    4    0    0  0.17922276076E+01  0.66482573001E+00 -0.19813397415E+02  0.19905676432E+02  0.10566000000E+00 0. -1.
        -13    1    4    4    0    0  0.13178413054E+02  0.36598910007E+01 -0.17570855406E+03  0.17624009903E+03  0.10566000000E+00 0.  1.
        -14    1    4    4    0    0  0.11729345453E+02  0.33556014378E+01 -0.14042246591E+03  0.14095143326E+03  0.00000000000E+00 0.  1.
<mgrwt>
<rscale>  0 0.82717507E+02</rscale>
<asrwt>0</asrwt>
<pdfrwt beam="1">  1        1 0.68056803E-03 0.82717507E+02</pdfrwt>
<pdfrwt beam="2">  1       -2 0.59488994E-01 0.82717507E+02</pdfrwt>
<totfact> 0.55416773E+04</totfact>
</mgrwt>
</event>
<event>
 8    1  0.1036462E-017  0.8088042E+02  0.7818608E-02  0.1326571E+00
          1   -1    0    0  501    0  0.00000000000E+00  0.00000000000E+00  0.13238418748E+03  0.13238418758E+03  0.50400000000E-02 0. -1.
         -2   -1    0    0    0  501 -0.00000000000E+00 -0.00000000000E+00 -0.12353519284E+02  0.12353519548E+02  0.25500000000E-02 0.  1.
        -24    2    1    2    0    0 -0.44408920985E-15  0.35527136788E-14  0.12003066820E+03  0.14473770713E+03  0.80880421340E+02 0.  0.
         66    2    3    3    0    0 -0.23629300529E+01  0.22428568622E+02  0.35193133144E-01  0.22641231628E+02  0.20000005617E+01 0.  0.
         13    1    3    3    0    0  0.23629300529E+01 -0.22428568622E+02  0.11999547507E+03  0.12209647550E+03  0.10566000000E+00 0. -1.
         13    1    4    4    0    0  0.50774261586E-01  0.10673588394E+00 -0.40945580524E-01  0.16374110884E+00  0.10566000000E+00 0. -1.
        -13    1    4    4    0    0 -0.73366887583E+00  0.10978934966E+02 -0.23892393590E+00  0.11006522234E+02  0.10566000000E+00 0.  1.
        -14    1    4    4    0    0 -0.16800354386E+01  0.11342897772E+02  0.31506264956E+00  0.11470968286E+02  0.00000000000E+00 0.  1.
<mgrwt>
<rscale>  0 0.80880421E+02</rscale>
<asrwt>0</asrwt>
<pdfrwt beam="1">  1        1 0.20366798E-01 0.80880421E+02</pdfrwt>
<pdfrwt beam="2">  1       -2 0.19005415E-02 0.80880421E+02</pdfrwt>
<totfact> 0.14986788E+05</totfact>
</mgrwt>
</event>
<event>
 8    1  0.8247621E-018  0.7914296E+02  0.7818608E-02  0.1331501E+00
          1   -1    0    0  501    0  0.00000000000E+00  0.00000000000E+00  0.10700667560E+03  0.10700667572E+03  0.50400000000E-02 0. -1.
         -2   -1    0    0    0  501 -0.00000000000E+00 -0.00000000000E+00 -0.14633686426E+02  0.14633686648E+02  0.25500000000E-02 0.  1.
        -24    2    1    2    0    0 -0.17763568394E-14  0.00000000000E+00  0.92372989177E+02  0.12164036237E+03  0.79142963224E+02 0.  0.
         66    2    3    3    0    0 -0.15928488117E+02  0.21952236467E+02  0.19821392041E+01  0.27268044699E+02  0.19999915709E+01 0.  0.
         13    1    3    3    0    0  0.15928488117E+02 -0.21952236467E+02  0.90390849973E+02  0.94372317670E+02  0.10566000000E+00 0. -1.
         13    1    4    4    0    0 -0.60269396857E+01  0.70973408170E+01  0.20455008834E+00  0.93139279266E+01  0.10566000000E+00 0. -1.
        -13    1    4    4    0    0 -0.16227133984E+01  0.25280661510E+01  0.53683409312E+00  0.30534688661E+01  0.10566000000E+00 0.  1.
        -14    1    4    4    0    0 -0.82788350328E+01  0.12326829499E+02  0.12407550226E+01  0.14900647906E+02  0.00000000000E+00 0.  1.
<mgrwt>
<rscale>  0 0.79142963E+02</rscale>
<asrwt>0</asrwt>
<pdfrwt beam="1">  1        1 0.16462565E-01 0.79142963E+02</pdfrwt>
<pdfrwt beam="2">  1       -2 0.22513365E-02 0.79142963E+02</pdfrwt>
<totfact> 0.15306695E+05</totfact>
</mgrwt>
</event>
<event>
 8    1  0.8251530E-018  0.8014033E+02  0.7818608E-02  0.1328654E+00
          1   -1    0    0  501    0  0.00000000000E+00  0.00000000000E+00  0.95533547290E+01  0.95533560585E+01  0.50400000000E-02 0. -1.
         -2   -1    0    0    0  501 -0.00000000000E+00 -0.00000000000E+00 -0.16806850956E+03  0.16806850958E+03  0.25500000000E-02 0.  1.
        -24    2    1    2    0    0  0.00000000000E+00  0.00000000000E+00 -0.15851515483E+03  0.17762186564E+03  0.80140332178E+02 0.  0.
         66    2    3    3    0    0  0.23310809580E+02  0.54761861748E+01 -0.15044658784E+03  0.15235339921E+03  0.20000001195E+01 0.  0.
         13    1    3    3    0    0 -0.23310809580E+02 -0.54761861748E+01 -0.80685669936E+01  0.25268466428E+02  0.10566000000E+00 0. -1.
         13    1    4    4    0    0  0.74991621029E-01  0.30920321328E-01 -0.83175136274E+00  0.84235038702E+00  0.10566000000E+00 0.  1.
        -13    1    4    4    0    0  0.15197324538E+02  0.41419623247E+01 -0.98843879110E+02  0.10009114909E+03  0.10566000000E+00 0.  1.
        -14    1    4    4    0    0  0.80384934207E+01  0.13033035287E+01 -0.50770957367E+02  0.51419899733E+02  0.00000000000E+00 0.  1.
<mgrwt>
<rscale>  0 0.80140332E+02</rscale>
<asrwt>0</asrwt>
<pdfrwt beam="1">  1        1 0.14697471E-02 0.80140332E+02</pdfrwt>
<pdfrwt beam="2">  1       -2 0.25856692E-01 0.80140332E+02</pdfrwt>
<totfact> 0.90491871E+04</totfact>
</mgrwt>
</event>
<event>
 8    1  0.8247621E-018  0.7858936E+02  0.7818608E-02  0.1333103E+00
         -2   -1    0    0    0  501 -0.00000000000E+00  0.00000000000E+00  0.13214742976E+03  0.13214742978E+03  0.25500000000E-02 0.  1.
          1   -1    0    0  501    0  0.00000000000E+00 -0.00000000000E+00 -0.11684464100E+02  0.11684465187E+02  0.50400000000E-02 0. -1.
        -24    2    1    2    0    0  0.00000000000E+00  0.00000000000E+00  0.12046296566E+03  0.14383189497E+03  0.78589362610E+02 0.  0.
         66    2    3    3    0    0 -0.42255000372E+01 -0.35412454317E+02  0.90352625143E+02  0.97157056553E+02  0.19999990746E+01 0.  0.
         13    1    3    3    0    0  0.42255000372E+01  0.35412454317E+02  0.30110340514E+02  0.46674838417E+02  0.10566000000E+00 0. -1.
         13    1    4    4    0    0 -0.92545658331E+00 -0.50932603814E+01  0.14652626378E+02  0.15540540371E+02  0.10566000000E+00 0.  1.
        -13    1    4    4    0    0 -0.19684742373E+01 -0.14887697451E+02  0.37729577974E+02  0.40608504581E+02  0.10566000000E+00 0.  1.
        -14    1    4    4    0    0 -0.13315692166E+01 -0.15431496485E+02  0.37970420792E+02  0.41008011601E+02  0.00000000000E+00 0.  1.
<mgrwt>
<rscale>  0 0.78589363E+02</rscale>
<asrwt>0</asrwt>
<pdfrwt beam="1">  1        1 0.17976098E-02 0.78589363E+02</pdfrwt>
<pdfrwt beam="2">  1       -2 0.20330375E-01 0.78589363E+02</pdfrwt>
<totfact> 0.10294949E+05</totfact>
</mgrwt>
</event>
<event>
 8    1  0.8247621E-018  0.7568515E+02  0.7818608E-02  0.1341762E+00
         -2   -1    0    0    0  501 -0.00000000000E+00  0.00000000000E+00  0.29289376077E+02  0.29289376188E+02  0.25500000000E-02 0.  1.
          1   -1    0    0  501    0  0.00000000000E+00 -0.00000000000E+00 -0.48893511343E+02  0.48893511602E+02  0.50400000000E-02 0. -1.
        -24    2    1    2    0    0  0.00000000000E+00 -0.88817841970E-15 -0.19604135266E+02  0.78182887790E+02  0.75685149294E+02 0.  0.
         66    2    3    3    0    0  0.37068049039E+02  0.44967026140E+01 -0.15989229044E+02  0.40668366536E+02  0.19999993366E+01 0.  0.
         13    1    3    3    0    0 -0.37068049039E+02 -0.44967026140E+01 -0.36149062222E+01  0.37514521254E+02  0.10566000000E+00 0. -1.
         13    1    4    4    0    0  0.35098145102E+01  0.39967471901E+00 -0.10924580314E+01  0.36990764203E+01  0.10566000000E+00 0. -1.
        -13    1    4    4    0    0  0.13986084499E+02  0.10682317286E+01 -0.59433246584E+01  0.15234367419E+02  0.10566000000E+00 0.  1.
        -14    1    4    4    0    0  0.19572150029E+02  0.30287961664E+01 -0.89534463538E+01  0.21734922696E+02  0.00000000000E+00 0.  1.
<mgrwt>
<rscale>  0 0.75685149E+02</rscale>
<asrwt>0</asrwt>
<pdfrwt beam="1">  1        1 0.75220787E-02 0.75685149E+02</pdfrwt>
<pdfrwt beam="2">  1       -2 0.45060579E-02 0.75685149E+02</pdfrwt>
<totfact> 0.15288775E+05</totfact>
</mgrwt>
</event>
<event>
 8    1  0.8247621E-018  0.7735098E+02  0.7818608E-02  0.1336742E+00
          1   -1    0    0  501    0  0.00000000000E+00  0.00000000000E+00  0.87377252123E+01  0.87377266659E+01  0.50400000000E-02 0. -1.
         -2   -1    0    0    0  501 -0.00000000000E+00 -0.00000000000E+00 -0.17118795981E+03  0.17118795983E+03  0.25500000000E-02 0.  1.
        -24    2    1    2    0    0  0.35527136788E-14  0.00000000000E+00 -0.16245023460E+03  0.17992568649E+03  0.77350978919E+02 0.  0.
         66    2    3    3    0    0 -0.18231311988E+02 -0.18744254053E+02 -0.14748356147E+03  0.14979695825E+03  0.20000004654E+01 0.  0.
         13    1    3    3    0    0  0.18231311988E+02  0.18744254053E+02 -0.14966673129E+02  0.30128728241E+02  0.10566000000E+00 0. -1.
         13    1    4    4    0    0 -0.27150401443E+01 -0.28592677317E+01 -0.25495621345E+02  0.25798928791E+02  0.10566000000E+00 0. -1.
        -13    1    4    4    0    0 -0.32456623453E+01 -0.26973392574E+01 -0.22614301562E+02  0.23004950821E+02  0.10566000000E+00 0.  1.
         14    1    4    4    0    0 -0.12270609499E+02 -0.13187647064E+02 -0.99373638559E+02  0.10099307864E+03  0.00000000000E+00 0. -1.
<mgrwt>
<rscale>  0 0.77350979E+02</rscale>
<asrwt>0</asrwt>
<pdfrwt beam="1">  1        1 0.13442657E-02 0.77350979E+02</pdfrwt>
<pdfrwt beam="2">  1       -2 0.26336607E-01 0.77350979E+02</pdfrwt>
<totfact> 0.98480312E+04</totfact>
</mgrwt>
</event>
<event>
 8    1  0.8247621E-018  0.8082430E+02  0.7818608E-02  0.1326728E+00
         -2   -1    0    0    0  501 -0.00000000000E+00  0.00000000000E+00  0.19893321651E+02  0.19893321814E+02  0.25500000000E-02 0.  1.
          1   -1    0    0  501    0  0.00000000000E+00 -0.00000000000E+00 -0.82094971615E+02  0.82094971770E+02  0.50400000000E-02 0. -1.
        -24    2    1    2    0    0  0.00000000000E+00  0.00000000000E+00 -0.62201649964E+02  0.10198829358E+03  0.80824295666E+02 0.  0.
         66    2    3    3    0    0  0.54560032413E+01  0.34598703516E+02 -0.57475383920E+01  0.35550983781E+02  0.19999984787E+01 0.  0.
         13    1    3    3    0    0 -0.54560032413E+01 -0.34598703516E+02 -0.56454111572E+02  0.66437309802E+02  0.10566000000E+00 0. -1.
         13    1    4    4    0    0  0.17999545019E+00  0.18087624688E+01 -0.70033931927E+00  0.19508098904E+01  0.10566000000E+00 0. -1.
        -13    1    4    4    0    0  0.13281016336E+01  0.10102130194E+02 -0.14558722983E+01  0.10293085863E+02  0.10566000000E+00 0.  1.
         14    1    4    4    0    0  0.39479061575E+01  0.22687810853E+02 -0.35913267745E+01  0.23307088028E+02  0.00000000000E+00 0. -1.
<mgrwt>
<rscale>  0 0.80824296E+02</rscale>
<asrwt>0</asrwt>
<pdfrwt beam="1">  1        1 0.12629995E-01 0.80824296E+02</pdfrwt>
<pdfrwt beam="2">  1       -2 0.30605111E-02 0.80824296E+02</pdfrwt>
<totfact> 0.13836952E+05</totfact>
</mgrwt>
</event>
<event>
 8    1  0.8247621E-018  0.8047928E+02  0.7818608E-02  0.1327697E+00
         -2   -1    0    0    0  501 -0.00000000000E+00  0.00000000000E+00  0.27179605658E+02  0.27179605778E+02  0.25500000000E-02 0.  1.
          1   -1    0    0  501    0  0.00000000000E+00 -0.00000000000E+00 -0.59575139271E+02  0.59575139484E+02  0.50400000000E-02 0. -1.
        -24    2    1    2    0    0  0.00000000000E+00 -0.17763568394E-14 -0.32395533612E+02  0.86754745262E+02  0.80479284462E+02 0.  0.
         66    2    3    3    0    0 -0.76875184638E+01 -0.14832418762E+02  0.23225048797E+02  0.28679286262E+02  0.19999956079E+01 0.  0.
         13    1    3    3    0    0  0.76875184638E+01  0.14832418762E+02 -0.55620582409E+02  0.58075459000E+02  0.10566000000E+00 0. -1.
         13    1    4    4    0    0 -0.20878732067E+01 -0.33908085578E+01  0.42884435382E+01  0.58530939869E+01  0.10566000000E+00 0. -1.
        -13    1    4    4    0    0 -0.51816731167E+01 -0.10354139340E+02  0.17299427961E+02  0.20816803538E+02  0.10566000000E+00 0.  1.
         14    1    4    4    0    0 -0.41797214036E+00 -0.10874708644E+01  0.16371772981E+01  0.20093887370E+01  0.00000000000E+00 0. -1.
<mgrwt>
<rscale>  0 0.80479284E+02</rscale>
<asrwt>0</asrwt>
<pdfrwt beam="1">  1        1 0.91654060E-02 0.80479284E+02</pdfrwt>
<pdfrwt beam="2">  1       -2 0.41814778E-02 0.80479284E+02</pdfrwt>
<totfact> 0.13302405E+05</totfact>
</mgrwt>
</event>
<event>
 8    1  0.8247621E-018  0.7934398E+02  0.7818608E-02  0.1330923E+00
         -2   -1    0    0    0  501 -0.00000000000E+00  0.00000000000E+00  0.42314447221E+03  0.42314447222E+03  0.25500000000E-02 0.  1.
          1   -1    0    0  501    0  0.00000000000E+00 -0.00000000000E+00 -0.37194534775E+01  0.37194568922E+01  0.50400000000E-02 0. -1.
        -24    2    1    2    0    0  0.00000000000E+00  0.35527136788E-14  0.41942501873E+03  0.42686392911E+03  0.79343982988E+02 0.  0.
         66    2    3    3    0    0 -0.24289844766E+02 -0.31249178959E+02  0.22229406205E+03  0.22579893218E+03  0.20000014994E+01 0.  0.
         13    1    3    3    0    0  0.24289844766E+02  0.31249178959E+02  0.19713095668E+03  0.20106499693E+03  0.10566000000E+00 0. -1.
         13    1    4    4    0    0 -0.92323096982E+01 -0.12355379996E+02  0.82289145100E+02  0.83722192533E+02  0.10566000000E+00 0.  1.
        -13    1    4    4    0    0 -0.24073176681E+01 -0.27308310298E+01  0.22443142640E+02  0.22736719906E+02  0.10566000000E+00 0. -1.
        -14    1    4    4    0    0 -0.12650217400E+02 -0.16162967933E+02  0.11756177431E+03  0.11934001974E+03  0.00000000000E+00 0.  1.
<mgrwt>
<rscale>  0 0.79343983E+02</rscale>
<asrwt>0</asrwt>
<pdfrwt beam="1">  1        1 0.57222413E-03 0.79343983E+02</pdfrwt>
<pdfrwt beam="2">  1       -2 0.65099121E-01 0.79343983E+02</pdfrwt>
<totfact> 0.58113493E+04</totfact>
</mgrwt>
</event>
<event>
 8    1  0.8247621E-018  0.7974957E+02  0.7818608E-02  0.1329764E+00
          1   -1    0    0  501    0  0.00000000000E+00  0.00000000000E+00  0.57314267474E+01  0.57314289634E+01  0.50400000000E-02 0. -1.
         -2   -1    0    0    0  501 -0.00000000000E+00 -0.00000000000E+00 -0.27741754022E+03  0.27741754023E+03  0.25500000000E-02 0.  1.
        -24    2    1    2    0    0  0.35527136788E-14  0.00000000000E+00 -0.27168611347E+03  0.28314896919E+03  0.79749573681E+02 0.  0.
         66    2    3    3    0    0 -0.25602432936E+02 -0.20458077373E+02 -0.21642125268E+03  0.21889763844E+03  0.19999995655E+01 0.  0.
         13    1    3    3    0    0  0.25602432936E+02  0.20458077373E+02 -0.55264860787E+02  0.64251330755E+02  0.10566000000E+00 0. -1.
         13    1    4    4    0    0 -0.12116044796E+02 -0.87444666137E+01 -0.95223969166E+02  0.96389209487E+02  0.10566000000E+00 0. -1.
        -13    1    4    4    0    0 -0.67083622500E+01 -0.55434628115E+01 -0.57364446609E+02  0.58020884195E+02  0.10566000000E+00 0.  1.
         14    1    4    4    0    0 -0.67780258899E+01 -0.61701479479E+01 -0.63832836907E+02  0.64487544753E+02  0.00000000000E+00 0. -1.
<mgrwt>
<rscale>  0 0.79749574E+02</rscale>
<asrwt>0</asrwt>
<pdfrwt beam="1">  1        1 0.88175835E-03 0.79749574E+02</pdfrwt>
<pdfrwt beam="2">  1       -2 0.42679611E-01 0.79749574E+02</pdfrwt>
<totfact> 0.73835334E+04</totfact>
</mgrwt>
</event>
<event>
 8    1  0.8247621E-018  0.7772799E+02  0.7818608E-02  0.1335626E+00
          1   -1    0    0  501    0  0.00000000000E+00  0.00000000000E+00  0.49493768388E+02  0.49493768644E+02  0.50400000000E-02 0. -1.
         -2   -1    0    0    0  501 -0.00000000000E+00 -0.00000000000E+00 -0.30517173404E+02  0.30517173511E+02  0.25500000000E-02 0.  1.
        -24    2    1    2    0    0  0.00000000000E+00  0.35527136788E-14  0.18976594984E+02  0.80010942155E+02  0.77727985355E+02 0.  0.
         66    2    3    3    0    0 -0.29676811586E+01 -0.27961587306E+02 -0.18083123943E+02  0.33491146077E+02  0.19999994693E+01 0.  0.
         13    1    3    3    0    0  0.29676811586E+01  0.27961587306E+02  0.37059718927E+02  0.46519796078E+02  0.10566000000E+00 0. -1.
         13    1    4    4    0    0 -0.17436908650E+00 -0.40644592991E+00 -0.40910178946E+00  0.61166263741E+00  0.10566000000E+00 0. -1.
        -13    1    4    4    0    0 -0.25531640197E+00 -0.81687602971E+01 -0.52215001632E+01  0.96989205196E+01  0.10566000000E+00 0.  1.
         14    1    4    4    0    0 -0.25379956702E+01 -0.19386381079E+02 -0.12452521991E+02  0.23180562920E+02  0.00000000000E+00 0. -1.
<mgrwt>
<rscale>  0 0.77727985E+02</rscale>
<asrwt>0</asrwt>
<pdfrwt beam="1">  1        1 0.76144259E-02 0.77727985E+02</pdfrwt>
<pdfrwt beam="2">  1       -2 0.46949498E-02 0.77727985E+02</pdfrwt>
<totfact> 0.14229954E+05</totfact>
</mgrwt>
</event>
<event>
 8    1  0.8247621E-018  0.8089305E+02  0.7818608E-02  0.1326536E+00
         -2   -1    0    0    0  501 -0.00000000000E+00  0.00000000000E+00  0.52407629174E+02  0.52407629236E+02  0.25500000000E-02 0.  1.
          1   -1    0    0  501    0  0.00000000000E+00 -0.00000000000E+00 -0.31215330980E+02  0.31215331386E+02  0.50400000000E-02 0. -1.
        -24    2    1    2    0    0  0.00000000000E+00 -0.17763568394E-14  0.21192298194E+02  0.83622960622E+02  0.80893053104E+02 0.  0.
         66    2    3    3    0    0  0.36029582850E+02  0.93330590694E+01  0.26904368214E+02  0.45968269813E+02  0.19999921519E+01 0.  0.
         13    1    3    3    0    0 -0.36029582850E+02 -0.93330590694E+01 -0.57120700204E+01  0.37654690809E+02  0.10566000000E+00 0. -1.
         13    1    4    4    0    0  0.12195947675E+02  0.24583146084E+01  0.83893821769E+01  0.15005910427E+02  0.10566000000E+00 0. -1.
        -13    1    4    4    0    0  0.13182308511E+02  0.35190679480E+01  0.10484738097E+02  0.17207498189E+02  0.10566000000E+00 0.  1.
         14    1    4    4    0    0  0.10651326664E+02  0.33556765130E+01  0.80302479401E+01  0.13754861197E+02  0.00000000000E+00 0. -1.
<mgrwt>
<rscale>  0 0.80893053E+02</rscale>
<asrwt>0</asrwt>
<pdfrwt beam="1">  1        1 0.48023587E-02 0.80893053E+02</pdfrwt>
<pdfrwt beam="2">  1       -2 0.80627122E-02 0.80893053E+02</pdfrwt>
<totfact> 0.11797735E+05</totfact>
</mgrwt>
</event>
<event>
 8    1  0.8247621E-018  0.7986072E+02  0.7818608E-02  0.1329447E+00
         -2   -1    0    0    0  501 -0.00000000000E+00  0.00000000000E+00  0.72894514460E+02  0.72894514505E+02  0.25500000000E-02 0.  1.
          1   -1    0    0  501    0  0.00000000000E+00 -0.00000000000E+00 -0.21873162913E+02  0.21873163493E+02  0.50400000000E-02 0. -1.
        -24    2    1    2    0    0  0.00000000000E+00 -0.35527136788E-14  0.51021351548E+02  0.94767677998E+02  0.79860719251E+02 0.  0.
         66    2    3    3    0    0  0.29722334571E+02  0.24003968157E+02  0.39202672227E+02  0.54776428898E+02  0.19999983693E+01 0.  0.
         13    1    3    3    0    0 -0.29722334571E+02 -0.24003968157E+02  0.11818679320E+02  0.39991249099E+02  0.10566000000E+00 0. -1.
         13    1    4    4    0    0  0.67826010409E+01  0.51425451629E+01  0.79221126713E+01  0.11628434153E+02  0.10566000000E+00 0. -1.
        -13    1    4    4    0    0  0.12534738227E+02  0.10423279341E+02  0.16364735261E+02  0.23099353645E+02  0.10566000000E+00 0.  1.
        -14    1    4    4    0    0  0.10404995303E+02  0.84381436529E+01  0.14915824295E+02  0.20048641100E+02  0.00000000000E+00 0.  1.
<mgrwt>
<rscale>  0 0.79860719E+02</rscale>
<asrwt>0</asrwt>
<pdfrwt beam="1">  1        1 0.33651020E-02 0.79860719E+02</pdfrwt>
<pdfrwt beam="2">  1       -2 0.11214541E-01 0.79860719E+02</pdfrwt>
<totfact> 0.11447597E+05</totfact>
</mgrwt>
</event>
<event>
 8    1  0.8247621E-018  0.8167840E+02  0.7818608E-02  0.1324355E+00
          1   -1    0    0  501    0  0.00000000000E+00  0.00000000000E+00  0.27046677844E+02  0.27046678314E+02  0.50400000000E-02 0. -1.
         -2   -1    0    0    0  501 -0.00000000000E+00 -0.00000000000E+00 -0.61665258728E+02  0.61665258781E+02  0.25500000000E-02 0.  1.
        -24    2    1    2    0    0  0.00000000000E+00  0.00000000000E+00 -0.34618580884E+02  0.88711937095E+02  0.81678403760E+02 0.  0.
         66    2    3    3    0    0  0.16431213467E+02  0.32510950012E+01 -0.57744056680E+02  0.60157547074E+02  0.19999983530E+01 0.  0.
         13    1    3    3    0    0 -0.16431213467E+02 -0.32510950012E+01  0.23125475795E+02  0.28554390021E+02  0.10566000000E+00 0. -1.
         13    1    4    4    0    0  0.21828422623E+01  0.16744207281E+00 -0.94108398319E+01  0.96627070517E+01  0.10566000000E+00 0. -1.
        -13    1    4    4    0    0  0.93745095044E+01  0.19979257431E+01 -0.33446968871E+02  0.34793448039E+02  0.10566000000E+00 0.  1.
         14    1    4    4    0    0  0.48738616998E+01  0.10857271853E+01 -0.14886247976E+02  0.15701391983E+02  0.00000000000E+00 0. -1.
<mgrwt>
<rscale>  0 0.81678404E+02</rscale>
<asrwt>0</asrwt>
<pdfrwt beam="1">  1        1 0.41610274E-02 0.81678404E+02</pdfrwt>
<pdfrwt beam="2">  1       -2 0.94869629E-02 0.81678404E+02</pdfrwt>
<totfact> 0.11175151E+05</totfact>
</mgrwt>
</event>
<event>
 8    1  0.8247621E-018  0.7687739E+02  0.7818608E-02  0.1338154E+00
          1   -1    0    0  501    0  0.00000000000E+00  0.00000000000E+00  0.35599234993E+02  0.35599235349E+02  0.50400000000E-02 0. -1.
         -2   -1    0    0    0  501 -0.00000000000E+00 -0.00000000000E+00 -0.41504640259E+02  0.41504640337E+02  0.25500000000E-02 0.  1.
        -24    2    1    2    0    0  0.00000000000E+00  0.00000000000E+00 -0.59054052666E+01  0.77103875687E+02  0.76877394822E+02 0.  0.
         66    2    3    3    0    0 -0.28516691958E+01  0.20652428923E+02 -0.35312315518E+02  0.41056235373E+02  0.19999995560E+01 0.  0.
         13    1    3    3    0    0  0.28516691958E+01 -0.20652428923E+02  0.29406910251E+02  0.36047640313E+02  0.10566000000E+00 0. -1.
         13    1    4    4    0    0 -0.15263933377E+00  0.41568602470E+00 -0.93725280038E+00  0.10419695220E+01  0.10566000000E+00 0.  1.
        -13    1    4    4    0    0  0.62783125140E-02  0.45492904094E+01 -0.70814990374E+01  0.84175338014E+01  0.10566000000E+00 0. -1.
        -14    1    4    4    0    0 -0.27053081746E+01  0.15687452489E+02 -0.27293563680E+02  0.31596732050E+02  0.00000000000E+00 0.  1.
<mgrwt>
<rscale>  0 0.76877395E+02</rscale>
<asrwt>0</asrwt>
<pdfrwt beam="1">  1        1 0.54768055E-02 0.76877395E+02</pdfrwt>
<pdfrwt beam="2">  1       -2 0.63853292E-02 0.76877395E+02</pdfrwt>
<totfact> 0.13940368E+05</totfact>
</mgrwt>
</event>
<event>
 8    1  0.8247621E-018  0.8123593E+02  0.7818608E-02  0.1325580E+00
         -2   -1    0    0    0  501 -0.00000000000E+00  0.00000000000E+00  0.30448243079E+03  0.30448243080E+03  0.25500000000E-02 0.  1.
          1   -1    0    0  501    0  0.00000000000E+00 -0.00000000000E+00 -0.54184364697E+01  0.54184388137E+01  0.50400000000E-02 0. -1.
        -24    2    1    2    0    0  0.00000000000E+00  0.00000000000E+00  0.29906399432E+03  0.30990086961E+03  0.81235929790E+02 0.  0.
         66    2    3    3    0    0 -0.35096920050E+02 -0.20390888357E+02  0.14778503974E+03  0.15327100213E+03  0.19999995570E+01 0.  0.
         13    1    3    3    0    0  0.35096920050E+02  0.20390888357E+02  0.15127895457E+03  0.15662986748E+03  0.10566000000E+00 0. -1.
         13    1    4    4    0    0 -0.54259388691E+01 -0.36594204078E+01  0.22409540440E+02  0.23345895509E+02  0.10566000000E+00 0. -1.
        -13    1    4    4    0    0 -0.29312789644E+02 -0.16512086226E+02  0.12422865154E+03  0.12870375930E+03  0.10566000000E+00 0.  1.
         14    1    4    4    0    0 -0.35819153659E+00 -0.21938172298E+00  0.11468477566E+01  0.12213473274E+01  0.00000000000E+00 0. -1.
<mgrwt>
<rscale>  0 0.81235930E+02</rscale>
<asrwt>0</asrwt>
<pdfrwt beam="1">  1        1 0.83360589E-03 0.81235930E+02</pdfrwt>
<pdfrwt beam="2">  1       -2 0.46843446E-01 0.81235930E+02</pdfrwt>
<totfact> 0.66993785E+04</totfact>
</mgrwt>
</event>
<event>
 8    1  0.8247621E-018  0.7903527E+02  0.7818608E-02  0.1331812E+00
         -2   -1    0    0    0  501 -0.00000000000E+00  0.00000000000E+00  0.18304289335E+02  0.18304289513E+02  0.25500000000E-02 0.  1.
          1   -1    0    0  501    0  0.00000000000E+00 -0.00000000000E+00 -0.85315713532E+02  0.85315713681E+02  0.50400000000E-02 0. -1.
        -24    2    1    2    0    0  0.00000000000E+00  0.00000000000E+00 -0.67011424197E+02  0.10362000319E+03  0.79035271171E+02 0.  0.
         66    2    3    3    0    0 -0.37319145560E+02  0.34866560560E+01 -0.17217013170E+02  0.41295289562E+02  0.20000004227E+01 0.  0.
         13    1    3    3    0    0  0.37319145560E+02 -0.34866560560E+01 -0.49794411027E+02  0.62324713632E+02  0.10566000000E+00 0. -1.
         13    1    4    4    0    0 -0.32789564788E+01  0.16193522751E+00 -0.17674724185E+01  0.37300001868E+01  0.10566000000E+00 0. -1.
        -13    1    4    4    0    0 -0.10356244995E+02  0.26638563396E+00 -0.45869638560E+01  0.11330232705E+02  0.10566000000E+00 0.  1.
        -14    1    4    4    0    0 -0.23683944087E+02  0.30583351946E+01 -0.10862576895E+02  0.26235056670E+02  0.00000000000E+00 0.  1.
<mgrwt>
<rscale>  0 0.79035271E+02</rscale>
<asrwt>0</asrwt>
<pdfrwt beam="1">  1        1 0.13125494E-01 0.79035271E+02</pdfrwt>
<pdfrwt beam="2">  1       -2 0.28160446E-02 0.79035271E+02</pdfrwt>
<totfact> 0.14797294E+05</totfact>
</mgrwt>
</event>
<event>
 8    1  0.8247621E-018  0.8537184E+02  0.7818608E-02  0.1314463E+00
         -2   -1    0    0    0  501 -0.00000000000E+00  0.00000000000E+00  0.93852933657E+01  0.93852937121E+01  0.25500000000E-02 0.  1.
          1   -1    0    0  501    0  0.00000000000E+00 -0.00000000000E+00 -0.19414286370E+03  0.19414286376E+03  0.50400000000E-02 0. -1.
        -24    2    1    2    0    0  0.00000000000E+00  0.00000000000E+00 -0.18475757033E+03  0.20352815747E+03  0.85371840148E+02 0.  0.
         66    2    3    3    0    0 -0.35515130087E+02 -0.23512956509E+02 -0.98219687184E+02  0.10707609699E+03  0.20000015856E+01 0.  0.
         13    1    3    3    0    0  0.35515130087E+02  0.23512956509E+02 -0.86537883146E+02  0.96452060488E+02  0.10566000000E+00 0. -1.
         13    1    4    4    0    0 -0.10077505581E+02 -0.76089513050E+01 -0.28201674334E+02  0.30899803526E+02  0.10566000000E+00 0.  1.
        -13    1    4    4    0    0 -0.63209178957E+01 -0.37833656830E+01 -0.16787860165E+02  0.18333337718E+02  0.10566000000E+00 0. -1.
        -14    1    4    4    0    0 -0.19116706610E+02 -0.12120639521E+02 -0.53230152686E+02  0.57842955742E+02  0.00000000000E+00 0.  1.
<mgrwt>
<rscale>  0 0.85371840E+02</rscale>
<asrwt>0</asrwt>
<pdfrwt beam="1">  1        1 0.29868130E-01 0.85371840E+02</pdfrwt>
<pdfrwt beam="2">  1       -2 0.14438915E-02 0.85371840E+02</pdfrwt>
<totfact> 0.13940500E+05</totfact>
</mgrwt>
</event>
<event>
 8    1  0.8247621E-018  0.7974512E+02  0.7818608E-02  0.1329776E+00
         -2   -1    0    0    0  501 -0.00000000000E+00  0.00000000000E+00  0.19558197097E+02  0.19558197263E+02  0.25500000000E-02 0.  1.
          1   -1    0    0  501    0  0.00000000000E+00 -0.00000000000E+00 -0.81286678817E+02  0.81286678973E+02  0.50400000000E-02 0. -1.
        -24    2    1    2    0    0  0.35527136788E-14  0.00000000000E+00 -0.61728481720E+02  0.10084487624E+03  0.79745116513E+02 0.  0.
         66    2    3    3    0    0  0.20122134818E+02 -0.31297338344E+02 -0.12848567516E+02  0.39414583435E+02  0.20000007659E+01 0.  0.
         13    1    3    3    0    0 -0.20122134818E+02  0.31297338344E+02 -0.48879914204E+02  0.61430292802E+02  0.10566000000E+00 0. -1.
         13    1    4    4    0    0  0.51249495586E+01 -0.85377395512E+01 -0.27784540054E+01  0.10338717296E+02  0.10566000000E+00 0. -1.
        -13    1    4    4    0    0  0.79931173360E+01 -0.11549062396E+02 -0.56180778021E+01  0.15127614789E+02  0.10566000000E+00 0.  1.
        -14    1    4    4    0    0  0.70040679235E+01 -0.11210536397E+02 -0.44520357089E+01  0.13948251351E+02  0.00000000000E+00 0.  1.
<mgrwt>
<rscale>  0 0.79745117E+02</rscale>
<asrwt>0</asrwt>
<pdfrwt beam="1">  1        1 0.12505643E-01 0.79745117E+02</pdfrwt>
<pdfrwt beam="2">  1       -2 0.30089535E-02 0.79745117E+02</pdfrwt>
<totfact> 0.14329835E+05</totfact>
</mgrwt>
</event>
<event>
 8    1  0.8247621E-018  0.8308368E+02  0.7818608E-02  0.1320521E+00
         -2   -1    0    0    0  501 -0.00000000000E+00  0.00000000000E+00  0.54192867377E+02  0.54192867437E+02  0.25500000000E-02 0.  1.
          1   -1    0    0  501    0  0.00000000000E+00 -0.00000000000E+00 -0.31844121515E+02  0.31844121914E+02  0.50400000000E-02 0. -1.
        -24    2    1    2    0    0 -0.35527136788E-14  0.00000000000E+00  0.22348745862E+02  0.86036989351E+02  0.83083675262E+02 0.  0.
         66    2    3    3    0    0 -0.27731440283E+02 -0.16356541897E+02  0.38326170401E+02  0.50094556185E+02  0.19999946955E+01 0.  0.
         13    1    3    3    0    0  0.27731440283E+02  0.16356541897E+02 -0.15977424538E+02  0.35942433166E+02  0.10566000000E+00 0. -1.
         13    1    4    4    0    0 -0.94682197633E+01 -0.50890795490E+01  0.13608129258E+02  0.17341806771E+02  0.10566000000E+00 0. -1.
        -13    1    4    4    0    0 -0.16900839910E+02 -0.10127190958E+02  0.22926198411E+02  0.30229457884E+02  0.10566000000E+00 0.  1.
         14    1    4    4    0    0 -0.13623806103E+01 -0.11402713901E+01  0.17918427314E+01  0.25232915298E+01  0.00000000000E+00 0. -1.
<mgrwt>
<rscale>  0 0.83083675E+02</rscale>
<asrwt>0</asrwt>
<pdfrwt beam="1">  1        1 0.48990957E-02 0.83083675E+02</pdfrwt>
<pdfrwt beam="2">  1       -2 0.83373642E-02 0.83083675E+02</pdfrwt>
<totfact> 0.10963427E+05</totfact>
</mgrwt>
</event>
<event>
 8    1  0.8247621E-018  0.9005820E+02  0.7818608E-02  0.1302711E+00
         -2   -1    0    0    0  501 -0.00000000000E+00  0.00000000000E+00  0.26830429249E+02  0.26830429370E+02  0.25500000000E-02 0.  1.
          1   -1    0    0  501    0  0.00000000000E+00 -0.00000000000E+00 -0.75571643269E+02  0.75571643437E+02  0.50400000000E-02 0. -1.
        -24    2    1    2    0    0 -0.17763568394E-14  0.00000000000E+00 -0.48741214020E+02  0.10240207281E+03  0.90058195469E+02 0.  0.
         66    2    3    3    0    0 -0.11284203636E+02 -0.15833706804E+02  0.21771275450E+02  0.29257955763E+02  0.20000044677E+01 0.  0.
         13    1    3    3    0    0  0.11284203636E+02  0.15833706804E+02 -0.70512489470E+02  0.73144117044E+02  0.10566000000E+00 0. -1.
         13    1    4    4    0    0 -0.30235976354E+01 -0.31421612584E+01  0.47587378458E+01  0.64553907671E+01  0.10566000000E+00 0. -1.
        -13    1    4    4    0    0 -0.55352391656E+01 -0.75773163474E+01  0.10764938188E+02  0.14281094281E+02  0.10566000000E+00 0.  1.
         14    1    4    4    0    0 -0.27253668350E+01 -0.51142291981E+01  0.62475994164E+01  0.85214707148E+01  0.00000000000E+00 0. -1.
<mgrwt>
<rscale>  0 0.90058195E+02</rscale>
<asrwt>0</asrwt>
<pdfrwt beam="1">  1        1 0.11626407E-01 0.90058195E+02</pdfrwt>
<pdfrwt beam="2">  1       -2 0.41277584E-02 0.90058195E+02</pdfrwt>
<totfact> 0.10133080E+05</totfact>
</mgrwt>
</event>
<event>
 8    1  0.8247621E-018  0.7509150E+02  0.7818608E-02  0.1343588E+00
          1   -1    0    0  501    0  0.00000000000E+00  0.00000000000E+00  0.60337419643E+02  0.60337419854E+02  0.50400000000E-02 0. -1.
         -2   -1    0    0    0  501 -0.00000000000E+00 -0.00000000000E+00 -0.23363332662E+02  0.23363332801E+02  0.25500000000E-02 0.  1.
        -24    2    1    2    0    0  0.00000000000E+00  0.00000000000E+00  0.36974086981E+02  0.83700752655E+02  0.75091496769E+02 0.  0.
         66    2    3    3    0    0  0.32149987421E+01  0.36269433712E+02  0.84145193637E+01  0.37424753420E+02  0.19999984384E+01 0.  0.
         13    1    3    3    0    0 -0.32149987421E+01 -0.36269433712E+02  0.28559567618E+02  0.46275999235E+02  0.10566000000E+00 0. -1.
         13    1    4    4    0    0  0.11873172125E+01  0.21617814076E+02  0.44746236100E+01  0.22108211779E+02  0.10566000000E+00 0. -1.
        -13    1    4    4    0    0  0.14389992405E+01  0.11540755504E+02  0.29419579243E+01  0.11996917808E+02  0.10566000000E+00 0.  1.
         14    1    4    4    0    0  0.58868228907E+00  0.31108641315E+01  0.99793782945E+00  0.33196238331E+01  0.00000000000E+00 0. -1.
<mgrwt>
<rscale>  0 0.75091497E+02</rscale>
<asrwt>0</asrwt>
<pdfrwt beam="1">  1        1 0.92826801E-02 0.75091497E+02</pdfrwt>
<pdfrwt beam="2">  1       -2 0.35943588E-02 0.75091497E+02</pdfrwt>
<totfact> 0.16119210E+05</totfact>
</mgrwt>
</event>
<event>
 8    1  0.8247621E-018  0.7935441E+02  0.7818608E-02  0.1330894E+00
         -2   -1    0    0    0  501 -0.00000000000E+00  0.00000000000E+00  0.25853457415E+02  0.25853457540E+02  0.25500000000E-02 0.  1.
          1   -1    0    0  501    0  0.00000000000E+00 -0.00000000000E+00 -0.60892459880E+02  0.60892460088E+02  0.50400000000E-02 0. -1.
        -24    2    1    2    0    0  0.00000000000E+00  0.00000000000E+00 -0.35039002465E+02  0.86745917629E+02  0.79354410914E+02 0.  0.
         66    2    3    3    0    0 -0.20433204851E+02  0.71990606067E+01  0.18773244809E+02  0.28736336912E+02  0.20000010930E+01 0.  0.
         13    1    3    3    0    0  0.20433204851E+02 -0.71990606067E+01 -0.53812247275E+02  0.58009580716E+02  0.10566000000E+00 0. -1.
         13    1    4    4    0    0 -0.66651967447E+01  0.24761572641E+01  0.58306007855E+01  0.91958290544E+01  0.10566000000E+00 0. -1.
        -13    1    4    4    0    0 -0.93078331427E+01  0.27079889567E+01  0.93565485558E+01  0.13473126100E+02  0.10566000000E+00 0.  1.
        -14    1    4    4    0    0 -0.44601749635E+01  0.20149143859E+01  0.35860954681E+01  0.60673817577E+01  0.00000000000E+00 0.  1.
<mgrwt>
<rscale>  0 0.79354411E+02</rscale>
<asrwt>0</asrwt>
<pdfrwt beam="1">  1        1 0.93680707E-02 0.79354411E+02</pdfrwt>
<pdfrwt beam="2">  1       -2 0.39774550E-02 0.79354411E+02</pdfrwt>
<totfact> 0.13875868E+05</totfact>
</mgrwt>
</event>
<event>
 8    1  0.8247621E-018  0.8007363E+02  0.7818608E-02  0.1328843E+00
          1   -1    0    0  501    0  0.00000000000E+00  0.00000000000E+00  0.15071954531E+02  0.15071955374E+02  0.50400000000E-02 0. -1.
         -2   -1    0    0    0  501 -0.00000000000E+00 -0.00000000000E+00 -0.10635292927E+03  0.10635292931E+03  0.25500000000E-02 0.  1.
        -24    2    1    2    0    0  0.00000000000E+00  0.00000000000E+00 -0.91280974744E+02  0.12142488468E+03  0.80073630298E+02 0.  0.
         66    2    3    3    0    0  0.53510896156E+01 -0.32518101273E+02 -0.80077830558E+02  0.86617088510E+02  0.20000011382E+01 0.  0.
         13    1    3    3    0    0 -0.53510896156E+01  0.32518101273E+02 -0.11203144186E+02  0.34807796169E+02  0.10566000000E+00 0. -1.
         13    1    4    4    0    0  0.24080923842E+01 -0.18989147045E+02 -0.46439971736E+02  0.50230157807E+02  0.10566000000E+00 0. -1.
        -13    1    4    4    0    0  0.21968441511E+01 -0.90024790408E+01 -0.21570335895E+02  0.23476824908E+02  0.10566000000E+00 0.  1.
         14    1    4    4    0    0  0.74615308032E+00 -0.45264751871E+01 -0.12067522927E+02  0.12910105795E+02  0.00000000000E+00 0. -1.
<mgrwt>
<rscale>  0 0.80073630E+02</rscale>
<asrwt>0</asrwt>
<pdfrwt beam="1">  1        1 0.23187624E-02 0.80073630E+02</pdfrwt>
<pdfrwt beam="2">  1       -2 0.16361989E-01 0.80073630E+02</pdfrwt>
<totfact> 0.10423885E+05</totfact>
</mgrwt>
</event>
<event>
 8    1  0.8247621E-018  0.8015171E+02  0.7818608E-02  0.1328621E+00
         -2   -1    0    0    0  501 -0.00000000000E+00  0.00000000000E+00  0.37066259160E+03  0.37066259161E+03  0.25500000000E-02 0.  1.
          1   -1    0    0  501    0  0.00000000000E+00 -0.00000000000E+00 -0.43329798665E+01  0.43329827977E+01  0.50400000000E-02 0. -1.
        -24    2    1    2    0    0 -0.55511151231E-16  0.00000000000E+00  0.36632961174E+03  0.37499557441E+03  0.80151708602E+02 0.  0.
         66    2    3    3    0    0 -0.42551915488E+00 -0.13713983943E+02  0.35932064381E+03  0.35958806917E+03  0.20000008314E+01 0.  0.
         13    1    3    3    0    0  0.42551915488E+00  0.13713983943E+02  0.70089679292E+01  0.15407505237E+02  0.10566000000E+00 0. -1.
         13    1    4    4    0    0 -0.71556902460E+00 -0.51718411495E+01  0.12385449094E+03  0.12396453553E+03  0.10566000000E+00 0. -1.
        -13    1    4    4    0    0  0.37790556171E+00 -0.45139298706E+01  0.13725565159E+03  0.13733041700E+03  0.10566000000E+00 0.  1.
        -14    1    4    4    0    0 -0.87855691988E-01 -0.40282129231E+01  0.98210501278E+02  0.98293116642E+02  0.00000000000E+00 0.  1.
<mgrwt>
<rscale>  0 0.80151709E+02</rscale>
<asrwt>0</asrwt>
<pdfrwt beam="1">  1        1 0.66661250E-03 0.80151709E+02</pdfrwt>
<pdfrwt beam="2">  1       -2 0.57025016E-01 0.80151709E+02</pdfrwt>
<totfact> 0.61770993E+04</totfact>
</mgrwt>
</event>
<event>
 8    1  0.8247621E-018  0.7976515E+02  0.7818608E-02  0.1329719E+00
          1   -1    0    0  501    0  0.00000000000E+00  0.00000000000E+00  0.22093254206E+03  0.22093254212E+03  0.50400000000E-02 0. -1.
         -2   -1    0    0    0  501 -0.00000000000E+00 -0.00000000000E+00 -0.71995722294E+01  0.71995726810E+01  0.25500000000E-02 0.  1.
        -24    2    1    2    0    0  0.00000000000E+00 -0.35527136788E-14  0.21373296983E+03  0.22813211480E+03  0.79765151600E+02 0.  0.
         66    2    3    3    0    0 -0.95520980621E+00  0.30205001595E+02  0.32607440081E+02  0.44502805487E+02  0.20000001110E+01 0.  0.
         13    1    3    3    0    0  0.95520980621E+00 -0.30205001595E+02  0.18112552975E+03  0.18362930931E+03  0.10566000000E+00 0. -1.
         13    1    4    4    0    0 -0.31356590700E+00  0.10622638490E+02  0.12302123027E+02  0.16257065144E+02  0.10566000000E+00 0. -1.
        -13    1    4    4    0    0  0.15208000049E+00  0.12537167574E+01  0.10059662197E+01  0.16180439132E+01  0.10566000000E+00 0.  1.
        -14    1    4    4    0    0 -0.79372389970E+00  0.18328646347E+02  0.19299350835E+02  0.26627696430E+02  0.00000000000E+00 0.  1.
<mgrwt>
<rscale>  0 0.79765152E+02</rscale>
<asrwt>0</asrwt>
<pdfrwt beam="1">  1        1 0.33989626E-01 0.79765152E+02</pdfrwt>
<pdfrwt beam="2">  1       -2 0.11076264E-02 0.79765152E+02</pdfrwt>
<totfact> 0.17133213E+05</totfact>
</mgrwt>
</event>
<event>
 8    1  0.8247621E-018  0.8028533E+02  0.7818608E-02  0.1328244E+00
          1   -1    0    0  501    0  0.00000000000E+00  0.00000000000E+00  0.92769162513E+01  0.92769176203E+01  0.50400000000E-02 0. -1.
         -2   -1    0    0    0  501 -0.00000000000E+00 -0.00000000000E+00 -0.17370354712E+03  0.17370354714E+03  0.25500000000E-02 0.  1.
        -24    2    1    2    0    0  0.00000000000E+00 -0.35527136788E-14 -0.16442663087E+03  0.18298046476E+03  0.80285325837E+02 0.  0.
         66    2    3    3    0    0  0.20475192051E+02  0.20160662803E+02 -0.14606927519E+03  0.14888223188E+03  0.20000000603E+01 0.  0.
         13    1    3    3    0    0 -0.20475192051E+02 -0.20160662803E+02 -0.18357355682E+02  0.34098232885E+02  0.10566000000E+00 0. -1.
         13    1    4    4    0    0  0.62055033785E+00  0.48342562612E+00 -0.38329611833E+01  0.39142736907E+01  0.10566000000E+00 0. -1.
        -13    1    4    4    0    0  0.19600381094E+02  0.19323726230E+02 -0.13867786851E+03  0.14138296826E+03  0.10566000000E+00 0.  1.
        -14    1    4    4    0    0  0.25426061858E+00  0.35351094765E+00 -0.35584454929E+01  0.35849899272E+01  0.00000000000E+00 0.  1.
<mgrwt>
<rscale>  0 0.80285326E+02</rscale>
<asrwt>0</asrwt>
<pdfrwt beam="1">  1        1 0.14272181E-02 0.80285326E+02</pdfrwt>
<pdfrwt beam="2">  1       -2 0.26723620E-01 0.80285326E+02</pdfrwt>
<totfact> 0.89005916E+04</totfact>
</mgrwt>
</event>
<event>
 8    1  0.8247621E-018  0.7881123E+02  0.7818608E-02  0.1332459E+00
          1   -1    0    0  501    0  0.00000000000E+00  0.00000000000E+00  0.36573653969E+02  0.36573654316E+02  0.50400000000E-02 0. -1.
         -2   -1    0    0    0  501 -0.00000000000E+00 -0.00000000000E+00 -0.42456858174E+02  0.42456858251E+02  0.25500000000E-02 0.  1.
        -24    2    1    2    0    0  0.17763568394E-14  0.00000000000E+00 -0.58832042052E+01  0.79030512567E+02  0.78811229054E+02 0.  0.
         66    2    3    3    0    0 -0.15325569053E+02 -0.33501629427E+02 -0.16894975700E+02  0.40579211984E+02  0.20000000747E+01 0.  0.
         13    1    3    3    0    0  0.15325569053E+02  0.33501629427E+02  0.11011771495E+02  0.38451300583E+02  0.10566000000E+00 0. -1.
         13    1    4    4    0    0 -0.19216467590E+01 -0.56011863949E+01 -0.23466279601E+01  0.63705448838E+01  0.10566000000E+00 0. -1.
        -13    1    4    4    0    0 -0.70137507335E+01 -0.13819393748E+02 -0.72749041095E+01  0.17120272684E+02  0.10566000000E+00 0.  1.
        -14    1    4    4    0    0 -0.63901715607E+01 -0.14081049284E+02 -0.72734436302E+01  0.17088394417E+02  0.00000000000E+00 0.  1.
<mgrwt>
<rscale>  0 0.78811229E+02</rscale>
<asrwt>0</asrwt>
<pdfrwt beam="1">  1        1 0.56267161E-02 0.78811229E+02</pdfrwt>
<pdfrwt beam="2">  1       -2 0.65318243E-02 0.78811229E+02</pdfrwt>
<totfact> 0.13053603E+05</totfact>
</mgrwt>
</event>
<event>
 8    1  0.8247621E-018  0.7966030E+02  0.7818608E-02  0.1330018E+00
          1   -1    0    0  501    0  0.00000000000E+00  0.00000000000E+00  0.81180854774E+02  0.81180854930E+02  0.50400000000E-02 0. -1.
         -2   -1    0    0    0  501 -0.00000000000E+00 -0.00000000000E+00 -0.19542058261E+02  0.19542058427E+02  0.25500000000E-02 0.  1.
        -24    2    1    2    0    0  0.00000000000E+00  0.00000000000E+00  0.61638796513E+02  0.10072291336E+03  0.79660304039E+02 0.  0.
         66    2    3    3    0    0 -0.62617885999E+01  0.37907585072E+02  0.17684029276E+02  0.42342884843E+02  0.20000007369E+01 0.  0.
         13    1    3    3    0    0  0.62617885999E+01 -0.37907585072E+02  0.43954767237E+02  0.58380028514E+02  0.10566000000E+00 0. -1.
         13    1    4    4    0    0 -0.10738019523E+00  0.29503309039E+01  0.12365671996E+01  0.32025373415E+01  0.10566000000E+00 0. -1.
        -13    1    4    4    0    0 -0.22818324815E+01  0.15393941982E+02  0.67167399756E+01  0.16950102335E+02  0.10566000000E+00 0.  1.
        -14    1    4    4    0    0 -0.38725759232E+01  0.19563312185E+02  0.97307221008E+01  0.22190245167E+02  0.00000000000E+00 0.  1.
<mgrwt>
<rscale>  0 0.79660304E+02</rscale>
<asrwt>0</asrwt>
<pdfrwt beam="1">  1        1 0.12489362E-01 0.79660304E+02</pdfrwt>
<pdfrwt beam="2">  1       -2 0.30064705E-02 0.79660304E+02</pdfrwt>
<totfact> 0.14368367E+05</totfact>
</mgrwt>
</event>
<event>
 8    1  0.8247621E-018  0.7754596E+02  0.7818608E-02  0.1336164E+00
         -2   -1    0    0    0  501 -0.00000000000E+00  0.00000000000E+00  0.16678411939E+03  0.16678411941E+03  0.25500000000E-02 0.  1.
          1   -1    0    0  501    0  0.00000000000E+00 -0.00000000000E+00 -0.90137103916E+01  0.90137118007E+01  0.50400000000E-02 0. -1.
        -24    2    1    2    0    0 -0.35527136788E-14  0.00000000000E+00  0.15777040900E+03  0.17579783121E+03  0.77545957358E+02 0.  0.
         66    2    3    3    0    0  0.28476562830E+02  0.26230743991E+02  0.75445741381E+02  0.84823501736E+02  0.19999983184E+01 0.  0.
         13    1    3    3    0    0 -0.28476562830E+02 -0.26230743991E+02  0.82324667614E+02  0.90974329471E+02  0.10566000000E+00 0. -1.
         13    1    4    4    0    0  0.29141261998E+01  0.30067280730E+01  0.91509291839E+01  0.10063956189E+02  0.10566000000E+00 0. -1.
        -13    1    4    4    0    0  0.83646178827E+01  0.82756214662E+01  0.22797202143E+02  0.25654947526E+02  0.10566000000E+00 0.  1.
         14    1    4    4    0    0  0.17197818748E+02  0.14948394451E+02  0.43497610054E+02  0.49104598021E+02  0.00000000000E+00 0. -1.
<mgrwt>
<rscale>  0 0.77545957E+02</rscale>
<asrwt>0</asrwt>
<pdfrwt beam="1">  1        1 0.13867249E-02 0.77545957E+02</pdfrwt>
<pdfrwt beam="2">  1       -2 0.25659093E-01 0.77545957E+02</pdfrwt>
<totfact> 0.98760253E+04</totfact>
</mgrwt>
</event>
<event>
 8    1  0.8247621E-018  0.8221827E+02  0.7818608E-02  0.1322872E+00
          1   -1    0    0  501    0  0.00000000000E+00  0.00000000000E+00  0.44496946431E+02  0.44496946716E+02  0.50400000000E-02 0. -1.
         -2   -1    0    0    0  501 -0.00000000000E+00 -0.00000000000E+00 -0.37979260780E+02  0.37979260866E+02  0.25500000000E-02 0.  1.
        -24    2    1    2    0    0  0.00000000000E+00  0.00000000000E+00  0.65176856507E+01  0.82476207582E+02  0.82218274069E+02 0.  0.
         66    2    3    3    0    0  0.12844653677E+02 -0.21551788001E+01 -0.35827182446E+02  0.38173510802E+02  0.20000002955E+01 0.  0.
         13    1    3    3    0    0 -0.12844653677E+02  0.21551788001E+01  0.42344868097E+02  0.44302696780E+02  0.10566000000E+00 0. -1.
         13    1    4    4    0    0  0.68540102038E+01 -0.12794585107E+01 -0.19242920989E+02  0.20467428812E+02  0.10566000000E+00 0. -1.
        -13    1    4    4    0    0  0.32541324782E+01 -0.26520662101E+00 -0.10708180603E+02  0.11195356564E+02  0.10566000000E+00 0.  1.
         14    1    4    4    0    0  0.27365109953E+01 -0.61051366834E+00 -0.58760808551E+01  0.65107254267E+01  0.00000000000E+00 0. -1.
<mgrwt>
<rscale>  0 0.82218274E+02</rscale>
<asrwt>0</asrwt>
<pdfrwt beam="1">  1        1 0.68456842E-02 0.82218274E+02</pdfrwt>
<pdfrwt beam="2">  1       -2 0.58429632E-02 0.82218274E+02</pdfrwt>
<totfact> 0.11962402E+05</totfact>
</mgrwt>
</event>
<event>
 8    1  0.8247621E-018  0.7979960E+02  0.7818608E-02  0.1329621E+00
         -2   -1    0    0    0  501 -0.00000000000E+00  0.00000000000E+00  0.91917303528E+02  0.91917303564E+02  0.25500000000E-02 0.  1.
          1   -1    0    0  501    0  0.00000000000E+00 -0.00000000000E+00 -0.17319850520E+02  0.17319851254E+02  0.50400000000E-02 0. -1.
        -24    2    1    2    0    0 -0.17763568394E-14  0.00000000000E+00  0.74597453008E+02  0.10923715482E+03  0.79799598980E+02 0.  0.
         66    2    3    3    0    0  0.96524424852E+01  0.19304553602E+02  0.83218899909E+02  0.85995469285E+02  0.19999999406E+01 0.  0.
         13    1    3    3    0    0 -0.96524424852E+01 -0.19304553602E+02 -0.86214469011E+01  0.23241685533E+02  0.10566000000E+00 0. -1.
         13    1    4    4    0    0  0.33086717025E+01  0.71525217878E+01  0.27655991987E+02  0.28757102308E+02  0.10566000000E+00 0. -1.
        -13    1    4    4    0    0  0.29062339522E+01  0.51797102878E+01  0.26066481078E+02  0.26734774999E+02  0.10566000000E+00 0.  1.
         14    1    4    4    0    0  0.34375368305E+01  0.69723215260E+01  0.29496426845E+02  0.30503591977E+02  0.00000000000E+00 0. -1.
<mgrwt>
<rscale>  0 0.79799599E+02</rscale>
<asrwt>0</asrwt>
<pdfrwt beam="1">  1        1 0.26645924E-02 0.79799599E+02</pdfrwt>
<pdfrwt beam="2">  1       -2 0.14141124E-01 0.79799599E+02</pdfrwt>
<totfact> 0.10900936E+05</totfact>
</mgrwt>
</event>
<event>
 8    1  0.8247621E-018  0.7916173E+02  0.7818608E-02  0.1331447E+00
          1   -1    0    0  501    0  0.00000000000E+00  0.00000000000E+00  0.30369661150E+03  0.30369661154E+03  0.50400000000E-02 0. -1.
         -2   -1    0    0    0  501 -0.00000000000E+00 -0.00000000000E+00 -0.51585853429E+01  0.51585859731E+01  0.25500000000E-02 0.  1.
        -24    2    1    2    0    0  0.71054273576E-14  0.16653345369E-15  0.29853802615E+03  0.30885519751E+03  0.79161732991E+02 0.  0.
         66    2    3    3    0    0 -0.38909258451E+02 -0.16391723790E+00  0.12158801762E+03  0.12767773218E+03  0.20000005493E+01 0.  0.
         13    1    3    3    0    0  0.38909258451E+02  0.16391723790E+00  0.17695000853E+03  0.18117746534E+03  0.10566000000E+00 0. -1.
         13    1    4    4    0    0 -0.81755598556E+01  0.40105136746E+00  0.24108390914E+02  0.25460288640E+02  0.10566000000E+00 0. -1.
        -13    1    4    4    0    0 -0.22705525790E+02 -0.84645590776E+00  0.71239080782E+02  0.74774829881E+02  0.10566000000E+00 0.  1.
        -14    1    4    4    0    0 -0.80281728060E+01  0.28148730240E+00  0.26240545926E+02  0.27442613655E+02  0.00000000000E+00 0.  1.
<mgrwt>
<rscale>  0 0.79161733E+02</rscale>
<asrwt>0</asrwt>
<pdfrwt beam="1">  1        1 0.46722562E-01 0.79161733E+02</pdfrwt>
<pdfrwt beam="2">  1       -2 0.79362847E-03 0.79161733E+02</pdfrwt>
<totfact> 0.18592493E+05</totfact>
</mgrwt>
</event>
<event>
 8    1  0.8247621E-018  0.8015502E+02  0.7818608E-02  0.1328612E+00
          1   -1    0    0  501    0  0.00000000000E+00  0.00000000000E+00  0.60698069469E+01  0.60698090393E+01  0.50400000000E-02 0. -1.
         -2   -1    0    0    0  501 -0.00000000000E+00 -0.00000000000E+00 -0.26462233964E+03  0.26462233965E+03  0.25500000000E-02 0.  1.
        -24    2    1    2    0    0  0.00000000000E+00 -0.17763568394E-14 -0.25855253269E+03  0.27069214869E+03  0.80155019813E+02 0.  0.
         66    2    3    3    0    0  0.38771431844E+02 -0.92060895414E+01 -0.14295995400E+03  0.14842346331E+03  0.20000003447E+01 0.  0.
         13    1    3    3    0    0 -0.38771431844E+02  0.92060895414E+01 -0.11559257869E+03  0.12226868538E+03  0.10566000000E+00 0. -1.
         13    1    4    4    0    0  0.28157048970E+02 -0.67904984365E+01 -0.10365515292E+03  0.10762588985E+03  0.10566000000E+00 0. -1.
        -13    1    4    4    0    0  0.51112911948E+01 -0.13388032507E+01 -0.20876857742E+02  0.21535367307E+02  0.10566000000E+00 0.  1.
         14    1    4    4    0    0  0.55030916794E+01 -0.10767878542E+01 -0.18427943343E+02  0.19262206155E+02  0.00000000000E+00 0. -1.
<mgrwt>
<rscale>  0 0.80155020E+02</rscale>
<asrwt>0</asrwt>
<pdfrwt beam="1">  1        1 0.93381682E-03 0.80155020E+02</pdfrwt>
<pdfrwt beam="2">  1       -2 0.40711120E-01 0.80155020E+02</pdfrwt>
<totfact> 0.74635823E+04</totfact>
</mgrwt>
</event>
<event>
 8    1  0.8247621E-018  0.8135473E+02  0.7818608E-02  0.1325250E+00
         -2   -1    0    0    0  501 -0.00000000000E+00  0.00000000000E+00  0.27393148343E+02  0.27393148462E+02  0.25500000000E-02 0.  1.
          1   -1    0    0  501    0  0.00000000000E+00 -0.00000000000E+00 -0.60403716363E+02  0.60403716573E+02  0.50400000000E-02 0. -1.
        -24    2    1    2    0    0  0.00000000000E+00  0.35527136788E-14 -0.33010568020E+02  0.87796865035E+02  0.81354728867E+02 0.  0.
         66    2    3    3    0    0  0.27304275986E+02 -0.24885922251E+02  0.17931285349E+01  0.37041165145E+02  0.19999979859E+01 0.  0.
         13    1    3    3    0    0 -0.27304275986E+02  0.24885922251E+02 -0.34803696554E+02  0.50755699890E+02  0.10566000000E+00 0. -1.
         13    1    4    4    0    0  0.76538087770E+01 -0.63560439653E+01  0.79183518940E+00  0.99808942830E+01  0.10566000000E+00 0. -1.
        -13    1    4    4    0    0  0.79573502345E+01 -0.80831454374E+01  0.91471794808E+00  0.11380005970E+02  0.10566000000E+00 0.  1.
         14    1    4    4    0    0  0.11693116975E+02 -0.10446732848E+02  0.86575397470E-01  0.15680264892E+02  0.00000000000E+00 0. -1.
<mgrwt>
<rscale>  0 0.81354729E+02</rscale>
<asrwt>0</asrwt>
<pdfrwt beam="1">  1        1 0.92928795E-02 0.81354729E+02</pdfrwt>
<pdfrwt beam="2">  1       -2 0.42143305E-02 0.81354729E+02</pdfrwt>
<totfact> 0.12939061E+05</totfact>
</mgrwt>
</event>
<event>
 8    1  0.8247621E-018  0.8012026E+02  0.7818608E-02  0.1328711E+00
         -2   -1    0    0    0  501 -0.00000000000E+00  0.00000000000E+00  0.62210249212E+01  0.62210254438E+01  0.25500000000E-02 0.  1.
          1   -1    0    0  501    0  0.00000000000E+00 -0.00000000000E+00 -0.25796615705E+03  0.25796615710E+03  0.50400000000E-02 0. -1.
        -24    2    1    2    0    0  0.00000000000E+00 -0.71054273576E-14 -0.25174513213E+03  0.26418718255E+03  0.80120258796E+02 0.  0.
         66    2    3    3    0    0 -0.19372139425E+01 -0.33604734920E+02 -0.54482105226E+02  0.64072855335E+02  0.19999985102E+01 0.  0.
         13    1    3    3    0    0  0.19372139425E+01  0.33604734920E+02 -0.19726302691E+03  0.20011432721E+03  0.10566000000E+00 0. -1.
         13    1    4    4    0    0 -0.82860955398E+00 -0.20266815765E+02 -0.31293788321E+02  0.37292663709E+02  0.10566000000E+00 0. -1.
        -13    1    4    4    0    0 -0.10299548427E+01 -0.13158082243E+02 -0.22900917838E+02  0.26432161038E+02  0.10566000000E+00 0.  1.
        -14    1    4    4    0    0 -0.78649545879E-01 -0.17983691249E+00 -0.28739906666E+00  0.34803058727E+00  0.00000000000E+00 0.  1.
<mgrwt>
<rscale>  0 0.80120259E+02</rscale>
<asrwt>0</asrwt>
<pdfrwt beam="1">  1        1 0.39687093E-01 0.80120259E+02</pdfrwt>
<pdfrwt beam="2">  1       -2 0.95708100E-03 0.80120259E+02</pdfrwt>
<totfact> 0.17452595E+05</totfact>
</mgrwt>
</event>
<event>
 8    1  0.8247621E-018  0.8098757E+02  0.7818608E-02  0.1326272E+00
         -2   -1    0    0    0  501 -0.00000000000E+00  0.00000000000E+00  0.75714542795E+01  0.75714547089E+01  0.25500000000E-02 0.  1.
          1   -1    0    0  501    0  0.00000000000E+00 -0.00000000000E+00 -0.21656956982E+03  0.21656956988E+03  0.50400000000E-02 0. -1.
        -24    2    1    2    0    0  0.00000000000E+00  0.17763568394E-14 -0.20899811554E+03  0.22414102459E+03  0.80987570674E+02 0.  0.
         66    2    3    3    0    0 -0.38052182099E+02 -0.13357557455E+02 -0.95239142200E+02  0.10344509225E+03  0.19999999118E+01 0.  0.
         13    1    3    3    0    0  0.38052182099E+02  0.13357557455E+02 -0.11375897334E+03  0.12069593234E+03  0.10566000000E+00 0. -1.
         13    1    4    4    0    0 -0.14222826095E+02 -0.53822107878E+01 -0.35773191311E+02  0.38871446535E+02  0.10566000000E+00 0.  1.
        -13    1    4    4    0    0 -0.10518072337E+01 -0.23373017834E+00 -0.32783810364E+01  0.34525171265E+01  0.10566000000E+00 0. -1.
        -14    1    4    4    0    0 -0.22777548770E+02 -0.77416164885E+01 -0.56187569853E+02  0.61121128587E+02  0.00000000000E+00 0.  1.
<mgrwt>
<rscale>  0 0.80987571E+02</rscale>
<asrwt>0</asrwt>
<pdfrwt beam="1">  1        1 0.33318391E-01 0.80987571E+02</pdfrwt>
<pdfrwt beam="2">  1       -2 0.11648393E-02 0.80987571E+02</pdfrwt>
<totfact> 0.16391956E+05</totfact>
</mgrwt>
</event>
<event>
 8    1  0.8247621E-018  0.8166471E+02  0.7818608E-02  0.1324393E+00
         -2   -1    0    0    0  501 -0.00000000000E+00  0.00000000000E+00  0.43272942007E+02  0.43272942082E+02  0.25500000000E-02 0.  1.
          1   -1    0    0  501    0  0.00000000000E+00 -0.00000000000E+00 -0.38529418281E+02  0.38529418610E+02  0.50400000000E-02 0. -1.
        -24    2    1    2    0    0 -0.35527136788E-14  0.35527136788E-14  0.47435237260E+01  0.81802360692E+02  0.81664712070E+02 0.  0.
         66    2    3    3    0    0  0.31292393983E+02 -0.21115374888E+02  0.17897798377E+02  0.41825879062E+02  0.19999986907E+01 0.  0.
         13    1    3    3    0    0 -0.31292393983E+02  0.21115374888E+02 -0.13154274651E+02  0.39976481629E+02  0.10566000000E+00 0. -1.
         13    1    4    4    0    0  0.10908055040E+02 -0.80447759479E+01  0.60213060853E+01  0.14831432022E+02  0.10566000000E+00 0. -1.
        -13    1    4    4    0    0  0.32923861395E+01 -0.23230546202E+01  0.15700722310E+01  0.43258155423E+01  0.10566000000E+00 0.  1.
        -14    1    4    4    0    0  0.17091952803E+02 -0.10747544320E+02  0.10306420061E+02  0.22668631498E+02  0.00000000000E+00 0.  1.
<mgrwt>
<rscale>  0 0.81664712E+02</rscale>
<asrwt>0</asrwt>
<pdfrwt beam="1">  1        1 0.59276029E-02 0.81664712E+02</pdfrwt>
<pdfrwt beam="2">  1       -2 0.66573757E-02 0.81664712E+02</pdfrwt>
<totfact> 0.11905599E+05</totfact>
</mgrwt>
</event>
<event>
 8    1  0.8247621E-018  0.7905843E+02  0.7818608E-02  0.1331745E+00
          1   -1    0    0  501    0  0.00000000000E+00  0.00000000000E+00  0.22329966967E+02  0.22329967536E+02  0.50400000000E-02 0. -1.
         -2   -1    0    0    0  501 -0.00000000000E+00 -0.00000000000E+00 -0.69975869937E+02  0.69975869983E+02  0.25500000000E-02 0.  1.
        -24    2    1    2    0    0  0.00000000000E+00  0.00000000000E+00 -0.47645902970E+02  0.92305837519E+02  0.79058431367E+02 0.  0.
         66    2    3    3    0    0 -0.24248280907E+02  0.15272856571E+02 -0.55584639328E+02  0.62569093013E+02  0.19999991313E+01 0.  0.
         13    1    3    3    0    0  0.24248280907E+02 -0.15272856571E+02  0.79387363578E+01  0.29736744505E+02  0.10566000000E+00 0. -1.
         13    1    4    4    0    0 -0.63563666451E+00  0.72381408449E+00 -0.15806652313E+01  0.18540785871E+01  0.10566000000E+00 0. -1.
        -13    1    4    4    0    0 -0.11875978118E+02  0.70226440835E+01 -0.26188274028E+02  0.29600561596E+02  0.10566000000E+00 0.  1.
         14    1    4    4    0    0 -0.11736666125E+02  0.75263984031E+01 -0.27815700068E+02  0.31114452830E+02  0.00000000000E+00 0. -1.
<mgrwt>
<rscale>  0 0.79058431E+02</rscale>
<asrwt>0</asrwt>
<pdfrwt beam="1">  1        1 0.34353796E-02 0.79058431E+02</pdfrwt>
<pdfrwt beam="2">  1       -2 0.10765518E-01 0.79058431E+02</pdfrwt>
<totfact> 0.11842724E+05</totfact>
</mgrwt>
</event>
<event>
 8    1  0.8247621E-018  0.8071168E+02  0.7818608E-02  0.1327044E+00
          1   -1    0    0  501    0  0.00000000000E+00  0.00000000000E+00  0.14487176707E+02  0.14487177584E+02  0.50400000000E-02 0. -1.
         -2   -1    0    0    0  501 -0.00000000000E+00 -0.00000000000E+00 -0.11241623393E+03  0.11241623396E+03  0.25500000000E-02 0.  1.
        -24    2    1    2    0    0  0.00000000000E+00  0.00000000000E+00 -0.97929057221E+02  0.12690341154E+03  0.80711682007E+02 0.  0.
         66    2    3    3    0    0  0.10450452537E+02  0.51882352734E+01 -0.10969566367E+03  0.11033253543E+03  0.20000005817E+01 0.  0.
         13    1    3    3    0    0 -0.10450452537E+02 -0.51882352734E+01  0.11766606454E+02  0.16570876108E+02  0.10566000000E+00 0. -1.
         13    1    4    4    0    0  0.42616306005E+01  0.20194245917E+01 -0.41441385903E+02  0.41708982254E+02  0.10566000000E+00 0. -1.
        -13    1    4    4    0    0  0.29539293027E+01  0.14641892340E+01 -0.25342975494E+02  0.25556743129E+02  0.10566000000E+00 0.  1.
        -14    1    4    4    0    0  0.32348926342E+01  0.17046214477E+01 -0.42911302278E+02  0.43066810049E+02  0.00000000000E+00 0.  1.
<mgrwt>
<rscale>  0 0.80711682E+02</rscale>
<asrwt>0</asrwt>
<pdfrwt beam="1">  1        1 0.22287966E-02 0.80711682E+02</pdfrwt>
<pdfrwt beam="2">  1       -2 0.17294805E-01 0.80711682E+02</pdfrwt>
<totfact> 0.10065840E+05</totfact>
</mgrwt>
</event>
<event>
 8    1  0.8247621E-018  0.8589855E+02  0.7818608E-02  0.1313099E+00
         -2   -1    0    0    0  501 -0.00000000000E+00  0.00000000000E+00  0.35999824083E+03  0.35999824083E+03  0.25500000000E-02 0.  1.
          1   -1    0    0  501    0  0.00000000000E+00 -0.00000000000E+00 -0.51240248413E+01  0.51240273200E+01  0.50400000000E-02 0. -1.
        -24    2    1    2    0    0  0.00000000000E+00  0.00000000000E+00  0.35487421598E+03  0.36512226815E+03  0.85898553724E+02 0.  0.
         66    2    3    3    0    0 -0.69438272868E+01 -0.34343995574E+02  0.28293718753E+03  0.28510555742E+03  0.20000043158E+01 0.  0.
         13    1    3    3    0    0  0.69438272868E+01  0.34343995574E+02  0.71937028459E+02  0.80016710735E+02  0.10566000000E+00 0. -1.
         13    1    4    4    0    0 -0.38392524487E+01 -0.14630055944E+02  0.11922391935E+03  0.12017958440E+03  0.10566000000E+00 0. -1.
        -13    1    4    4    0    0 -0.18569839318E+01 -0.12136215501E+02  0.10265083521E+03  0.10338249973E+03  0.10566000000E+00 0.  1.
         14    1    4    4    0    0 -0.12475909063E+01 -0.75777241285E+01  0.61062432960E+02  0.61543473294E+02  0.00000000000E+00 0. -1.
<mgrwt>
<rscale>  0 0.85898554E+02</rscale>
<asrwt>0</asrwt>
<pdfrwt beam="1">  1        1 0.78831169E-03 0.85898554E+02</pdfrwt>
<pdfrwt beam="2">  1       -2 0.55384346E-01 0.85898554E+02</pdfrwt>
<totfact> 0.52574154E+04</totfact>
</mgrwt>
</event>
<event>
 8    1  0.8247621E-018  0.7698006E+02  0.7818608E-02  0.1337847E+00
         -2   -1    0    0    0  501 -0.00000000000E+00  0.00000000000E+00  0.72567465742E+01  0.72567470222E+01  0.25500000000E-02 0.  1.
          1   -1    0    0  501    0  0.00000000000E+00 -0.00000000000E+00 -0.20415241091E+03  0.20415241097E+03  0.50400000000E-02 0. -1.
        -24    2    1    2    0    0  0.00000000000E+00  0.00000000000E+00 -0.19689566434E+03  0.21140915800E+03  0.76980058780E+02 0.  0.
         66    2    3    3    0    0  0.36789648337E+01 -0.38272206343E+02 -0.10149845063E+03  0.10855520276E+03  0.20000013017E+01 0.  0.
         13    1    3    3    0    0 -0.36789648337E+01  0.38272206343E+02 -0.95397213706E+02  0.10285395524E+03  0.10566000000E+00 0. -1.
         13    1    4    4    0    0  0.23168433185E+01 -0.21198825556E+02 -0.53716467005E+02  0.57794705289E+02  0.10566000000E+00 0. -1.
        -13    1    4    4    0    0  0.24078379715E+00 -0.33137263397E+01 -0.89191823869E+01  0.95184945017E+01  0.10566000000E+00 0.  1.
         14    1    4    4    0    0  0.11213377180E+01 -0.13759654448E+02 -0.38862801238E+02  0.41242002969E+02  0.00000000000E+00 0. -1.
<mgrwt>
<rscale>  0 0.76980059E+02</rscale>
<asrwt>0</asrwt>
<pdfrwt beam="1">  1        1 0.31408059E-01 0.76980059E+02</pdfrwt>
<pdfrwt beam="2">  1       -2 0.11164227E-02 0.76980059E+02</pdfrwt>
<totfact> 0.18536556E+05</totfact>
</mgrwt>
</event>
<event>
 8    1  0.8247621E-018  0.7827491E+02  0.7818608E-02  0.1334020E+00
          1   -1    0    0  501    0  0.00000000000E+00  0.00000000000E+00  0.10386267075E+03  0.10386267088E+03  0.50400000000E-02 0. -1.
         -2   -1    0    0    0  501 -0.00000000000E+00 -0.00000000000E+00 -0.14747745760E+02  0.14747745981E+02  0.25500000000E-02 0.  1.
        -24    2    1    2    0    0  0.00000000000E+00  0.00000000000E+00  0.89114924994E+02  0.11861041686E+03  0.78274907412E+02 0.  0.
         66    2    3    3    0    0  0.19431587373E+02 -0.20596612929E+02  0.37033001068E+01  0.28627285761E+02  0.20000015888E+01 0.  0.
         13    1    3    3    0    0 -0.19431587373E+02  0.20596612929E+02  0.85411624887E+02  0.89983131096E+02  0.10566000000E+00 0. -1.
         13    1    4    4    0    0  0.38390412031E+01 -0.33283136540E+01  0.60352023697E+00  0.51177446058E+01  0.10566000000E+00 0.  1.
        -13    1    4    4    0    0  0.13654194062E+02 -0.14930614368E+02  0.22597704688E+01  0.20358732463E+02  0.10566000000E+00 0.  1.
        -14    1    4    4    0    0  0.19383521075E+01 -0.23376849070E+01  0.84000940102E+00  0.31508086916E+01  0.00000000000E+00 0.  1.
<mgrwt>
<rscale>  0 0.78274907E+02</rscale>
<asrwt>0</asrwt>
<pdfrwt beam="1">  1        1 0.15978872E-01 0.78274907E+02</pdfrwt>
<pdfrwt beam="2">  1       -2 0.22688841E-02 0.78274907E+02</pdfrwt>
<totfact> 0.15688860E+05</totfact>
</mgrwt>
</event>
<event>
 8    1  0.8247621E-018  0.8596324E+02  0.7818608E-02  0.1312933E+00
         -2   -1    0    0    0  501 -0.00000000000E+00  0.00000000000E+00  0.16387337153E+02  0.16387337352E+02  0.25500000000E-02 0.  1.
          1   -1    0    0  501    0  0.00000000000E+00 -0.00000000000E+00 -0.11273459438E+03  0.11273459450E+03  0.50400000000E-02 0. -1.
        -24    2    1    2    0    0  0.00000000000E+00  0.00000000000E+00 -0.96347257232E+02  0.12912193185E+03  0.85963243939E+02 0.  0.
         66    2    3    3    0    0  0.21940051630E+02 -0.28047214881E+02 -0.12106330686E+02  0.37663979776E+02  0.20000004391E+01 0.  0.
         13    1    3    3    0    0 -0.21940051630E+02  0.28047214881E+02 -0.84240926546E+02  0.91457952074E+02  0.10566000000E+00 0. -1.
         13    1    4    4    0    0  0.12760271545E+02 -0.15486814684E+02 -0.61223034413E+01  0.20979983852E+02  0.10566000000E+00 0. -1.
        -13    1    4    4    0    0  0.32907257618E+01 -0.44689746746E+01 -0.17802808901E+01  0.58293374207E+01  0.10566000000E+00 0.  1.
         14    1    4    4    0    0  0.58890543231E+01 -0.80914255226E+01 -0.42037463543E+01  0.10854658503E+02  0.00000000000E+00 0. -1.
<mgrwt>
<rscale>  0 0.85963244E+02</rscale>
<asrwt>0</asrwt>
<pdfrwt beam="1">  1        1 0.17343783E-01 0.85963244E+02</pdfrwt>
<pdfrwt beam="2">  1       -2 0.25211289E-02 0.85963244E+02</pdfrwt>
<totfact> 0.12350878E+05</totfact>
</mgrwt>
</event>
<event>
 8    1  0.8247621E-018  0.8075632E+02  0.7818608E-02  0.1326919E+00
          1   -1    0    0  501    0  0.00000000000E+00  0.00000000000E+00  0.31113683496E+02  0.31113683905E+02  0.50400000000E-02 0. -1.
         -2   -1    0    0    0  501 -0.00000000000E+00 -0.00000000000E+00 -0.52401241048E+02  0.52401241110E+02  0.25500000000E-02 0.  1.
        -24    2    1    2    0    0  0.71054273576E-14  0.00000000000E+00 -0.21287557551E+02  0.83514925014E+02  0.80756316122E+02 0.  0.
         66    2    3    3    0    0 -0.33368639052E+02 -0.12076798596E+02 -0.30517880707E+02  0.46847157614E+02  0.19999992891E+01 0.  0.
         13    1    3    3    0    0  0.33368639052E+02  0.12076798596E+02  0.92303231554E+01  0.36667767400E+02  0.10566000000E+00 0. -1.
         13    1    4    4    0    0 -0.66969497909E+01 -0.30357481337E+01 -0.60763781271E+01  0.95393101644E+01  0.10566000000E+00 0. -1.
        -13    1    4    4    0    0 -0.17362404952E+02 -0.64596322884E+01 -0.16187969193E+02  0.24601655750E+02  0.10566000000E+00 0.  1.
         14    1    4    4    0    0 -0.93092843091E+01 -0.25814181737E+01 -0.82535333868E+01  0.12706191699E+02  0.00000000000E+00 0. -1.
<mgrwt>
<rscale>  0 0.80756316E+02</rscale>
<asrwt>0</asrwt>
<pdfrwt beam="1">  1        1 0.47867206E-02 0.80756316E+02</pdfrwt>
<pdfrwt beam="2">  1       -2 0.80617294E-02 0.80756316E+02</pdfrwt>
<totfact> 0.11848366E+05</totfact>
</mgrwt>
</event>
<event>
 8    1  0.8247621E-018  0.7875632E+02  0.7818608E-02  0.1332618E+00
         -2   -1    0    0    0  501 -0.00000000000E+00  0.00000000000E+00  0.12936495366E+03  0.12936495369E+03  0.25500000000E-02 0.  1.
          1   -1    0    0  501    0  0.00000000000E+00 -0.00000000000E+00 -0.11986549709E+02  0.11986550768E+02  0.50400000000E-02 0. -1.
        -24    2    1    2    0    0  0.00000000000E+00  0.00000000000E+00  0.11737840396E+03  0.14135150446E+03  0.78756321000E+02 0.  0.
         66    2    3    3    0    0 -0.14203184617E+02  0.32819234956E+02  0.88207628582E+02  0.95201987274E+02  0.20000011568E+01 0.  0.
         13    1    3    3    0    0  0.14203184617E+02 -0.32819234956E+02  0.29170775375E+02  0.46149517184E+02  0.10566000000E+00 0. -1.
         13    1    4    4    0    0 -0.15238057913E+01  0.40634698304E+01  0.93410910118E+01  0.10300529913E+02  0.10566000000E+00 0. -1.
        -13    1    4    4    0    0 -0.12466441182E+02  0.28005992533E+02  0.76729657614E+02  0.82626867877E+02  0.10566000000E+00 0.  1.
         14    1    4    4    0    0 -0.21293764404E+00  0.74977259256E+00  0.21368799554E+01  0.22745894849E+01  0.00000000000E+00 0. -1.
<mgrwt>
<rscale>  0 0.78756321E+02</rscale>
<asrwt>0</asrwt>
<pdfrwt beam="1">  1        1 0.18440847E-02 0.78756321E+02</pdfrwt>
<pdfrwt beam="2">  1       -2 0.19902300E-01 0.78756321E+02</pdfrwt>
<totfact> 0.10304110E+05</totfact>
</mgrwt>
</event>
<event>
 8    1  0.8247621E-018  0.7845681E+02  0.7818608E-02  0.1333489E+00
         -2   -1    0    0    0  501 -0.00000000000E+00  0.00000000000E+00  0.16381095103E+03  0.16381095105E+03  0.25500000000E-02 0.  1.
          1   -1    0    0  501    0  0.00000000000E+00 -0.00000000000E+00 -0.93941693318E+01  0.93941706838E+01  0.50400000000E-02 0. -1.
        -24    2    1    2    0    0  0.00000000000E+00 -0.88817841970E-15  0.15441678170E+03  0.17320512173E+03  0.78456814393E+02 0.  0.
         66    2    3    3    0    0  0.24691376952E+02 -0.50316065060E+01  0.14355710273E+03  0.14576564376E+03  0.19999996887E+01 0.  0.
         13    1    3    3    0    0 -0.24691376952E+02  0.50316065060E+01  0.10859678971E+02  0.27439477969E+02  0.10566000000E+00 0. -1.
         13    1    4    4    0    0  0.62241131738E+00 -0.33968317230E+00  0.43289509793E+01  0.43879107924E+01  0.10566000000E+00 0.  1.
        -13    1    4    4    0    0  0.13023809251E+02 -0.21520326353E+01  0.78117087968E+02  0.79224626528E+02  0.10566000000E+00 0.  1.
        -14    1    4    4    0    0  0.11045156384E+02 -0.25398906984E+01  0.61111063780E+02  0.62153106444E+02  0.00000000000E+00 0.  1.
<mgrwt>
<rscale>  0 0.78456814E+02</rscale>
<asrwt>0</asrwt>
<pdfrwt beam="1">  1        1 0.14452569E-02 0.78456814E+02</pdfrwt>
<pdfrwt beam="2">  1       -2 0.25201686E-01 0.78456814E+02</pdfrwt>
<totfact> 0.96445957E+04</totfact>
</mgrwt>
</event>
<event>
 8    1  0.8247621E-018  0.8135899E+02  0.7818608E-02  0.1325238E+00
          1   -1    0    0  501    0  0.00000000000E+00  0.00000000000E+00  0.67112774840E+02  0.67112775029E+02  0.50400000000E-02 0. -1.
         -2   -1    0    0    0  501 -0.00000000000E+00 -0.00000000000E+00 -0.24657321662E+02  0.24657321794E+02  0.25500000000E-02 0.  1.
        -24    2    1    2    0    0  0.00000000000E+00  0.00000000000E+00  0.42455453178E+02  0.91770096823E+02  0.81358989462E+02 0.  0.
         66    2    3    3    0    0  0.21743102907E+02 -0.26595620440E+01 -0.17390934478E+02  0.28040691728E+02  0.19999990730E+01 0.  0.
         13    1    3    3    0    0 -0.21743102907E+02  0.26595620440E+01  0.59846387656E+02  0.63729405095E+02  0.10566000000E+00 0. -1.
         13    1    4    4    0    0  0.32863720295E+01  0.17278983982E+00 -0.22047809328E+01  0.39626153538E+01  0.10566000000E+00 0. -1.
        -13    1    4    4    0    0  0.13148589709E+02 -0.22291312486E+01 -0.10560160061E+02  0.17011248691E+02  0.10566000000E+00 0.  1.
        -14    1    4    4    0    0  0.53081411675E+01 -0.60322063518E+00 -0.46259934839E+01  0.70668276831E+01  0.00000000000E+00 0.  1.
<mgrwt>
<rscale>  0 0.81358989E+02</rscale>
<asrwt>0</asrwt>
<pdfrwt beam="1">  1        1 0.10325042E-01 0.81358989E+02</pdfrwt>
<pdfrwt beam="2">  1       -2 0.37934341E-02 0.81358989E+02</pdfrwt>
<totfact> 0.13155764E+05</totfact>
</mgrwt>
</event>
<event>
 8    1  0.8247621E-018  0.7869375E+02  0.7818608E-02  0.1332800E+00
         -2   -1    0    0    0  501 -0.00000000000E+00  0.00000000000E+00  0.19970466054E+03  0.19970466056E+03  0.25500000000E-02 0.  1.
          1   -1    0    0  501    0  0.00000000000E+00 -0.00000000000E+00 -0.77523290188E+01  0.77523306571E+01  0.50400000000E-02 0. -1.
        -24    2    1    2    0    0 -0.11102230246E-15 -0.35527136788E-14  0.19195233153E+03  0.20745699122E+03  0.78693745793E+02 0.  0.
         66    2    3    3    0    0  0.82987482517E+00  0.27388944147E+02  0.17038458940E+03  0.17258548970E+03  0.19999990149E+01 0.  0.
         13    1    3    3    0    0 -0.82987482517E+00 -0.27388944147E+02  0.21567742127E+02  0.34871501519E+02  0.10566000000E+00 0. -1.
         13    1    4    4    0    0 -0.28606557253E-01  0.14006723193E+02  0.83410631730E+02  0.84578565621E+02  0.10566000000E+00 0. -1.
        -13    1    4    4    0    0  0.39699610371E+00  0.87797344307E+01  0.54160145382E+02  0.54868696489E+02  0.10566000000E+00 0.  1.
         14    1    4    4    0    0  0.46148527871E+00  0.46024865233E+01  0.32813812288E+02  0.33138227589E+02  0.00000000000E+00 0. -1.
<mgrwt>
<rscale>  0 0.78693746E+02</rscale>
<asrwt>0</asrwt>
<pdfrwt beam="1">  1        1 0.11926662E-02 0.78693746E+02</pdfrwt>
<pdfrwt beam="2">  1       -2 0.30723792E-01 0.78693746E+02</pdfrwt>
<totfact> 0.88818042E+04</totfact>
</mgrwt>
</event>
<event>
 8    1  0.8247621E-018  0.7925444E+02  0.7818608E-02  0.1331181E+00
          1   -1    0    0  501    0  0.00000000000E+00  0.00000000000E+00  0.33735744058E+01  0.33735781706E+01  0.50400000000E-02 0. -1.
         -2   -1    0    0    0  501 -0.00000000000E+00 -0.00000000000E+00 -0.46547534182E+03  0.46547534182E+03  0.25500000000E-02 0.  1.
        -24    2    1    2    0    0  0.00000000000E+00 -0.35527136788E-14 -0.46210176741E+03  0.46884892000E+03  0.79254440478E+02 0.  0.
         66    2    3    3    0    0 -0.35201406809E+01  0.20864642400E+02 -0.42922811433E+03  0.42975399802E+03  0.19999986026E+01 0.  0.
         13    1    3    3    0    0  0.35201406809E+01 -0.20864642400E+02 -0.32873653083E+02  0.39094921971E+02  0.10566000000E+00 0. -1.
         13    1    4    4    0    0 -0.15080739657E+01  0.63616912290E+01 -0.12567171679E+03  0.12584171394E+03  0.10566000000E+00 0. -1.
        -13    1    4    4    0    0 -0.10575605154E+01  0.10651931761E+02 -0.21240817079E+03  0.21267774747E+03  0.10566000000E+00 0.  1.
        -14    1    4    4    0    0 -0.95450619978E+00  0.38510194097E+01 -0.91148226743E+02  0.91234536613E+02  0.00000000000E+00 0.  1.
<mgrwt>
<rscale>  0 0.79254440E+02</rscale>
<asrwt>0</asrwt>
<pdfrwt beam="1">  1        1 0.51901211E-03 0.79254440E+02</pdfrwt>
<pdfrwt beam="2">  1       -2 0.71611540E-01 0.79254440E+02</pdfrwt>
<totfact> 0.54466401E+04</totfact>
</mgrwt>
</event>
<event>
 8    1  0.8247621E-018  0.7986562E+02  0.7818608E-02  0.1329433E+00
         -2   -1    0    0    0  501 -0.00000000000E+00  0.00000000000E+00  0.21911231319E+03  0.21911231320E+03  0.25500000000E-02 0.  1.
          1   -1    0    0  501    0  0.00000000000E+00 -0.00000000000E+00 -0.72776796030E+01  0.72776813482E+01  0.50400000000E-02 0. -1.
        -24    2    1    2    0    0 -0.13877787808E-16  0.00000000000E+00  0.21183463359E+03  0.22638999455E+03  0.79865622434E+02 0.  0.
         66    2    3    3    0    0  0.10925520886E+00 -0.18787594177E+02  0.20578685984E+03  0.20665240699E+03  0.19999996774E+01 0.  0.
         13    1    3    3    0    0 -0.10925520886E+00  0.18787594177E+02  0.60477737474E+01  0.19737587567E+02  0.10566000000E+00 0. -1.
         13    1    4    4    0    0 -0.16169374797E+00 -0.96538591352E+01  0.11107300526E+03  0.11149191362E+03  0.10566000000E+00 0. -1.
        -13    1    4    4    0    0 -0.19818765552E-01 -0.61574923470E+01  0.68639213220E+02  0.68914932056E+02  0.10566000000E+00 0.  1.
        -14    1    4    4    0    0  0.29076772238E+00 -0.29762426944E+01  0.26074641359E+02  0.26245561309E+02  0.00000000000E+00 0.  1.
<mgrwt>
<rscale>  0 0.79865622E+02</rscale>
<asrwt>0</asrwt>
<pdfrwt beam="1">  1        1 0.11196431E-02 0.79865622E+02</pdfrwt>
<pdfrwt beam="2">  1       -2 0.33709587E-01 0.79865622E+02</pdfrwt>
<totfact> 0.82237340E+04</totfact>
</mgrwt>
</event>
<event>
 8    1  0.8247621E-018  0.8138943E+02  0.7818608E-02  0.1325154E+00
          1   -1    0    0  501    0  0.00000000000E+00  0.00000000000E+00  0.77118822216E+01  0.77118838685E+01  0.50400000000E-02 0. -1.
         -2   -1    0    0    0  501 -0.00000000000E+00 -0.00000000000E+00 -0.21474132818E+03  0.21474132819E+03  0.25500000000E-02 0.  1.
        -24    2    1    2    0    0  0.00000000000E+00  0.00000000000E+00 -0.20702944595E+03  0.22245321206E+03  0.81389434593E+02 0.  0.
         66    2    3    3    0    0  0.19259979407E+02 -0.34782610350E+02 -0.12697394828E+03  0.13306825436E+03  0.19999973742E+01 0.  0.
         13    1    3    3    0    0 -0.19259979407E+02  0.34782610350E+02 -0.80055497680E+02  0.89384957696E+02  0.10566000000E+00 0. -1.
         13    1    4    4    0    0  0.94338123838E+01 -0.16138854733E+02 -0.57769385006E+02  0.60718798211E+02  0.10566000000E+00 0. -1.
        -13    1    4    4    0    0  0.95308707896E+01 -0.17623108733E+02 -0.65875214450E+02  0.68854676692E+02  0.10566000000E+00 0.  1.
        -14    1    4    4    0    0  0.29529623318E+00 -0.10206468841E+01 -0.33293488192E+01  0.34947794619E+01  0.00000000000E+00 0.  1.
<mgrwt>
<rscale>  0 0.81389435E+02</rscale>
<asrwt>0</asrwt>
<pdfrwt beam="1">  1        1 0.11864437E-02 0.81389435E+02</pdfrwt>
<pdfrwt beam="2">  1       -2 0.33037123E-01 0.81389435E+02</pdfrwt>
<totfact> 0.79002612E+04</totfact>
</mgrwt>
</event>
<event>
 8    1  0.8247621E-018  0.7880935E+02  0.7818608E-02  0.1332465E+00
         -2   -1    0    0    0  501 -0.00000000000E+00  0.00000000000E+00  0.13614924093E+02  0.13614924331E+02  0.25500000000E-02 0.  1.
          1   -1    0    0  501    0  0.00000000000E+00 -0.00000000000E+00 -0.11404605224E+03  0.11404605236E+03  0.50400000000E-02 0. -1.
        -24    2    1    2    0    0  0.17763568394E-14  0.00000000000E+00 -0.10043112815E+03  0.12766097669E+03  0.78809348854E+02 0.  0.
         66    2    3    3    0    0  0.86137167286E+01 -0.21408735090E+02  0.14408788621E+01  0.23207891376E+02  0.20000090497E+01 0.  0.
         13    1    3    3    0    0 -0.86137167286E+01  0.21408735090E+02 -0.10187200701E+03  0.10445308531E+03  0.10566000000E+00 0. -1.
         13    1    4    4    0    0  0.67038403261E+00 -0.10803547264E+01 -0.12710943807E+00  0.12821473905E+01  0.10566000000E+00 0. -1.
        -13    1    4    4    0    0  0.28052623871E+01 -0.63750877130E+01  0.10756253153E+01  0.70483596860E+01  0.10566000000E+00 0.  1.
         14    1    4    4    0    0  0.51380703089E+01 -0.13953292650E+02  0.49236298483E+00  0.14877384299E+02  0.00000000000E+00 0. -1.
<mgrwt>
<rscale>  0 0.78809349E+02</rscale>
<asrwt>0</asrwt>
<pdfrwt beam="1">  1        1 0.17545546E-01 0.78809349E+02</pdfrwt>
<pdfrwt beam="2">  1       -2 0.20946038E-02 0.78809349E+02</pdfrwt>
<totfact> 0.15651130E+05</totfact>
</mgrwt>
</event>
<event>
 8    1  0.8247621E-018  0.8314744E+02  0.7818608E-02  0.1320350E+00
         -2   -1    0    0    0  501 -0.00000000000E+00  0.00000000000E+00  0.10551541675E+04  0.10551541675E+04  0.25500000000E-02 0.  1.
          1   -1    0    0  501    0  0.00000000000E+00 -0.00000000000E+00 -0.16380261952E+01  0.16380339489E+01  0.50400000000E-02 0. -1.
        -24    2    1    2    0    0  0.35527136788E-14  0.00000000000E+00  0.10535161413E+04  0.10567922015E+04  0.83147441695E+02 0.  0.
         66    2    3    3    0    0  0.20459730091E+02  0.12364298606E+02  0.95899018115E+03  0.95929017716E+03  0.20000011051E+01 0.  0.
         13    1    3    3    0    0 -0.20459730091E+02 -0.12364298606E+02  0.94525960191E+02  0.97502024335E+02  0.10566000000E+00 0. -1.
         13    1    4    4    0    0  0.10422993764E+01  0.72767683059E+00  0.44982974602E+02  0.45001056317E+02  0.10566000000E+00 0. -1.
        -13    1    4    4    0    0  0.59253677364E+01  0.33433159979E+01  0.30650924431E+03  0.30658476112E+03  0.10566000000E+00 0.  1.
        -14    1    4    4    0    0  0.13492062978E+02  0.82933057776E+01  0.60749796225E+03  0.60770435972E+03  0.00000000000E+00 0.  1.
<mgrwt>
<rscale>  0 0.83147442E+02</rscale>
<asrwt>0</asrwt>
<pdfrwt beam="1">  1        1 0.25200530E-03 0.83147442E+02</pdfrwt>
<pdfrwt beam="2">  1       -2 0.16233097E+00 0.83147442E+02</pdfrwt>
<totfact> 0.22140109E+04</totfact>
</mgrwt>
</event>
<event>
 8    1  0.8247621E-018  0.8039520E+02  0.7818608E-02  0.1327934E+00
          1   -1    0    0  501    0  0.00000000000E+00  0.00000000000E+00  0.51633211198E+01  0.51633235796E+01  0.50400000000E-02 0. -1.
         -2   -1    0    0    0  501 -0.00000000000E+00 -0.00000000000E+00 -0.31294714775E+03  0.31294714776E+03  0.25500000000E-02 0.  1.
        -24    2    1    2    0    0  0.00000000000E+00  0.35527136788E-14 -0.30778382663E+03  0.31811047134E+03  0.80395199117E+02 0.  0.
         66    2    3    3    0    0 -0.84573506698E+01  0.23246224233E+02 -0.27923355341E+03  0.28033424884E+03  0.20000003889E+01 0.  0.
         13    1    3    3    0    0  0.84573506698E+01 -0.23246224233E+02 -0.28550273224E+02  0.37776222504E+02  0.10566000000E+00 0. -1.
         13    1    4    4    0    0 -0.16810127937E+01  0.43662520017E+01 -0.48977521474E+02  0.49200596890E+02  0.10566000000E+00 0. -1.
        -13    1    4    4    0    0 -0.60696183448E+01  0.16512044550E+02 -0.20722392569E+03  0.20796935934E+03  0.10566000000E+00 0.  1.
        -14    1    4    4    0    0 -0.70671953135E+00  0.23679276806E+01 -0.23032106241E+02  0.23164292605E+02  0.00000000000E+00 0.  1.
<mgrwt>
<rscale>  0 0.80395199E+02</rscale>
<asrwt>0</asrwt>
<pdfrwt beam="1">  1        1 0.79435753E-03 0.80395199E+02</pdfrwt>
<pdfrwt beam="2">  1       -2 0.48145700E-01 0.80395199E+02</pdfrwt>
<totfact> 0.67780864E+04</totfact>
</mgrwt>
</event>
<event>
 8    1  0.8247621E-018  0.7961029E+02  0.7818608E-02  0.1330161E+00
          1   -1    0    0  501    0  0.00000000000E+00  0.00000000000E+00  0.15755035398E+02  0.15755036204E+02  0.50400000000E-02 0. -1.
         -2   -1    0    0    0  501 -0.00000000000E+00 -0.00000000000E+00 -0.10056781438E+03  0.10056781442E+03  0.25500000000E-02 0.  1.
        -24    2    1    2    0    0 -0.71054273576E-14  0.44408920985E-15 -0.84812778986E+02  0.11632285062E+03  0.79610288890E+02 0.  0.
         66    2    3    3    0    0 -0.33906711695E+02  0.20731995375E+01 -0.72678649453E+02  0.80250541049E+02  0.19999994914E+01 0.  0.
         13    1    3    3    0    0  0.33906711695E+02 -0.20731995375E+01 -0.12134129533E+02  0.36072309572E+02  0.10566000000E+00 0. -1.
         13    1    4    4    0    0 -0.15794535807E+01  0.46840293863E+00 -0.35380432536E+01  0.39042270716E+01  0.10566000000E+00 0. -1.
        -13    1    4    4    0    0 -0.73594594635E+01  0.63392325037E+00 -0.15285306727E+02  0.16976903959E+02  0.10566000000E+00 0.  1.
        -14    1    4    4    0    0 -0.24967798651E+02  0.97087334846E+00 -0.53855299473E+02  0.59369410018E+02  0.00000000000E+00 0.  1.
<mgrwt>
<rscale>  0 0.79610289E+02</rscale>
<asrwt>0</asrwt>
<pdfrwt beam="1">  1        1 0.24238517E-02 0.79610289E+02</pdfrwt>
<pdfrwt beam="2">  1       -2 0.15471971E-01 0.79610289E+02</pdfrwt>
<totfact> 0.10731133E+05</totfact>
</mgrwt>
</event>
<event>
 8    1  0.8247621E-018  0.7957019E+02  0.7818608E-02  0.1330276E+00
          1   -1    0    0  501    0  0.00000000000E+00  0.00000000000E+00  0.30098636782E+02  0.30098637204E+02  0.50400000000E-02 0. -1.
         -2   -1    0    0    0  501 -0.00000000000E+00 -0.00000000000E+00 -0.52588879258E+02  0.52588879320E+02  0.25500000000E-02 0.  1.
        -24    2    1    2    0    0  0.00000000000E+00  0.00000000000E+00 -0.22490242477E+02  0.82687516524E+02  0.79570185260E+02 0.  0.
         66    2    3    3    0    0 -0.18373979082E+02  0.33496704541E+02  0.18895590690E+00  0.38257914615E+02  0.20000009701E+01 0.  0.
         13    1    3    3    0    0  0.18373979082E+02 -0.33496704541E+02 -0.22679198384E+02  0.44429601909E+02  0.10566000000E+00 0. -1.
         13    1    4    4    0    0 -0.73312976174E+01  0.12252088852E+02 -0.71511488004E+00  0.14296298798E+02  0.10566000000E+00 0. -1.
        -13    1    4    4    0    0 -0.74606884746E+01  0.14150566453E+02  0.65348271816E+00  0.16010577977E+02  0.10566000000E+00 0.  1.
         14    1    4    4    0    0 -0.35819929904E+01  0.70940492363E+01  0.25058806878E+00  0.79510378399E+01  0.00000000000E+00 0. -1.
<mgrwt>
<rscale>  0 0.79570185E+02</rscale>
<asrwt>0</asrwt>
<pdfrwt beam="1">  1        1 0.46305596E-02 0.79570185E+02</pdfrwt>
<pdfrwt beam="2">  1       -2 0.80905968E-02 0.79570185E+02</pdfrwt>
<totfact> 0.12290514E+05</totfact>
</mgrwt>
</event>
<event>
 8    1  0.8247621E-018  0.8000536E+02  0.7818608E-02  0.1329036E+00
          1   -1    0    0  501    0  0.00000000000E+00  0.00000000000E+00  0.50216982390E+01  0.50217007681E+01  0.50400000000E-02 0. -1.
         -2   -1    0    0    0  501 -0.00000000000E+00 -0.00000000000E+00 -0.31865991089E+03  0.31865991090E+03  0.25500000000E-02 0.  1.
        -24    2    1    2    0    0  0.00000000000E+00  0.00000000000E+00 -0.31363821265E+03  0.32368161166E+03  0.80005357928E+02 0.  0.
         66    2    3    3    0    0  0.29149654774E+02  0.26346805602E+02 -0.18674386187E+03  0.19084319869E+03  0.20000001291E+01 0.  0.
         13    1    3    3    0    0 -0.29149654774E+02 -0.26346805602E+02 -0.12689435077E+03  0.13283841297E+03  0.10566000000E+00 0. -1.
         13    1    4    4    0    0  0.13389651655E+02  0.13019336801E+02 -0.87147318430E+02  0.89126046562E+02  0.10566000000E+00 0. -1.
        -13    1    4    4    0    0  0.49725384570E+01  0.47791306459E+01 -0.33489560609E+02  0.34192514711E+02  0.10566000000E+00 0.  1.
        -14    1    4    4    0    0  0.10787464662E+02  0.85483381555E+01 -0.66106982834E+02  0.67524637419E+02  0.00000000000E+00 0.  1.
<mgrwt>
<rscale>  0 0.80005358E+02</rscale>
<asrwt>0</asrwt>
<pdfrwt beam="1">  1        1 0.77256941E-03 0.80005358E+02</pdfrwt>
<pdfrwt beam="2">  1       -2 0.49024586E-01 0.80005358E+02</pdfrwt>
<totfact> 0.67941027E+04</totfact>
</mgrwt>
</event>
<event>
 8    1  0.8247621E-018  0.7839382E+02  0.7818608E-02  0.1333672E+00
         -2   -1    0    0    0  501 -0.00000000000E+00  0.00000000000E+00  0.10223502841E+03  0.10223502845E+03  0.25500000000E-02 0.  1.
          1   -1    0    0  501    0  0.00000000000E+00 -0.00000000000E+00 -0.15028093289E+02  0.15028094134E+02  0.50400000000E-02 0. -1.
        -24    2    1    2    0    0  0.00000000000E+00  0.00000000000E+00  0.87206935124E+02  0.11726312258E+03  0.78393815977E+02 0.  0.
         66    2    3    3    0    0  0.25931589161E+02  0.24582526942E+02  0.67641664025E+02  0.76525438005E+02  0.20000006566E+01 0.  0.
         13    1    3    3    0    0 -0.25931589161E+02 -0.24582526942E+02  0.19565271099E+02  0.40737684574E+02  0.10566000000E+00 0. -1.
         13    1    4    4    0    0  0.91892214250E+01  0.88979737636E+01  0.25270072171E+02  0.28323196131E+02  0.10566000000E+00 0. -1.
        -13    1    4    4    0    0  0.72917805345E+01  0.77271170234E+01  0.19820156221E+02  0.22488400511E+02  0.10566000000E+00 0.  1.
        -14    1    4    4    0    0  0.94505872012E+01  0.79574361548E+01  0.22551435633E+02  0.25713841364E+02  0.00000000000E+00 0.  1.
<mgrwt>
<rscale>  0 0.78393816E+02</rscale>
<asrwt>0</asrwt>
<pdfrwt beam="1">  1        1 0.23120144E-02 0.78393816E+02</pdfrwt>
<pdfrwt beam="2">  1       -2 0.15728466E-01 0.78393816E+02</pdfrwt>
<totfact> 0.11116610E+05</totfact>
</mgrwt>
</event>
<event>
 8    1  0.8247621E-018  0.8001641E+02  0.7818608E-02  0.1329005E+00
         -2   -1    0    0    0  501 -0.00000000000E+00  0.00000000000E+00  0.50424016880E+01  0.50424023328E+01  0.25500000000E-02 0.  1.
          1   -1    0    0  501    0  0.00000000000E+00 -0.00000000000E+00 -0.31743926681E+03  0.31743926685E+03  0.50400000000E-02 0. -1.
        -24    2    1    2    0    0  0.00000000000E+00  0.00000000000E+00 -0.31239686512E+03  0.32248166918E+03  0.80016408448E+02 0.  0.
         66    2    3    3    0    0  0.25763974444E+02 -0.29462954906E+02 -0.12335562899E+03  0.12943129178E+03  0.19999996714E+01 0.  0.
         13    1    3    3    0    0 -0.25763974444E+02  0.29462954906E+02 -0.18904123614E+03  0.19305037740E+03  0.10566000000E+00 0. -1.
         13    1    4    4    0    0  0.89535327161E+01 -0.93441682664E+01 -0.38588742551E+02  0.40701123380E+02  0.10566000000E+00 0. -1.
        -13    1    4    4    0    0  0.12176048739E+02 -0.14664622266E+02 -0.60900084649E+02  0.63813311961E+02  0.10566000000E+00 0.  1.
         14    1    4    4    0    0  0.46343929896E+01 -0.54541643742E+01 -0.23866801785E+02  0.24916856440E+02  0.00000000000E+00 0. -1.
<mgrwt>
<rscale>  0 0.80016408E+02</rscale>
<asrwt>0</asrwt>
<pdfrwt beam="1">  1        1 0.48836795E-01 0.80016408E+02</pdfrwt>
<pdfrwt beam="2">  1       -2 0.77575441E-03 0.80016408E+02</pdfrwt>
<totfact> 0.18225088E+05</totfact>
</mgrwt>
</event>
<event>
 8    1  0.9614755E-018  0.7972192E+02  0.7818608E-02  0.1329842E+00
          1   -1    0    0  501    0  0.00000000000E+00  0.00000000000E+00  0.18578189978E+02  0.18578190661E+02  0.50400000000E-02 0. -1.
         -2   -1    0    0    0  501 -0.00000000000E+00 -0.00000000000E+00 -0.85524812888E+02  0.85524812926E+02  0.25500000000E-02 0.  1.
        -24    2    1    2    0    0 -0.17763568394E-14  0.00000000000E+00 -0.66946622910E+02  0.10410300359E+03  0.79721923188E+02 0.  0.
         66    2    3    3    0    0 -0.93359980786E+01  0.92568348349E+01 -0.82598284936E+02  0.83661977696E+02  0.19999966063E+01 0.  0.
         13    1    3    3    0    0  0.93359980786E+01 -0.92568348349E+01  0.15651662026E+02  0.20441025891E+02  0.10566000000E+00 0. -1.
         13    1    4    4    0    0 -0.90273115528E+00  0.52707572246E+00 -0.48811334298E+01  0.49929309980E+01  0.10566000000E+00 0. -1.
        -13    1    4    4    0    0 -0.73168960945E+01  0.70889968520E+01 -0.62951966952E+02  0.63771091821E+02  0.10566000000E+00 0.  1.
        -14    1    4    4    0    0 -0.11163708288E+01  0.16407622605E+01 -0.14765184554E+02  0.14897954877E+02  0.00000000000E+00 0.  1.
<mgrwt>
<rscale>  0 0.79721923E+02</rscale>
<asrwt>0</asrwt>
<pdfrwt beam="1">  1        1 0.28581832E-02 0.79721923E+02</pdfrwt>
<pdfrwt beam="2">  1       -2 0.13157663E-01 0.79721923E+02</pdfrwt>
<totfact> 0.11110955E+05</totfact>
</mgrwt>
</event>
<event>
 8    1  0.8247621E-018  0.7729848E+02  0.7818608E-02  0.1336898E+00
         -2   -1    0    0    0  501 -0.00000000000E+00  0.00000000000E+00  0.99391266244E+02  0.99391266276E+02  0.25500000000E-02 0.  1.
          1   -1    0    0  501    0  0.00000000000E+00 -0.00000000000E+00 -0.15029124099E+02  0.15029124944E+02  0.50400000000E-02 0. -1.
        -24    2    1    2    0    0  0.00000000000E+00  0.00000000000E+00  0.84362142145E+02  0.11442039122E+03  0.77298479285E+02 0.  0.
         66    2    3    3    0    0 -0.18534715231E+02 -0.28976858767E+02  0.68211165250E+02  0.76419611868E+02  0.20000001381E+01 0.  0.
         13    1    3    3    0    0  0.18534715231E+02  0.28976858767E+02  0.16150976895E+02  0.38000779352E+02  0.10566000000E+00 0. -1.
         13    1    4    4    0    0 -0.57399097097E+01 -0.76302702527E+01  0.19672409388E+02  0.21867383080E+02  0.10566000000E+00 0. -1.
        -13    1    4    4    0    0 -0.57658929983E+01 -0.94685060044E+01  0.22394648949E+02  0.24988589268E+02  0.10566000000E+00 0.  1.
         14    1    4    4    0    0 -0.70289125235E+01 -0.11878082510E+02  0.26144106914E+02  0.29563639520E+02  0.00000000000E+00 0. -1.
<mgrwt>
<rscale>  0 0.77298479E+02</rscale>
<asrwt>0</asrwt>
<pdfrwt beam="1">  1        1 0.23121731E-02 0.77298479E+02</pdfrwt>
<pdfrwt beam="2">  1       -2 0.15290963E-01 0.77298479E+02</pdfrwt>
<totfact> 0.11604896E+05</totfact>
</mgrwt>
</event>
<event>
 8    1  0.8247621E-018  0.8090955E+02  0.7818608E-02  0.1326490E+00
          1   -1    0    0  501    0  0.00000000000E+00  0.00000000000E+00  0.17631375230E+03  0.17631375237E+03  0.50400000000E-02 0. -1.
         -2   -1    0    0    0  501 -0.00000000000E+00 -0.00000000000E+00 -0.92822531873E+01  0.92822535376E+01  0.25500000000E-02 0.  1.
        -24    2    1    2    0    0  0.00000000000E+00  0.00000000000E+00  0.16703149911E+03  0.18559600591E+03  0.80909552673E+02 0.  0.
         66    2    3    3    0    0  0.28168860144E+02  0.83909449526E+01  0.19885757325E+02  0.35543438023E+02  0.20000007810E+01 0.  0.
         13    1    3    3    0    0 -0.28168860144E+02 -0.83909449526E+01  0.14714574179E+03  0.15005256788E+03  0.10566000000E+00 0. -1.
         13    1    4    4    0    0  0.98467315223E+01  0.31211067123E+01  0.61967733466E+01  0.12046185817E+02  0.10566000000E+00 0. -1.
        -13    1    4    4    0    0  0.11371329488E+02  0.27135543382E+01  0.82676298697E+01  0.14319056504E+02  0.10566000000E+00 0.  1.
         14    1    4    4    0    0  0.69507991332E+01  0.25562839022E+01  0.54213541083E+01  0.91781957021E+01  0.00000000000E+00 0. -1.
<mgrwt>
<rscale>  0 0.80909553E+02</rscale>
<asrwt>0</asrwt>
<pdfrwt beam="1">  1        1 0.27125191E-01 0.80909553E+02</pdfrwt>
<pdfrwt beam="2">  1       -2 0.14280391E-02 0.80909553E+02</pdfrwt>
<totfact> 0.15791072E+05</totfact>
</mgrwt>
</event>
<event>
 8    1  0.8247621E-018  0.7845456E+02  0.7818608E-02  0.1333495E+00
         -2   -1    0    0    0  501 -0.00000000000E+00  0.00000000000E+00  0.26277938071E+02  0.26277938195E+02  0.25500000000E-02 0.  1.
          1   -1    0    0  501    0  0.00000000000E+00 -0.00000000000E+00 -0.58557851529E+02  0.58557851746E+02  0.50400000000E-02 0. -1.
        -24    2    1    2    0    0  0.35527136788E-14 -0.88817841970E-15 -0.32279913457E+02  0.84835789941E+02  0.78454562914E+02 0.  0.
         66    2    3    3    0    0  0.19236637738E+02 -0.57354281447E+01  0.20260794707E+02  0.28590963104E+02  0.20000004099E+01 0.  0.
         13    1    3    3    0    0 -0.19236637738E+02  0.57354281447E+01 -0.52540708164E+02  0.56244826836E+02  0.10566000000E+00 0. -1.
         13    1    4    4    0    0  0.98324223463E+01 -0.31515083956E+01  0.11113236829E+02  0.15169829637E+02  0.10566000000E+00 0.  1.
        -13    1    4    4    0    0  0.85559265338E+01 -0.26484052582E+01  0.81489100417E+01  0.12109245566E+02  0.10566000000E+00 0. -1.
        -14    1    4    4    0    0  0.84828885752E+00  0.64485509054E-01  0.99864783580E+00  0.13118879017E+01  0.00000000000E+00 0.  1.
<mgrwt>
<rscale>  0 0.78454563E+02</rscale>
<asrwt>0</asrwt>
<pdfrwt beam="1">  1        1 0.90089003E-02 0.78454563E+02</pdfrwt>
<pdfrwt beam="2">  1       -2 0.40427597E-02 0.78454563E+02</pdfrwt>
<totfact> 0.14231719E+05</totfact>
</mgrwt>
</event>
<event>
 8    1  0.8247621E-018  0.8008856E+02  0.7818608E-02  0.1328800E+00
          1   -1    0    0  501    0  0.00000000000E+00  0.00000000000E+00  0.22719659264E+03  0.22719659269E+03  0.50400000000E-02 0. -1.
         -2   -1    0    0    0  501 -0.00000000000E+00 -0.00000000000E+00 -0.70579593856E+01  0.70579598463E+01  0.25500000000E-02 0.  1.
        -24    2    1    2    0    0  0.00000000000E+00  0.17763568394E-14  0.22013863325E+03  0.23425455254E+03  0.80088560578E+02 0.  0.
         66    2    3    3    0    0 -0.33921150845E+02  0.13882577710E+02  0.63140826469E+02  0.73035158739E+02  0.20000016019E+01 0.  0.
         13    1    3    3    0    0  0.33921150845E+02 -0.13882577710E+02  0.15699780678E+03  0.16121939380E+03  0.10566000000E+00 0. -1.
         13    1    4    4    0    0 -0.19560456400E+01  0.10431573438E+01  0.40768826104E+01  0.46418129695E+01  0.10566000000E+00 0. -1.
        -13    1    4    4    0    0 -0.11957583279E+02  0.56198454991E+01  0.22490821539E+02  0.26084759513E+02  0.10566000000E+00 0.  1.
        -14    1    4    4    0    0 -0.20007521926E+02  0.72195748676E+01  0.36573122319E+02  0.42308586257E+02  0.00000000000E+00 0.  1.
<mgrwt>
<rscale>  0 0.80088561E+02</rscale>
<asrwt>0</asrwt>
<pdfrwt beam="1">  1        1 0.34953327E-01 0.80088561E+02</pdfrwt>
<pdfrwt beam="2">  1       -2 0.10858398E-02 0.80088561E+02</pdfrwt>
<totfact> 0.17043301E+05</totfact>
</mgrwt>
</event>
<event>
 8    1  0.8247621E-018  0.7882673E+02  0.7818608E-02  0.1332414E+00
          1   -1    0    0  501    0  0.00000000000E+00  0.00000000000E+00  0.18842341347E+03  0.18842341354E+03  0.50400000000E-02 0. -1.
         -2   -1    0    0    0  501 -0.00000000000E+00 -0.00000000000E+00 -0.82442690265E+01  0.82442694209E+01  0.25500000000E-02 0.  1.
        -24    2    1    2    0    0 -0.88817841970E-15  0.00000000000E+00  0.18017914444E+03  0.19666768296E+03  0.78826730414E+02 0.  0.
         66    2    3    3    0    0 -0.60218727564E+01 -0.32711474275E+02  0.37510458750E+02  0.50173080524E+02  0.19999982232E+01 0.  0.
         13    1    3    3    0    0  0.60218727564E+01  0.32711474275E+02  0.14266868569E+03  0.14649460243E+03  0.10566000000E+00 0. -1.
         13    1    4    4    0    0 -0.84813076263E+00 -0.49146976426E+01  0.57582740535E+01  0.76185604165E+01  0.10566000000E+00 0. -1.
        -13    1    4    4    0    0 -0.49293284409E+01 -0.26107410827E+02  0.30420759592E+02  0.40389713506E+02  0.10566000000E+00 0.  1.
         14    1    4    4    0    0 -0.24441355290E+00 -0.16893658060E+01  0.13314251042E+01  0.21648066010E+01  0.00000000000E+00 0. -1.
<mgrwt>
<rscale>  0 0.78826730E+02</rscale>
<asrwt>0</asrwt>
<pdfrwt beam="1">  1        1 0.28988219E-01 0.78826730E+02</pdfrwt>
<pdfrwt beam="2">  1       -2 0.12683490E-02 0.78826730E+02</pdfrwt>
<totfact> 0.17142332E+05</totfact>
</mgrwt>
</event>
<event>
 8    1  0.8247621E-018  0.7983000E+02  0.7818608E-02  0.1329535E+00
          1   -1    0    0  501    0  0.00000000000E+00  0.00000000000E+00  0.28365468414E+01  0.28365513190E+01  0.50400000000E-02 0. -1.
         -2   -1    0    0    0  501 -0.00000000000E+00 -0.00000000000E+00 -0.56167093289E+03  0.56167093290E+03  0.25500000000E-02 0.  1.
        -24    2    1    2    0    0  0.00000000000E+00  0.88817841970E-15 -0.55883438605E+03  0.56450748422E+03  0.79829998774E+02 0.  0.
         66    2    3    3    0    0  0.34031198648E+02 -0.69559482658E+01 -0.41828733227E+03  0.41973181917E+03  0.19999983287E+01 0.  0.
         13    1    3    3    0    0 -0.34031198648E+02  0.69559482658E+01 -0.14054705378E+03  0.14477566504E+03  0.10566000000E+00 0. -1.
         13    1    4    4    0    0  0.38765981214E+01 -0.44166615932E+00 -0.42166892083E+02  0.42347149065E+02  0.10566000000E+00 0. -1.
        -13    1    4    4    0    0  0.29781553773E+02 -0.65080576292E+01 -0.37235322168E+03  0.37359902116E+03  0.10566000000E+00 0.  1.
        -14    1    4    4    0    0  0.37304675300E+00 -0.62244772699E-02 -0.37672185088E+01  0.37856489426E+01  0.00000000000E+00 0.  1.
<mgrwt>
<rscale>  0 0.79829999E+02</rscale>
<asrwt>0</asrwt>
<pdfrwt beam="1">  1        1 0.43639261E-03 0.79829999E+02</pdfrwt>
<pdfrwt beam="2">  1       -2 0.86410825E-01 0.79829999E+02</pdfrwt>
<totfact> 0.46193736E+04</totfact>
</mgrwt>
</event>
<event>
 8    1  0.8247621E-018  0.7891923E+02  0.7818608E-02  0.1332147E+00
         -2   -1    0    0    0  501 -0.00000000000E+00  0.00000000000E+00  0.58251131107E+03  0.58251131107E+03  0.25500000000E-02 0.  1.
          1   -1    0    0  501    0  0.00000000000E+00 -0.00000000000E+00 -0.26730120614E+01  0.26730168129E+01  0.50400000000E-02 0. -1.
        -24    2    1    2    0    0  0.00000000000E+00  0.00000000000E+00  0.57983829901E+03  0.58518432789E+03  0.78919228387E+02 0.  0.
         66    2    3    3    0    0 -0.11725624403E+02  0.61083213984E+01  0.56558441032E+03  0.56574245646E+03  0.19999956792E+01 0.  0.
         13    1    3    3    0    0  0.11725624403E+02 -0.61083213984E+01  0.14253888685E+02  0.19441871428E+02  0.10566000000E+00 0. -1.
         13    1    4    4    0    0 -0.10782220682E+01  0.85356043671E+00  0.47352907859E+02  0.47372989931E+02  0.10566000000E+00 0. -1.
        -13    1    4    4    0    0 -0.74116050336E+01  0.43559996026E+01  0.37781826305E+03  0.37791607227E+03  0.10566000000E+00 0.  1.
        -14    1    4    4    0    0 -0.32357973015E+01  0.89876135915E+00  0.14041323941E+03  0.14045339426E+03  0.00000000000E+00 0.  1.
<mgrwt>
<rscale>  0 0.78919228E+02</rscale>
<asrwt>0</asrwt>
<pdfrwt beam="1">  1        1 0.41123309E-03 0.78919228E+02</pdfrwt>
<pdfrwt beam="2">  1       -2 0.89617103E-01 0.78919228E+02</pdfrwt>
<totfact> 0.46163473E+04</totfact>
</mgrwt>
</event>
<event>
 8    1  0.8247621E-018  0.7927296E+02  0.7818608E-02  0.1331127E+00
         -2   -1    0    0    0  501 -0.00000000000E+00  0.00000000000E+00  0.26234873499E+02  0.26234873623E+02  0.25500000000E-02 0.  1.
          1   -1    0    0  501    0  0.00000000000E+00 -0.00000000000E+00 -0.59884048784E+02  0.59884048996E+02  0.50400000000E-02 0. -1.
        -24    2    1    2    0    0  0.00000000000E+00  0.00000000000E+00 -0.33649175285E+02  0.86118922619E+02  0.79272957783E+02 0.  0.
         66    2    3    3    0    0  0.36987837258E+01 -0.26610968936E+02  0.14785459392E+02  0.30731652700E+02  0.19999998691E+01 0.  0.
         13    1    3    3    0    0 -0.36987837258E+01  0.26610968936E+02 -0.48434634677E+02  0.55387269919E+02  0.10566000000E+00 0. -1.
         13    1    4    4    0    0  0.19642777348E+00 -0.21033787633E+01  0.86538296075E+00  0.22853528822E+01  0.10566000000E+00 0. -1.
        -13    1    4    4    0    0  0.24882545956E+01 -0.11997598020E+02  0.66432603404E+01  0.13938358625E+02  0.10566000000E+00 0.  1.
        -14    1    4    4    0    0  0.10141013567E+01 -0.12509992153E+02  0.72768160905E+01  0.14507941192E+02  0.00000000000E+00 0.  1.
<mgrwt>
<rscale>  0 0.79272958E+02</rscale>
<asrwt>0</asrwt>
<pdfrwt beam="1">  1        1 0.92129306E-02 0.79272958E+02</pdfrwt>
<pdfrwt beam="2">  1       -2 0.40361344E-02 0.79272958E+02</pdfrwt>
<totfact> 0.13879052E+05</totfact>
</mgrwt>
</event>
<event>
 8    1  0.8247621E-018  0.8019717E+02  0.7818608E-02  0.1328493E+00
         -2   -1    0    0    0  501 -0.00000000000E+00  0.00000000000E+00  0.13772106664E+02  0.13772106900E+02  0.25500000000E-02 0.  1.
          1   -1    0    0  501    0  0.00000000000E+00 -0.00000000000E+00 -0.11675020934E+03  0.11675020944E+03  0.50400000000E-02 0. -1.
        -24    2    1    2    0    0  0.00000000000E+00 -0.17763568394E-14 -0.10297810267E+03  0.13052231634E+03  0.80197165997E+02 0.  0.
         66    2    3    3    0    0  0.18642508861E+02 -0.11796556355E+02  0.29264681760E+01  0.22344263261E+02  0.20000015569E+01 0.  0.
         13    1    3    3    0    0 -0.18642508861E+02  0.11796556355E+02 -0.10590457085E+03  0.10817805308E+03  0.10566000000E+00 0. -1.
         13    1    4    4    0    0  0.70150696279E+01 -0.45128048212E+01  0.30345900023E+00  0.83474463543E+01  0.10566000000E+00 0. -1.
        -13    1    4    4    0    0  0.17066981232E+01 -0.14064734256E+01  0.30227481832E+00  0.22346185541E+01  0.10566000000E+00 0.  1.
         14    1    4    4    0    0  0.99207411099E+01 -0.58772781079E+01  0.23207343574E+01  0.11762198353E+02  0.00000000000E+00 0. -1.
<mgrwt>
<rscale>  0 0.80197166E+02</rscale>
<asrwt>0</asrwt>
<pdfrwt beam="1">  1        1 0.17961570E-01 0.80197166E+02</pdfrwt>
<pdfrwt beam="2">  1       -2 0.21187857E-02 0.80197166E+02</pdfrwt>
<totfact> 0.14994209E+05</totfact>
</mgrwt>
</event>
<event>
 8    1  0.8247621E-018  0.7649070E+02  0.7818608E-02  0.1339316E+00
         -2   -1    0    0    0  501 -0.00000000000E+00  0.00000000000E+00  0.40497820950E+02  0.40497821030E+02  0.25500000000E-02 0.  1.
          1   -1    0    0  501    0  0.00000000000E+00 -0.00000000000E+00 -0.36118155731E+02  0.36118156083E+02  0.50400000000E-02 0. -1.
        -24    2    1    2    0    0  0.35527136788E-14 -0.88817841970E-15  0.43796652184E+01  0.76615977113E+02  0.76490695392E+02 0.  0.
         66    2    3    3    0    0  0.19469677548E+02 -0.64096593778E+01  0.34501710871E+02  0.40181091694E+02  0.19999998878E+01 0.  0.
         13    1    3    3    0    0 -0.19469677548E+02  0.64096593778E+01 -0.30122045652E+02  0.36434885419E+02  0.10566000000E+00 0. -1.
         13    1    4    4    0    0  0.32802458516E+01 -0.89695153841E+00  0.64157591377E+01  0.72620702460E+01  0.10566000000E+00 0. -1.
        -13    1    4    4    0    0  0.12240670193E+02 -0.46151983806E+01  0.20467839379E+02  0.24291514481E+02  0.10566000000E+00 0.  1.
        -14    1    4    4    0    0  0.39487615033E+01 -0.89750945869E+00  0.76181123536E+01  0.86275069673E+01  0.00000000000E+00 0.  1.
<mgrwt>
<rscale>  0 0.76490695E+02</rscale>
<asrwt>0</asrwt>
<pdfrwt beam="1">  1        1 0.55566394E-02 0.76490695E+02</pdfrwt>
<pdfrwt beam="2">  1       -2 0.62304340E-02 0.76490695E+02</pdfrwt>
<totfact> 0.14172225E+05</totfact>
</mgrwt>
</event>
<event>
 8    1  0.8247621E-018  0.7943941E+02  0.7818608E-02  0.1330650E+00
         -2   -1    0    0    0  501 -0.00000000000E+00  0.00000000000E+00  0.10946454279E+03  0.10946454282E+03  0.25500000000E-02 0.  1.
          1   -1    0    0  501    0  0.00000000000E+00 -0.00000000000E+00 -0.14412475531E+02  0.14412476413E+02  0.50400000000E-02 0. -1.
        -24    2    1    2    0    0  0.00000000000E+00  0.00000000000E+00  0.95052067256E+02  0.12387701923E+03  0.79439413414E+02 0.  0.
         66    2    3    3    0    0  0.16966592195E+02  0.25785383822E+02  0.86475237206E+02  0.91840720328E+02  0.19999977662E+01 0.  0.
         13    1    3    3    0    0 -0.16966592195E+02 -0.25785383822E+02  0.85768300502E+01  0.32036298901E+02  0.10566000000E+00 0. -1.
         13    1    4    4    0    0  0.51616467498E+01  0.79731855588E+01  0.27152306724E+02  0.28765834067E+02  0.10566000000E+00 0.  1.
        -13    1    4    4    0    0  0.61039223043E+01  0.95614525722E+01  0.29188622368E+02  0.31315588491E+02  0.10566000000E+00 0.  1.
        -14    1    4    4    0    0  0.57010231412E+01  0.82507456906E+01  0.30134308115E+02  0.31759297770E+02  0.00000000000E+00 0.  1.
<mgrwt>
<rscale>  0 0.79439413E+02</rscale>
<asrwt>0</asrwt>
<pdfrwt beam="1">  1        1 0.22173040E-02 0.79439413E+02</pdfrwt>
<pdfrwt beam="2">  1       -2 0.16840699E-01 0.79439413E+02</pdfrwt>
<totfact> 0.10558772E+05</totfact>
</mgrwt>
</event>
<event>
 8    1  0.8247621E-018  0.8008283E+02  0.7818608E-02  0.1328817E+00
         -2   -1    0    0    0  501 -0.00000000000E+00  0.00000000000E+00  0.29823530947E+02  0.29823531056E+02  0.25500000000E-02 0.  1.
          1   -1    0    0  501    0  0.00000000000E+00 -0.00000000000E+00 -0.53760063082E+02  0.53760063318E+02  0.50400000000E-02 0. -1.
        -24    2    1    2    0    0  0.00000000000E+00  0.00000000000E+00 -0.23936532135E+02  0.83583594375E+02  0.80082830107E+02 0.  0.
         66    2    3    3    0    0  0.11755417645E+02 -0.18193714084E+01  0.27901962330E+02  0.30397688077E+02  0.19999955650E+01 0.  0.
         13    1    3    3    0    0 -0.11755417645E+02  0.18193714084E+01 -0.51838494464E+02  0.53185906298E+02  0.10566000000E+00 0. -1.
         13    1    4    4    0    0  0.13083346767E+01 -0.12402675205E+00  0.26156355882E+01  0.29291356793E+01  0.10566000000E+00 0. -1.
        -13    1    4    4    0    0  0.61636857890E+01 -0.97216325648E+00  0.17061012888E+02  0.18166602564E+02  0.10566000000E+00 0.  1.
        -14    1    4    4    0    0  0.42833971789E+01 -0.72318139990E+00  0.82253138530E+01  0.93019498338E+01  0.00000000000E+00 0.  1.
<mgrwt>
<rscale>  0 0.80082830E+02</rscale>
<asrwt>0</asrwt>
<pdfrwt beam="1">  1        1 0.82707790E-02 0.80082830E+02</pdfrwt>
<pdfrwt beam="2">  1       -2 0.45882356E-02 0.80082830E+02</pdfrwt>
<totfact> 0.13269568E+05</totfact>
</mgrwt>
</event>
<event>
 8    1  0.8247621E-018  0.7916005E+02  0.7818608E-02  0.1331452E+00
          1   -1    0    0  501    0  0.00000000000E+00  0.00000000000E+00  0.27366193622E+03  0.27366193626E+03  0.50400000000E-02 0. -1.
         -2   -1    0    0    0  501 -0.00000000000E+00 -0.00000000000E+00 -0.57245026576E+01  0.57245032255E+01  0.25500000000E-02 0.  1.
        -24    2    1    2    0    0 -0.17763568394E-14  0.00000000000E+00  0.26793743356E+03  0.27938643949E+03  0.79160054749E+02 0.  0.
         66    2    3    3    0    0 -0.12021679342E+02 -0.19049630064E+02  0.24880870233E+03  0.24983430416E+03  0.20000004178E+01 0.  0.
         13    1    3    3    0    0  0.12021679342E+02  0.19049630064E+02  0.19128731228E+02  0.29552135324E+02  0.10566000000E+00 0. -1.
         13    1    4    4    0    0 -0.32609809594E+00 -0.59149009764E+00  0.69159726129E+01  0.69496792532E+01  0.10566000000E+00 0.  1.
        -13    1    4    4    0    0 -0.94277460502E+01 -0.13406339012E+02  0.17977723751E+03  0.18052279250E+03  0.10566000000E+00 0.  1.
        -14    1    4    4    0    0 -0.22678351962E+01 -0.50518009547E+01  0.62115492208E+02  0.62361832411E+02  0.00000000000E+00 0.  1.
<mgrwt>
<rscale>  0 0.79160055E+02</rscale>
<asrwt>0</asrwt>
<pdfrwt beam="1">  1        1 0.42101840E-01 0.79160055E+02</pdfrwt>
<pdfrwt beam="2">  1       -2 0.88069269E-03 0.79160055E+02</pdfrwt>
<totfact> 0.18225774E+05</totfact>
</mgrwt>
</event>
<event>
 8    1  0.8247621E-018  0.8776387E+02  0.7818608E-02  0.1308359E+00
          1   -1    0    0  501    0  0.00000000000E+00  0.00000000000E+00  0.75445671796E+02  0.75445671965E+02  0.50400000000E-02 0. -1.
         -2   -1    0    0    0  501 -0.00000000000E+00 -0.00000000000E+00 -0.25523321426E+02  0.25523321554E+02  0.25500000000E-02 0.  1.
        -24    2    1    2    0    0  0.00000000000E+00  0.00000000000E+00  0.49922350370E+02  0.10096899352E+03  0.87763868338E+02 0.  0.
         66    2    3    3    0    0 -0.39687368914E+02 -0.11239587820E+02  0.78247495659E+01  0.42031444000E+02  0.19999983099E+01 0.  0.
         13    1    3    3    0    0  0.39687368914E+02  0.11239587820E+02  0.42097600804E+02  0.58937549518E+02  0.10566000000E+00 0. -1.
         13    1    4    4    0    0 -0.22998154716E+02 -0.59955319056E+01  0.43149292462E+01  0.24155564610E+02  0.10566000000E+00 0. -1.
        -13    1    4    4    0    0 -0.15704331102E+02 -0.46582210017E+01  0.32327646756E+01  0.16696914977E+02  0.10566000000E+00 0.  1.
         14    1    4    4    0    0 -0.98488309653E+00 -0.58583491236E+00  0.27705564411E+00  0.11789644135E+01  0.00000000000E+00 0. -1.
<mgrwt>
<rscale>  0 0.87763868E+02</rscale>
<asrwt>0</asrwt>
<pdfrwt beam="1">  1        1 0.11607026E-01 0.87763868E+02</pdfrwt>
<pdfrwt beam="2">  1       -2 0.39266649E-02 0.87763868E+02</pdfrwt>
<totfact> 0.10881760E+05</totfact>
</mgrwt>
</event>
<event>
 8    1  0.8247621E-018  0.8046771E+02  0.7818608E-02  0.1327729E+00
         -2   -1    0    0    0  501 -0.00000000000E+00  0.00000000000E+00  0.30825393324E+02  0.30825393429E+02  0.25500000000E-02 0.  1.
          1   -1    0    0  501    0  0.00000000000E+00 -0.00000000000E+00 -0.52513950774E+02  0.52513951016E+02  0.50400000000E-02 0. -1.
        -24    2    1    2    0    0  0.00000000000E+00 -0.17763568394E-14 -0.21688557450E+02  0.83339344446E+02  0.80467712832E+02 0.  0.
         66    2    3    3    0    0 -0.22922163048E+02 -0.89160531747E+01  0.22093594871E+02  0.33121722151E+02  0.19999952257E+01 0.  0.
         13    1    3    3    0    0  0.22922163048E+02  0.89160531747E+01 -0.43782152321E+02  0.50217622295E+02  0.10566000000E+00 0. -1.
         13    1    4    4    0    0 -0.23822162907E+01 -0.13301592463E+01  0.25307118334E+01  0.37228946393E+01  0.10566000000E+00 0. -1.
        -13    1    4    4    0    0 -0.10527858463E+02 -0.36871176402E+01  0.10907830049E+02  0.15602005022E+02  0.10566000000E+00 0.  1.
         14    1    4    4    0    0 -0.10012088295E+02 -0.38987762882E+01  0.86550529890E+01  0.13796822489E+02  0.00000000000E+00 0. -1.
<mgrwt>
<rscale>  0 0.80467713E+02</rscale>
<asrwt>0</asrwt>
<pdfrwt beam="1">  1        1 0.80790694E-02 0.80467713E+02</pdfrwt>
<pdfrwt beam="2">  1       -2 0.47423682E-02 0.80467713E+02</pdfrwt>
<totfact> 0.13046019E+05</totfact>
</mgrwt>
</event>
<event>
 8    1  0.8247621E-018  0.8030827E+02  0.7818608E-02  0.1328179E+00
          1   -1    0    0  501    0  0.00000000000E+00  0.00000000000E+00  0.24635369979E+03  0.24635369985E+03  0.50400000000E-02 0. -1.
         -2   -1    0    0    0  501 -0.00000000000E+00 -0.00000000000E+00 -0.65448760802E+01  0.65448765770E+01  0.25500000000E-02 0.  1.
        -24    2    1    2    0    0  0.00000000000E+00 -0.35527136788E-14  0.23980882371E+03  0.25289857642E+03  0.80308268725E+02 0.  0.
         66    2    3    3    0    0 -0.26267602979E+02 -0.26111726831E+02  0.71341545833E+02  0.80407869064E+02  0.20000003154E+01 0.  0.
         13    1    3    3    0    0  0.26267602979E+02  0.26111726831E+02  0.16846727788E+03  0.17249070736E+03  0.10566000000E+00 0. -1.
         13    1    4    4    0    0 -0.17541691765E+02 -0.16848746104E+02  0.48388146000E+02  0.54157317443E+02  0.10566000000E+00 0. -1.
        -13    1    4    4    0    0 -0.21513736871E+01 -0.23570514918E+01  0.61954692771E+01  0.69698711664E+01  0.10566000000E+00 0.  1.
        -14    1    4    4    0    0 -0.65745375265E+01 -0.69059292353E+01  0.16757930556E+02  0.19280680455E+02  0.00000000000E+00 0.  1.
<mgrwt>
<rscale>  0 0.80308269E+02</rscale>
<asrwt>0</asrwt>
<pdfrwt beam="1">  1        1 0.37900565E-01 0.80308269E+02</pdfrwt>
<pdfrwt beam="2">  1       -2 0.10069042E-02 0.80308269E+02</pdfrwt>
<totfact> 0.17189724E+05</totfact>
</mgrwt>
</event>
<event>
 8    1  0.8247621E-018  0.8005417E+02  0.7818608E-02  0.1328898E+00
         -2   -1    0    0    0  501 -0.00000000000E+00  0.00000000000E+00  0.29758738522E+02  0.29758738632E+02  0.25500000000E-02 0.  1.
          1   -1    0    0  501    0  0.00000000000E+00 -0.00000000000E+00 -0.53838556341E+02  0.53838556577E+02  0.50400000000E-02 0. -1.
        -24    2    1    2    0    0  0.00000000000E+00 -0.17763568394E-14 -0.24079817818E+02  0.83597295208E+02  0.80054170035E+02 0.  0.
         66    2    3    3    0    0  0.16162358893E+02 -0.87603354446E+01  0.25052424212E+02  0.31138228375E+02  0.19999963322E+01 0.  0.
         13    1    3    3    0    0 -0.16162358893E+02  0.87603354446E+01 -0.49132242030E+02  0.52459066834E+02  0.10566000000E+00 0. -1.
         13    1    4    4    0    0  0.11477066372E+01 -0.35905097883E+00  0.16735797373E+01  0.20635361162E+01  0.10566000000E+00 0. -1.
        -13    1    4    4    0    0  0.10135338834E+02 -0.59255520373E+01  0.17151316168E+02  0.20784996284E+02  0.10566000000E+00 0.  1.
        -14    1    4    4    0    0  0.48793134220E+01 -0.24757324285E+01  0.62275283072E+01  0.82896959742E+01  0.00000000000E+00 0.  1.
<mgrwt>
<rscale>  0 0.80054170E+02</rscale>
<asrwt>0</asrwt>
<pdfrwt beam="1">  1        1 0.82828549E-02 0.80054170E+02</pdfrwt>
<pdfrwt beam="2">  1       -2 0.45782675E-02 0.80054170E+02</pdfrwt>
<totfact> 0.13285779E+05</totfact>
</mgrwt>
</event>
<event>
 8    1  0.8247621E-018  0.7961321E+02  0.7818608E-02  0.1330153E+00
          1   -1    0    0  501    0  0.00000000000E+00  0.00000000000E+00  0.27485667895E+03  0.27485667899E+03  0.50400000000E-02 0. -1.
         -2   -1    0    0    0  501 -0.00000000000E+00 -0.00000000000E+00 -0.57650622764E+01  0.57650628404E+01  0.25500000000E-02 0.  1.
        -24    2    1    2    0    0  0.00000000000E+00  0.00000000000E+00  0.26909161667E+03  0.28062174183E+03  0.79613213899E+02 0.  0.
         66    2    3    3    0    0 -0.37606126426E+02 -0.15037208914E+01  0.89205618807E+02  0.96840716391E+02  0.20000007644E+01 0.  0.
         13    1    3    3    0    0  0.37606126426E+02  0.15037208914E+01  0.17988599786E+03  0.18378102544E+03  0.10566000000E+00 0. -1.
         13    1    4    4    0    0 -0.10327249593E+02 -0.11340909776E+01  0.25225545217E+02  0.27281450512E+02  0.10566000000E+00 0. -1.
        -13    1    4    4    0    0 -0.21068436086E+02 -0.35348982333E-01  0.50063049065E+02  0.54315746284E+02  0.10566000000E+00 0.  1.
         14    1    4    4    0    0 -0.62104407474E+01 -0.33428093144E+00  0.13917024525E+02  0.15243519595E+02  0.00000000000E+00 0. -1.
<mgrwt>
<rscale>  0 0.79613214E+02</rscale>
<asrwt>0</asrwt>
<pdfrwt beam="1">  1        1 0.42285637E-01 0.79613214E+02</pdfrwt>
<pdfrwt beam="2">  1       -2 0.88693282E-03 0.79613214E+02</pdfrwt>
<totfact> 0.17968578E+05</totfact>
</mgrwt>
</event>
<event>
 8    1  0.8247621E-018  0.8175026E+02  0.7818608E-02  0.1324157E+00
         -2   -1    0    0    0  501 -0.00000000000E+00  0.00000000000E+00  0.10047227873E+03  0.10047227876E+03  0.25500000000E-02 0.  1.
          1   -1    0    0  501    0  0.00000000000E+00 -0.00000000000E+00 -0.16629223883E+02  0.16629224647E+02  0.50400000000E-02 0. -1.
        -24    2    1    2    0    0  0.11102230246E-15  0.00000000000E+00  0.83843054849E+02  0.11710150341E+03  0.81750255380E+02 0.  0.
         66    2    3    3    0    0  0.49216457458E+00 -0.40434384858E+02  0.50248384647E+02  0.64529697899E+02  0.20000116192E+01 0.  0.
         13    1    3    3    0    0 -0.49216457458E+00  0.40434384858E+02  0.33594670202E+02  0.52571805512E+02  0.10566000000E+00 0. -1.
         13    1    4    4    0    0 -0.73710745068E+00 -0.13668063394E+02  0.17338910007E+02  0.22090908732E+02  0.10566000000E+00 0. -1.
        -13    1    4    4    0    0  0.54430336547E+00 -0.14212865528E+02  0.17504993289E+02  0.22555215954E+02  0.10566000000E+00 0.  1.
         14    1    4    4    0    0  0.68496865979E+00 -0.12553455935E+02  0.15404481351E+02  0.19883573212E+02  0.00000000000E+00 0. -1.
<mgrwt>
<rscale>  0 0.81750255E+02</rscale>
<asrwt>0</asrwt>
<pdfrwt beam="1">  1        1 0.25583422E-02 0.81750255E+02</pdfrwt>
<pdfrwt beam="2">  1       -2 0.15457274E-01 0.81750255E+02</pdfrwt>
<totfact> 0.10028853E+05</totfact>
</mgrwt>
</event>
<event>
 8    1  0.8247621E-018  0.7928521E+02  0.7818608E-02  0.1331092E+00
         -2   -1    0    0    0  501 -0.00000000000E+00  0.00000000000E+00  0.18375042583E+02  0.18375042760E+02  0.25500000000E-02 0.  1.
          1   -1    0    0  501    0  0.00000000000E+00 -0.00000000000E+00 -0.85525572246E+02  0.85525572395E+02  0.50400000000E-02 0. -1.
        -24    2    1    2    0    0  0.17763568394E-14  0.00000000000E+00 -0.67150529663E+02  0.10390061515E+03  0.79285207922E+02 0.  0.
         66    2    3    3    0    0  0.14259629764E+02 -0.35802644088E+02 -0.21559897926E+02  0.44204022026E+02  0.20000000043E+01 0.  0.
         13    1    3    3    0    0 -0.14259629764E+02  0.35802644088E+02 -0.45590631738E+02  0.59696593128E+02  0.10566000000E+00 0. -1.
         13    1    4    4    0    0  0.38003005569E+01 -0.10768121190E+02 -0.67746449422E+01  0.13277864904E+02  0.10566000000E+00 0. -1.
        -13    1    4    4    0    0  0.35613271497E+01 -0.90736338320E+01 -0.59784194038E+01  0.11435320048E+02  0.10566000000E+00 0.  1.
         14    1    4    4    0    0  0.68980020576E+01 -0.15960889067E+02 -0.88068335795E+01  0.19490837075E+02  0.00000000000E+00 0. -1.
<mgrwt>
<rscale>  0 0.79285208E+02</rscale>
<asrwt>0</asrwt>
<pdfrwt beam="1">  1        1 0.13157780E-01 0.79285208E+02</pdfrwt>
<pdfrwt beam="2">  1       -2 0.28269297E-02 0.79285208E+02</pdfrwt>
<totfact> 0.14676923E+05</totfact>
</mgrwt>
</event>
<event>
 8    1  0.8247621E-018  0.7919471E+02  0.7818608E-02  0.1331352E+00
         -2   -1    0    0    0  501 -0.00000000000E+00  0.00000000000E+00  0.34199391116E+01  0.34199400622E+01  0.25500000000E-02 0.  1.
          1   -1    0    0  501    0  0.00000000000E+00 -0.00000000000E+00 -0.45847316823E+03  0.45847316826E+03  0.50400000000E-02 0. -1.
        -24    2    1    2    0    0 -0.17763568394E-14  0.00000000000E+00 -0.45505322912E+03  0.46189310832E+03  0.79194710570E+02 0.  0.
         66    2    3    3    0    0  0.93770787842E+01 -0.35842703504E+02 -0.30876366905E+03  0.31098493905E+03  0.19999986379E+01 0.  0.
         13    1    3    3    0    0 -0.93770787842E+01  0.35842703504E+02 -0.14628956007E+03  0.15090816927E+03  0.10566000000E+00 0. -1.
         13    1    4    4    0    0  0.18899761631E+01 -0.91141100623E+01 -0.77358198481E+02  0.77916243803E+02  0.10566000000E+00 0. -1.
        -13    1    4    4    0    0  0.28889592887E+01 -0.84869535839E+01 -0.78468279363E+02  0.78978835755E+02  0.10566000000E+00 0.  1.
        -14    1    4    4    0    0  0.45981433323E+01 -0.18241639858E+02 -0.15293719120E+03  0.15408985950E+03  0.00000000000E+00 0.  1.
<mgrwt>
<rscale>  0 0.79194711E+02</rscale>
<asrwt>0</asrwt>
<pdfrwt beam="1">  1        1 0.70534285E-01 0.79194711E+02</pdfrwt>
<pdfrwt beam="2">  1       -2 0.52614492E-03 0.79194711E+02</pdfrwt>
<totfact> 0.19912075E+05</totfact>
</mgrwt>
</event>
<event>
 8    1  0.8247621E-018  0.7978350E+02  0.7818608E-02  0.1329667E+00
         -2   -1    0    0    0  501 -0.00000000000E+00  0.00000000000E+00  0.31495305005E+03  0.31495305006E+03  0.25500000000E-02 0.  1.
          1   -1    0    0  501    0  0.00000000000E+00 -0.00000000000E+00 -0.50526617146E+01  0.50526642283E+01  0.50400000000E-02 0. -1.
        -24    2    1    2    0    0  0.00000000000E+00  0.00000000000E+00  0.30990038834E+03  0.32000571429E+03  0.79783497585E+02 0.  0.
         66    2    3    3    0    0 -0.21317068309E+02  0.26149208111E+02  0.24024036239E+03  0.24260591542E+03  0.19999973946E+01 0.  0.
         13    1    3    3    0    0  0.21317068309E+02 -0.26149208111E+02  0.69660025950E+02  0.77399798873E+02  0.10566000000E+00 0. -1.
         13    1    4    4    0    0 -0.10167247697E+02  0.12740946251E+02  0.11937975377E+03  0.12048751559E+03  0.10566000000E+00 0. -1.
        -13    1    4    4    0    0 -0.37683707695E+01  0.53417603699E+01  0.43268628265E+02  0.43759803223E+02  0.10566000000E+00 0.  1.
        -14    1    4    4    0    0 -0.73814498425E+01  0.80665014907E+01  0.77591980350E+02  0.78358596610E+02  0.00000000000E+00 0.  1.
<mgrwt>
<rscale>  0 0.79783498E+02</rscale>
<asrwt>0</asrwt>
<pdfrwt beam="1">  1        1 0.77733271E-03 0.79783498E+02</pdfrwt>
<pdfrwt beam="2">  1       -2 0.48454319E-01 0.79783498E+02</pdfrwt>
<totfact> 0.68884274E+04</totfact>
</mgrwt>
</event>
<event>
 8    1  0.8247621E-018  0.8037669E+02  0.7818608E-02  0.1327986E+00
          1   -1    0    0  501    0  0.00000000000E+00  0.00000000000E+00  0.34860691542E+02  0.34860691906E+02  0.50400000000E-02 0. -1.
         -2   -1    0    0    0  501 -0.00000000000E+00 -0.00000000000E+00 -0.46330205055E+02  0.46330205125E+02  0.25500000000E-02 0.  1.
        -24    2    1    2    0    0 -0.35527136788E-14  0.00000000000E+00 -0.11469513513E+02  0.81190897031E+02  0.80376688290E+02 0.  0.
         66    2    3    3    0    0 -0.21264172513E+02  0.11351275040E+02 -0.38189757615E+02  0.45204801292E+02  0.19999988616E+01 0.  0.
         13    1    3    3    0    0  0.21264172513E+02 -0.11351275040E+02  0.26720244101E+02  0.35986095740E+02  0.10566000000E+00 0. -1.
         13    1    4    4    0    0 -0.38564312373E+01  0.22349780695E+01 -0.68290485956E+01  0.81556273588E+01  0.10566000000E+00 0.  1.
        -13    1    4    4    0    0 -0.43834300318E+01  0.28860824767E+01 -0.94319547889E+01  0.10794297850E+02  0.10566000000E+00 0. -1.
         14    1    4    4    0    0 -0.13024311244E+02  0.62302144941E+01 -0.21928754230E+02  0.26254876083E+02  0.00000000000E+00 0. -1.
<mgrwt>
<rscale>  0 0.80376688E+02</rscale>
<asrwt>0</asrwt>
<pdfrwt beam="1">  1        1 0.53631834E-02 0.80376688E+02</pdfrwt>
<pdfrwt beam="2">  1       -2 0.71277238E-02 0.80376688E+02</pdfrwt>
<totfact> 0.12247427E+05</totfact>
</mgrwt>
</event>
<event>
 8    1  0.8247621E-018  0.7899606E+02  0.7818608E-02  0.1331925E+00
          1   -1    0    0  501    0  0.00000000000E+00  0.00000000000E+00  0.92817882159E+01  0.92817895843E+01  0.50400000000E-02 0. -1.
         -2   -1    0    0    0  501 -0.00000000000E+00 -0.00000000000E+00 -0.16808123537E+03  0.16808123539E+03  0.25500000000E-02 0.  1.
        -24    2    1    2    0    0  0.00000000000E+00  0.00000000000E+00 -0.15879944716E+03  0.17736302498E+03  0.78996064531E+02 0.  0.
         66    2    3    3    0    0  0.82276467926E+01 -0.23913582907E+02 -0.14749696442E+03  0.14966264774E+03  0.19999988620E+01 0.  0.
         13    1    3    3    0    0 -0.82276467926E+01  0.23913582907E+02 -0.11302482739E+02  0.27700377241E+02  0.10566000000E+00 0. -1.
         13    1    4    4    0    0  0.24304402019E+01 -0.73533077845E+01 -0.41585622936E+02  0.42300749094E+02  0.10566000000E+00 0. -1.
        -13    1    4    4    0    0  0.19910055995E+01 -0.59945982574E+01 -0.34683183632E+02  0.35253846634E+02  0.10566000000E+00 0.  1.
        -14    1    4    4    0    0  0.38062009913E+01 -0.10565676865E+02 -0.71228157850E+02  0.72108052008E+02  0.00000000000E+00 0.  1.
<mgrwt>
<rscale>  0 0.78996065E+02</rscale>
<asrwt>0</asrwt>
<pdfrwt beam="1">  1        1 0.14279677E-02 0.78996065E+02</pdfrwt>
<pdfrwt beam="2">  1       -2 0.25858649E-01 0.78996065E+02</pdfrwt>
<totfact> 0.93904036E+04</totfact>
</mgrwt>
</event>
<event>
 8    1  0.8247621E-018  0.8186197E+02  0.7818608E-02  0.1323849E+00
          1   -1    0    0  501    0  0.00000000000E+00  0.00000000000E+00  0.59153238228E+02  0.59153238442E+02  0.50400000000E-02 0. -1.
         -2   -1    0    0    0  501 -0.00000000000E+00 -0.00000000000E+00 -0.28322129805E+02  0.28322129920E+02  0.25500000000E-02 0.  1.
        -24    2    1    2    0    0  0.71054273576E-14  0.00000000000E+00  0.30831108422E+02  0.87475368362E+02  0.81861974222E+02 0.  0.
         66    2    3    3    0    0  0.23124020855E+02  0.10900608677E+02  0.49548770358E+02  0.55790898312E+02  0.20000201035E+01 0.  0.
         13    1    3    3    0    0 -0.23124020855E+02 -0.10900608677E+02 -0.18717661935E+02  0.31684470050E+02  0.10566000000E+00 0. -1.
         13    1    4    4    0    0  0.71363507170E+00  0.34110415220E+00  0.11095989818E+01  0.13667483288E+01  0.10566000000E+00 0. -1.
        -13    1    4    4    0    0  0.27549787258E+01  0.17331758963E+01  0.58711007243E+01  0.67137764498E+01  0.10566000000E+00 0. -1.
        -14    1    4    4    0    0  0.19655407057E+02  0.88263286283E+01  0.42568070652E+02  0.47710373533E+02  0.00000000000E+00 0.  1.
<mgrwt>
<rscale>  0 0.81861974E+02</rscale>
<asrwt>0</asrwt>
<pdfrwt beam="1">  1        1 0.91004983E-02 0.81861974E+02</pdfrwt>
<pdfrwt beam="2">  1       -2 0.43572507E-02 0.81861974E+02</pdfrwt>
<totfact> 0.12676191E+05</totfact>
</mgrwt>
</event>
<event>
 8    1  0.8247621E-018  0.7956568E+02  0.7818608E-02  0.1330288E+00
         -2   -1    0    0    0  501 -0.00000000000E+00  0.00000000000E+00  0.96945946462E+02  0.96945946495E+02  0.25500000000E-02 0.  1.
          1   -1    0    0  501    0  0.00000000000E+00 -0.00000000000E+00 -0.16325328443E+02  0.16325329221E+02  0.50400000000E-02 0. -1.
        -24    2    1    2    0    0  0.00000000000E+00  0.00000000000E+00  0.80620618018E+02  0.11327127572E+03  0.79565682632E+02 0.  0.
         66    2    3    3    0    0  0.53504484143E+01  0.16107031228E+02  0.91518861265E+02  0.93100836378E+02  0.20000034582E+01 0.  0.
         13    1    3    3    0    0 -0.53504484143E+01 -0.16107031228E+02 -0.10898243247E+02  0.20170439338E+02  0.10566000000E+00 0. -1.
         13    1    4    4    0    0  0.69073430314E+00  0.42819917640E+01  0.23199417476E+02  0.23601624999E+02  0.10566000000E+00 0.  1.
        -13    1    4    4    0    0  0.14592442450E+01  0.28276543058E+01  0.15537557289E+02  0.15860386918E+02  0.10566000000E+00 0. -1.
        -14    1    4    4    0    0  0.32004698661E+01  0.89973851580E+01  0.52781886500E+02  0.53638824461E+02  0.00000000000E+00 0.  1.
<mgrwt>
<rscale>  0 0.79565683E+02</rscale>
<asrwt>0</asrwt>
<pdfrwt beam="1">  1        1 0.25115890E-02 0.79565683E+02</pdfrwt>
<pdfrwt beam="2">  1       -2 0.14914761E-01 0.79565683E+02</pdfrwt>
<totfact> 0.10843971E+05</totfact>
</mgrwt>
</event>
<event>
 8    1  0.8247621E-018  0.8165537E+02  0.7818608E-02  0.1324418E+00
          1   -1    0    0  501    0  0.00000000000E+00  0.00000000000E+00  0.55725195879E+02  0.55725196107E+02  0.50400000000E-02 0. -1.
         -2   -1    0    0    0  501 -0.00000000000E+00 -0.00000000000E+00 -0.29912854295E+02  0.29912854404E+02  0.25500000000E-02 0.  1.
        -24    2    1    2    0    0  0.00000000000E+00  0.00000000000E+00  0.25812341584E+02  0.85638050511E+02  0.81655365514E+02 0.  0.
         66    2    3    3    0    0  0.18390160921E+02 -0.90837271110E+00 -0.25274623013E+02  0.31334162294E+02  0.19999996370E+01 0.  0.
         13    1    3    3    0    0 -0.18390160921E+02  0.90837271110E+00  0.51086964597E+02  0.54303888217E+02  0.10566000000E+00 0. -1.
         13    1    4    4    0    0  0.66843043755E+01  0.48817607312E+00 -0.89456185735E+01  0.11178259997E+02  0.10566000000E+00 0. -1.
        -13    1    4    4    0    0  0.57579500880E+01 -0.82097966404E+00 -0.74209380344E+01  0.94291824763E+01  0.10566000000E+00 0.  1.
         14    1    4    4    0    0  0.59479064576E+01 -0.57556912018E+00 -0.89080664050E+01  0.10726719821E+02  0.00000000000E+00 0. -1.
<mgrwt>
<rscale>  0 0.81655366E+02</rscale>
<asrwt>0</asrwt>
<pdfrwt beam="1">  1        1 0.85731070E-02 0.81655366E+02</pdfrwt>
<pdfrwt beam="2">  1       -2 0.46019776E-02 0.81655366E+02</pdfrwt>
<totfact> 0.12644331E+05</totfact>
</mgrwt>
</event>
<event>
 8    1  0.8247621E-018  0.8090459E+02  0.7818608E-02  0.1326504E+00
          1   -1    0    0  501    0  0.00000000000E+00  0.00000000000E+00  0.35299915323E+02  0.35299915683E+02  0.50400000000E-02 0. -1.
         -2   -1    0    0    0  501 -0.00000000000E+00 -0.00000000000E+00 -0.46356717716E+02  0.46356717786E+02  0.25500000000E-02 0.  1.
        -24    2    1    2    0    0  0.00000000000E+00  0.00000000000E+00 -0.11056802393E+02  0.81656633469E+02  0.80904591405E+02 0.  0.
         66    2    3    3    0    0  0.35023912374E+02  0.79042938014E+01 -0.24284873991E+02  0.43392481306E+02  0.20000076750E+01 0.  0.
         13    1    3    3    0    0 -0.35023912374E+02 -0.79042938014E+01  0.13228071598E+02  0.38264152163E+02  0.10566000000E+00 0. -1.
         13    1    4    4    0    0  0.14739980041E+02  0.40105157827E+01 -0.94694325450E+01  0.17973106721E+02  0.10566000000E+00 0. -1.
        -13    1    4    4    0    0  0.10277520586E+02  0.19926300752E+01 -0.76055972679E+01  0.12940412584E+02  0.10566000000E+00 0.  1.
         14    1    4    4    0    0  0.10006411747E+02  0.19011479434E+01 -0.72098441777E+01  0.12478962001E+02  0.00000000000E+00 0. -1.
<mgrwt>
<rscale>  0 0.80904591E+02</rscale>
<asrwt>0</asrwt>
<pdfrwt beam="1">  1        1 0.54307563E-02 0.80904591E+02</pdfrwt>
<pdfrwt beam="2">  1       -2 0.71318027E-02 0.80904591E+02</pdfrwt>
<totfact> 0.12046871E+05</totfact>
</mgrwt>
</event>
<event>
 8    1  0.8247621E-018  0.8029579E+02  0.7818608E-02  0.1328214E+00
          1   -1    0    0  501    0  0.00000000000E+00  0.00000000000E+00  0.37037051964E+02  0.37037052307E+02  0.50400000000E-02 0. -1.
         -2   -1    0    0    0  501 -0.00000000000E+00 -0.00000000000E+00 -0.43520026554E+02  0.43520026629E+02  0.25500000000E-02 0.  1.
        -24    2    1    2    0    0  0.35527136788E-14  0.00000000000E+00 -0.64829745899E+01  0.80557078935E+02  0.80295790718E+02 0.  0.
         66    2    3    3    0    0  0.26650406156E+02 -0.29951121601E+02 -0.16462357823E+01  0.40174916540E+02  0.19999983262E+01 0.  0.
         13    1    3    3    0    0 -0.26650406156E+02  0.29951121601E+02 -0.48367388077E+01  0.40382162396E+02  0.10566000000E+00 0. -1.
         13    1    4    4    0    0  0.65913430201E+01 -0.85674806900E+01 -0.91870591729E-01  0.10810510276E+02  0.10566000000E+00 0. -1.
        -13    1    4    4    0    0  0.45928000207E+01 -0.51201829907E+01 -0.45732809553E+00  0.68942293922E+01  0.10566000000E+00 0.  1.
         14    1    4    4    0    0  0.15466263115E+02 -0.16263457920E+02 -0.10970370950E+01  0.22470176872E+02  0.00000000000E+00 0. -1.
<mgrwt>
<rscale>  0 0.80295791E+02</rscale>
<asrwt>0</asrwt>
<pdfrwt beam="1">  1        1 0.56980081E-02 0.80295791E+02</pdfrwt>
<pdfrwt beam="2">  1       -2 0.66953887E-02 0.80295791E+02</pdfrwt>
<totfact> 0.12407893E+05</totfact>
</mgrwt>
</event>
<event>
 8    1  0.8247621E-018  0.7904294E+02  0.7818608E-02  0.1331790E+00
          1   -1    0    0  501    0  0.00000000000E+00  0.00000000000E+00  0.14295228326E+03  0.14295228335E+03  0.50400000000E-02 0. -1.
         -2   -1    0    0    0  501 -0.00000000000E+00 -0.00000000000E+00 -0.10926348350E+02  0.10926348648E+02  0.25500000000E-02 0.  1.
        -24    2    1    2    0    0  0.00000000000E+00  0.00000000000E+00  0.13202593491E+03  0.15387863200E+03  0.79042937043E+02 0.  0.
         66    2    3    3    0    0 -0.21540673440E+02 -0.51649385695E+01  0.23964096131E+01  0.22370068795E+02  0.19999990504E+01 0.  0.
         13    1    3    3    0    0  0.21540673440E+02  0.51649385695E+01  0.12962952530E+03  0.13150856320E+03  0.10566000000E+00 0. -1.
         13    1    4    4    0    0 -0.36193948393E+01 -0.10270389154E+01  0.33731191849E+00  0.37788584655E+01  0.10566000000E+00 0. -1.
        -13    1    4    4    0    0 -0.62366104370E+01 -0.19822616882E+01  0.78222438280E-01  0.65453765307E+01  0.10566000000E+00 0.  1.
         14    1    4    4    0    0 -0.11684668164E+02 -0.21556379659E+01  0.19808752564E+01  0.12045833799E+02  0.00000000000E+00 0. -1.
<mgrwt>
<rscale>  0 0.79042937E+02</rscale>
<asrwt>0</asrwt>
<pdfrwt beam="1">  1        1 0.21992659E-01 0.79042937E+02</pdfrwt>
<pdfrwt beam="2">  1       -2 0.16809767E-02 0.79042937E+02</pdfrwt>
<totfact> 0.16161249E+05</totfact>
</mgrwt>
</event>
<event>
 8    1  0.8247621E-018  0.7846314E+02  0.7818608E-02  0.1333470E+00
          1   -1    0    0  501    0  0.00000000000E+00  0.00000000000E+00  0.24994229417E+03  0.24994229422E+03  0.50400000000E-02 0. -1.
         -2   -1    0    0    0  501 -0.00000000000E+00 -0.00000000000E+00 -0.61578846654E+01  0.61578851933E+01  0.25500000000E-02 0.  1.
        -24    2    1    2    0    0  0.71054273576E-14  0.71054273576E-14  0.24378440950E+03  0.25610017941E+03  0.78463135155E+02 0.  0.
         66    2    3    3    0    0  0.19863135480E+02  0.27673734672E+02  0.18532313535E+03  0.18843843630E+03  0.20000090049E+01 0.  0.
         13    1    3    3    0    0 -0.19863135480E+02 -0.27673734672E+02  0.58461274146E+02  0.67661743110E+02  0.10566000000E+00 0. -1.
         13    1    4    4    0    0  0.93092504822E+00  0.19133894225E+01  0.11798617907E+02  0.11989421549E+02  0.10566000000E+00 0. -1.
        -13    1    4    4    0    0  0.59540832348E+01  0.74345946770E+01  0.49613078645E+02  0.50519234375E+02  0.10566000000E+00 0.  1.
         14    1    4    4    0    0  0.12978127197E+02  0.18325750572E+02  0.12391143880E+03  0.12592978038E+03  0.00000000000E+00 0. -1.
<mgrwt>
<rscale>  0 0.78463135E+02</rscale>
<asrwt>0</asrwt>
<pdfrwt beam="1">  1        1 0.38452665E-01 0.78463135E+02</pdfrwt>
<pdfrwt beam="2">  1       -2 0.94736681E-03 0.78463135E+02</pdfrwt>
<totfact> 0.18330012E+05</totfact>
</mgrwt>
</event>
<event>
 8    1  0.8247621E-018  0.8405531E+02  0.7818608E-02  0.1317922E+00
         -2   -1    0    0    0  501 -0.00000000000E+00  0.00000000000E+00  0.57982017555E+02  0.57982017611E+02  0.25500000000E-02 0.  1.
          1   -1    0    0  501    0  0.00000000000E+00 -0.00000000000E+00 -0.30463301119E+02  0.30463301536E+02  0.50400000000E-02 0. -1.
        -24    2    1    2    0    0  0.00000000000E+00 -0.35527136788E-14  0.27518716436E+02  0.88445319146E+02  0.84055307534E+02 0.  0.
         66    2    3    3    0    0  0.36062260914E+02  0.20265416804E+02  0.60963299508E+01  0.41860948514E+02  0.19999977792E+01 0.  0.
         13    1    3    3    0    0 -0.36062260914E+02 -0.20265416804E+02  0.21422386485E+02  0.46584370633E+02  0.10566000000E+00 0. -1.
         13    1    4    4    0    0  0.85016029598E+01  0.47430173714E+01  0.10833657941E+01  0.97958313660E+01  0.10566000000E+00 0. -1.
        -13    1    4    4    0    0  0.26560274180E+02  0.14883122561E+02  0.51179263136E+01  0.30873286762E+02  0.10566000000E+00 0.  1.
        -14    1    4    4    0    0  0.10003837739E+01  0.63927687189E+00 -0.10496215696E+00  0.11918303858E+01  0.00000000000E+00 0.  1.
<mgrwt>
<rscale>  0 0.84055308E+02</rscale>
<asrwt>0</asrwt>
<pdfrwt beam="1">  1        1 0.46866618E-02 0.84055308E+02</pdfrwt>
<pdfrwt beam="2">  1       -2 0.89203103E-02 0.84055308E+02</pdfrwt>
<totfact> 0.10514469E+05</totfact>
</mgrwt>
</event>
<event>
 8    1  0.8247621E-018  0.7930151E+02  0.7818608E-02  0.1331045E+00
         -2   -1    0    0    0  501 -0.00000000000E+00  0.00000000000E+00  0.12945558053E+02  0.12945558304E+02  0.25500000000E-02 0.  1.
          1   -1    0    0  501    0  0.00000000000E+00 -0.00000000000E+00 -0.12144568765E+03  0.12144568775E+03  0.50400000000E-02 0. -1.
        -24    2    1    2    0    0  0.00000000000E+00  0.00000000000E+00 -0.10850012959E+03  0.13439124606E+03  0.79301506256E+02 0.  0.
         66    2    3    3    0    0 -0.27686539957E+02 -0.18552963150E+02 -0.17960392703E+02  0.37912170310E+02  0.20000037731E+01 0.  0.
         13    1    3    3    0    0  0.27686539957E+02  0.18552963150E+02 -0.90539736891E+02  0.96479075746E+02  0.10566000000E+00 0. -1.
         13    1    4    4    0    0 -0.16814713355E+02 -0.11628905547E+02 -0.11663449551E+02  0.23537486036E+02  0.10566000000E+00 0. -1.
        -13    1    4    4    0    0 -0.53100101731E+01 -0.28647597344E+01 -0.28136460502E+01  0.66581397181E+01  0.10566000000E+00 0.  1.
         14    1    4    4    0    0 -0.55618164291E+01 -0.40592978691E+01 -0.34832971016E+01  0.77165445557E+01  0.00000000000E+00 0. -1.
<mgrwt>
<rscale>  0 0.79301506E+02</rscale>
<asrwt>0</asrwt>
<pdfrwt beam="1">  1        1 0.18683951E-01 0.79301506E+02</pdfrwt>
<pdfrwt beam="2">  1       -2 0.19916244E-02 0.79301506E+02</pdfrwt>
<totfact> 0.15560469E+05</totfact>
</mgrwt>
</event>
<event>
 8    1  0.8247621E-018  0.8082732E+02  0.7818608E-02  0.1326720E+00
         -2   -1    0    0    0  501 -0.00000000000E+00  0.00000000000E+00  0.60622081143E+01  0.60622086506E+01  0.25500000000E-02 0.  1.
          1   -1    0    0  501    0  0.00000000000E+00 -0.00000000000E+00 -0.26941733408E+03  0.26941733412E+03  0.50400000000E-02 0. -1.
        -24    2    1    2    0    0 -0.71054273576E-14  0.22204460493E-15 -0.26335512596E+03  0.27547954278E+03  0.80827322835E+02 0.  0.
         66    2    3    3    0    0 -0.39118958962E+02 -0.17373913451E+01 -0.16548886647E+03  0.17007021022E+03  0.19999997633E+01 0.  0.
         13    1    3    3    0    0  0.39118958962E+02  0.17373913451E+01 -0.97866259494E+02  0.10540933256E+03  0.10566000000E+00 0. -1.
         13    1    4    4    0    0 -0.34662422740E+01 -0.77280950910E-01 -0.14882806275E+02  0.15281684936E+02  0.10566000000E+00 0. -1.
        -13    1    4    4    0    0 -0.18937655545E+02 -0.13814414459E+01 -0.83437285192E+02  0.85570642759E+02  0.10566000000E+00 0.  1.
         14    1    4    4    0    0 -0.16715061144E+02 -0.27866894824E+00 -0.67168775003E+02  0.69217882522E+02  0.00000000000E+00 0. -1.
<mgrwt>
<rscale>  0 0.80827323E+02</rscale>
<asrwt>0</asrwt>
<pdfrwt beam="1">  1        1 0.41448812E-01 0.80827323E+02</pdfrwt>
<pdfrwt beam="2">  1       -2 0.93264765E-03 0.80827323E+02</pdfrwt>
<totfact> 0.17197453E+05</totfact>
</mgrwt>
</event>
<event>
 8    1  0.8247621E-018  0.7796827E+02  0.7818608E-02  0.1334918E+00
         -2   -1    0    0    0  501 -0.00000000000E+00  0.00000000000E+00  0.70769362749E+02  0.70769362795E+02  0.25500000000E-02 0.  1.
          1   -1    0    0  501    0  0.00000000000E+00 -0.00000000000E+00 -0.21474866392E+02  0.21474866983E+02  0.50400000000E-02 0. -1.
        -24    2    1    2    0    0  0.00000000000E+00  0.00000000000E+00  0.49294496358E+02  0.92244229778E+02  0.77968266341E+02 0.  0.
         66    2    3    3    0    0  0.94898436241E+01 -0.37748201933E+02  0.26633852810E+02  0.47205359775E+02  0.19999986879E+01 0.  0.
         13    1    3    3    0    0 -0.94898436241E+01  0.37748201933E+02  0.22660643548E+02  0.45038870004E+02  0.10566000000E+00 0. -1.
         13    1    4    4    0    0  0.54144827668E+01 -0.20043834122E+02  0.13206316068E+02  0.24606703519E+02  0.10566000000E+00 0. -1.
        -13    1    4    4    0    0  0.11704237820E+01 -0.50632840393E+01  0.35322618245E+01  0.62844868306E+01  0.10566000000E+00 0.  1.
         14    1    4    4    0    0  0.29049370753E+01 -0.12641083772E+02  0.98952749175E+01  0.16314169425E+02  0.00000000000E+00 0. -1.
<mgrwt>
<rscale>  0 0.77968266E+02</rscale>
<asrwt>0</asrwt>
<pdfrwt beam="1">  1        1 0.33038257E-02 0.77968266E+02</pdfrwt>
<pdfrwt beam="2">  1       -2 0.10887594E-01 0.77968266E+02</pdfrwt>
<totfact> 0.12240077E+05</totfact>
</mgrwt>
</event>
<event>
 8    1  0.8247621E-018  0.8064991E+02  0.7818608E-02  0.1327217E+00
          1   -1    0    0  501    0  0.00000000000E+00  0.00000000000E+00  0.54196576263E+03  0.54196576266E+03  0.50400000000E-02 0. -1.
         -2   -1    0    0    0  501 -0.00000000000E+00 -0.00000000000E+00 -0.30003768877E+01  0.30003779713E+01  0.25500000000E-02 0.  1.
        -24    2    1    2    0    0  0.00000000000E+00  0.00000000000E+00  0.53896538574E+03  0.54496614063E+03  0.80649906380E+02 0.  0.
         66    2    3    3    0    0 -0.59891565001E+01 -0.36326591589E+02  0.38039271900E+03  0.38217549883E+03  0.19999976803E+01 0.  0.
         13    1    3    3    0    0  0.59891565001E+01  0.36326591589E+02  0.15857266675E+03  0.16279064179E+03  0.10566000000E+00 0. -1.
         13    1    4    4    0    0 -0.12989845093E+01 -0.69675990044E+01  0.80850675143E+02  0.81160813400E+02  0.10566000000E+00 0. -1.
        -13    1    4    4    0    0 -0.10694365103E+01 -0.85538270082E+01  0.86875968560E+02  0.87302673088E+02  0.10566000000E+00 0.  1.
         14    1    4    4    0    0 -0.36207354805E+01 -0.20805165576E+02  0.21266607529E+03  0.21371201235E+03  0.00000000000E+00 0. -1.
<mgrwt>
<rscale>  0 0.80649906E+02</rscale>
<asrwt>0</asrwt>
<pdfrwt beam="1">  1        1 0.83379294E-01 0.80649906E+02</pdfrwt>
<pdfrwt beam="2">  1       -2 0.46159683E-03 0.80649906E+02</pdfrwt>
<totfact> 0.19363222E+05</totfact>
</mgrwt>
</event>
<event>
 8    1  0.8247621E-018  0.8060247E+02  0.7818608E-02  0.1327350E+00
         -2   -1    0    0    0  501 -0.00000000000E+00  0.00000000000E+00  0.19910104692E+03  0.19910104693E+03  0.25500000000E-02 0.  1.
          1   -1    0    0  501    0  0.00000000000E+00 -0.00000000000E+00 -0.81576129771E+01  0.81576145340E+01  0.50400000000E-02 0. -1.
        -24    2    1    2    0    0  0.71054273576E-14  0.00000000000E+00  0.19094343394E+03  0.20725866147E+03  0.80602467632E+02 0.  0.
         66    2    3    3    0    0 -0.38529264985E+02  0.10982574851E+02  0.84908600371E+02  0.93907356646E+02  0.20000011569E+01 0.  0.
         13    1    3    3    0    0  0.38529264985E+02 -0.10982574851E+02  0.10603483357E+03  0.11335130482E+03  0.10566000000E+00 0. -1.
         13    1    4    4    0    0 -0.23946574707E+02  0.67484857712E+01  0.51607400121E+02  0.57291495108E+02  0.10566000000E+00 0. -1.
        -13    1    4    4    0    0 -0.19916127070E+01  0.72895545382E+00  0.39023140683E+01  0.44426474485E+01  0.10566000000E+00 0.  1.
        -14    1    4    4    0    0 -0.12591077571E+02  0.35051336258E+01  0.29398886182E+02  0.32173214090E+02  0.00000000000E+00 0.  1.
<mgrwt>
<rscale>  0 0.80602468E+02</rscale>
<asrwt>0</asrwt>
<pdfrwt beam="1">  1        1 0.12550176E-02 0.80602468E+02</pdfrwt>
<pdfrwt beam="2">  1       -2 0.30630928E-01 0.80602468E+02</pdfrwt>
<totfact> 0.83597506E+04</totfact>
</mgrwt>
</event>
<event>
 8    1  0.8247621E-018  0.7895552E+02  0.7818608E-02  0.1332042E+00
         -2   -1    0    0    0  501 -0.00000000000E+00  0.00000000000E+00  0.67411142380E+02  0.67411142428E+02  0.25500000000E-02 0.  1.
          1   -1    0    0  501    0  0.00000000000E+00 -0.00000000000E+00 -0.23119224730E+02  0.23119225279E+02  0.50400000000E-02 0. -1.
        -24    2    1    2    0    0 -0.35527136788E-14  0.00000000000E+00  0.44291917649E+02  0.90530367707E+02  0.78955516008E+02 0.  0.
         66    2    3    3    0    0  0.98926015783E+01 -0.28347492033E+02  0.51506015343E+02  0.59651600890E+02  0.20000004360E+01 0.  0.
         13    1    3    3    0    0 -0.98926015783E+01  0.28347492033E+02 -0.72140976933E+01  0.30878766817E+02  0.10566000000E+00 0. -1.
         13    1    4    4    0    0  0.10904519533E+01 -0.41705079167E+01  0.83570252077E+01  0.94038957939E+01  0.10566000000E+00 0. -1.
        -13    1    4    4    0    0  0.40397045478E+00 -0.70289460004E+00  0.13700370304E+01  0.15954367576E+01  0.10566000000E+00 0.  1.
        -14    1    4    4    0    0  0.83981791703E+01 -0.23474089517E+02  0.41778953105E+02  0.48652268339E+02  0.00000000000E+00 0.  1.
<mgrwt>
<rscale>  0 0.78955516E+02</rscale>
<asrwt>0</asrwt>
<pdfrwt beam="1">  1        1 0.35568039E-02 0.78955516E+02</pdfrwt>
<pdfrwt beam="2">  1       -2 0.10370945E-01 0.78955516E+02</pdfrwt>
<totfact> 0.11970170E+05</totfact>
</mgrwt>
</event>
<event>
 8    1  0.8247621E-018  0.7415264E+02  0.7818608E-02  0.1346515E+00
          1   -1    0    0  501    0  0.00000000000E+00  0.00000000000E+00  0.41533837392E+02  0.41533837698E+02  0.50400000000E-02 0. -1.
         -2   -1    0    0    0  501 -0.00000000000E+00 -0.00000000000E+00 -0.33097194911E+02  0.33097195010E+02  0.25500000000E-02 0.  1.
        -24    2    1    2    0    0  0.00000000000E+00  0.00000000000E+00  0.84366424804E+01  0.74631032707E+02  0.74152640591E+02 0.  0.
         66    2    3    3    0    0  0.28511667064E+01 -0.14215033914E+02 -0.30093334425E+02  0.33463489362E+02  0.20000006876E+01 0.  0.
         13    1    3    3    0    0 -0.28511667064E+01  0.14215033914E+02  0.38529976905E+02  0.41167543345E+02  0.10566000000E+00 0. -1.
         13    1    4    4    0    0  0.85621537389E+00 -0.31708420578E+01 -0.53389009925E+01  0.62691603876E+01  0.10566000000E+00 0. -1.
        -13    1    4    4    0    0  0.11785969711E+01 -0.60945924476E+01 -0.12642481286E+02  0.14084624419E+02  0.10566000000E+00 0.  1.
        -14    1    4    4    0    0  0.81635436137E+00 -0.49495994082E+01 -0.12111952146E+02  0.13109704555E+02  0.00000000000E+00 0.  1.
<mgrwt>
<rscale>  0 0.74152641E+02</rscale>
<asrwt>0</asrwt>
<pdfrwt beam="1">  1        1 0.63898212E-02 0.74152641E+02</pdfrwt>
<pdfrwt beam="2">  1       -2 0.50918761E-02 0.74152641E+02</pdfrwt>
<totfact> 0.15787933E+05</totfact>
</mgrwt>
</event>
<event>
 8    1  0.8247621E-018  0.7774384E+02  0.7818608E-02  0.1335579E+00
          1   -1    0    0  501    0  0.00000000000E+00  0.00000000000E+00  0.37948083811E+02  0.37948084146E+02  0.50400000000E-02 0. -1.
         -2   -1    0    0    0  501 -0.00000000000E+00 -0.00000000000E+00 -0.39818250219E+02  0.39818250300E+02  0.25500000000E-02 0.  1.
        -24    2    1    2    0    0  0.34694469520E-17  0.00000000000E+00 -0.18701664076E+01  0.77766334446E+02  0.77743843813E+02 0.  0.
         66    2    3    3    0    0  0.27955874495E-01  0.22246274806E+02 -0.32790224377E+02  0.39674883001E+02  0.20000005486E+01 0.  0.
         13    1    3    3    0    0 -0.27955874495E-01 -0.22246274806E+02  0.30920057970E+02  0.38091451444E+02  0.10566000000E+00 0. -1.
         13    1    4    4    0    0  0.54417129165E+00  0.11433928192E+02 -0.17502260363E+02  0.20913419571E+02  0.10566000000E+00 0. -1.
        -13    1    4    4    0    0  0.13237327563E-01  0.28424845745E+01 -0.47805570150E+01  0.55628035370E+01  0.10566000000E+00 0.  1.
         14    1    4    4    0    0 -0.52945274471E+00  0.79698620396E+01 -0.10507406999E+02  0.13198659893E+02  0.00000000000E+00 0. -1.
<mgrwt>
<rscale>  0 0.77743844E+02</rscale>
<asrwt>0</asrwt>
<pdfrwt beam="1">  1        1 0.58381668E-02 0.77743844E+02</pdfrwt>
<pdfrwt beam="2">  1       -2 0.61258846E-02 0.77743844E+02</pdfrwt>
<totfact> 0.13646069E+05</totfact>
</mgrwt>
</event>
<event>
 8    1  0.8247621E-018  0.8050661E+02  0.7818608E-02  0.1327620E+00
         -2   -1    0    0    0  501 -0.00000000000E+00  0.00000000000E+00  0.68212180727E+01  0.68212185493E+01  0.25500000000E-02 0.  1.
          1   -1    0    0  501    0  0.00000000000E+00 -0.00000000000E+00 -0.23754240790E+03  0.23754240795E+03  0.50400000000E-02 0. -1.
        -24    2    1    2    0    0  0.00000000000E+00 -0.44408920985E-15 -0.23072118983E+03  0.24436362650E+03  0.80506611668E+02 0.  0.
         66    2    3    3    0    0  0.34056256838E+02 -0.29731918523E+01 -0.51067328382E+02  0.61486100284E+02  0.20000001084E+01 0.  0.
         13    1    3    3    0    0 -0.34056256838E+02  0.29731918523E+01 -0.17965386145E+03  0.18287752622E+03  0.10566000000E+00 0. -1.
         13    1    4    4    0    0  0.20805776077E+01 -0.58228631356E+00 -0.36589585733E+01  0.42505296622E+01  0.10566000000E+00 0. -1.
        -13    1    4    4    0    0  0.25505906117E+02 -0.20791012105E+01 -0.37839381857E+02  0.45680454158E+02  0.10566000000E+00 0.  1.
         14    1    4    4    0    0  0.64697731132E+01 -0.31180432822E+00 -0.95689879515E+01  0.11555116464E+02  0.00000000000E+00 0. -1.
<mgrwt>
<rscale>  0 0.80506612E+02</rscale>
<asrwt>0</asrwt>
<pdfrwt beam="1">  1        1 0.36544980E-01 0.80506612E+02</pdfrwt>
<pdfrwt beam="2">  1       -2 0.10494184E-02 0.80506612E+02</pdfrwt>
<totfact> 0.16956813E+05</totfact>
</mgrwt>
</event>
<event>
 8    1  0.8247621E-018  0.8418500E+02  0.7818608E-02  0.1317578E+00
          1   -1    0    0  501    0  0.00000000000E+00  0.00000000000E+00  0.12510251497E+03  0.12510251507E+03  0.50400000000E-02 0. -1.
         -2   -1    0    0    0  501 -0.00000000000E+00 -0.00000000000E+00 -0.14162613819E+02  0.14162614049E+02  0.25500000000E-02 0.  1.
        -24    2    1    2    0    0 -0.35527136788E-14  0.00000000000E+00  0.11093990115E+03  0.13926512912E+03  0.84185001762E+02 0.  0.
         66    2    3    3    0    0 -0.27514979049E+02 -0.30687436383E+02  0.41563890905E+02  0.58569188792E+02  0.20000062025E+01 0.  0.
         13    1    3    3    0    0  0.27514979049E+02  0.30687436383E+02  0.69376010248E+02  0.80695940330E+02  0.10566000000E+00 0. -1.
         13    1    4    4    0    0 -0.11931760008E+02 -0.12676412923E+02  0.17240845713E+02  0.24501352338E+02  0.10566000000E+00 0.  1.
        -13    1    4    4    0    0 -0.12257707214E+02 -0.13437087658E+02  0.18976342351E+02  0.26285346563E+02  0.10566000000E+00 0.  1.
        -14    1    4    4    0    0 -0.33255118268E+01 -0.45739358026E+01  0.53467028413E+01  0.77824898914E+01  0.00000000000E+00 0.  1.
<mgrwt>
<rscale>  0 0.84185002E+02</rscale>
<asrwt>0</asrwt>
<pdfrwt beam="1">  1        1 0.19246540E-01 0.84185002E+02</pdfrwt>
<pdfrwt beam="2">  1       -2 0.21788637E-02 0.84185002E+02</pdfrwt>
<totfact> 0.13317706E+05</totfact>
</mgrwt>
</event>
