<event>
 8    1  0.7756875E-014  0.7993438E+02  0.7818608E-02  0.1329238E+00
          1   -1    0    0  501    0  0.00000000000E+00  0.00000000000E+00  0.11513642014E+03  0.11513642025E+03  0.50400000000E-02 0. -1.
         -2   -1    0    0    0  501 -0.00000000000E+00 -0.00000000000E+00 -0.13873771615E+02  0.13873771849E+02  0.25500000000E-02 0.  1.
        -24    2    1    2    0    0  0.00000000000E+00  0.00000000000E+00  0.10126264852E+03  0.12901019209E+03  0.79934383583E+02 0.  0.
         66    2    3    3    0    0 -0.18706810580E+02 -0.23638292992E+02  0.83707036538E+01  0.31349359399E+02  0.19999993518E+01 0.  0.
         13    1    3    3    0    0  0.18706810580E+02  0.23638292992E+02  0.92891944867E+02  0.97660832696E+02  0.10566000000E+00 0. -1.
         13    1    4    4    0    0 -0.41033864150E+01 -0.53643135030E+01  0.24753258953E+01  0.71938891952E+01  0.10566000000E+00 0. -1.
        -13    1    4    4    0    0 -0.96040415739E+01 -0.12568843939E+02  0.44597487819E+01  0.16435144531E+02  0.10566000000E+00 0.  1.
        -14    1    4    4    0    0 -0.49993825912E+01 -0.57051355501E+01  0.14356289766E+01  0.77203256729E+01  0.00000000000E+00 0.  1.
<mgrwt>
<rscale>  0 0.79934384E+02</rscale>
<asrwt>0</asrwt>
<pdfrwt beam="1">  1        1 0.17713296E-01 0.79934384E+02</pdfrwt>
<pdfrwt beam="2">  1       -2 0.21344264E-02 0.79934384E+02</pdfrwt>
<totfact> 0.15090644E+05</totfact>
</mgrwt>
</event>
<event>
 8    1  0.7756875E-014  0.7831752E+02  0.7818608E-02  0.1333895E+00
          1   -1    0    0  501    0  0.00000000000E+00  0.00000000000E+00  0.17636009848E+02  0.17636010568E+02  0.50400000000E-02 0. -1.
         -2   -1    0    0    0  501 -0.00000000000E+00 -0.00000000000E+00 -0.86947577778E+02  0.86947577816E+02  0.25500000000E-02 0.  1.
        -24    2    1    2    0    0 -0.71054273576E-14  0.00000000000E+00 -0.69311567930E+02  0.10458358838E+03  0.78317517263E+02 0.  0.
         66    2    3    3    0    0  0.37499204148E+02  0.52044110866E+01 -0.47906480637E+02  0.61092610784E+02  0.19999997287E+01 0.  0.
         13    1    3    3    0    0 -0.37499204148E+02 -0.52044110866E+01 -0.21405087294E+02  0.43490977600E+02  0.10566000000E+00 0. -1.
         13    1    4    4    0    0  0.17144182199E+02  0.23000120940E+01 -0.21433360547E+02  0.27542932801E+02  0.10566000000E+00 0. -1.
        -13    1    4    4    0    0  0.14325114828E+02  0.14524474022E+01 -0.18059905434E+02  0.23097399564E+02  0.10566000000E+00 0.  1.
         14    1    4    4    0    0  0.60299071208E+01  0.14519515904E+01 -0.84132146551E+01  0.10452278419E+02  0.00000000000E+00 0. -1.
<mgrwt>
<rscale>  0 0.78317517E+02</rscale>
<asrwt>0</asrwt>
<pdfrwt beam="1">  1        1 0.27132324E-02 0.78317517E+02</pdfrwt>
<pdfrwt beam="2">  1       -2 0.13376550E-01 0.78317517E+02</pdfrwt>
<totfact> 0.11583100E+05</totfact>
</mgrwt>
</event>
<event>
 8    1  0.7756875E-014  0.8165857E+02  0.7818608E-02  0.1324409E+00
          1   -1    0    0  501    0  0.00000000000E+00  0.00000000000E+00  0.27923856001E+02  0.27923856455E+02  0.50400000000E-02 0. -1.
         -2   -1    0    0    0  501 -0.00000000000E+00 -0.00000000000E+00 -0.59699151265E+02  0.59699151319E+02  0.25500000000E-02 0.  1.
        -24    2    1    2    0    0  0.35527136788E-14  0.00000000000E+00 -0.31775295264E+02  0.87623007775E+02  0.81658570293E+02 0.  0.
         66    2    3    3    0    0  0.18845688994E+02  0.21828082334E+02 -0.46874427761E+02  0.55071200785E+02  0.20000014962E+01 0.  0.
         13    1    3    3    0    0 -0.18845688994E+02 -0.21828082334E+02  0.15099132497E+02  0.32551806989E+02  0.10566000000E+00 0. -1.
         13    1    4    4    0    0  0.42960595843E+01  0.39025841525E+01 -0.90180501710E+01  0.10724862887E+02  0.10566000000E+00 0. -1.
        -13    1    4    4    0    0  0.87524265496E+01  0.10719538976E+02 -0.22056323386E+02  0.26038549339E+02  0.10566000000E+00 0.  1.
         14    1    4    4    0    0  0.57972028604E+01  0.72059592059E+01 -0.15800054204E+02  0.18307788559E+02  0.00000000000E+00 0. -1.
<mgrwt>
<rscale>  0 0.81658570E+02</rscale>
<asrwt>0</asrwt>
<pdfrwt beam="1">  1        1 0.42959779E-02 0.81658570E+02</pdfrwt>
<pdfrwt beam="2">  1       -2 0.91844848E-02 0.81658570E+02</pdfrwt>
<totfact> 0.11250710E+05</totfact>
</mgrwt>
</event>
<event>
 8    1  0.7756875E-014  0.8021345E+02  0.7818608E-02  0.1328447E+00
         -2   -1    0    0    0  501 -0.00000000000E+00  0.00000000000E+00  0.12609485760E+02  0.12609486018E+02  0.25500000000E-02 0.  1.
          1   -1    0    0  501    0  0.00000000000E+00 -0.00000000000E+00 -0.12756660581E+03  0.12756660590E+03  0.50400000000E-02 0. -1.
        -24    2    1    2    0    0 -0.35527136788E-14  0.35527136788E-14 -0.11495712005E+03  0.14017609192E+03  0.80213448358E+02 0.  0.
         66    2    3    3    0    0 -0.26273862596E+02  0.24821822901E+02 -0.27240610507E+02  0.45304410386E+02  0.19999979420E+01 0.  0.
         13    1    3    3    0    0  0.26273862596E+02 -0.24821822901E+02 -0.87716509538E+02  0.94871681536E+02  0.10566000000E+00 0. -1.
         13    1    4    4    0    0 -0.47074413757E+00  0.31502200046E+00 -0.47242506610E+00  0.74510964462E+00  0.10566000000E+00 0. -1.
        -13    1    4    4    0    0 -0.15242395558E+02  0.13565590250E+02 -0.14780369102E+02  0.25195760278E+02  0.10566000000E+00 0.  1.
        -14    1    4    4    0    0 -0.10560722900E+02  0.10941210651E+02 -0.11987816339E+02  0.19363540463E+02  0.00000000000E+00 0.  1.
<mgrwt>
<rscale>  0 0.80213448E+02</rscale>
<asrwt>0</asrwt>
<pdfrwt beam="1">  1        1 0.19625631E-01 0.80213448E+02</pdfrwt>
<pdfrwt beam="2">  1       -2 0.19399210E-02 0.80213448E+02</pdfrwt>
<totfact> 0.15222035E+05</totfact>
</mgrwt>
</event>
<event>
 8    1  0.7756875E-014  0.7725391E+02  0.7818608E-02  0.1337030E+00
          1   -1    0    0  501    0  0.00000000000E+00  0.00000000000E+00  0.25521692151E+03  0.25521692156E+03  0.50400000000E-02 0. -1.
         -2   -1    0    0    0  501 -0.00000000000E+00 -0.00000000000E+00 -0.58461696056E+01  0.58461701617E+01  0.25500000000E-02 0.  1.
        -24    2    1    2    0    0  0.44408920985E-15  0.00000000000E+00  0.24937075190E+03  0.26106309172E+03  0.77253905751E+02 0.  0.
         66    2    3    3    0    0 -0.32370162552E+01 -0.32788256326E+02  0.56804832153E+02  0.65698835418E+02  0.19999980570E+01 0.  0.
         13    1    3    3    0    0  0.32370162552E+01  0.32788256326E+02  0.19256591975E+03  0.19536425630E+03  0.10566000000E+00 0. -1.
         13    1    4    4    0    0 -0.72823284775E+00 -0.67371542019E+01  0.12760179104E+02  0.14448283795E+02  0.10566000000E+00 0. -1.
        -13    1    4    4    0    0 -0.21729135804E+01 -0.24391518449E+02  0.41693520196E+02  0.48353164488E+02  0.10566000000E+00 0.  1.
         14    1    4    4    0    0 -0.33586982705E+00 -0.16595836756E+01  0.23511328536E+01  0.28973871354E+01  0.00000000000E+00 0. -1.
<mgrwt>
<rscale>  0 0.77253906E+02</rscale>
<asrwt>0</asrwt>
<pdfrwt beam="1">  1        1 0.39264136E-01 0.77253906E+02</pdfrwt>
<pdfrwt beam="2">  1       -2 0.89941088E-03 0.77253906E+02</pdfrwt>
<totfact> 0.19173196E+05</totfact>
</mgrwt>
</event>
<event>
 8    1  0.7756875E-014  0.8096674E+02  0.7818608E-02  0.1326330E+00
         -2   -1    0    0    0  501 -0.00000000000E+00  0.00000000000E+00  0.33083685918E+02  0.33083686016E+02  0.25500000000E-02 0.  1.
          1   -1    0    0  501    0  0.00000000000E+00 -0.00000000000E+00 -0.49538112593E+02  0.49538112849E+02  0.50400000000E-02 0. -1.
        -24    2    1    2    0    0 -0.17763568394E-14  0.00000000000E+00 -0.16454426675E+02  0.82621798865E+02  0.80966743114E+02 0.  0.
         66    2    3    3    0    0 -0.12248998715E+02 -0.36191791245E+02  0.53444302754E+01  0.38632197237E+02  0.20000013473E+01 0.  0.
         13    1    3    3    0    0  0.12248998715E+02  0.36191791245E+02 -0.21798856951E+02  0.43989601628E+02  0.10566000000E+00 0. -1.
         13    1    4    4    0    0 -0.11996089578E+01 -0.35047287104E+01  0.94004889682E+00  0.38232238947E+01  0.10566000000E+00 0. -1.
        -13    1    4    4    0    0 -0.93891545318E+01 -0.26305681904E+02  0.37740678650E+01  0.28185100240E+02  0.10566000000E+00 0.  1.
         14    1    4    4    0    0 -0.16602352256E+01 -0.63813806304E+01  0.63031351358E+00  0.66238731027E+01  0.00000000000E+00 0. -1.
<mgrwt>
<rscale>  0 0.80966743E+02</rscale>
<asrwt>0</asrwt>
<pdfrwt beam="1">  1        1 0.76212482E-02 0.80966743E+02</pdfrwt>
<pdfrwt beam="2">  1       -2 0.50897978E-02 0.80966743E+02</pdfrwt>
<totfact> 0.12705553E+05</totfact>
</mgrwt>
</event>
<event>
 8    1  0.7756875E-014  0.7939911E+02  0.7818608E-02  0.1330765E+00
         -2   -1    0    0    0  501 -0.00000000000E+00  0.00000000000E+00  0.23173165762E+02  0.23173165903E+02  0.25500000000E-02 0.  1.
          1   -1    0    0  501    0  0.00000000000E+00 -0.00000000000E+00 -0.68012064560E+02  0.68012064746E+02  0.50400000000E-02 0. -1.
        -24    2    1    2    0    0  0.00000000000E+00 -0.71054273576E-14 -0.44838898797E+02  0.91185230649E+02  0.79399114876E+02 0.  0.
         66    2    3    3    0    0  0.61462478368E+01 -0.39171970959E+02 -0.20879949517E+02  0.44857462669E+02  0.19999984939E+01 0.  0.
         13    1    3    3    0    0 -0.61462478368E+01  0.39171970959E+02 -0.23958949280E+02  0.46327767980E+02  0.10566000000E+00 0. -1.
         13    1    4    4    0    0  0.49917153096E+00 -0.59664304275E+01 -0.32354323810E+01  0.68063684142E+01  0.10566000000E+00 0. -1.
        -13    1    4    4    0    0  0.17492713585E+01 -0.83029431220E+01 -0.38639277728E+01  0.93241576908E+01  0.10566000000E+00 0.  1.
         14    1    4    4    0    0  0.38978049474E+01 -0.24902597410E+02 -0.13780589363E+02  0.28726936564E+02  0.00000000000E+00 0. -1.
<mgrwt>
<rscale>  0 0.79399115E+02</rscale>
<asrwt>0</asrwt>
<pdfrwt beam="1">  1        1 0.10463394E-01 0.79399115E+02</pdfrwt>
<pdfrwt beam="2">  1       -2 0.35651025E-02 0.79399115E+02</pdfrwt>
<totfact> 0.14095808E+05</totfact>
</mgrwt>
</event>
<event>
 8    1  0.7756875E-014  0.8826668E+02  0.7818608E-02  0.1307104E+00
         -2   -1    0    0    0  501 -0.00000000000E+00  0.00000000000E+00  0.13204561875E+02  0.13204562121E+02  0.25500000000E-02 0.  1.
          1   -1    0    0  501    0  0.00000000000E+00 -0.00000000000E+00 -0.14750595745E+03  0.14750595753E+03  0.50400000000E-02 0. -1.
        -24    2    1    2    0    0  0.00000000000E+00  0.00000000000E+00 -0.13430139557E+03  0.16071051965E+03  0.88266677036E+02 0.  0.
         66    2    3    3    0    0  0.23979323970E+02  0.36191802176E+02 -0.52977254164E+02  0.68523309790E+02  0.20000007548E+01 0.  0.
         13    1    3    3    0    0 -0.23979323970E+02 -0.36191802176E+02 -0.81324141406E+02  0.92187209863E+02  0.10566000000E+00 0. -1.
         13    1    4    4    0    0  0.19287258912E+02  0.27823811097E+02 -0.41565336883E+02  0.53608312924E+02  0.10566000000E+00 0.  1.
        -13    1    4    4    0    0  0.40406592526E+01  0.74772386009E+01 -0.10114023453E+02  0.13211383680E+02  0.10566000000E+00 0. -1.
         14    1    4    4    0    0  0.65140580458E+00  0.89075247866E+00 -0.12978938283E+01  0.17036131867E+01  0.00000000000E+00 0. -1.
<mgrwt>
<rscale>  0 0.88266677E+02</rscale>
<asrwt>0</asrwt>
<pdfrwt beam="1">  1        1 0.22693223E-01 0.88266677E+02</pdfrwt>
<pdfrwt beam="2">  1       -2 0.20314712E-02 0.88266677E+02</pdfrwt>
<totfact> 0.12082627E+05</totfact>
</mgrwt>
</event>
<event>
 8    1  0.7756875E-014  0.7960905E+02  0.7818608E-02  0.1330165E+00
         -2   -1    0    0    0  501 -0.00000000000E+00  0.00000000000E+00  0.25249375991E+02  0.25249376120E+02  0.25500000000E-02 0.  1.
          1   -1    0    0  501    0  0.00000000000E+00 -0.00000000000E+00 -0.62750066778E+02  0.62750066980E+02  0.50400000000E-02 0. -1.
        -24    2    1    2    0    0  0.00000000000E+00  0.00000000000E+00 -0.37500690787E+02  0.87999443100E+02  0.79609045820E+02 0.  0.
         66    2    3    3    0    0  0.66990621556E+01  0.39211061411E+02 -0.18649865484E+02  0.43979566347E+02  0.20000006986E+01 0.  0.
         13    1    3    3    0    0 -0.66990621556E+01 -0.39211061411E+02 -0.18850825303E+02  0.44019876753E+02  0.10566000000E+00 0. -1.
         13    1    4    4    0    0  0.69323192625E+00  0.22982180758E+01 -0.11410999486E+01  0.26600093902E+01  0.10566000000E+00 0.  1.
        -13    1    4    4    0    0  0.54407701192E+01  0.30871698982E+02 -0.14289484154E+02  0.34450896925E+02  0.10566000000E+00 0.  1.
         14    1    4    4    0    0  0.56506011021E+00  0.60411443534E+01 -0.32192813809E+01  0.68686600320E+01  0.00000000000E+00 0. -1.
<mgrwt>
<rscale>  0 0.79609046E+02</rscale>
<asrwt>0</asrwt>
<pdfrwt beam="1">  1        1 0.96538564E-02 0.79609046E+02</pdfrwt>
<pdfrwt beam="2">  1       -2 0.38845194E-02 0.79609046E+02</pdfrwt>
<totfact> 0.13818760E+05</totfact>
</mgrwt>
</event>
<event>
 8    1  0.7756875E-014  0.8006153E+02  0.7818608E-02  0.1328877E+00
          1   -1    0    0  501    0  0.00000000000E+00  0.00000000000E+00  0.40706544858E+03  0.40706544861E+03  0.50400000000E-02 0. -1.
         -2   -1    0    0    0  501 -0.00000000000E+00 -0.00000000000E+00 -0.39366202346E+01  0.39366210605E+01  0.25500000000E-02 0.  1.
        -24    2    1    2    0    0  0.00000000000E+00  0.00000000000E+00  0.40312882834E+03  0.41100206967E+03  0.80061532781E+02 0.  0.
         66    2    3    3    0    0  0.18735084280E+02  0.25507118416E+02  0.32731476915E+03  0.32884734243E+03  0.20000112575E+01 0.  0.
         13    1    3    3    0    0 -0.18735084280E+02 -0.25507118416E+02  0.75814059193E+02  0.82154727242E+02  0.10566000000E+00 0. -1.
         13    1    4    4    0    0  0.87565358796E+01  0.11824645667E+02  0.14686904551E+03  0.14760429147E+03  0.10566000000E+00 0. -1.
        -13    1    4    4    0    0  0.85074401503E+01  0.11724915729E+02  0.14927238801E+03  0.14997368826E+03  0.10566000000E+00 0.  1.
         14    1    4    4    0    0  0.14711082497E+01  0.19575570198E+01  0.31173335630E+02  0.31269362693E+02  0.00000000000E+00 0. -1.
<mgrwt>
<rscale>  0 0.80061533E+02</rscale>
<asrwt>0</asrwt>
<pdfrwt beam="1">  1        1 0.62625424E-01 0.80061533E+02</pdfrwt>
<pdfrwt beam="2">  1       -2 0.60563423E-03 0.80061533E+02</pdfrwt>
<totfact> 0.19009083E+05</totfact>
</mgrwt>
</event>
<event>
 8    1  0.7756875E-014  0.8165218E+02  0.7818608E-02  0.1324427E+00
          1   -1    0    0  501    0  0.00000000000E+00  0.00000000000E+00  0.13592192917E+02  0.13592193851E+02  0.50400000000E-02 0. -1.
         -2   -1    0    0    0  501 -0.00000000000E+00 -0.00000000000E+00 -0.12262697216E+03  0.12262697219E+03  0.25500000000E-02 0.  1.
        -24    2    1    2    0    0  0.35527136788E-14 -0.71054273576E-14 -0.10903477924E+03  0.13621916604E+03  0.81652177628E+02 0.  0.
         66    2    3    3    0    0 -0.20247229818E+02  0.27363712880E+02 -0.92078704322E+02  0.98189667768E+02  0.19999922153E+01 0.  0.
         13    1    3    3    0    0  0.20247229818E+02 -0.27363712880E+02 -0.16956074922E+02  0.38029498270E+02  0.10566000000E+00 0. -1.
         13    1    4    4    0    0 -0.50766472496E+01  0.56921444718E+01 -0.19949963527E+02  0.21358489289E+02  0.10566000000E+00 0. -1.
        -13    1    4    4    0    0 -0.77793211776E+01  0.10431400350E+02 -0.35185235728E+02  0.37514582878E+02  0.10566000000E+00 0.  1.
         14    1    4    4    0    0 -0.73912613906E+01  0.11240168058E+02 -0.36943505068E+02  0.39316595600E+02  0.00000000000E+00 0. -1.
<mgrwt>
<rscale>  0 0.81652178E+02</rscale>
<asrwt>0</asrwt>
<pdfrwt beam="1">  1        1 0.20911068E-02 0.81652178E+02</pdfrwt>
<pdfrwt beam="2">  1       -2 0.18865687E-01 0.81652178E+02</pdfrwt>
<totfact> 0.95385625E+04</totfact>
</mgrwt>
</event>
<event>
 8    1  0.7756875E-014  0.8020991E+02  0.7818608E-02  0.1328457E+00
         -2   -1    0    0    0  501 -0.00000000000E+00  0.00000000000E+00  0.38146472545E+02  0.38146472630E+02  0.25500000000E-02 0.  1.
          1   -1    0    0  501    0  0.00000000000E+00 -0.00000000000E+00 -0.42163987704E+02  0.42163988005E+02  0.50400000000E-02 0. -1.
        -24    2    1    2    0    0  0.17763568394E-14 -0.71054273576E-14 -0.40175151593E+01  0.80310460636E+02  0.80209909983E+02 0.  0.
         66    2    3    3    0    0 -0.85284012440E+01  0.22237587779E+02  0.30266389429E+02  0.38565506259E+02  0.20000014786E+01 0.  0.
         13    1    3    3    0    0  0.85284012440E+01 -0.22237587779E+02 -0.34283904588E+02  0.41744954376E+02  0.10566000000E+00 0. -1.
         13    1    4    4    0    0 -0.90489455292E+00  0.12221809732E+01  0.21214352935E+01  0.26123193187E+01  0.10566000000E+00 0. -1.
        -13    1    4    4    0    0 -0.48586187932E+01  0.12744793326E+02  0.17721842854E+02  0.22363157462E+02  0.10566000000E+00 0.  1.
         14    1    4    4    0    0 -0.27648878979E+01  0.82706134798E+01  0.10423111282E+02  0.13590029478E+02  0.00000000000E+00 0. -1.
<mgrwt>
<rscale>  0 0.80209910E+02</rscale>
<asrwt>0</asrwt>
<pdfrwt beam="1">  1        1 0.64867674E-02 0.80209910E+02</pdfrwt>
<pdfrwt beam="2">  1       -2 0.58686881E-02 0.80209910E+02</pdfrwt>
<totfact> 0.12712104E+05</totfact>
</mgrwt>
</event>
<event>
 8    1  0.7756875E-014  0.8222945E+02  0.7818608E-02  0.1322841E+00
          1   -1    0    0  501    0  0.00000000000E+00  0.00000000000E+00  0.99392203363E+02  0.99392203491E+02  0.50400000000E-02 0. -1.
         -2   -1    0    0    0  501 -0.00000000000E+00 -0.00000000000E+00 -0.17007576562E+02  0.17007576753E+02  0.25500000000E-02 0.  1.
        -24    2    1    2    0    0 -0.88817841970E-15  0.00000000000E+00  0.82384626801E+02  0.11639978024E+03  0.82229447935E+02 0.  0.
         66    2    3    3    0    0  0.65069046337E+01  0.20427847290E+02 -0.84039438336E+01  0.23114130358E+02  0.19999993600E+01 0.  0.
         13    1    3    3    0    0 -0.65069046337E+01 -0.20427847290E+02  0.90788570634E+02  0.93285649886E+02  0.10566000000E+00 0. -1.
         13    1    4    4    0    0  0.30739530265E+01  0.90244754688E+01 -0.44639369701E+01  0.10527499323E+02  0.10566000000E+00 0.  1.
        -13    1    4    4    0    0 -0.62499509338E-02  0.32813782116E+00 -0.21411216316E+00  0.40585902180E+00  0.10566000000E+00 0. -1.
        -14    1    4    4    0    0  0.34392015582E+01  0.11075234000E+02 -0.37258947003E+01  0.12180772013E+02  0.00000000000E+00 0.  1.
<mgrwt>
<rscale>  0 0.82229448E+02</rscale>
<asrwt>0</asrwt>
<pdfrwt beam="1">  1        1 0.15291109E-01 0.82229448E+02</pdfrwt>
<pdfrwt beam="2">  1       -2 0.26165502E-02 0.82229448E+02</pdfrwt>
<totfact> 0.13630722E+05</totfact>
</mgrwt>
</event>
<event>
 8    1  0.7756875E-014  0.7882052E+02  0.7818608E-02  0.1332432E+00
          1   -1    0    0  501    0  0.00000000000E+00  0.00000000000E+00  0.17292804599E+03  0.17292804606E+03  0.50400000000E-02 0. -1.
         -2   -1    0    0    0  501 -0.00000000000E+00 -0.00000000000E+00 -0.89815881317E+01  0.89815884937E+01  0.25500000000E-02 0.  1.
        -24    2    1    2    0    0  0.00000000000E+00  0.17763568394E-14  0.16394645786E+03  0.18190963456E+03  0.78820518270E+02 0.  0.
         66    2    3    3    0    0 -0.34083289570E+02 -0.10131920854E+02  0.42938700726E+02  0.55785826740E+02  0.19999992369E+01 0.  0.
         13    1    3    3    0    0  0.34083289570E+02  0.10131920854E+02  0.12100775713E+03  0.12612380782E+03  0.10566000000E+00 0. -1.
         13    1    4    4    0    0 -0.40309506450E+01 -0.10394483227E+01  0.41267624247E+01  0.58626229679E+01  0.10566000000E+00 0. -1.
        -13    1    4    4    0    0 -0.21862545733E+02 -0.67760099497E+01  0.28230541749E+02  0.36343635869E+02  0.10566000000E+00 0.  1.
         14    1    4    4    0    0 -0.81897931919E+01 -0.23164625815E+01  0.10581396553E+02  0.13579567903E+02  0.00000000000E+00 0. -1.
<mgrwt>
<rscale>  0 0.78820518E+02</rscale>
<asrwt>0</asrwt>
<pdfrwt beam="1">  1        1 0.26604314E-01 0.78820518E+02</pdfrwt>
<pdfrwt beam="2">  1       -2 0.13817829E-02 0.78820518E+02</pdfrwt>
<totfact> 0.16867830E+05</totfact>
</mgrwt>
</event>
<event>
 8    1  0.7756875E-014  0.8042630E+02  0.7818608E-02  0.1327846E+00
         -2   -1    0    0    0  501 -0.00000000000E+00  0.00000000000E+00  0.83415695144E+02  0.83415695183E+02  0.25500000000E-02 0.  1.
          1   -1    0    0  501    0  0.00000000000E+00 -0.00000000000E+00 -0.19386008120E+02  0.19386008775E+02  0.50400000000E-02 0. -1.
        -24    2    1    2    0    0  0.00000000000E+00  0.00000000000E+00  0.64029687024E+02  0.10280170396E+03  0.80426298660E+02 0.  0.
         66    2    3    3    0    0 -0.40180841531E+02 -0.70619672496E+00  0.32425803154E+02  0.51676217362E+02  0.19999976764E+01 0.  0.
         13    1    3    3    0    0  0.40180841531E+02  0.70619672496E+00  0.31603883870E+02  0.51125486595E+02  0.10566000000E+00 0. -1.
         13    1    4    4    0    0 -0.51986370641E+01 -0.29480048211E+00  0.44497379510E+01  0.68501143433E+01  0.10566000000E+00 0.  1.
        -13    1    4    4    0    0 -0.24409318326E+02  0.32603693810E+00  0.20090050091E+02  0.31615540449E+02  0.10566000000E+00 0. -1.
        -14    1    4    4    0    0 -0.10572886141E+02 -0.73743318095E+00  0.78860151126E+01  0.13210562569E+02  0.00000000000E+00 0.  1.
<mgrwt>
<rscale>  0 0.80426299E+02</rscale>
<asrwt>0</asrwt>
<pdfrwt beam="1">  1        1 0.29824629E-02 0.80426299E+02</pdfrwt>
<pdfrwt beam="2">  1       -2 0.12833184E-01 0.80426299E+02</pdfrwt>
<totfact> 0.10925187E+05</totfact>
</mgrwt>
</event>
<event>
 8    1  0.7756875E-014  0.8019888E+02  0.7818608E-02  0.1328488E+00
         -2   -1    0    0    0  501 -0.00000000000E+00  0.00000000000E+00  0.12219260345E+03  0.12219260348E+03  0.25500000000E-02 0.  1.
          1   -1    0    0  501    0  0.00000000000E+00 -0.00000000000E+00 -0.13159267597E+02  0.13159268562E+02  0.50400000000E-02 0. -1.
        -24    2    1    2    0    0  0.44408920985E-15 -0.35527136788E-14  0.10903333585E+03  0.13535187204E+03  0.80198883639E+02 0.  0.
         66    2    3    3    0    0 -0.33237777594E+01  0.26170992645E+02  0.10546183889E+03  0.10872979268E+03  0.19999998888E+01 0.  0.
         13    1    3    3    0    0  0.33237777594E+01 -0.26170992645E+02  0.35714969601E+01  0.26622079355E+02  0.10566000000E+00 0. -1.
         13    1    4    4    0    0 -0.13787950027E+01  0.11517117497E+02  0.49122173839E+02  0.50473202770E+02  0.10566000000E+00 0. -1.
        -13    1    4    4    0    0 -0.79916363866E+00  0.81311554294E+01  0.32878755865E+02  0.33878873983E+02  0.10566000000E+00 0.  1.
         14    1    4    4    0    0 -0.11458191180E+01  0.65227197184E+01  0.23460909191E+02  0.24377715931E+02  0.00000000000E+00 0. -1.
<mgrwt>
<rscale>  0 0.80198884E+02</rscale>
<asrwt>0</asrwt>
<pdfrwt beam="1">  1        1 0.20245028E-02 0.80198884E+02</pdfrwt>
<pdfrwt beam="2">  1       -2 0.18798862E-01 0.80198884E+02</pdfrwt>
<totfact> 0.99990567E+04</totfact>
</mgrwt>
</event>
<event>
 8    1  0.7756875E-014  0.7529073E+02  0.7818608E-02  0.1342973E+00
          1   -1    0    0  501    0  0.00000000000E+00  0.00000000000E+00  0.17381057717E+03  0.17381057724E+03  0.50400000000E-02 0. -1.
         -2   -1    0    0    0  501 -0.00000000000E+00 -0.00000000000E+00 -0.81535518934E+01  0.81535522922E+01  0.25500000000E-02 0.  1.
        -24    2    1    2    0    0 -0.35527136788E-14  0.00000000000E+00  0.16565702528E+03  0.18196412953E+03  0.75290732590E+02 0.  0.
         66    2    3    3    0    0 -0.23890599850E+02 -0.16134058250E+02  0.24476701229E+02  0.37870536135E+02  0.20000018302E+01 0.  0.
         13    1    3    3    0    0  0.23890599850E+02  0.16134058250E+02  0.14118032405E+03  0.14409359340E+03  0.10566000000E+00 0. -1.
         13    1    4    4    0    0 -0.57106935398E+01 -0.41096817399E+01  0.52450918194E+01  0.87763122631E+01  0.10566000000E+00 0. -1.
        -13    1    4    4    0    0 -0.12805840698E+02 -0.80463206946E+01  0.13918571285E+02  0.20554090186E+02  0.10566000000E+00 0.  1.
        -14    1    4    4    0    0 -0.53740656117E+01 -0.39780558153E+01  0.53130381245E+01  0.85401336863E+01  0.00000000000E+00 0.  1.
<mgrwt>
<rscale>  0 0.75290733E+02</rscale>
<asrwt>0</asrwt>
<pdfrwt beam="1">  1        1 0.26740089E-01 0.75290733E+02</pdfrwt>
<pdfrwt beam="2">  1       -2 0.12543926E-02 0.75290733E+02</pdfrwt>
<totfact> 0.19064598E+05</totfact>
</mgrwt>
</event>
<event>
 8    1  0.7756875E-014  0.8011979E+02  0.7818608E-02  0.1328712E+00
          1   -1    0    0  501    0  0.00000000000E+00  0.00000000000E+00  0.28694554186E+03  0.28694554190E+03  0.50400000000E-02 0. -1.
         -2   -1    0    0    0  501 -0.00000000000E+00 -0.00000000000E+00 -0.55926811250E+01  0.55926817063E+01  0.25500000000E-02 0.  1.
        -24    2    1    2    0    0  0.00000000000E+00  0.00000000000E+00  0.28135286073E+03  0.29253822361E+03  0.80119785505E+02 0.  0.
         66    2    3    3    0    0 -0.33927613533E+02  0.12409445551E+02  0.77763698849E+02  0.85768701435E+02  0.19999971024E+01 0.  0.
         13    1    3    3    0    0  0.33927613533E+02 -0.12409445551E+02  0.20358916188E+03  0.20676952217E+03  0.10566000000E+00 0. -1.
         13    1    4    4    0    0 -0.14349679046E+02  0.45036321413E+01  0.33319302641E+02  0.36556573741E+02  0.10566000000E+00 0.  1.
        -13    1    4    4    0    0 -0.12166423523E+02  0.48269351652E+01  0.26606494325E+02  0.29651945446E+02  0.10566000000E+00 0. -1.
         14    1    4    4    0    0 -0.74115109640E+01  0.30788782443E+01  0.17837901882E+02  0.19560182248E+02  0.00000000000E+00 0. -1.
<mgrwt>
<rscale>  0 0.80119786E+02</rscale>
<asrwt>0</asrwt>
<pdfrwt beam="1">  1        1 0.44145466E-01 0.80119786E+02</pdfrwt>
<pdfrwt beam="2">  1       -2 0.86041258E-03 0.80119786E+02</pdfrwt>
<totfact> 0.17818065E+05</totfact>
</mgrwt>
</event>
<event>
 8    1  0.7756875E-014  0.7882644E+02  0.7818608E-02  0.1332415E+00
          1   -1    0    0  501    0  0.00000000000E+00  0.00000000000E+00  0.38429365407E+02  0.38429365738E+02  0.50400000000E-02 0. -1.
         -2   -1    0    0    0  501 -0.00000000000E+00 -0.00000000000E+00 -0.40422267491E+02  0.40422267571E+02  0.25500000000E-02 0.  1.
        -24    2    1    2    0    0  0.00000000000E+00  0.35527136788E-14 -0.19929020835E+01  0.78851633309E+02  0.78826444907E+02 0.  0.
         66    2    3    3    0    0 -0.26833808489E+02  0.25366674069E+02 -0.14708247450E+02  0.39797662919E+02  0.19999998494E+01 0.  0.
         13    1    3    3    0    0  0.26833808489E+02 -0.25366674069E+02  0.12715345366E+02  0.39053970390E+02  0.10566000000E+00 0. -1.
         13    1    4    4    0    0 -0.23377454211E+01  0.17045888751E+01 -0.12151887118E+01  0.31398287418E+01  0.10566000000E+00 0.  1.
        -13    1    4    4    0    0 -0.19038229410E+02  0.18067790282E+02 -0.98451103603E+01  0.28032777008E+02  0.10566000000E+00 0.  1.
        -14    1    4    4    0    0 -0.54578336577E+01  0.55942949126E+01 -0.36479483777E+01  0.86250571691E+01  0.00000000000E+00 0.  1.
<mgrwt>
<rscale>  0 0.78826445E+02</rscale>
<asrwt>0</asrwt>
<pdfrwt beam="1">  1        1 0.59122102E-02 0.78826445E+02</pdfrwt>
<pdfrwt beam="2">  1       -2 0.62188104E-02 0.78826445E+02</pdfrwt>
<totfact> 0.13151762E+05</totfact>
</mgrwt>
</event>
<event>
 8    1  0.7756875E-014  0.7734480E+02  0.7818608E-02  0.1336760E+00
         -2   -1    0    0    0  501 -0.00000000000E+00  0.00000000000E+00  0.12746292714E+02  0.12746292969E+02  0.25500000000E-02 0.  1.
          1   -1    0    0  501    0  0.00000000000E+00 -0.00000000000E+00 -0.11733250313E+03  0.11733250323E+03  0.50400000000E-02 0. -1.
        -24    2    1    2    0    0  0.00000000000E+00 -0.35527136788E-14 -0.10458621041E+03  0.13007879620E+03  0.77344798231E+02 0.  0.
         66    2    3    3    0    0  0.15393722703E+02 -0.22158910000E+02 -0.57943802815E+01  0.27668733926E+02  0.20000007963E+01 0.  0.
         13    1    3    3    0    0 -0.15393722703E+02  0.22158910000E+02 -0.98791830130E+02  0.10241006228E+03  0.10566000000E+00 0. -1.
         13    1    4    4    0    0  0.32338551139E+01 -0.39321607018E+01 -0.11422703912E+01  0.52187788193E+01  0.10566000000E+00 0. -1.
        -13    1    4    4    0    0  0.12183536528E+02 -0.18134160638E+02 -0.45614983601E+01  0.22318261037E+02  0.10566000000E+00 0.  1.
        -14    1    4    4    0    0 -0.23668939160E-01 -0.92588659621E-01 -0.90611530220E-01  0.13169406965E+00  0.00000000000E+00 0.  1.
<mgrwt>
<rscale>  0 0.77344798E+02</rscale>
<asrwt>0</asrwt>
<pdfrwt beam="1">  1        1 0.18051154E-01 0.77344798E+02</pdfrwt>
<pdfrwt beam="2">  1       -2 0.19609682E-02 0.77344798E+02</pdfrwt>
<totfact> 0.16539339E+05</totfact>
</mgrwt>
</event>
<event>
 8    1  0.7756875E-014  0.8243898E+02  0.7818608E-02  0.1322269E+00
         -2   -1    0    0    0  501 -0.00000000000E+00  0.00000000000E+00  0.31230071965E+03  0.31230071966E+03  0.25500000000E-02 0.  1.
          1   -1    0    0  501    0  0.00000000000E+00 -0.00000000000E+00 -0.54404158391E+01  0.54404181736E+01  0.50400000000E-02 0. -1.
        -24    2    1    2    0    0  0.00000000000E+00 -0.71054273576E-14  0.30686030381E+03  0.31774113784E+03  0.82438975110E+02 0.  0.
         66    2    3    3    0    0  0.75213132953E+01  0.34762769367E+02  0.23363140145E+03  0.23633165685E+03  0.20000005501E+01 0.  0.
         13    1    3    3    0    0 -0.75213132953E+01 -0.34762769367E+02  0.73228902368E+02  0.81409480982E+02  0.10566000000E+00 0. -1.
         13    1    4    4    0    0  0.49974443485E+01  0.25175348944E+02  0.16505005039E+03  0.16703383771E+03  0.10566000000E+00 0. -1.
        -13    1    4    4    0    0  0.11277836733E+01  0.53406242418E+01  0.39191374755E+02  0.39569801396E+02  0.10566000000E+00 0.  1.
        -14    1    4    4    0    0  0.13960852735E+01  0.42467961816E+01  0.29389976303E+02  0.29728017744E+02  0.00000000000E+00 0.  1.
<mgrwt>
<rscale>  0 0.82438975E+02</rscale>
<asrwt>0</asrwt>
<pdfrwt beam="1">  1        1 0.83698727E-03 0.82438975E+02</pdfrwt>
<pdfrwt beam="2">  1       -2 0.48046263E-01 0.82438975E+02</pdfrwt>
<totfact> 0.63592278E+04</totfact>
</mgrwt>
</event>
<event>
 8    1  0.7756875E-014  0.7545024E+02  0.7818608E-02  0.1342482E+00
          1   -1    0    0  501    0  0.00000000000E+00  0.00000000000E+00  0.10168855525E+03  0.10168855537E+03  0.50400000000E-02 0. -1.
         -2   -1    0    0    0  501 -0.00000000000E+00 -0.00000000000E+00 -0.13995525640E+02  0.13995525872E+02  0.25500000000E-02 0.  1.
        -24    2    1    2    0    0  0.00000000000E+00  0.00000000000E+00  0.87693029609E+02  0.11568408125E+03  0.75450243285E+02 0.  0.
         66    2    3    3    0    0 -0.12424472919E+02  0.29374788800E+02  0.13061804146E+02  0.34523273447E+02  0.19999843965E+01 0.  0.
         13    1    3    3    0    0  0.12424472919E+02 -0.29374788800E+02  0.74631225463E+02  0.81160807798E+02  0.10566000000E+00 0. -1.
         13    1    4    4    0    0 -0.62226657859E+01  0.16478671814E+02  0.73387741678E+01  0.19082373137E+02  0.10566000000E+00 0. -1.
        -13    1    4    4    0    0 -0.48340113429E+01  0.10191807076E+02  0.40958853654E+01  0.12001168197E+02  0.10566000000E+00 0.  1.
         14    1    4    4    0    0 -0.13677957906E+01  0.27043099113E+01  0.16271446131E+01  0.34397321135E+01  0.00000000000E+00 0. -1.
<mgrwt>
<rscale>  0 0.75450243E+02</rscale>
<asrwt>0</asrwt>
<pdfrwt beam="1">  1        1 0.15644394E-01 0.75450243E+02</pdfrwt>
<pdfrwt beam="2">  1       -2 0.21531578E-02 0.75450243E+02</pdfrwt>
<totfact> 0.17256177E+05</totfact>
</mgrwt>
</event>
<event>
 8    1  0.7756875E-014  0.8061301E+02  0.7818608E-02  0.1327321E+00
         -2   -1    0    0    0  501 -0.00000000000E+00  0.00000000000E+00  0.10891918500E+02  0.10891918798E+02  0.25500000000E-02 0.  1.
          1   -1    0    0  501    0  0.00000000000E+00 -0.00000000000E+00 -0.14915776293E+03  0.14915776301E+03  0.50400000000E-02 0. -1.
        -24    2    1    2    0    0  0.00000000000E+00  0.00000000000E+00 -0.13826584443E+03  0.16004968181E+03  0.80613007091E+02 0.  0.
         66    2    3    3    0    0 -0.10374559623E+02 -0.34173393381E+02 -0.32182946509E+02  0.48116466466E+02  0.19999991419E+01 0.  0.
         13    1    3    3    0    0  0.10374559623E+02  0.34173393381E+02 -0.10608289792E+03  0.11193321534E+03  0.10566000000E+00 0. -1.
         13    1    4    4    0    0 -0.78086412377E+00 -0.35559198750E+01 -0.34274820227E+01  0.50013110270E+01  0.10566000000E+00 0. -1.
        -13    1    4    4    0    0 -0.38867359897E+01 -0.11256471668E+02 -0.11602972648E+02  0.16626936259E+02  0.10566000000E+00 0.  1.
        -14    1    4    4    0    0 -0.57069595094E+01 -0.19361001838E+02 -0.17152491839E+02  0.26488219180E+02  0.00000000000E+00 0.  1.
<mgrwt>
<rscale>  0 0.80613007E+02</rscale>
<asrwt>0</asrwt>
<pdfrwt beam="1">  1        1 0.22947347E-01 0.80613007E+02</pdfrwt>
<pdfrwt beam="2">  1       -2 0.16756799E-02 0.80613007E+02</pdfrwt>
<totfact> 0.15453431E+05</totfact>
</mgrwt>
</event>
<event>
 8    1  0.7756875E-014  0.7948258E+02  0.7818608E-02  0.1330526E+00
         -2   -1    0    0    0  501 -0.00000000000E+00  0.00000000000E+00  0.11135545949E+02  0.11135546241E+02  0.25500000000E-02 0.  1.
          1   -1    0    0  501    0  0.00000000000E+00 -0.00000000000E+00 -0.14183140857E+03  0.14183140866E+03  0.50400000000E-02 0. -1.
        -24    2    1    2    0    0  0.00000000000E+00  0.00000000000E+00 -0.13069586262E+03  0.15296695490E+03  0.79482581649E+02 0.  0.
         66    2    3    3    0    0  0.14460934603E+02 -0.21470838348E+02 -0.74210902253E+01  0.27003483203E+02  0.19999990044E+01 0.  0.
         13    1    3    3    0    0 -0.14460934603E+02  0.21470838348E+02 -0.12327477239E+03  0.12596347170E+03  0.10566000000E+00 0. -1.
         13    1    4    4    0    0  0.45614139264E+00 -0.11525648361E+01 -0.20272659327E+00  0.12604494352E+01  0.10566000000E+00 0. -1.
        -13    1    4    4    0    0  0.85965191174E+01 -0.11909473876E+02 -0.37354703546E+01  0.15155877135E+02  0.10566000000E+00 0.  1.
        -14    1    4    4    0    0  0.54082740931E+01 -0.84087996365E+01 -0.34828932774E+01  0.10587156633E+02  0.00000000000E+00 0.  1.
<mgrwt>
<rscale>  0 0.79482582E+02</rscale>
<asrwt>0</asrwt>
<pdfrwt beam="1">  1        1 0.21820215E-01 0.79482582E+02</pdfrwt>
<pdfrwt beam="2">  1       -2 0.17131610E-02 0.79482582E+02</pdfrwt>
<totfact> 0.15900660E+05</totfact>
</mgrwt>
</event>
<event>
 8    1  0.7756875E-014  0.8796788E+02  0.7818608E-02  0.1307849E+00
         -2   -1    0    0    0  501 -0.00000000000E+00  0.00000000000E+00  0.98412396603E+02  0.98412396636E+02  0.25500000000E-02 0.  1.
          1   -1    0    0  501    0  0.00000000000E+00 -0.00000000000E+00 -0.19657959025E+02  0.19657959671E+02  0.50400000000E-02 0. -1.
        -24    2    1    2    0    0  0.00000000000E+00  0.35527136788E-14  0.78754437578E+02  0.11807035631E+03  0.87967878231E+02 0.  0.
         66    2    3    3    0    0  0.18138078180E+02  0.31407332043E+02  0.72741667720E+02  0.81306584038E+02  0.19999997623E+01 0.  0.
         13    1    3    3    0    0 -0.18138078180E+02 -0.31407332043E+02  0.60127698580E+01  0.36763772270E+02  0.10566000000E+00 0. -1.
         13    1    4    4    0    0  0.21573558070E+01  0.37224646392E+01  0.92617748303E+01  0.10212862680E+02  0.10566000000E+00 0. -1.
        -13    1    4    4    0    0  0.58344718836E+01  0.87046071387E+01  0.21542489936E+02  0.23956236856E+02  0.10566000000E+00 0.  1.
        -14    1    4    4    0    0  0.10146250489E+02  0.18980260265E+02  0.41937402953E+02  0.47137484502E+02  0.00000000000E+00 0.  1.
<mgrwt>
<rscale>  0 0.87967878E+02</rscale>
<asrwt>0</asrwt>
<pdfrwt beam="1">  1        1 0.30243015E-02 0.87967878E+02</pdfrwt>
<pdfrwt beam="2">  1       -2 0.15140369E-01 0.87967878E+02</pdfrwt>
<totfact> 0.83533608E+04</totfact>
</mgrwt>
</event>
<event>
 8    1  0.7756875E-014  0.7951000E+02  0.7818608E-02  0.1330448E+00
         -2   -1    0    0    0  501 -0.00000000000E+00  0.00000000000E+00  0.13967060303E+02  0.13967060536E+02  0.25500000000E-02 0.  1.
          1   -1    0    0  501    0  0.00000000000E+00 -0.00000000000E+00 -0.11315624614E+03  0.11315624625E+03  0.50400000000E-02 0. -1.
        -24    2    1    2    0    0  0.00000000000E+00  0.00000000000E+00 -0.99189185835E+02  0.12712330679E+03  0.79510002777E+02 0.  0.
         66    2    3    3    0    0  0.36646405844E+02 -0.13539168443E+02 -0.61175958517E+02  0.72613814415E+02  0.19999999875E+01 0.  0.
         13    1    3    3    0    0 -0.36646405844E+02  0.13539168443E+02 -0.38013227317E+02  0.54509492371E+02  0.10566000000E+00 0. -1.
         13    1    4    4    0    0  0.42059786425E+01 -0.21774013157E+01 -0.77942586525E+01  0.91210177507E+01  0.10566000000E+00 0. -1.
        -13    1    4    4    0    0  0.49244633480E+01 -0.15788612944E+01 -0.81577396948E+01  0.96593490058E+01  0.10566000000E+00 0.  1.
         14    1    4    4    0    0  0.27515963853E+02 -0.97829058331E+01 -0.45223960170E+02  0.53833447658E+02  0.00000000000E+00 0. -1.
<mgrwt>
<rscale>  0 0.79510003E+02</rscale>
<asrwt>0</asrwt>
<pdfrwt beam="1">  1        1 0.17408653E-01 0.79510003E+02</pdfrwt>
<pdfrwt beam="2">  1       -2 0.21487786E-02 0.79510003E+02</pdfrwt>
<totfact> 0.15262476E+05</totfact>
</mgrwt>
</event>
<event>
 8    1  0.7756875E-014  0.7831790E+02  0.7818608E-02  0.1333894E+00
         -2   -1    0    0    0  501 -0.00000000000E+00  0.00000000000E+00  0.11030994453E+03  0.11030994456E+03  0.25500000000E-02 0.  1.
          1   -1    0    0  501    0  0.00000000000E+00 -0.00000000000E+00 -0.13901042052E+02  0.13901042965E+02  0.50400000000E-02 0. -1.
        -24    2    1    2    0    0 -0.17763568394E-14  0.00000000000E+00  0.96408902479E+02  0.12421098753E+03  0.78317896709E+02 0.  0.
         66    2    3    3    0    0 -0.13810697576E+02  0.15413743427E+02  0.10091101627E+03  0.10303083062E+03  0.19999995707E+01 0.  0.
         13    1    3    3    0    0  0.13810697576E+02 -0.15413743427E+02 -0.45021137960E+01  0.21180156907E+02  0.10566000000E+00 0. -1.
         13    1    4    4    0    0 -0.36857198269E+01  0.48165443205E+01  0.27725018920E+02  0.28380829234E+02  0.10566000000E+00 0.  1.
        -13    1    4    4    0    0 -0.10205792516E+01  0.66048116795E+00  0.52215399550E+01  0.53622253701E+01  0.10566000000E+00 0. -1.
        -14    1    4    4    0    0 -0.91043984973E+01  0.99367179381E+01  0.67964457400E+02  0.69287776014E+02  0.00000000000E+00 0.  1.
<mgrwt>
<rscale>  0 0.78317897E+02</rscale>
<asrwt>0</asrwt>
<pdfrwt beam="1">  1        1 0.21386219E-02 0.78317897E+02</pdfrwt>
<pdfrwt beam="2">  1       -2 0.16970761E-01 0.78317897E+02</pdfrwt>
<totfact> 0.10928314E+05</totfact>
</mgrwt>
</event>
<event>
 8    1  0.7756875E-014  0.7992536E+02  0.7818608E-02  0.1329263E+00
          1   -1    0    0  501    0  0.00000000000E+00  0.00000000000E+00  0.35987684297E+02  0.35987684650E+02  0.50400000000E-02 0. -1.
         -2   -1    0    0    0  501 -0.00000000000E+00 -0.00000000000E+00 -0.44376729913E+02  0.44376729986E+02  0.25500000000E-02 0.  1.
        -24    2    1    2    0    0  0.35527136788E-14  0.35527136788E-14 -0.83890456156E+01  0.80364414636E+02  0.79925359264E+02 0.  0.
         66    2    3    3    0    0 -0.17404955466E+02 -0.17328485301E+02 -0.35863029307E+02  0.43512822792E+02  0.19999996626E+01 0.  0.
         13    1    3    3    0    0  0.17404955466E+02  0.17328485301E+02  0.27473983691E+02  0.36851591845E+02  0.10566000000E+00 0. -1.
         13    1    4    4    0    0 -0.94381977141E+01 -0.84681770269E+01 -0.18532936546E+02  0.22455968011E+02  0.10566000000E+00 0. -1.
        -13    1    4    4    0    0 -0.41260286828E+01 -0.53414049179E+01 -0.99445057239E+01  0.12019113000E+02  0.10566000000E+00 0.  1.
        -14    1    4    4    0    0 -0.38407290697E+01 -0.35189033558E+01 -0.73855870371E+01  0.90377417808E+01  0.00000000000E+00 0.  1.
<mgrwt>
<rscale>  0 0.79925359E+02</rscale>
<asrwt>0</asrwt>
<pdfrwt beam="1">  1        1 0.55365669E-02 0.79925359E+02</pdfrwt>
<pdfrwt beam="2">  1       -2 0.68271892E-02 0.79925359E+02</pdfrwt>
<totfact> 0.12511623E+05</totfact>
</mgrwt>
</event>
<event>
 8    1  0.7756875E-014  0.7995240E+02  0.7818608E-02  0.1329187E+00
         -2   -1    0    0    0  501 -0.00000000000E+00  0.00000000000E+00  0.11022483601E+02  0.11022483896E+02  0.25500000000E-02 0.  1.
          1   -1    0    0  501    0  0.00000000000E+00 -0.00000000000E+00 -0.14498515027E+03  0.14498515036E+03  0.50400000000E-02 0. -1.
        -24    2    1    2    0    0 -0.17763568394E-14  0.00000000000E+00 -0.13396266667E+03  0.15600763426E+03  0.79952397617E+02 0.  0.
         66    2    3    3    0    0 -0.90127202389E+01 -0.33854449412E+02 -0.29553993151E+02  0.45878005448E+02  0.20000004280E+01 0.  0.
         13    1    3    3    0    0  0.90127202389E+01  0.33854449412E+02 -0.10440867352E+03  0.11012962881E+03  0.10566000000E+00 0. -1.
         13    1    4    4    0    0 -0.40506536658E+01 -0.12776133838E+02 -0.11922628681E+02  0.17938718730E+02  0.10566000000E+00 0. -1.
        -13    1    4    4    0    0 -0.18993207087E+01 -0.92537835320E+01 -0.72406301073E+01  0.11902849121E+02  0.10566000000E+00 0.  1.
        -14    1    4    4    0    0 -0.30627458644E+01 -0.11824532042E+02 -0.10390734362E+02  0.16036437597E+02  0.00000000000E+00 0.  1.
<mgrwt>
<rscale>  0 0.79952398E+02</rscale>
<asrwt>0</asrwt>
<pdfrwt beam="1">  1        1 0.22305406E-01 0.79952398E+02</pdfrwt>
<pdfrwt beam="2">  1       -2 0.16957668E-02 0.79952398E+02</pdfrwt>
<totfact> 0.15715027E+05</totfact>
</mgrwt>
</event>
<event>
 8    1  0.7756875E-014  0.7948563E+02  0.7818608E-02  0.1330518E+00
          1   -1    0    0  501    0  0.00000000000E+00  0.00000000000E+00  0.70864237073E+02  0.70864237252E+02  0.50400000000E-02 0. -1.
         -2   -1    0    0    0  501 -0.00000000000E+00 -0.00000000000E+00 -0.22288976126E+02  0.22288976272E+02  0.25500000000E-02 0.  1.
        -24    2    1    2    0    0  0.00000000000E+00  0.00000000000E+00  0.48575260947E+02  0.93153213525E+02  0.79485628977E+02 0.  0.
         66    2    3    3    0    0  0.22836935450E+02 -0.32494938525E+02  0.24069617305E+02  0.46484333264E+02  0.20000278328E+01 0.  0.
         13    1    3    3    0    0 -0.22836935450E+02  0.32494938525E+02  0.24505643642E+02  0.46668880261E+02  0.10566000000E+00 0. -1.
         13    1    4    4    0    0  0.66072655151E+01 -0.79401361540E+01  0.60961682115E+01  0.11994838499E+02  0.10566000000E+00 0. -1.
        -13    1    4    4    0    0  0.15251341774E+02 -0.23099933548E+02  0.16999614082E+02  0.32483971414E+02  0.10566000000E+00 0.  1.
         14    1    4    4    0    0  0.97832816022E+00 -0.14548688232E+01  0.97383501102E+00  0.20055233508E+01  0.00000000000E+00 0. -1.
<mgrwt>
<rscale>  0 0.79485629E+02</rscale>
<asrwt>0</asrwt>
<pdfrwt beam="1">  1        1 0.10902190E-01 0.79485629E+02</pdfrwt>
<pdfrwt beam="2">  1       -2 0.34290732E-02 0.79485629E+02</pdfrwt>
<totfact> 0.14145003E+05</totfact>
</mgrwt>
</event>
<event>
 8    1  0.7756875E-014  0.7904121E+02  0.7818608E-02  0.1331795E+00
         -2   -1    0    0    0  501 -0.00000000000E+00  0.00000000000E+00  0.22583293388E+02  0.22583293532E+02  0.25500000000E-02 0.  1.
          1   -1    0    0  501    0  0.00000000000E+00 -0.00000000000E+00 -0.69160781604E+02  0.69160781787E+02  0.50400000000E-02 0. -1.
        -24    2    1    2    0    0  0.35527136788E-14  0.71054273576E-14 -0.46577488215E+02  0.91744075319E+02  0.79041210440E+02 0.  0.
         66    2    3    3    0    0  0.16226786245E+02  0.35948575693E+02 -0.25700589480E+02  0.47118244783E+02  0.20000013992E+01 0.  0.
         13    1    3    3    0    0 -0.16226786245E+02 -0.35948575693E+02 -0.20876898736E+02  0.44625830537E+02  0.10566000000E+00 0. -1.
         13    1    4    4    0    0  0.97725376084E+01  0.22640250579E+02 -0.15405181334E+02  0.29076007524E+02  0.10566000000E+00 0.  1.
        -13    1    4    4    0    0  0.28053569575E+01  0.66265165154E+01 -0.47345404081E+01  0.86143940993E+01  0.10566000000E+00 0.  1.
        -14    1    4    4    0    0  0.36488916794E+01  0.66818085989E+01 -0.55608677374E+01  0.94278431592E+01  0.00000000000E+00 0.  1.
<mgrwt>
<rscale>  0 0.79041210E+02</rscale>
<asrwt>0</asrwt>
<pdfrwt beam="1">  1        1 0.10640120E-01 0.79041210E+02</pdfrwt>
<pdfrwt beam="2">  1       -2 0.34743529E-02 0.79041210E+02</pdfrwt>
<totfact> 0.14308682E+05</totfact>
</mgrwt>
</event>
<event>
 8    1  0.7756875E-014  0.8398267E+02  0.7818608E-02  0.1318115E+00
          1   -1    0    0  501    0  0.00000000000E+00  0.00000000000E+00  0.61504919184E+02  0.61504919390E+02  0.50400000000E-02 0. -1.
         -2   -1    0    0    0  501 -0.00000000000E+00 -0.00000000000E+00 -0.28668798900E+02  0.28668799013E+02  0.25500000000E-02 0.  1.
        -24    2    1    2    0    0  0.00000000000E+00  0.88817841970E-15  0.32836120284E+02  0.90173718404E+02  0.83982669018E+02 0.  0.
         66    2    3    3    0    0  0.21051391333E+02 -0.65156998227E+01 -0.21921859956E+02  0.31147766610E+02  0.19999998996E+01 0.  0.
         13    1    3    3    0    0 -0.21051391333E+02  0.65156998227E+01  0.54757980239E+02  0.59025951794E+02  0.10566000000E+00 0. -1.
         13    1    4    4    0    0  0.63566979609E+01 -0.26897876230E+01 -0.66344808314E+01  0.95744486192E+01  0.10566000000E+00 0. -1.
        -13    1    4    4    0    0  0.62023593806E+01 -0.20908034142E+01 -0.62343713037E+01  0.90398711491E+01  0.10566000000E+00 0.  1.
         14    1    4    4    0    0  0.84923339917E+01 -0.17351087855E+01 -0.90530078206E+01  0.12533446841E+02  0.00000000000E+00 0. -1.
<mgrwt>
<rscale>  0 0.83982669E+02</rscale>
<asrwt>0</asrwt>
<pdfrwt beam="1">  1        1 0.94622953E-02 0.83982669E+02</pdfrwt>
<pdfrwt beam="2">  1       -2 0.44105845E-02 0.83982669E+02</pdfrwt>
<totfact> 0.11883142E+05</totfact>
</mgrwt>
</event>
<event>
 8    1  0.7756875E-014  0.7886190E+02  0.7818608E-02  0.1332313E+00
          1   -1    0    0  501    0  0.00000000000E+00  0.00000000000E+00  0.10836050154E+02  0.10836051326E+02  0.50400000000E-02 0. -1.
         -2   -1    0    0    0  501 -0.00000000000E+00 -0.00000000000E+00 -0.14348397868E+03  0.14348397870E+03  0.25500000000E-02 0.  1.
        -24    2    1    2    0    0  0.44408920985E-15  0.00000000000E+00 -0.13264792852E+03  0.15432003003E+03  0.78861896539E+02 0.  0.
         66    2    3    3    0    0  0.30713251174E+01 -0.11519119243E+02 -0.13986323707E+03  0.14038464386E+03  0.20000004322E+01 0.  0.
         13    1    3    3    0    0 -0.30713251174E+01  0.11519119243E+02  0.72153085478E+01  0.13935386165E+02  0.10566000000E+00 0. -1.
         13    1    4    4    0    0  0.44790685127E+00 -0.84968004211E+00 -0.16539641292E+02  0.16567844604E+02  0.10566000000E+00 0. -1.
        -13    1    4    4    0    0  0.51318918719E+00 -0.14206164877E+01 -0.13665280064E+02  0.13748911143E+02  0.10566000000E+00 0.  1.
         14    1    4    4    0    0  0.21102290790E+01 -0.92488227129E+01 -0.10965831572E+03  0.11006788811E+03  0.00000000000E+00 0. -1.
<mgrwt>
<rscale>  0 0.78861897E+02</rscale>
<asrwt>0</asrwt>
<pdfrwt beam="1">  1        1 0.16670848E-02 0.78861897E+02</pdfrwt>
<pdfrwt beam="2">  1       -2 0.22074457E-01 0.78861897E+02</pdfrwt>
<totfact> 0.99476277E+04</totfact>
</mgrwt>
</event>
<event>
 8    1  0.7756875E-014  0.8029529E+02  0.7818608E-02  0.1328216E+00
          1   -1    0    0  501    0  0.00000000000E+00  0.00000000000E+00  0.57500831452E+01  0.57500853540E+01  0.50400000000E-02 0. -1.
         -2   -1    0    0    0  501 -0.00000000000E+00 -0.00000000000E+00 -0.28031474272E+03  0.28031474273E+03  0.25500000000E-02 0.  1.
        -24    2    1    2    0    0  0.00000000000E+00  0.00000000000E+00 -0.27456465957E+03  0.28606482808E+03  0.80295289900E+02 0.  0.
         66    2    3    3    0    0  0.28178496600E+02  0.28459506256E+02 -0.14598953691E+03  0.15139655231E+03  0.19999996040E+01 0.  0.
         13    1    3    3    0    0 -0.28178496600E+02 -0.28459506256E+02 -0.12857512267E+03  0.13466827577E+03  0.10566000000E+00 0. -1.
         13    1    4    4    0    0  0.89583195262E+01  0.90970711455E+01 -0.48678347571E+02  0.50324952841E+02  0.10566000000E+00 0. -1.
        -13    1    4    4    0    0  0.17062888259E+02  0.17579009277E+02 -0.88323879984E+02  0.91658511128E+02  0.10566000000E+00 0.  1.
         14    1    4    4    0    0  0.21572888149E+01  0.17834258339E+01 -0.89873093513E+01  0.94130883408E+01  0.00000000000E+00 0. -1.
<mgrwt>
<rscale>  0 0.80295290E+02</rscale>
<asrwt>0</asrwt>
<pdfrwt beam="1">  1        1 0.88462857E-03 0.80295290E+02</pdfrwt>
<pdfrwt beam="2">  1       -2 0.43125334E-01 0.80295290E+02</pdfrwt>
<totfact> 0.72157923E+04</totfact>
</mgrwt>
</event>
<event>
 8    1  0.7756875E-014  0.7590489E+02  0.7818608E-02  0.1341092E+00
         -2   -1    0    0    0  501 -0.00000000000E+00  0.00000000000E+00  0.23968470750E+03  0.23968470751E+03  0.25500000000E-02 0.  1.
          1   -1    0    0  501    0  0.00000000000E+00 -0.00000000000E+00 -0.60095103692E+01  0.60095124826E+01  0.50400000000E-02 0. -1.
        -24    2    1    2    0    0  0.00000000000E+00  0.00000000000E+00  0.23367519713E+03  0.24569421999E+03  0.75904887757E+02 0.  0.
         66    2    3    3    0    0 -0.19473532880E+02 -0.13190503306E+02  0.21322148993E+03  0.21452415162E+03  0.20000000028E+01 0.  0.
         13    1    3    3    0    0  0.19473532880E+02  0.13190503306E+02  0.20453707200E+02  0.31170068376E+02  0.10566000000E+00 0. -1.
         13    1    4    4    0    0 -0.90610813792E+01 -0.60562152642E+01  0.10470072862E+03  0.10526649361E+03  0.10566000000E+00 0. -1.
        -13    1    4    4    0    0 -0.47815717615E+01 -0.32596587925E+01  0.54374959390E+02  0.54682137638E+02  0.10566000000E+00 0.  1.
        -14    1    4    4    0    0 -0.56308797392E+01 -0.38746292489E+01  0.54145801921E+02  0.54575520375E+02  0.00000000000E+00 0.  1.
<mgrwt>
<rscale>  0 0.75904888E+02</rscale>
<asrwt>0</asrwt>
<pdfrwt beam="1">  1        1 0.92454031E-03 0.75904888E+02</pdfrwt>
<pdfrwt beam="2">  1       -2 0.36874567E-01 0.75904888E+02</pdfrwt>
<totfact> 0.90063653E+04</totfact>
</mgrwt>
</event>
<event>
 8    1  0.7756875E-014  0.9003298E+02  0.7818608E-02  0.1302772E+00
         -2   -1    0    0    0  501 -0.00000000000E+00  0.00000000000E+00  0.93180785801E+01  0.93180789291E+01  0.25500000000E-02 0.  1.
          1   -1    0    0  501    0  0.00000000000E+00 -0.00000000000E+00 -0.21747876354E+03  0.21747876360E+03  0.50400000000E-02 0. -1.
        -24    2    1    2    0    0  0.88817841970E-15 -0.71054273576E-14 -0.20816068496E+03  0.22679684253E+03  0.90032977389E+02 0.  0.
         66    2    3    3    0    0 -0.57005290834E+01  0.40972542259E+02 -0.59548509090E+02  0.72534613736E+02  0.20000009908E+01 0.  0.
         13    1    3    3    0    0  0.57005290834E+01 -0.40972542259E+02 -0.14861217587E+03  0.15426222879E+03  0.10566000000E+00 0. -1.
         13    1    4    4    0    0 -0.25640354977E+01  0.25172955064E+02 -0.36277341606E+02  0.44230177738E+02  0.10566000000E+00 0. -1.
        -13    1    4    4    0    0 -0.27888194689E+01  0.14036488840E+02 -0.20859953664E+02  0.25297220478E+02  0.10566000000E+00 0.  1.
         14    1    4    4    0    0 -0.34767411684E+00  0.17630983546E+01 -0.24112138199E+01  0.30072155202E+01  0.00000000000E+00 0. -1.
<mgrwt>
<rscale>  0 0.90032977E+02</rscale>
<asrwt>0</asrwt>
<pdfrwt beam="1">  1        1 0.33458268E-01 0.90032977E+02</pdfrwt>
<pdfrwt beam="2">  1       -2 0.14335507E-02 0.90032977E+02</pdfrwt>
<totfact> 0.12365642E+05</totfact>
</mgrwt>
</event>
<event>
 8    1  0.7756875E-014  0.7998138E+02  0.7818608E-02  0.1329104E+00
         -2   -1    0    0    0  501 -0.00000000000E+00  0.00000000000E+00  0.40759507185E+02  0.40759507265E+02  0.25500000000E-02 0.  1.
          1   -1    0    0  501    0  0.00000000000E+00 -0.00000000000E+00 -0.39236376681E+02  0.39236377005E+02  0.50400000000E-02 0. -1.
        -24    2    1    2    0    0 -0.88817841970E-15  0.00000000000E+00  0.15231305035E+01  0.79995884270E+02  0.79981382668E+02 0.  0.
         66    2    3    3    0    0  0.70572389960E+01 -0.37717230904E+02  0.11937979297E+02  0.40235673395E+02  0.19999836354E+01 0.  0.
         13    1    3    3    0    0 -0.70572389960E+01  0.37717230904E+02 -0.10414848793E+02  0.39760210874E+02  0.10566000000E+00 0. -1.
         13    1    4    4    0    0  0.26128804449E+01 -0.11411482396E+02  0.43065350447E+01  0.12474232755E+02  0.10566000000E+00 0. -1.
        -13    1    4    4    0    0  0.77936918204E+00 -0.37867446823E+01  0.85318117738E+00  0.39605471551E+01  0.10566000000E+00 0.  1.
         14    1    4    4    0    0  0.36649893690E+01 -0.22519003826E+02  0.67782630746E+01  0.23800893485E+02  0.00000000000E+00 0. -1.
<mgrwt>
<rscale>  0 0.79981383E+02</rscale>
<asrwt>0</asrwt>
<pdfrwt beam="1">  1        1 0.60363657E-02 0.79981383E+02</pdfrwt>
<pdfrwt beam="2">  1       -2 0.62706934E-02 0.79981383E+02</pdfrwt>
<totfact> 0.12666074E+05</totfact>
</mgrwt>
</event>
<event>
 8    1  0.7756875E-014  0.8263431E+02  0.7818608E-02  0.1321738E+00
          1   -1    0    0  501    0  0.00000000000E+00  0.00000000000E+00  0.79526111730E+02  0.79526111889E+02  0.50400000000E-02 0. -1.
         -2   -1    0    0    0  501 -0.00000000000E+00 -0.00000000000E+00 -0.21465996965E+02  0.21465997117E+02  0.25500000000E-02 0.  1.
        -24    2    1    2    0    0 -0.17763568394E-14  0.00000000000E+00  0.58060114764E+02  0.10099210901E+03  0.82634309793E+02 0.  0.
         66    2    3    3    0    0  0.13613282791E+02 -0.38984358247E+02  0.29077707259E+02  0.50543196578E+02  0.20000011491E+01 0.  0.
         13    1    3    3    0    0 -0.13613282791E+02  0.38984358247E+02  0.28982407505E+02  0.50448912428E+02  0.10566000000E+00 0. -1.
         13    1    4    4    0    0  0.20207025364E+01 -0.67219040342E+01  0.51189081044E+01  0.86880156999E+01  0.10566000000E+00 0. -1.
        -13    1    4    4    0    0  0.43526741830E+01 -0.11594251645E+02  0.95718638681E+01  0.15652609549E+02  0.10566000000E+00 0.  1.
         14    1    4    4    0    0  0.72399060717E+01 -0.20668202568E+02  0.14386935287E+02  0.26202571329E+02  0.00000000000E+00 0. -1.
<mgrwt>
<rscale>  0 0.82634310E+02</rscale>
<asrwt>0</asrwt>
<pdfrwt beam="1">  1        1 0.12234787E-01 0.82634310E+02</pdfrwt>
<pdfrwt beam="2">  1       -2 0.33024610E-02 0.82634310E+02</pdfrwt>
<totfact> 0.12957236E+05</totfact>
</mgrwt>
</event>
<event>
 8    1  0.7756875E-014  0.7963860E+02  0.7818608E-02  0.1330080E+00
         -2   -1    0    0    0  501 -0.00000000000E+00  0.00000000000E+00  0.32859551069E+02  0.32859551168E+02  0.25500000000E-02 0.  1.
          1   -1    0    0  501    0  0.00000000000E+00 -0.00000000000E+00 -0.48253149053E+02  0.48253149317E+02  0.50400000000E-02 0. -1.
        -24    2    1    2    0    0  0.00000000000E+00  0.00000000000E+00 -0.15393597984E+02  0.81112700485E+02  0.79638604464E+02 0.  0.
         66    2    3    3    0    0 -0.12824526266E+01  0.19352758395E+02  0.27689165402E+02  0.33865376675E+02  0.19999786154E+01 0.  0.
         13    1    3    3    0    0  0.12824526266E+01 -0.19352758395E+02 -0.43082763386E+02  0.47247323810E+02  0.10566000000E+00 0. -1.
         13    1    4    4    0    0 -0.55765237482E-01  0.34622637460E+01  0.53535618509E+01  0.63766894652E+01  0.10566000000E+00 0.  1.
        -13    1    4    4    0    0 -0.85990506536E+00  0.56745307184E+01  0.92016666995E+01  0.10845347836E+02  0.10566000000E+00 0.  1.
        -14    1    4    4    0    0 -0.36678232373E+00  0.10215963930E+02  0.13133936851E+02  0.16643339374E+02  0.00000000000E+00 0.  1.
<mgrwt>
<rscale>  0 0.79638604E+02</rscale>
<asrwt>0</asrwt>
<pdfrwt beam="1">  1        1 0.74235614E-02 0.79638604E+02</pdfrwt>
<pdfrwt beam="2">  1       -2 0.50553156E-02 0.79638604E+02</pdfrwt>
<totfact> 0.13249707E+05</totfact>
</mgrwt>
</event>
<event>
 8    1  0.7756875E-014  0.8162857E+02  0.7818608E-02  0.1324492E+00
         -2   -1    0    0    0  501 -0.00000000000E+00  0.00000000000E+00  0.11368469352E+02  0.11368469638E+02  0.25500000000E-02 0.  1.
          1   -1    0    0  501    0  0.00000000000E+00 -0.00000000000E+00 -0.14652860520E+03  0.14652860529E+03  0.50400000000E-02 0. -1.
        -24    2    1    2    0    0  0.00000000000E+00  0.35527136788E-14 -0.13516013585E+03  0.15789707492E+03  0.81628573105E+02 0.  0.
         66    2    3    3    0    0  0.34959281339E+02 -0.17651699197E+02 -0.45560004908E+02  0.60111961206E+02  0.19999991566E+01 0.  0.
         13    1    3    3    0    0 -0.34959281339E+02  0.17651699197E+02 -0.89600130939E+02  0.97785113717E+02  0.10566000000E+00 0. -1.
         13    1    4    4    0    0  0.43806739769E+01 -0.17659402515E+01 -0.54759601074E+01  0.72322992608E+01  0.10566000000E+00 0. -1.
        -13    1    4    4    0    0  0.95315398013E+01 -0.45799606193E+01 -0.13195549719E+02  0.16910351466E+02  0.10566000000E+00 0.  1.
        -14    1    4    4    0    0  0.21047067560E+02 -0.11305798327E+02 -0.26888495081E+02  0.35969310480E+02  0.00000000000E+00 0.  1.
<mgrwt>
<rscale>  0 0.81628573E+02</rscale>
<asrwt>0</asrwt>
<pdfrwt beam="1">  1        1 0.22542861E-01 0.81628573E+02</pdfrwt>
<pdfrwt beam="2">  1       -2 0.17489954E-02 0.81628573E+02</pdfrwt>
<totfact> 0.14894969E+05</totfact>
</mgrwt>
</event>
<event>
 8    1  0.7756875E-014  0.7168358E+02  0.7818608E-02  0.1354460E+00
         -2   -1    0    0    0  501 -0.00000000000E+00  0.00000000000E+00  0.20555460646E+02  0.20555460804E+02  0.25500000000E-02 0.  1.
          1   -1    0    0  501    0  0.00000000000E+00 -0.00000000000E+00 -0.62495999343E+02  0.62495999546E+02  0.50400000000E-02 0. -1.
        -24    2    1    2    0    0 -0.35527136788E-14  0.88817841970E-15 -0.41940538697E+02  0.83051460350E+02  0.71683584454E+02 0.  0.
         66    2    3    3    0    0 -0.23936899397E+02  0.55125839877E+01  0.92093085066E+01  0.26309220635E+02  0.19999980703E+01 0.  0.
         13    1    3    3    0    0  0.23936899397E+02 -0.55125839877E+01 -0.51149847203E+02  0.56742239715E+02  0.10566000000E+00 0. -1.
         13    1    4    4    0    0 -0.12736910242E+02  0.20918885832E+01  0.50329703410E+01  0.13854487895E+02  0.10566000000E+00 0. -1.
        -13    1    4    4    0    0 -0.45959021202E+01  0.11444273664E+01  0.14256001152E+01  0.49472750095E+01  0.10566000000E+00 0.  1.
         14    1    4    4    0    0 -0.66040870351E+01  0.22762680381E+01  0.27507380504E+01  0.75074577301E+01  0.00000000000E+00 0. -1.
<mgrwt>
<rscale>  0 0.71683584E+02</rscale>
<asrwt>0</asrwt>
<pdfrwt beam="1">  1        1 0.96147691E-02 0.71683584E+02</pdfrwt>
<pdfrwt beam="2">  1       -2 0.31623786E-02 0.71683584E+02</pdfrwt>
<totfact> 0.18376805E+05</totfact>
</mgrwt>
</event>
<event>
 8    1  0.7756875E-014  0.7986846E+02  0.7818608E-02  0.1329425E+00
          1   -1    0    0  501    0  0.00000000000E+00  0.00000000000E+00  0.76932643695E+01  0.76932660204E+01  0.50400000000E-02 0. -1.
         -2   -1    0    0    0  501 -0.00000000000E+00 -0.00000000000E+00 -0.20729074683E+03  0.20729074685E+03  0.25500000000E-02 0.  1.
        -24    2    1    2    0    0  0.00000000000E+00  0.00000000000E+00 -0.19959748246E+03  0.21498401287E+03  0.79868459254E+02 0.  0.
         66    2    3    3    0    0  0.31200845789E+02  0.23444258877E+02 -0.12231919033E+03  0.12840993100E+03  0.20000010953E+01 0.  0.
         13    1    3    3    0    0 -0.31200845789E+02 -0.23444258877E+02 -0.77278292132E+02  0.86574081867E+02  0.10566000000E+00 0. -1.
         13    1    4    4    0    0  0.54635838534E+01  0.35504612768E+01 -0.18784886114E+02  0.19883149503E+02  0.10566000000E+00 0. -1.
        -13    1    4    4    0    0  0.18260329194E+02  0.14412802369E+02 -0.74781097291E+02  0.78315976470E+02  0.10566000000E+00 0.  1.
        -14    1    4    4    0    0  0.74769327416E+01  0.54809952318E+01 -0.28753206928E+02  0.30210805031E+02  0.00000000000E+00 0.  1.
<mgrwt>
<rscale>  0 0.79868459E+02</rscale>
<asrwt>0</asrwt>
<pdfrwt beam="1">  1        1 0.11835794E-02 0.79868459E+02</pdfrwt>
<pdfrwt beam="2">  1       -2 0.31890880E-01 0.79868459E+02</pdfrwt>
<totfact> 0.84190099E+04</totfact>
</mgrwt>
</event>
<event>
 8    1  0.7756875E-014  0.7999582E+02  0.7818608E-02  0.1329063E+00
         -2   -1    0    0    0  501 -0.00000000000E+00  0.00000000000E+00  0.55736597663E+02  0.55736597721E+02  0.25500000000E-02 0.  1.
          1   -1    0    0  501    0  0.00000000000E+00 -0.00000000000E+00 -0.28703452174E+02  0.28703452617E+02  0.50400000000E-02 0. -1.
        -24    2    1    2    0    0 -0.88817841970E-15  0.00000000000E+00  0.27033145489E+02  0.84440050338E+02  0.79995819554E+02 0.  0.
         66    2    3    3    0    0  0.66566479713E+01 -0.11802413439E+02  0.53220350476E+02  0.54954650659E+02  0.19999997687E+01 0.  0.
         13    1    3    3    0    0 -0.66566479713E+01  0.11802413439E+02 -0.26187204987E+02  0.29485399679E+02  0.10566000000E+00 0. -1.
         13    1    4    4    0    0  0.28835152714E+01 -0.49754145208E+01  0.25896478110E+02  0.26527498045E+02  0.10566000000E+00 0.  1.
        -13    1    4    4    0    0  0.11046732947E+01 -0.14011535933E+01  0.68184389707E+01  0.70488161072E+01  0.10566000000E+00 0. -1.
         14    1    4    4    0    0  0.26684594052E+01 -0.54258453244E+01  0.20505433395E+02  0.21378336507E+02  0.00000000000E+00 0. -1.
<mgrwt>
<rscale>  0 0.79995820E+02</rscale>
<asrwt>0</asrwt>
<pdfrwt beam="1">  1        1 0.44159158E-02 0.79995820E+02</pdfrwt>
<pdfrwt beam="2">  1       -2 0.85748611E-02 0.79995820E+02</pdfrwt>
<totfact> 0.12001546E+05</totfact>
</mgrwt>
</event>
<event>
 8    1  0.7756875E-014  0.7399329E+02  0.7818608E-02  0.1347017E+00
         -2   -1    0    0    0  501 -0.00000000000E+00  0.00000000000E+00  0.12171386415E+03  0.12171386418E+03  0.25500000000E-02 0.  1.
          1   -1    0    0  501    0  0.00000000000E+00 -0.00000000000E+00 -0.11245650521E+02  0.11245651650E+02  0.50400000000E-02 0. -1.
        -24    2    1    2    0    0 -0.44408920985E-15  0.17763568394E-14  0.11046821363E+03  0.13295951583E+03  0.73993287713E+02 0.  0.
         66    2    3    3    0    0 -0.37920880973E+01  0.97831205199E+01  0.11897377842E+03  0.11945228904E+03  0.20000063207E+01 0.  0.
         13    1    3    3    0    0  0.37920880973E+01 -0.97831205199E+01 -0.85055647876E+01  0.13507226793E+02  0.10566000000E+00 0. -1.
         13    1    4    4    0    0 -0.26296365563E+01  0.57837185402E+01  0.78605793388E+02  0.78862210892E+02  0.10566000000E+00 0. -1.
        -13    1    4    4    0    0 -0.79674971047E+00  0.26459079200E+01  0.30111905239E+02  0.30238611740E+02  0.10566000000E+00 0.  1.
         14    1    4    4    0    0 -0.36570183055E+00  0.13534940598E+01  0.10256079795E+02  0.10351466406E+02  0.00000000000E+00 0. -1.
<mgrwt>
<rscale>  0 0.73993288E+02</rscale>
<asrwt>0</asrwt>
<pdfrwt beam="1">  1        1 0.17301002E-02 0.73993288E+02</pdfrwt>
<pdfrwt beam="2">  1       -2 0.18725209E-01 0.73993288E+02</pdfrwt>
<totfact> 0.12303176E+05</totfact>
</mgrwt>
</event>
<event>
 8    1  0.7756875E-014  0.8017494E+02  0.7818608E-02  0.1328556E+00
          1   -1    0    0  501    0  0.00000000000E+00  0.00000000000E+00  0.26912021478E+03  0.26912021483E+03  0.50400000000E-02 0. -1.
         -2   -1    0    0    0  501 -0.00000000000E+00 -0.00000000000E+00 -0.59713284941E+01  0.59713290385E+01  0.25500000000E-02 0.  1.
        -24    2    1    2    0    0  0.00000000000E+00  0.00000000000E+00  0.26314888629E+03  0.27509154387E+03  0.80174940929E+02 0.  0.
         66    2    3    3    0    0  0.35598202627E+02  0.16198323728E+01  0.19446982290E+03  0.19771789978E+03  0.19999970727E+01 0.  0.
         13    1    3    3    0    0 -0.35598202627E+02 -0.16198323728E+01  0.68679063390E+02  0.77373644087E+02  0.10566000000E+00 0. -1.
         13    1    4    4    0    0  0.16161488109E+02  0.23228497440E+00  0.91264642675E+02  0.92684916901E+02  0.10566000000E+00 0. -1.
        -13    1    4    4    0    0  0.17391422532E+02  0.11724595339E+01  0.93746152312E+02  0.95352967842E+02  0.10566000000E+00 0.  1.
         14    1    4    4    0    0  0.20452919863E+01  0.21508786451E+00  0.94590279090E+01  0.96800150352E+01  0.00000000000E+00 0. -1.
<mgrwt>
<rscale>  0 0.80174941E+02</rscale>
<asrwt>0</asrwt>
<pdfrwt beam="1">  1        1 0.41403109E-01 0.80174941E+02</pdfrwt>
<pdfrwt beam="2">  1       -2 0.91866599E-03 0.80174941E+02</pdfrwt>
<totfact> 0.17565922E+05</totfact>
</mgrwt>
</event>
<event>
 8    1  0.7756875E-014  0.8033225E+02  0.7818608E-02  0.1328111E+00
         -2   -1    0    0    0  501 -0.00000000000E+00  0.00000000000E+00  0.48739052058E+02  0.48739052125E+02  0.25500000000E-02 0.  1.
          1   -1    0    0  501    0  0.00000000000E+00 -0.00000000000E+00 -0.33101129722E+02  0.33101130106E+02  0.50400000000E-02 0. -1.
        -24    2    1    2    0    0  0.00000000000E+00  0.00000000000E+00  0.15637922336E+02  0.81840182231E+02  0.80332252630E+02 0.  0.
         66    2    3    3    0    0 -0.16883191930E+02 -0.36035061711E+02  0.13190010517E+02  0.41970754362E+02  0.20000005181E+01 0.  0.
         13    1    3    3    0    0  0.16883191930E+02  0.36035061711E+02  0.24479118185E+01  0.39869427868E+02  0.10566000000E+00 0. -1.
         13    1    4    4    0    0 -0.81123456058E+01 -0.16299173667E+02  0.62012316462E+01  0.19233815311E+02  0.10566000000E+00 0.  1.
        -13    1    4    4    0    0 -0.83996381324E+01 -0.18076739490E+02  0.65373886952E+01  0.20977870395E+02  0.10566000000E+00 0.  1.
        -14    1    4    4    0    0 -0.37120819147E+00 -0.16591485539E+01  0.45139017562E+00  0.17590686559E+01  0.00000000000E+00 0.  1.
<mgrwt>
<rscale>  0 0.80332253E+02</rscale>
<asrwt>0</asrwt>
<pdfrwt beam="1">  1        1 0.50924816E-02 0.80332253E+02</pdfrwt>
<pdfrwt beam="2">  1       -2 0.74983157E-02 0.80332253E+02</pdfrwt>
<totfact> 0.12158868E+05</totfact>
</mgrwt>
</event>
<event>
 8    1  0.7756875E-014  0.7817470E+02  0.7818608E-02  0.1334313E+00
          1   -1    0    0  501    0  0.00000000000E+00  0.00000000000E+00  0.44746682405E+02  0.44746682689E+02  0.50400000000E-02 0. -1.
         -2   -1    0    0    0  501 -0.00000000000E+00 -0.00000000000E+00 -0.34143776726E+02  0.34143776821E+02  0.25500000000E-02 0.  1.
        -24    2    1    2    0    0  0.00000000000E+00 -0.88817841970E-15  0.10602905679E+02  0.78890459510E+02  0.78174695349E+02 0.  0.
         66    2    3    3    0    0 -0.35276746858E+02 -0.50667077018E+01 -0.10831974108E+02  0.37302172321E+02  0.20000002374E+01 0.  0.
         13    1    3    3    0    0  0.35276746858E+02  0.50667077018E+01  0.21434879787E+02  0.41588287189E+02  0.10566000000E+00 0. -1.
         13    1    4    4    0    0 -0.47290182199E+01 -0.10766894415E+01 -0.10499236022E+01  0.49635045164E+01  0.10566000000E+00 0. -1.
        -13    1    4    4    0    0 -0.27466031933E+02 -0.37526213118E+01 -0.85326335154E+01  0.29004862965E+02  0.10566000000E+00 0.  1.
        -14    1    4    4    0    0 -0.30816967045E+01 -0.23739694848E+00 -0.12494169906E+01  0.33338048393E+01  0.00000000000E+00 0.  1.
<mgrwt>
<rscale>  0 0.78174695E+02</rscale>
<asrwt>0</asrwt>
<pdfrwt beam="1">  1        1 0.68841050E-02 0.78174695E+02</pdfrwt>
<pdfrwt beam="2">  1       -2 0.52528888E-02 0.78174695E+02</pdfrwt>
<totfact> 0.13789029E+05</totfact>
</mgrwt>
</event>
<event>
 8    1  0.7756875E-014  0.8618527E+02  0.7818608E-02  0.1312362E+00
         -2   -1    0    0    0  501 -0.00000000000E+00  0.00000000000E+00  0.75847184474E+01  0.75847188760E+01  0.25500000000E-02 0.  1.
          1   -1    0    0  501    0  0.00000000000E+00 -0.00000000000E+00 -0.24483114725E+03  0.24483114731E+03  0.50400000000E-02 0. -1.
        -24    2    1    2    0    0  0.88817841970E-15  0.00000000000E+00 -0.23724642881E+03  0.25241586618E+03  0.86185274373E+02 0.  0.
         66    2    3    3    0    0  0.63109491959E+01 -0.37418748208E+02 -0.59025038192E+02  0.70199330067E+02  0.20000027519E+01 0.  0.
         13    1    3    3    0    0 -0.63109491959E+01  0.37418748208E+02 -0.17822139061E+03  0.18221653611E+03  0.10566000000E+00 0. -1.
         13    1    4    4    0    0  0.95938111187E+00 -0.60550301408E+01 -0.84741731463E+01  0.10459759876E+02  0.10566000000E+00 0. -1.
        -13    1    4    4    0    0  0.89570665147E-01 -0.16107510382E+01 -0.27508675420E+01  0.31907644977E+01  0.10566000000E+00 0.  1.
        -14    1    4    4    0    0  0.52619974189E+01 -0.29752967029E+02 -0.47799997504E+02  0.56548805692E+02  0.00000000000E+00 0.  1.
<mgrwt>
<rscale>  0 0.86185274E+02</rscale>
<asrwt>0</asrwt>
<pdfrwt beam="1">  1        1 0.37666325E-01 0.86185274E+02</pdfrwt>
<pdfrwt beam="2">  1       -2 0.11668800E-02 0.86185274E+02</pdfrwt>
<totfact> 0.14232041E+05</totfact>
</mgrwt>
</event>
<event>
 8    1  0.7756875E-014  0.7972342E+02  0.7818608E-02  0.1329838E+00
         -2   -1    0    0    0  501 -0.00000000000E+00  0.00000000000E+00  0.45184317981E+02  0.45184318053E+02  0.25500000000E-02 0.  1.
          1   -1    0    0  501    0  0.00000000000E+00 -0.00000000000E+00 -0.35166093167E+02  0.35166093528E+02  0.50400000000E-02 0. -1.
        -24    2    1    2    0    0  0.00000000000E+00  0.00000000000E+00  0.10018224814E+02  0.80350411582E+02  0.79723420730E+02 0.  0.
         66    2    3    3    0    0 -0.26154677987E+02  0.15069622971E+02  0.31212669880E+02  0.43467131050E+02  0.20000008830E+01 0.  0.
         13    1    3    3    0    0  0.26154677987E+02 -0.15069622971E+02 -0.21194445066E+02  0.36883280532E+02  0.10566000000E+00 0. -1.
         13    1    4    4    0    0 -0.69699839220E+01  0.43399507547E+01  0.77907824814E+01  0.11319156512E+02  0.10566000000E+00 0. -1.
        -13    1    4    4    0    0 -0.10331347353E+02  0.59451972542E+01  0.11770200656E+02  0.16752041548E+02  0.10566000000E+00 0.  1.
        -14    1    4    4    0    0 -0.88533467122E+01  0.47844749621E+01  0.11651686743E+02  0.15395932990E+02  0.00000000000E+00 0.  1.
<mgrwt>
<rscale>  0 0.79723421E+02</rscale>
<asrwt>0</asrwt>
<pdfrwt beam="1">  1        1 0.54101682E-02 0.79723421E+02</pdfrwt>
<pdfrwt beam="2">  1       -2 0.69514336E-02 0.79723421E+02</pdfrwt>
<totfact> 0.12553277E+05</totfact>
</mgrwt>
</event>
<event>
 8    1  0.7756875E-014  0.7900580E+02  0.7818608E-02  0.1331897E+00
          1   -1    0    0  501    0  0.00000000000E+00  0.00000000000E+00  0.28763059680E+02  0.28763060122E+02  0.50400000000E-02 0. -1.
         -2   -1    0    0    0  501 -0.00000000000E+00 -0.00000000000E+00 -0.54252885292E+02  0.54252885352E+02  0.25500000000E-02 0.  1.
        -24    2    1    2    0    0 -0.88817841970E-15  0.71054273576E-14 -0.25489825612E+02  0.83015945473E+02  0.79005797212E+02 0.  0.
         66    2    3    3    0    0 -0.50928713812E+01  0.31594808289E+02 -0.37041356137E+02  0.48992155690E+02  0.20000012232E+01 0.  0.
         13    1    3    3    0    0  0.50928713812E+01 -0.31594808289E+02  0.11551530525E+02  0.34023789784E+02  0.10566000000E+00 0. -1.
         13    1    4    4    0    0 -0.16748217410E+01  0.11172517167E+02 -0.13779520219E+02  0.17818992935E+02  0.10566000000E+00 0. -1.
        -13    1    4    4    0    0 -0.22286227957E+01  0.16194161675E+02 -0.17879644759E+02  0.24226235627E+02  0.10566000000E+00 0.  1.
         14    1    4    4    0    0 -0.11894268445E+01  0.42281294476E+01 -0.53821911594E+01  0.69469271279E+01  0.00000000000E+00 0. -1.
<mgrwt>
<rscale>  0 0.79005797E+02</rscale>
<asrwt>0</asrwt>
<pdfrwt beam="1">  1        1 0.44250861E-02 0.79005797E+02</pdfrwt>
<pdfrwt beam="2">  1       -2 0.83465978E-02 0.79005797E+02</pdfrwt>
<totfact> 0.12444369E+05</totfact>
</mgrwt>
</event>
<event>
 8    1  0.7756875E-014  0.7841309E+02  0.7818608E-02  0.1333616E+00
         -2   -1    0    0    0  501 -0.00000000000E+00  0.00000000000E+00  0.53834266218E+03  0.53834266218E+03  0.25500000000E-02 0.  1.
          1   -1    0    0  501    0  0.00000000000E+00 -0.00000000000E+00 -0.28553410368E+01  0.28553454849E+01  0.50400000000E-02 0. -1.
        -24    2    1    2    0    0 -0.35527136788E-14  0.00000000000E+00  0.53548732114E+03  0.54119800767E+03  0.78413088205E+02 0.  0.
         66    2    3    3    0    0 -0.23180313927E+02  0.25564614183E+02  0.39597877238E+03  0.39748467220E+03  0.20000002038E+01 0.  0.
         13    1    3    3    0    0  0.23180313927E+02 -0.25564614183E+02  0.13950854876E+03  0.14371333547E+03  0.10566000000E+00 0. -1.
         13    1    4    4    0    0 -0.88695320755E+01  0.98442113511E+01  0.16153352368E+03  0.16207611648E+03  0.10566000000E+00 0. -1.
        -13    1    4    4    0    0 -0.73902958509E+01  0.87041767747E+01  0.12690658564E+03  0.12741927566E+03  0.10566000000E+00 0.  1.
         14    1    4    4    0    0 -0.69204860003E+01  0.70162260575E+01  0.10753866306E+03  0.10798928005E+03  0.00000000000E+00 0. -1.
<mgrwt>
<rscale>  0 0.78413088E+02</rscale>
<asrwt>0</asrwt>
<pdfrwt beam="1">  1        1 0.43928430E-03 0.78413088E+02</pdfrwt>
<pdfrwt beam="2">  1       -2 0.82821812E-01 0.78413088E+02</pdfrwt>
<totfact> 0.50071923E+04</totfact>
</mgrwt>
</event>
<event>
 8    1  0.7756875E-014  0.8119097E+02  0.7818608E-02  0.1325705E+00
         -2   -1    0    0    0  501 -0.00000000000E+00  0.00000000000E+00  0.88840433592E+01  0.88840437252E+01  0.25500000000E-02 0.  1.
          1   -1    0    0  501    0  0.00000000000E+00 -0.00000000000E+00 -0.18550036197E+03  0.18550036204E+03  0.50400000000E-02 0. -1.
        -24    2    1    2    0    0  0.35527136788E-14  0.00000000000E+00 -0.17661631861E+03  0.19438440576E+03  0.81190967505E+02 0.  0.
         66    2    3    3    0    0 -0.17441725778E+02 -0.22721173980E+02 -0.19572715659E+02  0.34749917205E+02  0.20000006001E+01 0.  0.
         13    1    3    3    0    0  0.17441725778E+02  0.22721173980E+02 -0.15704360295E+03  0.15963448856E+03  0.10566000000E+00 0. -1.
         13    1    4    4    0    0 -0.70049447141E+00 -0.91589149531E+00 -0.46786538946E+00  0.12488441832E+01  0.10566000000E+00 0. -1.
        -13    1    4    4    0    0 -0.90202308351E+01 -0.12472350502E+02 -0.10156786299E+02  0.18441680057E+02  0.10566000000E+00 0.  1.
        -14    1    4    4    0    0 -0.77210004710E+01 -0.93329319820E+01 -0.89480639702E+01  0.15059392965E+02  0.00000000000E+00 0.  1.
<mgrwt>
<rscale>  0 0.81190968E+02</rscale>
<asrwt>0</asrwt>
<pdfrwt beam="1">  1        1 0.28538514E-01 0.81190968E+02</pdfrwt>
<pdfrwt beam="2">  1       -2 0.13667761E-02 0.81190968E+02</pdfrwt>
<totfact> 0.15799390E+05</totfact>
</mgrwt>
</event>
<event>
 8    1  0.8435067E-014  0.7928889E+02  0.7818608E-02  0.1331082E+00
         -2   -1    0    0    0  501 -0.00000000000E+00  0.00000000000E+00  0.82398323175E+01  0.82398327121E+01  0.25500000000E-02 0.  1.
          1   -1    0    0  501    0  0.00000000000E+00 -0.00000000000E+00 -0.19074199887E+03  0.19074199894E+03  0.50400000000E-02 0. -1.
        -24    2    1    2    0    0 -0.35527136788E-14  0.71054273576E-14 -0.18250216656E+03  0.19898183165E+03  0.79288892854E+02 0.  0.
         66    2    3    3    0    0 -0.19581053816E+02  0.26922863954E+02 -0.37401533895E+02  0.50111206495E+02  0.20000016677E+01 0.  0.
         13    1    3    3    0    0  0.19581053816E+02 -0.26922863954E+02 -0.14510063266E+03  0.14887062516E+03  0.10566000000E+00 0. -1.
         13    1    4    4    0    0 -0.26931890351E+01  0.33890243579E+01 -0.54546978672E+01  0.69644559109E+01  0.10566000000E+00 0. -1.
        -13    1    4    4    0    0 -0.16127725337E+02  0.22102310999E+02 -0.30499975358E+02  0.40974081282E+02  0.10566000000E+00 0.  1.
         14    1    4    4    0    0 -0.76013944323E+00  0.14315285968E+01 -0.14468606700E+01  0.21726693018E+01  0.00000000000E+00 0. -1.
<mgrwt>
<rscale>  0 0.79288893E+02</rscale>
<asrwt>0</asrwt>
<pdfrwt beam="1">  1        1 0.29344920E-01 0.79288893E+02</pdfrwt>
<pdfrwt beam="2">  1       -2 0.12676667E-02 0.79288893E+02</pdfrwt>
<totfact> 0.16918134E+05</totfact>
</mgrwt>
</event>
<event>
 8    1  0.7756875E-014  0.8681802E+02  0.7818608E-02  0.1310746E+00
          1   -1    0    0  501    0  0.00000000000E+00  0.00000000000E+00  0.92078419180E+02  0.92078419318E+02  0.50400000000E-02 0. -1.
         -2   -1    0    0    0  501 -0.00000000000E+00 -0.00000000000E+00 -0.20464535681E+02  0.20464535840E+02  0.25500000000E-02 0.  1.
        -24    2    1    2    0    0  0.00000000000E+00  0.00000000000E+00  0.71613883498E+02  0.11254295516E+03  0.86818019132E+02 0.  0.
         66    2    3    3    0    0 -0.17134753308E+02  0.14800445980E+02 -0.12149513517E+02  0.25773312910E+02  0.20000018793E+01 0.  0.
         13    1    3    3    0    0  0.17134753308E+02 -0.14800445980E+02  0.83763397016E+02  0.86769642248E+02  0.10566000000E+00 0. -1.
         13    1    4    4    0    0 -0.58795371365E+01  0.47388749117E+01 -0.36731818783E+01  0.83981737011E+01  0.10566000000E+00 0. -1.
        -13    1    4    4    0    0 -0.75207605079E+01  0.59570992546E+01 -0.49021109553E+01  0.10774540640E+02  0.10566000000E+00 0.  1.
        -14    1    4    4    0    0 -0.37344556636E+01  0.41044718142E+01 -0.35742206837E+01  0.66005985693E+01  0.00000000000E+00 0.  1.
<mgrwt>
<rscale>  0 0.86818019E+02</rscale>
<asrwt>0</asrwt>
<pdfrwt beam="1">  1        1 0.14165911E-01 0.86818019E+02</pdfrwt>
<pdfrwt beam="2">  1       -2 0.31483901E-02 0.86818019E+02</pdfrwt>
<totfact> 0.11601365E+05</totfact>
</mgrwt>
</event>
<event>
 8    1  0.7756875E-014  0.8162056E+02  0.7818608E-02  0.1324514E+00
          1   -1    0    0  501    0  0.00000000000E+00  0.00000000000E+00  0.32994587045E+02  0.32994587430E+02  0.50400000000E-02 0. -1.
         -2   -1    0    0    0  501 -0.00000000000E+00 -0.00000000000E+00 -0.50477339219E+02  0.50477339284E+02  0.25500000000E-02 0.  1.
        -24    2    1    2    0    0 -0.71054273576E-14  0.35527136788E-14 -0.17482752174E+02  0.83471926713E+02  0.81620560680E+02 0.  0.
         66    2    3    3    0    0 -0.30847570680E+02  0.24994393400E+02 -0.18295512878E+02  0.43760919898E+02  0.20000001544E+01 0.  0.
         13    1    3    3    0    0  0.30847570680E+02 -0.24994393400E+02  0.81276070382E+00  0.39711006815E+02  0.10566000000E+00 0. -1.
         13    1    4    4    0    0 -0.76618772031E+01  0.62939477460E+01 -0.42612096300E+01  0.10792924166E+02  0.10566000000E+00 0. -1.
        -13    1    4    4    0    0 -0.21092581691E+02  0.16897979169E+02 -0.13228710093E+02  0.30090673591E+02  0.10566000000E+00 0.  1.
         14    1    4    4    0    0 -0.20931117859E+01  0.18024664846E+01 -0.80559315548E+00  0.28773221420E+01  0.00000000000E+00 0. -1.
<mgrwt>
<rscale>  0 0.81620561E+02</rscale>
<asrwt>0</asrwt>
<pdfrwt beam="1">  1        1 0.50760904E-02 0.81620561E+02</pdfrwt>
<pdfrwt beam="2">  1       -2 0.77657445E-02 0.81620561E+02</pdfrwt>
<totfact> 0.11611329E+05</totfact>
</mgrwt>
</event>
<event>
 8    1  0.7756875E-014  0.7390673E+02  0.7818608E-02  0.1347290E+00
         -2   -1    0    0    0  501 -0.00000000000E+00  0.00000000000E+00  0.55400193652E+02  0.55400193710E+02  0.25500000000E-02 0.  1.
          1   -1    0    0  501    0  0.00000000000E+00 -0.00000000000E+00 -0.24648851986E+02  0.24648852501E+02  0.50400000000E-02 0. -1.
        -24    2    1    2    0    0  0.00000000000E+00  0.00000000000E+00  0.30751341666E+02  0.80049046212E+02  0.73906730311E+02 0.  0.
         66    2    3    3    0    0  0.10230424084E+02  0.20162476404E+02  0.47008476541E+02  0.52201377906E+02  0.19999892356E+01 0.  0.
         13    1    3    3    0    0 -0.10230424084E+02 -0.20162476404E+02 -0.16257134875E+02  0.27847668306E+02  0.10566000000E+00 0. -1.
         13    1    4    4    0    0  0.21474418110E+01  0.28160583468E+01  0.78312626816E+01  0.85954365897E+01  0.10566000000E+00 0. -1.
        -13    1    4    4    0    0  0.34871906869E+01  0.71601905460E+01  0.15703886023E+02  0.17608294290E+02  0.10566000000E+00 0.  1.
         14    1    4    4    0    0  0.45957915860E+01  0.10186227511E+02  0.23473327837E+02  0.25997647027E+02  0.00000000000E+00 0. -1.
<mgrwt>
<rscale>  0 0.73906730E+02</rscale>
<asrwt>0</asrwt>
<pdfrwt beam="1">  1        1 0.37921312E-02 0.73906730E+02</pdfrwt>
<pdfrwt beam="2">  1       -2 0.85231066E-02 0.73906730E+02</pdfrwt>
<totfact> 0.14667518E+05</totfact>
</mgrwt>
</event>
<event>
 8    1  0.7756875E-014  0.8354457E+02  0.7818608E-02  0.1319283E+00
         -2   -1    0    0    0  501 -0.00000000000E+00  0.00000000000E+00  0.22092816231E+03  0.22092816232E+03  0.25500000000E-02 0.  1.
          1   -1    0    0  501    0  0.00000000000E+00 -0.00000000000E+00 -0.78981493602E+01  0.78981509683E+01  0.50400000000E-02 0. -1.
        -24    2    1    2    0    0 -0.71054273576E-14 -0.35527136788E-14  0.21303001295E+03  0.22882631329E+03  0.83544570367E+02 0.  0.
         66    2    3    3    0    0  0.34419577232E+02 -0.21022320675E+02  0.13611027981E+03  0.14197412982E+03  0.20000013221E+01 0.  0.
         13    1    3    3    0    0 -0.34419577232E+02  0.21022320675E+02  0.76919733139E+02  0.86852183470E+02  0.10566000000E+00 0. -1.
         13    1    4    4    0    0  0.11136862164E+01 -0.45756805323E+00  0.40900708083E+01  0.42649160325E+01  0.10566000000E+00 0. -1.
        -13    1    4    4    0    0  0.17485425533E+02 -0.10609108632E+02  0.71565203481E+02  0.74430388991E+02  0.10566000000E+00 0.  1.
         14    1    4    4    0    0  0.15820465482E+02 -0.99556439904E+01  0.60455005521E+02  0.63278824798E+02  0.00000000000E+00 0. -1.
<mgrwt>
<rscale>  0 0.83544570E+02</rscale>
<asrwt>0</asrwt>
<pdfrwt beam="1">  1        1 0.12151001E-02 0.83544570E+02</pdfrwt>
<pdfrwt beam="2">  1       -2 0.33988947E-01 0.83544570E+02</pdfrwt>
<totfact> 0.72939641E+04</totfact>
</mgrwt>
</event>
<event>
 8    1  0.7756875E-014  0.8212813E+02  0.7818608E-02  0.1323118E+00
          1   -1    0    0  501    0  0.00000000000E+00  0.00000000000E+00  0.24482814458E+03  0.24482814463E+03  0.50400000000E-02 0. -1.
         -2   -1    0    0    0  501 -0.00000000000E+00 -0.00000000000E+00 -0.68875150005E+01  0.68875154726E+01  0.25500000000E-02 0.  1.
        -24    2    1    2    0    0 -0.71054273576E-14 -0.35527136788E-14  0.23794062958E+03  0.25171566011E+03  0.82128133652E+02 0.  0.
         66    2    3    3    0    0 -0.31216251168E+02 -0.25824879949E+02  0.98972190272E+02  0.10696201749E+03  0.19999944617E+01 0.  0.
         13    1    3    3    0    0  0.31216251168E+02  0.25824879949E+02  0.13896843931E+03  0.14475364261E+03  0.10566000000E+00 0. -1.
         13    1    4    4    0    0 -0.74189382644E+01 -0.63523403054E+01  0.24436540169E+02  0.26316316835E+02  0.10566000000E+00 0. -1.
        -13    1    4    4    0    0 -0.37095935487E+01 -0.24836113102E+01  0.98682964403E+01  0.10831613366E+02  0.10566000000E+00 0.  1.
        -14    1    4    4    0    0 -0.20087719355E+02 -0.16988928334E+02  0.64667353663E+02  0.69814087293E+02  0.00000000000E+00 0.  1.
<mgrwt>
<rscale>  0 0.82128134E+02</rscale>
<asrwt>0</asrwt>
<pdfrwt beam="1">  1        1 0.37665859E-01 0.82128134E+02</pdfrwt>
<pdfrwt beam="2">  1       -2 0.10596180E-02 0.82128134E+02</pdfrwt>
<totfact> 0.16179285E+05</totfact>
</mgrwt>
</event>
<event>
 8    1  0.7756875E-014  0.8425281E+02  0.7818608E-02  0.1317398E+00
         -2   -1    0    0    0  501 -0.00000000000E+00  0.00000000000E+00  0.27650108208E+02  0.27650108326E+02  0.25500000000E-02 0.  1.
          1   -1    0    0  501    0  0.00000000000E+00 -0.00000000000E+00 -0.64181813277E+02  0.64181813475E+02  0.50400000000E-02 0. -1.
        -24    2    1    2    0    0  0.71054273576E-14  0.00000000000E+00 -0.36531705069E+02  0.91831921801E+02  0.84252812335E+02 0.  0.
         66    2    3    3    0    0  0.34524225492E+02 -0.14375507757E+02  0.28041010313E+01  0.37555829692E+02  0.19999980471E+01 0.  0.
         13    1    3    3    0    0 -0.34524225492E+02  0.14375507757E+02 -0.39335806100E+02  0.54276092109E+02  0.10566000000E+00 0. -1.
         13    1    4    4    0    0  0.10123925341E+02 -0.39489492177E+01  0.76662698204E+00  0.10894353822E+02  0.10566000000E+00 0. -1.
        -13    1    4    4    0    0  0.16195951143E+02 -0.70858960085E+01  0.61196422934E+00  0.17689104554E+02  0.10566000000E+00 0.  1.
         14    1    4    4    0    0  0.82043490080E+01 -0.33406625305E+01  0.14255098199E+01  0.89723713161E+01  0.00000000000E+00 0. -1.
<mgrwt>
<rscale>  0 0.84252812E+02</rscale>
<asrwt>0</asrwt>
<pdfrwt beam="1">  1        1 0.98741252E-02 0.84252812E+02</pdfrwt>
<pdfrwt beam="2">  1       -2 0.42538628E-02 0.84252812E+02</pdfrwt>
<totfact> 0.11860085E+05</totfact>
</mgrwt>
</event>
<event>
 8    1  0.7756875E-014  0.7687590E+02  0.7818608E-02  0.1338158E+00
         -2   -1    0    0    0  501 -0.00000000000E+00  0.00000000000E+00  0.21704018430E+03  0.21704018431E+03  0.25500000000E-02 0.  1.
          1   -1    0    0  501    0  0.00000000000E+00 -0.00000000000E+00 -0.68073839173E+01  0.68073857831E+01  0.50400000000E-02 0. -1.
        -24    2    1    2    0    0  0.00000000000E+00  0.00000000000E+00  0.21023280038E+03  0.22384757010E+03  0.76875901829E+02 0.  0.
         66    2    3    3    0    0  0.13297002730E+02  0.48374426369E+01  0.20917015399E+03  0.20965773168E+03  0.19999995679E+01 0.  0.
         13    1    3    3    0    0 -0.13297002730E+02 -0.48374426369E+01  0.10626463851E+01  0.14189838415E+02  0.10566000000E+00 0. -1.
         13    1    4    4    0    0  0.14332857918E+01 -0.90303816274E-01  0.21061901559E+02  0.21111071130E+02  0.10566000000E+00 0. -1.
        -13    1    4    4    0    0  0.67597986081E+01  0.26907050643E+01  0.10524691928E+03  0.10549815142E+03  0.10566000000E+00 0.  1.
         14    1    4    4    0    0  0.51039183300E+01  0.22370413889E+01  0.82861333160E+02  0.83048509135E+02  0.00000000000E+00 0. -1.
<mgrwt>
<rscale>  0 0.76875902E+02</rscale>
<asrwt>0</asrwt>
<pdfrwt beam="1">  1        1 0.10472901E-02 0.76875902E+02</pdfrwt>
<pdfrwt beam="2">  1       -2 0.33390795E-01 0.76875902E+02</pdfrwt>
<totfact> 0.91107999E+04</totfact>
</mgrwt>
</event>
<event>
 8    1  0.7756875E-014  0.7732483E+02  0.7818608E-02  0.1336819E+00
         -2   -1    0    0    0  501 -0.00000000000E+00  0.00000000000E+00  0.65179297581E+03  0.65179297581E+03  0.25500000000E-02 0.  1.
          1   -1    0    0  501    0  0.00000000000E+00 -0.00000000000E+00 -0.22933361558E+01  0.22933416939E+01  0.50400000000E-02 0. -1.
        -24    2    1    2    0    0  0.00000000000E+00 -0.88817841970E-15  0.64949963965E+03  0.65408631750E+03  0.77324826811E+02 0.  0.
         66    2    3    3    0    0  0.11686984922E+02  0.78869753788E+01  0.62925186905E+03  0.62941298422E+03  0.20000004107E+01 0.  0.
         13    1    3    3    0    0 -0.11686984922E+02 -0.78869753788E+01  0.20247770602E+02  0.24673333289E+02  0.10566000000E+00 0. -1.
         13    1    4    4    0    0  0.45778858887E+01  0.30613261339E+01  0.25622990937E+03  0.25628910702E+03  0.10566000000E+00 0. -1.
        -13    1    4    4    0    0  0.41213322344E+01  0.20743378911E+01  0.21690354313E+03  0.21695263641E+03  0.10566000000E+00 0.  1.
         14    1    4    4    0    0  0.29877667993E+01  0.27513113538E+01  0.15611841654E+03  0.15617124079E+03  0.00000000000E+00 0. -1.
<mgrwt>
<rscale>  0 0.77324827E+02</rscale>
<asrwt>0</asrwt>
<pdfrwt beam="1">  1        1 0.35282065E-03 0.77324827E+02</pdfrwt>
<pdfrwt beam="2">  1       -2 0.10027605E+00 0.77324827E+02</pdfrwt>
<totfact> 0.44125037E+04</totfact>
</mgrwt>
</event>
<event>
 8    1  0.7756875E-014  0.7896867E+02  0.7818608E-02  0.1332004E+00
          1   -1    0    0  501    0  0.00000000000E+00  0.00000000000E+00  0.18491850994E+02  0.18491851681E+02  0.50400000000E-02 0. -1.
         -2   -1    0    0    0  501 -0.00000000000E+00 -0.00000000000E+00 -0.84308096524E+02  0.84308096563E+02  0.25500000000E-02 0.  1.
        -24    2    1    2    0    0 -0.17763568394E-14  0.71054273576E-14 -0.65816245530E+02  0.10279994824E+03  0.78968672163E+02 0.  0.
         66    2    3    3    0    0 -0.10749614484E+02  0.37566725796E+02 -0.40082428245E+02  0.56012625017E+02  0.20000021525E+01 0.  0.
         13    1    3    3    0    0  0.10749614484E+02 -0.37566725796E+02 -0.25733817285E+02  0.46787323227E+02  0.10566000000E+00 0. -1.
         13    1    4    4    0    0 -0.32427454031E+01  0.10448387215E+02 -0.11007260445E+02  0.15519508358E+02  0.10566000000E+00 0. -1.
        -13    1    4    4    0    0 -0.13740385223E+01  0.32120485326E+01 -0.32908896939E+01  0.48006621054E+01  0.10566000000E+00 0.  1.
        -14    1    4    4    0    0 -0.61328305589E+01  0.23906290049E+02 -0.25784278106E+02  0.35692454554E+02  0.00000000000E+00 0.  1.
<mgrwt>
<rscale>  0 0.78968672E+02</rscale>
<asrwt>0</asrwt>
<pdfrwt beam="1">  1        1 0.28449003E-02 0.78968672E+02</pdfrwt>
<pdfrwt beam="2">  1       -2 0.12970476E-01 0.78968672E+02</pdfrwt>
<totfact> 0.11419884E+05</totfact>
</mgrwt>
</event>
<event>
 8    1  0.7756875E-014  0.7966865E+02  0.7818608E-02  0.1329994E+00
          1   -1    0    0  501    0  0.00000000000E+00  0.00000000000E+00  0.39726800733E+01  0.39726832703E+01  0.50400000000E-02 0. -1.
         -2   -1    0    0    0  501 -0.00000000000E+00 -0.00000000000E+00 -0.39942127515E+03  0.39942127516E+03  0.25500000000E-02 0.  1.
        -24    2    1    2    0    0 -0.44408920985E-15  0.71054273576E-14 -0.39544859508E+03  0.40339395843E+03  0.79668653488E+02 0.  0.
         66    2    3    3    0    0  0.38532785710E+01 -0.39552341173E+02 -0.20975904101E+03  0.21349962702E+03  0.20000009386E+01 0.  0.
         13    1    3    3    0    0 -0.38532785710E+01  0.39552341173E+02 -0.18568955407E+03  0.18989433141E+03  0.10566000000E+00 0. -1.
         13    1    4    4    0    0  0.13414406145E+01 -0.95681442333E+01 -0.49466196118E+02  0.50401037384E+02  0.10566000000E+00 0. -1.
        -13    1    4    4    0    0  0.87772621134E+00 -0.57812885512E+01 -0.29098879317E+02  0.29680795848E+02  0.10566000000E+00 0. -1.
        -14    1    4    4    0    0  0.16341117452E+01 -0.24202908388E+02 -0.13119396558E+03  0.13341779379E+03  0.00000000000E+00 0.  1.
<mgrwt>
<rscale>  0 0.79668653E+02</rscale>
<asrwt>0</asrwt>
<pdfrwt beam="1">  1        1 0.61118211E-03 0.79668653E+02</pdfrwt>
<pdfrwt beam="2">  1       -2 0.61449395E-01 0.79668653E+02</pdfrwt>
<totfact> 0.59787908E+04</totfact>
</mgrwt>
</event>
<event>
 8    1  0.7756875E-014  0.7779376E+02  0.7818608E-02  0.1335432E+00
          1   -1    0    0  501    0  0.00000000000E+00  0.00000000000E+00  0.80336419796E+01  0.80336435605E+01  0.50400000000E-02 0. -1.
         -2   -1    0    0    0  501 -0.00000000000E+00 -0.00000000000E+00 -0.18832894213E+03  0.18832894214E+03  0.25500000000E-02 0.  1.
        -24    2    1    2    0    0  0.00000000000E+00 -0.35527136788E-14 -0.18029530015E+03  0.19636258570E+03  0.77793764592E+02 0.  0.
         66    2    3    3    0    0 -0.13316697538E+02 -0.30268179179E+02 -0.14178028260E+03  0.14559926386E+03  0.19999994279E+01 0.  0.
         13    1    3    3    0    0  0.13316697538E+02  0.30268179179E+02 -0.38515017545E+02  0.50763321844E+02  0.10566000000E+00 0. -1.
         13    1    4    4    0    0 -0.18789004584E+01 -0.38677612615E+01 -0.21091945349E+02  0.21526057855E+02  0.10566000000E+00 0. -1.
        -13    1    4    4    0    0 -0.43713237256E+01 -0.10488354882E+02 -0.49228914941E+02  0.50523373696E+02  0.10566000000E+00 0.  1.
         14    1    4    4    0    0 -0.70664733543E+01 -0.15912063035E+02 -0.71459422311E+02  0.73549832309E+02  0.00000000000E+00 0. -1.
<mgrwt>
<rscale>  0 0.77793765E+02</rscale>
<asrwt>0</asrwt>
<pdfrwt beam="1">  1        1 0.12359452E-02 0.77793765E+02</pdfrwt>
<pdfrwt beam="2">  1       -2 0.28973680E-01 0.77793765E+02</pdfrwt>
<totfact> 0.93640031E+04</totfact>
</mgrwt>
</event>
<event>
 8    1  0.7756875E-014  0.8327228E+02  0.7818608E-02  0.1320014E+00
          1   -1    0    0  501    0  0.00000000000E+00  0.00000000000E+00  0.24125232936E+03  0.24125232941E+03  0.50400000000E-02 0. -1.
         -2   -1    0    0    0  501 -0.00000000000E+00 -0.00000000000E+00 -0.71857048991E+01  0.71857053516E+01  0.25500000000E-02 0.  1.
        -24    2    1    2    0    0  0.00000000000E+00  0.00000000000E+00  0.23406662446E+03  0.24843803477E+03  0.83272278887E+02 0.  0.
         66    2    3    3    0    0 -0.22466969720E+02  0.29646973631E+02  0.61456810879E+02  0.71865481170E+02  0.20000016320E+01 0.  0.
         13    1    3    3    0    0  0.22466969720E+02 -0.29646973631E+02  0.17260981358E+03  0.17657255360E+03  0.10566000000E+00 0. -1.
         13    1    4    4    0    0 -0.19828017703E+01  0.23118264434E+01  0.42925118633E+01  0.52643011404E+01  0.10566000000E+00 0. -1.
        -13    1    4    4    0    0 -0.17755662204E+02  0.23728207475E+02  0.48872075092E+02  0.57155771871E+02  0.10566000000E+00 0.  1.
         14    1    4    4    0    0 -0.27285057451E+01  0.36069397133E+01  0.82922239238E+01  0.94454081594E+01  0.00000000000E+00 0. -1.
<mgrwt>
<rscale>  0 0.83272279E+02</rscale>
<asrwt>0</asrwt>
<pdfrwt beam="1">  1        1 0.37115742E-01 0.83272279E+02</pdfrwt>
<pdfrwt beam="2">  1       -2 0.11054931E-02 0.83272279E+02</pdfrwt>
<totfact> 0.15550745E+05</totfact>
</mgrwt>
</event>
<event>
 8    1  0.7756875E-014  0.7461038E+02  0.7818608E-02  0.1345082E+00
          1   -1    0    0  501    0  0.00000000000E+00  0.00000000000E+00  0.31905228195E+02  0.31905228593E+02  0.50400000000E-02 0. -1.
         -2   -1    0    0    0  501 -0.00000000000E+00 -0.00000000000E+00 -0.43619097286E+02  0.43619097361E+02  0.25500000000E-02 0.  1.
        -24    2    1    2    0    0  0.71054273576E-14  0.00000000000E+00 -0.11713869092E+02  0.75524325954E+02  0.74610381862E+02 0.  0.
         66    2    3    3    0    0  0.36360993103E+02 -0.80669899373E+01 -0.42688870952E+01  0.37542263516E+02  0.20000016877E+01 0.  0.
         13    1    3    3    0    0 -0.36360993103E+02  0.80669899373E+01 -0.74449819965E+01  0.37982062438E+02  0.10566000000E+00 0. -1.
         13    1    4    4    0    0  0.53211741820E+01 -0.13860136587E+01 -0.38638067549E+00  0.55132914488E+01  0.10566000000E+00 0. -1.
        -13    1    4    4    0    0  0.55519956968E+00 -0.32207127287E+00 -0.12399209282E+00  0.66220430508E+00  0.10566000000E+00 0.  1.
        -14    1    4    4    0    0  0.30484619351E+02 -0.63589050057E+01 -0.37585143269E+01  0.31366767762E+02  0.00000000000E+00 0.  1.
<mgrwt>
<rscale>  0 0.74610382E+02</rscale>
<asrwt>0</asrwt>
<pdfrwt beam="1">  1        1 0.49084967E-02 0.74610382E+02</pdfrwt>
<pdfrwt beam="2">  1       -2 0.67106304E-02 0.74610382E+02</pdfrwt>
<totfact> 0.14903493E+05</totfact>
</mgrwt>
</event>
<event>
 8    1  0.7756875E-014  0.8008903E+02  0.7818608E-02  0.1328799E+00
         -2   -1    0    0    0  501 -0.00000000000E+00  0.00000000000E+00  0.51459889344E+02  0.51459889407E+02  0.25500000000E-02 0.  1.
          1   -1    0    0  501    0  0.00000000000E+00 -0.00000000000E+00 -0.31161417658E+02  0.31161418066E+02  0.50400000000E-02 0. -1.
        -24    2    1    2    0    0  0.00000000000E+00 -0.71054273576E-14  0.20298471686E+02  0.82621307473E+02  0.80089028561E+02 0.  0.
         66    2    3    3    0    0 -0.14308141457E+02  0.33689738449E+02  0.26848545971E+02  0.45437493442E+02  0.20000002070E+01 0.  0.
         13    1    3    3    0    0  0.14308141457E+02 -0.33689738449E+02 -0.65500742854E+01  0.37183814031E+02  0.10566000000E+00 0. -1.
         13    1    4    4    0    0 -0.16754973683E+01  0.44018809386E+01  0.32981904200E+01  0.57509191710E+01  0.10566000000E+00 0. -1.
        -13    1    4    4    0    0 -0.11862001023E+02  0.27681003348E+02  0.21713116201E+02  0.37127019727E+02  0.10566000000E+00 0.  1.
         14    1    4    4    0    0 -0.77064306619E+00  0.16068541620E+01  0.18372393509E+01  0.25595545445E+01  0.00000000000E+00 0. -1.
<mgrwt>
<rscale>  0 0.80089029E+02</rscale>
<asrwt>0</asrwt>
<pdfrwt beam="1">  1        1 0.47940643E-02 0.80089029E+02</pdfrwt>
<pdfrwt beam="2">  1       -2 0.79169060E-02 0.80089029E+02</pdfrwt>
<totfact> 0.12137104E+05</totfact>
</mgrwt>
</event>
<event>
 8    1  0.7756875E-014  0.8005148E+02  0.7818608E-02  0.1328905E+00
         -2   -1    0    0    0  501 -0.00000000000E+00  0.00000000000E+00  0.47547283647E+02  0.47547283715E+02  0.25500000000E-02 0.  1.
          1   -1    0    0  501    0  0.00000000000E+00 -0.00000000000E+00 -0.33694038325E+02  0.33694038702E+02  0.50400000000E-02 0. -1.
        -24    2    1    2    0    0  0.00000000000E+00 -0.35527136788E-14  0.13853245322E+02  0.81241322417E+02  0.80051483822E+02 0.  0.
         66    2    3    3    0    0  0.35656162452E+02 -0.16458301436E+02  0.14647730663E+02  0.41961811500E+02  0.20000009627E+01 0.  0.
         13    1    3    3    0    0 -0.35656162452E+02  0.16458301436E+02 -0.79448534090E+00  0.39279510917E+02  0.10566000000E+00 0. -1.
         13    1    4    4    0    0  0.47138183170E+01 -0.24975812762E+01  0.21935234504E+01  0.57689431025E+01  0.10566000000E+00 0.  1.
        -13    1    4    4    0    0  0.10323047525E+01 -0.53281332815E+00  0.71734479142E+00  0.13694125492E+01  0.10566000000E+00 0.  1.
        -14    1    4    4    0    0  0.29910039382E+02 -0.13427906831E+02  0.11736862421E+02  0.34823455848E+02  0.00000000000E+00 0.  1.
<mgrwt>
<rscale>  0 0.80051484E+02</rscale>
<asrwt>0</asrwt>
<pdfrwt beam="1">  1        1 0.51836983E-02 0.80051484E+02</pdfrwt>
<pdfrwt beam="2">  1       -2 0.73149667E-02 0.80051484E+02</pdfrwt>
<totfact> 0.12318284E+05</totfact>
</mgrwt>
</event>
<event>
 8    1  0.7756875E-014  0.8042006E+02  0.7818608E-02  0.1327864E+00
         -2   -1    0    0    0  501 -0.00000000000E+00  0.00000000000E+00  0.37655423602E+02  0.37655423689E+02  0.25500000000E-02 0.  1.
          1   -1    0    0  501    0  0.00000000000E+00 -0.00000000000E+00 -0.42937945915E+02  0.42937946211E+02  0.50400000000E-02 0. -1.
        -24    2    1    2    0    0  0.00000000000E+00  0.17763568394E-14 -0.52825223132E+01  0.80593369900E+02  0.80420061115E+02 0.  0.
         66    2    3    3    0    0  0.38847050155E+02  0.80122275502E+01 -0.91029043615E+01  0.40744962415E+02  0.19999995699E+01 0.  0.
         13    1    3    3    0    0 -0.38847050155E+02 -0.80122275502E+01  0.38203820483E+01  0.39848407485E+02  0.10566000000E+00 0. -1.
         13    1    4    4    0    0  0.20579175557E+02  0.44600498884E+01 -0.42111275055E+01  0.21474153546E+02  0.10566000000E+00 0. -1.
        -13    1    4    4    0    0  0.16049689901E+02  0.33575517794E+01 -0.45584404466E+01  0.17019290327E+02  0.10566000000E+00 0.  1.
         14    1    4    4    0    0  0.22181846967E+01  0.19462588247E+00 -0.33333640934E+00  0.22515185419E+01  0.00000000000E+00 0. -1.
<mgrwt>
<rscale>  0 0.80420061E+02</rscale>
<asrwt>0</asrwt>
<pdfrwt beam="1">  1        1 0.66058378E-02 0.80420061E+02</pdfrwt>
<pdfrwt beam="2">  1       -2 0.57931421E-02 0.80420061E+02</pdfrwt>
<totfact> 0.12656029E+05</totfact>
</mgrwt>
</event>
<event>
 8    1  0.7756875E-014  0.7916447E+02  0.7818608E-02  0.1331439E+00
          1   -1    0    0  501    0  0.00000000000E+00  0.00000000000E+00  0.36687740329E+01  0.36687774948E+01  0.50400000000E-02 0. -1.
         -2   -1    0    0    0  501 -0.00000000000E+00 -0.00000000000E+00 -0.42705073213E+03  0.42705073214E+03  0.25500000000E-02 0.  1.
        -24    2    1    2    0    0  0.35527136788E-14 -0.35527136788E-14 -0.42338195810E+03  0.43071950964E+03  0.79164471425E+02 0.  0.
         66    2    3    3    0    0  0.31667201470E+02 -0.21251393178E+02 -0.26897116686E+03  0.27166877253E+03  0.20000001276E+01 0.  0.
         13    1    3    3    0    0 -0.31667201470E+02  0.21251393178E+02 -0.15441079124E+03  0.15905073711E+03  0.10566000000E+00 0. -1.
         13    1    4    4    0    0  0.51496552516E+01 -0.28165935541E+01 -0.41265623420E+02  0.41681110694E+02  0.10566000000E+00 0. -1.
        -13    1    4    4    0    0  0.17708899402E+02 -0.12969829438E+02 -0.15346895095E+03  0.15503080875E+03  0.10566000000E+00 0.  1.
        -14    1    4    4    0    0  0.88086468170E+01 -0.54649701862E+01 -0.74236592495E+02  0.74956853076E+02  0.00000000000E+00 0.  1.
<mgrwt>
<rscale>  0 0.79164471E+02</rscale>
<asrwt>0</asrwt>
<pdfrwt beam="1">  1        1 0.56442738E-03 0.79164471E+02</pdfrwt>
<pdfrwt beam="2">  1       -2 0.65700073E-01 0.79164471E+02</pdfrwt>
<totfact> 0.58084725E+04</totfact>
</mgrwt>
</event>
<event>
 8    1  0.7756875E-014  0.7948734E+02  0.7818608E-02  0.1330513E+00
         -2   -1    0    0    0  501 -0.00000000000E+00  0.00000000000E+00  0.88583743571E+03  0.88583743572E+03  0.25500000000E-02 0.  1.
          1   -1    0    0  501    0  0.00000000000E+00 -0.00000000000E+00 -0.17831217912E+01  0.17831289140E+01  0.50400000000E-02 0. -1.
        -24    2    1    2    0    0  0.00000000000E+00  0.00000000000E+00  0.88405431392E+03  0.88762056463E+03  0.79487337303E+02 0.  0.
         66    2    3    3    0    0 -0.12865989655E+02 -0.19492030693E+02  0.80105163353E+03  0.80139452989E+03  0.20000026613E+01 0.  0.
         13    1    3    3    0    0  0.12865989655E+02  0.19492030693E+02  0.83002680391E+02  0.86226034737E+02  0.10566000000E+00 0. -1.
         13    1    4    4    0    0 -0.52074022325E+00 -0.10063688524E+01  0.32422027046E+02  0.32441993626E+02  0.10566000000E+00 0. -1.
        -13    1    4    4    0    0 -0.28165852783E+01 -0.33323268590E+01  0.16340983405E+03  0.16346810876E+03  0.10566000000E+00 0.  1.
        -14    1    4    4    0    0 -0.95286641532E+01 -0.15153334982E+02  0.60521977244E+03  0.60548442750E+03  0.00000000000E+00 0.  1.
<mgrwt>
<rscale>  0 0.79487337E+02</rscale>
<asrwt>0</asrwt>
<pdfrwt beam="1">  1        1 0.27432728E-03 0.79487337E+02</pdfrwt>
<pdfrwt beam="2">  1       -2 0.13628253E+00 0.79487337E+02</pdfrwt>
<totfact> 0.30374179E+04</totfact>
</mgrwt>
</event>
<event>
 8    1  0.7756875E-014  0.7958962E+02  0.7818608E-02  0.1330220E+00
          1   -1    0    0  501    0  0.00000000000E+00  0.00000000000E+00  0.30259820334E+02  0.30259820754E+02  0.50400000000E-02 0. -1.
         -2   -1    0    0    0  501 -0.00000000000E+00 -0.00000000000E+00 -0.52334316058E+02  0.52334316120E+02  0.25500000000E-02 0.  1.
        -24    2    1    2    0    0 -0.35527136788E-14  0.00000000000E+00 -0.22074495723E+02  0.82594136874E+02  0.79589622970E+02 0.  0.
         66    2    3    3    0    0 -0.25177199094E+02 -0.30716591652E+02 -0.13176442175E+02  0.41892946745E+02  0.20000004134E+01 0.  0.
         13    1    3    3    0    0  0.25177199094E+02  0.30716591652E+02 -0.88980535486E+01  0.40701190129E+02  0.10566000000E+00 0. -1.
         13    1    4    4    0    0 -0.34659795537E+01 -0.37548459718E+01 -0.14723971348E+01  0.53189284538E+01  0.10566000000E+00 0. -1.
        -13    1    4    4    0    0 -0.70517139185E+01 -0.77158770753E+01 -0.32666740721E+01  0.10951883480E+02  0.10566000000E+00 0.  1.
        -14    1    4    4    0    0 -0.14659505622E+02 -0.19245868605E+02 -0.84373709678E+01  0.25622134811E+02  0.00000000000E+00 0.  1.
<mgrwt>
<rscale>  0 0.79589623E+02</rscale>
<asrwt>0</asrwt>
<pdfrwt beam="1">  1        1 0.46553570E-02 0.79589623E+02</pdfrwt>
<pdfrwt beam="2">  1       -2 0.80514332E-02 0.79589623E+02</pdfrwt>
<totfact> 0.12293423E+05</totfact>
</mgrwt>
</event>
<event>
 8    1  0.7756875E-014  0.7968551E+02  0.7818608E-02  0.1329946E+00
         -2   -1    0    0    0  501 -0.00000000000E+00  0.00000000000E+00  0.42782496761E+03  0.42782496762E+03  0.25500000000E-02 0.  1.
          1   -1    0    0  501    0  0.00000000000E+00 -0.00000000000E+00 -0.37104994287E+01  0.37105028516E+01  0.50400000000E-02 0. -1.
        -24    2    1    2    0    0  0.00000000000E+00  0.00000000000E+00  0.42411446819E+03  0.43153547047E+03  0.79685507794E+02 0.  0.
         66    2    3    3    0    0  0.33348902063E+02 -0.13959166387E+02  0.30255479322E+03  0.30471365320E+03  0.19999876130E+01 0.  0.
         13    1    3    3    0    0 -0.33348902063E+02  0.13959166387E+02  0.12155967497E+03  0.12682181728E+03  0.10566000000E+00 0. -1.
         13    1    4    4    0    0  0.25140399692E+01 -0.95797306282E+00  0.19392283024E+02  0.19578302130E+02  0.10566000000E+00 0. -1.
        -13    1    4    4    0    0  0.60615350494E+01 -0.24407032092E+01  0.51671811855E+02  0.52083457487E+02  0.10566000000E+00 0.  1.
        -14    1    4    4    0    0  0.24773327045E+02 -0.10560490115E+02  0.23149069834E+03  0.23305189358E+03  0.00000000000E+00 0.  1.
<mgrwt>
<rscale>  0 0.79685508E+02</rscale>
<asrwt>0</asrwt>
<pdfrwt beam="1">  1        1 0.57084664E-03 0.79685508E+02</pdfrwt>
<pdfrwt beam="2">  1       -2 0.65819190E-01 0.79685508E+02</pdfrwt>
<totfact> 0.57037349E+04</totfact>
</mgrwt>
</event>
<event>
 8    1  0.7756875E-014  0.8075079E+02  0.7818608E-02  0.1326934E+00
          1   -1    0    0  501    0  0.00000000000E+00  0.00000000000E+00  0.60191323040E+02  0.60191323251E+02  0.50400000000E-02 0. -1.
         -2   -1    0    0    0  501 -0.00000000000E+00 -0.00000000000E+00 -0.27083179420E+02  0.27083179540E+02  0.25500000000E-02 0.  1.
        -24    2    1    2    0    0  0.17763568394E-14  0.35527136788E-14  0.33108143620E+02  0.87274502792E+02  0.80750787387E+02 0.  0.
         66    2    3    3    0    0  0.13723757235E+02  0.21751877691E+02 -0.17039136478E+02  0.30916304089E+02  0.19999977198E+01 0.  0.
         13    1    3    3    0    0 -0.13723757235E+02 -0.21751877691E+02  0.50147280098E+02  0.56358198703E+02  0.10566000000E+00 0. -1.
         13    1    4    4    0    0  0.44424258957E+01  0.60335649896E+01 -0.46509880322E+01  0.88194051973E+01  0.10566000000E+00 0. -1.
        -13    1    4    4    0    0  0.87210475835E+01  0.14407073029E+02 -0.11060626493E+02  0.20148673571E+02  0.10566000000E+00 0.  1.
         14    1    4    4    0    0  0.56028375620E+00  0.13112396724E+01 -0.13275219529E+01  0.19482253210E+01  0.00000000000E+00 0. -1.
<mgrwt>
<rscale>  0 0.80750787E+02</rscale>
<asrwt>0</asrwt>
<pdfrwt beam="1">  1        1 0.92602036E-02 0.80750787E+02</pdfrwt>
<pdfrwt beam="2">  1       -2 0.41666430E-02 0.80750787E+02</pdfrwt>
<totfact> 0.13200703E+05</totfact>
</mgrwt>
</event>
<event>
 8    1  0.7756875E-014  0.8071101E+02  0.7818608E-02  0.1327046E+00
         -2   -1    0    0    0  501 -0.00000000000E+00  0.00000000000E+00  0.30321311496E+02  0.30321311603E+02  0.25500000000E-02 0.  1.
          1   -1    0    0  501    0  0.00000000000E+00 -0.00000000000E+00 -0.53710304105E+02  0.53710304341E+02  0.50400000000E-02 0. -1.
        -24    2    1    2    0    0  0.00000000000E+00  0.00000000000E+00 -0.23388992609E+02  0.84031615944E+02  0.80711012278E+02 0.  0.
         66    2    3    3    0    0 -0.95989233514E+01  0.55384256671E+01  0.28671946280E+02  0.30804122950E+02  0.19999997066E+01 0.  0.
         13    1    3    3    0    0  0.95989233514E+01 -0.55384256671E+01 -0.52060938889E+02  0.53227492994E+02  0.10566000000E+00 0. -1.
         13    1    4    4    0    0 -0.40949620236E+01  0.20643058304E+01  0.10598147298E+02  0.11548245006E+02  0.10566000000E+00 0. -1.
        -13    1    4    4    0    0 -0.41107802093E+01  0.18697000704E+01  0.12163852018E+02  0.12975544391E+02  0.10566000000E+00 0.  1.
         14    1    4    4    0    0 -0.13931811185E+01  0.16044197662E+01  0.59099469645E+01  0.62803335531E+01  0.00000000000E+00 0. -1.
<mgrwt>
<rscale>  0 0.80711012E+02</rscale>
<asrwt>0</asrwt>
<pdfrwt beam="1">  1        1 0.82631238E-02 0.80711012E+02</pdfrwt>
<pdfrwt beam="2">  1       -2 0.46648172E-02 0.80711012E+02</pdfrwt>
<totfact> 0.12983185E+05</totfact>
</mgrwt>
</event>
<event>
 8    1  0.7756875E-014  0.7898414E+02  0.7818608E-02  0.1331959E+00
         -2   -1    0    0    0  501 -0.00000000000E+00  0.00000000000E+00  0.33679996767E+02  0.33679996863E+02  0.25500000000E-02 0.  1.
          1   -1    0    0  501    0  0.00000000000E+00 -0.00000000000E+00 -0.46307116546E+02  0.46307116820E+02  0.50400000000E-02 0. -1.
        -24    2    1    2    0    0  0.35527136788E-14  0.00000000000E+00 -0.12627119780E+02  0.79987113684E+02  0.78984138924E+02 0.  0.
         66    2    3    3    0    0  0.20688507300E+02 -0.17714745107E+02  0.22607170928E+02  0.35452936536E+02  0.20000007951E+01 0.  0.
         13    1    3    3    0    0 -0.20688507300E+02  0.17714745107E+02 -0.35234290708E+02  0.44534177147E+02  0.10566000000E+00 0. -1.
         13    1    4    4    0    0  0.63371289235E+01 -0.62235800543E+01  0.81323411693E+01  0.12043184322E+02  0.10566000000E+00 0. -1.
        -13    1    4    4    0    0  0.50126372075E+01 -0.38998300976E+01  0.46112399688E+01  0.78491977073E+01  0.10566000000E+00 0.  1.
         14    1    4    4    0    0  0.93387411687E+01 -0.75913349551E+01  0.98635897899E+01  0.15560554507E+02  0.00000000000E+00 0. -1.
<mgrwt>
<rscale>  0 0.78984139E+02</rscale>
<asrwt>0</asrwt>
<pdfrwt beam="1">  1        1 0.71241718E-02 0.78984139E+02</pdfrwt>
<pdfrwt beam="2">  1       -2 0.51815380E-02 0.78984139E+02</pdfrwt>
<totfact> 0.13470624E+05</totfact>
</mgrwt>
</event>
<event>
 8    1  0.7756875E-014  0.7795351E+02  0.7818608E-02  0.1334961E+00
         -2   -1    0    0    0  501 -0.00000000000E+00  0.00000000000E+00  0.20260387957E+02  0.20260388118E+02  0.25500000000E-02 0.  1.
          1   -1    0    0  501    0  0.00000000000E+00 -0.00000000000E+00 -0.74983135640E+02  0.74983135809E+02  0.50400000000E-02 0. -1.
        -24    2    1    2    0    0 -0.71054273576E-14  0.35527136788E-14 -0.54722747682E+02  0.95243523927E+02  0.77953510094E+02 0.  0.
         66    2    3    3    0    0 -0.33273332818E+02  0.13899348204E+02 -0.93862567066E+01  0.37314989202E+02  0.20000117212E+01 0.  0.
         13    1    3    3    0    0  0.33273332818E+02 -0.13899348204E+02 -0.45336490976E+02  0.57928534725E+02  0.10566000000E+00 0. -1.
         13    1    4    4    0    0 -0.77037942508E+01  0.34527899986E+01 -0.16229379226E+01  0.85974005472E+01  0.10566000000E+00 0. -1.
        -13    1    4    4    0    0 -0.12563117175E+02  0.47487066493E+01 -0.32625089687E+01  0.13821622799E+02  0.10566000000E+00 0.  1.
         14    1    4    4    0    0 -0.13006421392E+02  0.56978515557E+01 -0.45008098153E+01  0.14895965856E+02  0.00000000000E+00 0. -1.
<mgrwt>
<rscale>  0 0.77953510E+02</rscale>
<asrwt>0</asrwt>
<pdfrwt beam="1">  1        1 0.11535867E-01 0.77953510E+02</pdfrwt>
<pdfrwt beam="2">  1       -2 0.31169828E-02 0.77953510E+02</pdfrwt>
<totfact> 0.15049249E+05</totfact>
</mgrwt>
</event>
<event>
 8    1  0.7756875E-014  0.7872858E+02  0.7818608E-02  0.1332699E+00
          1   -1    0    0  501    0  0.00000000000E+00  0.00000000000E+00  0.84479579414E+02  0.84479579564E+02  0.50400000000E-02 0. -1.
         -2   -1    0    0    0  501 -0.00000000000E+00 -0.00000000000E+00 -0.18342271607E+02  0.18342271784E+02  0.25500000000E-02 0.  1.
        -24    2    1    2    0    0  0.00000000000E+00  0.00000000000E+00  0.66137307807E+02  0.10282185135E+03  0.78728582044E+02 0.  0.
         66    2    3    3    0    0  0.35733526630E+02 -0.15242101937E+02  0.41176343278E+02  0.56645369118E+02  0.19999999782E+01 0.  0.
         13    1    3    3    0    0 -0.35733526630E+02  0.15242101937E+02  0.24960964529E+02  0.46176482230E+02  0.10566000000E+00 0. -1.
         13    1    4    4    0    0  0.52823970903E+01 -0.25592866932E+01  0.66456265226E+01  0.88673098126E+01  0.10566000000E+00 0. -1.
        -13    1    4    4    0    0  0.24318555769E+02 -0.10550464253E+02  0.28374226898E+02  0.38830559701E+02  0.10566000000E+00 0.  1.
        -14    1    4    4    0    0  0.61325737707E+01 -0.21323509905E+01  0.61564898580E+01  0.89474996044E+01  0.00000000000E+00 0.  1.
<mgrwt>
<rscale>  0 0.78728582E+02</rscale>
<asrwt>0</asrwt>
<pdfrwt beam="1">  1        1 0.12996859E-01 0.78728582E+02</pdfrwt>
<pdfrwt beam="2">  1       -2 0.28218879E-02 0.78728582E+02</pdfrwt>
<totfact> 0.14930398E+05</totfact>
</mgrwt>
</event>
<event>
 8    1  0.7756875E-014  0.7746046E+02  0.7818608E-02  0.1336417E+00
         -2   -1    0    0    0  501 -0.00000000000E+00  0.00000000000E+00  0.93862721187E+02  0.93862721222E+02  0.25500000000E-02 0.  1.
          1   -1    0    0  501    0  0.00000000000E+00 -0.00000000000E+00 -0.15981112286E+02  0.15981113081E+02  0.50400000000E-02 0. -1.
        -24    2    1    2    0    0  0.00000000000E+00  0.00000000000E+00  0.77881608901E+02  0.10984383430E+03  0.77460460426E+02 0.  0.
         66    2    3    3    0    0  0.34646897225E+02 -0.13826356764E+02  0.53597517152E+02  0.65331994252E+02  0.19999998410E+01 0.  0.
         13    1    3    3    0    0 -0.34646897225E+02  0.13826356764E+02  0.24284091749E+02  0.44511840052E+02  0.10566000000E+00 0. -1.
         13    1    4    4    0    0  0.15088243815E+02 -0.61193970642E+01  0.24939889299E+02  0.29784414786E+02  0.10566000000E+00 0. -1.
        -13    1    4    4    0    0  0.18852568279E+02 -0.72967087326E+01  0.27505047901E+02  0.34135027656E+02  0.10566000000E+00 0.  1.
         14    1    4    4    0    0  0.70608513074E+00 -0.41025096727E+00  0.11525799524E+01  0.14125518096E+01  0.00000000000E+00 0. -1.
<mgrwt>
<rscale>  0 0.77460460E+02</rscale>
<asrwt>0</asrwt>
<pdfrwt beam="1">  1        1 0.24586328E-02 0.77460460E+02</pdfrwt>
<pdfrwt beam="2">  1       -2 0.14440419E-01 0.77460460E+02</pdfrwt>
<totfact> 0.11703594E+05</totfact>
</mgrwt>
</event>
<event>
 8    1  0.7756875E-014  0.7718247E+02  0.7818608E-02  0.1337243E+00
         -2   -1    0    0    0  501 -0.00000000000E+00  0.00000000000E+00  0.63455118503E+01  0.63455123627E+01  0.25500000000E-02 0.  1.
          1   -1    0    0  501    0  0.00000000000E+00 -0.00000000000E+00 -0.23469871214E+03  0.23469871220E+03  0.50400000000E-02 0. -1.
        -24    2    1    2    0    0  0.00000000000E+00  0.00000000000E+00 -0.22835320029E+03  0.24104422456E+03  0.77182472815E+02 0.  0.
         66    2    3    3    0    0 -0.10794553225E+02 -0.36558487444E+02 -0.13252572030E+03  0.13791342184E+03  0.19999998916E+01 0.  0.
         13    1    3    3    0    0  0.10794553225E+02  0.36558487444E+02 -0.95827479993E+02  0.10313080272E+03  0.10566000000E+00 0. -1.
         13    1    4    4    0    0 -0.51036353670E+01 -0.17476490246E+02 -0.61219823964E+02  0.63869811456E+02  0.10566000000E+00 0.  1.
        -13    1    4    4    0    0 -0.45907339628E+01 -0.13631862674E+02 -0.50799728316E+02  0.52797027182E+02  0.10566000000E+00 0. -1.
        -14    1    4    4    0    0 -0.11001838952E+01 -0.54501345236E+01 -0.20506168021E+02  0.21246583204E+02  0.00000000000E+00 0.  1.
<mgrwt>
<rscale>  0 0.77182473E+02</rscale>
<asrwt>0</asrwt>
<pdfrwt beam="1">  1        1 0.36107488E-01 0.77182473E+02</pdfrwt>
<pdfrwt beam="2">  1       -2 0.97623282E-03 0.77182473E+02</pdfrwt>
<totfact> 0.18911232E+05</totfact>
</mgrwt>
</event>
<event>
 8    1  0.7756875E-014  0.7945270E+02  0.7818608E-02  0.1330612E+00
          1   -1    0    0  501    0  0.00000000000E+00  0.00000000000E+00  0.58021718541E+02  0.58021718759E+02  0.50400000000E-02 0. -1.
         -2   -1    0    0    0  501 -0.00000000000E+00 -0.00000000000E+00 -0.27199862886E+02  0.27199863005E+02  0.25500000000E-02 0.  1.
        -24    2    1    2    0    0  0.35527136788E-14  0.10658141036E-13  0.30821855655E+02  0.85221581765E+02  0.79452697956E+02 0.  0.
         66    2    3    3    0    0  0.15181858665E+02  0.29260601827E+02 -0.83105530922E+01  0.34054910677E+02  0.19999991625E+01 0.  0.
         13    1    3    3    0    0 -0.15181858665E+02 -0.29260601827E+02  0.39132408747E+02  0.51166671088E+02  0.10566000000E+00 0. -1.
         13    1    4    4    0    0  0.11237489027E+02  0.22028678488E+02 -0.57714858563E+01  0.25394193206E+02  0.10566000000E+00 0. -1.
        -13    1    4    4    0    0  0.14247852034E+01  0.31714593648E+01 -0.75157894100E+00  0.35586798562E+01  0.10566000000E+00 0.  1.
        -14    1    4    4    0    0  0.25195844352E+01  0.40604639750E+01 -0.17874882949E+01  0.51020376148E+01  0.00000000000E+00 0.  1.
<mgrwt>
<rscale>  0 0.79452698E+02</rscale>
<asrwt>0</asrwt>
<pdfrwt beam="1">  1        1 0.89264183E-02 0.79452698E+02</pdfrwt>
<pdfrwt beam="2">  1       -2 0.41845943E-02 0.79452698E+02</pdfrwt>
<totfact> 0.13725150E+05</totfact>
</mgrwt>
</event>
<event>
 8    1  0.7756875E-014  0.8574685E+02  0.7818608E-02  0.1313491E+00
          1   -1    0    0  501    0  0.00000000000E+00  0.00000000000E+00  0.17506229372E+02  0.17506230098E+02  0.50400000000E-02 0. -1.
         -2   -1    0    0    0  501 -0.00000000000E+00 -0.00000000000E+00 -0.10499864468E+03  0.10499864471E+03  0.25500000000E-02 0.  1.
        -24    2    1    2    0    0 -0.35527136788E-14  0.35527136788E-14 -0.87492415305E+02  0.12250487481E+03  0.85746846095E+02 0.  0.
         66    2    3    3    0    0  0.17175039517E+02 -0.27894111522E+02 -0.83235213848E+02  0.89471582988E+02  0.19999745480E+01 0.  0.
         13    1    3    3    0    0 -0.17175039517E+02  0.27894111522E+02 -0.42572014577E+01  0.33033291817E+02  0.10566000000E+00 0. -1.
         13    1    4    4    0    0  0.38961331328E+00 -0.37820547272E+00 -0.99550344080E+00  0.11388718320E+01  0.10566000000E+00 0. -1.
        -13    1    4    4    0    0  0.64356258103E+01 -0.10111537215E+02 -0.31126187868E+02  0.33354328050E+02  0.10566000000E+00 0.  1.
         14    1    4    4    0    0  0.10349800393E+02 -0.17404368834E+02 -0.51113522538E+02  0.54978383106E+02  0.00000000000E+00 0. -1.
<mgrwt>
<rscale>  0 0.85746846E+02</rscale>
<asrwt>0</asrwt>
<pdfrwt beam="1">  1        1 0.26932662E-02 0.85746846E+02</pdfrwt>
<pdfrwt beam="2">  1       -2 0.16153637E-01 0.85746846E+02</pdfrwt>
<totfact> 0.87741517E+04</totfact>
</mgrwt>
</event>
<event>
 8    1  0.7756875E-014  0.8009912E+02  0.7818608E-02  0.1328770E+00
          1   -1    0    0  501    0  0.00000000000E+00  0.00000000000E+00  0.39298050579E+01  0.39298082898E+01  0.50400000000E-02 0. -1.
         -2   -1    0    0    0  501 -0.00000000000E+00 -0.00000000000E+00 -0.40815420422E+03  0.40815420423E+03  0.25500000000E-02 0.  1.
        -24    2    1    2    0    0  0.88817841970E-15  0.00000000000E+00 -0.40422439916E+03  0.41208401251E+03  0.80099116692E+02 0.  0.
         66    2    3    3    0    0  0.48716667853E+01 -0.16715874324E+02 -0.38764677021E+03  0.38804274513E+03  0.20000011975E+01 0.  0.
         13    1    3    3    0    0 -0.48716667853E+01  0.16715874324E+02 -0.16577628949E+02  0.24041267381E+02  0.10566000000E+00 0. -1.
         13    1    4    4    0    0  0.26642262443E+01 -0.98754968782E+01 -0.24653142661E+03  0.24674354907E+03  0.10566000000E+00 0.  1.
        -13    1    4    4    0    0  0.10789490620E+01 -0.34134639483E+01 -0.65548431447E+02  0.65646202452E+02  0.10566000000E+00 0. -1.
        -14    1    4    4    0    0  0.11284914790E+01 -0.34269134975E+01 -0.75566912154E+02  0.75652993607E+02  0.00000000000E+00 0.  1.
<mgrwt>
<rscale>  0 0.80099117E+02</rscale>
<asrwt>0</asrwt>
<pdfrwt beam="1">  1        1 0.60458597E-03 0.80099117E+02</pdfrwt>
<pdfrwt beam="2">  1       -2 0.62792921E-01 0.80099117E+02</pdfrwt>
<totfact> 0.58116821E+04</totfact>
</mgrwt>
</event>
<event>
 8    1  0.7756875E-014  0.8289557E+02  0.7818608E-02  0.1321029E+00
          1   -1    0    0  501    0  0.00000000000E+00  0.00000000000E+00  0.57658953881E+02  0.57658954101E+02  0.50400000000E-02 0. -1.
         -2   -1    0    0    0  501 -0.00000000000E+00 -0.00000000000E+00 -0.29794484964E+02  0.29794485073E+02  0.25500000000E-02 0.  1.
        -24    2    1    2    0    0  0.00000000000E+00  0.00000000000E+00  0.27864468917E+02  0.87453439174E+02  0.82895569214E+02 0.  0.
         66    2    3    3    0    0  0.16364402604E+02 -0.15769735731E+02 -0.22596775623E+02  0.32110629323E+02  0.20000023346E+01 0.  0.
         13    1    3    3    0    0 -0.16364402604E+02  0.15769735731E+02  0.50461244541E+02  0.55342809851E+02  0.10566000000E+00 0. -1.
         13    1    4    4    0    0  0.87566594765E+00 -0.71569469089E+00 -0.14282655703E+01  0.18248606296E+01  0.10566000000E+00 0. -1.
        -13    1    4    4    0    0  0.57149574953E+01 -0.46230459186E+01 -0.66920042370E+01  0.99411959784E+01  0.10566000000E+00 0.  1.
         14    1    4    4    0    0  0.97737791608E+01 -0.10430995122E+02 -0.14476505816E+02  0.20344572715E+02  0.00000000000E+00 0. -1.
<mgrwt>
<rscale>  0 0.82895569E+02</rscale>
<asrwt>0</asrwt>
<pdfrwt beam="1">  1        1 0.88706082E-02 0.82895569E+02</pdfrwt>
<pdfrwt beam="2">  1       -2 0.45837670E-02 0.82895569E+02</pdfrwt>
<totfact> 0.12192478E+05</totfact>
</mgrwt>
</event>
<event>
 8    1  0.7756875E-014  0.7850126E+02  0.7818608E-02  0.1333359E+00
         -2   -1    0    0    0  501 -0.00000000000E+00  0.00000000000E+00  0.15790540505E+03  0.15790540507E+03  0.25500000000E-02 0.  1.
          1   -1    0    0  501    0  0.00000000000E+00 -0.00000000000E+00 -0.97565495522E+01  0.97565508540E+01  0.50400000000E-02 0. -1.
        -24    2    1    2    0    0  0.88817841970E-15  0.00000000000E+00  0.14814885550E+03  0.16766195593E+03  0.78501261641E+02 0.  0.
         66    2    3    3    0    0 -0.43053089941E+01 -0.28204665938E+02  0.13161306615E+03  0.13468495849E+03  0.19999992856E+01 0.  0.
         13    1    3    3    0    0  0.43053089941E+01  0.28204665938E+02  0.16535789351E+02  0.32976997433E+02  0.10566000000E+00 0. -1.
         13    1    4    4    0    0 -0.44794009471E+00 -0.15539374458E+01  0.79067286685E+01  0.80711148044E+01  0.10566000000E+00 0.  1.
        -13    1    4    4    0    0 -0.24853264421E+01 -0.14203890616E+02  0.69441937577E+02  0.70923347458E+02  0.10566000000E+00 0.  1.
         14    1    4    4    0    0 -0.13720424572E+01 -0.12446837875E+02  0.54264399903E+02  0.55690496231E+02  0.00000000000E+00 0. -1.
<mgrwt>
<rscale>  0 0.78501262E+02</rscale>
<asrwt>0</asrwt>
<pdfrwt beam="1">  1        1 0.15010077E-02 0.78501262E+02</pdfrwt>
<pdfrwt beam="2">  1       -2 0.24293140E-01 0.78501262E+02</pdfrwt>
<totfact> 0.97532948E+04</totfact>
</mgrwt>
</event>
<event>
 8    1  0.7756875E-014  0.7974359E+02  0.7818608E-02  0.1329781E+00
          1   -1    0    0  501    0  0.00000000000E+00  0.00000000000E+00  0.47927697961E+01  0.47927724461E+01  0.50400000000E-02 0. -1.
         -2   -1    0    0    0  501 -0.00000000000E+00 -0.00000000000E+00 -0.33169952586E+03  0.33169952587E+03  0.25500000000E-02 0.  1.
        -24    2    1    2    0    0  0.00000000000E+00  0.00000000000E+00 -0.32690675606E+03  0.33649229832E+03  0.79743586988E+02 0.  0.
         66    2    3    3    0    0  0.11709576243E+02 -0.18360708819E+02 -0.30436457136E+03  0.30514918010E+03  0.20000035579E+01 0.  0.
         13    1    3    3    0    0 -0.11709576243E+02  0.18360708819E+02 -0.22542184708E+02  0.31343118217E+02  0.10566000000E+00 0. -1.
         13    1    4    4    0    0  0.19367453169E+01 -0.23425962193E+01 -0.44317893172E+02  0.44422129156E+02  0.10566000000E+00 0. -1.
        -13    1    4    4    0    0  0.69518063934E+01 -0.12605461770E+02 -0.19879155989E+03  0.19931211886E+03  0.10566000000E+00 0.  1.
        -14    1    4    4    0    0  0.28210245326E+01 -0.34126508298E+01 -0.61255118297E+02  0.61414932083E+02  0.00000000000E+00 0.  1.
<mgrwt>
<rscale>  0 0.79743587E+02</rscale>
<asrwt>0</asrwt>
<pdfrwt beam="1">  1        1 0.73734967E-03 0.79743587E+02</pdfrwt>
<pdfrwt beam="2">  1       -2 0.51030678E-01 0.79743587E+02</pdfrwt>
<totfact> 0.66955140E+04</totfact>
</mgrwt>
</event>
<event>
 8    1  0.7756875E-014  0.7995023E+02  0.7818608E-02  0.1329193E+00
          1   -1    0    0  501    0  0.00000000000E+00  0.00000000000E+00  0.59576688967E+01  0.59576710286E+01  0.50400000000E-02 0. -1.
         -2   -1    0    0    0  501 -0.00000000000E+00 -0.00000000000E+00 -0.26822730458E+03  0.26822730459E+03  0.25500000000E-02 0.  1.
        -24    2    1    2    0    0  0.17763568394E-14 -0.35527136788E-14 -0.26226963568E+03  0.27418497562E+03  0.79950228609E+02 0.  0.
         66    2    3    3    0    0  0.50426117227E+01 -0.13859544501E+02 -0.25854518365E+03  0.25897321656E+03  0.20000001251E+01 0.  0.
         13    1    3    3    0    0 -0.50426117227E+01  0.13859544501E+02 -0.37244520349E+01  0.15211759062E+02  0.10566000000E+00 0. -1.
         13    1    4    4    0    0  0.66281842981E+00 -0.71895415873E+00 -0.20082726460E+02  0.20106797096E+02  0.10566000000E+00 0. -1.
        -13    1    4    4    0    0  0.64921589444E+00 -0.11636087278E+01 -0.21159569748E+02  0.21201745742E+02  0.10566000000E+00 0.  1.
        -14    1    4    4    0    0  0.37305773985E+01 -0.11976981614E+02 -0.21730288744E+03  0.21766467372E+03  0.00000000000E+00 0.  1.
<mgrwt>
<rscale>  0 0.79950229E+02</rscale>
<asrwt>0</asrwt>
<pdfrwt beam="1">  1        1 0.91656482E-03 0.79950229E+02</pdfrwt>
<pdfrwt beam="2">  1       -2 0.41265730E-01 0.79950229E+02</pdfrwt>
<totfact> 0.74624398E+04</totfact>
</mgrwt>
</event>
<event>
 8    1  0.7756875E-014  0.7908424E+02  0.7818608E-02  0.1331670E+00
          1   -1    0    0  501    0  0.00000000000E+00  0.00000000000E+00  0.10350735135E+03  0.10350735147E+03  0.50400000000E-02 0. -1.
         -2   -1    0    0    0  501 -0.00000000000E+00 -0.00000000000E+00 -0.15105972504E+02  0.15105972719E+02  0.25500000000E-02 0.  1.
        -24    2    1    2    0    0  0.00000000000E+00  0.00000000000E+00  0.88401378845E+02  0.11861332419E+03  0.79084239226E+02 0.  0.
         66    2    3    3    0    0  0.15600550301E+02 -0.11472069697E+02 -0.74357887636E+01  0.20839302017E+02  0.20000002983E+01 0.  0.
         13    1    3    3    0    0 -0.15600550301E+02  0.11472069697E+02  0.95837167608E+02  0.97774022174E+02  0.10566000000E+00 0. -1.
         13    1    4    4    0    0  0.37541750841E+01 -0.30225098525E+01 -0.12775307591E+01  0.49872482640E+01  0.10566000000E+00 0. -1.
        -13    1    4    4    0    0  0.97873692182E+01 -0.74787743375E+01 -0.54319101980E+01  0.13462595375E+02  0.10566000000E+00 0.  1.
        -14    1    4    4    0    0  0.20590059986E+01 -0.97078550742E+00 -0.72634780659E+00  0.23894583779E+01  0.00000000000E+00 0.  1.
<mgrwt>
<rscale>  0 0.79084239E+02</rscale>
<asrwt>0</asrwt>
<pdfrwt beam="1">  1        1 0.15924207E-01 0.79084239E+02</pdfrwt>
<pdfrwt beam="2">  1       -2 0.23239959E-02 0.79084239E+02</pdfrwt>
<totfact> 0.15251315E+05</totfact>
</mgrwt>
</event>
<event>
 8    1  0.7756875E-014  0.7960318E+02  0.7818608E-02  0.1330181E+00
         -2   -1    0    0    0  501 -0.00000000000E+00  0.00000000000E+00  0.45807816737E+02  0.45807816808E+02  0.25500000000E-02 0.  1.
          1   -1    0    0  501    0  0.00000000000E+00 -0.00000000000E+00 -0.34582887521E+02  0.34582887888E+02  0.50400000000E-02 0. -1.
        -24    2    1    2    0    0  0.17763568394E-14 -0.44408920985E-15  0.11224929217E+02  0.80390704696E+02  0.79603180625E+02 0.  0.
         66    2    3    3    0    0  0.13903934526E+02 -0.21766756220E+01  0.43187609446E+02  0.45466767296E+02  0.20000016395E+01 0.  0.
         13    1    3    3    0    0 -0.13903934526E+02  0.21766756220E+01 -0.31962680230E+02  0.34923937401E+02  0.10566000000E+00 0. -1.
         13    1    4    4    0    0  0.23796398381E+01  0.28207051296E+00  0.64852644161E+01  0.69146271133E+01  0.10566000000E+00 0. -1.
        -13    1    4    4    0    0  0.10291649951E+02 -0.20204921918E+01  0.32425324257E+02  0.34079513856E+02  0.10566000000E+00 0.  1.
         14    1    4    4    0    0  0.12326447371E+01 -0.43825394311E+00  0.42770207729E+01  0.44726263267E+01  0.00000000000E+00 0. -1.
<mgrwt>
<rscale>  0 0.79603181E+02</rscale>
<asrwt>0</asrwt>
<pdfrwt beam="1">  1        1 0.53204443E-02 0.79603181E+02</pdfrwt>
<pdfrwt beam="2">  1       -2 0.70473564E-02 0.79603181E+02</pdfrwt>
<totfact> 0.12571946E+05</totfact>
</mgrwt>
</event>
<event>
 8    1  0.7756875E-014  0.7893195E+02  0.7818608E-02  0.1332110E+00
          1   -1    0    0  501    0  0.00000000000E+00  0.00000000000E+00  0.81868883509E+02  0.81868883664E+02  0.50400000000E-02 0. -1.
         -2   -1    0    0    0  501 -0.00000000000E+00 -0.00000000000E+00 -0.19025093391E+02  0.19025093562E+02  0.25500000000E-02 0.  1.
        -24    2    1    2    0    0 -0.17763568394E-14 -0.71054273576E-14  0.62843790117E+02  0.10089397723E+03  0.78931949704E+02 0.  0.
         66    2    3    3    0    0 -0.82312881599E+01 -0.30058803227E+02  0.54474134136E+00  0.31234316024E+02  0.19999995349E+01 0.  0.
         13    1    3    3    0    0  0.82312881599E+01  0.30058803227E+02  0.62299048776E+02  0.69659661201E+02  0.10566000000E+00 0. -1.
         13    1    4    4    0    0 -0.60635897047E-01 -0.11900423717E+01 -0.10679796223E+00  0.12010193166E+01  0.10566000000E+00 0. -1.
        -13    1    4    4    0    0 -0.53362692213E+01 -0.20161200101E+02  0.86354048317E+00  0.20873586777E+02  0.10566000000E+00 0.  1.
         14    1    4    4    0    0 -0.28343830415E+01 -0.87075607543E+01 -0.21200117958E+00  0.91597099308E+01  0.00000000000E+00 0. -1.
<mgrwt>
<rscale>  0 0.78931950E+02</rscale>
<asrwt>0</asrwt>
<pdfrwt beam="1">  1        1 0.12595213E-01 0.78931950E+02</pdfrwt>
<pdfrwt beam="2">  1       -2 0.29269374E-02 0.78931950E+02</pdfrwt>
<totfact> 0.14751668E+05</totfact>
</mgrwt>
</event>
<event>
 8    1  0.7756875E-014  0.7861350E+02  0.7818608E-02  0.1333033E+00
          1   -1    0    0  501    0  0.00000000000E+00  0.00000000000E+00  0.16364842217E+02  0.16364842993E+02  0.50400000000E-02 0. -1.
         -2   -1    0    0    0  501 -0.00000000000E+00 -0.00000000000E+00 -0.94410963788E+02  0.94410963823E+02  0.25500000000E-02 0.  1.
        -24    2    1    2    0    0  0.00000000000E+00  0.00000000000E+00 -0.78046121572E+02  0.11077580682E+03  0.78613499371E+02 0.  0.
         66    2    3    3    0    0 -0.34176225209E+02  0.18087859171E+02 -0.48793672292E+02  0.62289706005E+02  0.19999998709E+01 0.  0.
         13    1    3    3    0    0  0.34176225209E+02 -0.18087859171E+02 -0.29252449280E+02  0.48486100811E+02  0.10566000000E+00 0. -1.
         13    1    4    4    0    0 -0.10641250826E+02  0.52576979093E+01 -0.14702729572E+02  0.18896058513E+02  0.10566000000E+00 0. -1.
        -13    1    4    4    0    0 -0.13356079767E+02  0.66070042507E+01 -0.19679350791E+02  0.24684517081E+02  0.10566000000E+00 0.  1.
         14    1    4    4    0    0 -0.10178894616E+02  0.62231570112E+01 -0.14411591928E+02  0.18709130410E+02  0.00000000000E+00 0. -1.
<mgrwt>
<rscale>  0 0.78613499E+02</rscale>
<asrwt>0</asrwt>
<pdfrwt beam="1">  1        1 0.25176682E-02 0.78613499E+02</pdfrwt>
<pdfrwt beam="2">  1       -2 0.14524763E-01 0.78613499E+02</pdfrwt>
<totfact> 0.11254515E+05</totfact>
</mgrwt>
</event>
<event>
 8    1  0.7756875E-014  0.7937598E+02  0.7818608E-02  0.1330832E+00
         -2   -1    0    0    0  501 -0.00000000000E+00  0.00000000000E+00  0.94347752787E+01  0.94347756233E+01  0.25500000000E-02 0.  1.
          1   -1    0    0  501    0  0.00000000000E+00 -0.00000000000E+00 -0.16695008971E+03  0.16695008979E+03  0.50400000000E-02 0. -1.
        -24    2    1    2    0    0  0.00000000000E+00  0.00000000000E+00 -0.15751531443E+03  0.17638486541E+03  0.79375981664E+02 0.  0.
         66    2    3    3    0    0 -0.23090922206E+02  0.96763229482E+01 -0.10449593870E+02  0.27203233691E+02  0.19999992673E+01 0.  0.
         13    1    3    3    0    0  0.23090922206E+02 -0.96763229482E+01 -0.14706572056E+03  0.14918163172E+03  0.10566000000E+00 0. -1.
         13    1    4    4    0    0 -0.63029045508E+00 -0.32401237898E-01 -0.25575757077E+00  0.68912398636E+00  0.10566000000E+00 0. -1.
        -13    1    4    4    0    0 -0.17536346419E+02  0.77067619827E+01 -0.77545958339E+01  0.20665491684E+02  0.10566000000E+00 0.  1.
        -14    1    4    4    0    0 -0.49242853319E+01  0.20019622033E+01 -0.24392404658E+01  0.58486180200E+01  0.00000000000E+00 0.  1.
<mgrwt>
<rscale>  0 0.79375982E+02</rscale>
<asrwt>0</asrwt>
<pdfrwt beam="1">  1        1 0.25684627E-01 0.79375982E+02</pdfrwt>
<pdfrwt beam="2">  1       -2 0.14515040E-02 0.79375982E+02</pdfrwt>
<totfact> 0.16446319E+05</totfact>
</mgrwt>
</event>
<event>
 8    1  0.7756875E-014  0.7904423E+02  0.7818608E-02  0.1331786E+00
         -2   -1    0    0    0  501 -0.00000000000E+00  0.00000000000E+00  0.34486475722E+01  0.34486485150E+01  0.25500000000E-02 0.  1.
          1   -1    0    0  501    0  0.00000000000E+00 -0.00000000000E+00 -0.45293039191E+03  0.45293039194E+03  0.50400000000E-02 0. -1.
        -24    2    1    2    0    0 -0.71054273576E-14  0.00000000000E+00 -0.44948174434E+03  0.45637904045E+03  0.79044228581E+02 0.  0.
         66    2    3    3    0    0  0.35165682191E+02 -0.37170805230E+01 -0.32646743908E+03  0.32838305476E+03  0.19999955265E+01 0.  0.
         13    1    3    3    0    0 -0.35165682191E+02  0.37170805230E+01 -0.12301430526E+03  0.12799598569E+03  0.10566000000E+00 0. -1.
         13    1    4    4    0    0  0.78016851395E+01 -0.36159220552E+00 -0.73019961844E+02  0.73436523826E+02  0.10566000000E+00 0. -1.
        -13    1    4    4    0    0  0.10055956684E+02 -0.99113393352E+00 -0.98904748403E+02  0.99419641078E+02  0.10566000000E+00 0.  1.
        -14    1    4    4    0    0  0.17308040367E+02 -0.23643543840E+01 -0.15454272883E+03  0.15552688985E+03  0.00000000000E+00 0.  1.
<mgrwt>
<rscale>  0 0.79044229E+02</rscale>
<asrwt>0</asrwt>
<pdfrwt beam="1">  1        1 0.69681552E-01 0.79044229E+02</pdfrwt>
<pdfrwt beam="2">  1       -2 0.53056160E-03 0.79044229E+02</pdfrwt>
<totfact> 0.19977573E+05</totfact>
</mgrwt>
</event>
<event>
 8    1  0.7756875E-014  0.7941122E+02  0.7818608E-02  0.1330731E+00
         -2   -1    0    0    0  501 -0.00000000000E+00  0.00000000000E+00  0.16490374106E+03  0.16490374108E+03  0.25500000000E-02 0.  1.
          1   -1    0    0  501    0  0.00000000000E+00 -0.00000000000E+00 -0.95603379720E+01  0.95603393005E+01  0.50400000000E-02 0. -1.
        -24    2    1    2    0    0  0.00000000000E+00  0.00000000000E+00  0.15534340309E+03  0.17446408038E+03  0.79411223767E+02 0.  0.
         66    2    3    3    0    0  0.38520097126E+02  0.86686222821E+01  0.86394761372E+02  0.95010513731E+02  0.20000079855E+01 0.  0.
         13    1    3    3    0    0 -0.38520097126E+02 -0.86686222821E+01  0.68948641721E+02  0.79453566654E+02  0.10566000000E+00 0. -1.
         13    1    4    4    0    0  0.97198567268E+01  0.19746208463E+01  0.22376740097E+02  0.24476609317E+02  0.10566000000E+00 0. -1.
        -13    1    4    4    0    0  0.67797071447E+01  0.22493921672E+01  0.15698861328E+02  0.17247886975E+02  0.10566000000E+00 0.  1.
        -14    1    4    4    0    0  0.22020533255E+02  0.44446092685E+01  0.48319159948E+02  0.53286017438E+02  0.00000000000E+00 0.  1.
<mgrwt>
<rscale>  0 0.79411224E+02</rscale>
<asrwt>0</asrwt>
<pdfrwt beam="1">  1        1 0.14708214E-02 0.79411224E+02</pdfrwt>
<pdfrwt beam="2">  1       -2 0.25369805E-01 0.79411224E+02</pdfrwt>
<totfact> 0.93272968E+04</totfact>
</mgrwt>
</event>
<event>
 8    1  0.7756875E-014  0.8417650E+02  0.7818608E-02  0.1317600E+00
          1   -1    0    0  501    0  0.00000000000E+00  0.00000000000E+00  0.76924512648E+02  0.76924512813E+02  0.50400000000E-02 0. -1.
         -2   -1    0    0    0  501 -0.00000000000E+00 -0.00000000000E+00 -0.23028039894E+02  0.23028040036E+02  0.25500000000E-02 0.  1.
        -24    2    1    2    0    0  0.00000000000E+00  0.00000000000E+00  0.53896472753E+02  0.99952552848E+02  0.84176499367E+02 0.  0.
         66    2    3    3    0    0  0.42039123058E+02 -0.76950829628E+00  0.25491898924E+02  0.49210942813E+02  0.19999928162E+01 0.  0.
         13    1    3    3    0    0 -0.42039123058E+02  0.76950829628E+00  0.28404573830E+02  0.50741610036E+02  0.10566000000E+00 0. -1.
         13    1    4    4    0    0  0.14389062340E+02 -0.26191991707E+00  0.79956088156E+01  0.16463737165E+02  0.10566000000E+00 0. -1.
        -13    1    4    4    0    0  0.19857279465E+02 -0.80252932340E+00  0.12182041227E+02  0.23310274420E+02  0.10566000000E+00 0.  1.
        -14    1    4    4    0    0  0.77927812540E+01  0.29494094418E+00  0.53142488810E+01  0.94369312280E+01  0.00000000000E+00 0.  1.
<mgrwt>
<rscale>  0 0.84176499E+02</rscale>
<asrwt>0</asrwt>
<pdfrwt beam="1">  1        1 0.11834541E-01 0.84176499E+02</pdfrwt>
<pdfrwt beam="2">  1       -2 0.35427754E-02 0.84176499E+02</pdfrwt>
<totfact> 0.12249089E+05</totfact>
</mgrwt>
</event>
<event>
 8    1  0.7756875E-014  0.8009158E+02  0.7818608E-02  0.1328792E+00
          1   -1    0    0  501    0  0.00000000000E+00  0.00000000000E+00  0.20341869119E+03  0.20341869125E+03  0.50400000000E-02 0. -1.
         -2   -1    0    0    0  501 -0.00000000000E+00 -0.00000000000E+00 -0.78835684635E+01  0.78835688759E+01  0.25500000000E-02 0.  1.
        -24    2    1    2    0    0 -0.71054273576E-14  0.00000000000E+00  0.19553512273E+03  0.21130226013E+03  0.80091578307E+02 0.  0.
         66    2    3    3    0    0 -0.32167500390E+02  0.89949345077E+01  0.39666679314E+02  0.51895109273E+02  0.19999976186E+01 0.  0.
         13    1    3    3    0    0  0.32167500390E+02 -0.89949345077E+01  0.15586844341E+03  0.15940715086E+03  0.10566000000E+00 0. -1.
         13    1    4    4    0    0 -0.18115742781E+02  0.59441162842E+01  0.22055003652E+02  0.29153850604E+02  0.10566000000E+00 0. -1.
        -13    1    4    4    0    0 -0.65819831936E+01  0.12452763938E+01  0.79787994240E+01  0.10418522944E+02  0.10566000000E+00 0.  1.
         14    1    4    4    0    0 -0.74697744148E+01  0.18055418298E+01  0.96328762380E+01  0.12322735724E+02  0.00000000000E+00 0. -1.
<mgrwt>
<rscale>  0 0.80091578E+02</rscale>
<asrwt>0</asrwt>
<pdfrwt beam="1">  1        1 0.31295183E-01 0.80091578E+02</pdfrwt>
<pdfrwt beam="2">  1       -2 0.12128567E-02 0.80091578E+02</pdfrwt>
<totfact> 0.16678173E+05</totfact>
</mgrwt>
</event>
<event>
 8    1  0.7756875E-014  0.7879612E+02  0.7818608E-02  0.1332503E+00
         -2   -1    0    0    0  501 -0.00000000000E+00  0.00000000000E+00  0.37361057984E+02  0.37361058071E+02  0.25500000000E-02 0.  1.
          1   -1    0    0  501    0  0.00000000000E+00 -0.00000000000E+00 -0.41546119153E+02  0.41546119458E+02  0.50400000000E-02 0. -1.
        -24    2    1    2    0    0  0.00000000000E+00 -0.44408920985E-15 -0.41850611682E+01  0.78907177530E+02  0.78796116203E+02 0.  0.
         66    2    3    3    0    0  0.10128769281E+02 -0.39801230655E+01  0.35798177468E+02  0.37469225329E+02  0.19999974931E+01 0.  0.
         13    1    3    3    0    0 -0.10128769281E+02  0.39801230655E+01 -0.39983238636E+02  0.41437952201E+02  0.10566000000E+00 0. -1.
         13    1    4    4    0    0  0.14184463189E+01 -0.70640614740E+00  0.33293661637E+01  0.36887454089E+01  0.10566000000E+00 0. -1.
        -13    1    4    4    0    0  0.68443141588E+01 -0.23312334475E+01  0.25112296398E+02  0.26132697529E+02  0.10566000000E+00 0.  1.
         14    1    4    4    0    0  0.18660088033E+01 -0.94248347053E+00  0.73565149055E+01  0.76477823910E+01  0.00000000000E+00 0. -1.
<mgrwt>
<rscale>  0 0.78796116E+02</rscale>
<asrwt>0</asrwt>
<pdfrwt beam="1">  1        1 0.63917107E-02 0.78796116E+02</pdfrwt>
<pdfrwt beam="2">  1       -2 0.57478550E-02 0.78796116E+02</pdfrwt>
<totfact> 0.13331089E+05</totfact>
</mgrwt>
</event>
<event>
 8    1  0.7756875E-014  0.7640963E+02  0.7818608E-02  0.1339561E+00
         -2   -1    0    0    0  501 -0.00000000000E+00  0.00000000000E+00  0.14925707030E+02  0.14925707248E+02  0.25500000000E-02 0.  1.
          1   -1    0    0  501    0  0.00000000000E+00 -0.00000000000E+00 -0.97791545322E+02  0.97791545452E+02  0.50400000000E-02 0. -1.
        -24    2    1    2    0    0  0.00000000000E+00  0.00000000000E+00 -0.82865838292E+02  0.11271725270E+03  0.76409632249E+02 0.  0.
         66    2    3    3    0    0 -0.29807400484E+02 -0.99082798972E+01 -0.94480519617E+01  0.32862148619E+02  0.19999979712E+01 0.  0.
         13    1    3    3    0    0  0.29807400484E+02  0.99082798972E+01 -0.73417786330E+02  0.79855104081E+02  0.10566000000E+00 0. -1.
         13    1    4    4    0    0 -0.15206486847E+02 -0.42175756735E+01 -0.49830371915E+01  0.16548927774E+02  0.10566000000E+00 0. -1.
        -13    1    4    4    0    0 -0.79467552187E+01 -0.26982640304E+01 -0.24892085830E+01  0.87543629516E+01  0.10566000000E+00 0.  1.
        -14    1    4    4    0    0 -0.66541584179E+01 -0.29924401934E+01 -0.19758061873E+01  0.75588578933E+01  0.00000000000E+00 0.  1.
<mgrwt>
<rscale>  0 0.76409632E+02</rscale>
<asrwt>0</asrwt>
<pdfrwt beam="1">  1        1 0.15044853E-01 0.76409632E+02</pdfrwt>
<pdfrwt beam="2">  1       -2 0.22962627E-02 0.76409632E+02</pdfrwt>
<totfact> 0.16574272E+05</totfact>
</mgrwt>
</event>
<event>
 8    1  0.7756875E-014  0.7920052E+02  0.7818608E-02  0.1331336E+00
         -2   -1    0    0    0  501 -0.00000000000E+00  0.00000000000E+00  0.34728703541E+03  0.34728703541E+03  0.25500000000E-02 0.  1.
          1   -1    0    0  501    0  0.00000000000E+00 -0.00000000000E+00 -0.45155159864E+01  0.45155187991E+01  0.50400000000E-02 0. -1.
        -24    2    1    2    0    0  0.00000000000E+00  0.00000000000E+00  0.34277151942E+03  0.35180255421E+03  0.79200521631E+02 0.  0.
         66    2    3    3    0    0 -0.29451931757E+01  0.18938172416E+02  0.32529351264E+03  0.32586377201E+03  0.20000009703E+01 0.  0.
         13    1    3    3    0    0  0.29451931757E+01 -0.18938172416E+02  0.17478006775E+02  0.25938782203E+02  0.10566000000E+00 0. -1.
         13    1    4    4    0    0 -0.71935916964E+00  0.27625599846E+01  0.42143444367E+02  0.42240150123E+02  0.10566000000E+00 0. -1.
        -13    1    4    4    0    0 -0.17839523719E+01  0.14635937785E+02  0.24925927054E+03  0.24969499048E+03  0.10566000000E+00 0.  1.
         14    1    4    4    0    0 -0.44188163418E+00  0.15396746463E+01  0.33890797741E+02  0.33928631403E+02  0.00000000000E+00 0. -1.
<mgrwt>
<rscale>  0 0.79200522E+02</rscale>
<asrwt>0</asrwt>
<pdfrwt beam="1">  1        1 0.69469474E-03 0.79200522E+02</pdfrwt>
<pdfrwt beam="2">  1       -2 0.53428794E-01 0.79200522E+02</pdfrwt>
<totfact> 0.66316089E+04</totfact>
</mgrwt>
</event>
<event>
 8    1  0.7756875E-014  0.7887467E+02  0.7818608E-02  0.1332276E+00
         -2   -1    0    0    0  501 -0.00000000000E+00  0.00000000000E+00  0.58205295349E+01  0.58205300935E+01  0.25500000000E-02 0.  1.
          1   -1    0    0  501    0  0.00000000000E+00 -0.00000000000E+00 -0.26720990733E+03  0.26720990738E+03  0.50400000000E-02 0. -1.
        -24    2    1    2    0    0  0.71054273576E-14 -0.35527136788E-14 -0.26138937780E+03  0.27303043747E+03  0.78874666158E+02 0.  0.
         66    2    3    3    0    0 -0.33075187487E+02  0.21304998713E+02 -0.13884276414E+03  0.14432319339E+03  0.19999994572E+01 0.  0.
         13    1    3    3    0    0  0.33075187487E+02 -0.21304998713E+02 -0.12254661366E+03  0.12870724409E+03  0.10566000000E+00 0. -1.
         13    1    4    4    0    0 -0.65233962645E+01  0.35900193117E+01 -0.27322297611E+02  0.28318934448E+02  0.10566000000E+00 0. -1.
        -13    1    4    4    0    0 -0.20537107234E+02  0.14204372572E+02 -0.88035238059E+02  0.91508203336E+02  0.10566000000E+00 0.  1.
         14    1    4    4    0    0 -0.60146839885E+01  0.35106068291E+01 -0.23485228470E+02  0.24496055603E+02  0.00000000000E+00 0. -1.
<mgrwt>
<rscale>  0 0.78874666E+02</rscale>
<asrwt>0</asrwt>
<pdfrwt beam="1">  1        1 0.41109207E-01 0.78874666E+02</pdfrwt>
<pdfrwt beam="2">  1       -2 0.89546633E-03 0.78874666E+02</pdfrwt>
<totfact> 0.18315122E+05</totfact>
</mgrwt>
</event>
<event>
 8    1  0.7756875E-014  0.7767511E+02  0.7818608E-02  0.1335782E+00
         -2   -1    0    0    0  501 -0.00000000000E+00  0.00000000000E+00  0.25833604240E+02  0.25833604366E+02  0.25500000000E-02 0.  1.
          1   -1    0    0  501    0  0.00000000000E+00 -0.00000000000E+00 -0.58387343679E+02  0.58387343897E+02  0.50400000000E-02 0. -1.
        -24    2    1    2    0    0  0.00000000000E+00  0.00000000000E+00 -0.32553739439E+02  0.84220948263E+02  0.77675106532E+02 0.  0.
         66    2    3    3    0    0  0.34094799592E+01  0.38335869674E+02 -0.10856828028E+02  0.40039158054E+02  0.20000014076E+01 0.  0.
         13    1    3    3    0    0 -0.34094799592E+01 -0.38335869674E+02 -0.21696911411E+02  0.44181790209E+02  0.10566000000E+00 0. -1.
         13    1    4    4    0    0  0.63945467921E+00  0.31960172285E+01 -0.86516763004E+00  0.33738861088E+01  0.10566000000E+00 0. -1.
        -13    1    4    4    0    0  0.14018410215E+01  0.25536175048E+02 -0.70647221589E+01  0.26532675281E+02  0.10566000000E+00 0.  1.
        -14    1    4    4    0    0  0.13681842584E+01  0.96036773970E+01 -0.29269382392E+01  0.10132596665E+02  0.00000000000E+00 0.  1.
<mgrwt>
<rscale>  0 0.77675107E+02</rscale>
<asrwt>0</asrwt>
<pdfrwt beam="1">  1        1 0.89826683E-02 0.77675107E+02</pdfrwt>
<pdfrwt beam="2">  1       -2 0.39744007E-02 0.77675107E+02</pdfrwt>
<totfact> 0.14621215E+05</totfact>
</mgrwt>
</event>
<event>
 8    1  0.7756875E-014  0.7960082E+02  0.7818608E-02  0.1330188E+00
          1   -1    0    0  501    0  0.00000000000E+00  0.00000000000E+00  0.14269100533E+02  0.14269101423E+02  0.50400000000E-02 0. -1.
         -2   -1    0    0    0  501 -0.00000000000E+00 -0.00000000000E+00 -0.11101417758E+03  0.11101417761E+03  0.25500000000E-02 0.  1.
        -24    2    1    2    0    0  0.00000000000E+00  0.00000000000E+00 -0.96745077046E+02  0.12528327903E+03  0.79600817034E+02 0.  0.
         66    2    3    3    0    0  0.80081422703E+01  0.91052119174E+01 -0.10802497494E+03  0.10872180304E+03  0.20000044723E+01 0.  0.
         13    1    3    3    0    0 -0.80081422703E+01 -0.91052119174E+01  0.11279897893E+02  0.16561475997E+02  0.10566000000E+00 0. -1.
         13    1    4    4    0    0  0.32044945989E+00  0.45785120917E+00 -0.68826249093E+01  0.69060846552E+01  0.10566000000E+00 0.  1.
        -13    1    4    4    0    0  0.39201783700E+01  0.31717140673E+01 -0.43895312988E+02  0.44184128767E+02  0.10566000000E+00 0.  1.
        -14    1    4    4    0    0  0.37675144404E+01  0.54756466410E+01 -0.57247037043E+02  0.57631589614E+02  0.00000000000E+00 0.  1.
<mgrwt>
<rscale>  0 0.79600817E+02</rscale>
<asrwt>0</asrwt>
<pdfrwt beam="1">  1        1 0.21952464E-02 0.79600817E+02</pdfrwt>
<pdfrwt beam="2">  1       -2 0.17079104E-01 0.79600817E+02</pdfrwt>
<totfact> 0.10465025E+05</totfact>
</mgrwt>
</event>
<event>
 8    1  0.9115058E-014  0.8693452E+02  0.7818608E-02  0.1310450E+00
         -2   -1    0    0    0  501 -0.00000000000E+00  0.00000000000E+00  0.23992833985E+02  0.23992834120E+02  0.25500000000E-02 0.  1.
          1   -1    0    0  501    0  0.00000000000E+00 -0.00000000000E+00 -0.78748631038E+02  0.78748631200E+02  0.50400000000E-02 0. -1.
        -24    2    1    2    0    0  0.00000000000E+00 -0.88817841970E-15 -0.54755797053E+02  0.10274146532E+03  0.86934523552E+02 0.  0.
         66    2    3    3    0    0 -0.19901279093E+02 -0.68046498630E+01  0.17533103378E+02  0.27454942895E+02  0.20000015012E+01 0.  0.
         13    1    3    3    0    0  0.19901279093E+02  0.68046498630E+01 -0.72288900432E+02  0.75286522425E+02  0.10566000000E+00 0. -1.
         13    1    4    4    0    0 -0.30408645703E+01 -0.14723900263E+01  0.29462926132E+01  0.44840376808E+01  0.10566000000E+00 0. -1.
        -13    1    4    4    0    0 -0.10557324693E+02 -0.37981534276E+01  0.85133732979E+01  0.14084451110E+02  0.10566000000E+00 0.  1.
         14    1    4    4    0    0 -0.63030898295E+01 -0.15341064091E+01  0.60734374670E+01  0.88864541037E+01  0.00000000000E+00 0. -1.
<mgrwt>
<rscale>  0 0.86934524E+02</rscale>
<asrwt>0</asrwt>
<pdfrwt beam="1">  1        1 0.12115174E-01 0.86934524E+02</pdfrwt>
<pdfrwt beam="2">  1       -2 0.36912053E-02 0.86934524E+02</pdfrwt>
<totfact> 0.11252714E+05</totfact>
</mgrwt>
</event>
<event>
 8    1  0.7756875E-014  0.7722407E+02  0.7818608E-02  0.1337119E+00
          1   -1    0    0  501    0  0.00000000000E+00  0.00000000000E+00  0.25847440340E+03  0.25847440345E+03  0.50400000000E-02 0. -1.
         -2   -1    0    0    0  501 -0.00000000000E+00 -0.00000000000E+00 -0.57680339861E+01  0.57680345498E+01  0.25500000000E-02 0.  1.
        -24    2    1    2    0    0  0.00000000000E+00  0.00000000000E+00  0.25270636941E+03  0.26424243800E+03  0.77224069416E+02 0.  0.
         66    2    3    3    0    0 -0.33185766481E+02  0.16946249720E+02  0.16072605389E+03  0.16500101477E+03  0.19999999260E+01 0.  0.
         13    1    3    3    0    0  0.33185766481E+02 -0.16946249720E+02  0.91980315525E+02  0.99241423229E+02  0.10566000000E+00 0. -1.
         13    1    4    4    0    0 -0.10760350977E+02  0.62152396085E+01  0.51174460218E+02  0.52661664417E+02  0.10566000000E+00 0. -1.
        -13    1    4    4    0    0 -0.80295652114E+01  0.40816998761E+01  0.38522677212E+02  0.39561875777E+02  0.10566000000E+00 0.  1.
         14    1    4    4    0    0 -0.14395850292E+02  0.66493102358E+01  0.71028916457E+02  0.72777474574E+02  0.00000000000E+00 0. -1.
<mgrwt>
<rscale>  0 0.77224069E+02</rscale>
<asrwt>0</asrwt>
<pdfrwt beam="1">  1        1 0.39765287E-01 0.77224069E+02</pdfrwt>
<pdfrwt beam="2">  1       -2 0.88739002E-03 0.77224069E+02</pdfrwt>
<totfact> 0.19239935E+05</totfact>
</mgrwt>
</event>
<event>
 8    1  0.7756875E-014  0.7918264E+02  0.7818608E-02  0.1331387E+00
          1   -1    0    0  501    0  0.00000000000E+00  0.00000000000E+00  0.85185103108E+01  0.85185118018E+01  0.50400000000E-02 0. -1.
         -2   -1    0    0    0  501 -0.00000000000E+00 -0.00000000000E+00 -0.18400780559E+03  0.18400780561E+03  0.25500000000E-02 0.  1.
        -24    2    1    2    0    0  0.00000000000E+00  0.00000000000E+00 -0.17548929528E+03  0.19252631741E+03  0.79182637855E+02 0.  0.
         66    2    3    3    0    0  0.34006219271E+02  0.13066312811E+02 -0.12533550576E+03  0.13053788908E+03  0.20000003715E+01 0.  0.
         13    1    3    3    0    0 -0.34006219271E+02 -0.13066312811E+02 -0.50153789513E+02  0.61988428325E+02  0.10566000000E+00 0. -1.
         13    1    4    4    0    0  0.11986958031E+02  0.49575179004E+01 -0.41531174197E+02  0.43509926923E+02  0.10566000000E+00 0. -1.
        -13    1    4    4    0    0  0.89408966897E+01  0.33782779498E+01 -0.33747668999E+02  0.35075186705E+02  0.10566000000E+00 0.  1.
         14    1    4    4    0    0  0.13078364550E+02  0.47305169611E+01 -0.50056662568E+02  0.51952775455E+02  0.00000000000E+00 0. -1.
<mgrwt>
<rscale>  0 0.79182638E+02</rscale>
<asrwt>0</asrwt>
<pdfrwt beam="1">  1        1 0.13105403E-02 0.79182638E+02</pdfrwt>
<pdfrwt beam="2">  1       -2 0.28308890E-01 0.79182638E+02</pdfrwt>
<totfact> 0.90271065E+04</totfact>
</mgrwt>
</event>
<event>
 8    1  0.7756875E-014  0.7707510E+02  0.7818608E-02  0.1337563E+00
         -2   -1    0    0    0  501 -0.00000000000E+00  0.00000000000E+00  0.63648478551E+01  0.63648483660E+01  0.25500000000E-02 0.  1.
          1   -1    0    0  501    0  0.00000000000E+00 -0.00000000000E+00 -0.23333516214E+03  0.23333516219E+03  0.50400000000E-02 0. -1.
        -24    2    1    2    0    0  0.71054273576E-14  0.22204460493E-15 -0.22697031428E+03  0.23970001056E+03  0.77075102958E+02 0.  0.
         66    2    3    3    0    0 -0.37856831829E+02 -0.16069137429E+01 -0.13497629111E+03  0.14020813475E+03  0.20000002593E+01 0.  0.
         13    1    3    3    0    0  0.37856831829E+02  0.16069137429E+01 -0.91994023177E+02  0.99491875810E+02  0.10566000000E+00 0. -1.
         13    1    4    4    0    0 -0.14306084270E+02 -0.13761582077E+01 -0.49630941355E+02  0.51670101243E+02  0.10566000000E+00 0. -1.
        -13    1    4    4    0    0 -0.15997677069E+02 -0.38156637700E+00 -0.57156140129E+02  0.59354079750E+02  0.10566000000E+00 0.  1.
        -14    1    4    4    0    0 -0.75530704891E+01  0.15081084179E+00 -0.28189209621E+02  0.29183953755E+02  0.00000000000E+00 0.  1.
<mgrwt>
<rscale>  0 0.77075103E+02</rscale>
<asrwt>0</asrwt>
<pdfrwt beam="1">  1        1 0.35897711E-01 0.77075103E+02</pdfrwt>
<pdfrwt beam="2">  1       -2 0.97920758E-03 0.77075103E+02</pdfrwt>
<totfact> 0.18959382E+05</totfact>
</mgrwt>
</event>
<event>
 8    1  0.7756875E-014  0.8024456E+02  0.7818608E-02  0.1328359E+00
         -2   -1    0    0    0  501 -0.00000000000E+00  0.00000000000E+00  0.40883416562E+03  0.40883416563E+03  0.25500000000E-02 0.  1.
          1   -1    0    0  501    0  0.00000000000E+00 -0.00000000000E+00 -0.39375297021E+01  0.39375329277E+01  0.50400000000E-02 0. -1.
        -24    2    1    2    0    0 -0.17763568394E-14  0.00000000000E+00  0.40489663592E+03  0.41277169856E+03  0.80244559634E+02 0.  0.
         66    2    3    3    0    0  0.14818406302E+02 -0.34705108276E+02  0.27230425460E+03  0.27491387160E+03  0.20000045288E+01 0.  0.
         13    1    3    3    0    0 -0.14818406302E+02  0.34705108276E+02  0.13259238132E+03  0.13785782696E+03  0.10566000000E+00 0. -1.
         13    1    4    4    0    0  0.12928307107E+01 -0.19505478910E+01  0.17017174393E+02  0.17177643514E+02  0.10566000000E+00 0. -1.
        -13    1    4    4    0    0  0.38119450170E+01 -0.93606554408E+01  0.70262034766E+02  0.70985332912E+02  0.10566000000E+00 0.  1.
         14    1    4    4    0    0  0.97136305742E+01 -0.23393904945E+02  0.18502504544E+03  0.18675089517E+03  0.00000000000E+00 0. -1.
<mgrwt>
<rscale>  0 0.80244560E+02</rscale>
<asrwt>0</asrwt>
<pdfrwt beam="1">  1        1 0.60577395E-03 0.80244560E+02</pdfrwt>
<pdfrwt beam="2">  1       -2 0.62897575E-01 0.80244560E+02</pdfrwt>
<totfact> 0.57780260E+04</totfact>
</mgrwt>
</event>
<event>
 8    1  0.7756875E-014  0.8018292E+02  0.7818608E-02  0.1328533E+00
         -2   -1    0    0    0  501 -0.00000000000E+00  0.00000000000E+00  0.26668387444E+02  0.26668387566E+02  0.25500000000E-02 0.  1.
          1   -1    0    0  501    0  0.00000000000E+00 -0.00000000000E+00 -0.60270807947E+02  0.60270808157E+02  0.50400000000E-02 0. -1.
        -24    2    1    2    0    0  0.00000000000E+00  0.00000000000E+00 -0.33602420503E+02  0.86939195723E+02  0.80182922679E+02 0.  0.
         66    2    3    3    0    0 -0.51657769232E+01 -0.32245619036E+02  0.83575851013E+01  0.33768541857E+02  0.19999980541E+01 0.  0.
         13    1    3    3    0    0  0.51657769232E+01  0.32245619036E+02 -0.41960005604E+02  0.53170653866E+02  0.10566000000E+00 0. -1.
         13    1    4    4    0    0 -0.15436634570E+01 -0.94873048907E+01  0.21129292092E+01  0.98421280644E+01  0.10566000000E+00 0. -1.
        -13    1    4    4    0    0 -0.15439414708E+01 -0.11446983734E+02  0.23797359882E+01  0.11793705918E+02  0.10566000000E+00 0.  1.
        -14    1    4    4    0    0 -0.20781719954E+01 -0.11311330411E+02  0.38649199039E+01  0.12132707875E+02  0.00000000000E+00 0.  1.
<mgrwt>
<rscale>  0 0.80182923E+02</rscale>
<asrwt>0</asrwt>
<pdfrwt beam="1">  1        1 0.92724320E-02 0.80182923E+02</pdfrwt>
<pdfrwt beam="2">  1       -2 0.41028289E-02 0.80182923E+02</pdfrwt>
<totfact> 0.13462991E+05</totfact>
</mgrwt>
</event>
<event>
 8    1  0.7756875E-014  0.8035055E+02  0.7818608E-02  0.1328060E+00
         -2   -1    0    0    0  501 -0.00000000000E+00  0.00000000000E+00  0.98453240601E+01  0.98453243903E+01  0.25500000000E-02 0.  1.
          1   -1    0    0  501    0  0.00000000000E+00 -0.00000000000E+00 -0.16394104917E+03  0.16394104925E+03  0.50400000000E-02 0. -1.
        -24    2    1    2    0    0  0.00000000000E+00 -0.71054273576E-14 -0.15409572511E+03  0.17378637364E+03  0.80350551740E+02 0.  0.
         66    2    3    3    0    0  0.21673532821E+02  0.33711311084E+02 -0.82328183030E+02  0.91586703442E+02  0.20000016184E+01 0.  0.
         13    1    3    3    0    0 -0.21673532821E+02 -0.33711311084E+02 -0.71767542079E+02  0.82199670194E+02  0.10566000000E+00 0. -1.
         13    1    4    4    0    0  0.57356575461E+01  0.94929334723E+01 -0.21109406522E+02  0.23846000947E+02  0.10566000000E+00 0. -1.
        -13    1    4    4    0    0  0.80837807767E+01  0.11727152894E+02 -0.29662999637E+02  0.32905597368E+02  0.10566000000E+00 0.  1.
        -14    1    4    4    0    0  0.78540944979E+01  0.12491224718E+02 -0.31555776871E+02  0.34835105127E+02  0.00000000000E+00 0.  1.
<mgrwt>
<rscale>  0 0.80350552E+02</rscale>
<asrwt>0</asrwt>
<pdfrwt beam="1">  1        1 0.25221698E-01 0.80350552E+02</pdfrwt>
<pdfrwt beam="2">  1       -2 0.15146654E-02 0.80350552E+02</pdfrwt>
<totfact> 0.15865670E+05</totfact>
</mgrwt>
</event>
<event>
 8    1  0.7756875E-014  0.7896742E+02  0.7818608E-02  0.1332008E+00
          1   -1    0    0  501    0  0.00000000000E+00  0.00000000000E+00  0.59939395830E+02  0.59939396042E+02  0.50400000000E-02 0. -1.
         -2   -1    0    0    0  501 -0.00000000000E+00 -0.00000000000E+00 -0.26008992950E+02  0.26008993075E+02  0.25500000000E-02 0.  1.
        -24    2    1    2    0    0  0.00000000000E+00  0.00000000000E+00  0.33930402880E+02  0.85948389117E+02  0.78967419562E+02 0.  0.
         66    2    3    3    0    0 -0.37371641768E+02  0.82321454465E+01  0.65052656426E+01  0.38868062615E+02  0.19999958205E+01 0.  0.
         13    1    3    3    0    0  0.37371641768E+02 -0.82321454465E+01  0.27425137237E+02  0.47080326502E+02  0.10566000000E+00 0. -1.
         13    1    4    4    0    0 -0.79055497946E+01  0.13501520378E+01  0.16791909610E+01  0.81946003197E+01  0.10566000000E+00 0. -1.
        -13    1    4    4    0    0 -0.35706421759E+01  0.10714479387E+01  0.98751460752E+00  0.38579574089E+01  0.10566000000E+00 0.  1.
        -14    1    4    4    0    0 -0.25895449797E+02  0.58105454701E+01  0.38385600741E+01  0.26815504886E+02  0.00000000000E+00 0.  1.
<mgrwt>
<rscale>  0 0.78967420E+02</rscale>
<asrwt>0</asrwt>
<pdfrwt beam="1">  1        1 0.92214456E-02 0.78967420E+02</pdfrwt>
<pdfrwt beam="2">  1       -2 0.40013835E-02 0.78967420E+02</pdfrwt>
<totfact> 0.14029334E+05</totfact>
</mgrwt>
</event>
<event>
 8    1  0.7756875E-014  0.7743650E+02  0.7818608E-02  0.1336488E+00
          1   -1    0    0  501    0  0.00000000000E+00  0.00000000000E+00  0.20901231381E+02  0.20901231988E+02  0.50400000000E-02 0. -1.
         -2   -1    0    0    0  501 -0.00000000000E+00 -0.00000000000E+00 -0.71723176952E+02  0.71723176997E+02  0.25500000000E-02 0.  1.
        -24    2    1    2    0    0  0.00000000000E+00  0.00000000000E+00 -0.50821945571E+02  0.92624408985E+02  0.77436496487E+02 0.  0.
         66    2    3    3    0    0 -0.31194247954E+02  0.37122054662E+01 -0.52446636109E+02  0.61167893632E+02  0.19999993359E+01 0.  0.
         13    1    3    3    0    0  0.31194247954E+02 -0.37122054662E+01  0.16246905378E+01  0.31456515354E+02  0.10566000000E+00 0. -1.
         13    1    4    4    0    0 -0.47772137870E+01  0.75034234450E-01 -0.83401454157E+01  0.96123145648E+01  0.10566000000E+00 0. -1.
        -13    1    4    4    0    0 -0.22602645501E+02  0.26772424662E+01 -0.37526398027E+02  0.43889508128E+02  0.10566000000E+00 0.  1.
        -14    1    4    4    0    0 -0.38143886663E+01  0.95992876550E+00 -0.65800926667E+01  0.76660709385E+01  0.00000000000E+00 0.  1.
<mgrwt>
<rscale>  0 0.77436496E+02</rscale>
<asrwt>0</asrwt>
<pdfrwt beam="1">  1        1 0.32155741E-02 0.77436496E+02</pdfrwt>
<pdfrwt beam="2">  1       -2 0.11034335E-01 0.77436496E+02</pdfrwt>
<totfact> 0.12421204E+05</totfact>
</mgrwt>
</event>
<event>
 8    1  0.7756875E-014  0.8096717E+02  0.7818608E-02  0.1326329E+00
         -2   -1    0    0    0  501 -0.00000000000E+00  0.00000000000E+00  0.11499348286E+02  0.11499348568E+02  0.25500000000E-02 0.  1.
          1   -1    0    0  501    0  0.00000000000E+00 -0.00000000000E+00 -0.14252290080E+03  0.14252290089E+03  0.50400000000E-02 0. -1.
        -24    2    1    2    0    0 -0.17763568394E-14  0.00000000000E+00 -0.13102355252E+03  0.15402224946E+03  0.80967166274E+02 0.  0.
         66    2    3    3    0    0 -0.95695279563E+01  0.25600418971E+02 -0.88024913093E+01  0.28782653950E+02  0.19999995823E+01 0.  0.
         13    1    3    3    0    0  0.95695279563E+01 -0.25600418971E+02 -0.12222106121E+03  0.12523959551E+03  0.10566000000E+00 0. -1.
         13    1    4    4    0    0 -0.22153732138E+01  0.59799936436E+01 -0.29338818338E+01  0.70204721425E+01  0.10566000000E+00 0. -1.
        -13    1    4    4    0    0 -0.69602008532E+01  0.18480419903E+02 -0.54629967711E+01  0.20489651375E+02  0.10566000000E+00 0.  1.
         14    1    4    4    0    0 -0.39395388935E+00  0.11400054246E+01 -0.40561270437E+00  0.12725304323E+01  0.00000000000E+00 0. -1.
<mgrwt>
<rscale>  0 0.80967166E+02</rscale>
<asrwt>0</asrwt>
<pdfrwt beam="1">  1        1 0.21926599E-01 0.80967166E+02</pdfrwt>
<pdfrwt beam="2">  1       -2 0.17691306E-02 0.80967166E+02</pdfrwt>
<totfact> 0.15145735E+05</totfact>
</mgrwt>
</event>
<event>
 8    1  0.7756875E-014  0.7701173E+02  0.7818608E-02  0.1337752E+00
         -2   -1    0    0    0  501 -0.00000000000E+00  0.00000000000E+00  0.14186564230E+03  0.14186564233E+03  0.25500000000E-02 0.  1.
          1   -1    0    0  501    0  0.00000000000E+00 -0.00000000000E+00 -0.10451449876E+02  0.10451451091E+02  0.50400000000E-02 0. -1.
        -24    2    1    2    0    0  0.00000000000E+00  0.00000000000E+00  0.13141419243E+03  0.15231709342E+03  0.77011732715E+02 0.  0.
         66    2    3    3    0    0 -0.19906961423E+02  0.31140495259E+02  0.86931691466E+02  0.94483525190E+02  0.19999982777E+01 0.  0.
         13    1    3    3    0    0  0.19906961423E+02 -0.31140495259E+02  0.44482500963E+02  0.57833568228E+02  0.10566000000E+00 0. -1.
         13    1    4    4    0    0 -0.11813981582E+01  0.26755220335E+01  0.64172946259E+01  0.70531520692E+01  0.10566000000E+00 0. -1.
        -13    1    4    4    0    0 -0.15377927240E+02  0.23651659149E+02  0.66018879788E+02  0.71794047658E+02  0.10566000000E+00 0.  1.
         14    1    4    4    0    0 -0.33476360247E+01  0.48133140773E+01  0.14495517052E+02  0.15636325463E+02  0.00000000000E+00 0. -1.
<mgrwt>
<rscale>  0 0.77011733E+02</rscale>
<asrwt>0</asrwt>
<pdfrwt beam="1">  1        1 0.16079155E-02 0.77011733E+02</pdfrwt>
<pdfrwt beam="2">  1       -2 0.21825482E-01 0.77011733E+02</pdfrwt>
<totfact> 0.10611131E+05</totfact>
</mgrwt>
</event>
<event>
 8    1  0.7756875E-014  0.8306699E+02  0.7818608E-02  0.1320566E+00
         -2   -1    0    0    0  501 -0.00000000000E+00  0.00000000000E+00  0.38521362632E+02  0.38521362716E+02  0.25500000000E-02 0.  1.
          1   -1    0    0  501    0  0.00000000000E+00 -0.00000000000E+00 -0.44781156335E+02  0.44781156618E+02  0.50400000000E-02 0. -1.
        -24    2    1    2    0    0  0.71054273576E-14  0.00000000000E+00 -0.62597937029E+01  0.83302519334E+02  0.83066989293E+02 0.  0.
         66    2    3    3    0    0 -0.21608907646E+02  0.11427675328E+02  0.30511733707E+02  0.39147190719E+02  0.19999985864E+01 0.  0.
         13    1    3    3    0    0  0.21608907646E+02 -0.11427675328E+02 -0.36771527410E+02  0.44155328615E+02  0.10566000000E+00 0. -1.
         13    1    4    4    0    0 -0.49218121251E+01  0.31156708909E+01  0.77115394066E+01  0.96649181968E+01  0.10566000000E+00 0. -1.
        -13    1    4    4    0    0 -0.77480005967E+01  0.43649885216E+01  0.10092420224E+02  0.13451867828E+02  0.10566000000E+00 0.  1.
         14    1    4    4    0    0 -0.89390949239E+01  0.39470159151E+01  0.12707774076E+02  0.16030404694E+02  0.00000000000E+00 0. -1.
<mgrwt>
<rscale>  0 0.83066989E+02</rscale>
<asrwt>0</asrwt>
<pdfrwt beam="1">  1        1 0.68894087E-02 0.83066989E+02</pdfrwt>
<pdfrwt beam="2">  1       -2 0.59263635E-02 0.83066989E+02</pdfrwt>
<totfact> 0.11633638E+05</totfact>
</mgrwt>
</event>
<event>
 8    1  0.1194681E-013  0.8498005E+02  0.7818608E-02  0.1315485E+00
          1   -1    0    0  501    0  0.00000000000E+00  0.00000000000E+00  0.57076127809E+02  0.57076128031E+02  0.50400000000E-02 0. -1.
         -2   -1    0    0    0  501 -0.00000000000E+00 -0.00000000000E+00 -0.31631476021E+02  0.31631476123E+02  0.25500000000E-02 0.  1.
        -24    2    1    2    0    0  0.00000000000E+00  0.00000000000E+00  0.25444651788E+02  0.88707604155E+02  0.84980049013E+02 0.  0.
         66    2    3    3    0    0  0.15541048285E+02 -0.12397906921E+02 -0.26442185170E+02  0.33142441586E+02  0.19999999783E+01 0.  0.
         13    1    3    3    0    0 -0.15541048285E+02  0.12397906921E+02  0.51886836958E+02  0.55565162569E+02  0.10566000000E+00 0. -1.
         13    1    4    4    0    0  0.22330410772E+01 -0.23305324346E+01 -0.42627665639E+01  0.53479151727E+01  0.10566000000E+00 0. -1.
        -13    1    4    4    0    0  0.68297476519E+01 -0.60715397614E+01 -0.12250322660E+02  0.15283671594E+02  0.10566000000E+00 0.  1.
         14    1    4    4    0    0  0.64782595557E+01 -0.39958347246E+01 -0.99290959455E+01  0.12510854819E+02  0.00000000000E+00 0. -1.
<mgrwt>
<rscale>  0 0.84980049E+02</rscale>
<asrwt>0</asrwt>
<pdfrwt beam="1">  1        1 0.87809428E-02 0.84980049E+02</pdfrwt>
<pdfrwt beam="2">  1       -2 0.48663809E-02 0.84980049E+02</pdfrwt>
<totfact> 0.11358971E+05</totfact>
</mgrwt>
</event>
<event>
 8    1  0.7756875E-014  0.8036297E+02  0.7818608E-02  0.1328025E+00
         -2   -1    0    0    0  501 -0.00000000000E+00  0.00000000000E+00  0.23722414416E+01  0.23722428122E+01  0.25500000000E-02 0.  1.
          1   -1    0    0  501    0  0.00000000000E+00 -0.00000000000E+00 -0.68060165317E+03  0.68060165319E+03  0.50400000000E-02 0. -1.
        -24    2    1    2    0    0  0.00000000000E+00  0.00000000000E+00 -0.67822941173E+03  0.68297389600E+03  0.80362974591E+02 0.  0.
         66    2    3    3    0    0  0.40818021246E+01 -0.34137050376E+02 -0.51566735196E+03  0.51681603806E+03  0.19999991300E+01 0.  0.
         13    1    3    3    0    0 -0.40818021246E+01  0.34137050376E+02 -0.16256205977E+03  0.16615785794E+03  0.10566000000E+00 0. -1.
         13    1    4    4    0    0  0.23514873066E+00 -0.18822745534E+01 -0.27971459015E+02  0.28035904407E+02  0.10566000000E+00 0. -1.
        -13    1    4    4    0    0  0.35722847926E+01 -0.29831461160E+02 -0.44289174848E+03  0.44390966348E+03  0.10566000000E+00 0.  1.
        -14    1    4    4    0    0  0.27436860131E+00 -0.24233146629E+01 -0.44804144465E+02  0.44870470170E+02  0.00000000000E+00 0.  1.
<mgrwt>
<rscale>  0 0.80362975E+02</rscale>
<asrwt>0</asrwt>
<pdfrwt beam="1">  1        1 0.10470779E+00 0.80362975E+02</pdfrwt>
<pdfrwt beam="2">  1       -2 0.36496087E-03 0.80362975E+02</pdfrwt>
<totfact> 0.19784919E+05</totfact>
</mgrwt>
</event>
<event>
 8    1  0.7756875E-014  0.8007065E+02  0.7818608E-02  0.1328851E+00
         -2   -1    0    0    0  501 -0.00000000000E+00  0.00000000000E+00  0.62477339233E+01  0.62477344437E+01  0.25500000000E-02 0.  1.
          1   -1    0    0  501    0  0.00000000000E+00 -0.00000000000E+00 -0.25654536399E+03  0.25654536404E+03  0.50400000000E-02 0. -1.
        -24    2    1    2    0    0  0.00000000000E+00  0.00000000000E+00 -0.25029763007E+03  0.26279309848E+03  0.80070650012E+02 0.  0.
         66    2    3    3    0    0 -0.24271331671E+02  0.28388196641E+02 -0.78139761289E+02  0.86630303899E+02  0.20000024400E+01 0.  0.
         13    1    3    3    0    0  0.24271331671E+02 -0.28388196641E+02 -0.17215786878E+03  0.17616279458E+03  0.10566000000E+00 0. -1.
         13    1    4    4    0    0 -0.92316643039E+01  0.94884341984E+01 -0.27357459788E+02  0.30392363834E+02  0.10566000000E+00 0.  1.
        -13    1    4    4    0    0 -0.20877746375E+01  0.27204992330E+01 -0.67345925924E+01  0.75581625039E+01  0.10566000000E+00 0. -1.
         14    1    4    4    0    0 -0.12951892730E+02  0.16179263209E+02 -0.44047708909E+02  0.48679777561E+02  0.00000000000E+00 0. -1.
<mgrwt>
<rscale>  0 0.80070650E+02</rscale>
<asrwt>0</asrwt>
<pdfrwt beam="1">  1        1 0.39468510E-01 0.80070650E+02</pdfrwt>
<pdfrwt beam="2">  1       -2 0.96119007E-03 0.80070650E+02</pdfrwt>
<totfact> 0.17462273E+05</totfact>
</mgrwt>
</event>
<event>
 8    1  0.7756875E-014  0.7850039E+02  0.7818608E-02  0.1333362E+00
          1   -1    0    0  501    0  0.00000000000E+00  0.00000000000E+00  0.11927834342E+03  0.11927834352E+03  0.50400000000E-02 0. -1.
         -2   -1    0    0    0  501 -0.00000000000E+00 -0.00000000000E+00 -0.12915820561E+02  0.12915820813E+02  0.25500000000E-02 0.  1.
        -24    2    1    2    0    0  0.00000000000E+00  0.00000000000E+00  0.10636252285E+03  0.13219416434E+03  0.78500387364E+02 0.  0.
         66    2    3    3    0    0  0.26111320460E+02  0.12914196361E+02  0.89809398801E+01  0.30548891988E+02  0.19999991879E+01 0.  0.
         13    1    3    3    0    0 -0.26111320460E+02 -0.12914196361E+02  0.97381582974E+02  0.10164527235E+03  0.10566000000E+00 0. -1.
         13    1    4    4    0    0  0.15343084428E+01  0.11111141365E+01  0.38767544188E+00  0.19365260923E+01  0.10566000000E+00 0. -1.
        -13    1    4    4    0    0  0.21591600161E+02  0.10218431284E+02  0.71284536950E+01  0.24928689326E+02  0.10566000000E+00 0.  1.
        -14    1    4    4    0    0  0.29854118568E+01  0.15846509404E+01  0.14648107432E+01  0.36836765698E+01  0.00000000000E+00 0.  1.
<mgrwt>
<rscale>  0 0.78500387E+02</rscale>
<asrwt>0</asrwt>
<pdfrwt beam="1">  1        1 0.18350515E-01 0.78500387E+02</pdfrwt>
<pdfrwt beam="2">  1       -2 0.19870493E-02 0.78500387E+02</pdfrwt>
<totfact> 0.15940083E+05</totfact>
</mgrwt>
</event>
<event>
 8    1  0.7756875E-014  0.7874885E+02  0.7818608E-02  0.1332640E+00
         -2   -1    0    0    0  501 -0.00000000000E+00  0.00000000000E+00  0.59788510225E+01  0.59788515663E+01  0.25500000000E-02 0.  1.
          1   -1    0    0  501    0  0.00000000000E+00 -0.00000000000E+00 -0.25930487890E+03  0.25930487895E+03  0.50400000000E-02 0. -1.
        -24    2    1    2    0    0  0.35527136788E-14  0.00000000000E+00 -0.25332602788E+03  0.26528373052E+03  0.78748849363E+02 0.  0.
         66    2    3    3    0    0 -0.20976140894E+02  0.27906987547E+02 -0.65590926081E+02  0.74330128686E+02  0.20000014223E+01 0.  0.
         13    1    3    3    0    0  0.20976140894E+02 -0.27906987547E+02 -0.18773510180E+03  0.19095360183E+03  0.10566000000E+00 0. -1.
         13    1    4    4    0    0 -0.66612018267E+00  0.11175424159E+01 -0.24830286525E+01  0.28052116629E+01  0.10566000000E+00 0. -1.
        -13    1    4    4    0    0 -0.88032057713E+01  0.12877396923E+02 -0.28392644952E+02  0.32395636046E+02  0.10566000000E+00 0.  1.
        -14    1    4    4    0    0 -0.11506814940E+02  0.13912048208E+02 -0.34715252476E+02  0.39129280978E+02  0.00000000000E+00 0.  1.
<mgrwt>
<rscale>  0 0.78748849E+02</rscale>
<asrwt>0</asrwt>
<pdfrwt beam="1">  1        1 0.39893050E-01 0.78748849E+02</pdfrwt>
<pdfrwt beam="2">  1       -2 0.91982348E-03 0.78748849E+02</pdfrwt>
<totfact> 0.18285124E+05</totfact>
</mgrwt>
</event>
<event>
 8    1  0.7756875E-014  0.7931626E+02  0.7818608E-02  0.1331003E+00
         -2   -1    0    0    0  501 -0.00000000000E+00  0.00000000000E+00  0.12306768930E+03  0.12306768932E+03  0.25500000000E-02 0.  1.
          1   -1    0    0  501    0  0.00000000000E+00 -0.00000000000E+00 -0.12779692087E+02  0.12779693081E+02  0.50400000000E-02 0. -1.
        -24    2    1    2    0    0  0.00000000000E+00 -0.35527136788E-14  0.11028799721E+03  0.13584738241E+03  0.79316259226E+02 0.  0.
         66    2    3    3    0    0 -0.19752892951E+02  0.28498353842E+02  0.88053992402E+02  0.94656423623E+02  0.20000008658E+01 0.  0.
         13    1    3    3    0    0  0.19752892951E+02 -0.28498353842E+02  0.22234004809E+02  0.41190958783E+02  0.10566000000E+00 0. -1.
         13    1    4    4    0    0 -0.57391852245E+00  0.10327178981E+01  0.33834800149E+01  0.35853855824E+01  0.10566000000E+00 0. -1.
        -13    1    4    4    0    0 -0.18188603892E+01  0.29193512839E+01  0.99812868184E+01  0.10557846164E+02  0.10566000000E+00 0.  1.
        -14    1    4    4    0    0 -0.17360114039E+02  0.24546284660E+02  0.74689225569E+02  0.80513191877E+02  0.00000000000E+00 0.  1.
<mgrwt>
<rscale>  0 0.79316259E+02</rscale>
<asrwt>0</asrwt>
<pdfrwt beam="1">  1        1 0.19661066E-02 0.79316259E+02</pdfrwt>
<pdfrwt beam="2">  1       -2 0.18933490E-01 0.79316259E+02</pdfrwt>
<totfact> 0.10266268E+05</totfact>
</mgrwt>
</event>
<event>
 8    1  0.7756875E-014  0.8045386E+02  0.7818608E-02  0.1327768E+00
         -2   -1    0    0    0  501 -0.00000000000E+00  0.00000000000E+00  0.13231656295E+02  0.13231656541E+02  0.25500000000E-02 0.  1.
          1   -1    0    0  501    0  0.00000000000E+00 -0.00000000000E+00 -0.12229806044E+03  0.12229806054E+03  0.50400000000E-02 0. -1.
        -24    2    1    2    0    0  0.00000000000E+00  0.00000000000E+00 -0.10906640414E+03  0.13552971708E+03  0.80453860689E+02 0.  0.
         66    2    3    3    0    0  0.33319944643E+02 -0.18378587201E+02 -0.32718728327E+02  0.50224559295E+02  0.19999986349E+01 0.  0.
         13    1    3    3    0    0 -0.33319944643E+02  0.18378587201E+02 -0.76347675815E+02  0.85305157787E+02  0.10566000000E+00 0. -1.
         13    1    4    4    0    0  0.27345137453E+01 -0.18853062716E+01 -0.26249828272E+01  0.42348133418E+01  0.10566000000E+00 0. -1.
        -13    1    4    4    0    0  0.14567424115E+02 -0.84005040259E+01 -0.13903320937E+02  0.21819528188E+02  0.10566000000E+00 0.  1.
        -14    1    4    4    0    0  0.16018006783E+02 -0.80927769035E+01 -0.16190424563E+02  0.24170217766E+02  0.00000000000E+00 0.  1.
<mgrwt>
<rscale>  0 0.80453861E+02</rscale>
<asrwt>0</asrwt>
<pdfrwt beam="1">  1        1 0.18815086E-01 0.80453861E+02</pdfrwt>
<pdfrwt beam="2">  1       -2 0.20356395E-02 0.80453861E+02</pdfrwt>
<totfact> 0.14987445E+05</totfact>
</mgrwt>
</event>
<event>
 8    1  0.7756875E-014  0.8052036E+02  0.7818608E-02  0.1327581E+00
          1   -1    0    0  501    0  0.00000000000E+00  0.00000000000E+00  0.16662970906E+03  0.16662970914E+03  0.50400000000E-02 0. -1.
         -2   -1    0    0    0  501 -0.00000000000E+00 -0.00000000000E+00 -0.97274499105E+01  0.97274502448E+01  0.25500000000E-02 0.  1.
        -24    2    1    2    0    0  0.00000000000E+00  0.00000000000E+00  0.15690225915E+03  0.17635715938E+03  0.80520362262E+02 0.  0.
         66    2    3    3    0    0  0.30747303528E+02 -0.28714180279E+01  0.22008938380E+02  0.37974137055E+02  0.20000001885E+01 0.  0.
         13    1    3    3    0    0 -0.30747303528E+02  0.28714180279E+01  0.13489332077E+03  0.13838302233E+03  0.10566000000E+00 0. -1.
         13    1    4    4    0    0  0.67841037227E+01 -0.13462767720E+00  0.47224099416E+01  0.82676784906E+01  0.10566000000E+00 0. -1.
        -13    1    4    4    0    0  0.23466393126E+02 -0.25769868961E+01  0.16677242038E+02  0.28904221730E+02  0.10566000000E+00 0.  1.
        -14    1    4    4    0    0  0.49680667894E+00 -0.15980345458E+00  0.60928640059E+00  0.80223683428E+00  0.00000000000E+00 0.  1.
<mgrwt>
<rscale>  0 0.80520362E+02</rscale>
<asrwt>0</asrwt>
<pdfrwt beam="1">  1        1 0.25635340E-01 0.80520362E+02</pdfrwt>
<pdfrwt beam="2">  1       -2 0.14965308E-02 0.80520362E+02</pdfrwt>
<totfact> 0.15824962E+05</totfact>
</mgrwt>
</event>
<event>
 8    1  0.7756875E-014  0.7819041E+02  0.7818608E-02  0.1334267E+00
          1   -1    0    0  501    0  0.00000000000E+00  0.00000000000E+00  0.14966919580E+02  0.14966920429E+02  0.50400000000E-02 0. -1.
         -2   -1    0    0    0  501 -0.00000000000E+00 -0.00000000000E+00 -0.10212088870E+03  0.10212088873E+03  0.25500000000E-02 0.  1.
        -24    2    1    2    0    0  0.35527136788E-14  0.00000000000E+00 -0.87153969122E+02  0.11708780916E+03  0.78190413229E+02 0.  0.
         66    2    3    3    0    0 -0.31768879355E+02 -0.60631871697E+01 -0.76427226310E+02  0.83012919442E+02  0.19999846869E+01 0.  0.
         13    1    3    3    0    0  0.31768879355E+02  0.60631871697E+01 -0.10726742812E+02  0.34074889721E+02  0.10566000000E+00 0. -1.
         13    1    4    4    0    0 -0.12909858756E+01  0.70514810961E-01 -0.33285076132E+01  0.35723583018E+01  0.10566000000E+00 0. -1.
        -13    1    4    4    0    0 -0.18998696224E+02 -0.36374203143E+01 -0.46506358634E+02  0.50368976981E+02  0.10566000000E+00 0.  1.
         14    1    4    4    0    0 -0.11479197255E+02 -0.24962816663E+01 -0.26592360063E+02  0.29071584158E+02  0.00000000000E+00 0. -1.
<mgrwt>
<rscale>  0 0.78190413E+02</rscale>
<asrwt>0</asrwt>
<pdfrwt beam="1">  1        1 0.23026031E-02 0.78190413E+02</pdfrwt>
<pdfrwt beam="2">  1       -2 0.15710906E-01 0.78190413E+02</pdfrwt>
<totfact> 0.11193875E+05</totfact>
</mgrwt>
</event>
<event>
 8    1  0.7756875E-014  0.7893680E+02  0.7818608E-02  0.1332096E+00
          1   -1    0    0  501    0  0.00000000000E+00  0.00000000000E+00  0.27939924489E+03  0.27939924493E+03  0.50400000000E-02 0. -1.
         -2   -1    0    0    0  501 -0.00000000000E+00 -0.00000000000E+00 -0.55753710276E+01  0.55753716108E+01  0.25500000000E-02 0.  1.
        -24    2    1    2    0    0  0.17763568394E-14 -0.35527136788E-14  0.27382387386E+03  0.28497461654E+03  0.78936798634E+02 0.  0.
         66    2    3    3    0    0  0.13844961907E+02 -0.31768759909E+02  0.68996884702E+02  0.77236695769E+02  0.19999995848E+01 0.  0.
         13    1    3    3    0    0 -0.13844961907E+02  0.31768759909E+02  0.20482698916E+03  0.20773792077E+03  0.10566000000E+00 0. -1.
         13    1    4    4    0    0  0.10299057917E+01 -0.18664124324E+01  0.47223512413E+01  0.51822742680E+01  0.10566000000E+00 0. -1.
        -13    1    4    4    0    0  0.50242227245E+01 -0.10468091128E+02  0.24076665208E+02  0.26730520335E+02  0.10566000000E+00 0.  1.
        -14    1    4    4    0    0  0.77908333910E+01 -0.19434256349E+02  0.40197868254E+02  0.45323901166E+02  0.00000000000E+00 0.  1.
<mgrwt>
<rscale>  0 0.78936799E+02</rscale>
<asrwt>0</asrwt>
<pdfrwt beam="1">  1        1 0.42984494E-01 0.78936799E+02</pdfrwt>
<pdfrwt beam="2">  1       -2 0.85774955E-03 0.78936799E+02</pdfrwt>
<totfact> 0.18435866E+05</totfact>
</mgrwt>
</event>
<event>
 8    1  0.7756875E-014  0.8070975E+02  0.7818608E-02  0.1327049E+00
          1   -1    0    0  501    0  0.00000000000E+00  0.00000000000E+00  0.68562968505E+02  0.68562968690E+02  0.50400000000E-02 0. -1.
         -2   -1    0    0    0  501 -0.00000000000E+00 -0.00000000000E+00 -0.23752123558E+02  0.23752123695E+02  0.25500000000E-02 0.  1.
        -24    2    1    2    0    0  0.00000000000E+00 -0.88817841970E-15  0.44810844947E+02  0.92315092385E+02  0.80709754412E+02 0.  0.
         66    2    3    3    0    0  0.20804702027E+02  0.71297820950E+01  0.61086075279E+02  0.64955200105E+02  0.20000021315E+01 0.  0.
         13    1    3    3    0    0 -0.20804702027E+02 -0.71297820950E+01 -0.16275230333E+02  0.27359892280E+02  0.10566000000E+00 0. -1.
         13    1    4    4    0    0  0.12003635205E+01  0.64805291414E+00  0.34773529318E+01  0.37368425989E+01  0.10566000000E+00 0. -1.
        -13    1    4    4    0    0  0.50728899067E+01  0.15176517710E+01  0.16860301204E+02  0.17672532349E+02  0.10566000000E+00 0.  1.
        -14    1    4    4    0    0  0.14531448600E+02  0.49640774098E+01  0.40748421143E+02  0.43545825157E+02  0.00000000000E+00 0.  1.
<mgrwt>
<rscale>  0 0.80709754E+02</rscale>
<asrwt>0</asrwt>
<pdfrwt beam="1">  1        1 0.10548149E-01 0.80709754E+02</pdfrwt>
<pdfrwt beam="2">  1       -2 0.36541729E-02 0.80709754E+02</pdfrwt>
<totfact> 0.13494375E+05</totfact>
</mgrwt>
</event>
<event>
 8    1  0.7756875E-014  0.7959379E+02  0.7818608E-02  0.1330208E+00
          1   -1    0    0  501    0  0.00000000000E+00  0.00000000000E+00  0.17570054561E+03  0.17570054568E+03  0.50400000000E-02 0. -1.
         -2   -1    0    0    0  501 -0.00000000000E+00 -0.00000000000E+00 -0.90141598224E+01  0.90141601831E+01  0.25500000000E-02 0.  1.
        -24    2    1    2    0    0  0.44408920985E-15  0.00000000000E+00  0.16668638579E+03  0.18471470587E+03  0.79593789682E+02 0.  0.
         66    2    3    3    0    0 -0.37469959741E+01 -0.26333257979E+02  0.14775092213E+02  0.30492357503E+02  0.20000153945E+01 0.  0.
         13    1    3    3    0    0  0.37469959741E+01  0.26333257979E+02  0.15191129358E+03  0.15422234836E+03  0.10566000000E+00 0. -1.
         13    1    4    4    0    0 -0.32157809672E+00 -0.18645906322E+01  0.59797117559E+00  0.19871699123E+01  0.10566000000E+00 0. -1.
        -13    1    4    4    0    0 -0.19205620952E+01 -0.16933758352E+02  0.95561750321E+01  0.19538996288E+02  0.10566000000E+00 0.  1.
        -14    1    4    4    0    0 -0.15048557821E+01 -0.75349089956E+01  0.46209460049E+01  0.89661913027E+01  0.00000000000E+00 0.  1.
<mgrwt>
<rscale>  0 0.79593790E+02</rscale>
<asrwt>0</asrwt>
<pdfrwt beam="1">  1        1 0.27030849E-01 0.79593790E+02</pdfrwt>
<pdfrwt beam="2">  1       -2 0.13867941E-02 0.79593790E+02</pdfrwt>
<totfact> 0.16484964E+05</totfact>
</mgrwt>
</event>
<event>
 8    1  0.7756875E-014  0.8082690E+02  0.7818608E-02  0.1326721E+00
         -2   -1    0    0    0  501 -0.00000000000E+00  0.00000000000E+00  0.74753948954E+02  0.74753948997E+02  0.25500000000E-02 0.  1.
          1   -1    0    0  501    0  0.00000000000E+00 -0.00000000000E+00 -0.21848300931E+02  0.21848301512E+02  0.50400000000E-02 0. -1.
        -24    2    1    2    0    0  0.71054273576E-14 -0.88817841970E-15  0.52905648023E+02  0.96602250510E+02  0.80826896580E+02 0.  0.
         66    2    3    3    0    0  0.38418206754E+02 -0.48635151211E+01  0.12756751852E+02  0.40820914766E+02  0.19999937476E+01 0.  0.
         13    1    3    3    0    0 -0.38418206754E+02  0.48635151211E+01  0.40148896171E+02  0.55781335743E+02  0.10566000000E+00 0. -1.
         13    1    4    4    0    0  0.14112329202E+01 -0.35352119083E-01  0.18069413308E+00  0.14271098531E+01  0.10566000000E+00 0. -1.
        -13    1    4    4    0    0  0.26838365565E+02 -0.35771580494E+01  0.95545938304E+01  0.28712285754E+02  0.10566000000E+00 0.  1.
        -14    1    4    4    0    0  0.10168608269E+02 -0.12510049526E+01  0.30214638890E+01  0.10681519160E+02  0.00000000000E+00 0.  1.
<mgrwt>
<rscale>  0 0.80826897E+02</rscale>
<asrwt>0</asrwt>
<pdfrwt beam="1">  1        1 0.33612772E-02 0.80826897E+02</pdfrwt>
<pdfrwt beam="2">  1       -2 0.11500607E-01 0.80826897E+02</pdfrwt>
<totfact> 0.11045005E+05</totfact>
</mgrwt>
</event>
<event>
 8    1  0.7756875E-014  0.7971163E+02  0.7818608E-02  0.1329872E+00
          1   -1    0    0  501    0  0.00000000000E+00  0.00000000000E+00  0.16964122382E+03  0.16964122390E+03  0.50400000000E-02 0. -1.
         -2   -1    0    0    0  501 -0.00000000000E+00 -0.00000000000E+00 -0.93637961076E+01  0.93637964548E+01  0.25500000000E-02 0.  1.
        -24    2    1    2    0    0  0.35527136788E-14  0.00000000000E+00  0.16027742771E+03  0.17900502035E+03  0.79711626983E+02 0.  0.
         66    2    3    3    0    0  0.31350256981E+02  0.22126054654E+02  0.10417449700E+03  0.11103479962E+03  0.19999986056E+01 0.  0.
         13    1    3    3    0    0 -0.31350256981E+02 -0.22126054654E+02  0.56102930712E+02  0.67970220728E+02  0.10566000000E+00 0. -1.
         13    1    4    4    0    0  0.54381879574E+01  0.45536865388E+01  0.20339127696E+02  0.21540687752E+02  0.10566000000E+00 0. -1.
        -13    1    4    4    0    0  0.12772229376E+02  0.85058783011E+01  0.42114485836E+02  0.44823218204E+02  0.10566000000E+00 0.  1.
         14    1    4    4    0    0  0.13139839647E+02  0.90664898143E+01  0.41720883469E+02  0.44670893666E+02  0.00000000000E+00 0. -1.
<mgrwt>
<rscale>  0 0.79711627E+02</rscale>
<asrwt>0</asrwt>
<pdfrwt beam="1">  1        1 0.26098650E-01 0.79711627E+02</pdfrwt>
<pdfrwt beam="2">  1       -2 0.14405841E-02 0.79711627E+02</pdfrwt>
<totfact> 0.16311553E+05</totfact>
</mgrwt>
</event>
<event>
 8    1  0.7756875E-014  0.8035122E+02  0.7818608E-02  0.1328058E+00
          1   -1    0    0  501    0  0.00000000000E+00  0.00000000000E+00  0.57491692345E+01  0.57491714436E+01  0.50400000000E-02 0. -1.
         -2   -1    0    0    0  501 -0.00000000000E+00 -0.00000000000E+00 -0.28075001703E+03  0.28075001704E+03  0.25500000000E-02 0.  1.
        -24    2    1    2    0    0 -0.71054273576E-14  0.88817841970E-15 -0.27500084780E+03  0.28649918849E+03  0.80351220989E+02 0.  0.
         66    2    3    3    0    0 -0.33468504471E+02  0.69940811292E+01 -0.21263369676E+03  0.21537443432E+03  0.19999999134E+01 0.  0.
         13    1    3    3    0    0  0.33468504471E+02 -0.69940811292E+01 -0.62367151035E+02  0.71124754162E+02  0.10566000000E+00 0. -1.
         13    1    4    4    0    0 -0.47398448461E+01  0.88036271226E+00 -0.33179290789E+02  0.33527864068E+02  0.10566000000E+00 0. -1.
        -13    1    4    4    0    0 -0.14835028535E+02  0.36435240904E+01 -0.95770857646E+02  0.96981553286E+02  0.10566000000E+00 0.  1.
        -14    1    4    4    0    0 -0.13893631090E+02  0.24701943265E+01 -0.83683548325E+02  0.84865016969E+02  0.00000000000E+00 0.  1.
<mgrwt>
<rscale>  0 0.80351221E+02</rscale>
<asrwt>0</asrwt>
<pdfrwt beam="1">  1        1 0.88448797E-03 0.80351221E+02</pdfrwt>
<pdfrwt beam="2">  1       -2 0.43192300E-01 0.80351221E+02</pdfrwt>
<totfact> 0.71970283E+04</totfact>
</mgrwt>
</event>
<event>
 8    1  0.7756875E-014  0.7983973E+02  0.7818608E-02  0.1329507E+00
         -2   -1    0    0    0  501 -0.00000000000E+00  0.00000000000E+00  0.94161505629E+02  0.94161505664E+02  0.25500000000E-02 0.  1.
          1   -1    0    0  501    0  0.00000000000E+00 -0.00000000000E+00 -0.16924064346E+02  0.16924065096E+02  0.50400000000E-02 0. -1.
        -24    2    1    2    0    0  0.00000000000E+00  0.17763568394E-14  0.77237441284E+02  0.11108557076E+03  0.79839725044E+02 0.  0.
         66    2    3    3    0    0  0.48546576171E+01 -0.13311877547E+02  0.90531679130E+02  0.91655652892E+02  0.19999991302E+01 0.  0.
         13    1    3    3    0    0 -0.48546576171E+01  0.13311877547E+02 -0.13294237846E+02  0.19429917868E+02  0.10566000000E+00 0. -1.
         13    1    4    4    0    0  0.37923153305E+00 -0.32314901464E+01  0.19324206976E+02  0.19596491635E+02  0.10566000000E+00 0. -1.
        -13    1    4    4    0    0  0.17074245996E+01 -0.32431018246E+01  0.22828272269E+02  0.23120860430E+02  0.10566000000E+00 0.  1.
         14    1    4    4    0    0  0.27680014844E+01 -0.68372855763E+01  0.48379199886E+02  0.48938300827E+02  0.00000000000E+00 0. -1.
<mgrwt>
<rscale>  0 0.79839725E+02</rscale>
<asrwt>0</asrwt>
<pdfrwt beam="1">  1        1 0.26037023E-02 0.79839725E+02</pdfrwt>
<pdfrwt beam="2">  1       -2 0.14486385E-01 0.79839725E+02</pdfrwt>
<totfact> 0.10824833E+05</totfact>
</mgrwt>
</event>
<event>
 8    1  0.7756875E-014  0.8028599E+02  0.7818608E-02  0.1328242E+00
         -2   -1    0    0    0  501 -0.00000000000E+00  0.00000000000E+00  0.13069719574E+03  0.13069719576E+03  0.25500000000E-02 0.  1.
          1   -1    0    0  501    0  0.00000000000E+00 -0.00000000000E+00 -0.12329722459E+02  0.12329723489E+02  0.50400000000E-02 0. -1.
        -24    2    1    2    0    0  0.00000000000E+00  0.00000000000E+00  0.11836747328E+03  0.14302691925E+03  0.80285994423E+02 0.  0.
         66    2    3    3    0    0 -0.79926743042E+01  0.33250011231E+02  0.96589135465E+02  0.10248369230E+03  0.20000023062E+01 0.  0.
         13    1    3    3    0    0  0.79926743042E+01 -0.33250011231E+02  0.21778337815E+02  0.40543226949E+02  0.10566000000E+00 0. -1.
         13    1    4    4    0    0 -0.19998282669E+01  0.61817755937E+01  0.17656273828E+02  0.18814059426E+02  0.10566000000E+00 0. -1.
        -13    1    4    4    0    0 -0.45997108613E+01  0.18553414029E+02  0.55375632397E+02  0.58582064998E+02  0.10566000000E+00 0.  1.
        -14    1    4    4    0    0 -0.13931351760E+01  0.85148216084E+01  0.23557229240E+02  0.25087567880E+02  0.00000000000E+00 0.  1.
<mgrwt>
<rscale>  0 0.80285994E+02</rscale>
<asrwt>0</asrwt>
<pdfrwt beam="1">  1        1 0.18968804E-02 0.80285994E+02</pdfrwt>
<pdfrwt beam="2">  1       -2 0.20107261E-01 0.80285994E+02</pdfrwt>
<totfact> 0.97775503E+04</totfact>
</mgrwt>
</event>
<event>
 8    1  0.7756875E-014  0.8017648E+02  0.7818608E-02  0.1328551E+00
         -2   -1    0    0    0  501 -0.00000000000E+00  0.00000000000E+00  0.67653409039E+01  0.67653413844E+01  0.25500000000E-02 0.  1.
          1   -1    0    0  501    0  0.00000000000E+00 -0.00000000000E+00 -0.23754412360E+03  0.23754412366E+03  0.50400000000E-02 0. -1.
        -24    2    1    2    0    0  0.00000000000E+00  0.00000000000E+00 -0.23077878270E+03  0.24430946504E+03  0.80176481368E+02 0.  0.
         66    2    3    3    0    0  0.40009294429E+02  0.12144678690E+01 -0.12059930085E+03  0.12708426315E+03  0.20000007175E+01 0.  0.
         13    1    3    3    0    0 -0.40009294429E+02 -0.12144678690E+01 -0.11017948185E+03  0.11722520189E+03  0.10566000000E+00 0. -1.
         13    1    4    4    0    0  0.17709276982E+02 -0.13528186074E+00 -0.55124164814E+02  0.57899235771E+02  0.10566000000E+00 0. -1.
        -13    1    4    4    0    0  0.19314461517E+02  0.94482511523E+00 -0.56501784686E+02  0.59719376712E+02  0.10566000000E+00 0.  1.
        -14    1    4    4    0    0  0.29855559305E+01  0.40492461449E+00 -0.89733513483E+01  0.94656506684E+01  0.00000000000E+00 0.  1.
<mgrwt>
<rscale>  0 0.80176481E+02</rscale>
<asrwt>0</asrwt>
<pdfrwt beam="1">  1        1 0.36545244E-01 0.80176481E+02</pdfrwt>
<pdfrwt beam="2">  1       -2 0.10408219E-02 0.80176481E+02</pdfrwt>
<totfact> 0.17142331E+05</totfact>
</mgrwt>
</event>
<event>
 8    1  0.7756875E-014  0.8024125E+02  0.7818608E-02  0.1328368E+00
         -2   -1    0    0    0  501 -0.00000000000E+00  0.00000000000E+00  0.21381941886E+02  0.21381942038E+02  0.25500000000E-02 0.  1.
          1   -1    0    0  501    0  0.00000000000E+00 -0.00000000000E+00 -0.75281489781E+02  0.75281489949E+02  0.50400000000E-02 0. -1.
        -24    2    1    2    0    0 -0.17763568394E-14  0.00000000000E+00 -0.53899547895E+02  0.96663431987E+02  0.80241247624E+02 0.  0.
         66    2    3    3    0    0  0.83708828564E+01  0.31441479505E+02  0.12601639266E+01  0.32622481920E+02  0.20000000681E+01 0.  0.
         13    1    3    3    0    0 -0.83708828564E+01 -0.31441479505E+02 -0.55159711821E+02  0.64040950067E+02  0.10566000000E+00 0. -1.
         13    1    4    4    0    0  0.22185409283E+01  0.95479719866E+01 -0.13096398750E+00  0.98037752171E+01  0.10566000000E+00 0. -1.
        -13    1    4    4    0    0  0.20368135920E+01  0.95198871930E+01  0.54131275263E+00  0.97509509950E+01  0.10566000000E+00 0.  1.
         14    1    4    4    0    0  0.41155283360E+01  0.12373620325E+02  0.84981516151E+00  0.13067755708E+02  0.00000000000E+00 0. -1.
<mgrwt>
<rscale>  0 0.80241248E+02</rscale>
<asrwt>0</asrwt>
<pdfrwt beam="1">  1        1 0.11581768E-01 0.80241248E+02</pdfrwt>
<pdfrwt beam="2">  1       -2 0.32895296E-02 0.80241248E+02</pdfrwt>
<totfact> 0.13917016E+05</totfact>
</mgrwt>
</event>
<event>
 8    1  0.7756875E-014  0.8161016E+02  0.7818608E-02  0.1324543E+00
         -2   -1    0    0    0  501 -0.00000000000E+00  0.00000000000E+00  0.56493189773E+02  0.56493189830E+02  0.25500000000E-02 0.  1.
          1   -1    0    0  501    0  0.00000000000E+00 -0.00000000000E+00 -0.29473542579E+02  0.29473543010E+02  0.50400000000E-02 0. -1.
        -24    2    1    2    0    0  0.00000000000E+00  0.00000000000E+00  0.27019647193E+02  0.85966732840E+02  0.81610157583E+02 0.  0.
         66    2    3    3    0    0 -0.18228798567E+01 -0.11492416039E+02  0.54689564777E+02  0.55949504113E+02  0.19999993994E+01 0.  0.
         13    1    3    3    0    0  0.18228798567E+01  0.11492416039E+02 -0.27669917583E+02  0.30017228728E+02  0.10566000000E+00 0. -1.
         13    1    4    4    0    0 -0.46787726087E+00 -0.48528965063E+01  0.20892997119E+02  0.21454556772E+02  0.10566000000E+00 0. -1.
        -13    1    4    4    0    0 -0.22728518107E+00 -0.37953790266E+00  0.40787221672E+01  0.41040036703E+01  0.10566000000E+00 0.  1.
        -14    1    4    4    0    0 -0.11277174147E+01 -0.62599816299E+01  0.29717845490E+02  0.30390943670E+02  0.00000000000E+00 0.  1.
<mgrwt>
<rscale>  0 0.81610158E+02</rscale>
<asrwt>0</asrwt>
<pdfrwt beam="1">  1        1 0.45343912E-02 0.81610158E+02</pdfrwt>
<pdfrwt beam="2">  1       -2 0.86912599E-02 0.81610158E+02</pdfrwt>
<totfact> 0.11383359E+05</totfact>
</mgrwt>
</event>
<event>
 8    1  0.7756875E-014  0.7886243E+02  0.7818608E-02  0.1332311E+00
          1   -1    0    0  501    0  0.00000000000E+00  0.00000000000E+00  0.35283277839E+02  0.35283278199E+02  0.50400000000E-02 0. -1.
         -2   -1    0    0    0  501 -0.00000000000E+00 -0.00000000000E+00 -0.44066784662E+02  0.44066784735E+02  0.25500000000E-02 0.  1.
        -24    2    1    2    0    0  0.35527136788E-14  0.00000000000E+00 -0.87835068229E+01  0.79350062934E+02  0.78862427654E+02 0.  0.
         66    2    3    3    0    0  0.15282217410E+02 -0.23446273098E+02  0.23517576490E+02  0.36610794827E+02  0.20000006836E+01 0.  0.
         13    1    3    3    0    0 -0.15282217410E+02  0.23446273098E+02 -0.32301083313E+02  0.42739268107E+02  0.10566000000E+00 0. -1.
         13    1    4    4    0    0  0.31854147195E+00 -0.75344278917E+00  0.51444354304E+00  0.97209099393E+00  0.10566000000E+00 0.  1.
        -13    1    4    4    0    0  0.13336542843E+02 -0.20948996295E+02  0.21095974345E+02  0.32584890952E+02  0.10566000000E+00 0.  1.
        -14    1    4    4    0    0  0.16271330947E+01 -0.17438340135E+01  0.19071586021E+01  0.30538128803E+01  0.00000000000E+00 0.  1.
<mgrwt>
<rscale>  0 0.78862428E+02</rscale>
<asrwt>0</asrwt>
<pdfrwt beam="1">  1        1 0.54281966E-02 0.78862428E+02</pdfrwt>
<pdfrwt beam="2">  1       -2 0.67795053E-02 0.78862428E+02</pdfrwt>
<totfact> 0.12953030E+05</totfact>
</mgrwt>
</event>
<event>
 8    1  0.7756875E-014  0.8103411E+02  0.7818608E-02  0.1326142E+00
         -2   -1    0    0    0  501 -0.00000000000E+00  0.00000000000E+00  0.12203727872E+03  0.12203727874E+03  0.25500000000E-02 0.  1.
          1   -1    0    0  501    0  0.00000000000E+00 -0.00000000000E+00 -0.13451885951E+02  0.13451886895E+02  0.50400000000E-02 0. -1.
        -24    2    1    2    0    0 -0.88817841970E-15  0.00000000000E+00  0.10858539276E+03  0.13548916564E+03  0.81034106913E+02 0.  0.
         66    2    3    3    0    0  0.57946927620E+01  0.21949485590E+02  0.11038807751E+03  0.11271595290E+03  0.20000004727E+01 0.  0.
         13    1    3    3    0    0 -0.57946927620E+01 -0.21949485590E+02 -0.18026847408E+01  0.22773212733E+02  0.10566000000E+00 0. -1.
         13    1    4    4    0    0  0.63526950851E-02  0.15661991799E+01  0.87378418885E+01  0.88777286020E+01  0.10566000000E+00 0. -1.
        -13    1    4    4    0    0  0.45541789726E+01  0.17082768487E+02  0.85016930527E+02  0.86835771232E+02  0.10566000000E+00 0.  1.
        -14    1    4    4    0    0  0.12341610943E+01  0.33005179235E+01  0.16633305090E+02  0.17002453069E+02  0.00000000000E+00 0.  1.
<mgrwt>
<rscale>  0 0.81034107E+02</rscale>
<asrwt>0</asrwt>
<pdfrwt beam="1">  1        1 0.20695210E-02 0.81034107E+02</pdfrwt>
<pdfrwt beam="2">  1       -2 0.18774966E-01 0.81034107E+02</pdfrwt>
<totfact> 0.97400144E+04</totfact>
</mgrwt>
</event>
<event>
 8    1  0.7756875E-014  0.8288586E+02  0.7818608E-02  0.1321056E+00
          1   -1    0    0  501    0  0.00000000000E+00  0.00000000000E+00  0.18792419839E+01  0.18792487424E+01  0.50400000000E-02 0. -1.
         -2   -1    0    0    0  501 -0.00000000000E+00 -0.00000000000E+00 -0.91393943674E+03  0.91393943674E+03  0.25500000000E-02 0.  1.
        -24    2    1    2    0    0  0.00000000000E+00 -0.71054273576E-14 -0.91206019475E+03  0.91581868548E+03  0.82885860234E+02 0.  0.
         66    2    3    3    0    0  0.15845152153E+02 -0.31229300528E+02 -0.70067195704E+03  0.70154937768E+03  0.19999712332E+01 0.  0.
         13    1    3    3    0    0 -0.15845152153E+02  0.31229300528E+02 -0.21138823771E+03  0.21426930780E+03  0.10566000000E+00 0. -1.
         13    1    4    4    0    0  0.42117112398E+01 -0.86215203016E+01 -0.18110880913E+03  0.18136284359E+03  0.10566000000E+00 0.  1.
        -13    1    4    4    0    0  0.26879438234E+01 -0.56714551421E+01 -0.13913433868E+03  0.13927586226E+03  0.10566000000E+00 0. -1.
        -14    1    4    4    0    0  0.89454970895E+01 -0.16936325084E+02 -0.38042880923E+03  0.38091067184E+03  0.00000000000E+00 0.  1.
<mgrwt>
<rscale>  0 0.82885860E+02</rscale>
<asrwt>0</asrwt>
<pdfrwt beam="1">  1        1 0.28911540E-03 0.82885860E+02</pdfrwt>
<pdfrwt beam="2">  1       -2 0.14060571E+00 0.82885860E+02</pdfrwt>
<totfact> 0.26346249E+04</totfact>
</mgrwt>
</event>
<event>
 8    1  0.7756875E-014  0.8069677E+02  0.7818608E-02  0.1327086E+00
         -2   -1    0    0    0  501 -0.00000000000E+00  0.00000000000E+00  0.65897855880E+01  0.65897860814E+01  0.25500000000E-02 0.  1.
          1   -1    0    0  501    0  0.00000000000E+00 -0.00000000000E+00 -0.24704783434E+03  0.24704783439E+03  0.50400000000E-02 0. -1.
        -24    2    1    2    0    0  0.00000000000E+00  0.35527136788E-14 -0.24045804875E+03  0.25363762047E+03  0.80696773848E+02 0.  0.
         66    2    3    3    0    0  0.24276807783E+02  0.21938450463E+02 -0.46234361645E+02  0.56676937081E+02  0.19999988205E+01 0.  0.
         13    1    3    3    0    0 -0.24276807783E+02 -0.21938450463E+02 -0.19422368711E+03  0.19696068339E+03  0.10566000000E+00 0. -1.
         13    1    4    4    0    0  0.43461900772E+01  0.40522673682E+01 -0.95044585273E+01  0.11209644729E+02  0.10566000000E+00 0. -1.
        -13    1    4    4    0    0  0.11098442672E+02  0.10590680852E+02 -0.21323004467E+02  0.26268224801E+02  0.10566000000E+00 0.  1.
        -14    1    4    4    0    0  0.88321750337E+01  0.72955022428E+01 -0.15406898650E+02  0.19199067551E+02  0.00000000000E+00 0.  1.
<mgrwt>
<rscale>  0 0.80696774E+02</rscale>
<asrwt>0</asrwt>
<pdfrwt beam="1">  1        1 0.38007352E-01 0.80696774E+02</pdfrwt>
<pdfrwt beam="2">  1       -2 0.10138134E-02 0.80696774E+02</pdfrwt>
<totfact> 0.16980888E+05</totfact>
</mgrwt>
</event>
<event>
 8    1  0.7756875E-014  0.8081734E+02  0.7818608E-02  0.1326748E+00
          1   -1    0    0  501    0  0.00000000000E+00  0.00000000000E+00  0.16796983055E+02  0.16796983811E+02  0.50400000000E-02 0. -1.
         -2   -1    0    0    0  501 -0.00000000000E+00 -0.00000000000E+00 -0.97211542590E+02  0.97211542623E+02  0.25500000000E-02 0.  1.
        -24    2    1    2    0    0  0.00000000000E+00 -0.13877787808E-16 -0.80414559535E+02  0.11400852643E+03  0.80817341671E+02 0.  0.
         66    2    3    3    0    0 -0.33908415963E+02 -0.68935198959E-01 -0.92906432210E+01  0.35215074543E+02  0.19999996135E+01 0.  0.
         13    1    3    3    0    0  0.33908415963E+02  0.68935198959E-01 -0.71123916314E+02  0.78793451892E+02  0.10566000000E+00 0. -1.
         13    1    4    4    0    0 -0.12314471355E+01 -0.18338141207E+00 -0.13851029525E+00  0.12571554905E+01  0.10566000000E+00 0. -1.
        -13    1    4    4    0    0 -0.13796592123E+02 -0.15684571765E+00 -0.44680672000E+01  0.14503287328E+02  0.10566000000E+00 0.  1.
         14    1    4    4    0    0 -0.18880376705E+02  0.27129193076E+00 -0.46840657257E+01  0.19454631725E+02  0.00000000000E+00 0. -1.
<mgrwt>
<rscale>  0 0.80817342E+02</rscale>
<asrwt>0</asrwt>
<pdfrwt beam="1">  1        1 0.25841514E-02 0.80817342E+02</pdfrwt>
<pdfrwt beam="2">  1       -2 0.14955622E-01 0.80817342E+02</pdfrwt>
<totfact> 0.10412529E+05</totfact>
</mgrwt>
</event>
<event>
 8    1  0.7756875E-014  0.7895735E+02  0.7818608E-02  0.1332037E+00
         -2   -1    0    0    0  501 -0.00000000000E+00  0.00000000000E+00  0.29090260160E+02  0.29090260271E+02  0.25500000000E-02 0.  1.
          1   -1    0    0  501    0  0.00000000000E+00 -0.00000000000E+00 -0.53576889055E+02  0.53576889292E+02  0.50400000000E-02 0. -1.
        -24    2    1    2    0    0  0.00000000000E+00  0.00000000000E+00 -0.24486628896E+02  0.82667149564E+02  0.78957346855E+02 0.  0.
         66    2    3    3    0    0  0.35224590666E+02  0.32647337132E+01  0.60375665390E+01  0.35942766799E+02  0.20000004201E+01 0.  0.
         13    1    3    3    0    0 -0.35224590666E+02 -0.32647337132E+01 -0.30524195435E+02  0.46724382765E+02  0.10566000000E+00 0. -1.
         13    1    4    4    0    0  0.24293781076E+02  0.15104443542E+01  0.42745094084E+01  0.24713393855E+02  0.10566000000E+00 0. -1.
        -13    1    4    4    0    0  0.53363028762E+01  0.73888991775E+00  0.55701501685E+00  0.54169656138E+01  0.10566000000E+00 0.  1.
         14    1    4    4    0    0  0.55945067135E+01  0.10153994412E+01  0.12060421138E+01  0.58124073303E+01  0.00000000000E+00 0. -1.
<mgrwt>
<rscale>  0 0.78957347E+02</rscale>
<asrwt>0</asrwt>
<pdfrwt beam="1">  1        1 0.82425984E-02 0.78957347E+02</pdfrwt>
<pdfrwt beam="2">  1       -2 0.44754247E-02 0.78957347E+02</pdfrwt>
<totfact> 0.13792573E+05</totfact>
</mgrwt>
</event>
<event>
 8    1  0.7756875E-014  0.7909966E+02  0.7818608E-02  0.1331626E+00
         -2   -1    0    0    0  501 -0.00000000000E+00  0.00000000000E+00  0.13729813626E+02  0.13729813863E+02  0.25500000000E-02 0.  1.
          1   -1    0    0  501    0  0.00000000000E+00 -0.00000000000E+00 -0.11392645814E+03  0.11392645825E+03  0.50400000000E-02 0. -1.
        -24    2    1    2    0    0  0.00000000000E+00  0.00000000000E+00 -0.10019664451E+03  0.12765627211E+03  0.79099660163E+02 0.  0.
         66    2    3    3    0    0 -0.85401313787E+01 -0.35408765823E+02 -0.74895067095E+02  0.83306576228E+02  0.20000066542E+01 0.  0.
         13    1    3    3    0    0  0.85401313787E+01  0.35408765823E+02 -0.25301577414E+02  0.44349695881E+02  0.10566000000E+00 0. -1.
         13    1    4    4    0    0 -0.10450573846E+01 -0.35214518456E+01 -0.88800736395E+01  0.96103922873E+01  0.10566000000E+00 0. -1.
        -13    1    4    4    0    0 -0.72192862355E+01 -0.30969615546E+02 -0.64157824309E+02  0.71606373773E+02  0.10566000000E+00 0.  1.
        -14    1    4    4    0    0 -0.27578775863E+00 -0.91769843170E+00 -0.18571691466E+01  0.20898101680E+01  0.00000000000E+00 0.  1.
<mgrwt>
<rscale>  0 0.79099660E+02</rscale>
<asrwt>0</asrwt>
<pdfrwt beam="1">  1        1 0.17527147E-01 0.79099660E+02</pdfrwt>
<pdfrwt beam="2">  1       -2 0.21122791E-02 0.79099660E+02</pdfrwt>
<totfact> 0.15494437E+05</totfact>
</mgrwt>
</event>
<event>
 8    1  0.7756875E-014  0.7909574E+02  0.7818608E-02  0.1331637E+00
          1   -1    0    0  501    0  0.00000000000E+00  0.00000000000E+00  0.42418801020E+02  0.42418801319E+02  0.50400000000E-02 0. -1.
         -2   -1    0    0    0  501 -0.00000000000E+00 -0.00000000000E+00 -0.36871246779E+02  0.36871246868E+02  0.25500000000E-02 0.  1.
        -24    2    1    2    0    0  0.00000000000E+00  0.00000000000E+00  0.55475542405E+01  0.79290048187E+02  0.79095741879E+02 0.  0.
         66    2    3    3    0    0  0.50927642070E+01 -0.21663211746E+02 -0.29966567590E+02  0.37379488612E+02  0.20000013243E+01 0.  0.
         13    1    3    3    0    0 -0.50927642070E+01  0.21663211746E+02  0.35514121831E+02  0.41910559575E+02  0.10566000000E+00 0. -1.
         13    1    4    4    0    0  0.17987141071E+01 -0.46768200601E+01 -0.62553575545E+01  0.80155274613E+01  0.10566000000E+00 0. -1.
        -13    1    4    4    0    0  0.16294333549E+01 -0.74804228239E+01 -0.99070935611E+01  0.12520920315E+02  0.10566000000E+00 0.  1.
         14    1    4    4    0    0  0.16646167450E+01 -0.95059688623E+01 -0.13804116475E+02  0.16843040835E+02  0.00000000000E+00 0. -1.
<mgrwt>
<rscale>  0 0.79095742E+02</rscale>
<asrwt>0</asrwt>
<pdfrwt beam="1">  1        1 0.65259694E-02 0.79095742E+02</pdfrwt>
<pdfrwt beam="2">  1       -2 0.56724996E-02 0.79095742E+02</pdfrwt>
<totfact> 0.13233605E+05</totfact>
</mgrwt>
</event>
<event>
 8    1  0.7756875E-014  0.8149064E+02  0.7818608E-02  0.1324874E+00
         -2   -1    0    0    0  501 -0.00000000000E+00  0.00000000000E+00  0.88491727254E+02  0.88491727291E+02  0.25500000000E-02 0.  1.
          1   -1    0    0  501    0  0.00000000000E+00 -0.00000000000E+00 -0.18760861786E+02  0.18760862463E+02  0.50400000000E-02 0. -1.
        -24    2    1    2    0    0  0.00000000000E+00  0.00000000000E+00  0.69730865469E+02  0.10725258975E+03  0.81490640014E+02 0.  0.
         66    2    3    3    0    0  0.20398556166E+02  0.31443070471E+02  0.55837652929E+02  0.67280095548E+02  0.19999995117E+01 0.  0.
         13    1    3    3    0    0 -0.20398556166E+02 -0.31443070471E+02  0.13893212540E+02  0.39972494205E+02  0.10566000000E+00 0. -1.
         13    1    4    4    0    0  0.68980892553E+01  0.11810257046E+02  0.20065202212E+02  0.24283519323E+02  0.10566000000E+00 0. -1.
        -13    1    4    4    0    0  0.37530484818E+01  0.49282454401E+01  0.85954661795E+01  0.10595573552E+02  0.10566000000E+00 0.  1.
        -14    1    4    4    0    0  0.97474184286E+01  0.14704567985E+02  0.27176984538E+02  0.32401002673E+02  0.00000000000E+00 0.  1.
<mgrwt>
<rscale>  0 0.81490640E+02</rscale>
<asrwt>0</asrwt>
<pdfrwt beam="1">  1        1 0.28862866E-02 0.81490640E+02</pdfrwt>
<pdfrwt beam="2">  1       -2 0.13614112E-01 0.81490640E+02</pdfrwt>
<totfact> 0.10424131E+05</totfact>
</mgrwt>
</event>
<event>
 8    1  0.7756875E-014  0.8047469E+02  0.7818608E-02  0.1327710E+00
         -2   -1    0    0    0  501 -0.00000000000E+00  0.00000000000E+00  0.85845782886E+01  0.85845786673E+01  0.25500000000E-02 0.  1.
          1   -1    0    0  501    0  0.00000000000E+00 -0.00000000000E+00 -0.18859910799E+03  0.18859910806E+03  0.50400000000E-02 0. -1.
        -24    2    1    2    0    0  0.00000000000E+00  0.00000000000E+00 -0.18001452970E+03  0.19718368673E+03  0.80474687988E+02 0.  0.
         66    2    3    3    0    0 -0.35514467967E+02 -0.18335223850E+02 -0.79220208740E+02  0.88754151216E+02  0.20000041374E+01 0.  0.
         13    1    3    3    0    0  0.35514467967E+02  0.18335223850E+02 -0.10079432096E+03  0.10842953551E+03  0.10566000000E+00 0. -1.
         13    1    4    4    0    0 -0.56854694928E+01 -0.36160411475E+01 -0.13089134169E+02  0.14721987443E+02  0.10566000000E+00 0. -1.
        -13    1    4    4    0    0 -0.14821216144E+02 -0.72608783007E+01 -0.31707726464E+02  0.35746047099E+02  0.10566000000E+00 0.  1.
        -14    1    4    4    0    0 -0.15007782330E+02 -0.74583044019E+01 -0.34423348107E+02  0.38286116673E+02  0.00000000000E+00 0.  1.
<mgrwt>
<rscale>  0 0.80474688E+02</rscale>
<asrwt>0</asrwt>
<pdfrwt beam="1">  1        1 0.29015244E-01 0.80474688E+02</pdfrwt>
<pdfrwt beam="2">  1       -2 0.13207045E-02 0.80474688E+02</pdfrwt>
<totfact> 0.16228331E+05</totfact>
</mgrwt>
</event>
<event>
 8    1  0.7756875E-014  0.8089101E+02  0.7818608E-02  0.1326542E+00
         -2   -1    0    0    0  501 -0.00000000000E+00  0.00000000000E+00  0.10505403486E+03  0.10505403489E+03  0.25500000000E-02 0.  1.
          1   -1    0    0  501    0  0.00000000000E+00 -0.00000000000E+00 -0.15571405635E+02  0.15571406451E+02  0.50400000000E-02 0. -1.
        -24    2    1    2    0    0  0.00000000000E+00  0.00000000000E+00  0.89482629226E+02  0.12062544134E+03  0.80891014123E+02 0.  0.
         66    2    3    3    0    0  0.43716320996E+01 -0.15050180703E+02  0.10032919773E+03  0.10156557988E+03  0.19999982538E+01 0.  0.
         13    1    3    3    0    0 -0.43716320996E+01  0.15050180703E+02 -0.10846568507E+02  0.19059861459E+02  0.10566000000E+00 0. -1.
         13    1    4    4    0    0  0.18024217478E+01 -0.60336528065E+01  0.36239244586E+02  0.36782437420E+02  0.10566000000E+00 0. -1.
        -13    1    4    4    0    0  0.16797825814E+01 -0.74779476793E+01  0.53120311874E+02  0.53670476694E+02  0.10566000000E+00 0.  1.
         14    1    4    4    0    0  0.88942777041E+00 -0.15385802174E+01  0.10969641274E+02  0.11112665770E+02  0.00000000000E+00 0. -1.
<mgrwt>
<rscale>  0 0.80891014E+02</rscale>
<asrwt>0</asrwt>
<pdfrwt beam="1">  1        1 0.23956010E-02 0.80891014E+02</pdfrwt>
<pdfrwt beam="2">  1       -2 0.16162159E-01 0.80891014E+02</pdfrwt>
<totfact> 0.10188300E+05</totfact>
</mgrwt>
</event>
<event>
 8    1  0.7756875E-014  0.7998154E+02  0.7818608E-02  0.1329104E+00
         -2   -1    0    0    0  501 -0.00000000000E+00  0.00000000000E+00  0.17236641718E+02  0.17236641907E+02  0.25500000000E-02 0.  1.
          1   -1    0    0  501    0  0.00000000000E+00 -0.00000000000E+00 -0.92782667435E+02  0.92782667572E+02  0.50400000000E-02 0. -1.
        -24    2    1    2    0    0  0.00000000000E+00  0.00000000000E+00 -0.75546025717E+02  0.11001930948E+03  0.79981538224E+02 0.  0.
         66    2    3    3    0    0  0.39160449833E+02 -0.45545300912E+01 -0.28779352885E+02  0.48852182464E+02  0.20000008890E+01 0.  0.
         13    1    3    3    0    0 -0.39160449833E+02  0.45545300912E+01 -0.46766672833E+02  0.61167127015E+02  0.10566000000E+00 0. -1.
         13    1    4    4    0    0  0.92894127008E+01 -0.61255060069E+00 -0.60464505080E+01  0.11101312280E+02  0.10566000000E+00 0. -1.
        -13    1    4    4    0    0  0.12423132642E+02 -0.14078311047E+01 -0.91055721224E+01  0.15467346921E+02  0.10566000000E+00 0.  1.
         14    1    4    4    0    0  0.17447904490E+02 -0.25341483859E+01 -0.13627330254E+02  0.22283523263E+02  0.00000000000E+00 0. -1.
<mgrwt>
<rscale>  0 0.79981538E+02</rscale>
<asrwt>0</asrwt>
<pdfrwt beam="1">  1        1 0.14274256E-01 0.79981538E+02</pdfrwt>
<pdfrwt beam="2">  1       -2 0.26517911E-02 0.79981538E+02</pdfrwt>
<totfact> 0.14525599E+05</totfact>
</mgrwt>
</event>
<event>
 8    1  0.7756875E-014  0.8142341E+02  0.7818608E-02  0.1325060E+00
          1   -1    0    0  501    0  0.00000000000E+00  0.00000000000E+00  0.24772342792E+02  0.24772343305E+02  0.50400000000E-02 0. -1.
         -2   -1    0    0    0  501 -0.00000000000E+00 -0.00000000000E+00 -0.66906987733E+02  0.66906987782E+02  0.25500000000E-02 0.  1.
        -24    2    1    2    0    0  0.35527136788E-14  0.00000000000E+00 -0.42134644941E+02  0.91679331087E+02  0.81423408453E+02 0.  0.
         66    2    3    3    0    0  0.21339354468E+02  0.28909170953E+02 -0.42571631226E+02  0.55744524348E+02  0.19999988056E+01 0.  0.
         13    1    3    3    0    0 -0.21339354468E+02 -0.28909170953E+02  0.43698628444E+00  0.35934806739E+02  0.10566000000E+00 0. -1.
         13    1    4    4    0    0  0.75353519526E+01  0.99094621755E+01 -0.15585575068E+02  0.19947438029E+02  0.10566000000E+00 0. -1.
        -13    1    4    4    0    0  0.43135046710E+01  0.62710628444E+01 -0.96108150932E+01  0.12260158341E+02  0.10566000000E+00 0.  1.
         14    1    4    4    0    0  0.94904978446E+01  0.12728645933E+02 -0.17375241064E+02  0.23536927979E+02  0.00000000000E+00 0. -1.
<mgrwt>
<rscale>  0 0.81423408E+02</rscale>
<asrwt>0</asrwt>
<pdfrwt beam="1">  1        1 0.38111297E-02 0.81423408E+02</pdfrwt>
<pdfrwt beam="2">  1       -2 0.10293383E-01 0.81423408E+02</pdfrwt>
<totfact> 0.11087274E+05</totfact>
</mgrwt>
</event>
<event>
 8    1  0.7756875E-014  0.8064526E+02  0.7818608E-02  0.1327230E+00
         -2   -1    0    0    0  501 -0.00000000000E+00  0.00000000000E+00  0.55699199048E+01  0.55699204885E+01  0.25500000000E-02 0.  1.
          1   -1    0    0  501    0  0.00000000000E+00 -0.00000000000E+00 -0.29190981939E+03  0.29190981943E+03  0.50400000000E-02 0. -1.
        -24    2    1    2    0    0  0.00000000000E+00  0.35527136788E-14 -0.28633989948E+03  0.29747973992E+03  0.80645257931E+02 0.  0.
         66    2    3    3    0    0  0.12697643905E+02 -0.31197124963E+02 -0.22486314418E+03  0.22738057178E+03  0.20000119127E+01 0.  0.
         13    1    3    3    0    0 -0.12697643905E+02  0.31197124963E+02 -0.61476755304E+02  0.70099168137E+02  0.10566000000E+00 0. -1.
         13    1    4    4    0    0  0.21838999258E+01 -0.48190412275E+01 -0.35604077285E+02  0.35995194965E+02  0.10566000000E+00 0. -1.
        -13    1    4    4    0    0  0.15568371491E+01 -0.36909292292E+01 -0.22956715866E+02  0.23303833759E+02  0.10566000000E+00 0.  1.
        -14    1    4    4    0    0  0.89569068304E+01 -0.22687154506E+02 -0.16630235103E+03  0.16808154306E+03  0.00000000000E+00 0.  1.
<mgrwt>
<rscale>  0 0.80645258E+02</rscale>
<asrwt>0</asrwt>
<pdfrwt beam="1">  1        1 0.44909191E-01 0.80645258E+02</pdfrwt>
<pdfrwt beam="2">  1       -2 0.85691103E-03 0.80645258E+02</pdfrwt>
<totfact> 0.17571186E+05</totfact>
</mgrwt>
</event>
<event>
 8    1  0.7756875E-014  0.7899965E+02  0.7818608E-02  0.1331914E+00
          1   -1    0    0  501    0  0.00000000000E+00  0.00000000000E+00  0.51246143856E+02  0.51246144104E+02  0.50400000000E-02 0. -1.
         -2   -1    0    0    0  501 -0.00000000000E+00 -0.00000000000E+00 -0.30445923055E+02  0.30445923162E+02  0.25500000000E-02 0.  1.
        -24    2    1    2    0    0  0.17763568394E-14 -0.35527136788E-14  0.20800220801E+02  0.81692067266E+02  0.78999649801E+02 0.  0.
         66    2    3    3    0    0 -0.66667209220E+01  0.18783685518E+02 -0.24827344016E+02  0.31900925035E+02  0.19999994291E+01 0.  0.
         13    1    3    3    0    0  0.66667209220E+01 -0.18783685518E+02  0.45627564817E+02  0.49791142231E+02  0.10566000000E+00 0. -1.
         13    1    4    4    0    0 -0.30053092145E-01  0.51151234634E+00 -0.69215920275E+00  0.86763844218E+00  0.10566000000E+00 0.  1.
        -13    1    4    4    0    0 -0.15483942057E+01  0.32534967084E+01 -0.36776453722E+01  0.51496606652E+01  0.10566000000E+00 0.  1.
         14    1    4    4    0    0 -0.50882736241E+01  0.15018676463E+02 -0.20457539441E+02  0.25883625927E+02  0.00000000000E+00 0. -1.
<mgrwt>
<rscale>  0 0.78999650E+02</rscale>
<asrwt>0</asrwt>
<pdfrwt beam="1">  1        1 0.78840221E-02 0.78999650E+02</pdfrwt>
<pdfrwt beam="2">  1       -2 0.46839882E-02 0.78999650E+02</pdfrwt>
<totfact> 0.13677478E+05</totfact>
</mgrwt>
</event>
<event>
 8    1  0.7756875E-014  0.7925255E+02  0.7818608E-02  0.1331186E+00
          1   -1    0    0  501    0  0.00000000000E+00  0.00000000000E+00  0.24755426241E+01  0.24755477547E+01  0.50400000000E-02 0. -1.
         -2   -1    0    0    0  501 -0.00000000000E+00 -0.00000000000E+00 -0.63430139271E+03  0.63430139271E+03  0.25500000000E-02 0.  1.
        -24    2    1    2    0    0 -0.44408920985E-15  0.00000000000E+00 -0.63182585008E+03  0.63677694047E+03  0.79252552497E+02 0.  0.
         66    2    3    3    0    0  0.30503987732E+01 -0.27715395162E+02 -0.54205937191E+03  0.54277970737E+03  0.19999997585E+01 0.  0.
         13    1    3    3    0    0 -0.30503987732E+01  0.27715395162E+02 -0.89766478172E+02  0.93997233093E+02  0.10566000000E+00 0. -1.
         13    1    4    4    0    0  0.47018490141E-01 -0.27068788186E+00 -0.85520202542E+01  0.85570846163E+01  0.10566000000E+00 0.  1.
        -13    1    4    4    0    0  0.29213088711E+01 -0.24047676288E+02 -0.47301510593E+03  0.47363501389E+03  0.10566000000E+00 0.  1.
        -14    1    4    4    0    0  0.82071411915E-01 -0.33970309922E+01 -0.60492245722E+02  0.60587608864E+02  0.00000000000E+00 0.  1.
<mgrwt>
<rscale>  0 0.79252552E+02</rscale>
<asrwt>0</asrwt>
<pdfrwt beam="1">  1        1 0.38085361E-03 0.79252552E+02</pdfrwt>
<pdfrwt beam="2">  1       -2 0.97584701E-01 0.79252552E+02</pdfrwt>
<totfact> 0.42430405E+04</totfact>
</mgrwt>
</event>
<event>
 8    1  0.7756875E-014  0.8106852E+02  0.7818608E-02  0.1326046E+00
          1   -1    0    0  501    0  0.00000000000E+00  0.00000000000E+00  0.10915574602E+03  0.10915574614E+03  0.50400000000E-02 0. -1.
         -2   -1    0    0    0  501 -0.00000000000E+00 -0.00000000000E+00 -0.15052126946E+02  0.15052127162E+02  0.25500000000E-02 0.  1.
        -24    2    1    2    0    0  0.71054273576E-14 -0.88817841970E-15  0.94103619078E+02  0.12420787330E+03  0.81068518345E+02 0.  0.
         66    2    3    3    0    0 -0.37480443896E+02  0.62718228598E+01  0.25581199810E+02  0.45853214582E+02  0.20000167974E+01 0.  0.
         13    1    3    3    0    0  0.37480443896E+02 -0.62718228598E+01  0.68522419268E+02  0.78354658720E+02  0.10566000000E+00 0. -1.
         13    1    4    4    0    0 -0.22274002438E+02  0.31907274331E+01  0.15852095568E+02  0.27524752934E+02  0.10566000000E+00 0. -1.
        -13    1    4    4    0    0 -0.69851183453E+01  0.11495570518E+01  0.41433068743E+01  0.82031405939E+01  0.10566000000E+00 0.  1.
         14    1    4    4    0    0 -0.82213231130E+01  0.19315383749E+01  0.55857973678E+01  0.10125321054E+02  0.00000000000E+00 0. -1.
<mgrwt>
<rscale>  0 0.81068518E+02</rscale>
<asrwt>0</asrwt>
<pdfrwt beam="1">  1        1 0.16793191E-01 0.81068518E+02</pdfrwt>
<pdfrwt beam="2">  1       -2 0.23157119E-02 0.81068518E+02</pdfrwt>
<totfact> 0.14394869E+05</totfact>
</mgrwt>
</event>
<event>
 8    1  0.7756875E-014  0.7952972E+02  0.7818608E-02  0.1330391E+00
         -2   -1    0    0    0  501 -0.00000000000E+00  0.00000000000E+00  0.98823070820E+02  0.98823070853E+02  0.25500000000E-02 0.  1.
          1   -1    0    0  501    0  0.00000000000E+00 -0.00000000000E+00 -0.16000756510E+02  0.16000757304E+02  0.50400000000E-02 0. -1.
        -24    2    1    2    0    0  0.00000000000E+00  0.00000000000E+00  0.82822314310E+02  0.11482382816E+03  0.79529716239E+02 0.  0.
         66    2    3    3    0    0 -0.19064252883E+02 -0.55029317878E+01  0.91148602888E+02  0.93304854162E+02  0.20000013692E+01 0.  0.
         13    1    3    3    0    0  0.19064252883E+02  0.55029317878E+01 -0.83262885786E+01  0.21518973995E+02  0.10566000000E+00 0. -1.
         13    1    4    4    0    0 -0.67524616192E+01 -0.20408877502E+01  0.30192695126E+02  0.31005982709E+02  0.10566000000E+00 0. -1.
        -13    1    4    4    0    0 -0.10525884391E+02 -0.26398729009E+01  0.53380619746E+02  0.54472606874E+02  0.10566000000E+00 0.  1.
        -14    1    4    4    0    0 -0.17859068736E+01 -0.82217113659E+00  0.75752880165E+01  0.78262645797E+01  0.00000000000E+00 0.  1.
<mgrwt>
<rscale>  0 0.79529716E+02</rscale>
<asrwt>0</asrwt>
<pdfrwt beam="1">  1        1 0.24616549E-02 0.79529716E+02</pdfrwt>
<pdfrwt beam="2">  1       -2 0.15203549E-01 0.79529716E+02</pdfrwt>
<totfact> 0.10805694E+05</totfact>
</mgrwt>
</event>
<event>
 8    1  0.7756875E-014  0.8084790E+02  0.7818608E-02  0.1326662E+00
          1   -1    0    0  501    0  0.00000000000E+00  0.00000000000E+00  0.15247784274E+03  0.15247784282E+03  0.50400000000E-02 0. -1.
         -2   -1    0    0    0  501 -0.00000000000E+00 -0.00000000000E+00 -0.10716939635E+02  0.10716939939E+02  0.25500000000E-02 0.  1.
        -24    2    1    2    0    0 -0.35527136788E-14  0.00000000000E+00  0.14176090310E+03  0.16319478276E+03  0.80847903323E+02 0.  0.
         66    2    3    3    0    0  0.27787806927E+02 -0.29235847028E+02  0.75524004702E+02  0.85643284779E+02  0.19999940824E+01 0.  0.
         13    1    3    3    0    0 -0.27787806927E+02  0.29235847028E+02  0.66236898401E+02  0.77551497981E+02  0.10566000000E+00 0. -1.
         13    1    4    4    0    0  0.13313179697E+02 -0.14405026954E+02  0.38643112432E+02  0.43336437990E+02  0.10566000000E+00 0. -1.
        -13    1    4    4    0    0  0.67773463941E+01 -0.70776974897E+01  0.17824172493E+02  0.20340563291E+02  0.10566000000E+00 0.  1.
         14    1    4    4    0    0  0.76972808362E+01 -0.77531225844E+01  0.19056719776E+02  0.21966283498E+02  0.00000000000E+00 0. -1.
<mgrwt>
<rscale>  0 0.80847903E+02</rscale>
<asrwt>0</asrwt>
<pdfrwt beam="1">  1        1 0.23458128E-01 0.80847903E+02</pdfrwt>
<pdfrwt beam="2">  1       -2 0.16487601E-02 0.80847903E+02</pdfrwt>
<totfact> 0.15396317E+05</totfact>
</mgrwt>
</event>
<event>
 8    1  0.7756875E-014  0.7597427E+02  0.7818608E-02  0.1340880E+00
         -2   -1    0    0    0  501 -0.00000000000E+00  0.00000000000E+00  0.90275952733E+01  0.90275956334E+01  0.25500000000E-02 0.  1.
          1   -1    0    0  501    0  0.00000000000E+00 -0.00000000000E+00 -0.15984571243E+03  0.15984571251E+03  0.50400000000E-02 0. -1.
        -24    2    1    2    0    0  0.00000000000E+00 -0.27755575616E-16 -0.15081811715E+03  0.16887330814E+03  0.75974270252E+02 0.  0.
         66    2    3    3    0    0  0.37655545761E+02  0.13639498339E+00 -0.64787520964E+02  0.74962534664E+02  0.20000000926E+01 0.  0.
         13    1    3    3    0    0 -0.37655545761E+02 -0.13639498339E+00 -0.86030596188E+02  0.93910773475E+02  0.10566000000E+00 0. -1.
         13    1    4    4    0    0  0.18420551635E+02 -0.13627821190E+00 -0.33015047501E+02  0.37806610795E+02  0.10566000000E+00 0. -1.
        -13    1    4    4    0    0  0.84174414713E+01 -0.66177218645E-01 -0.14786670279E+02  0.17015125104E+02  0.10566000000E+00 0.  1.
        -14    1    4    4    0    0  0.10817552655E+02  0.33885041393E+00 -0.16985803185E+02  0.20140798765E+02  0.00000000000E+00 0.  1.
<mgrwt>
<rscale>  0 0.75974270E+02</rscale>
<asrwt>0</asrwt>
<pdfrwt beam="1">  1        1 0.24591646E-01 0.75974270E+02</pdfrwt>
<pdfrwt beam="2">  1       -2 0.13888610E-02 0.75974270E+02</pdfrwt>
<totfact> 0.18327962E+05</totfact>
</mgrwt>
</event>
<event>
 8    1  0.7756875E-014  0.7985384E+02  0.7818608E-02  0.1329467E+00
          1   -1    0    0  501    0  0.00000000000E+00  0.00000000000E+00  0.15749634107E+02  0.15749634913E+02  0.50400000000E-02 0. -1.
         -2   -1    0    0    0  501 -0.00000000000E+00 -0.00000000000E+00 -0.10121878999E+03  0.10121879002E+03  0.25500000000E-02 0.  1.
        -24    2    1    2    0    0  0.00000000000E+00  0.00000000000E+00 -0.85469155880E+02  0.11696842493E+03  0.79853840385E+02 0.  0.
         66    2    3    3    0    0 -0.11764888170E+02 -0.33714774076E+02 -0.68843281922E+02  0.77578966525E+02  0.19999991635E+01 0.  0.
         13    1    3    3    0    0  0.11764888170E+02  0.33714774076E+02 -0.16625873957E+02  0.39389458406E+02  0.10566000000E+00 0. -1.
         13    1    4    4    0    0 -0.88665766995E-01 -0.64218530150E+00 -0.14869488891E+01  0.16255597848E+01  0.10566000000E+00 0.  1.
        -13    1    4    4    0    0 -0.71709410959E+01 -0.20713715330E+02 -0.40669161494E+02  0.46200349129E+02  0.10566000000E+00 0.  1.
        -14    1    4    4    0    0 -0.45052813069E+01 -0.12358873444E+02 -0.26687171539E+02  0.29753057611E+02  0.00000000000E+00 0.  1.
<mgrwt>
<rscale>  0 0.79853840E+02</rscale>
<asrwt>0</asrwt>
<pdfrwt beam="1">  1        1 0.24230208E-02 0.79853840E+02</pdfrwt>
<pdfrwt beam="2">  1       -2 0.15572121E-01 0.79853840E+02</pdfrwt>
<totfact> 0.10630427E+05</totfact>
</mgrwt>
</event>
<event>
 8    1  0.7756875E-014  0.7519636E+02  0.7818608E-02  0.1343264E+00
         -2   -1    0    0    0  501 -0.00000000000E+00  0.00000000000E+00  0.18980328881E+03  0.18980328883E+03  0.25500000000E-02 0.  1.
          1   -1    0    0  501    0  0.00000000000E+00 -0.00000000000E+00 -0.74478320512E+01  0.74478337565E+01  0.50400000000E-02 0. -1.
        -24    2    1    2    0    0 -0.71054273576E-14  0.17763568394E-14  0.18235545676E+03  0.19725112258E+03  0.75196361287E+02 0.  0.
         66    2    3    3    0    0  0.35686463831E+02 -0.87254978445E+01  0.11189011420E+03  0.11778393641E+03  0.20000014149E+01 0.  0.
         13    1    3    3    0    0 -0.35686463831E+02  0.87254978445E+01  0.70465342555E+02  0.79467186176E+02  0.10566000000E+00 0. -1.
         13    1    4    4    0    0  0.11286784970E+02 -0.30930633180E+01  0.38016494425E+02  0.39777173957E+02  0.10566000000E+00 0. -1.
        -13    1    4    4    0    0  0.17756263610E+02 -0.42194251386E+01  0.54885097913E+02  0.57840069008E+02  0.10566000000E+00 0.  1.
         14    1    4    4    0    0  0.66434152501E+01 -0.14130093879E+01  0.18988521864E+02  0.20166693440E+02  0.00000000000E+00 0. -1.
<mgrwt>
<rscale>  0 0.75196361E+02</rscale>
<asrwt>0</asrwt>
<pdfrwt beam="1">  1        1 0.11458205E-02 0.75196361E+02</pdfrwt>
<pdfrwt beam="2">  1       -2 0.29200505E-01 0.75196361E+02</pdfrwt>
<totfact> 0.10187330E+05</totfact>
</mgrwt>
</event>
<event>
 8    1  0.7756875E-014  0.7884566E+02  0.7818608E-02  0.1332360E+00
          1   -1    0    0  501    0  0.00000000000E+00  0.00000000000E+00  0.10819634863E+02  0.10819636037E+02  0.50400000000E-02 0. -1.
         -2   -1    0    0    0  501 -0.00000000000E+00 -0.00000000000E+00 -0.14364248714E+03  0.14364248716E+03  0.25500000000E-02 0.  1.
        -24    2    1    2    0    0  0.71054273576E-14  0.35527136788E-14 -0.13282285227E+03  0.15446212320E+03  0.78845655659E+02 0.  0.
         66    2    3    3    0    0 -0.28263133186E+02 -0.17928758746E+02 -0.10716773323E+03  0.11229055239E+03  0.20000052464E+01 0.  0.
         13    1    3    3    0    0  0.28263133186E+02  0.17928758746E+02 -0.25655119040E+02  0.42171570811E+02  0.10566000000E+00 0. -1.
         13    1    4    4    0    0 -0.12229847103E+02 -0.88428456272E+01 -0.47879161376E+02  0.50201497359E+02  0.10566000000E+00 0. -1.
        -13    1    4    4    0    0 -0.12839209288E+02 -0.75121399409E+01 -0.47975351182E+02  0.50228707197E+02  0.10566000000E+00 0.  1.
         14    1    4    4    0    0 -0.31940767952E+01 -0.15737731783E+01 -0.11313220676E+02  0.11860347830E+02  0.00000000000E+00 0. -1.
<mgrwt>
<rscale>  0 0.78845656E+02</rscale>
<asrwt>0</asrwt>
<pdfrwt beam="1">  1        1 0.16645594E-02 0.78845656E+02</pdfrwt>
<pdfrwt beam="2">  1       -2 0.22098843E-01 0.78845656E+02</pdfrwt>
<totfact> 0.99493999E+04</totfact>
</mgrwt>
</event>
<event>
 8    1  0.7756875E-014  0.7772252E+02  0.7818608E-02  0.1335642E+00
          1   -1    0    0  501    0  0.00000000000E+00  0.00000000000E+00  0.48510980766E+02  0.48510981028E+02  0.50400000000E-02 0. -1.
         -2   -1    0    0    0  501 -0.00000000000E+00 -0.00000000000E+00 -0.31131041580E+02  0.31131041684E+02  0.25500000000E-02 0.  1.
        -24    2    1    2    0    0  0.00000000000E+00  0.00000000000E+00  0.17379939187E+02  0.79642022712E+02  0.77722516014E+02 0.  0.
         66    2    3    3    0    0 -0.12732440409E+02 -0.34102586924E+02 -0.51695805193E+01  0.36821543071E+02  0.19999994147E+01 0.  0.
         13    1    3    3    0    0  0.12732440409E+02  0.34102586924E+02  0.22549519706E+02  0.42820479641E+02  0.10566000000E+00 0. -1.
         13    1    4    4    0    0 -0.44231234308E+01 -0.97437471393E+01 -0.18443217115E+01  0.10858973976E+02  0.10566000000E+00 0. -1.
        -13    1    4    4    0    0 -0.40686806520E+01 -0.12283150834E+02 -0.20369793958E+01  0.13099252106E+02  0.10566000000E+00 0.  1.
         14    1    4    4    0    0 -0.42406363265E+01 -0.12075688951E+02 -0.12882794120E+01  0.12863316988E+02  0.00000000000E+00 0. -1.
<mgrwt>
<rscale>  0 0.77722516E+02</rscale>
<asrwt>0</asrwt>
<pdfrwt beam="1">  1        1 0.74632278E-02 0.77722516E+02</pdfrwt>
<pdfrwt beam="2">  1       -2 0.47893911E-02 0.77722516E+02</pdfrwt>
<totfact> 0.14189025E+05</totfact>
</mgrwt>
</event>
<event>
 8    1  0.7756875E-014  0.7988863E+02  0.7818608E-02  0.1329368E+00
         -2   -1    0    0    0  501 -0.00000000000E+00  0.00000000000E+00  0.22419189246E+03  0.22419189247E+03  0.25500000000E-02 0.  1.
          1   -1    0    0  501    0  0.00000000000E+00 -0.00000000000E+00 -0.71168851173E+01  0.71168869019E+01  0.50400000000E-02 0. -1.
        -24    2    1    2    0    0  0.00000000000E+00  0.00000000000E+00  0.21707500734E+03  0.23130877937E+03  0.79888626247E+02 0.  0.
         66    2    3    3    0    0 -0.30788277406E+02  0.25386962107E+02  0.10553114800E+03  0.11284165486E+03  0.20000005111E+01 0.  0.
         13    1    3    3    0    0  0.30788277406E+02 -0.25386962107E+02  0.11154385934E+03  0.11846712452E+03  0.10566000000E+00 0. -1.
         13    1    4    4    0    0 -0.87826455169E+01  0.77890295955E+01  0.31529414239E+02  0.33644003487E+02  0.10566000000E+00 0. -1.
        -13    1    4    4    0    0 -0.16099774219E+02  0.13425574654E+02  0.56278605990E+02  0.60056152399E+02  0.10566000000E+00 0.  1.
        -14    1    4    4    0    0 -0.59058576705E+01  0.41723578583E+01  0.17723127771E+02  0.19141498972E+02  0.00000000000E+00 0.  1.
<mgrwt>
<rscale>  0 0.79888626E+02</rscale>
<asrwt>0</asrwt>
<pdfrwt beam="1">  1        1 0.10949058E-02 0.79888626E+02</pdfrwt>
<pdfrwt beam="2">  1       -2 0.34491053E-01 0.79888626E+02</pdfrwt>
<totfact> 0.81357353E+04</totfact>
</mgrwt>
</event>
<event>
 8    1  0.7756875E-014  0.7684767E+02  0.7818608E-02  0.1338243E+00
          1   -1    0    0  501    0  0.00000000000E+00  0.00000000000E+00  0.96150504560E+02  0.96150504692E+02  0.50400000000E-02 0. -1.
         -2   -1    0    0    0  501 -0.00000000000E+00 -0.00000000000E+00 -0.15355000299E+02  0.15355000511E+02  0.25500000000E-02 0.  1.
        -24    2    1    2    0    0  0.00000000000E+00  0.00000000000E+00  0.80795504261E+02  0.11150550520E+03  0.76847668681E+02 0.  0.
         66    2    3    3    0    0  0.41009826022E+01  0.34871385042E+02  0.17873651309E+02  0.39449955132E+02  0.19999989386E+01 0.  0.
         13    1    3    3    0    0 -0.41009826022E+01 -0.34871385042E+02  0.62921852952E+02  0.72055550071E+02  0.10566000000E+00 0. -1.
         13    1    4    4    0    0  0.16847671936E+00  0.38544825645E+01  0.14459888269E+01  0.41215856133E+01  0.10566000000E+00 0. -1.
        -13    1    4    4    0    0  0.36175934143E+01  0.29825488283E+02  0.15777674370E+02  0.33935127906E+02  0.10566000000E+00 0.  1.
        -14    1    4    4    0    0  0.31491246855E+00  0.11914141942E+01  0.64998811172E+00  0.13932416123E+01  0.00000000000E+00 0.  1.
<mgrwt>
<rscale>  0 0.76847669E+02</rscale>
<asrwt>0</asrwt>
<pdfrwt beam="1">  1        1 0.14792385E-01 0.76847669E+02</pdfrwt>
<pdfrwt beam="2">  1       -2 0.23623078E-02 0.76847669E+02</pdfrwt>
<totfact> 0.16276283E+05</totfact>
</mgrwt>
</event>
<event>
 8    1  0.7756875E-014  0.8249340E+02  0.7818608E-02  0.1322121E+00
         -2   -1    0    0    0  501 -0.00000000000E+00  0.00000000000E+00  0.50440804507E+02  0.50440804572E+02  0.25500000000E-02 0.  1.
          1   -1    0    0  501    0  0.00000000000E+00 -0.00000000000E+00 -0.33728448121E+02  0.33728448498E+02  0.50400000000E-02 0. -1.
        -24    2    1    2    0    0  0.00000000000E+00  0.00000000000E+00  0.16712356386E+02  0.84169253069E+02  0.82493395531E+02 0.  0.
         66    2    3    3    0    0 -0.28104819919E+02  0.23625935371E+02 -0.10760493286E+02  0.38312581167E+02  0.19999837679E+01 0.  0.
         13    1    3    3    0    0  0.28104819919E+02 -0.23625935371E+02  0.27472849672E+02  0.45856671902E+02  0.10566000000E+00 0. -1.
         13    1    4    4    0    0 -0.67500841095E+01  0.63671517932E+01 -0.20487955413E+01  0.95033144033E+01  0.10566000000E+00 0. -1.
        -13    1    4    4    0    0 -0.61944532558E+01  0.49712007453E+01 -0.23377957865E+01  0.82801292963E+01  0.10566000000E+00 0.  1.
         14    1    4    4    0    0 -0.15160282554E+02  0.12287582832E+02 -0.63739019585E+01  0.20529137467E+02  0.00000000000E+00 0. -1.
<mgrwt>
<rscale>  0 0.82493396E+02</rscale>
<asrwt>0</asrwt>
<pdfrwt beam="1">  1        1 0.51889921E-02 0.82493396E+02</pdfrwt>
<pdfrwt beam="2">  1       -2 0.77601237E-02 0.82493396E+02</pdfrwt>
<totfact> 0.11306222E+05</totfact>
</mgrwt>
</event>
<event>
 8    1  0.7756875E-014  0.8106926E+02  0.7818608E-02  0.1326044E+00
          1   -1    0    0  501    0  0.00000000000E+00  0.00000000000E+00  0.35850053676E+01  0.35850089104E+01  0.50400000000E-02 0. -1.
         -2   -1    0    0    0  501 -0.00000000000E+00 -0.00000000000E+00 -0.45831318229E+03  0.45831318230E+03  0.25500000000E-02 0.  1.
        -24    2    1    2    0    0  0.17763568394E-14  0.00000000000E+00 -0.45472817693E+03  0.46189819121E+03  0.81069255292E+02 0.  0.
         66    2    3    3    0    0 -0.63198776469E+01 -0.14034177181E+02 -0.44100172332E+03  0.44127476581E+03  0.19999971422E+01 0.  0.
         13    1    3    3    0    0  0.63198776469E+01  0.14034177181E+02 -0.13726453611E+02  0.20623425404E+02  0.10566000000E+00 0. -1.
         13    1    4    4    0    0 -0.25105569540E+00 -0.96830372561E+00 -0.42680517845E+02  0.42692369442E+02  0.10566000000E+00 0. -1.
        -13    1    4    4    0    0 -0.11623585013E+01 -0.21251509331E+01 -0.73327097423E+02  0.73367170617E+02  0.10566000000E+00 0.  1.
         14    1    4    4    0    0 -0.49064634501E+01 -0.10940722523E+02 -0.32499410805E+03  0.32521522575E+03  0.00000000000E+00 0. -1.
<mgrwt>
<rscale>  0 0.81069255E+02</rscale>
<asrwt>0</asrwt>
<pdfrwt beam="1">  1        1 0.55153993E-03 0.81069255E+02</pdfrwt>
<pdfrwt beam="2">  1       -2 0.70509674E-01 0.81069255E+02</pdfrwt>
<totfact> 0.51955292E+04</totfact>
</mgrwt>
</event>
<event>
 8    1  0.7756875E-014  0.8021616E+02  0.7818608E-02  0.1328439E+00
          1   -1    0    0  501    0  0.00000000000E+00  0.00000000000E+00  0.20114413537E+02  0.20114414168E+02  0.50400000000E-02 0. -1.
         -2   -1    0    0    0  501 -0.00000000000E+00 -0.00000000000E+00 -0.79975396980E+02  0.79975397021E+02  0.25500000000E-02 0.  1.
        -24    2    1    2    0    0  0.00000000000E+00  0.00000000000E+00 -0.59860983443E+02  0.10008981119E+03  0.80216163988E+02 0.  0.
         66    2    3    3    0    0  0.19551432069E+02 -0.25300604586E+02 -0.60109392432E+02  0.68114008471E+02  0.20000007843E+01 0.  0.
         13    1    3    3    0    0 -0.19551432069E+02  0.25300604586E+02  0.24840898860E+00  0.31975802717E+02  0.10566000000E+00 0. -1.
         13    1    4    4    0    0  0.18555599049E+01 -0.27336110335E+01 -0.64835116976E+01  0.72775558955E+01  0.10566000000E+00 0. -1.
        -13    1    4    4    0    0  0.29368848445E+01 -0.33660857156E+01 -0.96082928568E+01  0.10596522132E+02  0.10566000000E+00 0.  1.
        -14    1    4    4    0    0  0.14758987320E+02 -0.19200907837E+02 -0.44017587878E+02  0.50239930444E+02  0.00000000000E+00 0.  1.
<mgrwt>
<rscale>  0 0.80216164E+02</rscale>
<asrwt>0</asrwt>
<pdfrwt beam="1">  1        1 0.30945253E-02 0.80216164E+02</pdfrwt>
<pdfrwt beam="2">  1       -2 0.12303907E-01 0.80216164E+02</pdfrwt>
<totfact> 0.11100161E+05</totfact>
</mgrwt>
</event>
<event>
 8    1  0.7756875E-014  0.8141398E+02  0.7818608E-02  0.1325086E+00
         -2   -1    0    0    0  501 -0.00000000000E+00  0.00000000000E+00  0.22167341196E+02  0.22167341343E+02  0.25500000000E-02 0.  1.
          1   -1    0    0  501    0  0.00000000000E+00 -0.00000000000E+00 -0.74752267590E+02  0.74752267760E+02  0.50400000000E-02 0. -1.
        -24    2    1    2    0    0  0.35527136788E-14  0.00000000000E+00 -0.52584926394E+02  0.96919609103E+02  0.81413980033E+02 0.  0.
         66    2    3    3    0    0  0.31765886868E+02 -0.18696507752E+02 -0.58123062946E+01  0.37368621491E+02  0.19999992595E+01 0.  0.
         13    1    3    3    0    0 -0.31765886868E+02  0.18696507752E+02 -0.46772620099E+02  0.59550987613E+02  0.10566000000E+00 0. -1.
         13    1    4    4    0    0  0.77783457678E+01 -0.49085993615E+01 -0.13421642632E+01  0.92956753127E+01  0.10566000000E+00 0. -1.
        -13    1    4    4    0    0  0.13487734366E+02 -0.85805591825E+01 -0.29218328373E+01  0.16250945984E+02  0.10566000000E+00 0.  1.
         14    1    4    4    0    0  0.10499806734E+02 -0.52073492081E+01 -0.15483091942E+01  0.11822000194E+02  0.00000000000E+00 0. -1.
<mgrwt>
<rscale>  0 0.81413980E+02</rscale>
<asrwt>0</asrwt>
<pdfrwt beam="1">  1        1 0.11500349E-01 0.81413980E+02</pdfrwt>
<pdfrwt beam="2">  1       -2 0.34103602E-02 0.81413980E+02</pdfrwt>
<totfact> 0.13360477E+05</totfact>
</mgrwt>
</event>
<event>
 8    1  0.7756875E-014  0.8204195E+02  0.7818608E-02  0.1323355E+00
         -2   -1    0    0    0  501 -0.00000000000E+00  0.00000000000E+00  0.23531643015E+02  0.23531643153E+02  0.25500000000E-02 0.  1.
          1   -1    0    0  501    0  0.00000000000E+00 -0.00000000000E+00 -0.71508829413E+02  0.71508829590E+02  0.50400000000E-02 0. -1.
        -24    2    1    2    0    0 -0.35527136788E-14 -0.71054273576E-14 -0.47977186398E+02  0.95040472743E+02  0.82041946860E+02 0.  0.
         66    2    3    3    0    0 -0.17248995692E+02 -0.36856169387E+02 -0.18232650971E+02  0.44635575897E+02  0.19999999807E+01 0.  0.
         13    1    3    3    0    0  0.17248995692E+02  0.36856169387E+02 -0.29744535426E+02  0.50404896846E+02  0.10566000000E+00 0. -1.
         13    1    4    4    0    0 -0.64549848422E+01 -0.11636625934E+02 -0.58929658310E+01  0.14553903352E+02  0.10566000000E+00 0. -1.
        -13    1    4    4    0    0 -0.90282134822E+01 -0.21187137685E+02 -0.10472853496E+02  0.25300104078E+02  0.10566000000E+00 0.  1.
        -14    1    4    4    0    0 -0.17657973677E+01 -0.40324057684E+01 -0.18668316442E+01  0.47815684678E+01  0.00000000000E+00 0.  1.
<mgrwt>
<rscale>  0 0.82041947E+02</rscale>
<asrwt>0</asrwt>
<pdfrwt beam="1">  1        1 0.11001358E-01 0.82041947E+02</pdfrwt>
<pdfrwt beam="2">  1       -2 0.36202528E-02 0.82041947E+02</pdfrwt>
<totfact> 0.12988602E+05</totfact>
</mgrwt>
</event>
<event>
 8    1  0.7756875E-014  0.7249821E+02  0.7818608E-02  0.1351798E+00
         -2   -1    0    0    0  501 -0.00000000000E+00  0.00000000000E+00  0.96050659590E+01  0.96050662975E+01  0.25500000000E-02 0.  1.
          1   -1    0    0  501    0  0.00000000000E+00 -0.00000000000E+00 -0.13680256940E+03  0.13680256949E+03  0.50400000000E-02 0. -1.
        -24    2    1    2    0    0  0.00000000000E+00  0.00000000000E+00 -0.12719750344E+03  0.14640763579E+03  0.72498213330E+02 0.  0.
         66    2    3    3    0    0  0.32313613118E+02  0.65510632393E+01 -0.33361304353E+02  0.46947445535E+02  0.19999979449E+01 0.  0.
         13    1    3    3    0    0 -0.32313613118E+02 -0.65510632393E+01 -0.93836199085E+02  0.99460190253E+02  0.10566000000E+00 0. -1.
         13    1    4    4    0    0  0.55615603606E+00  0.20756190134E+00 -0.81811787576E+00  0.10163032882E+01  0.10566000000E+00 0. -1.
        -13    1    4    4    0    0  0.11552659535E+02  0.25973668000E+01 -0.11079786327E+02  0.16216753242E+02  0.10566000000E+00 0.  1.
        -14    1    4    4    0    0  0.20204797547E+02  0.37461345380E+01 -0.21463400151E+02  0.29714389005E+02  0.00000000000E+00 0.  1.
<mgrwt>
<rscale>  0 0.72498213E+02</rscale>
<asrwt>0</asrwt>
<pdfrwt beam="1">  1        1 0.21046548E-01 0.72498213E+02</pdfrwt>
<pdfrwt beam="2">  1       -2 0.14777026E-02 0.72498213E+02</pdfrwt>
<totfact> 0.20174173E+05</totfact>
</mgrwt>
</event>
<event>
 8    1  0.7756875E-014  0.7360350E+02  0.7818608E-02  0.1348251E+00
         -2   -1    0    0    0  501 -0.00000000000E+00  0.00000000000E+00  0.13818004933E+02  0.13818005169E+02  0.25500000000E-02 0.  1.
          1   -1    0    0  501    0  0.00000000000E+00 -0.00000000000E+00 -0.98014786644E+02  0.98014786773E+02  0.50400000000E-02 0. -1.
        -24    2    1    2    0    0  0.00000000000E+00  0.00000000000E+00 -0.84196781710E+02  0.11183279194E+03  0.73603500618E+02 0.  0.
         66    2    3    3    0    0 -0.16516818511E+02 -0.16268862108E+02  0.12434938523E+01  0.23302949401E+02  0.20000014542E+01 0.  0.
         13    1    3    3    0    0  0.16516818511E+02  0.16268862108E+02 -0.85440275563E+02  0.88529842541E+02  0.10566000000E+00 0. -1.
         13    1    4    4    0    0 -0.71290352519E+01 -0.58810224329E+01  0.10069708780E+01  0.92970276360E+01  0.10566000000E+00 0. -1.
        -13    1    4    4    0    0 -0.80526548964E+01 -0.87937245447E+01  0.16474489908E+00  0.11925315391E+02  0.10566000000E+00 0.  1.
         14    1    4    4    0    0 -0.13351283631E+01 -0.15941151303E+01  0.71778075229E-01  0.20806063748E+01  0.00000000000E+00 0. -1.
<mgrwt>
<rscale>  0 0.73603501E+02</rscale>
<asrwt>0</asrwt>
<pdfrwt beam="1">  1        1 0.15079198E-01 0.73603501E+02</pdfrwt>
<pdfrwt beam="2">  1       -2 0.21258470E-02 0.73603501E+02</pdfrwt>
<totfact> 0.18327818E+05</totfact>
</mgrwt>
</event>
<event>
 8    1  0.7756875E-014  0.8070853E+02  0.7818608E-02  0.1327053E+00
         -2   -1    0    0    0  501 -0.00000000000E+00  0.00000000000E+00  0.39346293054E+02  0.39346293137E+02  0.25500000000E-02 0.  1.
          1   -1    0    0  501    0  0.00000000000E+00 -0.00000000000E+00 -0.41388062595E+02  0.41388062902E+02  0.50400000000E-02 0. -1.
        -24    2    1    2    0    0  0.00000000000E+00 -0.35527136788E-14 -0.20417695410E+01  0.80734356039E+02  0.80708533763E+02 0.  0.
         66    2    3    3    0    0 -0.18810944815E+02  0.25005427170E+02  0.24429484918E+02  0.39748242422E+02  0.20000023741E+01 0.  0.
         13    1    3    3    0    0  0.18810944815E+02 -0.25005427170E+02 -0.26471254459E+02  0.40986113617E+02  0.10566000000E+00 0. -1.
         13    1    4    4    0    0 -0.50677597806E+01  0.74265840601E+01  0.68503356643E+01  0.11303742864E+02  0.10566000000E+00 0.  1.
        -13    1    4    4    0    0 -0.32474499976E+01  0.36135463412E+01  0.44771854548E+01  0.66075715871E+01  0.10566000000E+00 0. -1.
         14    1    4    4    0    0 -0.10495735037E+02  0.13965296769E+02  0.13101963799E+02  0.21836927970E+02  0.00000000000E+00 0. -1.
<mgrwt>
<rscale>  0 0.80708534E+02</rscale>
<asrwt>0</asrwt>
<pdfrwt beam="1">  1        1 0.63673943E-02 0.80708534E+02</pdfrwt>
<pdfrwt beam="2">  1       -2 0.60532759E-02 0.80708534E+02</pdfrwt>
<totfact> 0.12454944E+05</totfact>
</mgrwt>
</event>
<event>
 8    1  0.7756875E-014  0.7950776E+02  0.7818608E-02  0.1330454E+00
         -2   -1    0    0    0  501 -0.00000000000E+00  0.00000000000E+00  0.18146211935E+02  0.18146212114E+02  0.25500000000E-02 0.  1.
          1   -1    0    0  501    0  0.00000000000E+00 -0.00000000000E+00 -0.87090955115E+02  0.87090955261E+02  0.50400000000E-02 0. -1.
        -24    2    1    2    0    0  0.17763568394E-14  0.00000000000E+00 -0.68944743180E+02  0.10523716738E+03  0.79507759275E+02 0.  0.
         66    2    3    3    0    0 -0.13050742597E+02 -0.14538559042E+02  0.11293451242E+02  0.22654659606E+02  0.19999948979E+01 0.  0.
         13    1    3    3    0    0  0.13050742597E+02  0.14538559042E+02 -0.80238194422E+02  0.82582507769E+02  0.10566000000E+00 0. -1.
         13    1    4    4    0    0 -0.54899075437E+01 -0.48387039438E+01  0.42928804532E+01  0.84848174591E+01  0.10566000000E+00 0. -1.
        -13    1    4    4    0    0 -0.66347793848E+01 -0.88313587972E+01  0.63829211470E+01  0.12757979546E+02  0.10566000000E+00 0.  1.
        -14    1    4    4    0    0 -0.92605566808E+00 -0.86849630062E+00  0.61764964143E+00  0.14118626010E+01  0.00000000000E+00 0.  1.
<mgrwt>
<rscale>  0 0.79507759E+02</rscale>
<asrwt>0</asrwt>
<pdfrwt beam="1">  1        1 0.13398608E-01 0.79507759E+02</pdfrwt>
<pdfrwt beam="2">  1       -2 0.27917250E-02 0.79507759E+02</pdfrwt>
<totfact> 0.14608740E+05</totfact>
</mgrwt>
</event>
<event>
 8    1  0.7756875E-014  0.8021478E+02  0.7818608E-02  0.1328443E+00
         -2   -1    0    0    0  501 -0.00000000000E+00  0.00000000000E+00  0.99282643736E+02  0.99282643769E+02  0.25500000000E-02 0.  1.
          1   -1    0    0  501    0  0.00000000000E+00 -0.00000000000E+00 -0.16202252821E+02  0.16202253605E+02  0.50400000000E-02 0. -1.
        -24    2    1    2    0    0  0.00000000000E+00  0.00000000000E+00  0.83080390915E+02  0.11548489737E+03  0.80214775239E+02 0.  0.
         66    2    3    3    0    0 -0.13722528153E+02  0.32981544926E+02  0.67739427594E+02  0.76607572307E+02  0.19999998634E+01 0.  0.
         13    1    3    3    0    0  0.13722528153E+02 -0.32981544926E+02  0.15340963322E+02  0.38877325066E+02  0.10566000000E+00 0. -1.
         13    1    4    4    0    0 -0.18647813842E+01  0.46956987466E+01  0.97801559657E+01  0.11008615312E+02  0.10566000000E+00 0. -1.
        -13    1    4    4    0    0 -0.84941339034E+01  0.22204096816E+02  0.44943476561E+02  0.50843873530E+02  0.10566000000E+00 0.  1.
         14    1    4    4    0    0 -0.33636128654E+01  0.60817493637E+01  0.13015795067E+02  0.14755083465E+02  0.00000000000E+00 0. -1.
<mgrwt>
<rscale>  0 0.80214775E+02</rscale>
<asrwt>0</asrwt>
<pdfrwt beam="1">  1        1 0.24926544E-02 0.80214775E+02</pdfrwt>
<pdfrwt beam="2">  1       -2 0.15274253E-01 0.80214775E+02</pdfrwt>
<totfact> 0.10559023E+05</totfact>
</mgrwt>
</event>
<event>
 8    1  0.7756875E-014  0.7954941E+02  0.7818608E-02  0.1330335E+00
         -2   -1    0    0    0  501 -0.00000000000E+00  0.00000000000E+00  0.21755892213E+03  0.21755892214E+03  0.25500000000E-02 0.  1.
          1   -1    0    0  501    0  0.00000000000E+00 -0.00000000000E+00 -0.72717173771E+01  0.72717191237E+01  0.50400000000E-02 0. -1.
        -24    2    1    2    0    0  0.35527136788E-14 -0.35527136788E-14  0.21028720475E+03  0.22483064127E+03  0.79549410874E+02 0.  0.
         66    2    3    3    0    0 -0.31947753482E+02  0.23650829531E+02  0.10532074763E+03  0.11258987784E+03  0.20000051537E+01 0.  0.
         13    1    3    3    0    0  0.31947753482E+02 -0.23650829531E+02  0.10496645713E+03  0.11224076343E+03  0.10566000000E+00 0. -1.
         13    1    4    4    0    0 -0.13759557993E+02  0.10509183313E+02  0.46896133838E+02  0.49990268084E+02  0.10566000000E+00 0. -1.
        -13    1    4    4    0    0 -0.13421342562E+02  0.10398075961E+02  0.44146240810E+02  0.47298564054E+02  0.10566000000E+00 0.  1.
         14    1    4    4    0    0 -0.47668529275E+01  0.27435702575E+01  0.14278372977E+02  0.15301045698E+02  0.00000000000E+00 0. -1.
<mgrwt>
<rscale>  0 0.79549411E+02</rscale>
<asrwt>0</asrwt>
<pdfrwt beam="1">  1        1 0.11187261E-02 0.79549411E+02</pdfrwt>
<pdfrwt beam="2">  1       -2 0.33470598E-01 0.79549411E+02</pdfrwt>
<totfact> 0.83339372E+04</totfact>
</mgrwt>
</event>
<event>
 8    1  0.7756875E-014  0.7932588E+02  0.7818608E-02  0.1330975E+00
          1   -1    0    0  501    0  0.00000000000E+00  0.00000000000E+00  0.64714451210E+02  0.64714451406E+02  0.50400000000E-02 0. -1.
         -2   -1    0    0    0  501 -0.00000000000E+00 -0.00000000000E+00 -0.24309080632E+02  0.24309080766E+02  0.25500000000E-02 0.  1.
        -24    2    1    2    0    0 -0.35527136788E-14  0.00000000000E+00  0.40405370577E+02  0.89023532172E+02  0.79325880448E+02 0.  0.
         66    2    3    3    0    0  0.16347766292E+02 -0.17555418096E+01 -0.20260478602E+02  0.26169035034E+02  0.20000029168E+01 0.  0.
         13    1    3    3    0    0 -0.16347766292E+02  0.17555418096E+01  0.60665849179E+02  0.62854497138E+02  0.10566000000E+00 0. -1.
         13    1    4    4    0    0  0.13709274001E+01 -0.54955139782E+00 -0.17025950744E+01  0.22564225443E+01  0.10566000000E+00 0. -1.
        -13    1    4    4    0    0  0.78306113331E+01 -0.97487048049E+00 -0.88797524945E+01  0.11879815432E+02  0.10566000000E+00 0.  1.
         14    1    4    4    0    0  0.71462275586E+01 -0.23111993127E+00 -0.96781310327E+01  0.12032797058E+02  0.00000000000E+00 0. -1.
<mgrwt>
<rscale>  0 0.79325880E+02</rscale>
<asrwt>0</asrwt>
<pdfrwt beam="1">  1        1 0.99560692E-02 0.79325880E+02</pdfrwt>
<pdfrwt beam="2">  1       -2 0.37398587E-02 0.79325880E+02</pdfrwt>
<totfact> 0.14021992E+05</totfact>
</mgrwt>
</event>
<event>
 8    1  0.7756875E-014  0.8024230E+02  0.7818608E-02  0.1328365E+00
          1   -1    0    0  501    0  0.00000000000E+00  0.00000000000E+00  0.25469568698E+03  0.25469568703E+03  0.50400000000E-02 0. -1.
         -2   -1    0    0    0  501 -0.00000000000E+00 -0.00000000000E+00 -0.63201164793E+01  0.63201169937E+01  0.25500000000E-02 0.  1.
        -24    2    1    2    0    0  0.00000000000E+00  0.00000000000E+00  0.24837557050E+03  0.26101580402E+03  0.80242295135E+02 0.  0.
         66    2    3    3    0    0  0.36144341397E+02  0.17285243267E+02  0.11911280636E+03  0.12568633049E+03  0.19999957425E+01 0.  0.
         13    1    3    3    0    0 -0.36144341397E+02 -0.17285243267E+02  0.12926276413E+03  0.13532947353E+03  0.10566000000E+00 0. -1.
         13    1    4    4    0    0  0.53775959728E+00  0.16455586551E+00  0.17694667163E+01  0.18596882839E+01  0.10566000000E+00 0.  1.
        -13    1    4    4    0    0  0.65212142025E+01  0.37746213954E+01  0.21577101794E+02  0.22855119497E+02  0.10566000000E+00 0.  1.
        -14    1    4    4    0    0  0.29085367597E+02  0.13346066007E+02  0.95766237855E+02  0.10097152271E+03  0.00000000000E+00 0.  1.
<mgrwt>
<rscale>  0 0.80242295E+02</rscale>
<asrwt>0</asrwt>
<pdfrwt beam="1">  1        1 0.39183950E-01 0.80242295E+02</pdfrwt>
<pdfrwt beam="2">  1       -2 0.97232570E-03 0.80242295E+02</pdfrwt>
<totfact> 0.17339260E+05</totfact>
</mgrwt>
</event>
<event>
 8    1  0.7756875E-014  0.8111252E+02  0.7818608E-02  0.1325924E+00
          1   -1    0    0  501    0  0.00000000000E+00  0.00000000000E+00  0.14931888329E+02  0.14931889180E+02  0.50400000000E-02 0. -1.
         -2   -1    0    0    0  501 -0.00000000000E+00 -0.00000000000E+00 -0.11015419063E+03  0.11015419066E+03  0.25500000000E-02 0.  1.
        -24    2    1    2    0    0  0.00000000000E+00  0.00000000000E+00 -0.95222302299E+02  0.12508607984E+03  0.81112517616E+02 0.  0.
         66    2    3    3    0    0 -0.11050092685E+02  0.36218149313E+02 -0.69931471005E+02  0.79550421287E+02  0.20000005059E+01 0.  0.
         13    1    3    3    0    0  0.11050092685E+02 -0.36218149313E+02 -0.25290831294E+02  0.45535658550E+02  0.10566000000E+00 0. -1.
         13    1    4    4    0    0 -0.37949189141E+01  0.13121381838E+02 -0.24099935456E+02  0.27701807232E+02  0.10566000000E+00 0. -1.
        -13    1    4    4    0    0 -0.67884289284E+00  0.28701644220E+01 -0.63649565479E+01  0.70158753819E+01  0.10566000000E+00 0.  1.
         14    1    4    4    0    0 -0.65763308780E+01  0.20226603054E+02 -0.39466579001E+02  0.44832738673E+02  0.00000000000E+00 0. -1.
<mgrwt>
<rscale>  0 0.81112518E+02</rscale>
<asrwt>0</asrwt>
<pdfrwt beam="1">  1        1 0.22972137E-02 0.81112518E+02</pdfrwt>
<pdfrwt beam="2">  1       -2 0.16946798E-01 0.81112518E+02</pdfrwt>
<totfact> 0.99927595E+04</totfact>
</mgrwt>
</event>
<event>
 8    1  0.7756875E-014  0.8094680E+02  0.7818608E-02  0.1326386E+00
         -2   -1    0    0    0  501 -0.00000000000E+00  0.00000000000E+00  0.27574403212E+02  0.27574403330E+02  0.25500000000E-02 0.  1.
          1   -1    0    0  501    0  0.00000000000E+00 -0.00000000000E+00 -0.59406407373E+02  0.59406407586E+02  0.50400000000E-02 0. -1.
        -24    2    1    2    0    0 -0.44408920985E-15  0.35527136788E-14 -0.31832004161E+02  0.86980810916E+02  0.80946803388E+02 0.  0.
         66    2    3    3    0    0 -0.21946426270E+01  0.24325392463E+02  0.18719779067E+02  0.30837822696E+02  0.20000013857E+01 0.  0.
         13    1    3    3    0    0  0.21946426270E+01 -0.24325392463E+02 -0.50551783228E+02  0.56142988220E+02  0.10566000000E+00 0. -1.
         13    1    4    4    0    0 -0.36676479205E+00  0.13421196364E+01  0.13002086401E+01  0.19072252291E+01  0.10566000000E+00 0. -1.
        -13    1    4    4    0    0  0.10727673402E+00  0.18611355468E+01  0.17564781435E+01  0.25635353177E+01  0.10566000000E+00 0.  1.
        -14    1    4    4    0    0 -0.19351545690E+01  0.21122137280E+02  0.15663092284E+02  0.26367062149E+02  0.00000000000E+00 0.  1.
<mgrwt>
<rscale>  0 0.80946803E+02</rscale>
<asrwt>0</asrwt>
<pdfrwt beam="1">  1        1 0.91394473E-02 0.80946803E+02</pdfrwt>
<pdfrwt beam="2">  1       -2 0.42422159E-02 0.80946803E+02</pdfrwt>
<totfact> 0.13085465E+05</totfact>
</mgrwt>
</event>
<event>
 8    1  0.7756875E-014  0.8233236E+02  0.7818608E-02  0.1322560E+00
         -2   -1    0    0    0  501 -0.00000000000E+00  0.00000000000E+00  0.24260820594E+03  0.24260820595E+03  0.25500000000E-02 0.  1.
          1   -1    0    0  501    0  0.00000000000E+00 -0.00000000000E+00 -0.69851476015E+01  0.69851494198E+01  0.50400000000E-02 0. -1.
        -24    2    1    2    0    0  0.00000000000E+00  0.00000000000E+00  0.23562305834E+03  0.24959335537E+03  0.82332359529E+02 0.  0.
         66    2    3    3    0    0 -0.13597252709E+02  0.68240647148E+01  0.23376305362E+03  0.23426612725E+03  0.19999997392E+01 0.  0.
         13    1    3    3    0    0  0.13597252709E+02 -0.68240647148E+01  0.18600047240E+01  0.15327228128E+02  0.10566000000E+00 0. -1.
         13    1    4    4    0    0 -0.24226832796E+01  0.19618432786E+01  0.47908225479E+02  0.48009660027E+02  0.10566000000E+00 0. -1.
        -13    1    4    4    0    0 -0.45342012485E+01  0.24879489640E+01  0.78315406309E+02  0.78486068193E+02  0.10566000000E+00 0.  1.
        -14    1    4    4    0    0 -0.66403681811E+01  0.23742724722E+01  0.10753942183E+03  0.10777039903E+03  0.00000000000E+00 0.  1.
<mgrwt>
<rscale>  0 0.82332360E+02</rscale>
<asrwt>0</asrwt>
<pdfrwt beam="1">  1        1 0.10746382E-02 0.82332360E+02</pdfrwt>
<pdfrwt beam="2">  1       -2 0.37324340E-01 0.82332360E+02</pdfrwt>
<totfact> 0.72615523E+04</totfact>
</mgrwt>
</event>
<event>
 8    1  0.7756875E-014  0.7867215E+02  0.7818608E-02  0.1332862E+00
          1   -1    0    0  501    0  0.00000000000E+00  0.00000000000E+00  0.40578923850E+01  0.40578955149E+01  0.50400000000E-02 0. -1.
         -2   -1    0    0    0  501 -0.00000000000E+00 -0.00000000000E+00 -0.38131281039E+03  0.38131281040E+03  0.25500000000E-02 0.  1.
        -24    2    1    2    0    0  0.88817841970E-15  0.00000000000E+00 -0.37725491801E+03  0.38537070591E+03  0.78672154014E+02 0.  0.
         66    2    3    3    0    0  0.43595263262E+01  0.23262167925E+02 -0.34249977083E+03  0.34332233679E+03  0.19999993463E+01 0.  0.
         13    1    3    3    0    0 -0.43595263262E+01 -0.23262167925E+02 -0.34755147179E+02  0.42048369122E+02  0.10566000000E+00 0. -1.
         13    1    4    4    0    0 -0.90794401566E-01  0.30271243935E+01 -0.42685434959E+02  0.42792864444E+02  0.10566000000E+00 0. -1.
        -13    1    4    4    0    0  0.29568308566E+01  0.13870066883E+02 -0.20589843507E+03  0.20638628426E+03  0.10566000000E+00 0.  1.
         14    1    4    4    0    0  0.14934898712E+01  0.63649766493E+01 -0.93915900804E+02  0.94143188089E+02  0.00000000000E+00 0. -1.
<mgrwt>
<rscale>  0 0.78672154E+02</rscale>
<asrwt>0</asrwt>
<pdfrwt beam="1">  1        1 0.62429168E-03 0.78672154E+02</pdfrwt>
<pdfrwt beam="2">  1       -2 0.58663481E-01 0.78672154E+02</pdfrwt>
<totfact> 0.63659428E+04</totfact>
</mgrwt>
</event>
<event>
 8    1  0.7756875E-014  0.9014806E+02  0.7818608E-02  0.1302494E+00
          1   -1    0    0  501    0  0.00000000000E+00  0.00000000000E+00  0.11880895571E+03  0.11880895581E+03  0.50400000000E-02 0. -1.
         -2   -1    0    0    0  501 -0.00000000000E+00 -0.00000000000E+00 -0.17100296130E+02  0.17100296320E+02  0.25500000000E-02 0.  1.
        -24    2    1    2    0    0  0.35527136788E-14  0.35527136788E-14  0.10170865958E+03  0.13590925213E+03  0.90148063665E+02 0.  0.
         66    2    3    3    0    0  0.26529089719E+02  0.16117539311E+02  0.16537278048E+01  0.31149678772E+02  0.19999993027E+01 0.  0.
         13    1    3    3    0    0 -0.26529089719E+02 -0.16117539311E+02  0.10005493177E+03  0.10475957336E+03  0.10566000000E+00 0. -1.
         13    1    4    4    0    0  0.16499454039E+02  0.10412224499E+02  0.12488128349E+01  0.19550373402E+02  0.10566000000E+00 0.  1.
        -13    1    4    4    0    0  0.51260673195E+01  0.33144657871E+01  0.64146408853E+00  0.61388019866E+01  0.10566000000E+00 0. -1.
         14    1    4    4    0    0  0.49035683603E+01  0.23908490252E+01 -0.23654911861E+00  0.54605033844E+01  0.00000000000E+00 0. -1.
<mgrwt>
<rscale>  0 0.90148064E+02</rscale>
<asrwt>0</asrwt>
<pdfrwt beam="1">  1        1 0.18278301E-01 0.90148064E+02</pdfrwt>
<pdfrwt beam="2">  1       -2 0.26308148E-02 0.90148064E+02</pdfrwt>
<totfact> 0.10954794E+05</totfact>
</mgrwt>
</event>
<event>
 8    1  0.7756875E-014  0.7938278E+02  0.7818608E-02  0.1330812E+00
          1   -1    0    0  501    0  0.00000000000E+00  0.00000000000E+00  0.17813543139E+01  0.17813614437E+01  0.50400000000E-02 0. -1.
         -2   -1    0    0    0  501 -0.00000000000E+00 -0.00000000000E+00 -0.88438519963E+03  0.88438519963E+03  0.25500000000E-02 0.  1.
        -24    2    1    2    0    0 -0.35527136788E-14  0.00000000000E+00 -0.88260384531E+03  0.88616656107E+03  0.79382782799E+02 0.  0.
         66    2    3    3    0    0 -0.21825994034E+02 -0.11189275997E+02 -0.78958480927E+03  0.78996819236E+03  0.19999994739E+01 0.  0.
         13    1    3    3    0    0  0.21825994034E+02  0.11189275997E+02 -0.93019036047E+02  0.96198368718E+02  0.10566000000E+00 0. -1.
         13    1    4    4    0    0 -0.53624255310E+01 -0.32555433615E+01 -0.21368621677E+03  0.21377830706E+03  0.10566000000E+00 0. -1.
        -13    1    4    4    0    0 -0.15235871125E+02 -0.73755409903E+01 -0.52186000958E+03  0.52213447610E+03  0.10566000000E+00 0.  1.
        -14    1    4    4    0    0 -0.12276973771E+01 -0.55819164503E+00 -0.54038582921E+02  0.54055409192E+02  0.00000000000E+00 0.  1.
<mgrwt>
<rscale>  0 0.79382783E+02</rscale>
<asrwt>0</asrwt>
<pdfrwt beam="1">  1        1 0.27405576E-03 0.79382783E+02</pdfrwt>
<pdfrwt beam="2">  1       -2 0.13605891E+00 0.79382783E+02</pdfrwt>
<totfact> 0.30531044E+04</totfact>
</mgrwt>
</event>
<event>
 8    1  0.7756875E-014  0.7047572E+02  0.7818608E-02  0.1358483E+00
         -2   -1    0    0    0  501 -0.00000000000E+00  0.00000000000E+00  0.97130588154E+00  0.97130922883E+00  0.25500000000E-02 0.  1.
          1   -1    0    0  501    0  0.00000000000E+00 -0.00000000000E+00 -0.12783866401E+04  0.12783866401E+04  0.50400000000E-02 0. -1.
        -24    2    1    2    0    0  0.00000000000E+00  0.00000000000E+00 -0.12774153342E+04  0.12793579493E+04  0.70475715249E+02 0.  0.
         66    2    3    3    0    0 -0.80519972852E+01 -0.19150298090E+02 -0.11552733266E+04  0.11554618244E+04  0.19999989886E+01 0.  0.
         13    1    3    3    0    0  0.80519972852E+01  0.19150298090E+02 -0.12214200765E+03  0.12389612494E+03  0.10566000000E+00 0. -1.
         13    1    4    4    0    0 -0.42288260390E+00 -0.43201687970E+00 -0.32178258359E+02  0.32184110107E+02  0.10566000000E+00 0. -1.
        -13    1    4    4    0    0 -0.36620804307E+01 -0.10584939234E+02 -0.60830381928E+03  0.60840693576E+03  0.10566000000E+00 0.  1.
        -14    1    4    4    0    0 -0.39670342506E+01 -0.81333419754E+01 -0.51479124894E+03  0.51487077854E+03  0.00000000000E+00 0.  1.
<mgrwt>
<rscale>  0 0.70475715E+02</rscale>
<asrwt>0</asrwt>
<pdfrwt beam="1">  1        1 0.19667352E+00 0.70475715E+02</pdfrwt>
<pdfrwt beam="2">  1       -2 0.14943295E-03 0.70475715E+02</pdfrwt>
<totfact> 0.24138855E+05</totfact>
</mgrwt>
</event>
<event>
 8    1  0.7756875E-014  0.7970382E+02  0.7818608E-02  0.1329894E+00
         -2   -1    0    0    0  501 -0.00000000000E+00  0.00000000000E+00  0.67890249788E+01  0.67890254577E+01  0.25500000000E-02 0.  1.
          1   -1    0    0  501    0  0.00000000000E+00 -0.00000000000E+00 -0.23393266499E+03  0.23393266504E+03  0.50400000000E-02 0. -1.
        -24    2    1    2    0    0 -0.71054273576E-14  0.00000000000E+00 -0.22714364001E+03  0.24072169050E+03  0.79703820991E+02 0.  0.
         66    2    3    3    0    0 -0.34807134013E+02 -0.18044287105E+02 -0.92493744952E+02  0.10047997674E+03  0.19999987993E+01 0.  0.
         13    1    3    3    0    0  0.34807134013E+02  0.18044287105E+02 -0.13464989506E+03  0.14024171376E+03  0.10566000000E+00 0. -1.
         13    1    4    4    0    0 -0.42612580810E+01 -0.17613216674E+01 -0.10352394674E+02  0.11333305518E+02  0.10566000000E+00 0. -1.
        -13    1    4    4    0    0 -0.48048908368E+01 -0.20506939430E+01 -0.12131310385E+02  0.13208791667E+02  0.10566000000E+00 0.  1.
        -14    1    4    4    0    0 -0.25740985095E+02 -0.14232271494E+02 -0.70010039893E+02  0.75937879555E+02  0.00000000000E+00 0.  1.
<mgrwt>
<rscale>  0 0.79703821E+02</rscale>
<asrwt>0</asrwt>
<pdfrwt beam="1">  1        1 0.35989635E-01 0.79703821E+02</pdfrwt>
<pdfrwt beam="2">  1       -2 0.10444656E-02 0.79703821E+02</pdfrwt>
<totfact> 0.17360713E+05</totfact>
</mgrwt>
</event>
<event>
 8    1  0.7756875E-014  0.7937254E+02  0.7818608E-02  0.1330842E+00
         -2   -1    0    0    0  501 -0.00000000000E+00  0.00000000000E+00  0.56735213763E+01  0.56735219494E+01  0.25500000000E-02 0.  1.
          1   -1    0    0  501    0  0.00000000000E+00 -0.00000000000E+00 -0.27760535878E+03  0.27760535883E+03  0.50400000000E-02 0. -1.
        -24    2    1    2    0    0 -0.71054273576E-14 -0.88817841970E-15 -0.27193183741E+03  0.28327888078E+03  0.79372539959E+02 0.  0.
         66    2    3    3    0    0 -0.38600083082E+02 -0.66944651100E+01 -0.15811418029E+03  0.16290756978E+03  0.20000010161E+01 0.  0.
         13    1    3    3    0    0  0.38600083082E+02  0.66944651100E+01 -0.11381765711E+03  0.12037131100E+03  0.10566000000E+00 0. -1.
         13    1    4    4    0    0 -0.78733539895E+01 -0.16089312820E+01 -0.32771069602E+02  0.33742147676E+02  0.10566000000E+00 0. -1.
        -13    1    4    4    0    0 -0.20141579650E+02 -0.38101631420E+01 -0.85068594116E+02  0.87503585314E+02  0.10566000000E+00 0.  1.
         14    1    4    4    0    0 -0.10585149443E+02 -0.12753706859E+01 -0.40274516577E+02  0.41661836789E+02  0.00000000000E+00 0. -1.
<mgrwt>
<rscale>  0 0.79372540E+02</rscale>
<asrwt>0</asrwt>
<pdfrwt beam="1">  1        1 0.42708507E-01 0.79372540E+02</pdfrwt>
<pdfrwt beam="2">  1       -2 0.87284970E-03 0.79372540E+02</pdfrwt>
<totfact> 0.18147623E+05</totfact>
</mgrwt>
</event>
<event>
 8    1  0.7756875E-014  0.8188199E+02  0.7818608E-02  0.1323794E+00
         -2   -1    0    0    0  501 -0.00000000000E+00  0.00000000000E+00  0.69558757572E+01  0.69558762246E+01  0.25500000000E-02 0.  1.
          1   -1    0    0  501    0  0.00000000000E+00 -0.00000000000E+00 -0.24097110949E+03  0.24097110955E+03  0.50400000000E-02 0. -1.
        -24    2    1    2    0    0  0.35527136788E-14  0.00000000000E+00 -0.23401523374E+03  0.24792698577E+03  0.81881992237E+02 0.  0.
         66    2    3    3    0    0  0.27340963654E+02 -0.30384173885E+02 -0.11146639584E+03  0.11874124681E+03  0.19999942655E+01 0.  0.
         13    1    3    3    0    0 -0.27340963654E+02  0.30384173885E+02 -0.12254883790E+03  0.12918573896E+03  0.10566000000E+00 0. -1.
         13    1    4    4    0    0  0.66180364272E+01 -0.81175860400E+01 -0.27319089501E+02  0.29258117241E+02  0.10566000000E+00 0. -1.
        -13    1    4    4    0    0  0.86626770721E+01 -0.91378983713E+01 -0.33296276865E+02  0.35597701862E+02  0.10566000000E+00 0.  1.
         14    1    4    4    0    0  0.12060250155E+02 -0.13128689473E+02 -0.50851029473E+02  0.53885427711E+02  0.00000000000E+00 0. -1.
<mgrwt>
<rscale>  0 0.81881992E+02</rscale>
<asrwt>0</asrwt>
<pdfrwt beam="1">  1        1 0.37072472E-01 0.81881992E+02</pdfrwt>
<pdfrwt beam="2">  1       -2 0.10701350E-02 0.81881992E+02</pdfrwt>
<totfact> 0.16257893E+05</totfact>
</mgrwt>
</event>
<event>
 8    1  0.7756875E-014  0.8064652E+02  0.7818608E-02  0.1327227E+00
          1   -1    0    0  501    0  0.00000000000E+00  0.00000000000E+00  0.74394859223E+02  0.74394859394E+02  0.50400000000E-02 0. -1.
         -2   -1    0    0    0  501 -0.00000000000E+00 -0.00000000000E+00 -0.21855884111E+02  0.21855884260E+02  0.25500000000E-02 0.  1.
        -24    2    1    2    0    0 -0.71054273576E-14  0.00000000000E+00  0.52538975112E+02  0.96250743654E+02  0.80646523472E+02 0.  0.
         66    2    3    3    0    0  0.27339986973E+02 -0.78049342658E+01 -0.77982545190E+01  0.29550036536E+02  0.19999997861E+01 0.  0.
         13    1    3    3    0    0 -0.27339986973E+02  0.78049342658E+01  0.60337229631E+02  0.66700707118E+02  0.10566000000E+00 0. -1.
         13    1    4    4    0    0  0.92664261568E+01 -0.19213439363E+01 -0.30908154549E+01  0.99560293517E+01  0.10566000000E+00 0. -1.
        -13    1    4    4    0    0  0.13694245700E+02 -0.43173704814E+01 -0.32801896886E+01  0.14728980331E+02  0.10566000000E+00 0.  1.
         14    1    4    4    0    0  0.43793151163E+01 -0.15662198481E+01 -0.14272493756E+01  0.48650268530E+01  0.00000000000E+00 0. -1.
<mgrwt>
<rscale>  0 0.80646523E+02</rscale>
<asrwt>0</asrwt>
<pdfrwt beam="1">  1        1 0.11445363E-01 0.80646523E+02</pdfrwt>
<pdfrwt beam="2">  1       -2 0.33624437E-02 0.80646523E+02</pdfrwt>
<totfact> 0.13700690E+05</totfact>
</mgrwt>
</event>
<event>
 8    1  0.7756875E-014  0.8092172E+02  0.7818608E-02  0.1326456E+00
         -2   -1    0    0    0  501 -0.00000000000E+00  0.00000000000E+00  0.20691347561E+02  0.20691347718E+02  0.25500000000E-02 0.  1.
          1   -1    0    0  501    0  0.00000000000E+00 -0.00000000000E+00 -0.79119127708E+02  0.79119127869E+02  0.50400000000E-02 0. -1.
        -24    2    1    2    0    0  0.00000000000E+00  0.00000000000E+00 -0.58427780147E+02  0.99810475586E+02  0.80921724795E+02 0.  0.
         66    2    3    3    0    0  0.40066172158E+02 -0.21308443242E+01 -0.23035327437E+02  0.46308367947E+02  0.19999957154E+01 0.  0.
         13    1    3    3    0    0 -0.40066172158E+02  0.21308443242E+01 -0.35392452710E+02  0.53502107639E+02  0.10566000000E+00 0. -1.
         13    1    4    4    0    0  0.72828819488E+01 -0.39184592931E+00 -0.44800481078E+01  0.85601348001E+01  0.10566000000E+00 0. -1.
        -13    1    4    4    0    0  0.16422922343E+01  0.20778217354E+00 -0.71556154896E+00  0.18065131000E+01  0.10566000000E+00 0.  1.
        -14    1    4    4    0    0  0.31140997975E+02 -0.19467805685E+01 -0.17839717780E+02  0.35941720047E+02  0.00000000000E+00 0.  1.
<mgrwt>
<rscale>  0 0.80921725E+02</rscale>
<asrwt>0</asrwt>
<pdfrwt beam="1">  1        1 0.12172173E-01 0.80921725E+02</pdfrwt>
<pdfrwt beam="2">  1       -2 0.31832843E-02 0.80921725E+02</pdfrwt>
<totfact> 0.13709103E+05</totfact>
</mgrwt>
</event>
<event>
 8    1  0.7756875E-014  0.8460112E+02  0.7818608E-02  0.1316479E+00
          1   -1    0    0  501    0  0.00000000000E+00  0.00000000000E+00  0.59952221750E+01  0.59952242934E+01  0.50400000000E-02 0. -1.
         -2   -1    0    0    0  501 -0.00000000000E+00 -0.00000000000E+00 -0.29846051035E+03  0.29846051036E+03  0.25500000000E-02 0.  1.
        -24    2    1    2    0    0  0.00000000000E+00  0.00000000000E+00 -0.29246528817E+03  0.30445573465E+03  0.84601120422E+02 0.  0.
         66    2    3    3    0    0 -0.68069479509E+01  0.19464269416E+02 -0.27913274843E+03  0.27990048869E+03  0.19999994627E+01 0.  0.
         13    1    3    3    0    0  0.68069479509E+01 -0.19464269416E+02 -0.13332539744E+02  0.24555245964E+02  0.10566000000E+00 0. -1.
         13    1    4    4    0    0 -0.43515877998E+01  0.11716342614E+02 -0.16886036626E+03  0.16932230644E+03  0.10566000000E+00 0. -1.
        -13    1    4    4    0    0 -0.25246634620E+01  0.66659888246E+01 -0.94355715459E+02  0.94624634934E+02  0.10566000000E+00 0.  1.
         14    1    4    4    0    0  0.69303310871E-01  0.10819379779E+01 -0.15916666712E+02  0.15953547316E+02  0.00000000000E+00 0. -1.
<mgrwt>
<rscale>  0 0.84601120E+02</rscale>
<asrwt>0</asrwt>
<pdfrwt beam="1">  1        1 0.92234227E-03 0.84601120E+02</pdfrwt>
<pdfrwt beam="2">  1       -2 0.45916990E-01 0.84601120E+02</pdfrwt>
<totfact> 0.60969462E+04</totfact>
</mgrwt>
</event>
<event>
 8    1  0.7756875E-014  0.7945591E+02  0.7818608E-02  0.1330603E+00
          1   -1    0    0  501    0  0.00000000000E+00  0.00000000000E+00  0.37865339800E+02  0.37865340136E+02  0.50400000000E-02 0. -1.
         -2   -1    0    0    0  501 -0.00000000000E+00 -0.00000000000E+00 -0.41682190712E+02  0.41682190790E+02  0.25500000000E-02 0.  1.
        -24    2    1    2    0    0  0.00000000000E+00  0.00000000000E+00 -0.38168509120E+01  0.79547530926E+02  0.79455908059E+02 0.  0.
         66    2    3    3    0    0 -0.11611347152E+02  0.21177900162E+02 -0.33457530007E+02  0.41312627249E+02  0.20000045270E+01 0.  0.
         13    1    3    3    0    0  0.11611347152E+02 -0.21177900162E+02  0.29640679095E+02  0.38234903677E+02  0.10566000000E+00 0. -1.
         13    1    4    4    0    0 -0.40095699800E+00  0.11850108717E+01 -0.21410259127E+01  0.24819696361E+01  0.10566000000E+00 0. -1.
        -13    1    4    4    0    0 -0.57231185191E+01  0.88908364950E+01 -0.14315205674E+02  0.17797115966E+02  0.10566000000E+00 0.  1.
        -14    1    4    4    0    0 -0.54872716347E+01  0.11102052795E+02 -0.17001298420E+02  0.21033541647E+02  0.00000000000E+00 0.  1.
<mgrwt>
<rscale>  0 0.79455908E+02</rscale>
<asrwt>0</asrwt>
<pdfrwt beam="1">  1        1 0.58254370E-02 0.79455908E+02</pdfrwt>
<pdfrwt beam="2">  1       -2 0.64126447E-02 0.79455908E+02</pdfrwt>
<totfact> 0.12829180E+05</totfact>
</mgrwt>
</event>
<event>
 8    1  0.7756875E-014  0.8007028E+02  0.7818608E-02  0.1328852E+00
          1   -1    0    0  501    0  0.00000000000E+00  0.00000000000E+00  0.72623216591E+02  0.72623216766E+02  0.50400000000E-02 0. -1.
         -2   -1    0    0    0  501 -0.00000000000E+00 -0.00000000000E+00 -0.22070246611E+02  0.22070246758E+02  0.25500000000E-02 0.  1.
        -24    2    1    2    0    0  0.00000000000E+00  0.00000000000E+00  0.50552969979E+02  0.94693463524E+02  0.80070277010E+02 0.  0.
         66    2    3    3    0    0  0.33624293458E+02  0.14490435340E+02  0.62140296675E+01  0.37191127755E+02  0.19999980262E+01 0.  0.
         13    1    3    3    0    0 -0.33624293458E+02 -0.14490435340E+02  0.44338940312E+02  0.57502335769E+02  0.10566000000E+00 0. -1.
         13    1    4    4    0    0  0.45978085282E+01  0.24881212465E+01  0.78095188299E+00  0.52869311021E+01  0.10566000000E+00 0. -1.
        -13    1    4    4    0    0  0.14821575938E+02  0.66622675986E+01  0.23639173860E+01  0.16421455243E+02  0.10566000000E+00 0.  1.
         14    1    4    4    0    0  0.14204908992E+02  0.53400464945E+01  0.30691603985E+01  0.15482741410E+02  0.00000000000E+00 0. -1.
<mgrwt>
<rscale>  0 0.80070277E+02</rscale>
<asrwt>0</asrwt>
<pdfrwt beam="1">  1        1 0.11172803E-01 0.80070277E+02</pdfrwt>
<pdfrwt beam="2">  1       -2 0.33954226E-02 0.80070277E+02</pdfrwt>
<totfact> 0.13918338E+05</totfact>
</mgrwt>
</event>
<event>
 8    1  0.7756875E-014  0.7599477E+02  0.7818608E-02  0.1340818E+00
          1   -1    0    0  501    0  0.00000000000E+00  0.00000000000E+00  0.77115011436E+01  0.77115027906E+01  0.50400000000E-02 0. -1.
         -2   -1    0    0    0  501 -0.00000000000E+00 -0.00000000000E+00 -0.18722696923E+03  0.18722696925E+03  0.25500000000E-02 0.  1.
        -24    2    1    2    0    0  0.00000000000E+00  0.00000000000E+00 -0.17951546809E+03  0.19493847204E+03  0.75994766914E+02 0.  0.
         66    2    3    3    0    0 -0.17500084510E+02  0.20527970223E+02 -0.15836970211E+03  0.16066304204E+03  0.20000023080E+01 0.  0.
         13    1    3    3    0    0  0.17500084510E+02 -0.20527970223E+02 -0.21145765976E+02  0.34275430006E+02  0.10566000000E+00 0. -1.
         13    1    4    4    0    0 -0.81011180677E+01  0.10113378407E+02 -0.76508103681E+02  0.77597742426E+02  0.10566000000E+00 0. -1.
        -13    1    4    4    0    0 -0.46022912488E+01  0.60682406362E+01 -0.44379978881E+02  0.45028860953E+02  0.10566000000E+00 0.  1.
         14    1    4    4    0    0 -0.47966751932E+01  0.43463511798E+01 -0.37481619552E+02  0.38036438657E+02  0.00000000000E+00 0. -1.
<mgrwt>
<rscale>  0 0.75994767E+02</rscale>
<asrwt>0</asrwt>
<pdfrwt beam="1">  1        1 0.11863851E-02 0.75994767E+02</pdfrwt>
<pdfrwt beam="2">  1       -2 0.28804146E-01 0.75994767E+02</pdfrwt>
<totfact> 0.99674159E+04</totfact>
</mgrwt>
</event>
<event>
 8    1  0.7756875E-014  0.7947004E+02  0.7818608E-02  0.1330562E+00
         -2   -1    0    0    0  501 -0.00000000000E+00  0.00000000000E+00  0.91737999116E+01  0.91738002660E+01  0.25500000000E-02 0.  1.
          1   -1    0    0  501    0  0.00000000000E+00 -0.00000000000E+00 -0.17210662770E+03  0.17210662778E+03  0.50400000000E-02 0. -1.
        -24    2    1    2    0    0 -0.17763568394E-14  0.00000000000E+00 -0.16293282779E+03  0.18128042804E+03  0.79470039759E+02 0.  0.
         66    2    3    3    0    0 -0.12636575532E+02 -0.27888062342E+02 -0.13920079834E+03  0.14254223696E+03  0.19999992317E+01 0.  0.
         13    1    3    3    0    0  0.12636575532E+02  0.27888062342E+02 -0.23732029451E+02  0.38738191082E+02  0.10566000000E+00 0. -1.
         13    1    4    4    0    0 -0.69128424550E+01 -0.16354964868E+02 -0.81805203157E+02  0.83710063279E+02  0.10566000000E+00 0. -1.
        -13    1    4    4    0    0 -0.57024641767E+01 -0.11318900527E+02 -0.55754052919E+02  0.57176579014E+02  0.10566000000E+00 0.  1.
         14    1    4    4    0    0 -0.21268900710E-01 -0.21419694756E+00 -0.16415422633E+01  0.16555946667E+01  0.00000000000E+00 0. -1.
<mgrwt>
<rscale>  0 0.79470040E+02</rscale>
<asrwt>0</asrwt>
<pdfrwt beam="1">  1        1 0.26477941E-01 0.79470040E+02</pdfrwt>
<pdfrwt beam="2">  1       -2 0.14113540E-02 0.79470040E+02</pdfrwt>
<totfact> 0.16488751E+05</totfact>
</mgrwt>
</event>
<event>
 8    1  0.7756875E-014  0.7720524E+02  0.7818608E-02  0.1337175E+00
         -2   -1    0    0    0  501 -0.00000000000E+00  0.00000000000E+00  0.70042939052E+01  0.70042943694E+01  0.25500000000E-02 0.  1.
          1   -1    0    0  501    0  0.00000000000E+00 -0.00000000000E+00 -0.21274979285E+03  0.21274979291E+03  0.50400000000E-02 0. -1.
        -24    2    1    2    0    0 -0.35527136788E-14  0.00000000000E+00 -0.20574549895E+03  0.21975408728E+03  0.77205236479E+02 0.  0.
         66    2    3    3    0    0 -0.22745299896E+02  0.31108963060E+02 -0.97977993793E+02  0.10530338793E+03  0.19999981240E+01 0.  0.
         13    1    3    3    0    0  0.22745299896E+02 -0.31108963060E+02 -0.10776750515E+03  0.11445069935E+03  0.10566000000E+00 0. -1.
         13    1    4    4    0    0 -0.12984711417E+02  0.17457086391E+02 -0.55965550418E+02  0.60045870744E+02  0.10566000000E+00 0. -1.
        -13    1    4    4    0    0 -0.24931568745E+01  0.39781995768E+01 -0.13055060095E+02  0.13873992259E+02  0.10566000000E+00 0.  1.
         14    1    4    4    0    0 -0.72674316046E+01  0.96736770926E+01 -0.28957383280E+02  0.31383524930E+02  0.00000000000E+00 0. -1.
<mgrwt>
<rscale>  0 0.77205236E+02</rscale>
<asrwt>0</asrwt>
<pdfrwt beam="1">  1        1 0.32730733E-01 0.77205236E+02</pdfrwt>
<pdfrwt beam="2">  1       -2 0.10775839E-02 0.77205236E+02</pdfrwt>
<totfact> 0.18540945E+05</totfact>
</mgrwt>
</event>
<event>
 8    1  0.7756875E-014  0.7924280E+02  0.7818608E-02  0.1331214E+00
          1   -1    0    0  501    0  0.00000000000E+00  0.00000000000E+00  0.55304324394E+02  0.55304324624E+02  0.50400000000E-02 0. -1.
         -2   -1    0    0    0  501 -0.00000000000E+00 -0.00000000000E+00 -0.28385761188E+02  0.28385761303E+02  0.25500000000E-02 0.  1.
        -24    2    1    2    0    0 -0.35527136788E-14  0.00000000000E+00  0.26918563206E+02  0.83690085927E+02  0.79242800540E+02 0.  0.
         66    2    3    3    0    0  0.31614490374E+02  0.15395341855E+02 -0.57570132113E+01  0.35688033776E+02  0.20000003170E+01 0.  0.
         13    1    3    3    0    0 -0.31614490374E+02 -0.15395341855E+02  0.32675576417E+02  0.48002052150E+02  0.10566000000E+00 0. -1.
         13    1    4    4    0    0  0.54698345354E+01  0.27060911717E+01 -0.13945380135E+01  0.62608241934E+01  0.10566000000E+00 0. -1.
        -13    1    4    4    0    0  0.87760743110E+01  0.36246897323E+01 -0.98729661329E+00  0.95469248770E+01  0.10566000000E+00 0.  1.
         14    1    4    4    0    0  0.17368581528E+02  0.90645609506E+01 -0.33751785845E+01  0.19880284706E+02  0.00000000000E+00 0. -1.
<mgrwt>
<rscale>  0 0.79242801E+02</rscale>
<asrwt>0</asrwt>
<pdfrwt beam="1">  1        1 0.85083576E-02 0.79242801E+02</pdfrwt>
<pdfrwt beam="2">  1       -2 0.43670402E-02 0.79242801E+02</pdfrwt>
<totfact> 0.13723039E+05</totfact>
</mgrwt>
</event>
<event>
 8    1  0.7756875E-014  0.7955836E+02  0.7818608E-02  0.1330309E+00
         -2   -1    0    0    0  501 -0.00000000000E+00  0.00000000000E+00  0.75195168388E+01  0.75195172712E+01  0.25500000000E-02 0.  1.
          1   -1    0    0  501    0  0.00000000000E+00 -0.00000000000E+00 -0.21043683050E+03  0.21043683056E+03  0.50400000000E-02 0. -1.
        -24    2    1    2    0    0  0.00000000000E+00  0.00000000000E+00 -0.20291731366E+03  0.21795634783E+03  0.79558364592E+02 0.  0.
         66    2    3    3    0    0 -0.35500110925E+02  0.15933526415E+02 -0.12382000844E+03  0.12980573809E+03  0.20000031357E+01 0.  0.
         13    1    3    3    0    0  0.35500110925E+02 -0.15933526415E+02 -0.79097305223E+02  0.88150609738E+02  0.10566000000E+00 0. -1.
         13    1    4    4    0    0 -0.36902996121E+01  0.21055688944E+01 -0.13974718811E+02  0.14606699199E+02  0.10566000000E+00 0. -1.
        -13    1    4    4    0    0 -0.81857880700E+01  0.41283138376E+01 -0.29834842627E+02  0.31211842305E+02  0.10566000000E+00 0.  1.
         14    1    4    4    0    0 -0.23624023243E+02  0.96996436829E+01 -0.80010446998E+02  0.83987196587E+02  0.00000000000E+00 0. -1.
<mgrwt>
<rscale>  0 0.79558365E+02</rscale>
<asrwt>0</asrwt>
<pdfrwt beam="1">  1        1 0.32374893E-01 0.79558365E+02</pdfrwt>
<pdfrwt beam="2">  1       -2 0.11568489E-02 0.79558365E+02</pdfrwt>
<totfact> 0.17088676E+05</totfact>
</mgrwt>
</event>
<event>
 8    1  0.7756875E-014  0.8014761E+02  0.7818608E-02  0.1328633E+00
          1   -1    0    0  501    0  0.00000000000E+00  0.00000000000E+00  0.70825306253E+02  0.70825306432E+02  0.50400000000E-02 0. -1.
         -2   -1    0    0    0  501 -0.00000000000E+00 -0.00000000000E+00 -0.22674235349E+02  0.22674235493E+02  0.25500000000E-02 0.  1.
        -24    2    1    2    0    0  0.00000000000E+00  0.17763568394E-14  0.48151070904E+02  0.93499541925E+02  0.80147605772E+02 0.  0.
         66    2    3    3    0    0  0.27965997763E+02  0.11543278237E+02 -0.65213912775E+01  0.31014074908E+02  0.19999987154E+01 0.  0.
         13    1    3    3    0    0 -0.27965997763E+02 -0.11543278237E+02  0.54672462181E+02  0.62485467017E+02  0.10566000000E+00 0. -1.
         13    1    4    4    0    0  0.10257134789E+02  0.49350638565E+01 -0.22187025661E+01  0.11597304621E+02  0.10566000000E+00 0. -1.
        -13    1    4    4    0    0  0.15979411144E+02  0.60718218774E+01 -0.42016606460E+01  0.17603230318E+02  0.10566000000E+00 0.  1.
         14    1    4    4    0    0  0.17294518302E+01  0.53639250323E+00 -0.10102806548E+00  0.18135399693E+01  0.00000000000E+00 0. -1.
<mgrwt>
<rscale>  0 0.80147606E+02</rscale>
<asrwt>0</asrwt>
<pdfrwt beam="1">  1        1 0.10896201E-01 0.80147606E+02</pdfrwt>
<pdfrwt beam="2">  1       -2 0.34883439E-02 0.80147606E+02</pdfrwt>
<totfact> 0.13826463E+05</totfact>
</mgrwt>
</event>
<event>
 8    1  0.7756875E-014  0.8205002E+02  0.7818608E-02  0.1323332E+00
         -2   -1    0    0    0  501 -0.00000000000E+00  0.00000000000E+00  0.53696437436E+03  0.53696437437E+03  0.25500000000E-02 0.  1.
          1   -1    0    0  501    0  0.00000000000E+00 -0.00000000000E+00 -0.31343802884E+01  0.31343843404E+01  0.50400000000E-02 0. -1.
        -24    2    1    2    0    0 -0.35527136788E-14  0.35527136788E-14  0.53382999407E+03  0.54009875871E+03  0.82050024898E+02 0.  0.
         66    2    3    3    0    0  0.27618514976E+02 -0.30131134718E+02  0.28827980395E+03  0.29116990405E+03  0.20000022358E+01 0.  0.
         13    1    3    3    0    0 -0.27618514976E+02  0.30131134718E+02  0.24555019012E+03  0.24892885466E+03  0.10566000000E+00 0. -1.
         13    1    4    4    0    0  0.16843338837E+01 -0.17173825965E+01  0.15068070340E+02  0.15259236266E+02  0.10566000000E+00 0. -1.
        -13    1    4    4    0    0  0.22654635202E+02 -0.25336213281E+02  0.23898721292E+03  0.24139191225E+03  0.10566000000E+00 0.  1.
         14    1    4    4    0    0  0.32795458896E+01 -0.30775388406E+01  0.34224520693E+02  0.34518755529E+02  0.00000000000E+00 0. -1.
<mgrwt>
<rscale>  0 0.82050025E+02</rscale>
<asrwt>0</asrwt>
<pdfrwt beam="1">  1        1 0.48221246E-03 0.82050025E+02</pdfrwt>
<pdfrwt beam="2">  1       -2 0.82609939E-01 0.82050025E+02</pdfrwt>
<totfact> 0.44629005E+04</totfact>
</mgrwt>
</event>
<event>
 8    1  0.7756875E-014  0.8114670E+02  0.7818608E-02  0.1325828E+00
         -2   -1    0    0    0  501 -0.00000000000E+00  0.00000000000E+00  0.15236814648E+02  0.15236814862E+02  0.25500000000E-02 0.  1.
          1   -1    0    0  501    0  0.00000000000E+00 -0.00000000000E+00 -0.10804072969E+03  0.10804072980E+03  0.50400000000E-02 0. -1.
        -24    2    1    2    0    0  0.17763568394E-14  0.00000000000E+00 -0.92803915038E+02  0.12327754467E+03  0.81146696620E+02 0.  0.
         66    2    3    3    0    0  0.15537952094E+02 -0.35575215028E+02 -0.64222653900E+02  0.75070454608E+02  0.20000003801E+01 0.  0.
         13    1    3    3    0    0 -0.15537952094E+02  0.35575215028E+02 -0.28581261138E+02  0.48207090058E+02  0.10566000000E+00 0. -1.
         13    1    4    4    0    0  0.34241188498E+01 -0.69932724385E+01 -0.12342745939E+02  0.14594005299E+02  0.10566000000E+00 0.  1.
        -13    1    4    4    0    0  0.81306918283E+01 -0.20173400900E+02 -0.37403950491E+02  0.43268243896E+02  0.10566000000E+00 0.  1.
        -14    1    4    4    0    0  0.39831414160E+01 -0.84085416892E+01 -0.14475957469E+02  0.17208205413E+02  0.00000000000E+00 0.  1.
<mgrwt>
<rscale>  0 0.81146697E+02</rscale>
<asrwt>0</asrwt>
<pdfrwt beam="1">  1        1 0.16621650E-01 0.81146697E+02</pdfrwt>
<pdfrwt beam="2">  1       -2 0.23441254E-02 0.81146697E+02</pdfrwt>
<totfact> 0.14332056E+05</totfact>
</mgrwt>
</event>
<event>
 8    1  0.7756875E-014  0.8193929E+02  0.7818608E-02  0.1323636E+00
         -2   -1    0    0    0  501 -0.00000000000E+00  0.00000000000E+00  0.10590552525E+03  0.10590552528E+03  0.25500000000E-02 0.  1.
          1   -1    0    0  501    0  0.00000000000E+00 -0.00000000000E+00 -0.15849141015E+02  0.15849141817E+02  0.50400000000E-02 0. -1.
        -24    2    1    2    0    0  0.00000000000E+00  0.00000000000E+00  0.90056384236E+02  0.12175466710E+03  0.81939286173E+02 0.  0.
         66    2    3    3    0    0 -0.30054493310E+02  0.10233254527E+02  0.83474194122E+02  0.89330471548E+02  0.19999990791E+01 0.  0.
         13    1    3    3    0    0  0.30054493310E+02 -0.10233254527E+02  0.65821901138E+01  0.32424195550E+02  0.10566000000E+00 0. -1.
         13    1    4    4    0    0 -0.21444518824E+01  0.37952551912E+00  0.65954168478E+01  0.69464667946E+01  0.10566000000E+00 0. -1.
        -13    1    4    4    0    0 -0.10251284292E+02  0.34054704446E+01  0.27109091693E+02  0.29182187633E+02  0.10566000000E+00 0.  1.
        -14    1    4    4    0    0 -0.17658757136E+02  0.64482585630E+01  0.49769685581E+02  0.53201817120E+02  0.00000000000E+00 0.  1.
<mgrwt>
<rscale>  0 0.81939286E+02</rscale>
<asrwt>0</asrwt>
<pdfrwt beam="1">  1        1 0.24383296E-02 0.81939286E+02</pdfrwt>
<pdfrwt beam="2">  1       -2 0.16293157E-01 0.81939286E+02</pdfrwt>
<totfact> 0.98369937E+04</totfact>
</mgrwt>
</event>
<event>
 8    1  0.7756875E-014  0.8133830E+02  0.7818608E-02  0.1325296E+00
          1   -1    0    0  501    0  0.00000000000E+00  0.00000000000E+00  0.37709657959E+02  0.37709658296E+02  0.50400000000E-02 0. -1.
         -2   -1    0    0    0  501 -0.00000000000E+00 -0.00000000000E+00 -0.43860910352E+02  0.43860910426E+02  0.25500000000E-02 0.  1.
        -24    2    1    2    0    0  0.00000000000E+00 -0.35527136788E-14 -0.61512523922E+01  0.81570568722E+02  0.81338304480E+02 0.  0.
         66    2    3    3    0    0 -0.14844077633E+02 -0.31244159401E+02  0.18324284044E+02  0.39195963292E+02  0.20000038078E+01 0.  0.
         13    1    3    3    0    0  0.14844077633E+02  0.31244159401E+02 -0.24475536436E+02  0.42374605430E+02  0.10566000000E+00 0. -1.
         13    1    4    4    0    0 -0.11146045260E+01 -0.29647913676E+01  0.21194464709E+01  0.38125514398E+01  0.10566000000E+00 0. -1.
        -13    1    4    4    0    0 -0.34502581213E+01 -0.60996847844E+01  0.36185108482E+01  0.78876625414E+01  0.10566000000E+00 0.  1.
        -14    1    4    4    0    0 -0.10279214986E+02 -0.22179683249E+02  0.12586326725E+02  0.27495749311E+02  0.00000000000E+00 0.  1.
<mgrwt>
<rscale>  0 0.81338304E+02</rscale>
<asrwt>0</asrwt>
<pdfrwt beam="1">  1        1 0.58014859E-02 0.81338304E+02</pdfrwt>
<pdfrwt beam="2">  1       -2 0.67478324E-02 0.81338304E+02</pdfrwt>
<totfact> 0.11998246E+05</totfact>
</mgrwt>
</event>
<event>
 8    1  0.7756875E-014  0.7972412E+02  0.7818608E-02  0.1329836E+00
         -2   -1    0    0    0  501 -0.00000000000E+00  0.00000000000E+00  0.95651160164E+01  0.95651163564E+01  0.25500000000E-02 0.  1.
          1   -1    0    0  501    0  0.00000000000E+00 -0.00000000000E+00 -0.16612281170E+03  0.16612281177E+03  0.50400000000E-02 0. -1.
        -24    2    1    2    0    0  0.00000000000E+00  0.00000000000E+00 -0.15655769568E+03  0.17568792813E+03  0.79724124415E+02 0.  0.
         66    2    3    3    0    0  0.87643615721E+01 -0.25448299208E+02 -0.13607144956E+02  0.30225558141E+02  0.20000011884E+01 0.  0.
         13    1    3    3    0    0 -0.87643615721E+01  0.25448299208E+02 -0.14295055072E+03  0.14546236999E+03  0.10566000000E+00 0. -1.
         13    1    4    4    0    0  0.31885660144E+01 -0.11004311295E+02 -0.61650064108E+01  0.13010775856E+02  0.10566000000E+00 0. -1.
        -13    1    4    4    0    0  0.34927476371E+01 -0.10075161868E+02 -0.55106086374E+01  0.12003588810E+02  0.10566000000E+00 0.  1.
        -14    1    4    4    0    0  0.20830479206E+01 -0.43688260446E+01 -0.19315299083E+01  0.52111934751E+01  0.00000000000E+00 0.  1.
<mgrwt>
<rscale>  0 0.79724124E+02</rscale>
<asrwt>0</asrwt>
<pdfrwt beam="1">  1        1 0.25557354E-01 0.79724124E+02</pdfrwt>
<pdfrwt beam="2">  1       -2 0.14715565E-02 0.79724124E+02</pdfrwt>
<totfact> 0.16240537E+05</totfact>
</mgrwt>
</event>
<event>
 8    1  0.7756875E-014  0.8469112E+02  0.7818608E-02  0.1316242E+00
         -2   -1    0    0    0  501 -0.00000000000E+00  0.00000000000E+00  0.17689568959E+02  0.17689569143E+02  0.25500000000E-02 0.  1.
          1   -1    0    0  501    0  0.00000000000E+00 -0.00000000000E+00 -0.10136743934E+03  0.10136743947E+03  0.50400000000E-02 0. -1.
        -24    2    1    2    0    0  0.00000000000E+00 -0.71054273576E-14 -0.83677870381E+02  0.11905700861E+03  0.84691117050E+02 0.  0.
         66    2    3    3    0    0 -0.11024212120E+02  0.35342322758E+02 -0.13034190368E+02  0.39300167393E+02  0.20000019370E+01 0.  0.
         13    1    3    3    0    0  0.11024212120E+02 -0.35342322758E+02 -0.70643680013E+02  0.79756841215E+02  0.10566000000E+00 0. -1.
         13    1    4    4    0    0 -0.15002274736E+01  0.41909122306E+01 -0.21197641528E+01  0.49314289913E+01  0.10566000000E+00 0. -1.
        -13    1    4    4    0    0 -0.34713081304E+01  0.10130000358E+02 -0.38824974285E+01  0.11390866416E+02  0.10566000000E+00 0.  1.
         14    1    4    4    0    0 -0.60526765162E+01  0.21021410169E+02 -0.70319287870E+01  0.22977871986E+02  0.00000000000E+00 0. -1.
<mgrwt>
<rscale>  0 0.84691117E+02</rscale>
<asrwt>0</asrwt>
<pdfrwt beam="1">  1        1 0.15594990E-01 0.84691117E+02</pdfrwt>
<pdfrwt beam="2">  1       -2 0.27214722E-02 0.84691117E+02</pdfrwt>
<totfact> 0.12623399E+05</totfact>
</mgrwt>
</event>
<event>
 8    1  0.7756875E-014  0.7922048E+02  0.7818608E-02  0.1331278E+00
         -2   -1    0    0    0  501 -0.00000000000E+00  0.00000000000E+00  0.75355865873E+02  0.75355865916E+02  0.25500000000E-02 0.  1.
          1   -1    0    0  501    0  0.00000000000E+00 -0.00000000000E+00 -0.20820820807E+02  0.20820821417E+02  0.50400000000E-02 0. -1.
        -24    2    1    2    0    0  0.35527136788E-14  0.00000000000E+00  0.54535045066E+02  0.96176687333E+02  0.79220477441E+02 0.  0.
         66    2    3    3    0    0 -0.31074986220E+02  0.44172015673E+01  0.56568089786E+02  0.64723374739E+02  0.20000043260E+01 0.  0.
         13    1    3    3    0    0  0.31074986220E+02 -0.44172015673E+01 -0.20330447200E+01  0.31453312594E+02  0.10566000000E+00 0. -1.
         13    1    4    4    0    0 -0.42742862412E+01  0.27543364025E+00  0.83592325327E+01  0.93932592391E+01  0.10566000000E+00 0. -1.
        -13    1    4    4    0    0 -0.17553296422E+02  0.32643157636E+01  0.30982743994E+02  0.35759132569E+02  0.10566000000E+00 0.  1.
        -14    1    4    4    0    0 -0.92474035574E+01  0.87745216349E+00  0.17226113260E+02  0.19570982931E+02  0.00000000000E+00 0.  1.
<mgrwt>
<rscale>  0 0.79220477E+02</rscale>
<asrwt>0</asrwt>
<pdfrwt beam="1">  1        1 0.32032033E-02 0.79220477E+02</pdfrwt>
<pdfrwt beam="2">  1       -2 0.11593210E-01 0.79220477E+02</pdfrwt>
<totfact> 0.11604452E+05</totfact>
</mgrwt>
</event>
<event>
 8    1  0.7756875E-014  0.7945290E+02  0.7818608E-02  0.1330611E+00
          1   -1    0    0  501    0  0.00000000000E+00  0.00000000000E+00  0.36520083181E+03  0.36520083184E+03  0.50400000000E-02 0. -1.
         -2   -1    0    0    0  501 -0.00000000000E+00 -0.00000000000E+00 -0.43214320569E+01  0.43214328092E+01  0.25500000000E-02 0.  1.
        -24    2    1    2    0    0  0.00000000000E+00  0.00000000000E+00  0.36087939975E+03  0.36952226465E+03  0.79452897422E+02 0.  0.
         66    2    3    3    0    0 -0.33618665126E+02  0.20213443189E+02  0.15211590831E+03  0.15710521154E+03  0.20000003416E+01 0.  0.
         13    1    3    3    0    0  0.33618665126E+02 -0.20213443189E+02  0.20876349144E+03  0.21241705311E+03  0.10566000000E+00 0. -1.
         13    1    4    4    0    0 -0.63604748907E+01  0.37619542507E+01  0.31470517579E+02  0.32326654348E+02  0.10566000000E+00 0. -1.
        -13    1    4    4    0    0 -0.14438446758E+02  0.82997133615E+01  0.62235823261E+02  0.64425638124E+02  0.10566000000E+00 0.  1.
         14    1    4    4    0    0 -0.12819743478E+02  0.81517755771E+01  0.58409567473E+02  0.60352919070E+02  0.00000000000E+00 0. -1.
<mgrwt>
<rscale>  0 0.79452897E+02</rscale>
<asrwt>0</asrwt>
<pdfrwt beam="1">  1        1 0.56184749E-01 0.79452897E+02</pdfrwt>
<pdfrwt beam="2">  1       -2 0.66483570E-03 0.79452897E+02</pdfrwt>
<totfact> 0.19043242E+05</totfact>
</mgrwt>
</event>
<event>
 8    1  0.7756875E-014  0.7904565E+02  0.7818608E-02  0.1331782E+00
          1   -1    0    0  501    0  0.00000000000E+00  0.00000000000E+00  0.89064821432E+03  0.89064821434E+03  0.50400000000E-02 0. -1.
         -2   -1    0    0    0  501 -0.00000000000E+00 -0.00000000000E+00 -0.17538383584E+01  0.17538402122E+01  0.25500000000E-02 0.  1.
        -24    2    1    2    0    0  0.00000000000E+00  0.00000000000E+00  0.88889437597E+03  0.89240205455E+03  0.79045653534E+02 0.  0.
         66    2    3    3    0    0  0.24621133955E+02 -0.61905246323E+01  0.78633096905E+03  0.78674323364E+03  0.19999926507E+01 0.  0.
         13    1    3    3    0    0 -0.24621133955E+02  0.61905246323E+01  0.10256340692E+03  0.10565882091E+03  0.10566000000E+00 0. -1.
         13    1    4    4    0    0  0.11802312245E+02 -0.30869013329E+01  0.40024023952E+03  0.40042612805E+03  0.10566000000E+00 0. -1.
        -13    1    4    4    0    0  0.12763551378E+02 -0.31545616572E+01  0.38398805332E+03  0.38421308639E+03  0.10566000000E+00 0.  1.
         14    1    4    4    0    0  0.55270332540E-01  0.50938357776E-01  0.21026762132E+01  0.21040191976E+01  0.00000000000E+00 0. -1.
<mgrwt>
<rscale>  0 0.79045654E+02</rscale>
<asrwt>0</asrwt>
<pdfrwt beam="1">  1        1 0.13702294E+00 0.79045654E+02</pdfrwt>
<pdfrwt beam="2">  1       -2 0.26982115E-03 0.79045654E+02</pdfrwt>
<totfact> 0.20260692E+05</totfact>
</mgrwt>
</event>
<event>
 8    1  0.7756875E-014  0.8350066E+02  0.7818608E-02  0.1319401E+00
         -2   -1    0    0    0  501 -0.00000000000E+00  0.00000000000E+00  0.73707024736E+01  0.73707029147E+01  0.25500000000E-02 0.  1.
          1   -1    0    0  501    0  0.00000000000E+00 -0.00000000000E+00 -0.23648898892E+03  0.23648898898E+03  0.50400000000E-02 0. -1.
        -24    2    1    2    0    0  0.00000000000E+00  0.00000000000E+00 -0.22911828645E+03  0.24385969189E+03  0.83500659542E+02 0.  0.
         66    2    3    3    0    0 -0.25045770120E+00  0.37116250899E+02 -0.58951467449E+02  0.69691852545E+02  0.19999967185E+01 0.  0.
         13    1    3    3    0    0  0.25045770120E+00 -0.37116250899E+02 -0.17016681900E+03  0.17416783935E+03  0.10566000000E+00 0. -1.
         13    1    4    4    0    0 -0.19140339591E+00  0.14430633700E+02 -0.21797421349E+02  0.26142275451E+02  0.10566000000E+00 0. -1.
        -13    1    4    4    0    0 -0.15837782216E+00  0.50093031513E+01 -0.73181536311E+01  0.88704418267E+01  0.10566000000E+00 0.  1.
        -14    1    4    4    0    0  0.99323516879E-01  0.17676314048E+02 -0.29835892468E+02  0.34679135267E+02  0.00000000000E+00 0.  1.
<mgrwt>
<rscale>  0 0.83500660E+02</rscale>
<asrwt>0</asrwt>
<pdfrwt beam="1">  1        1 0.36382916E-01 0.83500660E+02</pdfrwt>
<pdfrwt beam="2">  1       -2 0.11339544E-02 0.83500660E+02</pdfrwt>
<totfact> 0.15377384E+05</totfact>
</mgrwt>
</event>
<event>
 8    1  0.7756875E-014  0.7880408E+02  0.7818608E-02  0.1332480E+00
         -2   -1    0    0    0  501 -0.00000000000E+00  0.00000000000E+00  0.25575954364E+02  0.25575954491E+02  0.25500000000E-02 0.  1.
          1   -1    0    0  501    0  0.00000000000E+00 -0.00000000000E+00 -0.60702360611E+02  0.60702360820E+02  0.50400000000E-02 0. -1.
        -24    2    1    2    0    0  0.00000000000E+00 -0.35527136788E-14 -0.35126406247E+02  0.86278315311E+02  0.78804081602E+02 0.  0.
         66    2    3    3    0    0 -0.24611790902E+02  0.19283647994E+02  0.86313883650E+01  0.32497695338E+02  0.20000014583E+01 0.  0.
         13    1    3    3    0    0  0.24611790902E+02 -0.19283647994E+02 -0.43757794612E+02  0.53780619973E+02  0.10566000000E+00 0. -1.
         13    1    4    4    0    0 -0.26758184492E+01  0.22298093619E+01  0.10294587877E+01  0.36335937575E+01  0.10566000000E+00 0.  1.
        -13    1    4    4    0    0 -0.54310893499E+01  0.50454418430E+01  0.25136990408E+01  0.78283498785E+01  0.10566000000E+00 0. -1.
        -14    1    4    4    0    0 -0.16504883103E+02  0.12008396789E+02  0.50882305365E+01  0.21035751702E+02  0.00000000000E+00 0.  1.
<mgrwt>
<rscale>  0 0.78804082E+02</rscale>
<asrwt>0</asrwt>
<pdfrwt beam="1">  1        1 0.93388247E-02 0.78804082E+02</pdfrwt>
<pdfrwt beam="2">  1       -2 0.39347622E-02 0.78804082E+02</pdfrwt>
<totfact> 0.14137092E+05</totfact>
</mgrwt>
</event>
<event>
 8    1  0.7756875E-014  0.8245668E+02  0.7818608E-02  0.1322221E+00
          1   -1    0    0  501    0  0.00000000000E+00  0.00000000000E+00  0.22523495440E+03  0.22523495445E+03  0.50400000000E-02 0. -1.
         -2   -1    0    0    0  501 -0.00000000000E+00 -0.00000000000E+00 -0.75466798210E+01  0.75466802518E+01  0.25500000000E-02 0.  1.
        -24    2    1    2    0    0  0.00000000000E+00  0.71054273576E-14  0.21768827458E+03  0.23278163471E+03  0.82456682980E+02 0.  0.
         66    2    3    3    0    0  0.19897657142E+02 -0.35387723798E+02  0.12878281968E+03  0.13504526057E+03  0.20000003942E+01 0.  0.
         13    1    3    3    0    0 -0.19897657142E+02  0.35387723798E+02  0.88905454897E+02  0.97736374139E+02  0.10566000000E+00 0. -1.
         13    1    4    4    0    0  0.68276955459E+01 -0.11766612685E+02  0.45124132533E+02  0.47130341622E+02  0.10566000000E+00 0. -1.
        -13    1    4    4    0    0  0.16510229432E+01 -0.32872822354E+01  0.12682272830E+02  0.13205427271E+02  0.10566000000E+00 0.  1.
        -14    1    4    4    0    0  0.11418938653E+02 -0.20333828877E+02  0.70976414318E+02  0.74709491674E+02  0.00000000000E+00 0.  1.
<mgrwt>
<rscale>  0 0.82456683E+02</rscale>
<asrwt>0</asrwt>
<pdfrwt beam="1">  1        1 0.34651533E-01 0.82456683E+02</pdfrwt>
<pdfrwt beam="2">  1       -2 0.11610277E-02 0.82456683E+02</pdfrwt>
<totfact> 0.15748393E+05</totfact>
</mgrwt>
</event>
<event>
 8    1  0.7756875E-014  0.7798788E+02  0.7818608E-02  0.1334860E+00
         -2   -1    0    0    0  501 -0.00000000000E+00  0.00000000000E+00  0.50160372196E+02  0.50160372261E+02  0.25500000000E-02 0.  1.
          1   -1    0    0  501    0  0.00000000000E+00 -0.00000000000E+00 -0.30313320219E+02  0.30313320638E+02  0.50400000000E-02 0. -1.
        -24    2    1    2    0    0  0.17763568394E-14 -0.71054273576E-14  0.19847051977E+02  0.80473692899E+02  0.77987882242E+02 0.  0.
         66    2    3    3    0    0 -0.14543292686E+02  0.32473279678E+02  0.26326814566E+02  0.44307137320E+02  0.19999992864E+01 0.  0.
         13    1    3    3    0    0  0.14543292686E+02 -0.32473279678E+02 -0.64797625883E+01  0.36166555579E+02  0.10566000000E+00 0. -1.
         13    1    4    4    0    0 -0.42152966758E+01  0.10383688212E+02  0.89644216260E+01  0.14351366697E+02  0.10566000000E+00 0. -1.
        -13    1    4    4    0    0 -0.26988260316E+01  0.56509514639E+01  0.38754491485E+01  0.73652688026E+01  0.10566000000E+00 0.  1.
        -14    1    4    4    0    0 -0.76291699789E+01  0.16438640002E+02  0.13486943791E+02  0.22590501821E+02  0.00000000000E+00 0.  1.
<mgrwt>
<rscale>  0 0.77987882E+02</rscale>
<asrwt>0</asrwt>
<pdfrwt beam="1">  1        1 0.46635878E-02 0.77987882E+02</pdfrwt>
<pdfrwt beam="2">  1       -2 0.77169802E-02 0.77987882E+02</pdfrwt>
<totfact> 0.13034086E+05</totfact>
</mgrwt>
</event>
<event>
 8    1  0.7756875E-014  0.8430580E+02  0.7818608E-02  0.1317258E+00
          1   -1    0    0  501    0  0.00000000000E+00  0.00000000000E+00  0.99728954319E+02  0.99728954446E+02  0.50400000000E-02 0. -1.
         -2   -1    0    0    0  501 -0.00000000000E+00 -0.00000000000E+00 -0.17816960115E+02  0.17816960297E+02  0.25500000000E-02 0.  1.
        -24    2    1    2    0    0  0.00000000000E+00  0.22204460493E-15  0.81911994204E+02  0.11754591474E+03  0.84305796233E+02 0.  0.
         66    2    3    3    0    0 -0.18037662585E+02 -0.16568025352E+01 -0.12054272400E+02  0.21849662520E+02  0.20000007460E+01 0.  0.
         13    1    3    3    0    0  0.18037662585E+02  0.16568025352E+01  0.93966266604E+02  0.95696252224E+02  0.10566000000E+00 0. -1.
         13    1    4    4    0    0 -0.44756015401E+01 -0.12619046716E+00 -0.27005384169E+01  0.52298188263E+01  0.10566000000E+00 0. -1.
        -13    1    4    4    0    0 -0.10068796380E+02 -0.91231035205E+00 -0.76831186105E+01  0.12698600172E+02  0.10566000000E+00 0.  1.
        -14    1    4    4    0    0 -0.34932646650E+01 -0.61830171596E+00 -0.16706153723E+01  0.39212435214E+01  0.00000000000E+00 0.  1.
<mgrwt>
<rscale>  0 0.84305796E+02</rscale>
<asrwt>0</asrwt>
<pdfrwt beam="1">  1        1 0.15342917E-01 0.84305796E+02</pdfrwt>
<pdfrwt beam="2">  1       -2 0.27410707E-02 0.84305796E+02</pdfrwt>
<totfact> 0.12745029E+05</totfact>
</mgrwt>
</event>
<event>
 8    1  0.7756875E-014  0.7810167E+02  0.7818608E-02  0.1334527E+00
         -2   -1    0    0    0  501 -0.00000000000E+00  0.00000000000E+00  0.20911563187E+02  0.20911563343E+02  0.25500000000E-02 0.  1.
          1   -1    0    0  501    0  0.00000000000E+00 -0.00000000000E+00 -0.72924608859E+02  0.72924609034E+02  0.50400000000E-02 0. -1.
        -24    2    1    2    0    0  0.00000000000E+00 -0.71054273576E-14 -0.52013045672E+02  0.93836172377E+02  0.78101666603E+02 0.  0.
         66    2    3    3    0    0  0.21917613463E+02 -0.32197328071E+02 -0.28945067625E+02  0.48568165020E+02  0.19999996832E+01 0.  0.
         13    1    3    3    0    0 -0.21917613463E+02  0.32197328071E+02 -0.23067978047E+02  0.45268007357E+02  0.10566000000E+00 0. -1.
         13    1    4    4    0    0  0.83393979193E+01 -0.12729041711E+02 -0.11711961218E+02  0.19203001332E+02  0.10566000000E+00 0. -1.
        -13    1    4    4    0    0  0.33766248365E+01 -0.45934397072E+01 -0.34463972863E+01  0.66625897308E+01  0.10566000000E+00 0.  1.
        -14    1    4    4    0    0  0.10201590708E+02 -0.14874846652E+02 -0.13786709121E+02  0.22702573957E+02  0.00000000000E+00 0.  1.
<mgrwt>
<rscale>  0 0.78101667E+02</rscale>
<asrwt>0</asrwt>
<pdfrwt beam="1">  1        1 0.11219171E-01 0.78101667E+02</pdfrwt>
<pdfrwt beam="2">  1       -2 0.32171636E-02 0.78101667E+02</pdfrwt>
<totfact> 0.14906515E+05</totfact>
</mgrwt>
</event>
<event>
 8    1  0.7756875E-014  0.7972381E+02  0.7818608E-02  0.1329837E+00
          1   -1    0    0  501    0  0.00000000000E+00  0.00000000000E+00  0.30753944945E+03  0.30753944949E+03  0.50400000000E-02 0. -1.
         -2   -1    0    0    0  501 -0.00000000000E+00 -0.00000000000E+00 -0.51667231332E+01  0.51667237625E+01  0.25500000000E-02 0.  1.
        -24    2    1    2    0    0  0.35527136788E-14  0.35527136788E-14  0.30237272632E+03  0.31270617325E+03  0.79723805546E+02 0.  0.
         66    2    3    3    0    0 -0.31661085309E+02 -0.23463107469E+02  0.12840182795E+03  0.13432784952E+03  0.20000002701E+01 0.  0.
         13    1    3    3    0    0  0.31661085309E+02  0.23463107469E+02  0.17397089836E+03  0.17837832373E+03  0.10566000000E+00 0. -1.
         13    1    4    4    0    0 -0.77260034414E+01 -0.62925688664E+01  0.33986642246E+02  0.35417376629E+02  0.10566000000E+00 0. -1.
        -13    1    4    4    0    0 -0.93440619396E+01 -0.69742426614E+01  0.39108025870E+02  0.40809317633E+02  0.10566000000E+00 0.  1.
        -14    1    4    4    0    0 -0.14591019928E+02 -0.10196295941E+02  0.55307159838E+02  0.58101155262E+02  0.00000000000E+00 0.  1.
<mgrwt>
<rscale>  0 0.79723806E+02</rscale>
<asrwt>0</asrwt>
<pdfrwt beam="1">  1        1 0.47313770E-01 0.79723806E+02</pdfrwt>
<pdfrwt beam="2">  1       -2 0.79488039E-03 0.79723806E+02</pdfrwt>
<totfact> 0.18292670E+05</totfact>
</mgrwt>
</event>
<event>
 8    1  0.7756875E-014  0.8297522E+02  0.7818608E-02  0.1320814E+00
         -2   -1    0    0    0  501 -0.00000000000E+00  0.00000000000E+00  0.35847593683E+02  0.35847593774E+02  0.25500000000E-02 0.  1.
          1   -1    0    0  501    0  0.00000000000E+00 -0.00000000000E+00 -0.48014984880E+02  0.48014985145E+02  0.50400000000E-02 0. -1.
        -24    2    1    2    0    0  0.88817841970E-15  0.00000000000E+00 -0.12167391197E+02  0.83862578919E+02  0.82975217592E+02 0.  0.
         66    2    3    3    0    0  0.77075497716E+01 -0.22110125829E+02  0.28497915760E+02  0.36937720458E+02  0.20000005897E+01 0.  0.
         13    1    3    3    0    0 -0.77075497716E+01  0.22110125829E+02 -0.40665306957E+02  0.46924858461E+02  0.10566000000E+00 0. -1.
         13    1    4    4    0    0  0.21394982684E+00 -0.30056886155E+00  0.31507594336E+00  0.49654109057E+00  0.10566000000E+00 0. -1.
        -13    1    4    4    0    0  0.46861670628E+01 -0.11837137555E+02  0.16075399634E+02  0.20506282566E+02  0.10566000000E+00 0.  1.
        -14    1    4    4    0    0  0.28074328820E+01 -0.99724194123E+01  0.12107440182E+02  0.15934896802E+02  0.00000000000E+00 0.  1.
<mgrwt>
<rscale>  0 0.82975218E+02</rscale>
<asrwt>0</asrwt>
<pdfrwt beam="1">  1        1 0.73869208E-02 0.82975218E+02</pdfrwt>
<pdfrwt beam="2">  1       -2 0.55150144E-02 0.82975218E+02</pdfrwt>
<totfact> 0.11804298E+05</totfact>
</mgrwt>
</event>
<event>
 8    1  0.7756875E-014  0.7874606E+02  0.7818608E-02  0.1332648E+00
         -2   -1    0    0    0  501 -0.00000000000E+00  0.00000000000E+00  0.93114664996E+02  0.93114665031E+02  0.25500000000E-02 0.  1.
          1   -1    0    0  501    0  0.00000000000E+00 -0.00000000000E+00 -0.16648669630E+02  0.16648670393E+02  0.50400000000E-02 0. -1.
        -24    2    1    2    0    0  0.00000000000E+00 -0.88817841970E-15  0.76465995366E+02  0.10976333542E+03  0.78746056130E+02 0.  0.
         66    2    3    3    0    0  0.35648553967E+02 -0.73138587242E+01  0.59115628952E+02  0.69447602662E+02  0.19999999194E+01 0.  0.
         13    1    3    3    0    0 -0.35648553967E+02  0.73138587242E+01  0.17350366414E+02  0.40315732762E+02  0.10566000000E+00 0. -1.
         13    1    4    4    0    0  0.23015630941E+02 -0.56075508340E+01  0.38596493155E+02  0.45286469744E+02  0.10566000000E+00 0. -1.
        -13    1    4    4    0    0  0.54529847743E+01 -0.52553357961E+00  0.89426984985E+01  0.10487814308E+02  0.10566000000E+00 0.  1.
         14    1    4    4    0    0  0.71799382521E+01 -0.11807743106E+01  0.11576437299E+02  0.13673318610E+02  0.00000000000E+00 0. -1.
<mgrwt>
<rscale>  0 0.78746056E+02</rscale>
<asrwt>0</asrwt>
<pdfrwt beam="1">  1        1 0.25613339E-02 0.78746056E+02</pdfrwt>
<pdfrwt beam="2">  1       -2 0.14325333E-01 0.78746056E+02</pdfrwt>
<totfact> 0.11243052E+05</totfact>
</mgrwt>
</event>
<event>
 8    1  0.7756875E-014  0.7983334E+02  0.7818608E-02  0.1329525E+00
          1   -1    0    0  501    0  0.00000000000E+00  0.00000000000E+00  0.27016059454E+02  0.27016059924E+02  0.50400000000E-02 0. -1.
         -2   -1    0    0    0  501 -0.00000000000E+00 -0.00000000000E+00 -0.58977533990E+02  0.58977534045E+02  0.25500000000E-02 0.  1.
        -24    2    1    2    0    0  0.00000000000E+00 -0.35527136788E-14 -0.31961474536E+02  0.85993593969E+02  0.79833341087E+02 0.  0.
         66    2    3    3    0    0  0.13424127132E+02 -0.24789050169E+02 -0.46393324148E+02  0.54323519059E+02  0.19999999723E+01 0.  0.
         13    1    3    3    0    0 -0.13424127132E+02  0.24789050169E+02  0.14431849612E+02  0.31670074910E+02  0.10566000000E+00 0. -1.
         13    1    4    4    0    0  0.34663082517E+01 -0.60126523208E+01 -0.11123716491E+02  0.13111655632E+02  0.10566000000E+00 0.  1.
        -13    1    4    4    0    0  0.19830455035E+01 -0.24953432605E+01 -0.52876801627E+01  0.61749439670E+01  0.10566000000E+00 0. -1.
         14    1    4    4    0    0  0.79747733772E+01 -0.16281054588E+02 -0.29981927495E+02  0.35036919459E+02  0.00000000000E+00 0. -1.
<mgrwt>
<rscale>  0 0.79833341E+02</rscale>
<asrwt>0</asrwt>
<pdfrwt beam="1">  1        1 0.41563169E-02 0.79833341E+02</pdfrwt>
<pdfrwt beam="2">  1       -2 0.90734667E-02 0.79833341E+02</pdfrwt>
<totfact> 0.11939589E+05</totfact>
</mgrwt>
</event>
<event>
 8    1  0.7756875E-014  0.7906368E+02  0.7818608E-02  0.1331730E+00
          1   -1    0    0  501    0  0.00000000000E+00  0.00000000000E+00  0.51092818739E+02  0.51092818987E+02  0.50400000000E-02 0. -1.
         -2   -1    0    0    0  501 -0.00000000000E+00 -0.00000000000E+00 -0.30586812889E+02  0.30586812995E+02  0.25500000000E-02 0.  1.
        -24    2    1    2    0    0 -0.35527136788E-14  0.00000000000E+00  0.20506005849E+02  0.81679631983E+02  0.79063683224E+02 0.  0.
         66    2    3    3    0    0  0.22435155103E+02  0.24127666545E+01 -0.23241844839E+02  0.32455214959E+02  0.19999997779E+01 0.  0.
         13    1    3    3    0    0 -0.22435155103E+02 -0.24127666545E+01  0.43747850689E+02  0.49224417024E+02  0.10566000000E+00 0. -1.
         13    1    4    4    0    0  0.43360443837E+01  0.60913319410E+00 -0.48723577326E+01  0.65515920246E+01  0.10566000000E+00 0. -1.
        -13    1    4    4    0    0  0.12146663031E+02  0.53195929909E+00 -0.12778675334E+02  0.17638880656E+02  0.10566000000E+00 0.  1.
        -14    1    4    4    0    0  0.59524476878E+01  0.12716741613E+01 -0.55908117729E+01  0.82647422784E+01  0.00000000000E+00 0.  1.
<mgrwt>
<rscale>  0 0.79063683E+02</rscale>
<asrwt>0</asrwt>
<pdfrwt beam="1">  1        1 0.78604335E-02 0.79063683E+02</pdfrwt>
<pdfrwt beam="2">  1       -2 0.47056636E-02 0.79063683E+02</pdfrwt>
<totfact> 0.13640438E+05</totfact>
</mgrwt>
</event>
<event>
 8    1  0.7756875E-014  0.8129238E+02  0.7818608E-02  0.1325423E+00
          1   -1    0    0  501    0  0.00000000000E+00  0.00000000000E+00  0.11596149726E+02  0.11596150821E+02  0.50400000000E-02 0. -1.
         -2   -1    0    0    0  501 -0.00000000000E+00 -0.00000000000E+00 -0.14247078793E+03  0.14247078795E+03  0.25500000000E-02 0.  1.
        -24    2    1    2    0    0  0.00000000000E+00  0.00000000000E+00 -0.13087463820E+03  0.15406693877E+03  0.81292377860E+02 0.  0.
         66    2    3    3    0    0 -0.21039572350E+02  0.14061182736E+02 -0.12569971622E+03  0.12823727663E+03  0.19999991195E+01 0.  0.
         13    1    3    3    0    0  0.21039572350E+02 -0.14061182736E+02 -0.51749219842E+01  0.25829662139E+02  0.10566000000E+00 0. -1.
         13    1    4    4    0    0 -0.11595965688E+02  0.70694858758E+01 -0.64139383831E+02  0.65561541875E+02  0.10566000000E+00 0. -1.
        -13    1    4    4    0    0 -0.63163466772E+01  0.42737335121E+01 -0.39439279568E+02  0.40170000875E+02  0.10566000000E+00 0.  1.
         14    1    4    4    0    0 -0.31272599848E+01  0.27179633481E+01 -0.22121052819E+02  0.22505733883E+02  0.00000000000E+00 0. -1.
<mgrwt>
<rscale>  0 0.81292378E+02</rscale>
<asrwt>0</asrwt>
<pdfrwt beam="1">  1        1 0.17840232E-02 0.81292378E+02</pdfrwt>
<pdfrwt beam="2">  1       -2 0.21918582E-01 0.81292378E+02</pdfrwt>
<totfact> 0.92211833E+04</totfact>
</mgrwt>
</event>
<event>
 8    1  0.7756875E-014  0.7900093E+02  0.7818608E-02  0.1331911E+00
         -2   -1    0    0    0  501 -0.00000000000E+00  0.00000000000E+00  0.86470018509E+02  0.86470018546E+02  0.25500000000E-02 0.  1.
          1   -1    0    0  501    0  0.00000000000E+00 -0.00000000000E+00 -0.18044251270E+02  0.18044251973E+02  0.50400000000E-02 0. -1.
        -24    2    1    2    0    0 -0.17763568394E-14  0.35527136788E-14  0.68425767239E+02  0.10451427052E+03  0.79000931134E+02 0.  0.
         66    2    3    3    0    0  0.14961535310E+02 -0.21095580539E+02  0.73689071096E+02  0.78121381542E+02  0.19999994570E+01 0.  0.
         13    1    3    3    0    0 -0.14961535310E+02  0.21095580539E+02 -0.52633038572E+01  0.26392888978E+02  0.10566000000E+00 0. -1.
         13    1    4    4    0    0  0.48907973497E+01 -0.78774024206E+01  0.27156503261E+02  0.28695996254E+02  0.10566000000E+00 0. -1.
        -13    1    4    4    0    0  0.41338121910E+01 -0.53798563799E+01  0.20758184432E+02  0.21839062316E+02  0.10566000000E+00 0.  1.
         14    1    4    4    0    0  0.59369257691E+01 -0.78383217383E+01  0.25774383404E+02  0.27586322972E+02  0.00000000000E+00 0. -1.
<mgrwt>
<rscale>  0 0.79000931E+02</rscale>
<asrwt>0</asrwt>
<pdfrwt beam="1">  1        1 0.27760387E-02 0.79000931E+02</pdfrwt>
<pdfrwt beam="2">  1       -2 0.13303080E-01 0.79000931E+02</pdfrwt>
<totfact> 0.11343328E+05</totfact>
</mgrwt>
</event>
<event>
 8    1  0.7756875E-014  0.7487388E+02  0.7818608E-02  0.1344262E+00
         -2   -1    0    0    0  501 -0.00000000000E+00  0.00000000000E+00  0.11554894814E+03  0.11554894817E+03  0.25500000000E-02 0.  1.
          1   -1    0    0  501    0  0.00000000000E+00 -0.00000000000E+00 -0.12129268960E+02  0.12129270007E+02  0.50400000000E-02 0. -1.
        -24    2    1    2    0    0  0.35527136788E-14  0.00000000000E+00  0.10341967918E+03  0.12767821817E+03  0.74873876315E+02 0.  0.
         66    2    3    3    0    0  0.27624921795E+02 -0.89772462278E+01  0.91948175254E+02  0.96447883235E+02  0.19999985036E+01 0.  0.
         13    1    3    3    0    0 -0.27624921795E+02  0.89772462278E+01  0.11471503926E+02  0.31230334939E+02  0.10566000000E+00 0. -1.
         13    1    4    4    0    0  0.78628139700E-01  0.10794887646E-01  0.32953189157E+00  0.35504114848E+00  0.10566000000E+00 0.  1.
        -13    1    4    4    0    0  0.97256322747E+01 -0.33432439819E+01  0.33090818854E+02  0.34652253317E+02  0.10566000000E+00 0. -1.
        -14    1    4    4    0    0  0.17820661381E+02 -0.56447971336E+01  0.58527824508E+02  0.61440588770E+02  0.00000000000E+00 0.  1.
<mgrwt>
<rscale>  0 0.74873876E+02</rscale>
<asrwt>0</asrwt>
<pdfrwt beam="1">  1        1 0.18660415E-02 0.74873876E+02</pdfrwt>
<pdfrwt beam="2">  1       -2 0.17776761E-01 0.74873876E+02</pdfrwt>
<totfact> 0.12109637E+05</totfact>
</mgrwt>
</event>
<event>
 8    1  0.7756875E-014  0.8018239E+02  0.7818608E-02  0.1328535E+00
         -2   -1    0    0    0  501 -0.00000000000E+00  0.00000000000E+00  0.10550292924E+04  0.10550292924E+04  0.25500000000E-02 0.  1.
          1   -1    0    0  501    0  0.00000000000E+00 -0.00000000000E+00 -0.15234642355E+01  0.15234725723E+01  0.50400000000E-02 0. -1.
        -24    2    1    2    0    0  0.00000000000E+00  0.00000000000E+00  0.10535058281E+04  0.10565527649E+04  0.80182387096E+02 0.  0.
         66    2    3    3    0    0  0.18820329759E+02  0.12545924300E+02  0.96285249001E+03  0.96312020154E+03  0.20000130986E+01 0.  0.
         13    1    3    3    0    0 -0.18820329759E+02 -0.12545924300E+02  0.90653338118E+02  0.93432563407E+02  0.10566000000E+00 0. -1.
         13    1    4    4    0    0  0.38596513635E+00  0.43715381918E+00  0.24059746515E+02  0.24067044666E+02  0.10566000000E+00 0. -1.
        -13    1    4    4    0    0  0.12435418872E+02  0.90474657640E+01  0.65322969780E+03  0.65341070203E+03  0.10566000000E+00 0.  1.
         14    1    4    4    0    0  0.59989457502E+01  0.30613047164E+01  0.28556304570E+03  0.28564245484E+03  0.00000000000E+00 0. -1.
<mgrwt>
<rscale>  0 0.80182387E+02</rscale>
<asrwt>0</asrwt>
<pdfrwt beam="1">  1        1 0.23437966E-03 0.80182387E+02</pdfrwt>
<pdfrwt beam="2">  1       -2 0.16231226E+00 0.80182387E+02</pdfrwt>
<totfact> 0.24323411E+04</totfact>
</mgrwt>
</event>
<event>
 8    1  0.7756875E-014  0.8215078E+02  0.7818608E-02  0.1323056E+00
          1   -1    0    0  501    0  0.00000000000E+00  0.00000000000E+00  0.80537431610E+01  0.80537447380E+01  0.50400000000E-02 0. -1.
         -2   -1    0    0    0  501 -0.00000000000E+00 -0.00000000000E+00 -0.20949110404E+03  0.20949110406E+03  0.25500000000E-02 0.  1.
        -24    2    1    2    0    0 -0.17763568394E-14  0.00000000000E+00 -0.20143736088E+03  0.21754484879E+03  0.82150781364E+02 0.  0.
         66    2    3    3    0    0 -0.83133208373E+01  0.79494277289E+01 -0.20513141149E+03  0.20546338040E+03  0.19999999736E+01 0.  0.
         13    1    3    3    0    0  0.83133208373E+01 -0.79494277289E+01  0.36940506139E+01  0.12081468393E+02  0.10566000000E+00 0. -1.
         13    1    4    4    0    0 -0.11061223988E+01  0.16346646906E+01 -0.34813468183E+02  0.34869533498E+02  0.10566000000E+00 0. -1.
        -13    1    4    4    0    0 -0.37046628385E+01  0.35045144890E+01 -0.77841054194E+02  0.78007993376E+02  0.10566000000E+00 0.  1.
         14    1    4    4    0    0 -0.35025356000E+01  0.28102485493E+01 -0.92476889117E+02  0.92585853527E+02  0.00000000000E+00 0. -1.
<mgrwt>
<rscale>  0 0.82150781E+02</rscale>
<asrwt>0</asrwt>
<pdfrwt beam="1">  1        1 0.12390377E-02 0.82150781E+02</pdfrwt>
<pdfrwt beam="2">  1       -2 0.32229397E-01 0.82150781E+02</pdfrwt>
<totfact> 0.77937605E+04</totfact>
</mgrwt>
</event>
<event>
 8    1  0.7756875E-014  0.8042684E+02  0.7818608E-02  0.1327844E+00
          1   -1    0    0  501    0  0.00000000000E+00  0.00000000000E+00  0.60063200460E+02  0.60063200672E+02  0.50400000000E-02 0. -1.
         -2   -1    0    0    0  501 -0.00000000000E+00 -0.00000000000E+00 -0.26923622842E+02  0.26923622963E+02  0.25500000000E-02 0.  1.
        -24    2    1    2    0    0  0.44408920985E-15  0.00000000000E+00  0.33139577619E+02  0.86986823634E+02  0.80426835579E+02 0.  0.
         66    2    3    3    0    0  0.20559619754E+01 -0.17769704827E+02 -0.22343169213E+02  0.28691577264E+02  0.20000015316E+01 0.  0.
         13    1    3    3    0    0 -0.20559619754E+01  0.17769704827E+02  0.55482746832E+02  0.58295246370E+02  0.10566000000E+00 0. -1.
         13    1    4    4    0    0  0.66734429035E+00 -0.55032772990E+01 -0.59245186011E+01  0.81143387976E+01  0.10566000000E+00 0.  1.
        -13    1    4    4    0    0  0.11465971808E+01 -0.53371989817E+01 -0.68205823886E+01  0.87368121315E+01  0.10566000000E+00 0. -1.
         14    1    4    4    0    0  0.24202050423E+00 -0.69292285462E+01 -0.95980682238E+01  0.11840426335E+02  0.00000000000E+00 0. -1.
<mgrwt>
<rscale>  0 0.80426836E+02</rscale>
<asrwt>0</asrwt>
<pdfrwt beam="1">  1        1 0.92404923E-02 0.80426836E+02</pdfrwt>
<pdfrwt beam="2">  1       -2 0.41420959E-02 0.80426836E+02</pdfrwt>
<totfact> 0.13343463E+05</totfact>
</mgrwt>
</event>
<event>
 8    1  0.7756875E-014  0.8079432E+02  0.7818608E-02  0.1326812E+00
         -2   -1    0    0    0  501 -0.00000000000E+00  0.00000000000E+00  0.40152303931E+01  0.40152312028E+01  0.25500000000E-02 0.  1.
          1   -1    0    0  501    0  0.00000000000E+00 -0.00000000000E+00 -0.40643505320E+03  0.40643505323E+03  0.50400000000E-02 0. -1.
        -24    2    1    2    0    0  0.00000000000E+00  0.00000000000E+00 -0.40241982281E+03  0.41045028444E+03  0.80794320370E+02 0.  0.
         66    2    3    3    0    0  0.36285442239E+02  0.17049776425E+02 -0.22548240036E+03  0.22902759891E+03  0.19999995441E+01 0.  0.
         13    1    3    3    0    0 -0.36285442239E+02 -0.17049776425E+02 -0.17693742245E+03  0.18142268552E+03  0.10566000000E+00 0. -1.
         13    1    4    4    0    0  0.38846130429E+01  0.23279822317E+01 -0.25847718574E+02  0.26241673714E+02  0.10566000000E+00 0. -1.
        -13    1    4    4    0    0  0.11781200488E+02  0.47877618914E+01 -0.69597169765E+02  0.70749533936E+02  0.10566000000E+00 0.  1.
        -14    1    4    4    0    0  0.20619628708E+02  0.99340323023E+01 -0.13003751202E+03  0.13203639126E+03  0.00000000000E+00 0.  1.
<mgrwt>
<rscale>  0 0.80794320E+02</rscale>
<asrwt>0</asrwt>
<pdfrwt beam="1">  1        1 0.62528437E-01 0.80794320E+02</pdfrwt>
<pdfrwt beam="2">  1       -2 0.61772814E-03 0.80794320E+02</pdfrwt>
<totfact> 0.18554832E+05</totfact>
</mgrwt>
</event>
<event>
 8    1  0.7756875E-014  0.8060185E+02  0.7818608E-02  0.1327352E+00
         -2   -1    0    0    0  501 -0.00000000000E+00  0.00000000000E+00  0.35355558977E+03  0.35355558978E+03  0.25500000000E-02 0.  1.
          1   -1    0    0  501    0  0.00000000000E+00 -0.00000000000E+00 -0.45938013207E+01  0.45938040855E+01  0.50400000000E-02 0. -1.
        -24    2    1    2    0    0 -0.10658141036E-13  0.35527136788E-14  0.34896178845E+03  0.35814939386E+03  0.80601851888E+02 0.  0.
         66    2    3    3    0    0 -0.25878463582E+02  0.16827544658E+02  0.28954335827E+03  0.29119103258E+03  0.20000003365E+01 0.  0.
         13    1    3    3    0    0  0.25878463582E+02 -0.16827544658E+02  0.59418430176E+02  0.66958361279E+02  0.10566000000E+00 0. -1.
         13    1    4    4    0    0 -0.14802754586E+01  0.13161554435E+01  0.17451428342E+02  0.17563797875E+02  0.10566000000E+00 0. -1.
        -13    1    4    4    0    0 -0.18318776152E+01  0.15268917507E+01  0.24535918467E+02  0.24651767342E+02  0.10566000000E+00 0.  1.
        -14    1    4    4    0    0 -0.22566310508E+02  0.13984497464E+02  0.24755601146E+03  0.24897546737E+03  0.00000000000E+00 0.  1.
<mgrwt>
<rscale>  0 0.80601852E+02</rscale>
<asrwt>0</asrwt>
<pdfrwt beam="1">  1        1 0.70673878E-03 0.80601852E+02</pdfrwt>
<pdfrwt beam="2">  1       -2 0.54393175E-01 0.80601852E+02</pdfrwt>
<totfact> 0.62693915E+04</totfact>
</mgrwt>
</event>
<event>
 8    1  0.7756875E-014  0.7752074E+02  0.7818608E-02  0.1336238E+00
          1   -1    0    0  501    0  0.00000000000E+00  0.00000000000E+00  0.38958295740E+02  0.38958296066E+02  0.50400000000E-02 0. -1.
         -2   -1    0    0    0  501 -0.00000000000E+00 -0.00000000000E+00 -0.38563450928E+02  0.38563451012E+02  0.25500000000E-02 0.  1.
        -24    2    1    2    0    0  0.00000000000E+00  0.00000000000E+00  0.39484481188E+00  0.77521747078E+02  0.77520741531E+02 0.  0.
         66    2    3    3    0    0  0.35147624326E+02 -0.10501517463E+02 -0.12241420450E+02  0.38723245449E+02  0.19999996636E+01 0.  0.
         13    1    3    3    0    0 -0.35147624326E+02  0.10501517463E+02  0.12636265262E+02  0.38798501629E+02  0.10566000000E+00 0. -1.
         13    1    4    4    0    0  0.54980507493E+01 -0.21848449303E+01 -0.16868717628E+01  0.61529513073E+01  0.10566000000E+00 0. -1.
        -13    1    4    4    0    0  0.16925504011E+02 -0.42810278261E+01 -0.56848918669E+01  0.18361074175E+02  0.10566000000E+00 0.  1.
        -14    1    4    4    0    0  0.12724069566E+02 -0.40356447071E+01 -0.48696568207E+01  0.14209219967E+02  0.00000000000E+00 0.  1.
<mgrwt>
<rscale>  0 0.77520742E+02</rscale>
<asrwt>0</asrwt>
<pdfrwt beam="1">  1        1 0.59935840E-02 0.77520742E+02</pdfrwt>
<pdfrwt beam="2">  1       -2 0.59328386E-02 0.77520742E+02</pdfrwt>
<totfact> 0.13814026E+05</totfact>
</mgrwt>
</event>
<event>
 8    1  0.7756875E-014  0.8368033E+02  0.7818608E-02  0.1318920E+00
          1   -1    0    0  501    0  0.00000000000E+00  0.00000000000E+00  0.17720329373E+03  0.17720329380E+03  0.50400000000E-02 0. -1.
         -2   -1    0    0    0  501 -0.00000000000E+00 -0.00000000000E+00 -0.98790449445E+01  0.98790452736E+01  0.25500000000E-02 0.  1.
        -24    2    1    2    0    0  0.00000000000E+00  0.00000000000E+00  0.16732424879E+03  0.18708233908E+03  0.83680328407E+02 0.  0.
         66    2    3    3    0    0 -0.10399427199E+02 -0.26815234658E+02  0.15847097954E+02  0.32898866277E+02  0.19999982305E+01 0.  0.
         13    1    3    3    0    0  0.10399427199E+02  0.26815234658E+02  0.15147715083E+03  0.15418347280E+03  0.10566000000E+00 0. -1.
         13    1    4    4    0    0 -0.87802927146E+00 -0.15054510826E+01  0.12495926379E+01  0.21470827092E+01  0.10566000000E+00 0. -1.
        -13    1    4    4    0    0 -0.48086875460E+01 -0.11659569899E+02  0.63349332462E+01  0.14114233575E+02  0.10566000000E+00 0.  1.
        -14    1    4    4    0    0 -0.47127103818E+01 -0.13650213677E+02  0.82625720694E+01  0.16637549993E+02  0.00000000000E+00 0.  1.
<mgrwt>
<rscale>  0 0.83680328E+02</rscale>
<asrwt>0</asrwt>
<pdfrwt beam="1">  1        1 0.27262044E-01 0.83680328E+02</pdfrwt>
<pdfrwt beam="2">  1       -2 0.15198532E-02 0.83680328E+02</pdfrwt>
<totfact> 0.14446991E+05</totfact>
</mgrwt>
</event>
<event>
 8    1  0.7756875E-014  0.7919674E+02  0.7818608E-02  0.1331347E+00
          1   -1    0    0  501    0  0.00000000000E+00  0.00000000000E+00  0.44788810780E+02  0.44788811064E+02  0.50400000000E-02 0. -1.
         -2   -1    0    0    0  501 -0.00000000000E+00 -0.00000000000E+00 -0.35009437841E+02  0.35009437934E+02  0.25500000000E-02 0.  1.
        -24    2    1    2    0    0 -0.17763568394E-14  0.00000000000E+00  0.97793729390E+01  0.79798248998E+02  0.79196744933E+02 0.  0.
         66    2    3    3    0    0 -0.11957050603E+02 -0.36654237844E+02  0.13878032879E+02  0.41025650576E+02  0.19999993809E+01 0.  0.
         13    1    3    3    0    0  0.11957050603E+02  0.36654237844E+02 -0.40986599395E+01  0.38772598422E+02  0.10566000000E+00 0. -1.
         13    1    4    4    0    0 -0.22075430933E+01 -0.73352298619E+01  0.34269350698E+01  0.83924901933E+01  0.10566000000E+00 0. -1.
        -13    1    4    4    0    0 -0.19573719392E+01 -0.49958827755E+01  0.20772000998E+01  0.57546567148E+01  0.10566000000E+00 0.  1.
        -14    1    4    4    0    0 -0.77921355700E+01 -0.24323125207E+02  0.83738977089E+01  0.26878503668E+02  0.00000000000E+00 0.  1.
<mgrwt>
<rscale>  0 0.79196745E+02</rscale>
<asrwt>0</asrwt>
<pdfrwt beam="1">  1        1 0.68905863E-02 0.79196745E+02</pdfrwt>
<pdfrwt beam="2">  1       -2 0.53860674E-02 0.79196745E+02</pdfrwt>
<totfact> 0.13300200E+05</totfact>
</mgrwt>
</event>
<event>
 8    1  0.7756875E-014  0.7905730E+02  0.7818608E-02  0.1331748E+00
          1   -1    0    0  501    0  0.00000000000E+00  0.00000000000E+00  0.13031272240E+02  0.13031273215E+02  0.50400000000E-02 0. -1.
         -2   -1    0    0    0  501 -0.00000000000E+00 -0.00000000000E+00 -0.11990495754E+03  0.11990495757E+03  0.25500000000E-02 0.  1.
        -24    2    1    2    0    0  0.17763568394E-14 -0.35527136788E-14 -0.10687368530E+03  0.13293623079E+03  0.79057301024E+02 0.  0.
         66    2    3    3    0    0  0.10973370491E+02 -0.30392907126E+02 -0.91681209619E+02  0.97229562712E+02  0.20000011034E+01 0.  0.
         13    1    3    3    0    0 -0.10973370491E+02  0.30392907126E+02 -0.15192475685E+02  0.35706668074E+02  0.10566000000E+00 0. -1.
         13    1    4    4    0    0  0.12253316070E+01 -0.46981980300E+01 -0.13384181429E+02  0.14238046876E+02  0.10566000000E+00 0. -1.
        -13    1    4    4    0    0  0.26346963505E+01 -0.66212098027E+01 -0.22129195026E+02  0.23248537172E+02  0.10566000000E+00 0.  1.
        -14    1    4    4    0    0  0.71133425334E+01 -0.19073499293E+02 -0.56167833164E+02  0.59742978664E+02  0.00000000000E+00 0.  1.
<mgrwt>
<rscale>  0 0.79057301E+02</rscale>
<asrwt>0</asrwt>
<pdfrwt beam="1">  1        1 0.20048113E-02 0.79057301E+02</pdfrwt>
<pdfrwt beam="2">  1       -2 0.18446916E-01 0.79057301E+02</pdfrwt>
<totfact> 0.10429241E+05</totfact>
</mgrwt>
</event>
<event>
 8    1  0.7756875E-014  0.8074496E+02  0.7818608E-02  0.1326951E+00
          1   -1    0    0  501    0  0.00000000000E+00  0.00000000000E+00  0.12407806743E+03  0.12407806753E+03  0.50400000000E-02 0. -1.
         -2   -1    0    0    0  501 -0.00000000000E+00 -0.00000000000E+00 -0.13136382879E+02  0.13136383126E+02  0.25500000000E-02 0.  1.
        -24    2    1    2    0    0  0.00000000000E+00  0.00000000000E+00  0.11094168455E+03  0.13721445065E+03  0.80744957108E+02 0.  0.
         66    2    3    3    0    0 -0.19986903926E+01  0.39988415209E+02  0.47031152388E+02  0.61798037328E+02  0.20000020867E+01 0.  0.
         13    1    3    3    0    0  0.19986903926E+01 -0.39988415209E+02  0.63910532159E+02  0.75416413327E+02  0.10566000000E+00 0. -1.
         13    1    4    4    0    0 -0.16101980740E+01  0.23635458261E+02  0.27860395834E+02  0.36571032869E+02  0.10566000000E+00 0. -1.
        -13    1    4    4    0    0 -0.68838692146E+00  0.14771781964E+02  0.17259923153E+02  0.22728737981E+02  0.10566000000E+00 0.  1.
         14    1    4    4    0    0  0.29989460283E+00  0.15811749849E+01  0.19108334013E+01  0.24982664776E+01  0.00000000000E+00 0. -1.
<mgrwt>
<rscale>  0 0.80744957E+02</rscale>
<asrwt>0</asrwt>
<pdfrwt beam="1">  1        1 0.19088933E-01 0.80744957E+02</pdfrwt>
<pdfrwt beam="2">  1       -2 0.20209821E-02 0.80744957E+02</pdfrwt>
<totfact> 0.14880730E+05</totfact>
</mgrwt>
</event>
<event>
 8    1  0.7756875E-014  0.8712361E+02  0.7818608E-02  0.1309971E+00
         -2   -1    0    0    0  501 -0.00000000000E+00  0.00000000000E+00  0.20872576054E+03  0.20872576056E+03  0.25500000000E-02 0.  1.
          1   -1    0    0  501    0  0.00000000000E+00 -0.00000000000E+00 -0.90915020856E+01  0.90915034826E+01  0.50400000000E-02 0. -1.
        -24    2    1    2    0    0  0.00000000000E+00  0.00000000000E+00  0.19963425846E+03  0.21781726404E+03  0.87123609685E+02 0.  0.
         66    2    3    3    0    0 -0.37712844094E+02  0.18653825768E+02  0.12786639598E+03  0.13462555127E+03  0.20000019847E+01 0.  0.
         13    1    3    3    0    0  0.37712844094E+02 -0.18653825768E+02  0.71767862474E+02  0.83191712770E+02  0.10566000000E+00 0. -1.
         13    1    4    4    0    0 -0.15156580444E+02  0.69362113770E+01  0.49193056527E+02  0.51940359390E+02  0.10566000000E+00 0.  1.
        -13    1    4    4    0    0 -0.18463785672E+02  0.10051115460E+02  0.65365869233E+02  0.68663267676E+02  0.10566000000E+00 0. -1.
         14    1    4    4    0    0 -0.40924779777E+01  0.16664989312E+01  0.13307470224E+02  0.14021924206E+02  0.00000000000E+00 0. -1.
<mgrwt>
<rscale>  0 0.87123610E+02</rscale>
<asrwt>0</asrwt>
<pdfrwt beam="1">  1        1 0.13986927E-02 0.87123610E+02</pdfrwt>
<pdfrwt beam="2">  1       -2 0.32111656E-01 0.87123610E+02</pdfrwt>
<totfact> 0.67039690E+04</totfact>
</mgrwt>
</event>
<event>
 8    1  0.7756875E-014  0.8075390E+02  0.7818608E-02  0.1326926E+00
          1   -1    0    0  501    0  0.00000000000E+00  0.00000000000E+00  0.24096683814E+03  0.24096683819E+03  0.50400000000E-02 0. -1.
         -2   -1    0    0    0  501 -0.00000000000E+00 -0.00000000000E+00 -0.67656524709E+01  0.67656529515E+01  0.25500000000E-02 0.  1.
        -24    2    1    2    0    0  0.00000000000E+00  0.35527136788E-14  0.23420118567E+03  0.24773249114E+03  0.80753896498E+02 0.  0.
         66    2    3    3    0    0  0.38458419128E+02  0.12215961947E+02  0.11752518907E+03  0.12427570083E+03  0.20000057180E+01 0.  0.
         13    1    3    3    0    0 -0.38458419128E+02 -0.12215961947E+02  0.11667599660E+03  0.12345679031E+03  0.10566000000E+00 0. -1.
         13    1    4    4    0    0  0.20188492270E+02  0.60179161247E+01  0.63263382530E+02  0.66678761745E+02  0.10566000000E+00 0. -1.
        -13    1    4    4    0    0  0.16540014131E+02  0.53304325143E+01  0.48604559371E+02  0.51617825738E+02  0.10566000000E+00 0.  1.
         14    1    4    4    0    0  0.17299127267E+01  0.86761330839E+00  0.56572471666E+01  0.59791133456E+01  0.00000000000E+00 0. -1.
<mgrwt>
<rscale>  0 0.80753896E+02</rscale>
<asrwt>0</asrwt>
<pdfrwt beam="1">  1        1 0.37071817E-01 0.80753896E+02</pdfrwt>
<pdfrwt beam="2">  1       -2 0.10408698E-02 0.80753896E+02</pdfrwt>
<totfact> 0.16866769E+05</totfact>
</mgrwt>
</event>
<event>
 8    1  0.7756875E-014  0.8032108E+02  0.7818608E-02  0.1328143E+00
          1   -1    0    0  501    0  0.00000000000E+00  0.00000000000E+00  0.45195062705E+02  0.45195062986E+02  0.50400000000E-02 0. -1.
         -2   -1    0    0    0  501 -0.00000000000E+00 -0.00000000000E+00 -0.35686842417E+02  0.35686842508E+02  0.25500000000E-02 0.  1.
        -24    2    1    2    0    0 -0.17763568394E-14  0.00000000000E+00  0.95082202879E+01  0.80881905495E+02  0.80321083057E+02 0.  0.
         66    2    3    3    0    0  0.79592240488E+01 -0.11574362510E+02 -0.33102657921E+02  0.36015289612E+02  0.20000023570E+01 0.  0.
         13    1    3    3    0    0 -0.79592240488E+01  0.11574362510E+02  0.42610878209E+02  0.44866615883E+02  0.10566000000E+00 0. -1.
         13    1    4    4    0    0  0.72689999009E+00 -0.57379917568E+00 -0.17168596419E+01  0.19535608911E+01  0.10566000000E+00 0. -1.
        -13    1    4    4    0    0  0.48062241565E+00 -0.56963797158E+00 -0.26447110647E+01  0.27497538029E+01  0.10566000000E+00 0.  1.
        -14    1    4    4    0    0  0.67517016431E+01 -0.10430925363E+02 -0.28741087214E+02  0.31311974918E+02  0.00000000000E+00 0.  1.
<mgrwt>
<rscale>  0 0.80321083E+02</rscale>
<asrwt>0</asrwt>
<pdfrwt beam="1">  1        1 0.69530866E-02 0.80321083E+02</pdfrwt>
<pdfrwt beam="2">  1       -2 0.54902834E-02 0.80321083E+02</pdfrwt>
<totfact> 0.12804462E+05</totfact>
</mgrwt>
</event>
<event>
 8    1  0.7756875E-014  0.7853481E+02  0.7818608E-02  0.1333262E+00
          1   -1    0    0  501    0  0.00000000000E+00  0.00000000000E+00  0.42398555492E+02  0.42398555791E+02  0.50400000000E-02 0. -1.
         -2   -1    0    0    0  501 -0.00000000000E+00 -0.00000000000E+00 -0.36367487955E+02  0.36367488044E+02  0.25500000000E-02 0.  1.
        -24    2    1    2    0    0  0.27755575616E-16  0.00000000000E+00  0.60310675366E+01  0.78766043836E+02  0.78534806843E+02 0.  0.
         66    2    3    3    0    0 -0.29273044478E-01  0.19441321778E+02 -0.31170390745E+02  0.36790747390E+02  0.19999962310E+01 0.  0.
         13    1    3    3    0    0  0.29273044478E-01 -0.19441321778E+02  0.37201458282E+02  0.41975296446E+02  0.10566000000E+00 0. -1.
         13    1    4    4    0    0  0.70320549182E+00  0.53662482353E+01 -0.81089859896E+01  0.97497659409E+01  0.10566000000E+00 0. -1.
        -13    1    4    4    0    0 -0.64310915383E+00  0.95195972194E+01 -0.16304328159E+02  0.18891230806E+02  0.10566000000E+00 0.  1.
        -14    1    4    4    0    0 -0.89369382466E-01  0.45554763229E+01 -0.67570765968E+01  0.81497506434E+01  0.00000000000E+00 0.  1.
<mgrwt>
<rscale>  0 0.78534807E+02</rscale>
<asrwt>0</asrwt>
<pdfrwt beam="1">  1        1 0.65228548E-02 0.78534807E+02</pdfrwt>
<pdfrwt beam="2">  1       -2 0.55949981E-02 0.78534807E+02</pdfrwt>
<totfact> 0.13498904E+05</totfact>
</mgrwt>
</event>
<event>
 8    1  0.7756875E-014  0.8148919E+02  0.7818608E-02  0.1324878E+00
          1   -1    0    0  501    0  0.00000000000E+00  0.00000000000E+00  0.25156965152E+02  0.25156965656E+02  0.50400000000E-02 0. -1.
         -2   -1    0    0    0  501 -0.00000000000E+00 -0.00000000000E+00 -0.65990545926E+02  0.65990545975E+02  0.25500000000E-02 0.  1.
        -24    2    1    2    0    0  0.35527136788E-14  0.00000000000E+00 -0.40833580774E+02  0.91147511632E+02  0.81489186754E+02 0.  0.
         66    2    3    3    0    0 -0.17465031071E+02  0.32325645131E+02 -0.40063582633E+02  0.54397291161E+02  0.19999972223E+01 0.  0.
         13    1    3    3    0    0  0.17465031071E+02 -0.32325645131E+02 -0.76999814179E+00  0.36750220470E+02  0.10566000000E+00 0. -1.
         13    1    4    4    0    0 -0.63664869981E+01  0.11874434674E+02 -0.13384250574E+02  0.18991674044E+02  0.10566000000E+00 0. -1.
        -13    1    4    4    0    0 -0.43691895440E+01  0.81439173157E+01 -0.11009527571E+02  0.14374771925E+02  0.10566000000E+00 0.  1.
         14    1    4    4    0    0 -0.67293545286E+01  0.12307293141E+02 -0.15669804488E+02  0.21030845193E+02  0.00000000000E+00 0. -1.
<mgrwt>
<rscale>  0 0.81489187E+02</rscale>
<asrwt>0</asrwt>
<pdfrwt beam="1">  1        1 0.38703024E-02 0.81489187E+02</pdfrwt>
<pdfrwt beam="2">  1       -2 0.10152392E-01 0.81489187E+02</pdfrwt>
<totfact> 0.11094676E+05</totfact>
</mgrwt>
</event>
<event>
 8    1  0.7756875E-014  0.8013764E+02  0.7818608E-02  0.1328661E+00
          1   -1    0    0  501    0  0.00000000000E+00  0.00000000000E+00  0.25834144642E+02  0.25834145134E+02  0.50400000000E-02 0. -1.
         -2   -1    0    0    0  501 -0.00000000000E+00 -0.00000000000E+00 -0.62146832866E+02  0.62146832918E+02  0.25500000000E-02 0.  1.
        -24    2    1    2    0    0  0.00000000000E+00  0.00000000000E+00 -0.36312688224E+02  0.87980978052E+02  0.80137638928E+02 0.  0.
         66    2    3    3    0    0 -0.54209020807E+01 -0.39481301460E+02 -0.13866817621E+02  0.42242726933E+02  0.20000008651E+01 0.  0.
         13    1    3    3    0    0  0.54209020807E+01  0.39481301460E+02 -0.22445870603E+02  0.45738251120E+02  0.10566000000E+00 0. -1.
         13    1    4    4    0    0 -0.67255068115E+00 -0.75195080704E+01 -0.19456200210E+01  0.77969178103E+01  0.10566000000E+00 0. -1.
        -13    1    4    4    0    0 -0.53058797403E+00 -0.29426657693E+01 -0.11877857070E+01  0.32191309929E+01  0.10566000000E+00 0.  1.
         14    1    4    4    0    0 -0.42177634255E+01 -0.29019127620E+02 -0.10733411893E+02  0.31226678130E+02  0.00000000000E+00 0. -1.
<mgrwt>
<rscale>  0 0.80137639E+02</rscale>
<asrwt>0</asrwt>
<pdfrwt beam="1">  1        1 0.39744839E-02 0.80137639E+02</pdfrwt>
<pdfrwt beam="2">  1       -2 0.95610512E-02 0.80137639E+02</pdfrwt>
<totfact> 0.11709876E+05</totfact>
</mgrwt>
</event>
<event>
 8    1  0.7756875E-014  0.8108785E+02  0.7818608E-02  0.1325992E+00
         -2   -1    0    0    0  501 -0.00000000000E+00  0.00000000000E+00  0.90845720714E+01  0.90845724293E+01  0.25500000000E-02 0.  1.
          1   -1    0    0  501    0  0.00000000000E+00 -0.00000000000E+00 -0.18094522386E+03  0.18094522393E+03  0.50400000000E-02 0. -1.
        -24    2    1    2    0    0  0.00000000000E+00  0.71054273576E-14 -0.17186065178E+03  0.19002979635E+03  0.81087852796E+02 0.  0.
         66    2    3    3    0    0 -0.61630250946E+01 -0.37517046219E+02 -0.53148839875E+02  0.65378213589E+02  0.19999991872E+01 0.  0.
         13    1    3    3    0    0  0.61630250946E+01  0.37517046219E+02 -0.11871181191E+03  0.12465158277E+03  0.10566000000E+00 0. -1.
         13    1    4    4    0    0 -0.97081819475E-01 -0.39007849784E+01 -0.57933487770E+01  0.69856712215E+01  0.10566000000E+00 0. -1.
        -13    1    4    4    0    0 -0.15668465193E+01 -0.99498644317E+01 -0.14063108680E+02  0.17298468140E+02  0.10566000000E+00 0.  1.
         14    1    4    4    0    0 -0.44990967559E+01 -0.23666396808E+02 -0.33292382418E+02  0.41094074227E+02  0.00000000000E+00 0. -1.
<mgrwt>
<rscale>  0 0.81087853E+02</rscale>
<asrwt>0</asrwt>
<pdfrwt beam="1">  1        1 0.27837724E-01 0.81087853E+02</pdfrwt>
<pdfrwt beam="2">  1       -2 0.13976266E-02 0.81087853E+02</pdfrwt>
<totfact> 0.15777103E+05</totfact>
</mgrwt>
</event>
<event>
 8    1  0.7756875E-014  0.8862519E+02  0.7818608E-02  0.1306216E+00
          1   -1    0    0  501    0  0.00000000000E+00  0.00000000000E+00  0.79767638260E+02  0.79767638419E+02  0.50400000000E-02 0. -1.
         -2   -1    0    0    0  501 -0.00000000000E+00 -0.00000000000E+00 -0.24616575192E+02  0.24616575324E+02  0.25500000000E-02 0.  1.
        -24    2    1    2    0    0  0.00000000000E+00 -0.71054273576E-14  0.55151063068E+02  0.10438421374E+03  0.88625190106E+02 0.  0.
         66    2    3    3    0    0  0.13931737335E+02 -0.42003757493E+02  0.25485210165E+02  0.51106798818E+02  0.19999998895E+01 0.  0.
         13    1    3    3    0    0 -0.13931737335E+02  0.42003757493E+02  0.29665852903E+02  0.53277414926E+02  0.10566000000E+00 0. -1.
         13    1    4    4    0    0  0.19652569302E+01 -0.61790249756E+01  0.44042178973E+01  0.78390614090E+01  0.10566000000E+00 0.  1.
        -13    1    4    4    0    0  0.10234687380E+02 -0.31659592843E+02  0.18462187856E+02  0.38051835556E+02  0.10566000000E+00 0. -1.
         14    1    4    4    0    0  0.17317930250E+01 -0.41651396746E+01  0.26188044114E+01  0.52159018525E+01  0.00000000000E+00 0. -1.
<mgrwt>
<rscale>  0 0.88625190E+02</rscale>
<asrwt>0</asrwt>
<pdfrwt beam="1">  1        1 0.12271945E-01 0.88625190E+02</pdfrwt>
<pdfrwt beam="2">  1       -2 0.37871654E-02 0.88625190E+02</pdfrwt>
<totfact> 0.10693201E+05</totfact>
</mgrwt>
</event>
<event>
 8    1  0.7756875E-014  0.8176730E+02  0.7818608E-02  0.1324110E+00
          1   -1    0    0  501    0  0.00000000000E+00  0.00000000000E+00  0.90733873379E+02  0.90733873519E+02  0.50400000000E-02 0. -1.
         -2   -1    0    0    0  501 -0.00000000000E+00 -0.00000000000E+00 -0.18421705834E+02  0.18421706011E+02  0.25500000000E-02 0.  1.
        -24    2    1    2    0    0  0.14210854715E-13  0.35527136788E-14  0.72312167545E+02  0.10915557953E+03  0.81767297665E+02 0.  0.
         66    2    3    3    0    0  0.35662558049E+02  0.18843391064E+02  0.27467008575E+02  0.48839819728E+02  0.19999993977E+01 0.  0.
         13    1    3    3    0    0 -0.35662558049E+02 -0.18843391064E+02  0.44845158970E+02  0.60315759802E+02  0.10566000000E+00 0. -1.
         13    1    4    4    0    0  0.70518178390E+01  0.35121761293E+01  0.59882588097E+01  0.98961570119E+01  0.10566000000E+00 0. -1.
        -13    1    4    4    0    0  0.16336190178E+01  0.99103014029E+00  0.15968910485E+01  0.24924038378E+01  0.10566000000E+00 0.  1.
        -14    1    4    4    0    0  0.26977121192E+02  0.14340184794E+02  0.19881858717E+02  0.36451258878E+02  0.00000000000E+00 0.  1.
<mgrwt>
<rscale>  0 0.81767298E+02</rscale>
<asrwt>0</asrwt>
<pdfrwt beam="1">  1        1 0.13959057E-01 0.81767298E+02</pdfrwt>
<pdfrwt beam="2">  1       -2 0.28341086E-02 0.81767298E+02</pdfrwt>
<totfact> 0.13629907E+05</totfact>
</mgrwt>
</event>
<event>
 8    1  0.7756875E-014  0.8110933E+02  0.7818608E-02  0.1325932E+00
          1   -1    0    0  501    0  0.00000000000E+00  0.00000000000E+00  0.23176787798E+03  0.23176787803E+03  0.50400000000E-02 0. -1.
         -2   -1    0    0    0  501 -0.00000000000E+00 -0.00000000000E+00 -0.70962406978E+01  0.70962411560E+01  0.25500000000E-02 0.  1.
        -24    2    1    2    0    0 -0.35527136788E-14  0.00000000000E+00  0.22467163728E+03  0.23886411919E+03  0.81109326453E+02 0.  0.
         66    2    3    3    0    0  0.23338914656E+02  0.26779652711E+02  0.16987384684E+03  0.17355972625E+03  0.19999993016E+01 0.  0.
         13    1    3    3    0    0 -0.23338914656E+02 -0.26779652711E+02  0.54797790436E+02  0.65304392940E+02  0.10566000000E+00 0. -1.
         13    1    4    4    0    0  0.45520975457E+01  0.48574240829E+01  0.28959431414E+02  0.29714911958E+02  0.10566000000E+00 0. -1.
        -13    1    4    4    0    0  0.24672036640E+01  0.30081139943E+01  0.20551233659E+02  0.20916505747E+02  0.10566000000E+00 0.  1.
        -14    1    4    4    0    0  0.16319613446E+02  0.18914114633E+02  0.12036318177E+03  0.12292830854E+03  0.00000000000E+00 0.  1.
<mgrwt>
<rscale>  0 0.81109326E+02</rscale>
<asrwt>0</asrwt>
<pdfrwt beam="1">  1        1 0.35656591E-01 0.81109326E+02</pdfrwt>
<pdfrwt beam="2">  1       -2 0.10917296E-02 0.81109326E+02</pdfrwt>
<totfact> 0.16545075E+05</totfact>
</mgrwt>
</event>
<event>
 8    1  0.7756875E-014  0.7947662E+02  0.7818608E-02  0.1330543E+00
          1   -1    0    0  501    0  0.00000000000E+00  0.00000000000E+00  0.18666020259E+03  0.18666020266E+03  0.50400000000E-02 0. -1.
         -2   -1    0    0    0  501 -0.00000000000E+00 -0.00000000000E+00 -0.84599359147E+01  0.84599362990E+01  0.25500000000E-02 0.  1.
        -24    2    1    2    0    0  0.71054273576E-14  0.00000000000E+00  0.17820026668E+03  0.19512013896E+03  0.79476622875E+02 0.  0.
         66    2    3    3    0    0  0.33392681814E+02 -0.67207872817E+01  0.39029304515E+02  0.51841361557E+02  0.19999942040E+01 0.  0.
         13    1    3    3    0    0 -0.33392681814E+02  0.67207872817E+01  0.13917096216E+03  0.14327877740E+03  0.10566000000E+00 0. -1.
         13    1    4    4    0    0  0.12778531386E+02 -0.33761340575E+01  0.14327823391E+02  0.19493250953E+02  0.10566000000E+00 0. -1.
        -13    1    4    4    0    0  0.12757123380E+02 -0.19274680268E+01  0.15203559447E+02  0.19940378978E+02  0.10566000000E+00 0.  1.
         14    1    4    4    0    0  0.78570270476E+01 -0.14171851974E+01  0.94979216768E+01  0.12407731625E+02  0.00000000000E+00 0. -1.
<mgrwt>
<rscale>  0 0.79476623E+02</rscale>
<asrwt>0</asrwt>
<pdfrwt beam="1">  1        1 0.28716953E-01 0.79476623E+02</pdfrwt>
<pdfrwt beam="2">  1       -2 0.13015287E-02 0.79476623E+02</pdfrwt>
<totfact> 0.16742372E+05</totfact>
</mgrwt>
</event>
<event>
 8    1  0.7756875E-014  0.7878895E+02  0.7818608E-02  0.1332524E+00
         -2   -1    0    0    0  501 -0.00000000000E+00  0.00000000000E+00  0.21340859615E+02  0.21340859767E+02  0.25500000000E-02 0.  1.
          1   -1    0    0  501    0  0.00000000000E+00 -0.00000000000E+00 -0.72720815222E+02  0.72720815396E+02  0.50400000000E-02 0. -1.
        -24    2    1    2    0    0 -0.35527136788E-14 -0.35527136788E-14 -0.51379955607E+02  0.94061675164E+02  0.78788951614E+02 0.  0.
         66    2    3    3    0    0 -0.30046915699E+02 -0.20160867638E+02 -0.44226151702E+02  0.57177182470E+02  0.19999934684E+01 0.  0.
         13    1    3    3    0    0  0.30046915699E+02  0.20160867638E+02 -0.71538039045E+01  0.36884492694E+02  0.10566000000E+00 0. -1.
         13    1    4    4    0    0 -0.18189514113E+02 -0.11968830347E+02 -0.26768068228E+02  0.34505825077E+02  0.10566000000E+00 0. -1.
        -13    1    4    4    0    0 -0.61218116202E+01 -0.35929136948E+01 -0.80947338933E+01  0.10766684131E+02  0.10566000000E+00 0.  1.
         14    1    4    4    0    0 -0.57355899658E+01 -0.45991235960E+01 -0.93633495812E+01  0.11904673263E+02  0.00000000000E+00 0. -1.
<mgrwt>
<rscale>  0 0.78788952E+02</rscale>
<asrwt>0</asrwt>
<pdfrwt beam="1">  1        1 0.11187818E-01 0.78788952E+02</pdfrwt>
<pdfrwt beam="2">  1       -2 0.32832092E-02 0.78788952E+02</pdfrwt>
<totfact> 0.14548341E+05</totfact>
</mgrwt>
</event>
<event>
 8    1  0.7756875E-014  0.8092188E+02  0.7818608E-02  0.1326455E+00
          1   -1    0    0  501    0  0.00000000000E+00  0.00000000000E+00  0.72477954472E+01  0.72477971996E+01  0.50400000000E-02 0. -1.
         -2   -1    0    0    0  501 -0.00000000000E+00 -0.00000000000E+00 -0.22587387023E+03  0.22587387024E+03  0.25500000000E-02 0.  1.
        -24    2    1    2    0    0  0.17763568394E-14  0.35527136788E-14 -0.21862607478E+03  0.23312166744E+03  0.80921883671E+02 0.  0.
         66    2    3    3    0    0  0.12895264339E+02  0.29781040711E+02 -0.39887578607E+02  0.51460831248E+02  0.19999993484E+01 0.  0.
         13    1    3    3    0    0 -0.12895264339E+02 -0.29781040711E+02 -0.17873849617E+03  0.18166083619E+03  0.10566000000E+00 0. -1.
         13    1    4    4    0    0  0.11288116195E+02  0.25009397449E+02 -0.34166363507E+02  0.43820578354E+02  0.10566000000E+00 0. -1.
        -13    1    4    4    0    0  0.82072313410E+00  0.31993399384E+01 -0.38091754105E+01  0.50428507660E+01  0.10566000000E+00 0.  1.
         14    1    4    4    0    0  0.78642501005E+00  0.15723033236E+01 -0.19120396902E+01  0.25974021280E+01  0.00000000000E+00 0. -1.
<mgrwt>
<rscale>  0 0.80921884E+02</rscale>
<asrwt>0</asrwt>
<pdfrwt beam="1">  1        1 0.11150458E-02 0.80921884E+02</pdfrwt>
<pdfrwt beam="2">  1       -2 0.34749821E-01 0.80921884E+02</pdfrwt>
<totfact> 0.78442491E+04</totfact>
</mgrwt>
</event>
<event>
 8    1  0.7756875E-014  0.7945846E+02  0.7818608E-02  0.1330595E+00
         -2   -1    0    0    0  501 -0.00000000000E+00  0.00000000000E+00  0.18560842754E+02  0.18560842929E+02  0.25500000000E-02 0.  1.
          1   -1    0    0  501    0  0.00000000000E+00 -0.00000000000E+00 -0.85039881246E+02  0.85039881396E+02  0.50400000000E-02 0. -1.
        -24    2    1    2    0    0  0.00000000000E+00  0.00000000000E+00 -0.66479038492E+02  0.10360072433E+03  0.79458464130E+02 0.  0.
         66    2    3    3    0    0  0.38918688574E+02  0.77434421634E+01 -0.31520149029E+02  0.50716318936E+02  0.19999986701E+01 0.  0.
         13    1    3    3    0    0 -0.38918688574E+02 -0.77434421634E+01 -0.34958889463E+02  0.52884405389E+02  0.10566000000E+00 0. -1.
         13    1    4    4    0    0  0.59019689271E+01  0.12993072851E+01 -0.50937444613E+01  0.79043553380E+01  0.10566000000E+00 0. -1.
        -13    1    4    4    0    0  0.83179811588E+01  0.18559453079E+01 -0.75940277836E+01  0.11415505488E+02  0.10566000000E+00 0.  1.
         14    1    4    4    0    0  0.24698738488E+02  0.45881895703E+01 -0.18832376784E+02  0.31396458109E+02  0.00000000000E+00 0. -1.
<mgrwt>
<rscale>  0 0.79458464E+02</rscale>
<asrwt>0</asrwt>
<pdfrwt beam="1">  1        1 0.13083059E-01 0.79458464E+02</pdfrwt>
<pdfrwt beam="2">  1       -2 0.28555143E-02 0.79458464E+02</pdfrwt>
<totfact> 0.14576757E+05</totfact>
</mgrwt>
</event>
<event>
 8    1  0.7756875E-014  0.7560090E+02  0.7818608E-02  0.1342020E+00
         -2   -1    0    0    0  501 -0.00000000000E+00  0.00000000000E+00  0.35038214360E+01  0.35038223640E+01  0.25500000000E-02 0.  1.
          1   -1    0    0  501    0  0.00000000000E+00 -0.00000000000E+00 -0.40780444654E+03  0.40780444657E+03  0.50400000000E-02 0. -1.
        -24    2    1    2    0    0  0.00000000000E+00  0.00000000000E+00 -0.40430062511E+03  0.41130826894E+03  0.75600903665E+02 0.  0.
         66    2    3    3    0    0  0.12468059476E+02 -0.35608384659E+02 -0.21241091630E+03  0.21574477266E+03  0.20000007550E+01 0.  0.
         13    1    3    3    0    0 -0.12468059476E+02  0.35608384659E+02 -0.19188970881E+03  0.19556349628E+03  0.10566000000E+00 0. -1.
         13    1    4    4    0    0  0.45742152638E+01 -0.14607975747E+02 -0.83208048611E+02  0.84604414296E+02  0.10566000000E+00 0. -1.
        -13    1    4    4    0    0  0.31230810809E+01 -0.72984933103E+01 -0.43743399096E+02  0.44458045038E+02  0.10566000000E+00 0.  1.
        -14    1    4    4    0    0  0.47707631309E+01 -0.13701915603E+02 -0.85459468589E+02  0.86682313326E+02  0.00000000000E+00 0.  1.
<mgrwt>
<rscale>  0 0.75600904E+02</rscale>
<asrwt>0</asrwt>
<pdfrwt beam="1">  1        1 0.62739108E-01 0.75600904E+02</pdfrwt>
<pdfrwt beam="2">  1       -2 0.53904985E-03 0.75600904E+02</pdfrwt>
<totfact> 0.22093918E+05</totfact>
</mgrwt>
</event>
<event>
 8    1  0.7756875E-014  0.8065308E+02  0.7818608E-02  0.1327208E+00
          1   -1    0    0  501    0  0.00000000000E+00  0.00000000000E+00  0.49045498457E+01  0.49045524353E+01  0.50400000000E-02 0. -1.
         -2   -1    0    0    0  501 -0.00000000000E+00 -0.00000000000E+00 -0.33157564215E+03  0.33157564216E+03  0.25500000000E-02 0.  1.
        -24    2    1    2    0    0  0.00000000000E+00  0.00000000000E+00 -0.32667109231E+03  0.33648019460E+03  0.80653076863E+02 0.  0.
         66    2    3    3    0    0 -0.14421113376E+02 -0.83302955641E+01 -0.31654451375E+03  0.31698862995E+03  0.19999988976E+01 0.  0.
         13    1    3    3    0    0  0.14421113376E+02  0.83302955641E+01 -0.10126578556E+02  0.19491564649E+02  0.10566000000E+00 0. -1.
         13    1    4    4    0    0 -0.43083352735E+01 -0.20426947755E+01 -0.80869927771E+02  0.81010435972E+02  0.10566000000E+00 0. -1.
        -13    1    4    4    0    0 -0.39749262556E+01 -0.29333130599E+01 -0.10599091041E+03  0.10610602536E+03  0.10566000000E+00 0.  1.
        -14    1    4    4    0    0 -0.61378518469E+01 -0.33542877287E+01 -0.12968367557E+03  0.12987216861E+03  0.00000000000E+00 0.  1.
<mgrwt>
<rscale>  0 0.80653077E+02</rscale>
<asrwt>0</asrwt>
<pdfrwt beam="1">  1        1 0.75454659E-03 0.80653077E+02</pdfrwt>
<pdfrwt beam="2">  1       -2 0.51011620E-01 0.80653077E+02</pdfrwt>
<totfact> 0.65035324E+04</totfact>
</mgrwt>
</event>
<event>
 8    1  0.7756875E-014  0.7919377E+02  0.7818608E-02  0.1331355E+00
          1   -1    0    0  501    0  0.00000000000E+00  0.00000000000E+00  0.46205650409E+01  0.46205677897E+01  0.50400000000E-02 0. -1.
         -2   -1    0    0    0  501 -0.00000000000E+00 -0.00000000000E+00 -0.33933354828E+03  0.33933354829E+03  0.25500000000E-02 0.  1.
        -24    2    1    2    0    0  0.00000000000E+00  0.35527136788E-14 -0.33471298324E+03  0.34395411608E+03  0.79193767552E+02 0.  0.
         66    2    3    3    0    0  0.16993509573E+02 -0.30706259168E+02 -0.24686798928E+03  0.24935809160E+03  0.19999987731E+01 0.  0.
         13    1    3    3    0    0 -0.16993509573E+02  0.30706259168E+02 -0.87844993959E+02  0.94596024480E+02  0.10566000000E+00 0. -1.
         13    1    4    4    0    0  0.29327387894E+01 -0.45798217961E+01 -0.36879606509E+02  0.37278576486E+02  0.10566000000E+00 0. -1.
        -13    1    4    4    0    0  0.13647410509E+02 -0.25028195805E+02 -0.20329944381E+03  0.20528842494E+03  0.10566000000E+00 0.  1.
         14    1    4    4    0    0  0.41336027487E+00 -0.10982415674E+01 -0.66889389657E+01  0.67910901735E+01  0.00000000000E+00 0. -1.
<mgrwt>
<rscale>  0 0.79193768E+02</rscale>
<asrwt>0</asrwt>
<pdfrwt beam="1">  1        1 0.71085664E-03 0.79193768E+02</pdfrwt>
<pdfrwt beam="2">  1       -2 0.52205142E-01 0.79193768E+02</pdfrwt>
<totfact> 0.67255892E+04</totfact>
</mgrwt>
</event>
<event>
 8    1  0.7756875E-014  0.7884375E+02  0.7818608E-02  0.1332365E+00
         -2   -1    0    0    0  501 -0.00000000000E+00  0.00000000000E+00  0.10633737672E+02  0.10633737977E+02  0.25500000000E-02 0.  1.
          1   -1    0    0  501    0  0.00000000000E+00 -0.00000000000E+00 -0.14614657692E+03  0.14614657700E+03  0.50400000000E-02 0. -1.
        -24    2    1    2    0    0  0.00000000000E+00  0.00000000000E+00 -0.13551283924E+03  0.15678031498E+03  0.78843754130E+02 0.  0.
         66    2    3    3    0    0 -0.21232482498E+01  0.38878006351E+02 -0.79742766093E+02  0.88763259882E+02  0.19999999376E+01 0.  0.
         13    1    3    3    0    0  0.21232482498E+01 -0.38878006351E+02 -0.55770073150E+02  0.68017055098E+02  0.10566000000E+00 0. -1.
         13    1    4    4    0    0 -0.11168299270E+00  0.57945230955E+01 -0.11081941061E+02  0.12506380480E+02  0.10566000000E+00 0. -1.
        -13    1    4    4    0    0 -0.13919577946E+01  0.17529119054E+02 -0.34880746550E+02  0.39062580627E+02  0.10566000000E+00 0.  1.
        -14    1    4    4    0    0 -0.61960746251E+00  0.15554364201E+02 -0.33780078482E+02  0.37194298775E+02  0.00000000000E+00 0.  1.
<mgrwt>
<rscale>  0 0.78843754E+02</rscale>
<asrwt>0</asrwt>
<pdfrwt beam="1">  1        1 0.22484087E-01 0.78843754E+02</pdfrwt>
<pdfrwt beam="2">  1       -2 0.16359598E-02 0.78843754E+02</pdfrwt>
<totfact> 0.16336163E+05</totfact>
</mgrwt>
</event>
<event>
 8    1  0.7756875E-014  0.8019901E+02  0.7818608E-02  0.1328488E+00
         -2   -1    0    0    0  501 -0.00000000000E+00  0.00000000000E+00  0.12423391033E+03  0.12423391036E+03  0.25500000000E-02 0.  1.
          1   -1    0    0  501    0  0.00000000000E+00 -0.00000000000E+00 -0.12943084972E+02  0.12943085954E+02  0.50400000000E-02 0. -1.
        -24    2    1    2    0    0  0.00000000000E+00  0.00000000000E+00  0.11129082536E+03  0.13717699631E+03  0.80199005654E+02 0.  0.
         66    2    3    3    0    0  0.98970491408E+01  0.17597489383E+02  0.11489096157E+03  0.11666857465E+03  0.20000118496E+01 0.  0.
         13    1    3    3    0    0 -0.98970491408E+01 -0.17597489383E+02 -0.36001362055E+01  0.20508421661E+02  0.10566000000E+00 0. -1.
         13    1    4    4    0    0  0.42308254486E+01  0.68279343794E+01  0.44012268686E+02  0.44739373384E+02  0.10566000000E+00 0. -1.
        -13    1    4    4    0    0  0.11342172282E+01  0.32336222197E+01  0.17835376176E+02  0.18161898820E+02  0.10566000000E+00 0.  1.
        -14    1    4    4    0    0  0.45320064640E+01  0.75359327842E+01  0.53043316703E+02  0.53767302447E+02  0.00000000000E+00 0.  1.
<mgrwt>
<rscale>  0 0.80199006E+02</rscale>
<asrwt>0</asrwt>
<pdfrwt beam="1">  1        1 0.19912440E-02 0.80199006E+02</pdfrwt>
<pdfrwt beam="2">  1       -2 0.19112909E-01 0.80199006E+02</pdfrwt>
<totfact> 0.99516964E+04</totfact>
</mgrwt>
</event>
<event>
 8    1  0.7756875E-014  0.8062077E+02  0.7818608E-02  0.1327299E+00
         -2   -1    0    0    0  501 -0.00000000000E+00  0.00000000000E+00  0.25669308830E+02  0.25669308957E+02  0.25500000000E-02 0.  1.
          1   -1    0    0  501    0  0.00000000000E+00 -0.00000000000E+00 -0.63302334358E+02  0.63302334559E+02  0.50400000000E-02 0. -1.
        -24    2    1    2    0    0 -0.44408920985E-15  0.00000000000E+00 -0.37633025528E+02  0.88971643516E+02  0.80620771142E+02 0.  0.
         66    2    3    3    0    0 -0.33254703349E+01  0.28503810638E+02  0.12374175533E+02  0.31315270964E+02  0.20000004019E+01 0.  0.
         13    1    3    3    0    0  0.33254703349E+01 -0.28503810638E+02 -0.50007201061E+02  0.57656372551E+02  0.10566000000E+00 0. -1.
         13    1    4    4    0    0 -0.24019100769E+01  0.16683623767E+02  0.72369636373E+01  0.18343862209E+02  0.10566000000E+00 0.  1.
        -13    1    4    4    0    0 -0.80156711345E+00  0.39546104396E+01  0.19659348819E+01  0.44897124142E+01  0.10566000000E+00 0. -1.
         14    1    4    4    0    0 -0.12199314456E+00  0.78655764320E+01  0.31712770136E+01  0.84816963416E+01  0.00000000000E+00 0. -1.
<mgrwt>
<rscale>  0 0.80620771E+02</rscale>
<asrwt>0</asrwt>
<pdfrwt beam="1">  1        1 0.97388207E-02 0.80620771E+02</pdfrwt>
<pdfrwt beam="2">  1       -2 0.39491245E-02 0.80620771E+02</pdfrwt>
<totfact> 0.13365319E+05</totfact>
</mgrwt>
</event>
<event>
 8    1  0.7756875E-014  0.8562851E+02  0.7818608E-02  0.1313797E+00
          1   -1    0    0  501    0  0.00000000000E+00  0.00000000000E+00  0.26256191275E+02  0.26256191759E+02  0.50400000000E-02 0. -1.
         -2   -1    0    0    0  501 -0.00000000000E+00 -0.00000000000E+00 -0.69814398750E+02  0.69814398797E+02  0.25500000000E-02 0.  1.
        -24    2    1    2    0    0 -0.35527136788E-14  0.00000000000E+00 -0.43558207475E+02  0.96070590556E+02  0.85628505366E+02 0.  0.
         66    2    3    3    0    0  0.28105480984E+02 -0.16212716594E+02 -0.53090741162E+02  0.62252686965E+02  0.19999991197E+01 0.  0.
         13    1    3    3    0    0 -0.28105480984E+02  0.16212716594E+02  0.95325336873E+01  0.33817903590E+02  0.10566000000E+00 0. -1.
         13    1    4    4    0    0  0.26684166291E+01 -0.18324564115E+01 -0.62791014431E+01  0.70651696918E+01  0.10566000000E+00 0. -1.
        -13    1    4    4    0    0  0.23959838877E+02 -0.13603064095E+02 -0.44417064834E+02  0.52268576069E+02  0.10566000000E+00 0.  1.
         14    1    4    4    0    0  0.14772254778E+01 -0.77719608805E+00 -0.23945748853E+01  0.29189412041E+01  0.00000000000E+00 0. -1.
<mgrwt>
<rscale>  0 0.85628505E+02</rscale>
<asrwt>0</asrwt>
<pdfrwt beam="1">  1        1 0.40394141E-02 0.85628505E+02</pdfrwt>
<pdfrwt beam="2">  1       -2 0.10740677E-01 0.85628505E+02</pdfrwt>
<totfact> 0.96726262E+04</totfact>
</mgrwt>
</event>
<event>
 8    1  0.7756875E-014  0.8800660E+02  0.7818608E-02  0.1307752E+00
          1   -1    0    0  501    0  0.00000000000E+00  0.00000000000E+00  0.47763244527E+02  0.47763244793E+02  0.50400000000E-02 0. -1.
         -2   -1    0    0    0  501 -0.00000000000E+00 -0.00000000000E+00 -0.40539343916E+02  0.40539343997E+02  0.25500000000E-02 0.  1.
        -24    2    1    2    0    0 -0.17763568394E-14  0.00000000000E+00  0.72239006110E+01  0.88302588790E+02  0.88006604564E+02 0.  0.
         66    2    3    3    0    0  0.12026139913E+02  0.40626764764E+02 -0.82209207305E+01  0.43205851361E+02  0.19999994444E+01 0.  0.
         13    1    3    3    0    0 -0.12026139913E+02 -0.40626764764E+02  0.15444821341E+02  0.45096737429E+02  0.10566000000E+00 0. -1.
         13    1    4    4    0    0  0.79153943653E+01  0.25068765993E+02 -0.45512443885E+01  0.26679982869E+02  0.10566000000E+00 0.  1.
        -13    1    4    4    0    0  0.30653389160E+01  0.10175218253E+02 -0.25579244473E+01  0.10930942808E+02  0.10566000000E+00 0. -1.
         14    1    4    4    0    0  0.10454066318E+01  0.53827805180E+01 -0.11117518946E+01  0.55949256837E+01  0.00000000000E+00 0. -1.
<mgrwt>
<rscale>  0 0.88006605E+02</rscale>
<asrwt>0</asrwt>
<pdfrwt beam="1">  1        1 0.73481915E-02 0.88006605E+02</pdfrwt>
<pdfrwt beam="2">  1       -2 0.62368222E-02 0.88006605E+02</pdfrwt>
<totfact> 0.99890544E+04</totfact>
</mgrwt>
</event>
<event>
 8    1  0.7756875E-014  0.8103704E+02  0.7818608E-02  0.1326134E+00
          1   -1    0    0  501    0  0.00000000000E+00  0.00000000000E+00  0.76062477561E+02  0.76062477728E+02  0.50400000000E-02 0. -1.
         -2   -1    0    0    0  501 -0.00000000000E+00 -0.00000000000E+00 -0.21584236498E+02  0.21584236649E+02  0.25500000000E-02 0.  1.
        -24    2    1    2    0    0 -0.44408920985E-15  0.00000000000E+00  0.54478241063E+02  0.97646714377E+02  0.81037041402E+02 0.  0.
         66    2    3    3    0    0 -0.20494673642E+01 -0.37463894540E+02  0.45609202505E+02  0.59092665049E+02  0.19999997032E+01 0.  0.
         13    1    3    3    0    0  0.20494673642E+01  0.37463894540E+02  0.88690385576E+01  0.38554049328E+02  0.10566000000E+00 0. -1.
         13    1    4    4    0    0  0.19004836807E-01 -0.10714108099E+01  0.11707251418E+01  0.15906111092E+01  0.10566000000E+00 0.  1.
        -13    1    4    4    0    0  0.22583674410E-01 -0.50122059847E+01  0.69302780894E+01  0.85535160775E+01  0.10566000000E+00 0.  1.
        -14    1    4    4    0    0 -0.20910558754E+01 -0.31380277746E+02  0.37508199274E+02  0.48948537862E+02  0.00000000000E+00 0.  1.
<mgrwt>
<rscale>  0 0.81037041E+02</rscale>
<asrwt>0</asrwt>
<pdfrwt beam="1">  1        1 0.11701920E-01 0.81037041E+02</pdfrwt>
<pdfrwt beam="2">  1       -2 0.33206518E-02 0.81037041E+02</pdfrwt>
<totfact> 0.13569184E+05</totfact>
</mgrwt>
</event>
<event>
 8    1  0.7756875E-014  0.8077351E+02  0.7818608E-02  0.1326871E+00
          1   -1    0    0  501    0  0.00000000000E+00  0.00000000000E+00  0.61436235861E+02  0.61436236068E+02  0.50400000000E-02 0. -1.
         -2   -1    0    0    0  501 -0.00000000000E+00 -0.00000000000E+00 -0.26549317826E+02  0.26549317948E+02  0.25500000000E-02 0.  1.
        -24    2    1    2    0    0 -0.35527136788E-14  0.35527136788E-14  0.34886918036E+02  0.87985554016E+02  0.80773514629E+02 0.  0.
         66    2    3    3    0    0  0.24637706074E+02 -0.25326668368E+02  0.38705792905E+02  0.52446115916E+02  0.19999947672E+01 0.  0.
         13    1    3    3    0    0 -0.24637706074E+02  0.25326668368E+02 -0.38188748692E+01  0.35539438100E+02  0.10566000000E+00 0. -1.
         13    1    4    4    0    0  0.88093993045E+00 -0.88503278177E+00  0.12020952472E+01  0.17365296441E+01  0.10566000000E+00 0. -1.
        -13    1    4    4    0    0  0.13014013113E+02 -0.14623910426E+02  0.21754794319E+02  0.29266115788E+02  0.10566000000E+00 0.  1.
        -14    1    4    4    0    0  0.10742753031E+02 -0.98177251598E+01  0.15748903339E+02  0.21443470484E+02  0.00000000000E+00 0.  1.
<mgrwt>
<rscale>  0 0.80773515E+02</rscale>
<asrwt>0</asrwt>
<pdfrwt beam="1">  1        1 0.94517286E-02 0.80773515E+02</pdfrwt>
<pdfrwt beam="2">  1       -2 0.40845105E-02 0.80773515E+02</pdfrwt>
<totfact> 0.13233140E+05</totfact>
</mgrwt>
</event>
<event>
 8    1  0.7756875E-014  0.8022120E+02  0.7818608E-02  0.1328425E+00
          1   -1    0    0  501    0  0.00000000000E+00  0.00000000000E+00  0.11601870418E+02  0.11601871513E+02  0.50400000000E-02 0. -1.
         -2   -1    0    0    0  501 -0.00000000000E+00 -0.00000000000E+00 -0.13867247507E+03  0.13867247509E+03  0.25500000000E-02 0.  1.
        -24    2    1    2    0    0  0.00000000000E+00  0.00000000000E+00 -0.12707060465E+03  0.15027434660E+03  0.80221198453E+02 0.  0.
         66    2    3    3    0    0  0.10350352057E+02  0.34246217989E+02 -0.97444882602E+02  0.10382407421E+03  0.20000017342E+01 0.  0.
         13    1    3    3    0    0 -0.10350352057E+02 -0.34246217989E+02 -0.29625722049E+02  0.46450272391E+02  0.10566000000E+00 0. -1.
         13    1    4    4    0    0  0.13590735827E+01  0.62058024319E+01 -0.18588809946E+02  0.19644696080E+02  0.10566000000E+00 0. -1.
        -13    1    4    4    0    0  0.37096725354E+01  0.10214774716E+02 -0.28923964234E+02  0.30898384486E+02  0.10566000000E+00 0.  1.
        -14    1    4    4    0    0  0.52816059387E+01  0.17825640840E+02 -0.49932108422E+02  0.53280993648E+02  0.00000000000E+00 0.  1.
<mgrwt>
<rscale>  0 0.80221198E+02</rscale>
<asrwt>0</asrwt>
<pdfrwt beam="1">  1        1 0.17849033E-02 0.80221198E+02</pdfrwt>
<pdfrwt beam="2">  1       -2 0.21334226E-01 0.80221198E+02</pdfrwt>
<totfact> 0.96226662E+04</totfact>
</mgrwt>
</event>
<event>
 8    1  0.7756875E-014  0.8018209E+02  0.7818608E-02  0.1328535E+00
         -2   -1    0    0    0  501 -0.00000000000E+00  0.00000000000E+00  0.11192726648E+03  0.11192726651E+03  0.25500000000E-02 0.  1.
          1   -1    0    0  501    0  0.00000000000E+00 -0.00000000000E+00 -0.14360144383E+02  0.14360145267E+02  0.50400000000E-02 0. -1.
        -24    2    1    2    0    0 -0.35527136788E-14  0.00000000000E+00  0.97567122098E+02  0.12628741178E+03  0.80182086895E+02 0.  0.
         66    2    3    3    0    0 -0.29441777074E+02  0.26907177366E+02  0.54805561533E+02  0.67811975421E+02  0.20000010943E+01 0.  0.
         13    1    3    3    0    0  0.29441777074E+02 -0.26907177366E+02  0.42761560565E+02  0.58475436356E+02  0.10566000000E+00 0. -1.
         13    1    4    4    0    0 -0.77808640116E+01  0.61897470783E+01  0.14375265372E+02  0.17478965422E+02  0.10566000000E+00 0. -1.
        -13    1    4    4    0    0 -0.18777124919E+02  0.17853787901E+02  0.34611123571E+02  0.43235161634E+02  0.10566000000E+00 0.  1.
        -14    1    4    4    0    0 -0.28837881433E+01  0.28636423864E+01  0.58191725903E+01  0.70978483647E+01  0.00000000000E+00 0.  1.
<mgrwt>
<rscale>  0 0.80182087E+02</rscale>
<asrwt>0</asrwt>
<pdfrwt beam="1">  1        1 0.22092531E-02 0.80182087E+02</pdfrwt>
<pdfrwt beam="2">  1       -2 0.17219579E-01 0.80182087E+02</pdfrwt>
<totfact> 0.10249214E+05</totfact>
</mgrwt>
</event>
<event>
 8    1  0.7756875E-014  0.8750609E+02  0.7818608E-02  0.1309006E+00
          1   -1    0    0  501    0  0.00000000000E+00  0.00000000000E+00  0.10418560812E+02  0.10418562031E+02  0.50400000000E-02 0. -1.
         -2   -1    0    0    0  501 -0.00000000000E+00 -0.00000000000E+00 -0.18374214581E+03  0.18374214582E+03  0.25500000000E-02 0.  1.
        -24    2    1    2    0    0 -0.35527136788E-14 -0.11102230246E-15 -0.17332358499E+03  0.19416070785E+03  0.87506087555E+02 0.  0.
         66    2    3    3    0    0 -0.23309607944E+02 -0.59693495193E+00 -0.16879236059E+03  0.17040702788E+03  0.20000007558E+01 0.  0.
         13    1    3    3    0    0  0.23309607944E+02  0.59693495193E+00 -0.45312244061E+01  0.23753679978E+02  0.10566000000E+00 0. -1.
         13    1    4    4    0    0 -0.21385999902E+01  0.28966091904E+00 -0.16643148030E+02  0.16782820196E+02  0.10566000000E+00 0.  1.
        -13    1    4    4    0    0 -0.33733470969E+01 -0.63249541641E+00 -0.25703103477E+02  0.25931452205E+02  0.10566000000E+00 0. -1.
         14    1    4    4    0    0 -0.17797660857E+02 -0.25410045455E+00 -0.12644610908E+03  0.12769275547E+03  0.00000000000E+00 0. -1.
<mgrwt>
<rscale>  0 0.87506088E+02</rscale>
<asrwt>0</asrwt>
<pdfrwt beam="1">  1        1 0.16028557E-02 0.87506088E+02</pdfrwt>
<pdfrwt beam="2">  1       -2 0.28268020E-01 0.87506088E+02</pdfrwt>
<totfact> 0.69761834E+04</totfact>
</mgrwt>
</event>
<event>
 8    1  0.8826029E-014  0.7562800E+02  0.7818608E-02  0.1341937E+00
         -2   -1    0    0    0  501 -0.00000000000E+00  0.00000000000E+00  0.13782790502E+02  0.13782790738E+02  0.25500000000E-02 0.  1.
          1   -1    0    0  501    0  0.00000000000E+00 -0.00000000000E+00 -0.10374521947E+03  0.10374521959E+03  0.50400000000E-02 0. -1.
        -24    2    1    2    0    0  0.00000000000E+00 -0.17763568394E-14 -0.89962428966E+02  0.11752801033E+03  0.75628001336E+02 0.  0.
         66    2    3    3    0    0  0.24210623222E+02  0.10946320574E+02 -0.32581542232E+01  0.26843840631E+02  0.19999999831E+01 0.  0.
         13    1    3    3    0    0 -0.24210623222E+02 -0.10946320574E+02 -0.86704274743E+02  0.90684169697E+02  0.10566000000E+00 0. -1.
         13    1    4    4    0    0  0.46321966846E+01  0.18122460007E+01 -0.74953683665E+00  0.50313468572E+01  0.10566000000E+00 0. -1.
        -13    1    4    4    0    0  0.19141498372E+02  0.87411843413E+01 -0.22264485281E+01  0.21160659269E+02  0.10566000000E+00 0.  1.
         14    1    4    4    0    0  0.43692816580E+00  0.39289023229E+00 -0.28216885842E+00  0.65183450458E+00  0.00000000000E+00 0. -1.
<mgrwt>
<rscale>  0 0.75628001E+02</rscale>
<asrwt>0</asrwt>
<pdfrwt beam="1">  1        1 0.15960803E-01 0.75628001E+02</pdfrwt>
<pdfrwt beam="2">  1       -2 0.21204294E-02 0.75628001E+02</pdfrwt>
<totfact> 0.17204264E+05</totfact>
</mgrwt>
</event>
<event>
 8    1  0.7756875E-014  0.7948116E+02  0.7818608E-02  0.1330530E+00
          1   -1    0    0  501    0  0.00000000000E+00  0.00000000000E+00  0.14265483635E+02  0.14265484525E+02  0.50400000000E-02 0. -1.
         -2   -1    0    0    0  501 -0.00000000000E+00 -0.00000000000E+00 -0.11070874118E+03  0.11070874121E+03  0.25500000000E-02 0.  1.
        -24    2    1    2    0    0  0.00000000000E+00  0.35527136788E-14 -0.96443257547E+02  0.12497422574E+03  0.79481162374E+02 0.  0.
         66    2    3    3    0    0  0.12614813860E+02 -0.26254144083E+02 -0.90703162247E+02  0.95286291010E+02  0.20000006456E+01 0.  0.
         13    1    3    3    0    0 -0.12614813860E+02  0.26254144083E+02 -0.57400953003E+01  0.29687934727E+02  0.10566000000E+00 0. -1.
         13    1    4    4    0    0  0.62866361076E+00 -0.11060234523E+01 -0.33658442306E+01  0.35998023880E+01  0.10566000000E+00 0. -1.
        -13    1    4    4    0    0  0.88184264044E+01 -0.19742258903E+02 -0.66417787202E+02  0.69848801362E+02  0.10566000000E+00 0.  1.
         14    1    4    4    0    0  0.31677238448E+01 -0.54058617279E+01 -0.20919530814E+02  0.21837687260E+02  0.00000000000E+00 0. -1.
<mgrwt>
<rscale>  0 0.79481162E+02</rscale>
<asrwt>0</asrwt>
<pdfrwt beam="1">  1        1 0.21946899E-02 0.79481162E+02</pdfrwt>
<pdfrwt beam="2">  1       -2 0.17032114E-01 0.79481162E+02</pdfrwt>
<totfact> 0.10513139E+05</totfact>
</mgrwt>
</event>
<event>
 8    1  0.7756875E-014  0.7983788E+02  0.7818608E-02  0.1329512E+00
         -2   -1    0    0    0  501 -0.00000000000E+00  0.00000000000E+00  0.40067020089E+03  0.40067020090E+03  0.25500000000E-02 0.  1.
          1   -1    0    0  501    0  0.00000000000E+00 -0.00000000000E+00 -0.39771395497E+01  0.39771427432E+01  0.50400000000E-02 0. -1.
        -24    2    1    2    0    0  0.00000000000E+00  0.00000000000E+00  0.39669306134E+03  0.40464734364E+03  0.79837884494E+02 0.  0.
         66    2    3    3    0    0 -0.39117883079E+02  0.21871797065E+01  0.16036531183E+03  0.16509399074E+03  0.20000024451E+01 0.  0.
         13    1    3    3    0    0  0.39117883079E+02 -0.21871797065E+01  0.23632774952E+03  0.23955335290E+03  0.10566000000E+00 0. -1.
         13    1    4    4    0    0 -0.10585450579E+02 -0.22672661935E+00  0.42820766460E+02  0.44110456506E+02  0.10566000000E+00 0. -1.
        -13    1    4    4    0    0 -0.23105303677E+02  0.21248565202E+01  0.95908991186E+02  0.98675811766E+02  0.10566000000E+00 0.  1.
        -14    1    4    4    0    0 -0.54271288235E+01  0.28904980568E+00  0.21635554180E+02  0.22307722468E+02  0.00000000000E+00 0.  1.
<mgrwt>
<rscale>  0 0.79837884E+02</rscale>
<asrwt>0</asrwt>
<pdfrwt beam="1">  1        1 0.61186781E-03 0.79837884E+02</pdfrwt>
<pdfrwt beam="2">  1       -2 0.61641575E-01 0.79837884E+02</pdfrwt>
<totfact> 0.59338114E+04</totfact>
</mgrwt>
</event>
<event>
 8    1  0.7756875E-014  0.8039356E+02  0.7818608E-02  0.1327938E+00
          1   -1    0    0  501    0  0.00000000000E+00  0.00000000000E+00  0.35658782919E+03  0.35658782923E+03  0.50400000000E-02 0. -1.
         -2   -1    0    0    0  501 -0.00000000000E+00 -0.00000000000E+00 -0.45312289854E+01  0.45312297029E+01  0.25500000000E-02 0.  1.
        -24    2    1    2    0    0  0.71054273576E-14  0.00000000000E+00  0.35205660021E+03  0.36111905893E+03  0.80393563012E+02 0.  0.
         66    2    3    3    0    0  0.20092547585E+02 -0.33209429788E+02  0.12962915279E+03  0.13533031425E+03  0.20000017605E+01 0.  0.
         13    1    3    3    0    0 -0.20092547585E+02  0.33209429788E+02  0.22242744742E+03  0.22578874468E+03  0.10566000000E+00 0. -1.
         13    1    4    4    0    0  0.26492735863E+01 -0.43039426115E+01  0.18028864065E+02  0.18724146871E+02  0.10566000000E+00 0. -1.
        -13    1    4    4    0    0  0.93491675164E+01 -0.15903238856E+02  0.58318020770E+02  0.61166352270E+02  0.10566000000E+00 0.  1.
        -14    1    4    4    0    0  0.80941064827E+01 -0.13002248321E+02  0.53282267950E+02  0.55439815106E+02  0.00000000000E+00 0.  1.
<mgrwt>
<rscale>  0 0.80393563E+02</rscale>
<asrwt>0</asrwt>
<pdfrwt beam="1">  1        1 0.54859647E-01 0.80393563E+02</pdfrwt>
<pdfrwt beam="2">  1       -2 0.69711245E-03 0.80393563E+02</pdfrwt>
<totfact> 0.18385937E+05</totfact>
</mgrwt>
</event>
<event>
 8    1  0.7756875E-014  0.8134691E+02  0.7818608E-02  0.1325272E+00
          1   -1    0    0  501    0  0.00000000000E+00  0.00000000000E+00  0.34615734201E+01  0.34615770892E+01  0.50400000000E-02 0. -1.
         -2   -1    0    0    0  501 -0.00000000000E+00 -0.00000000000E+00 -0.47791247414E+03  0.47791247415E+03  0.25500000000E-02 0.  1.
        -24    2    1    2    0    0  0.35527136788E-14  0.35527136788E-14 -0.47445090072E+03  0.48137405123E+03  0.81346911493E+02 0.  0.
         66    2    3    3    0    0 -0.16499662989E+02 -0.25447299025E+02 -0.39752756944E+03  0.39868781317E+03  0.19999995101E+01 0.  0.
         13    1    3    3    0    0  0.16499662989E+02  0.25447299025E+02 -0.76923331276E+02  0.82686238063E+02  0.10566000000E+00 0. -1.
         13    1    4    4    0    0 -0.13021798576E+01 -0.20900689397E+01 -0.27436033409E+02  0.27546527074E+02  0.10566000000E+00 0.  1.
        -13    1    4    4    0    0 -0.75219746547E+01 -0.12700292619E+02 -0.19506157973E+03  0.19561929503E+03  0.10566000000E+00 0.  1.
         14    1    4    4    0    0 -0.76755084764E+01 -0.10656937466E+02 -0.17502995630E+03  0.17552199107E+03  0.00000000000E+00 0. -1.
<mgrwt>
<rscale>  0 0.81346911E+02</rscale>
<asrwt>0</asrwt>
<pdfrwt beam="1">  1        1 0.53255042E-03 0.81346911E+02</pdfrwt>
<pdfrwt beam="2">  1       -2 0.73524944E-01 0.81346911E+02</pdfrwt>
<totfact> 0.49936402E+04</totfact>
</mgrwt>
</event>
<event>
 8    1  0.7756875E-014  0.7928703E+02  0.7818608E-02  0.1331087E+00
         -2   -1    0    0    0  501 -0.00000000000E+00  0.00000000000E+00  0.60151260431E+02  0.60151260485E+02  0.25500000000E-02 0.  1.
          1   -1    0    0  501    0  0.00000000000E+00 -0.00000000000E+00 -0.26127599873E+02  0.26127600359E+02  0.50400000000E-02 0. -1.
        -24    2    1    2    0    0  0.35527136788E-14  0.88817841970E-15  0.34023660558E+02  0.86278860844E+02  0.79287025110E+02 0.  0.
         66    2    3    3    0    0 -0.25436883411E+02 -0.61719151793E+01  0.49385358257E+02  0.55928893876E+02  0.19999963500E+01 0.  0.
         13    1    3    3    0    0  0.25436883411E+02  0.61719151793E+01 -0.15361697700E+02  0.30349966967E+02  0.10566000000E+00 0. -1.
         13    1    4    4    0    0 -0.43091110537E+01 -0.13796303892E+01  0.80089792681E+01  0.91992788324E+01  0.10566000000E+00 0. -1.
        -13    1    4    4    0    0 -0.19139852543E+02 -0.40404363536E+01  0.36540325234E+02  0.41447142405E+02  0.10566000000E+00 0.  1.
         14    1    4    4    0    0 -0.19879198140E+01 -0.75184843643E+00  0.48360537550E+01  0.52824726388E+01  0.00000000000E+00 0. -1.
<mgrwt>
<rscale>  0 0.79287025E+02</rscale>
<asrwt>0</asrwt>
<pdfrwt beam="1">  1        1 0.40196308E-02 0.79287025E+02</pdfrwt>
<pdfrwt beam="2">  1       -2 0.92540401E-02 0.79287025E+02</pdfrwt>
<totfact> 0.12104366E+05</totfact>
</mgrwt>
</event>
<event>
 8    1  0.7756875E-014  0.8027245E+02  0.7818608E-02  0.1328280E+00
          1   -1    0    0  501    0  0.00000000000E+00  0.00000000000E+00  0.35107086291E+03  0.35107086295E+03  0.50400000000E-02 0. -1.
         -2   -1    0    0    0  501 -0.00000000000E+00 -0.00000000000E+00 -0.45885785536E+01  0.45885792622E+01  0.25500000000E-02 0.  1.
        -24    2    1    2    0    0  0.00000000000E+00 -0.35527136788E-14  0.34648228436E+03  0.35565944221E+03  0.80272445205E+02 0.  0.
         66    2    3    3    0    0  0.29120086742E+02 -0.27570027061E+02  0.16932268192E+03  0.17401797738E+03  0.19999990633E+01 0.  0.
         13    1    3    3    0    0 -0.29120086742E+02  0.27570027061E+02  0.17715960244E+03  0.18164146483E+03  0.10566000000E+00 0. -1.
         13    1    4    4    0    0  0.17457592998E+01 -0.19718426049E+01  0.98263990821E+01  0.10173746692E+02  0.10566000000E+00 0. -1.
        -13    1    4    4    0    0  0.18164223757E+02 -0.17310766657E+02  0.10472512764E+03  0.10768920647E+03  0.10566000000E+00 0.  1.
        -14    1    4    4    0    0  0.92101036855E+01 -0.82874177989E+01  0.54771155191E+02  0.56155024215E+02  0.00000000000E+00 0.  1.
<mgrwt>
<rscale>  0 0.80272445E+02</rscale>
<asrwt>0</asrwt>
<pdfrwt beam="1">  1        1 0.54010924E-01 0.80272445E+02</pdfrwt>
<pdfrwt beam="2">  1       -2 0.70593493E-03 0.80272445E+02</pdfrwt>
<totfact> 0.18408049E+05</totfact>
</mgrwt>
</event>
<event>
 8    1  0.7756875E-014  0.7818171E+02  0.7818608E-02  0.1334292E+00
         -2   -1    0    0    0  501 -0.00000000000E+00  0.00000000000E+00  0.26903884143E+03  0.26903884144E+03  0.25500000000E-02 0.  1.
          1   -1    0    0  501    0  0.00000000000E+00 -0.00000000000E+00 -0.56798289585E+01  0.56798311946E+01  0.50400000000E-02 0. -1.
        -24    2    1    2    0    0  0.00000000000E+00  0.00000000000E+00  0.26335901247E+03  0.27471867264E+03  0.78181709148E+02 0.  0.
         66    2    3    3    0    0  0.10676927563E+02 -0.30945989633E+02  0.20667215722E+03  0.20925828936E+03  0.20000097636E+01 0.  0.
         13    1    3    3    0    0 -0.10676927563E+02  0.30945989633E+02  0.56686855254E+02  0.65460383280E+02  0.10566000000E+00 0. -1.
         13    1    4    4    0    0  0.38607399571E+01 -0.11602299263E+02  0.83280638478E+02  0.84173597824E+02  0.10566000000E+00 0. -1.
        -13    1    4    4    0    0  0.45719369304E+01 -0.12855473020E+02  0.82732913711E+02  0.83850533505E+02  0.10566000000E+00 0.  1.
         14    1    4    4    0    0  0.22442506759E+01 -0.64882173500E+01  0.40658605029E+02  0.41234158029E+02  0.00000000000E+00 0. -1.
<mgrwt>
<rscale>  0 0.78181709E+02</rscale>
<asrwt>0</asrwt>
<pdfrwt beam="1">  1        1 0.87381995E-03 0.78181709E+02</pdfrwt>
<pdfrwt beam="2">  1       -2 0.41390594E-01 0.78181709E+02</pdfrwt>
<totfact> 0.78939181E+04</totfact>
</mgrwt>
</event>
<event>
 8    1  0.7756875E-014  0.8153490E+02  0.7818608E-02  0.1324751E+00
         -2   -1    0    0    0  501 -0.00000000000E+00  0.00000000000E+00  0.13527200403E+02  0.13527200643E+02  0.25500000000E-02 0.  1.
          1   -1    0    0  501    0  0.00000000000E+00 -0.00000000000E+00 -0.12286245745E+03  0.12286245755E+03  0.50400000000E-02 0. -1.
        -24    2    1    2    0    0 -0.88817841970E-15  0.35527136788E-14 -0.10933525705E+03  0.13638965820E+03  0.81534903136E+02 0.  0.
         66    2    3    3    0    0  0.57463983543E+01 -0.28584041690E+02 -0.70949786007E+01  0.30073364834E+02  0.20000044322E+01 0.  0.
         13    1    3    3    0    0 -0.57463983543E+01  0.28584041690E+02 -0.10224027845E+03  0.10631629336E+03  0.10566000000E+00 0. -1.
         13    1    4    4    0    0  0.39400868427E+00 -0.29885338849E+01 -0.11417341775E+01  0.32251044312E+01  0.10566000000E+00 0. -1.
        -13    1    4    4    0    0  0.23675391084E+01 -0.97847229846E+01 -0.17543650563E+01  0.10219344700E+02  0.10566000000E+00 0.  1.
        -14    1    4    4    0    0  0.29848505616E+01 -0.15810784821E+02 -0.41988793669E+01  0.16628915703E+02  0.00000000000E+00 0.  1.
<mgrwt>
<rscale>  0 0.81534903E+02</rscale>
<asrwt>0</asrwt>
<pdfrwt beam="1">  1        1 0.18901916E-01 0.81534903E+02</pdfrwt>
<pdfrwt beam="2">  1       -2 0.20811079E-02 0.81534903E+02</pdfrwt>
<totfact> 0.14470613E+05</totfact>
</mgrwt>
</event>
<event>
 8    1  0.7756875E-014  0.8264760E+02  0.7818608E-02  0.1321702E+00
         -2   -1    0    0    0  501 -0.00000000000E+00  0.00000000000E+00  0.61167529689E+01  0.61167535004E+01  0.25500000000E-02 0.  1.
          1   -1    0    0  501    0  0.00000000000E+00 -0.00000000000E+00 -0.27917690933E+03  0.27917690938E+03  0.50400000000E-02 0. -1.
        -24    2    1    2    0    0  0.35527136788E-14 -0.35527136788E-14 -0.27306015636E+03  0.28529366288E+03  0.82647595762E+02 0.  0.
         66    2    3    3    0    0  0.31464039139E+02 -0.20387811395E+02 -0.76820371399E+02  0.85504491552E+02  0.20000002986E+01 0.  0.
         13    1    3    3    0    0 -0.31464039139E+02  0.20387811395E+02 -0.19623978496E+03  0.19978917133E+03  0.10566000000E+00 0. -1.
         13    1    4    4    0    0  0.13525310695E+02 -0.88271062386E+01 -0.33751440309E+02  0.37416877488E+02  0.10566000000E+00 0. -1.
        -13    1    4    4    0    0  0.14086389303E+02 -0.83994038127E+01 -0.32602137542E+02  0.36495025474E+02  0.10566000000E+00 0.  1.
        -14    1    4    4    0    0  0.38523391405E+01 -0.31613013436E+01 -0.10466793547E+02  0.11592588589E+02  0.00000000000E+00 0.  1.
<mgrwt>
<rscale>  0 0.82647596E+02</rscale>
<asrwt>0</asrwt>
<pdfrwt beam="1">  1        1 0.42950284E-01 0.82647596E+02</pdfrwt>
<pdfrwt beam="2">  1       -2 0.94103918E-03 0.82647596E+02</pdfrwt>
<totfact> 0.16326347E+05</totfact>
</mgrwt>
</event>
<event>
 8    1  0.7756875E-014  0.8049380E+02  0.7818608E-02  0.1327656E+00
         -2   -1    0    0    0  501 -0.00000000000E+00  0.00000000000E+00  0.27985958003E+02  0.27985958119E+02  0.25500000000E-02 0.  1.
          1   -1    0    0  501    0  0.00000000000E+00 -0.00000000000E+00 -0.57879491332E+02  0.57879491551E+02  0.50400000000E-02 0. -1.
        -24    2    1    2    0    0  0.00000000000E+00  0.00000000000E+00 -0.29893533329E+02  0.85865449670E+02  0.80493801700E+02 0.  0.
         66    2    3    3    0    0 -0.82571048617E+01 -0.16737832344E+02  0.23051398692E+02  0.29727122273E+02  0.20000011852E+01 0.  0.
         13    1    3    3    0    0  0.82571048617E+01  0.16737832344E+02 -0.52944932020E+02  0.56138327397E+02  0.10566000000E+00 0. -1.
         13    1    4    4    0    0 -0.75955212624E+00 -0.27354149550E+01  0.33954879968E+01  0.44271793707E+01  0.10566000000E+00 0. -1.
        -13    1    4    4    0    0 -0.37698927671E+01 -0.77158409061E+01  0.98157265130E+01  0.13042466921E+02  0.10566000000E+00 0. -1.
        -14    1    4    4    0    0 -0.37276599683E+01 -0.62865764826E+01  0.98401841817E+01  0.12257475982E+02  0.00000000000E+00 0.  1.
<mgrwt>
<rscale>  0 0.80493802E+02</rscale>
<asrwt>0</asrwt>
<pdfrwt beam="1">  1        1 0.89045372E-02 0.80493802E+02</pdfrwt>
<pdfrwt beam="2">  1       -2 0.43055320E-02 0.80493802E+02</pdfrwt>
<totfact> 0.13235499E+05</totfact>
</mgrwt>
</event>
<event>
 8    1  0.7756875E-014  0.8120881E+02  0.7818608E-02  0.1325656E+00
          1   -1    0    0  501    0  0.00000000000E+00  0.00000000000E+00  0.15932889378E+01  0.15932969092E+01  0.50400000000E-02 0. -1.
         -2   -1    0    0    0  501 -0.00000000000E+00 -0.00000000000E+00 -0.10347862029E+04  0.10347862029E+04  0.25500000000E-02 0.  1.
        -24    2    1    2    0    0  0.00000000000E+00  0.88817841970E-15 -0.10331929140E+04  0.10363794998E+04  0.81208805988E+02 0.  0.
         66    2    3    3    0    0  0.26083523082E+02 -0.78145234559E+01 -0.90089094107E+03  0.90130455710E+03  0.19999994160E+01 0.  0.
         13    1    3    3    0    0 -0.26083523082E+02  0.78145234559E+01 -0.13230197293E+03  0.13507494275E+03  0.10566000000E+00 0. -1.
         13    1    4    4    0    0  0.89247356226E+01 -0.34039469856E+01 -0.30319204566E+03  0.30334248874E+03  0.10566000000E+00 0. -1.
        -13    1    4    4    0    0  0.16798126254E+02 -0.44439130286E+01 -0.58597372396E+03  0.58623130396E+03  0.10566000000E+00 0.  1.
         14    1    4    4    0    0  0.36066120552E+00  0.33336558335E-01 -0.11725171453E+02  0.11730764401E+02  0.00000000000E+00 0. -1.
<mgrwt>
<rscale>  0 0.81208806E+02</rscale>
<asrwt>0</asrwt>
<pdfrwt beam="1">  1        1 0.24512282E-03 0.81208806E+02</pdfrwt>
<pdfrwt beam="2">  1       -2 0.15919734E+00 0.81208806E+02</pdfrwt>
<totfact> 0.24093706E+04</totfact>
</mgrwt>
</event>
<event>
 8    1  0.7756875E-014  0.8039034E+02  0.7818608E-02  0.1327947E+00
         -2   -1    0    0    0  501 -0.00000000000E+00  0.00000000000E+00  0.10556255520E+03  0.10556255523E+03  0.25500000000E-02 0.  1.
          1   -1    0    0  501    0  0.00000000000E+00 -0.00000000000E+00 -0.15305159937E+02  0.15305160767E+02  0.50400000000E-02 0. -1.
        -24    2    1    2    0    0 -0.35527136788E-14 -0.35527136788E-14  0.90257395265E+02  0.12086771600E+03  0.80390343766E+02 0.  0.
         66    2    3    3    0    0  0.23703778622E+02  0.25689678459E+02  0.74917634726E+02  0.82695106477E+02  0.19999855145E+01 0.  0.
         13    1    3    3    0    0 -0.23703778622E+02 -0.25689678459E+02  0.15339760540E+02  0.38172609522E+02  0.10566000000E+00 0. -1.
         13    1    4    4    0    0  0.97038961590E+01  0.11001536623E+02  0.31103001665E+02  0.34389057640E+02  0.10566000000E+00 0.  1.
        -13    1    4    4    0    0  0.13805083479E+02  0.14238166832E+02  0.42402372905E+02  0.46811089676E+02  0.10566000000E+00 0. -1.
         14    1    4    4    0    0  0.19479898400E+00  0.44997500473E+00  0.14122601549E+01  0.14949591614E+01  0.00000000000E+00 0. -1.
<mgrwt>
<rscale>  0 0.80390344E+02</rscale>
<asrwt>0</asrwt>
<pdfrwt beam="1">  1        1 0.23546400E-02 0.80390344E+02</pdfrwt>
<pdfrwt beam="2">  1       -2 0.16240393E-01 0.80390344E+02</pdfrwt>
<totfact> 0.10338852E+05</totfact>
</mgrwt>
</event>
<event>
 8    1  0.7756875E-014  0.8093077E+02  0.7818608E-02  0.1326431E+00
          1   -1    0    0  501    0  0.00000000000E+00  0.00000000000E+00  0.15747299501E+03  0.15747299509E+03  0.50400000000E-02 0. -1.
         -2   -1    0    0    0  501 -0.00000000000E+00 -0.00000000000E+00 -0.10398273076E+02  0.10398273389E+02  0.25500000000E-02 0.  1.
        -24    2    1    2    0    0  0.00000000000E+00  0.00000000000E+00  0.14707472194E+03  0.16787126848E+03  0.80930766395E+02 0.  0.
         66    2    3    3    0    0 -0.18237169699E+02 -0.33409357154E+02  0.45242686052E+02  0.59158094485E+02  0.19999994814E+01 0.  0.
         13    1    3    3    0    0  0.18237169699E+02  0.33409357154E+02  0.10183203588E+03  0.10871317400E+03  0.10566000000E+00 0. -1.
         13    1    4    4    0    0 -0.49352607010E+01 -0.98182959372E+01  0.12450335210E+02  0.16606557265E+02  0.10566000000E+00 0.  1.
        -13    1    4    4    0    0 -0.49169662997E+01 -0.91297769374E+01  0.11593486563E+02  0.15554725303E+02  0.10566000000E+00 0.  1.
        -14    1    4    4    0    0 -0.83849426982E+01 -0.14461284279E+02  0.21198864278E+02  0.26996811918E+02  0.00000000000E+00 0.  1.
<mgrwt>
<rscale>  0 0.80930766E+02</rscale>
<asrwt>0</asrwt>
<pdfrwt beam="1">  1        1 0.24226613E-01 0.80930766E+02</pdfrwt>
<pdfrwt beam="2">  1       -2 0.15997345E-02 0.80930766E+02</pdfrwt>
<totfact> 0.15446746E+05</totfact>
</mgrwt>
</event>
<event>
 8    1  0.7756875E-014  0.8032676E+02  0.7818608E-02  0.1328127E+00
          1   -1    0    0  501    0  0.00000000000E+00  0.00000000000E+00  0.93157253754E+02  0.93157253890E+02  0.50400000000E-02 0. -1.
         -2   -1    0    0    0  501 -0.00000000000E+00 -0.00000000000E+00 -0.17315852408E+02  0.17315852596E+02  0.25500000000E-02 0.  1.
        -24    2    1    2    0    0 -0.71054273576E-14  0.00000000000E+00  0.75841401346E+02  0.11047310649E+03  0.80326764522E+02 0.  0.
         66    2    3    3    0    0  0.37976146129E+02  0.12919269758E+02  0.39887702652E+02  0.56604982148E+02  0.19999937842E+01 0.  0.
         13    1    3    3    0    0 -0.37976146129E+02 -0.12919269758E+02  0.35953698693E+02  0.53868124338E+02  0.10566000000E+00 0. -1.
         13    1    4    4    0    0  0.17843922190E+02  0.65380458823E+01  0.18589656801E+02  0.26584546397E+02  0.10566000000E+00 0. -1.
        -13    1    4    4    0    0  0.61059651993E+01  0.23587726131E+01  0.60181844085E+01  0.88924871024E+01  0.10566000000E+00 0. -1.
        -14    1    4    4    0    0  0.14026258740E+02  0.40224512627E+01  0.15279861443E+02  0.21127948649E+02  0.00000000000E+00 0.  1.
<mgrwt>
<rscale>  0 0.80326765E+02</rscale>
<asrwt>0</asrwt>
<pdfrwt beam="1">  1        1 0.14331885E-01 0.80326765E+02</pdfrwt>
<pdfrwt beam="2">  1       -2 0.26639773E-02 0.80326765E+02</pdfrwt>
<totfact> 0.14366652E+05</totfact>
</mgrwt>
</event>
<event>
 8    1  0.8530228E-014  0.7860637E+02  0.7818608E-02  0.1333054E+00
         -2   -1    0    0    0  501 -0.00000000000E+00  0.00000000000E+00  0.27380441781E+02  0.27380441900E+02  0.25500000000E-02 0.  1.
          1   -1    0    0  501    0  0.00000000000E+00 -0.00000000000E+00 -0.56417648861E+02  0.56417649086E+02  0.50400000000E-02 0. -1.
        -24    2    1    2    0    0  0.00000000000E+00  0.00000000000E+00 -0.29037207080E+02  0.83798090986E+02  0.78606365250E+02 0.  0.
         66    2    3    3    0    0 -0.14777251369E+02  0.15492810386E+02  0.20576243968E+02  0.29761991750E+02  0.20000013614E+01 0.  0.
         13    1    3    3    0    0  0.14777251369E+02 -0.15492810386E+02 -0.49613451048E+02  0.54036099236E+02  0.10566000000E+00 0. -1.
         13    1    4    4    0    0 -0.66320493353E+01  0.73721224498E+01  0.94561500071E+01  0.13702634958E+02  0.10566000000E+00 0. -1.
        -13    1    4    4    0    0 -0.54740160408E+01  0.63349720398E+01  0.79817405272E+01  0.11567889533E+02  0.10566000000E+00 0.  1.
         14    1    4    4    0    0 -0.26711859926E+01  0.17857158963E+01  0.31383534339E+01  0.44914672598E+01  0.00000000000E+00 0. -1.
<mgrwt>
<rscale>  0 0.78606365E+02</rscale>
<asrwt>0</asrwt>
<pdfrwt beam="1">  1        1 0.86796383E-02 0.78606365E+02</pdfrwt>
<pdfrwt beam="2">  1       -2 0.42123757E-02 0.78606365E+02</pdfrwt>
<totfact> 0.14075236E+05</totfact>
</mgrwt>
</event>
<event>
 8    1  0.7756875E-014  0.8072852E+02  0.7818608E-02  0.1326997E+00
          1   -1    0    0  501    0  0.00000000000E+00  0.00000000000E+00  0.17489126125E+03  0.17489126132E+03  0.50400000000E-02 0. -1.
         -2   -1    0    0    0  501 -0.00000000000E+00 -0.00000000000E+00 -0.93159234005E+01  0.93159237495E+01  0.25500000000E-02 0.  1.
        -24    2    1    2    0    0  0.00000000000E+00  0.00000000000E+00  0.16557533784E+03  0.18420718507E+03  0.80728523634E+02 0.  0.
         66    2    3    3    0    0  0.20000129343E+02  0.18650516627E+02  0.15171148774E+02  0.31337049991E+02  0.20000007111E+01 0.  0.
         13    1    3    3    0    0 -0.20000129343E+02 -0.18650516627E+02  0.15040418907E+03  0.15287013508E+03  0.10566000000E+00 0. -1.
         13    1    4    4    0    0  0.10004825557E+02  0.94818761741E+01  0.71113423614E+01  0.15510798317E+02  0.10566000000E+00 0. -1.
        -13    1    4    4    0    0  0.59912385830E+01  0.62982793673E+01  0.51884763759E+01  0.10123967300E+02  0.10566000000E+00 0.  1.
         14    1    4    4    0    0  0.40040652028E+01  0.28703610855E+01  0.28713300367E+01  0.57022843746E+01  0.00000000000E+00 0. -1.
<mgrwt>
<rscale>  0 0.80728524E+02</rscale>
<asrwt>0</asrwt>
<pdfrwt beam="1">  1        1 0.26906344E-01 0.80728524E+02</pdfrwt>
<pdfrwt beam="2">  1       -2 0.14332192E-02 0.80728524E+02</pdfrwt>
<totfact> 0.15861144E+05</totfact>
</mgrwt>
</event>
<event>
 8    1  0.7756875E-014  0.8142707E+02  0.7818608E-02  0.1325050E+00
         -2   -1    0    0    0  501 -0.00000000000E+00  0.00000000000E+00  0.15257577533E+02  0.15257577746E+02  0.25500000000E-02 0.  1.
          1   -1    0    0  501    0  0.00000000000E+00 -0.00000000000E+00 -0.10864057746E+03  0.10864057757E+03  0.50400000000E-02 0. -1.
        -24    2    1    2    0    0  0.00000000000E+00  0.00000000000E+00 -0.93382999922E+02  0.12389815532E+03  0.81427072997E+02 0.  0.
         66    2    3    3    0    0 -0.27189148815E+02  0.19075707704E+02 -0.10955734478E+02  0.35030851487E+02  0.20000000681E+01 0.  0.
         13    1    3    3    0    0  0.27189148815E+02 -0.19075707704E+02 -0.82427265444E+02  0.88867303831E+02  0.10566000000E+00 0. -1.
         13    1    4    4    0    0 -0.33077122392E+00  0.40074594466E+00 -0.17954762763E+00  0.55982881394E+00  0.10566000000E+00 0. -1.
        -13    1    4    4    0    0 -0.25251269306E+02  0.17707214622E+02 -0.98299907158E+01  0.32369923274E+02  0.10566000000E+00 0.  1.
        -14    1    4    4    0    0 -0.16071082847E+01  0.96774713759E+00 -0.94619613485E+00  0.21010993995E+01  0.00000000000E+00 0.  1.
<mgrwt>
<rscale>  0 0.81427073E+02</rscale>
<asrwt>0</asrwt>
<pdfrwt beam="1">  1        1 0.16713935E-01 0.81427073E+02</pdfrwt>
<pdfrwt beam="2">  1       -2 0.23473197E-02 0.81427073E+02</pdfrwt>
<totfact> 0.14212696E+05</totfact>
</mgrwt>
</event>
<event>
 8    1  0.7756875E-014  0.7996724E+02  0.7818608E-02  0.1329144E+00
         -2   -1    0    0    0  501 -0.00000000000E+00  0.00000000000E+00  0.39154880792E+01  0.39154889096E+01  0.25500000000E-02 0.  1.
          1   -1    0    0  501    0  0.00000000000E+00 -0.00000000000E+00 -0.40829893954E+03  0.40829893957E+03  0.50400000000E-02 0. -1.
        -24    2    1    2    0    0  0.71054273576E-14 -0.17763568394E-14 -0.40438345146E+03  0.41221442848E+03  0.79967238494E+02 0.  0.
         66    2    3    3    0    0 -0.37593096528E+02  0.13530032729E+02 -0.19913121824E+03  0.20310968655E+03  0.20000000016E+01 0.  0.
         13    1    3    3    0    0  0.37593096528E+02 -0.13530032729E+02 -0.20525223322E+03  0.20910474193E+03  0.10566000000E+00 0. -1.
         13    1    4    4    0    0 -0.10997125007E+02  0.45076305093E+01 -0.56724443651E+02  0.57956269400E+02  0.10566000000E+00 0. -1.
        -13    1    4    4    0    0 -0.65741003087E+01  0.21517724377E+01 -0.37349664702E+02  0.37984964616E+02  0.10566000000E+00 0.  1.
         14    1    4    4    0    0 -0.20021871212E+02  0.68706297816E+01 -0.10505710988E+03  0.10716845253E+03  0.00000000000E+00 0. -1.
<mgrwt>
<rscale>  0 0.79967238E+02</rscale>
<asrwt>0</asrwt>
<pdfrwt beam="1">  1        1 0.62815188E-01 0.79967238E+02</pdfrwt>
<pdfrwt beam="2">  1       -2 0.60238317E-03 0.79967238E+02</pdfrwt>
<totfact> 0.19077261E+05</totfact>
</mgrwt>
</event>
<event>
 8    1  0.7756875E-014  0.7830792E+02  0.7818608E-02  0.1333923E+00
         -2   -1    0    0    0  501 -0.00000000000E+00  0.00000000000E+00  0.20881060491E+02  0.20881060647E+02  0.25500000000E-02 0.  1.
          1   -1    0    0  501    0  0.00000000000E+00 -0.00000000000E+00 -0.73417371358E+02  0.73417371531E+02  0.50400000000E-02 0. -1.
        -24    2    1    2    0    0 -0.17763568394E-14  0.71054273576E-14 -0.52536310867E+02  0.94298432178E+02  0.78307920108E+02 0.  0.
         66    2    3    3    0    0  0.13754897050E+02 -0.27338944463E+02 -0.55644345097E+02  0.63536668282E+02  0.19999994753E+01 0.  0.
         13    1    3    3    0    0 -0.13754897050E+02  0.27338944463E+02  0.31080342300E+01  0.30761763896E+02  0.10566000000E+00 0. -1.
         13    1    4    4    0    0  0.11604580686E+01 -0.31609086313E+01 -0.62353659038E+01  0.70872391165E+01  0.10566000000E+00 0. -1.
        -13    1    4    4    0    0  0.95175851059E+01 -0.18087316015E+02 -0.38288208900E+02  0.43401999167E+02  0.10566000000E+00 0.  1.
        -14    1    4    4    0    0  0.30768538751E+01 -0.60907198166E+01 -0.11120770293E+02  0.13047429998E+02  0.00000000000E+00 0.  1.
<mgrwt>
<rscale>  0 0.78307920E+02</rscale>
<asrwt>0</asrwt>
<pdfrwt beam="1">  1        1 0.11294980E-01 0.78307920E+02</pdfrwt>
<pdfrwt beam="2">  1       -2 0.32124709E-02 0.78307920E+02</pdfrwt>
<totfact> 0.14815424E+05</totfact>
</mgrwt>
</event>
<event>
 8    1  0.7756875E-014  0.8064190E+02  0.7818608E-02  0.1327240E+00
         -2   -1    0    0    0  501 -0.00000000000E+00  0.00000000000E+00  0.14534073242E+03  0.14534073244E+03  0.25500000000E-02 0.  1.
          1   -1    0    0  501    0  0.00000000000E+00 -0.00000000000E+00 -0.11185982795E+02  0.11185983930E+02  0.50400000000E-02 0. -1.
        -24    2    1    2    0    0 -0.17763568394E-14  0.00000000000E+00  0.13415474962E+03  0.15652671637E+03  0.80641900345E+02 0.  0.
         66    2    3    3    0    0 -0.11594167667E+02  0.36941231240E+02  0.88793155942E+02  0.96888099394E+02  0.19999931607E+01 0.  0.
         13    1    3    3    0    0  0.11594167667E+02 -0.36941231240E+02  0.45361593680E+02  0.59638616975E+02  0.10566000000E+00 0. -1.
         13    1    4    4    0    0 -0.27635827700E+01  0.78202026226E+01  0.17824862327E+02  0.19660362148E+02  0.10566000000E+00 0. -1.
        -13    1    4    4    0    0 -0.43112722410E+01  0.12475450124E+02  0.29841475033E+02  0.32630487589E+02  0.10566000000E+00 0.  1.
         14    1    4    4    0    0 -0.45193126562E+01  0.16645578494E+02  0.41126818582E+02  0.44597249657E+02  0.00000000000E+00 0. -1.
<mgrwt>
<rscale>  0 0.80641900E+02</rscale>
<asrwt>0</asrwt>
<pdfrwt beam="1">  1        1 0.17209206E-02 0.80641900E+02</pdfrwt>
<pdfrwt beam="2">  1       -2 0.22360112E-01 0.80641900E+02</pdfrwt>
<totfact> 0.93540754E+04</totfact>
</mgrwt>
</event>
<event>
 8    1  0.7756875E-014  0.8087396E+02  0.7818608E-02  0.1326589E+00
         -2   -1    0    0    0  501 -0.00000000000E+00  0.00000000000E+00  0.55196894624E+02  0.55196894682E+02  0.25500000000E-02 0.  1.
          1   -1    0    0  501    0  0.00000000000E+00 -0.00000000000E+00 -0.29623936614E+02  0.29623937043E+02  0.50400000000E-02 0. -1.
        -24    2    1    2    0    0  0.00000000000E+00  0.00000000000E+00  0.25572958010E+02  0.84820831725E+02  0.80873959426E+02 0.  0.
         66    2    3    3    0    0  0.87349003744E+01 -0.17763669328E+02  0.49745756725E+02  0.53576923610E+02  0.19999997167E+01 0.  0.
         13    1    3    3    0    0 -0.87349003744E+01  0.17763669328E+02 -0.24172798715E+02  0.31243908115E+02  0.10566000000E+00 0. -1.
         13    1    4    4    0    0  0.56175604906E+00 -0.72581317104E+00  0.33927702901E+01  0.35163089874E+01  0.10566000000E+00 0. -1.
        -13    1    4    4    0    0  0.27247969168E+01 -0.62873997209E+01  0.16526050765E+02  0.17890707963E+02  0.10566000000E+00 0.  1.
         14    1    4    4    0    0  0.54483474086E+01 -0.10750456436E+02  0.29826935670E+02  0.32169906660E+02  0.00000000000E+00 0. -1.
<mgrwt>
<rscale>  0 0.80873959E+02</rscale>
<asrwt>0</asrwt>
<pdfrwt beam="1">  1        1 0.45575288E-02 0.80873959E+02</pdfrwt>
<pdfrwt beam="2">  1       -2 0.84918298E-02 0.80873959E+02</pdfrwt>
<totfact> 0.11695933E+05</totfact>
</mgrwt>
</event>
<event>
 8    1  0.7756875E-014  0.7823740E+02  0.7818608E-02  0.1334129E+00
         -2   -1    0    0    0  501 -0.00000000000E+00  0.00000000000E+00  0.11672510175E+04  0.11672510175E+04  0.25500000000E-02 0.  1.
          1   -1    0    0  501    0  0.00000000000E+00 -0.00000000000E+00 -0.13110006972E+01  0.13110103851E+01  0.50400000000E-02 0. -1.
        -24    2    1    2    0    0  0.00000000000E+00  0.00000000000E+00  0.11659400168E+04  0.11685620279E+04  0.78237396681E+02 0.  0.
         66    2    3    3    0    0 -0.70475809808E+00 -0.12956380917E+02  0.11341466505E+04  0.11342226366E+04  0.19999999196E+01 0.  0.
         13    1    3    3    0    0  0.70475809808E+00  0.12956380917E+02  0.31793366292E+02  0.34339391297E+02  0.10566000000E+00 0. -1.
         13    1    4    4    0    0 -0.66884834882E+00 -0.85530712969E+01  0.67495791826E+03  0.67501244801E+03  0.10566000000E+00 0. -1.
        -13    1    4    4    0    0 -0.18743991434E-01 -0.43325708141E+01  0.44061412013E+03  0.44063543382E+03  0.10566000000E+00 0.  1.
        -14    1    4    4    0    0 -0.17165757830E-01 -0.70738805868E-01  0.18574612139E+02  0.18574754770E+02  0.00000000000E+00 0.  1.
<mgrwt>
<rscale>  0 0.78237397E+02</rscale>
<asrwt>0</asrwt>
<pdfrwt beam="1">  1        1 0.20169329E-03 0.78237397E+02</pdfrwt>
<pdfrwt beam="2">  1       -2 0.17957696E+00 0.78237397E+02</pdfrwt>
<totfact> 0.22814509E+04</totfact>
</mgrwt>
</event>
<event>
 8    1  0.7756875E-014  0.7947011E+02  0.7818608E-02  0.1330562E+00
         -2   -1    0    0    0  501 -0.00000000000E+00  0.00000000000E+00  0.64308200004E+01  0.64308205060E+01  0.25500000000E-02 0.  1.
          1   -1    0    0  501    0  0.00000000000E+00 -0.00000000000E+00 -0.24551682312E+03  0.24551682317E+03  0.50400000000E-02 0. -1.
        -24    2    1    2    0    0  0.00000000000E+00 -0.35527136788E-14 -0.23908600312E+03  0.25194764367E+03  0.79470109267E+02 0.  0.
         66    2    3    3    0    0 -0.25937223539E+02 -0.28608341675E+02 -0.90270490056E+02  0.98203554781E+02  0.20000045953E+01 0.  0.
         13    1    3    3    0    0  0.25937223539E+02  0.28608341675E+02 -0.14881551306E+03  0.15374408889E+03  0.10566000000E+00 0. -1.
         13    1    4    4    0    0 -0.51046071390E+01 -0.54871340634E+01 -0.18255019689E+02  0.19733792392E+02  0.10566000000E+00 0. -1.
        -13    1    4    4    0    0 -0.69631794063E+01 -0.88665318720E+01 -0.26510341612E+02  0.28808169524E+02  0.10566000000E+00 0.  1.
         14    1    4    4    0    0 -0.13869436993E+02 -0.14254675739E+02 -0.45505128755E+02  0.49661592866E+02  0.00000000000E+00 0. -1.
<mgrwt>
<rscale>  0 0.79470109E+02</rscale>
<asrwt>0</asrwt>
<pdfrwt beam="1">  1        1 0.37771812E-01 0.79470109E+02</pdfrwt>
<pdfrwt beam="2">  1       -2 0.98935715E-03 0.79470109E+02</pdfrwt>
<totfact> 0.17661622E+05</totfact>
</mgrwt>
</event>
<event>
 8    1  0.7756875E-014  0.7792440E+02  0.7818608E-02  0.1335047E+00
          1   -1    0    0  501    0  0.00000000000E+00  0.00000000000E+00  0.19520097935E+03  0.19520097942E+03  0.50400000000E-02 0. -1.
         -2   -1    0    0    0  501 -0.00000000000E+00 -0.00000000000E+00 -0.77768714707E+01  0.77768718888E+01  0.25500000000E-02 0.  1.
        -24    2    1    2    0    0  0.35527136788E-14  0.00000000000E+00  0.18742410788E+03  0.20297785131E+03  0.77924398655E+02 0.  0.
         66    2    3    3    0    0  0.24165405343E+02 -0.17987528141E+02  0.29517239697E+02  0.42223043702E+02  0.19999990219E+01 0.  0.
         13    1    3    3    0    0 -0.24165405343E+02  0.17987528141E+02  0.15790686819E+03  0.16075480761E+03  0.10566000000E+00 0. -1.
         13    1    4    4    0    0  0.20224016631E+01 -0.19657760296E+01  0.29390214360E+01  0.40747263617E+01  0.10566000000E+00 0. -1.
        -13    1    4    4    0    0  0.40201339652E+01 -0.23249391038E+01  0.47643091649E+01  0.66540682885E+01  0.10566000000E+00 0.  1.
         14    1    4    4    0    0  0.18122869715E+02 -0.13696813008E+02  0.21813909096E+02  0.31494249052E+02  0.00000000000E+00 0. -1.
<mgrwt>
<rscale>  0 0.77924399E+02</rscale>
<asrwt>0</asrwt>
<pdfrwt beam="1">  1        1 0.30030921E-01 0.77924399E+02</pdfrwt>
<pdfrwt beam="2">  1       -2 0.11964418E-02 0.77924399E+02</pdfrwt>
<totfact> 0.17794036E+05</totfact>
</mgrwt>
</event>
<event>
 8    1  0.7756875E-014  0.7796476E+02  0.7818608E-02  0.1334928E+00
         -2   -1    0    0    0  501 -0.00000000000E+00  0.00000000000E+00  0.62574568288E+02  0.62574568340E+02  0.25500000000E-02 0.  1.
          1   -1    0    0  501    0  0.00000000000E+00 -0.00000000000E+00 -0.24285040164E+02  0.24285040687E+02  0.50400000000E-02 0. -1.
        -24    2    1    2    0    0  0.00000000000E+00  0.35527136788E-14  0.38289528123E+02  0.86859609027E+02  0.77964759452E+02 0.  0.
         66    2    3    3    0    0  0.72236815411E+01  0.22589742835E+02  0.53588650425E+02  0.58636349761E+02  0.20000006151E+01 0.  0.
         13    1    3    3    0    0 -0.72236815411E+01 -0.22589742835E+02 -0.15299122302E+02  0.28223259266E+02  0.10566000000E+00 0. -1.
         13    1    4    4    0    0  0.49028938253E+00  0.29259914924E+01  0.65899427441E+01  0.72277464883E+01  0.10566000000E+00 0. -1.
        -13    1    4    4    0    0  0.66340976174E+01  0.18350485392E+02  0.44183359934E+02  0.48300435033E+02  0.10566000000E+00 0.  1.
        -14    1    4    4    0    0  0.99294541216E-01  0.13132659511E+01  0.28153477478E+01  0.31081682395E+01  0.00000000000E+00 0.  1.
<mgrwt>
<rscale>  0 0.77964759E+02</rscale>
<asrwt>0</asrwt>
<pdfrwt beam="1">  1        1 0.37361601E-02 0.77964759E+02</pdfrwt>
<pdfrwt beam="2">  1       -2 0.96268566E-02 0.77964759E+02</pdfrwt>
<totfact> 0.12537513E+05</totfact>
</mgrwt>
</event>
<event>
 8    1  0.7756875E-014  0.8936292E+02  0.7818608E-02  0.1304402E+00
          1   -1    0    0  501    0  0.00000000000E+00  0.00000000000E+00  0.10387197670E+02  0.10387198893E+02  0.50400000000E-02 0. -1.
         -2   -1    0    0    0  501 -0.00000000000E+00 -0.00000000000E+00 -0.19220127867E+03  0.19220127869E+03  0.25500000000E-02 0.  1.
        -24    2    1    2    0    0  0.00000000000E+00  0.00000000000E+00 -0.18181408100E+03  0.20258847758E+03  0.89362918474E+02 0.  0.
         66    2    3    3    0    0  0.21151615912E+02  0.37094172780E+02 -0.61302044821E+02  0.74734926444E+02  0.20000053515E+01 0.  0.
         13    1    3    3    0    0 -0.21151615912E+02 -0.37094172780E+02 -0.12051203618E+03  0.12785355114E+03  0.10566000000E+00 0. -1.
         13    1    4    4    0    0  0.31869106147E+01  0.46337586960E+01 -0.83527497091E+01  0.10070139555E+02  0.10566000000E+00 0. -1.
        -13    1    4    4    0    0  0.15618407100E+02  0.28929808176E+02 -0.47209979240E+02  0.57529659701E+02  0.10566000000E+00 0.  1.
        -14    1    4    4    0    0  0.23462981971E+01  0.35306059085E+01 -0.57393158718E+01  0.71351271878E+01  0.00000000000E+00 0.  1.
<mgrwt>
<rscale>  0 0.89362918E+02</rscale>
<asrwt>0</asrwt>
<pdfrwt beam="1">  1        1 0.15980307E-02 0.89362918E+02</pdfrwt>
<pdfrwt beam="2">  1       -2 0.29569425E-01 0.89362918E+02</pdfrwt>
<totfact> 0.64915703E+04</totfact>
</mgrwt>
</event>
<event>
 8    1  0.7756875E-014  0.7899007E+02  0.7818608E-02  0.1331942E+00
         -2   -1    0    0    0  501 -0.00000000000E+00  0.00000000000E+00  0.36986493692E+01  0.36986502482E+01  0.25500000000E-02 0.  1.
          1   -1    0    0  501    0  0.00000000000E+00 -0.00000000000E+00 -0.42173707868E+03  0.42173707871E+03  0.50400000000E-02 0. -1.
        -24    2    1    2    0    0 -0.35527136788E-14  0.71054273576E-14 -0.41803842931E+03  0.42543572896E+03  0.78990069589E+02 0.  0.
         66    2    3    3    0    0  0.19077397653E+02 -0.34277053894E+02 -0.23262299570E+03  0.23591592074E+03  0.20000004216E+01 0.  0.
         13    1    3    3    0    0 -0.19077397653E+02  0.34277053894E+02 -0.18541543361E+03  0.18951980822E+03  0.10566000000E+00 0. -1.
         13    1    4    4    0    0  0.11657053929E+00 -0.30815008116E+00 -0.27200802609E+01  0.27419966857E+01  0.10566000000E+00 0. -1.
        -13    1    4    4    0    0  0.11510664763E+02 -0.20833089781E+02 -0.13735239662E+03  0.13939944424E+03  0.10566000000E+00 0.  1.
        -14    1    4    4    0    0  0.74501623511E+01 -0.13135814032E+02 -0.92550518823E+02  0.93774479811E+02  0.00000000000E+00 0.  1.
<mgrwt>
<rscale>  0 0.78990070E+02</rscale>
<asrwt>0</asrwt>
<pdfrwt beam="1">  1        1 0.64882590E-01 0.78990070E+02</pdfrwt>
<pdfrwt beam="2">  1       -2 0.56902338E-03 0.78990070E+02</pdfrwt>
<totfact> 0.19803346E+05</totfact>
</mgrwt>
</event>
<event>
 8    1  0.7756875E-014  0.8030016E+02  0.7818608E-02  0.1328202E+00
         -2   -1    0    0    0  501 -0.00000000000E+00  0.00000000000E+00  0.58379217058E+01  0.58379222627E+01  0.25500000000E-02 0.  1.
          1   -1    0    0  501    0  0.00000000000E+00 -0.00000000000E+00 -0.27613063029E+03  0.27613063033E+03  0.50400000000E-02 0. -1.
        -24    2    1    2    0    0 -0.35527136788E-14 -0.71054273576E-14 -0.27029270858E+03  0.28196855260E+03  0.80300164014E+02 0.  0.
         66    2    3    3    0    0 -0.24607534345E+02 -0.24996420441E+02 -0.20365084729E+03  0.20665918650E+03  0.19999953181E+01 0.  0.
         13    1    3    3    0    0  0.24607534345E+02  0.24996420441E+02 -0.66641861289E+02  0.75309366094E+02  0.10566000000E+00 0. -1.
         13    1    4    4    0    0 -0.48473039136E+01 -0.39916476592E+01 -0.38359844597E+02  0.38870534442E+02  0.10566000000E+00 0. -1.
        -13    1    4    4    0    0 -0.73429869464E+01 -0.79300234187E+01 -0.63171520913E+02  0.64089444897E+02  0.10566000000E+00 0.  1.
         14    1    4    4    0    0 -0.12417243485E+02 -0.13074749363E+02 -0.10211948178E+03  0.10369920716E+03  0.00000000000E+00 0. -1.
<mgrwt>
<rscale>  0 0.80300164E+02</rscale>
<asrwt>0</asrwt>
<pdfrwt beam="1">  1        1 0.42481625E-01 0.80300164E+02</pdfrwt>
<pdfrwt beam="2">  1       -2 0.89814206E-03 0.80300164E+02</pdfrwt>
<totfact> 0.17581441E+05</totfact>
</mgrwt>
</event>
<event>
 8    1  0.7756875E-014  0.7974662E+02  0.7818608E-02  0.1329772E+00
         -2   -1    0    0    0  501 -0.00000000000E+00  0.00000000000E+00  0.18559614882E+03  0.18559614884E+03  0.25500000000E-02 0.  1.
          1   -1    0    0  501    0  0.00000000000E+00 -0.00000000000E+00 -0.85663449912E+01  0.85663464739E+01  0.50400000000E-02 0. -1.
        -24    2    1    2    0    0 -0.11102230246E-15 -0.17763568394E-14  0.17702980383E+03  0.19416249531E+03  0.79746618373E+02 0.  0.
         66    2    3    3    0    0 -0.54920487336E+00 -0.15136315075E+02  0.17830864698E+03  0.17896196033E+03  0.19999991164E+01 0.  0.
         13    1    3    3    0    0  0.54920487336E+00  0.15136315075E+02 -0.12788431479E+01  0.15200534987E+02  0.10566000000E+00 0. -1.
         13    1    4    4    0    0 -0.87472900413E-01 -0.47265919109E+01  0.56824009170E+02  0.57020413054E+02  0.10566000000E+00 0. -1.
        -13    1    4    4    0    0  0.46721809543E+00 -0.62907342442E+01  0.69569282844E+02  0.69854762970E+02  0.10566000000E+00 0.  1.
         14    1    4    4    0    0 -0.92895006838E+00 -0.41189889204E+01  0.51915354964E+02  0.52086784302E+02  0.00000000000E+00 0. -1.
<mgrwt>
<rscale>  0 0.79746618E+02</rscale>
<asrwt>0</asrwt>
<pdfrwt beam="1">  1        1 0.13178993E-02 0.79746618E+02</pdfrwt>
<pdfrwt beam="2">  1       -2 0.28553254E-01 0.79746618E+02</pdfrwt>
<totfact> 0.88343799E+04</totfact>
</mgrwt>
</event>
<event>
 8    1  0.7756875E-014  0.7932600E+02  0.7818608E-02  0.1330975E+00
          1   -1    0    0  501    0  0.00000000000E+00  0.00000000000E+00  0.11040115078E+01  0.11040230120E+01  0.50400000000E-02 0. -1.
         -2   -1    0    0    0  501 -0.00000000000E+00 -0.00000000000E+00 -0.14249357543E+04  0.14249357543E+04  0.25500000000E-02 0.  1.
        -24    2    1    2    0    0 -0.35527136788E-14 -0.88817841970E-15 -0.14238317428E+04  0.14260397773E+04  0.79326002671E+02 0.  0.
         66    2    3    3    0    0 -0.16910689468E+02  0.58746820409E+01 -0.13481175458E+04  0.13482378872E+04  0.20000040323E+01 0.  0.
         13    1    3    3    0    0  0.16910689468E+02 -0.58746820409E+01 -0.75714197003E+02  0.77801890075E+02  0.10566000000E+00 0. -1.
         13    1    4    4    0    0 -0.34247515446E+01  0.87087654479E+00 -0.30170158530E+03  0.30172229796E+03  0.10566000000E+00 0. -1.
        -13    1    4    4    0    0 -0.10464419519E+02  0.43779255293E+01 -0.83868345954E+03  0.83876017238E+03  0.10566000000E+00 0.  1.
         14    1    4    4    0    0 -0.30215184041E+01  0.62587996687E+00 -0.20773250092E+03  0.20775541686E+03  0.00000000000E+00 0. -1.
<mgrwt>
<rscale>  0 0.79326003E+02</rscale>
<asrwt>0</asrwt>
<pdfrwt beam="1">  1        1 0.16984995E-03 0.79326003E+02</pdfrwt>
<pdfrwt beam="2">  1       -2 0.21921941E+00 0.79326003E+02</pdfrwt>
<totfact> 0.16516434E+04</totfact>
</mgrwt>
</event>
<event>
 8    1  0.7756875E-014  0.7967069E+02  0.7818608E-02  0.1329989E+00
         -2   -1    0    0    0  501 -0.00000000000E+00  0.00000000000E+00  0.28823930714E+03  0.28823930715E+03  0.25500000000E-02 0.  1.
          1   -1    0    0  501    0  0.00000000000E+00 -0.00000000000E+00 -0.55053364289E+01  0.55053387359E+01  0.50400000000E-02 0. -1.
        -24    2    1    2    0    0 -0.44408920985E-15  0.00000000000E+00  0.28273397071E+03  0.29374464589E+03  0.79670689675E+02 0.  0.
         66    2    3    3    0    0  0.20425554154E+01 -0.39032129490E+02  0.16933356997E+03  0.17379740242E+03  0.20000002531E+01 0.  0.
         13    1    3    3    0    0 -0.20425554154E+01  0.39032129490E+02  0.11340040074E+03  0.11994724347E+03  0.10566000000E+00 0. -1.
         13    1    4    4    0    0  0.15610735038E+01 -0.27166134616E+02  0.11971916586E+03  0.12277265844E+03  0.10566000000E+00 0. -1.
        -13    1    4    4    0    0  0.48104950381E+00 -0.11462027336E+02  0.48527196446E+02  0.49864911894E+02  0.10566000000E+00 0.  1.
         14    1    4    4    0    0  0.43240773286E-03 -0.40396753810E+00  0.10872076646E+01  0.11598320847E+01  0.00000000000E+00 0. -1.
<mgrwt>
<rscale>  0 0.79670690E+02</rscale>
<asrwt>0</asrwt>
<pdfrwt beam="1">  1        1 0.84697488E-03 0.79670690E+02</pdfrwt>
<pdfrwt beam="2">  1       -2 0.44344516E-01 0.79670690E+02</pdfrwt>
<totfact> 0.72561846E+04</totfact>
</mgrwt>
</event>
<event>
 8    1  0.7756875E-014  0.7964536E+02  0.7818608E-02  0.1330061E+00
         -2   -1    0    0    0  501 -0.00000000000E+00  0.00000000000E+00  0.96104096229E+02  0.96104096263E+02  0.25500000000E-02 0.  1.
          1   -1    0    0  501    0  0.00000000000E+00 -0.00000000000E+00 -0.16501332875E+02  0.16501333645E+02  0.50400000000E-02 0. -1.
        -24    2    1    2    0    0 -0.88817841970E-15  0.00000000000E+00  0.79602763354E+02  0.11260542991E+03  0.79645357122E+02 0.  0.
         66    2    3    3    0    0  0.60643299254E+01  0.38881907035E+02  0.48222018407E+02  0.62273123090E+02  0.20000020135E+01 0.  0.
         13    1    3    3    0    0 -0.60643299254E+01 -0.38881907035E+02  0.31380744947E+02  0.50332306817E+02  0.10566000000E+00 0. -1.
         13    1    4    4    0    0  0.17267381831E+01  0.81055937034E+01  0.95926904621E+01  0.12677268964E+02  0.10566000000E+00 0. -1.
        -13    1    4    4    0    0  0.34794384119E+01  0.22359551311E+02  0.27405797810E+02  0.35540750472E+02  0.10566000000E+00 0.  1.
         14    1    4    4    0    0  0.85815333037E+00  0.84167620207E+01  0.11223530135E+02  0.14055103655E+02  0.00000000000E+00 0. -1.
<mgrwt>
<rscale>  0 0.79645357E+02</rscale>
<asrwt>0</asrwt>
<pdfrwt beam="1">  1        1 0.25386667E-02 0.79645357E+02</pdfrwt>
<pdfrwt beam="2">  1       -2 0.14785246E-01 0.79645357E+02</pdfrwt>
<totfact> 0.10839157E+05</totfact>
</mgrwt>
</event>
<event>
 8    1  0.7756875E-014  0.8021885E+02  0.7818608E-02  0.1328432E+00
         -2   -1    0    0    0  501 -0.00000000000E+00  0.00000000000E+00  0.13249556369E+03  0.13249556372E+03  0.25500000000E-02 0.  1.
          1   -1    0    0  501    0  0.00000000000E+00 -0.00000000000E+00 -0.12142034617E+02  0.12142035663E+02  0.50400000000E-02 0. -1.
        -24    2    1    2    0    0  0.00000000000E+00  0.00000000000E+00  0.12035352908E+03  0.14463759938E+03  0.80218845625E+02 0.  0.
         66    2    3    3    0    0 -0.17786788133E+02 -0.22228165854E+02  0.11109359187E+03  0.11470068587E+03  0.19999988322E+01 0.  0.
         13    1    3    3    0    0  0.17786788133E+02  0.22228165854E+02  0.92599372060E+01  0.29936913509E+02  0.10566000000E+00 0. -1.
         13    1    4    4    0    0 -0.54444580701E+01 -0.59700714818E+01  0.30730364248E+02  0.31774995326E+02  0.10566000000E+00 0. -1.
        -13    1    4    4    0    0 -0.66567781786E+01 -0.87925767576E+01  0.46072070506E+02  0.47373715776E+02  0.10566000000E+00 0.  1.
        -14    1    4    4    0    0 -0.56855518848E+01 -0.74655176151E+01  0.34291157119E+02  0.35551974770E+02  0.00000000000E+00 0.  1.
<mgrwt>
<rscale>  0 0.80218846E+02</rscale>
<asrwt>0</asrwt>
<pdfrwt beam="1">  1        1 0.18680054E-02 0.80218846E+02</pdfrwt>
<pdfrwt beam="2">  1       -2 0.20383933E-01 0.80218846E+02</pdfrwt>
<totfact> 0.97585367E+04</totfact>
</mgrwt>
</event>
<event>
 8    1  0.7756875E-014  0.7922233E+02  0.7818608E-02  0.1331273E+00
          1   -1    0    0  501    0  0.00000000000E+00  0.00000000000E+00  0.54312080324E+02  0.54312080557E+02  0.50400000000E-02 0. -1.
         -2   -1    0    0    0  501 -0.00000000000E+00 -0.00000000000E+00 -0.28889415908E+02  0.28889416021E+02  0.25500000000E-02 0.  1.
        -24    2    1    2    0    0  0.00000000000E+00  0.00000000000E+00  0.25422664416E+02  0.83201496578E+02  0.79222327451E+02 0.  0.
         66    2    3    3    0    0  0.61413578799E+01  0.32220193650E+02 -0.10556401367E+02  0.34515138180E+02  0.19999995630E+01 0.  0.
         13    1    3    3    0    0 -0.61413578799E+01 -0.32220193650E+02  0.35979065782E+02  0.48686358398E+02  0.10566000000E+00 0. -1.
         13    1    4    4    0    0  0.54833219662E-01  0.27546906151E+01 -0.73676755515E+00  0.28540002686E+01  0.10566000000E+00 0. -1.
        -13    1    4    4    0    0  0.49377961486E+01  0.22341526439E+02 -0.76540579814E+01  0.24127192170E+02  0.10566000000E+00 0.  1.
         14    1    4    4    0    0  0.11487285116E+01  0.71239765967E+01 -0.21655758304E+01  0.75339457405E+01  0.00000000000E+00 0. -1.
<mgrwt>
<rscale>  0 0.79222327E+02</rscale>
<asrwt>0</asrwt>
<pdfrwt beam="1">  1        1 0.83557046E-02 0.79222327E+02</pdfrwt>
<pdfrwt beam="2">  1       -2 0.44445256E-02 0.79222327E+02</pdfrwt>
<totfact> 0.13694282E+05</totfact>
</mgrwt>
</event>
<event>
 8    1  0.7756875E-014  0.7881754E+02  0.7818608E-02  0.1332441E+00
         -2   -1    0    0    0  501 -0.00000000000E+00  0.00000000000E+00  0.16298055898E+02  0.16298056097E+02  0.25500000000E-02 0.  1.
          1   -1    0    0  501    0  0.00000000000E+00 -0.00000000000E+00 -0.95290587774E+02  0.95290587908E+02  0.50400000000E-02 0. -1.
        -24    2    1    2    0    0  0.35527136788E-14  0.00000000000E+00 -0.78992531877E+02  0.11158864400E+03  0.78817544865E+02 0.  0.
         66    2    3    3    0    0 -0.29141576259E+02 -0.24575810417E+02 -0.25517202138E+02  0.45916549633E+02  0.20000001889E+01 0.  0.
         13    1    3    3    0    0  0.29141576259E+02  0.24575810417E+02 -0.53475329739E+02  0.65672094372E+02  0.10566000000E+00 0. -1.
         13    1    4    4    0    0 -0.88497457626E+01 -0.81827767128E+01 -0.82852969119E+01  0.14626453560E+02  0.10566000000E+00 0.  1.
        -13    1    4    4    0    0 -0.57175076661E+01 -0.51471497491E+01 -0.55692501457E+01  0.94979342845E+01  0.10566000000E+00 0. -1.
        -14    1    4    4    0    0 -0.14574322830E+02 -0.11245883955E+02 -0.11662655080E+02  0.21792161788E+02  0.00000000000E+00 0.  1.
<mgrwt>
<rscale>  0 0.78817545E+02</rscale>
<asrwt>0</asrwt>
<pdfrwt beam="1">  1        1 0.14660090E-01 0.78817545E+02</pdfrwt>
<pdfrwt beam="2">  1       -2 0.25073933E-02 0.78817545E+02</pdfrwt>
<totfact> 0.15180062E+05</totfact>
</mgrwt>
</event>
<event>
 8    1  0.7756875E-014  0.7996857E+02  0.7818608E-02  0.1329141E+00
         -2   -1    0    0    0  501 -0.00000000000E+00  0.00000000000E+00  0.18437684124E+02  0.18437684300E+02  0.25500000000E-02 0.  1.
          1   -1    0    0  501    0  0.00000000000E+00 -0.00000000000E+00 -0.86710629072E+02  0.86710629218E+02  0.50400000000E-02 0. -1.
        -24    2    1    2    0    0  0.35527136788E-14  0.35527136788E-14 -0.68272944948E+02  0.10514831352E+03  0.79968573977E+02 0.  0.
         66    2    3    3    0    0  0.21895203351E+02  0.28007633177E+02 -0.10166842352E+02  0.37029610001E+02  0.19999718735E+01 0.  0.
         13    1    3    3    0    0 -0.21895203351E+02 -0.28007633177E+02 -0.58106102596E+02  0.68118703517E+02  0.10566000000E+00 0. -1.
         13    1    4    4    0    0  0.16912746060E+02  0.22436098072E+02 -0.83333173360E+01  0.29306566122E+02  0.10566000000E+00 0. -1.
        -13    1    4    4    0    0  0.48432469117E+01  0.55230344038E+01 -0.18464618355E+01  0.75750600670E+01  0.10566000000E+00 0.  1.
         14    1    4    4    0    0  0.13921037847E+00  0.48500701364E-01  0.12936818991E-01  0.14798381260E+00  0.00000000000E+00 0. -1.
<mgrwt>
<rscale>  0 0.79968574E+02</rscale>
<asrwt>0</asrwt>
<pdfrwt beam="1">  1        1 0.13340097E-01 0.79968574E+02</pdfrwt>
<pdfrwt beam="2">  1       -2 0.28365669E-02 0.79968574E+02</pdfrwt>
<totfact> 0.14371124E+05</totfact>
</mgrwt>
</event>
<event>
 8    1  0.7756875E-014  0.7158746E+02  0.7818608E-02  0.1354777E+00
          1   -1    0    0  501    0  0.00000000000E+00  0.00000000000E+00  0.92671962884E+01  0.92671976589E+01  0.50400000000E-02 0. -1.
         -2   -1    0    0    0  501 -0.00000000000E+00 -0.00000000000E+00 -0.13825011244E+03  0.13825011246E+03  0.25500000000E-02 0.  1.
        -24    2    1    2    0    0  0.00000000000E+00 -0.35527136788E-14 -0.12898291615E+03  0.14751731012E+03  0.71587457888E+02 0.  0.
         66    2    3    3    0    0 -0.27717853655E+02  0.21688836564E+02 -0.77655796732E+02  0.85282517646E+02  0.20000017964E+01 0.  0.
         13    1    3    3    0    0  0.27717853655E+02 -0.21688836564E+02 -0.51327119421E+02  0.62234792478E+02  0.10566000000E+00 0. -1.
         13    1    4    4    0    0 -0.13300097871E+02  0.11255919736E+02 -0.39012528620E+02  0.42726770131E+02  0.10566000000E+00 0. -1.
        -13    1    4    4    0    0 -0.12783811198E+02  0.96154632462E+01 -0.34631903103E+02  0.38147907397E+02  0.10566000000E+00 0.  1.
         14    1    4    4    0    0 -0.16339445862E+01  0.81745358172E+00 -0.40113650093E+01  0.44078401181E+01  0.00000000000E+00 0. -1.
<mgrwt>
<rscale>  0 0.71587458E+02</rscale>
<asrwt>0</asrwt>
<pdfrwt beam="1">  1        1 0.14257227E-02 0.71587458E+02</pdfrwt>
<pdfrwt beam="2">  1       -2 0.21269247E-01 0.71587458E+02</pdfrwt>
<totfact> 0.12893347E+05</totfact>
</mgrwt>
</event>
<event>
 8    1  0.7756875E-014  0.7731278E+02  0.7818608E-02  0.1336855E+00
          1   -1    0    0  501    0  0.00000000000E+00  0.00000000000E+00  0.51024818140E+02  0.51024818389E+02  0.50400000000E-02 0. -1.
         -2   -1    0    0    0  501 -0.00000000000E+00 -0.00000000000E+00 -0.29286071437E+02  0.29286071548E+02  0.25500000000E-02 0.  1.
        -24    2    1    2    0    0  0.71054273576E-14 -0.35527136788E-14  0.21738746703E+02  0.80310889937E+02  0.77312779889E+02 0.  0.
         66    2    3    3    0    0  0.23418708855E+02 -0.30009619059E+02  0.17711950805E+02  0.42032444178E+02  0.20000004363E+01 0.  0.
         13    1    3    3    0    0 -0.23418708855E+02  0.30009619059E+02  0.40267958981E+01  0.38278445759E+02  0.10566000000E+00 0. -1.
         13    1    4    4    0    0  0.89696692722E+01 -0.12533488611E+02  0.67016975613E+01  0.16806761076E+02  0.10566000000E+00 0. -1.
        -13    1    4    4    0    0  0.19419538069E+01 -0.26813628269E+01  0.18840780607E+01  0.38107486629E+01  0.10566000000E+00 0. -1.
        -14    1    4    4    0    0  0.12507085776E+02 -0.14794767621E+02  0.91261751828E+01  0.21414934439E+02  0.00000000000E+00 0.  1.
<mgrwt>
<rscale>  0 0.77312780E+02</rscale>
<asrwt>0</asrwt>
<pdfrwt beam="1">  1        1 0.78499721E-02 0.77312780E+02</pdfrwt>
<pdfrwt beam="2">  1       -2 0.45055495E-02 0.77312780E+02</pdfrwt>
<totfact> 0.14509714E+05</totfact>
</mgrwt>
</event>
<event>
 8    1  0.7756875E-014  0.7102699E+02  0.7818608E-02  0.1356635E+00
          1   -1    0    0  501    0  0.00000000000E+00  0.00000000000E+00  0.82654530652E+01  0.82654546019E+01  0.50400000000E-02 0. -1.
         -2   -1    0    0    0  501 -0.00000000000E+00 -0.00000000000E+00 -0.15258791906E+03  0.15258791908E+03  0.25500000000E-02 0.  1.
        -24    2    1    2    0    0  0.00000000000E+00  0.00000000000E+00 -0.14432246600E+03  0.16085337368E+03  0.71026992295E+02 0.  0.
         66    2    3    3    0    0 -0.16358469308E+02  0.30789633280E+02 -0.87172477446E+02  0.93907624074E+02  0.19999998945E+01 0.  0.
         13    1    3    3    0    0  0.16358469308E+02 -0.30789633280E+02 -0.57149988549E+02  0.66945749610E+02  0.10566000000E+00 0. -1.
         13    1    4    4    0    0 -0.94897041983E+00  0.25405876033E+01 -0.69008684184E+01  0.74154082282E+01  0.10566000000E+00 0. -1.
        -13    1    4    4    0    0 -0.35637876112E+01  0.72309196002E+01 -0.21442201200E+02  0.22907770226E+02  0.10566000000E+00 0.  1.
        -14    1    4    4    0    0 -0.11845711277E+02  0.21018126076E+02 -0.58829407828E+02  0.63584445620E+02  0.00000000000E+00 0.  1.
<mgrwt>
<rscale>  0 0.71026992E+02</rscale>
<asrwt>0</asrwt>
<pdfrwt beam="1">  1        1 0.12716084E-02 0.71026992E+02</pdfrwt>
<pdfrwt beam="2">  1       -2 0.23475062E-01 0.71026992E+02</pdfrwt>
<totfact> 0.12747297E+05</totfact>
</mgrwt>
</event>
<event>
 8    1  0.7756875E-014  0.7650565E+02  0.7818608E-02  0.1339271E+00
          1   -1    0    0  501    0  0.00000000000E+00  0.00000000000E+00  0.14104663372E+03  0.14104663381E+03  0.50400000000E-02 0. -1.
         -2   -1    0    0    0  501 -0.00000000000E+00 -0.00000000000E+00 -0.10374430054E+02  0.10374430367E+02  0.25500000000E-02 0.  1.
        -24    2    1    2    0    0 -0.71054273576E-14  0.00000000000E+00  0.13067220366E+03  0.15142106418E+03  0.76505645972E+02 0.  0.
         66    2    3    3    0    0 -0.23071514068E+02 -0.13888600515E+02  0.11682769787E+02  0.29422357116E+02  0.20000006728E+01 0.  0.
         13    1    3    3    0    0  0.23071514068E+02  0.13888600515E+02  0.11898943388E+03  0.12199870706E+03  0.10566000000E+00 0. -1.
         13    1    4    4    0    0 -0.39457977590E+01 -0.28277098562E+01  0.17825604872E+01  0.51724219580E+01  0.10566000000E+00 0. -1.
        -13    1    4    4    0    0 -0.18229308314E+02 -0.10839206680E+02  0.93830835946E+01  0.23191582629E+02  0.10566000000E+00 0.  1.
         14    1    4    4    0    0 -0.89640799569E+00 -0.22168397899E+00  0.51712570512E+00  0.10583525293E+01  0.00000000000E+00 0. -1.
<mgrwt>
<rscale>  0 0.76505646E+02</rscale>
<asrwt>0</asrwt>
<pdfrwt beam="1">  1        1 0.21699481E-01 0.76505646E+02</pdfrwt>
<pdfrwt beam="2">  1       -2 0.15960662E-02 0.76505646E+02</pdfrwt>
<totfact> 0.17587638E+05</totfact>
</mgrwt>
</event>
<event>
 8    1  0.7756875E-014  0.7858787E+02  0.7818608E-02  0.1333107E+00
          1   -1    0    0  501    0  0.00000000000E+00  0.00000000000E+00  0.63503062585E+02  0.63503062785E+02  0.50400000000E-02 0. -1.
         -2   -1    0    0    0  501 -0.00000000000E+00 -0.00000000000E+00 -0.24313999719E+02  0.24313999853E+02  0.25500000000E-02 0.  1.
        -24    2    1    2    0    0  0.00000000000E+00  0.17763568394E-14  0.39189062866E+02  0.87817062637E+02  0.78587873377E+02 0.  0.
         66    2    3    3    0    0  0.17759130643E+02  0.11075269268E+02 -0.17520687417E+02  0.27368280584E+02  0.19999959905E+01 0.  0.
         13    1    3    3    0    0 -0.17759130643E+02 -0.11075269268E+02  0.56709750283E+02  0.60448782054E+02  0.10566000000E+00 0. -1.
         13    1    4    4    0    0  0.55727945156E+00  0.33247182948E+00 -0.39173602447E+00  0.76532284233E+00  0.10566000000E+00 0.  1.
        -13    1    4    4    0    0  0.10879127125E+02  0.71605172142E+01 -0.11983856984E+02  0.17698937991E+02  0.10566000000E+00 0.  1.
        -14    1    4    4    0    0  0.63227240666E+01  0.35822802246E+01 -0.51450944093E+01  0.89040197501E+01  0.00000000000E+00 0.  1.
<mgrwt>
<rscale>  0 0.78587873E+02</rscale>
<asrwt>0</asrwt>
<pdfrwt beam="1">  1        1 0.97697019E-02 0.78587873E+02</pdfrwt>
<pdfrwt beam="2">  1       -2 0.37406154E-02 0.78587873E+02</pdfrwt>
<totfact> 0.14343901E+05</totfact>
</mgrwt>
</event>
<event>
 8    1  0.7756875E-014  0.8588686E+02  0.7818608E-02  0.1313129E+00
          1   -1    0    0  501    0  0.00000000000E+00  0.00000000000E+00  0.39271114968E+02  0.39271115291E+02  0.50400000000E-02 0. -1.
         -2   -1    0    0    0  501 -0.00000000000E+00 -0.00000000000E+00 -0.46959154144E+02  0.46959154213E+02  0.25500000000E-02 0.  1.
        -24    2    1    2    0    0  0.00000000000E+00  0.00000000000E+00 -0.76880391759E+01  0.86230269505E+02  0.85886864144E+02 0.  0.
         66    2    3    3    0    0 -0.55334646259E+01 -0.42406172578E+02 -0.74980325945E+01  0.43464044864E+02  0.19999999344E+01 0.  0.
         13    1    3    3    0    0  0.55334646259E+01  0.42406172578E+02 -0.19000658144E+00  0.42766224640E+02  0.10566000000E+00 0. -1.
         13    1    4    4    0    0 -0.18694694095E+01 -0.90425845683E+01 -0.17079175032E+01  0.93910275147E+01  0.10566000000E+00 0. -1.
        -13    1    4    4    0    0 -0.21496964988E+01 -0.17774182679E+02 -0.26601468699E+01  0.18100561051E+02  0.10566000000E+00 0.  1.
         14    1    4    4    0    0 -0.15142987176E+01 -0.15589405330E+02 -0.31299682213E+01  0.15972456299E+02  0.00000000000E+00 0. -1.
<mgrwt>
<rscale>  0 0.85886864E+02</rscale>
<asrwt>0</asrwt>
<pdfrwt beam="1">  1        1 0.60417101E-02 0.85886864E+02</pdfrwt>
<pdfrwt beam="2">  1       -2 0.72244852E-02 0.85886864E+02</pdfrwt>
<totfact> 0.10347195E+05</totfact>
</mgrwt>
</event>
<event>
 8    1  0.7756875E-014  0.7966245E+02  0.7818608E-02  0.1330012E+00
         -2   -1    0    0    0  501 -0.00000000000E+00  0.00000000000E+00  0.41603850717E+01  0.41603858532E+01  0.25500000000E-02 0.  1.
          1   -1    0    0  501    0  0.00000000000E+00 -0.00000000000E+00 -0.38134121084E+03  0.38134121088E+03  0.50400000000E-02 0. -1.
        -24    2    1    2    0    0  0.00000000000E+00  0.00000000000E+00 -0.37718082577E+03  0.38550159673E+03  0.79662448817E+02 0.  0.
         66    2    3    3    0    0  0.18950420613E+02  0.32416019235E+02 -0.25265306019E+03  0.25543587369E+03  0.20000002859E+01 0.  0.
         13    1    3    3    0    0 -0.18950420613E+02 -0.32416019235E+02 -0.12452776558E+03  0.13006572304E+03  0.10566000000E+00 0. -1.
         13    1    4    4    0    0  0.93315368895E+00  0.14920424320E+01 -0.12242180160E+02  0.12368472239E+02  0.10566000000E+00 0.  1.
        -13    1    4    4    0    0  0.11815736465E+02  0.19180917632E+02 -0.14642262680E+03  0.14814559066E+03  0.10566000000E+00 0.  1.
         14    1    4    4    0    0  0.62015304594E+01  0.11743059171E+02 -0.93988253229E+02  0.94921810791E+02  0.00000000000E+00 0. -1.
<mgrwt>
<rscale>  0 0.79662449E+02</rscale>
<asrwt>0</asrwt>
<pdfrwt beam="1">  1        1 0.58667851E-01 0.79662449E+02</pdfrwt>
<pdfrwt beam="2">  1       -2 0.64005960E-03 0.79662449E+02</pdfrwt>
<totfact> 0.19053115E+05</totfact>
</mgrwt>
</event>
<event>
 8    1  0.7756875E-014  0.7439890E+02  0.7818608E-02  0.1345743E+00
         -2   -1    0    0    0  501 -0.00000000000E+00  0.00000000000E+00  0.21985043756E+03  0.21985043757E+03  0.25500000000E-02 0.  1.
          1   -1    0    0  501    0  0.00000000000E+00 -0.00000000000E+00 -0.62942740351E+01  0.62942760530E+01  0.50400000000E-02 0. -1.
        -24    2    1    2    0    0  0.00000000000E+00 -0.71054273576E-14  0.21355616352E+03  0.22614471363E+03  0.74398901351E+02 0.  0.
         66    2    3    3    0    0 -0.95029169313E+01 -0.33205967917E+02  0.14862665000E+03  0.15260020584E+03  0.19999989512E+01 0.  0.
         13    1    3    3    0    0  0.95029169313E+01  0.33205967917E+02  0.64929513523E+02  0.73544507789E+02  0.10566000000E+00 0. -1.
         13    1    4    4    0    0 -0.37816412521E+01 -0.15121639765E+02  0.67342901655E+02  0.69123385096E+02  0.10566000000E+00 0. -1.
        -13    1    4    4    0    0 -0.42636803481E+01 -0.13814983443E+02  0.59586211227E+02  0.61315254791E+02  0.10566000000E+00 0.  1.
        -14    1    4    4    0    0 -0.14575953311E+01 -0.42693447086E+01  0.21697537119E+02  0.22161565951E+02  0.00000000000E+00 0.  1.
<mgrwt>
<rscale>  0 0.74398901E+02</rscale>
<asrwt>0</asrwt>
<pdfrwt beam="1">  1        1 0.96835015E-03 0.74398901E+02</pdfrwt>
<pdfrwt beam="2">  1       -2 0.33823140E-01 0.74398901E+02</pdfrwt>
<totfact> 0.98557432E+04</totfact>
</mgrwt>
</event>
<event>
 8    1  0.7756875E-014  0.7941712E+02  0.7818608E-02  0.1330714E+00
          1   -1    0    0  501    0  0.00000000000E+00  0.00000000000E+00  0.91889504013E+01  0.91889517835E+01  0.50400000000E-02 0. -1.
         -2   -1    0    0    0  501 -0.00000000000E+00 -0.00000000000E+00 -0.17159410003E+03  0.17159410005E+03  0.25500000000E-02 0.  1.
        -24    2    1    2    0    0  0.88817841970E-15  0.00000000000E+00 -0.16240514963E+03  0.18078305183E+03  0.79417121604E+02 0.  0.
         66    2    3    3    0    0 -0.74404767066E+01 -0.88687618118E+01 -0.16765871018E+03  0.16806980314E+03  0.19999995754E+01 0.  0.
         13    1    3    3    0    0  0.74404767066E+01  0.88687618118E+01  0.52535605552E+01  0.12713248689E+02  0.10566000000E+00 0. -1.
         13    1    4    4    0    0 -0.16986136538E+01 -0.29334919437E+01 -0.40616766108E+02  0.40758109824E+02  0.10566000000E+00 0. -1.
        -13    1    4    4    0    0 -0.33249069054E+01 -0.30045146557E+01 -0.70103597633E+02  0.70246762768E+02  0.10566000000E+00 0.  1.
        -14    1    4    4    0    0 -0.24169561473E+01 -0.29307552124E+01 -0.56938346442E+02  0.57064930550E+02  0.00000000000E+00 0.  1.
<mgrwt>
<rscale>  0 0.79417122E+02</rscale>
<asrwt>0</asrwt>
<pdfrwt beam="1">  1        1 0.14136849E-02 0.79417122E+02</pdfrwt>
<pdfrwt beam="2">  1       -2 0.26399090E-01 0.79417122E+02</pdfrwt>
<totfact> 0.91942142E+04</totfact>
</mgrwt>
</event>
<event>
 8    1  0.7756875E-014  0.7964459E+02  0.7818608E-02  0.1330063E+00
          1   -1    0    0  501    0  0.00000000000E+00  0.00000000000E+00  0.15929978851E+03  0.15929978859E+03  0.50400000000E-02 0. -1.
         -2   -1    0    0    0  501 -0.00000000000E+00 -0.00000000000E+00 -0.99549094699E+01  0.99549097965E+01  0.25500000000E-02 0.  1.
        -24    2    1    2    0    0  0.00000000000E+00  0.00000000000E+00  0.14934487904E+03  0.16925469838E+03  0.79644585693E+02 0.  0.
         66    2    3    3    0    0  0.12265618211E+02 -0.21242462056E+02  0.81204589686E+01  0.25915814712E+02  0.20000035078E+01 0.  0.
         13    1    3    3    0    0 -0.12265618211E+02  0.21242462056E+02  0.14122442007E+03  0.14333888367E+03  0.10566000000E+00 0. -1.
         13    1    4    4    0    0  0.18760747162E+01 -0.37027231073E+01  0.16602662468E+01  0.44718522780E+01  0.10566000000E+00 0. -1.
        -13    1    4    4    0    0  0.37848553404E+01 -0.77913554327E+01  0.30696801792E+01  0.91904542796E+01  0.10566000000E+00 0.  1.
        -14    1    4    4    0    0  0.66046881547E+01 -0.97483835161E+01  0.33905125427E+01  0.12253508155E+02  0.00000000000E+00 0.  1.
<mgrwt>
<rscale>  0 0.79644586E+02</rscale>
<asrwt>0</asrwt>
<pdfrwt beam="1">  1        1 0.24507658E-01 0.79644586E+02</pdfrwt>
<pdfrwt beam="2">  1       -2 0.15315247E-02 0.79644586E+02</pdfrwt>
<totfact> 0.16156482E+05</totfact>
</mgrwt>
</event>
<event>
 8    1  0.7756875E-014  0.7721860E+02  0.7818608E-02  0.1337135E+00
         -2   -1    0    0    0  501 -0.00000000000E+00  0.00000000000E+00  0.51090623003E+02  0.51090623067E+02  0.25500000000E-02 0.  1.
          1   -1    0    0  501    0  0.00000000000E+00 -0.00000000000E+00 -0.29177139007E+02  0.29177139443E+02  0.50400000000E-02 0. -1.
        -24    2    1    2    0    0  0.00000000000E+00  0.00000000000E+00  0.21913483996E+02  0.80267762509E+02  0.77218604736E+02 0.  0.
         66    2    3    3    0    0 -0.25362364255E+02 -0.29416236322E+01  0.41033309858E+02  0.48369775500E+02  0.19999984578E+01 0.  0.
         13    1    3    3    0    0  0.25362364255E+02  0.29416236322E+01 -0.19119825862E+02  0.31897987009E+02  0.10566000000E+00 0. -1.
         13    1    4    4    0    0 -0.12206038812E+02 -0.10385654458E+01  0.18142702950E+02  0.21891432937E+02  0.10566000000E+00 0. -1.
        -13    1    4    4    0    0 -0.85498739454E+01 -0.10312552812E+01  0.14378602860E+02  0.16760644861E+02  0.10566000000E+00 0.  1.
        -14    1    4    4    0    0 -0.46064514980E+01 -0.87180290519E+00  0.85120040482E+01  0.97176977019E+01  0.00000000000E+00 0.  1.
<mgrwt>
<rscale>  0 0.77218605E+02</rscale>
<asrwt>0</asrwt>
<pdfrwt beam="1">  1        1 0.44887907E-02 0.77218605E+02</pdfrwt>
<pdfrwt beam="2">  1       -2 0.78600958E-02 0.77218605E+02</pdfrwt>
<totfact> 0.13321166E+05</totfact>
</mgrwt>
</event>
<event>
 8    1  0.7756875E-014  0.8000844E+02  0.7818608E-02  0.1329027E+00
          1   -1    0    0  501    0  0.00000000000E+00  0.00000000000E+00  0.23779955585E+02  0.23779956119E+02  0.50400000000E-02 0. -1.
         -2   -1    0    0    0  501 -0.00000000000E+00 -0.00000000000E+00 -0.67297747819E+02  0.67297747868E+02  0.25500000000E-02 0.  1.
        -24    2    1    2    0    0 -0.35527136788E-14  0.35527136788E-14 -0.43517792235E+02  0.91077703987E+02  0.80008436571E+02 0.  0.
         66    2    3    3    0    0 -0.15113511025E+02  0.29472121034E+02 -0.47260044767E+02  0.57745441060E+02  0.19999995199E+01 0.  0.
         13    1    3    3    0    0  0.15113511025E+02 -0.29472121034E+02  0.37422525325E+01  0.33332262927E+02  0.10566000000E+00 0. -1.
         13    1    4    4    0    0 -0.11798925544E+01  0.15310063215E+01 -0.30285482554E+01  0.35943560435E+01  0.10566000000E+00 0. -1.
        -13    1    4    4    0    0 -0.57429596936E+01  0.12619495369E+02 -0.19836269799E+02  0.24201694424E+02  0.10566000000E+00 0.  1.
         14    1    4    4    0    0 -0.81906587773E+01  0.15321619343E+02 -0.24395226712E+02  0.29949390592E+02  0.00000000000E+00 0. -1.
<mgrwt>
<rscale>  0 0.80008437E+02</rscale>
<asrwt>0</asrwt>
<pdfrwt beam="1">  1        1 0.36584548E-02 0.80008437E+02</pdfrwt>
<pdfrwt beam="2">  1       -2 0.10353500E-01 0.80008437E+02</pdfrwt>
<totfact> 0.11578353E+05</totfact>
</mgrwt>
</event>
<event>
 8    1  0.7756875E-014  0.7880837E+02  0.7818608E-02  0.1332468E+00
          1   -1    0    0  501    0  0.00000000000E+00  0.00000000000E+00  0.56872846360E+02  0.56872846583E+02  0.50400000000E-02 0. -1.
         -2   -1    0    0    0  501 -0.00000000000E+00 -0.00000000000E+00 -0.27301073256E+02  0.27301073376E+02  0.25500000000E-02 0.  1.
        -24    2    1    2    0    0  0.00000000000E+00  0.35527136788E-14  0.29571773104E+02  0.84173919959E+02  0.78808369078E+02 0.  0.
         66    2    3    3    0    0  0.58107976341E+00  0.29106402712E+02 -0.13527253651E+02  0.32163751686E+02  0.19999996656E+01 0.  0.
         13    1    3    3    0    0 -0.58107976341E+00 -0.29106402712E+02  0.43099026755E+02  0.52010168273E+02  0.10566000000E+00 0. -1.
         13    1    4    4    0    0  0.24471419276E+00  0.64428042954E+00 -0.25996514204E+00  0.74412916802E+00  0.10566000000E+00 0. -1.
        -13    1    4    4    0    0  0.21975121429E+00  0.57945151541E+01 -0.23165791598E+01  0.62451901097E+01  0.10566000000E+00 0.  1.
        -14    1    4    4    0    0  0.11661435637E+00  0.22667607128E+02 -0.10950709349E+02  0.25174432408E+02  0.00000000000E+00 0.  1.
<mgrwt>
<rscale>  0 0.78808369E+02</rscale>
<asrwt>0</asrwt>
<pdfrwt beam="1">  1        1 0.87496687E-02 0.78808369E+02</pdfrwt>
<pdfrwt beam="2">  1       -2 0.42001651E-02 0.78808369E+02</pdfrwt>
<totfact> 0.13993340E+05</totfact>
</mgrwt>
</event>
<event>
 8    1  0.7756875E-014  0.7127497E+02  0.7818608E-02  0.1355810E+00
         -2   -1    0    0    0  501 -0.00000000000E+00  0.00000000000E+00  0.16675396855E+02  0.16675397050E+02  0.25500000000E-02 0.  1.
          1   -1    0    0  501    0  0.00000000000E+00 -0.00000000000E+00 -0.76161928434E+02  0.76161928600E+02  0.50400000000E-02 0. -1.
        -24    2    1    2    0    0 -0.35527136788E-14 -0.35527136788E-14 -0.59486531578E+02  0.92837325651E+02  0.71274971727E+02 0.  0.
         66    2    3    3    0    0 -0.21862688632E+02 -0.28101563714E+02 -0.30537821405E+02  0.46949265961E+02  0.20000001738E+01 0.  0.
         13    1    3    3    0    0  0.21862688632E+02  0.28101563714E+02 -0.28948710174E+02  0.45888059690E+02  0.10566000000E+00 0. -1.
         13    1    4    4    0    0 -0.57650749575E+01 -0.80546202616E+01 -0.94264620634E+01  0.13674148891E+02  0.10566000000E+00 0. -1.
        -13    1    4    4    0    0 -0.15847622380E+02 -0.19644957097E+02 -0.20819292230E+02  0.32718887015E+02  0.10566000000E+00 0.  1.
         14    1    4    4    0    0 -0.24999129478E+00 -0.40198635466E+00 -0.29206711096E+00  0.55623005502E+00  0.00000000000E+00 0. -1.
<mgrwt>
<rscale>  0 0.71274972E+02</rscale>
<asrwt>0</asrwt>
<pdfrwt beam="1">  1        1 0.11717220E-01 0.71274972E+02</pdfrwt>
<pdfrwt beam="2">  1       -2 0.25654457E-02 0.71274972E+02</pdfrwt>
<totfact> 0.19209390E+05</totfact>
</mgrwt>
</event>
<event>
 8    1  0.7756875E-014  0.7208614E+02  0.7818608E-02  0.1353139E+00
          1   -1    0    0  501    0  0.00000000000E+00  0.00000000000E+00  0.23287403093E+03  0.23287403099E+03  0.50400000000E-02 0. -1.
         -2   -1    0    0    0  501 -0.00000000000E+00 -0.00000000000E+00 -0.55785642275E+01  0.55785648103E+01  0.25500000000E-02 0.  1.
        -24    2    1    2    0    0  0.00000000000E+00  0.00000000000E+00  0.22729546670E+03  0.23845259580E+03  0.72086137765E+02 0.  0.
         66    2    3    3    0    0 -0.35725442198E+02  0.39069374399E+01  0.12151138570E+03  0.12673037626E+03  0.20000079206E+01 0.  0.
         13    1    3    3    0    0  0.35725442198E+02 -0.39069374399E+01  0.10578408101E+03  0.11172221954E+03  0.10566000000E+00 0. -1.
         13    1    4    4    0    0 -0.15253210532E+02  0.21344183384E+01  0.49737032554E+02  0.52067261734E+02  0.10566000000E+00 0. -1.
        -13    1    4    4    0    0 -0.16623278985E+02  0.12263717906E+01  0.57210288031E+02  0.59589140056E+02  0.10566000000E+00 0.  1.
         14    1    4    4    0    0 -0.38489526816E+01  0.54614731077E+00  0.14564065111E+02  0.15073974465E+02  0.00000000000E+00 0. -1.
<mgrwt>
<rscale>  0 0.72086138E+02</rscale>
<asrwt>0</asrwt>
<pdfrwt beam="1">  1        1 0.35826779E-01 0.72086138E+02</pdfrwt>
<pdfrwt beam="2">  1       -2 0.85824059E-03 0.72086138E+02</pdfrwt>
<totfact> 0.22590685E+05</totfact>
</mgrwt>
</event>
<event>
 8    1  0.7756875E-014  0.7656081E+02  0.7818608E-02  0.1339105E+00
         -2   -1    0    0    0  501 -0.00000000000E+00  0.00000000000E+00  0.11556906613E+03  0.11556906615E+03  0.25500000000E-02 0.  1.
          1   -1    0    0  501    0  0.00000000000E+00 -0.00000000000E+00 -0.12679770571E+02  0.12679771573E+02  0.50400000000E-02 0. -1.
        -24    2    1    2    0    0 -0.88817841970E-15 -0.35527136788E-14  0.10288929555E+03  0.12824883773E+03  0.76560807458E+02 0.  0.
         66    2    3    3    0    0 -0.65878761520E+01  0.28680010160E+02  0.92424060639E+02  0.97016236157E+02  0.19999994881E+01 0.  0.
         13    1    3    3    0    0  0.65878761520E+01 -0.28680010160E+02  0.10465234915E+02  0.31232601570E+02  0.10566000000E+00 0. -1.
         13    1    4    4    0    0 -0.28474416881E+01  0.16127165569E+02  0.52703567099E+02  0.55189406071E+02  0.10566000000E+00 0. -1.
        -13    1    4    4    0    0 -0.23826969984E+01  0.85894308001E+01  0.26676324618E+02  0.28126375978E+02  0.10566000000E+00 0.  1.
         14    1    4    4    0    0 -0.13577374655E+01  0.39634137908E+01  0.13044168922E+02  0.13700454109E+02  0.00000000000E+00 0. -1.
<mgrwt>
<rscale>  0 0.76560807E+02</rscale>
<asrwt>0</asrwt>
<pdfrwt beam="1">  1        1 0.19507341E-02 0.76560807E+02</pdfrwt>
<pdfrwt beam="2">  1       -2 0.17779855E-01 0.76560807E+02</pdfrwt>
<totfact> 0.11438592E+05</totfact>
</mgrwt>
</event>
<event>
 8    1  0.7756875E-014  0.7895136E+02  0.7818608E-02  0.1332054E+00
          1   -1    0    0  501    0  0.00000000000E+00  0.00000000000E+00  0.38700342420E+02  0.38700342748E+02  0.50400000000E-02 0. -1.
         -2   -1    0    0    0  501 -0.00000000000E+00 -0.00000000000E+00 -0.40266550350E+02  0.40266550431E+02  0.25500000000E-02 0.  1.
        -24    2    1    2    0    0  0.00000000000E+00 -0.17763568394E-14 -0.15662079298E+01  0.78966893179E+02  0.78951359780E+02 0.  0.
         66    2    3    3    0    0  0.37041725888E+02 -0.12938040910E+02  0.33211027489E+01  0.39427301261E+02  0.20000004885E+01 0.  0.
         13    1    3    3    0    0 -0.37041725888E+02  0.12938040910E+02 -0.48873106787E+01  0.39539591918E+02  0.10566000000E+00 0. -1.
         13    1    4    4    0    0  0.11952842962E+01 -0.19740392473E+00  0.25590042677E+00  0.12427074967E+01  0.10566000000E+00 0.  1.
        -13    1    4    4    0    0  0.12785203029E+02 -0.49998732136E+01  0.14619580898E+01  0.13806108580E+02  0.10566000000E+00 0.  1.
        -14    1    4    4    0    0  0.23061238563E+02 -0.77407637720E+01  0.16032442324E+01  0.24378485184E+02  0.00000000000E+00 0.  1.
<mgrwt>
<rscale>  0 0.78951360E+02</rscale>
<asrwt>0</asrwt>
<pdfrwt beam="1">  1        1 0.59538989E-02 0.78951360E+02</pdfrwt>
<pdfrwt beam="2">  1       -2 0.61948539E-02 0.78951360E+02</pdfrwt>
<totfact> 0.13108098E+05</totfact>
</mgrwt>
</event>
<event>
 8    1  0.7756875E-014  0.7765848E+02  0.7818608E-02  0.1335831E+00
          1   -1    0    0  501    0  0.00000000000E+00  0.00000000000E+00  0.37691928140E+03  0.37691928144E+03  0.50400000000E-02 0. -1.
         -2   -1    0    0    0  501 -0.00000000000E+00 -0.00000000000E+00 -0.40000864495E+01  0.40000872623E+01  0.25500000000E-02 0.  1.
        -24    2    1    2    0    0  0.00000000000E+00  0.00000000000E+00  0.37291919495E+03  0.38091936870E+03  0.77658479803E+02 0.  0.
         66    2    3    3    0    0 -0.20672905080E+01  0.37358162662E+02  0.23703567173E+03  0.23997878173E+03  0.20000001711E+01 0.  0.
         13    1    3    3    0    0  0.20672905080E+01 -0.37358162662E+02  0.13588352323E+03  0.14094058697E+03  0.10566000000E+00 0. -1.
         13    1    4    4    0    0 -0.60309449009E+00  0.67432922239E+01  0.46216782538E+02  0.46710147347E+02  0.10566000000E+00 0. -1.
        -13    1    4    4    0    0 -0.16582810544E+01  0.24653048987E+02  0.15410043626E+03  0.15606882565E+03  0.10566000000E+00 0.  1.
         14    1    4    4    0    0  0.19408503643E+00  0.59618214506E+01  0.36718452930E+02  0.37199808731E+02  0.00000000000E+00 0. -1.
<mgrwt>
<rscale>  0 0.77658480E+02</rscale>
<asrwt>0</asrwt>
<pdfrwt beam="1">  1        1 0.57987583E-01 0.77658480E+02</pdfrwt>
<pdfrwt beam="2">  1       -2 0.61539796E-03 0.77658480E+02</pdfrwt>
<totfact> 0.20329628E+05</totfact>
</mgrwt>
</event>
<event>
 8    1  0.7756875E-014  0.7947637E+02  0.7818608E-02  0.1330544E+00
         -2   -1    0    0    0  501 -0.00000000000E+00  0.00000000000E+00  0.79690225542E+02  0.79690225583E+02  0.25500000000E-02 0.  1.
          1   -1    0    0  501    0  0.00000000000E+00 -0.00000000000E+00 -0.19815770250E+02  0.19815770891E+02  0.50400000000E-02 0. -1.
        -24    2    1    2    0    0  0.00000000000E+00  0.11102230246E-15  0.59874455292E+02  0.99505996473E+02  0.79476367164E+02 0.  0.
         66    2    3    3    0    0 -0.33372187035E+02  0.85605707827E+00  0.56887154242E+02  0.65989271800E+02  0.19999934552E+01 0.  0.
         13    1    3    3    0    0  0.33372187035E+02 -0.85605707827E+00  0.29873010506E+01  0.33516724673E+02  0.10566000000E+00 0. -1.
         13    1    4    4    0    0 -0.49156569897E+00  0.93559296374E-02  0.56484568177E+00  0.75626652024E+00  0.10566000000E+00 0. -1.
        -13    1    4    4    0    0 -0.28685018274E+02  0.10752955357E+01  0.49462771752E+02  0.57188840583E+02  0.10566000000E+00 0.  1.
         14    1    4    4    0    0 -0.41956030617E+01 -0.22859438706E+00  0.68595368079E+01  0.80441646965E+01  0.00000000000E+00 0. -1.
<mgrwt>
<rscale>  0 0.79476367E+02</rscale>
<asrwt>0</asrwt>
<pdfrwt beam="1">  1        1 0.30485800E-02 0.79476367E+02</pdfrwt>
<pdfrwt beam="2">  1       -2 0.12260035E-01 0.79476367E+02</pdfrwt>
<totfact> 0.11374100E+05</totfact>
</mgrwt>
</event>
<event>
 8    1  0.7756875E-014  0.8049207E+02  0.7818608E-02  0.1327661E+00
         -2   -1    0    0    0  501 -0.00000000000E+00  0.00000000000E+00  0.13488428502E+02  0.13488428744E+02  0.25500000000E-02 0.  1.
          1   -1    0    0  501    0  0.00000000000E+00 -0.00000000000E+00 -0.12008392610E+03  0.12008392620E+03  0.50400000000E-02 0. -1.
        -24    2    1    2    0    0 -0.71054273576E-14  0.17763568394E-14 -0.10659549760E+03  0.13357235495E+03  0.80492073514E+02 0.  0.
         66    2    3    3    0    0 -0.30726711047E+02  0.95334945413E+01 -0.13272170058E+02  0.34859271131E+02  0.19999989385E+01 0.  0.
         13    1    3    3    0    0  0.30726711047E+02 -0.95334945413E+01 -0.93323327537E+02  0.98713083816E+02  0.10566000000E+00 0. -1.
         13    1    4    4    0    0 -0.16847666568E+02  0.43432179566E+01 -0.69449787442E+01  0.18733694371E+02  0.10566000000E+00 0. -1.
        -13    1    4    4    0    0 -0.49600050630E+01  0.18837395365E+01 -0.25969752274E+01  0.59080935363E+01  0.10566000000E+00 0.  1.
         14    1    4    4    0    0 -0.89190394164E+01  0.33065370482E+01 -0.37302160870E+01  0.10217483223E+02  0.00000000000E+00 0. -1.
<mgrwt>
<rscale>  0 0.80492074E+02</rscale>
<asrwt>0</asrwt>
<pdfrwt beam="1">  1        1 0.18474450E-01 0.80492074E+02</pdfrwt>
<pdfrwt beam="2">  1       -2 0.20751430E-02 0.80492074E+02</pdfrwt>
<totfact> 0.14920207E+05</totfact>
</mgrwt>
</event>
<event>
 8    1  0.7756875E-014  0.8079923E+02  0.7818608E-02  0.1326799E+00
          1   -1    0    0  501    0  0.00000000000E+00  0.00000000000E+00  0.74560551830E+02  0.74560552001E+02  0.50400000000E-02 0. -1.
         -2   -1    0    0    0  501 -0.00000000000E+00 -0.00000000000E+00 -0.21889979805E+02  0.21889979953E+02  0.25500000000E-02 0.  1.
        -24    2    1    2    0    0  0.00000000000E+00  0.00000000000E+00  0.52670572026E+02  0.96450531954E+02  0.80799232402E+02 0.  0.
         66    2    3    3    0    0  0.27111004857E+02  0.17298086842E+02 -0.27881010505E+01  0.32341983568E+02  0.20000002063E+01 0.  0.
         13    1    3    3    0    0 -0.27111004857E+02 -0.17298086842E+02  0.55458673076E+02  0.64108548386E+02  0.10566000000E+00 0. -1.
         13    1    4    4    0    0  0.27944997927E+01  0.14774073693E+01 -0.18673914313E+00  0.31682798439E+01  0.10566000000E+00 0. -1.
        -13    1    4    4    0    0  0.16727457048E+02  0.11737793668E+02 -0.20698483148E+01  0.20539694632E+02  0.10566000000E+00 0.  1.
        -14    1    4    4    0    0  0.75890480168E+01  0.40828858051E+01 -0.53151359262E+00  0.86340090918E+01  0.00000000000E+00 0.  1.
<mgrwt>
<rscale>  0 0.80799232E+02</rscale>
<asrwt>0</asrwt>
<pdfrwt beam="1">  1        1 0.11470854E-01 0.80799232E+02</pdfrwt>
<pdfrwt beam="2">  1       -2 0.33676892E-02 0.80799232E+02</pdfrwt>
<totfact> 0.13634853E+05</totfact>
</mgrwt>
</event>
<event>
 8    1  0.7756875E-014  0.7794730E+02  0.7818608E-02  0.1334980E+00
         -2   -1    0    0    0  501 -0.00000000000E+00  0.00000000000E+00  0.17271154817E+02  0.17271155006E+02  0.25500000000E-02 0.  1.
          1   -1    0    0  501    0  0.00000000000E+00 -0.00000000000E+00 -0.87946941496E+02  0.87946941641E+02  0.50400000000E-02 0. -1.
        -24    2    1    2    0    0  0.88817841970E-15  0.35527136788E-14 -0.70675786679E+02  0.10521809665E+03  0.77947296548E+02 0.  0.
         66    2    3    3    0    0 -0.67783302261E+01 -0.19306605300E+02  0.93731303375E+01  0.22595272630E+02  0.20000010124E+01 0.  0.
         13    1    3    3    0    0  0.67783302261E+01  0.19306605300E+02 -0.80048917016E+02  0.82622824016E+02  0.10566000000E+00 0. -1.
         13    1    4    4    0    0 -0.19268227240E+00 -0.17417855282E+01  0.61611238268E+00  0.18605649110E+01  0.10566000000E+00 0. -1.
        -13    1    4    4    0    0 -0.48675420927E+01 -0.11887314163E+02  0.64008349240E+01  0.14352109803E+02  0.10566000000E+00 0.  1.
        -14    1    4    4    0    0 -0.17181058610E+01 -0.56775056092E+01  0.23561830308E+01  0.63825979167E+01  0.00000000000E+00 0.  1.
<mgrwt>
<rscale>  0 0.77947297E+02</rscale>
<asrwt>0</asrwt>
<pdfrwt beam="1">  1        1 0.13530299E-01 0.77947297E+02</pdfrwt>
<pdfrwt beam="2">  1       -2 0.26571008E-02 0.77947297E+02</pdfrwt>
<totfact> 0.15438994E+05</totfact>
</mgrwt>
</event>
<event>
 8    1  0.7756875E-014  0.7986773E+02  0.7818608E-02  0.1329427E+00
         -2   -1    0    0    0  501 -0.00000000000E+00  0.00000000000E+00  0.53270230377E+01  0.53270236480E+01  0.25500000000E-02 0.  1.
          1   -1    0    0  501    0  0.00000000000E+00 -0.00000000000E+00 -0.29936300786E+03  0.29936300790E+03  0.50400000000E-02 0. -1.
        -24    2    1    2    0    0  0.00000000000E+00  0.00000000000E+00 -0.29403598482E+03  0.30469003155E+03  0.79867734134E+02 0.  0.
         66    2    3    3    0    0 -0.38523842644E+02  0.70507095515E+00 -0.10744100844E+03  0.11415845949E+03  0.20000002885E+01 0.  0.
         13    1    3    3    0    0  0.38523842644E+02 -0.70507095515E+00 -0.18659497638E+03  0.19053157206E+03  0.10566000000E+00 0. -1.
         13    1    4    4    0    0 -0.76407544724E+01 -0.27428634492E+00 -0.22750275824E+02  0.24000886984E+02  0.10566000000E+00 0. -1.
        -13    1    4    4    0    0 -0.89684853765E+01  0.66269134823E+00 -0.23798675958E+02  0.25441325263E+02  0.10566000000E+00 0.  1.
         14    1    4    4    0    0 -0.21914602795E+02  0.31666595185E+00 -0.60892056660E+02  0.64716247244E+02  0.00000000000E+00 0. -1.
<mgrwt>
<rscale>  0 0.79867734E+02</rscale>
<asrwt>0</asrwt>
<pdfrwt beam="1">  1        1 0.46055834E-01 0.79867734E+02</pdfrwt>
<pdfrwt beam="2">  1       -2 0.81954229E-03 0.79867734E+02</pdfrwt>
<totfact> 0.18113148E+05</totfact>
</mgrwt>
</event>
<event>
 8    1  0.7756875E-014  0.7970360E+02  0.7818608E-02  0.1329895E+00
          1   -1    0    0  501    0  0.00000000000E+00  0.00000000000E+00  0.31476004015E+01  0.31476044366E+01  0.50400000000E-02 0. -1.
         -2   -1    0    0    0  501 -0.00000000000E+00 -0.00000000000E+00 -0.50456366211E+03  0.50456366212E+03  0.25500000000E-02 0.  1.
        -24    2    1    2    0    0 -0.17763568394E-14 -0.35527136788E-14 -0.50141606171E+03  0.50771126656E+03  0.79703596191E+02 0.  0.
         66    2    3    3    0    0 -0.10822174336E+02 -0.16729540925E+02 -0.47052987878E+03  0.47095579816E+03  0.19999999228E+01 0.  0.
         13    1    3    3    0    0  0.10822174336E+02  0.16729540925E+02 -0.30886182936E+02  0.36755468400E+02  0.10566000000E+00 0. -1.
         13    1    4    4    0    0 -0.10073362498E+01 -0.10697180590E+01 -0.42210533455E+02  0.42236232332E+02  0.10566000000E+00 0. -1.
        -13    1    4    4    0    0 -0.11391307512E+01 -0.12120422060E+01 -0.37165605212E+02  0.37202957409E+02  0.10566000000E+00 0.  1.
         14    1    4    4    0    0 -0.86757073346E+01 -0.14447780660E+02 -0.39115374011E+03  0.39151660842E+03  0.00000000000E+00 0. -1.
<mgrwt>
<rscale>  0 0.79703596E+02</rscale>
<asrwt>0</asrwt>
<pdfrwt beam="1">  1        1 0.48424693E-03 0.79703596E+02</pdfrwt>
<pdfrwt beam="2">  1       -2 0.77625114E-01 0.79703596E+02</pdfrwt>
<totfact> 0.50519051E+04</totfact>
</mgrwt>
</event>
<event>
 8    1  0.7756875E-014  0.8052503E+02  0.7818608E-02  0.1327568E+00
          1   -1    0    0  501    0  0.00000000000E+00  0.00000000000E+00  0.18607896082E+02  0.18607896764E+02  0.50400000000E-02 0. -1.
         -2   -1    0    0    0  501 -0.00000000000E+00 -0.00000000000E+00 -0.87117317330E+02  0.87117317367E+02  0.25500000000E-02 0.  1.
        -24    2    1    2    0    0  0.00000000000E+00  0.35527136788E-14 -0.68509421248E+02  0.10572521413E+03  0.80525027808E+02 0.  0.
         66    2    3    3    0    0  0.60311740637E+01 -0.31901800731E+02 -0.30683167601E+01  0.32672840651E+02  0.19999994942E+01 0.  0.
         13    1    3    3    0    0 -0.60311740637E+01  0.31901800731E+02 -0.65441104488E+02  0.73052373480E+02  0.10566000000E+00 0. -1.
         13    1    4    4    0    0  0.30384467870E+01 -0.13828217630E+02 -0.87833286415E+00  0.14185710922E+02  0.10566000000E+00 0. -1.
        -13    1    4    4    0    0  0.27180368098E+01 -0.13306062050E+02 -0.15748688941E+01  0.13672248808E+02  0.10566000000E+00 0.  1.
         14    1    4    4    0    0  0.27469046685E+00 -0.47675210507E+01 -0.61511500185E+00  0.48148809213E+01  0.00000000000E+00 0. -1.
<mgrwt>
<rscale>  0 0.80525028E+02</rscale>
<asrwt>0</asrwt>
<pdfrwt beam="1">  1        1 0.28627533E-02 0.80525028E+02</pdfrwt>
<pdfrwt beam="2">  1       -2 0.13402664E-01 0.80525028E+02</pdfrwt>
<totfact> 0.10785091E+05</totfact>
</mgrwt>
</event>
<event>
 8    1  0.7756875E-014  0.8095192E+02  0.7818608E-02  0.1326372E+00
          1   -1    0    0  501    0  0.00000000000E+00  0.00000000000E+00  0.70801747534E+01  0.70801765472E+01  0.50400000000E-02 0. -1.
         -2   -1    0    0    0  501 -0.00000000000E+00 -0.00000000000E+00 -0.23139301220E+03  0.23139301222E+03  0.25500000000E-02 0.  1.
        -24    2    1    2    0    0  0.00000000000E+00  0.00000000000E+00 -0.22431283745E+03  0.23847318877E+03  0.80951916066E+02 0.  0.
         66    2    3    3    0    0 -0.16249224024E+02  0.12608983851E+02 -0.21483522162E+03  0.21582677357E+03  0.19999969213E+01 0.  0.
         13    1    3    3    0    0  0.16249224024E+02 -0.12608983851E+02 -0.94776158298E+01  0.22646415191E+02  0.10566000000E+00 0. -1.
         13    1    4    4    0    0 -0.10465073609E+02  0.77909122776E+01 -0.13867422808E+03  0.13928664249E+03  0.10566000000E+00 0.  1.
        -13    1    4    4    0    0 -0.20396075584E+01  0.15274667981E+01 -0.31043201281E+02  0.31147787460E+02  0.10566000000E+00 0. -1.
        -14    1    4    4    0    0 -0.37445428567E+01  0.32906047754E+01 -0.45117792264E+02  0.45392343625E+02  0.00000000000E+00 0.  1.
<mgrwt>
<rscale>  0 0.80951916E+02</rscale>
<asrwt>0</asrwt>
<pdfrwt beam="1">  1        1 0.10892580E-02 0.80951916E+02</pdfrwt>
<pdfrwt beam="2">  1       -2 0.35598919E-01 0.80951916E+02</pdfrwt>
<totfact> 0.77526050E+04</totfact>
</mgrwt>
</event>
<event>
 8    1  0.7756875E-014  0.8048004E+02  0.7818608E-02  0.1327695E+00
          1   -1    0    0  501    0  0.00000000000E+00  0.00000000000E+00  0.84913430540E+01  0.84913445497E+01  0.50400000000E-02 0. -1.
         -2   -1    0    0    0  501 -0.00000000000E+00 -0.00000000000E+00 -0.19069529718E+03  0.19069529720E+03  0.25500000000E-02 0.  1.
        -24    2    1    2    0    0  0.00000000000E+00  0.17763568394E-14 -0.18220395412E+03  0.19918664174E+03  0.80480043185E+02 0.  0.
         66    2    3    3    0    0  0.39011187266E+02 -0.87169501939E+01 -0.80257923511E+02  0.89683846007E+02  0.19999989356E+01 0.  0.
         13    1    3    3    0    0 -0.39011187266E+02  0.87169501939E+01 -0.10194603061E+03  0.10950279574E+03  0.10566000000E+00 0. -1.
         13    1    4    4    0    0  0.45208270214E+01 -0.45738007527E+00 -0.92699424833E+01  0.10324246760E+02  0.10566000000E+00 0. -1.
        -13    1    4    4    0    0  0.29934726855E+02 -0.73330576112E+01 -0.61081340313E+02  0.68416393535E+02  0.10566000000E+00 0.  1.
         14    1    4    4    0    0  0.45556333894E+01 -0.92651250746E+00 -0.99066407148E+01  0.10943205712E+02  0.00000000000E+00 0. -1.
<mgrwt>
<rscale>  0 0.80480043E+02</rscale>
<asrwt>0</asrwt>
<pdfrwt beam="1">  1        1 0.13063607E-02 0.80480043E+02</pdfrwt>
<pdfrwt beam="2">  1       -2 0.29337735E-01 0.80480043E+02</pdfrwt>
<totfact> 0.85379946E+04</totfact>
</mgrwt>
</event>
<event>
 8    1  0.7756875E-014  0.7971253E+02  0.7818608E-02  0.1329869E+00
         -2   -1    0    0    0  501 -0.00000000000E+00  0.00000000000E+00  0.84753682923E+03  0.84753682923E+03  0.25500000000E-02 0.  1.
          1   -1    0    0  501    0  0.00000000000E+00 -0.00000000000E+00 -0.18742772139E+01  0.18742839903E+01  0.50400000000E-02 0. -1.
        -24    2    1    2    0    0 -0.44408920985E-15  0.00000000000E+00  0.84566255201E+03  0.84941111322E+03  0.79712529669E+02 0.  0.
         66    2    3    3    0    0  0.19157857470E+01  0.31160463156E+02  0.68668232697E+03  0.68739454673E+03  0.20000001196E+01 0.  0.
         13    1    3    3    0    0 -0.19157857470E+01 -0.31160463156E+02  0.15898022504E+03  0.16201656649E+03  0.10566000000E+00 0. -1.
         13    1    4    4    0    0  0.32833478341E+00  0.43627583673E+01  0.86373335843E+02  0.86484135962E+02  0.10566000000E+00 0. -1.
        -13    1    4    4    0    0  0.60513966118E+00  0.18365717664E+02  0.41926065907E+03  0.41966317111E+03  0.10566000000E+00 0.  1.
        -14    1    4    4    0    0  0.98231130243E+00  0.84319871255E+01  0.18104833206E+03  0.18124723966E+03  0.00000000000E+00 0.  1.
<mgrwt>
<rscale>  0 0.79712530E+02</rscale>
<asrwt>0</asrwt>
<pdfrwt beam="1">  1        1 0.28835020E-03 0.79712530E+02</pdfrwt>
<pdfrwt beam="2">  1       -2 0.13039058E+00 0.79712530E+02</pdfrwt>
<totfact> 0.31597159E+04</totfact>
</mgrwt>
</event>
<event>
 8    1  0.7756875E-014  0.7782712E+02  0.7818608E-02  0.1335333E+00
         -2   -1    0    0    0  501 -0.00000000000E+00  0.00000000000E+00  0.47137172883E+02  0.47137172952E+02  0.25500000000E-02 0.  1.
          1   -1    0    0  501    0  0.00000000000E+00 -0.00000000000E+00 -0.32124652170E+02  0.32124652565E+02  0.50400000000E-02 0. -1.
        -24    2    1    2    0    0 -0.22204460493E-15  0.35527136788E-14  0.15012520713E+02  0.79261825517E+02  0.77827123846E+02 0.  0.
         66    2    3    3    0    0 -0.14835442029E+01  0.24070869313E+02  0.38580177691E+02  0.45541604991E+02  0.20000053902E+01 0.  0.
         13    1    3    3    0    0  0.14835442029E+01 -0.24070869313E+02 -0.23567656978E+02  0.33720220526E+02  0.10566000000E+00 0. -1.
         13    1    4    4    0    0 -0.94258836893E-01  0.10319222865E+01  0.22228652710E+01  0.24547998660E+01  0.10566000000E+00 0. -1.
        -13    1    4    4    0    0 -0.10180421400E+01  0.21873879029E+02  0.34333524429E+02  0.40722291896E+02  0.10566000000E+00 0.  1.
        -14    1    4    4    0    0 -0.37124322602E+00  0.11650679979E+01  0.20237879918E+01  0.23645132286E+01  0.00000000000E+00 0.  1.
<mgrwt>
<rscale>  0 0.77827124E+02</rscale>
<asrwt>0</asrwt>
<pdfrwt beam="1">  1        1 0.49422542E-02 0.77827124E+02</pdfrwt>
<pdfrwt beam="2">  1       -2 0.72518728E-02 0.77827124E+02</pdfrwt>
<totfact> 0.13240211E+05</totfact>
</mgrwt>
</event>
<event>
 8    1  0.7756875E-014  0.7990467E+02  0.7818608E-02  0.1329322E+00
          1   -1    0    0  501    0  0.00000000000E+00  0.00000000000E+00  0.30149217469E+02  0.30149217890E+02  0.50400000000E-02 0. -1.
         -2   -1    0    0    0  501 -0.00000000000E+00 -0.00000000000E+00 -0.52942968214E+02  0.52942968276E+02  0.25500000000E-02 0.  1.
        -24    2    1    2    0    0 -0.35527136788E-14  0.35527136788E-14 -0.22793750745E+02  0.83092186166E+02  0.79904670257E+02 0.  0.
         66    2    3    3    0    0  0.28092231667E+02  0.25220427754E+02 -0.24920211388E+02  0.45279801223E+02  0.20000017552E+01 0.  0.
         13    1    3    3    0    0 -0.28092231667E+02 -0.25220427754E+02  0.21264606434E+01  0.37812384943E+02  0.10566000000E+00 0. -1.
         13    1    4    4    0    0  0.27033343038E+01  0.23426239579E+01 -0.23629580164E+01  0.42884307140E+01  0.10566000000E+00 0. -1.
        -13    1    4    4    0    0  0.12630591021E+02  0.10162249154E+02 -0.10446566817E+02  0.19285877208E+02  0.10566000000E+00 0.  1.
         14    1    4    4    0    0  0.12758306343E+02  0.12715554642E+02 -0.12110686555E+02  0.21705493301E+02  0.00000000000E+00 0. -1.
<mgrwt>
<rscale>  0 0.79904670E+02</rscale>
<asrwt>0</asrwt>
<pdfrwt beam="1">  1        1 0.46383412E-02 0.79904670E+02</pdfrwt>
<pdfrwt beam="2">  1       -2 0.81450721E-02 0.79904670E+02</pdfrwt>
<totfact> 0.12146964E+05</totfact>
</mgrwt>
</event>
<event>
 8    1  0.8906840E-014  0.7881832E+02  0.7818608E-02  0.1332439E+00
          1   -1    0    0  501    0  0.00000000000E+00  0.00000000000E+00  0.13885326415E+02  0.13885327330E+02  0.50400000000E-02 0. -1.
         -2   -1    0    0    0  501 -0.00000000000E+00 -0.00000000000E+00 -0.11185057707E+03  0.11185057710E+03  0.25500000000E-02 0.  1.
        -24    2    1    2    0    0  0.00000000000E+00  0.00000000000E+00 -0.97965250655E+02  0.12573590443E+03  0.78818318471E+02 0.  0.
         66    2    3    3    0    0 -0.10058310973E+02 -0.44141098664E+01 -0.10934838936E+03  0.10991689699E+03  0.20000002393E+01 0.  0.
         13    1    3    3    0    0  0.10058310973E+02  0.44141098664E+01  0.11383138709E+02  0.15819007442E+02  0.10566000000E+00 0. -1.
         13    1    4    4    0    0 -0.42658273279E+01 -0.12229152709E+01 -0.46171412429E+02  0.46384300084E+02  0.10566000000E+00 0. -1.
        -13    1    4    4    0    0 -0.52734632768E+01 -0.25137460869E+01 -0.56494696482E+02  0.56796040610E+02  0.10566000000E+00 0.  1.
         14    1    4    4    0    0 -0.51902036815E+00 -0.67744850862E+00 -0.66822804531E+01  0.67365562922E+01  0.00000000000E+00 0. -1.
<mgrwt>
<rscale>  0 0.78818318E+02</rscale>
<asrwt>0</asrwt>
<pdfrwt beam="1">  1        1 0.21362042E-02 0.78818318E+02</pdfrwt>
<pdfrwt beam="2">  1       -2 0.17207781E-01 0.78818318E+02</pdfrwt>
<totfact> 0.10711959E+05</totfact>
</mgrwt>
</event>
<event>
 8    1  0.7756875E-014  0.7899219E+02  0.7818608E-02  0.1331936E+00
          1   -1    0    0  501    0  0.00000000000E+00  0.00000000000E+00  0.26322980045E+02  0.26322980527E+02  0.50400000000E-02 0. -1.
         -2   -1    0    0    0  501 -0.00000000000E+00 -0.00000000000E+00 -0.59261580260E+02  0.59261580315E+02  0.25500000000E-02 0.  1.
        -24    2    1    2    0    0 -0.44408920985E-15 -0.17763568394E-14 -0.32938600215E+02  0.85584560842E+02  0.78992187401E+02 0.  0.
         66    2    3    3    0    0  0.28700622175E+01  0.14682340831E+02 -0.56053837435E+02  0.58050332231E+02  0.19999978734E+01 0.  0.
         13    1    3    3    0    0 -0.28700622175E+01 -0.14682340831E+02  0.23115237220E+02  0.27534228611E+02  0.10566000000E+00 0. -1.
         13    1    4    4    0    0  0.18606153732E+01  0.66511098339E+01 -0.23386048305E+02  0.24384781544E+02  0.10566000000E+00 0. -1.
        -13    1    4    4    0    0  0.56279513499E+00  0.23659180929E+01 -0.10860169804E+02  0.11129634271E+02  0.10566000000E+00 0.  1.
        -14    1    4    4    0    0  0.44665170934E+00  0.56653129041E+01 -0.21807619326E+02  0.22535916416E+02  0.00000000000E+00 0.  1.
<mgrwt>
<rscale>  0 0.78992187E+02</rscale>
<asrwt>0</asrwt>
<pdfrwt beam="1">  1        1 0.40496893E-02 0.78992187E+02</pdfrwt>
<pdfrwt beam="2">  1       -2 0.91171662E-02 0.78992187E+02</pdfrwt>
<totfact> 0.12252708E+05</totfact>
</mgrwt>
</event>
<event>
 8    1  0.7756875E-014  0.8339657E+02  0.7818608E-02  0.1319680E+00
          1   -1    0    0  501    0  0.00000000000E+00  0.00000000000E+00  0.90052745596E+02  0.90052745737E+02  0.50400000000E-02 0. -1.
         -2   -1    0    0    0  501 -0.00000000000E+00 -0.00000000000E+00 -0.19308094320E+02  0.19308094488E+02  0.25500000000E-02 0.  1.
        -24    2    1    2    0    0  0.00000000000E+00  0.00000000000E+00  0.70744651276E+02  0.10936084023E+03  0.83396568818E+02 0.  0.
         66    2    3    3    0    0  0.27691285868E+02 -0.45617142578E+01 -0.50068370606E+01  0.28577700281E+02  0.19999965115E+01 0.  0.
         13    1    3    3    0    0 -0.27691285868E+02  0.45617142578E+01  0.75751488337E+02  0.80783139944E+02  0.10566000000E+00 0. -1.
         13    1    4    4    0    0  0.86726972419E+01 -0.14963559080E+01 -0.24683197615E+01  0.91410352222E+01  0.10566000000E+00 0. -1.
        -13    1    4    4    0    0  0.11954625653E+02 -0.21091786581E+01 -0.17369940997E+01  0.12263360944E+02  0.10566000000E+00 0.  1.
         14    1    4    4    0    0  0.70639629732E+01 -0.95617969174E+00 -0.80152319944E+00  0.71733041152E+01  0.00000000000E+00 0. -1.
<mgrwt>
<rscale>  0 0.83396569E+02</rscale>
<asrwt>0</asrwt>
<pdfrwt beam="1">  1        1 0.13854268E-01 0.83396569E+02</pdfrwt>
<pdfrwt beam="2">  1       -2 0.29704761E-02 0.83396569E+02</pdfrwt>
<totfact> 0.12900489E+05</totfact>
</mgrwt>
</event>
<event>
 8    1  0.7756875E-014  0.7791274E+02  0.7818608E-02  0.1335081E+00
          1   -1    0    0  501    0  0.00000000000E+00  0.00000000000E+00  0.72416773403E+02  0.72416773578E+02  0.50400000000E-02 0. -1.
         -2   -1    0    0    0  501 -0.00000000000E+00 -0.00000000000E+00 -0.20956454704E+02  0.20956454859E+02  0.25500000000E-02 0.  1.
        -24    2    1    2    0    0  0.00000000000E+00  0.17763568394E-14  0.51460318699E+02  0.93373228437E+02  0.77912742142E+02 0.  0.
         66    2    3    3    0    0  0.36554670155E+02 -0.12476328282E+02  0.31580278981E+02  0.49932120938E+02  0.20000008306E+01 0.  0.
         13    1    3    3    0    0 -0.36554670155E+02  0.12476328282E+02  0.19880039718E+02  0.43441107499E+02  0.10566000000E+00 0. -1.
         13    1    4    4    0    0  0.23027385222E+01 -0.90541143401E+00  0.23973275083E+01  0.34468417115E+01  0.10566000000E+00 0. -1.
        -13    1    4    4    0    0  0.19727811714E+02 -0.59334736534E+01  0.16346260246E+02  0.26298365970E+02  0.10566000000E+00 0.  1.
        -14    1    4    4    0    0  0.14524119919E+02 -0.56374431944E+01  0.12836691227E+02  0.20186913257E+02  0.00000000000E+00 0.  1.
<mgrwt>
<rscale>  0 0.77912742E+02</rscale>
<asrwt>0</asrwt>
<pdfrwt beam="1">  1        1 0.11141042E-01 0.77912742E+02</pdfrwt>
<pdfrwt beam="2">  1       -2 0.32240700E-02 0.77912742E+02</pdfrwt>
<totfact> 0.14988801E+05</totfact>
</mgrwt>
</event>
<event>
 8    1  0.7756875E-014  0.7978224E+02  0.7818608E-02  0.1329671E+00
          1   -1    0    0  501    0  0.00000000000E+00  0.00000000000E+00  0.16051897955E+03  0.16051897963E+03  0.50400000000E-02 0. -1.
         -2   -1    0    0    0  501 -0.00000000000E+00 -0.00000000000E+00 -0.99134777895E+01  0.99134781174E+01  0.25500000000E-02 0.  1.
        -24    2    1    2    0    0 -0.88817841970E-15  0.35527136788E-14  0.15060550176E+03  0.17043245775E+03  0.79782237955E+02 0.  0.
         66    2    3    3    0    0 -0.63305518818E+01  0.25263192026E+02  0.10873167507E+02  0.28293648274E+02  0.20000006349E+01 0.  0.
         13    1    3    3    0    0  0.63305518818E+01 -0.25263192026E+02  0.13973233425E+03  0.14213880947E+03  0.10566000000E+00 0. -1.
         13    1    4    4    0    0 -0.30864529608E+01  0.85435216546E+01  0.35975692057E+01  0.97709581090E+01  0.10566000000E+00 0. -1.
        -13    1    4    4    0    0 -0.18974991146E+01  0.93374738081E+01  0.39685684131E+01  0.10322287503E+02  0.10566000000E+00 0.  1.
        -14    1    4    4    0    0 -0.13465998064E+01  0.73821965631E+01  0.33070298887E+01  0.82004026621E+01  0.00000000000E+00 0.  1.
<mgrwt>
<rscale>  0 0.79782238E+02</rscale>
<asrwt>0</asrwt>
<pdfrwt beam="1">  1        1 0.24695226E-01 0.79782238E+02</pdfrwt>
<pdfrwt beam="2">  1       -2 0.15251505E-02 0.79782238E+02</pdfrwt>
<totfact> 0.16105144E+05</totfact>
</mgrwt>
</event>
<event>
 8    1  0.7756875E-014  0.7911336E+02  0.7818608E-02  0.1331587E+00
          1   -1    0    0  501    0  0.00000000000E+00  0.00000000000E+00  0.14589287879E+02  0.14589288749E+02  0.50400000000E-02 0. -1.
         -2   -1    0    0    0  501 -0.00000000000E+00 -0.00000000000E+00 -0.10725204337E+03  0.10725204340E+03  0.25500000000E-02 0.  1.
        -24    2    1    2    0    0  0.35527136788E-14 -0.71054273576E-14 -0.92662755493E+02  0.12184133215E+03  0.79113361482E+02 0.  0.
         66    2    3    3    0    0 -0.19767979328E+02  0.34067686151E+02 -0.51548455197E+02  0.64904726183E+02  0.20000003197E+01 0.  0.
         13    1    3    3    0    0  0.19767979328E+02 -0.34067686151E+02 -0.41114300297E+02  0.56936605969E+02  0.10566000000E+00 0. -1.
         13    1    4    4    0    0 -0.66605418719E+00  0.19832172405E+01 -0.26425817482E+01  0.33721181970E+01  0.10566000000E+00 0. -1.
        -13    1    4    4    0    0 -0.57518167908E+01  0.93311751922E+01 -0.14411441188E+02  0.18106767464E+02  0.10566000000E+00 0.  1.
        -14    1    4    4    0    0 -0.13350108350E+02  0.22753293718E+02 -0.34494432261E+02  0.43425840521E+02  0.00000000000E+00 0.  1.
<mgrwt>
<rscale>  0 0.79113361E+02</rscale>
<asrwt>0</asrwt>
<pdfrwt beam="1">  1        1 0.22445060E-02 0.79113361E+02</pdfrwt>
<pdfrwt beam="2">  1       -2 0.16500314E-01 0.79113361E+02</pdfrwt>
<totfact> 0.10727687E+05</totfact>
</mgrwt>
</event>
<event>
 8    1  0.7756875E-014  0.8033614E+02  0.7818608E-02  0.1328100E+00
         -2   -1    0    0    0  501 -0.00000000000E+00  0.00000000000E+00  0.48029731288E+03  0.48029731289E+03  0.25500000000E-02 0.  1.
          1   -1    0    0  501    0  0.00000000000E+00 -0.00000000000E+00 -0.33593215658E+01  0.33593253466E+01  0.50400000000E-02 0. -1.
        -24    2    1    2    0    0  0.00000000000E+00  0.00000000000E+00  0.47693799132E+03  0.48365663824E+03  0.80336144720E+02 0.  0.
         66    2    3    3    0    0 -0.14592040016E+01  0.11329128336E+02  0.47030373272E+03  0.47044668077E+03  0.20000017422E+01 0.  0.
         13    1    3    3    0    0  0.14592040016E+01 -0.11329128336E+02  0.66342585916E+01  0.13209957466E+02  0.10566000000E+00 0. -1.
         13    1    4    4    0    0 -0.14645570308E+00  0.22544644259E+01  0.10680049795E+03  0.10682444283E+03  0.10566000000E+00 0. -1.
        -13    1    4    4    0    0 -0.96170599166E+00  0.87725643823E+01  0.34916478797E+03  0.34927631338E+03  0.10566000000E+00 0.  1.
         14    1    4    4    0    0 -0.35104230691E+00  0.30209952737E+00  0.14338446803E+02  0.14345924562E+02  0.00000000000E+00 0. -1.
<mgrwt>
<rscale>  0 0.80336145E+02</rscale>
<asrwt>0</asrwt>
<pdfrwt beam="1">  1        1 0.51681904E-03 0.80336145E+02</pdfrwt>
<pdfrwt beam="2">  1       -2 0.73891888E-01 0.80336145E+02</pdfrwt>
<totfact> 0.51385921E+04</totfact>
</mgrwt>
</event>
<event>
 8    1  0.7756875E-014  0.7896378E+02  0.7818608E-02  0.1332018E+00
         -2   -1    0    0    0  501 -0.00000000000E+00  0.00000000000E+00  0.40239358745E+01  0.40239366825E+01  0.25500000000E-02 0.  1.
          1   -1    0    0  501    0  0.00000000000E+00 -0.00000000000E+00 -0.38738673144E+03  0.38738673148E+03  0.50400000000E-02 0. -1.
        -24    2    1    2    0    0 -0.17763568394E-14  0.00000000000E+00 -0.38336279557E+03  0.39141066816E+03  0.78963777278E+02 0.  0.
         66    2    3    3    0    0 -0.78081561117E+01  0.36802573139E+02 -0.25075037245E+03  0.25356487525E+03  0.19999970496E+01 0.  0.
         13    1    3    3    0    0  0.78081561117E+01 -0.36802573139E+02 -0.13261242312E+03  0.13784579291E+03  0.10566000000E+00 0. -1.
         13    1    4    4    0    0 -0.11430531666E+01  0.34429958231E+01 -0.25005408138E+02  0.25267417576E+02  0.10566000000E+00 0. -1.
        -13    1    4    4    0    0 -0.26620440462E+01  0.11984165844E+02 -0.77782894914E+02  0.78745772044E+02  0.10566000000E+00 0.  1.
        -14    1    4    4    0    0 -0.40030588990E+01  0.21375411472E+02 -0.14796206940E+03  0.14955168563E+03  0.00000000000E+00 0.  1.
<mgrwt>
<rscale>  0 0.78963777E+02</rscale>
<asrwt>0</asrwt>
<pdfrwt beam="1">  1        1 0.59597929E-01 0.78963777E+02</pdfrwt>
<pdfrwt beam="2">  1       -2 0.61906743E-03 0.78963777E+02</pdfrwt>
<totfact> 0.19550729E+05</totfact>
</mgrwt>
</event>
<event>
 8    1  0.7756875E-014  0.7922530E+02  0.7818608E-02  0.1331264E+00
         -2   -1    0    0    0  501 -0.00000000000E+00  0.00000000000E+00  0.65131144729E+01  0.65131149721E+01  0.25500000000E-02 0.  1.
          1   -1    0    0  501    0  0.00000000000E+00 -0.00000000000E+00 -0.24092344104E+03  0.24092344109E+03  0.50400000000E-02 0. -1.
        -24    2    1    2    0    0  0.17763568394E-14  0.00000000000E+00 -0.23441032657E+03  0.24743655606E+03  0.79225299469E+02 0.  0.
         66    2    3    3    0    0 -0.11300286881E+02  0.31455020763E+02 -0.51023432030E+02  0.61028726114E+02  0.19999950630E+01 0.  0.
         13    1    3    3    0    0  0.11300286881E+02 -0.31455020763E+02 -0.18338689454E+03  0.18640782995E+03  0.10566000000E+00 0. -1.
         13    1    4    4    0    0 -0.82550749795E+00  0.18439771711E+01 -0.32511131022E+01  0.38291793998E+01  0.10566000000E+00 0. -1.
        -13    1    4    4    0    0 -0.10164521443E+02  0.27448240714E+02 -0.44645550705E+02  0.53385014529E+02  0.10566000000E+00 0.  1.
         14    1    4    4    0    0 -0.31025793946E+00  0.21628028775E+01 -0.31267682228E+01  0.38145321856E+01  0.00000000000E+00 0. -1.
<mgrwt>
<rscale>  0 0.79225299E+02</rscale>
<asrwt>0</asrwt>
<pdfrwt beam="1">  1        1 0.37065138E-01 0.79225299E+02</pdfrwt>
<pdfrwt beam="2">  1       -2 0.10020178E-02 0.79225299E+02</pdfrwt>
<totfact> 0.17740905E+05</totfact>
</mgrwt>
</event>
<event>
 8    1  0.7756875E-014  0.8449270E+02  0.7818608E-02  0.1316765E+00
          1   -1    0    0  501    0  0.00000000000E+00  0.00000000000E+00  0.38680421125E+03  0.38680421128E+03  0.50400000000E-02 0. -1.
         -2   -1    0    0    0  501 -0.00000000000E+00 -0.00000000000E+00 -0.46141017017E+01  0.46141024063E+01  0.25500000000E-02 0.  1.
        -24    2    1    2    0    0  0.35527136788E-14  0.00000000000E+00  0.38219010954E+03  0.39141831368E+03  0.84492700600E+02 0.  0.
         66    2    3    3    0    0  0.21432663284E+02  0.36373299646E+02  0.18837209177E+03  0.19305548662E+03  0.19999935819E+01 0.  0.
         13    1    3    3    0    0 -0.21432663284E+02 -0.36373299646E+02  0.19381801778E+03  0.19836282707E+03  0.10566000000E+00 0. -1.
         13    1    4    4    0    0  0.31408731759E+01  0.57429675167E+01  0.27195358446E+02  0.27972226319E+02  0.10566000000E+00 0. -1.
        -13    1    4    4    0    0  0.14581476354E+02  0.24772078880E+02  0.12754311722E+03  0.13074223977E+03  0.10566000000E+00 0.  1.
         14    1    4    4    0    0  0.37103137543E+01  0.58582532491E+01  0.33633616099E+02  0.34341020532E+02  0.00000000000E+00 0. -1.
<mgrwt>
<rscale>  0 0.84492701E+02</rscale>
<asrwt>0</asrwt>
<pdfrwt beam="1">  1        1 0.59508329E-01 0.84492701E+02</pdfrwt>
<pdfrwt beam="2">  1       -2 0.70986199E-03 0.84492701E+02</pdfrwt>
<totfact> 0.16355583E+05</totfact>
</mgrwt>
</event>
<event>
 8    1  0.7756875E-014  0.8080362E+02  0.7818608E-02  0.1326786E+00
          1   -1    0    0  501    0  0.00000000000E+00  0.00000000000E+00  0.19920465144E+02  0.19920465781E+02  0.50400000000E-02 0. -1.
         -2   -1    0    0    0  501 -0.00000000000E+00 -0.00000000000E+00 -0.81941161005E+02  0.81941161045E+02  0.25500000000E-02 0.  1.
        -24    2    1    2    0    0 -0.35527136788E-14  0.00000000000E+00 -0.62020695861E+02  0.10186162683E+03  0.80803615665E+02 0.  0.
         66    2    3    3    0    0  0.22482725841E+02  0.18991424507E+02 -0.65876681635E+02  0.72179528579E+02  0.19999991192E+01 0.  0.
         13    1    3    3    0    0 -0.22482725841E+02 -0.18991424507E+02  0.38559857742E+01  0.29682098247E+02  0.10566000000E+00 0. -1.
         13    1    4    4    0    0  0.51582388728E+01  0.39716582007E+01 -0.13685778153E+02  0.15155632116E+02  0.10566000000E+00 0. -1.
        -13    1    4    4    0    0  0.61588193720E+01  0.60705695197E+01 -0.20728062675E+02  0.22459889061E+02  0.10566000000E+00 0.  1.
        -14    1    4    4    0    0  0.11165667596E+02  0.89491967865E+01 -0.31462840807E+02  0.34564007402E+02  0.00000000000E+00 0.  1.
<mgrwt>
<rscale>  0 0.80803616E+02</rscale>
<asrwt>0</asrwt>
<pdfrwt beam="1">  1        1 0.30646871E-02 0.80803616E+02</pdfrwt>
<pdfrwt beam="2">  1       -2 0.12606332E-01 0.80803616E+02</pdfrwt>
<totfact> 0.10838086E+05</totfact>
</mgrwt>
</event>
<event>
 8    1  0.7756875E-014  0.7821700E+02  0.7818608E-02  0.1334189E+00
          1   -1    0    0  501    0  0.00000000000E+00  0.00000000000E+00  0.41779938502E+02  0.41779938806E+02  0.50400000000E-02 0. -1.
         -2   -1    0    0    0  501 -0.00000000000E+00 -0.00000000000E+00 -0.36607878885E+02  0.36607878974E+02  0.25500000000E-02 0.  1.
        -24    2    1    2    0    0  0.17763568394E-14  0.22204460493E-15  0.51720596171E+01  0.78387817780E+02  0.78217004389E+02 0.  0.
         66    2    3    3    0    0  0.13741851019E+02  0.17608620139E+01 -0.34037008833E+02  0.36802948930E+02  0.19999937988E+01 0.  0.
         13    1    3    3    0    0 -0.13741851019E+02 -0.17608620139E+01  0.39209068450E+02  0.41584868850E+02  0.10566000000E+00 0. -1.
         13    1    4    4    0    0  0.44507221773E+01  0.60942882408E+00 -0.13131706028E+02  0.13879236241E+02  0.10566000000E+00 0. -1.
        -13    1    4    4    0    0  0.60032737791E+01  0.35606916233E+00 -0.13832799506E+02  0.15083885028E+02  0.10566000000E+00 0.  1.
         14    1    4    4    0    0  0.32878550630E+01  0.79536402752E+00 -0.70725032983E+01  0.78398276611E+01  0.00000000000E+00 0. -1.
<mgrwt>
<rscale>  0 0.78217004E+02</rscale>
<asrwt>0</asrwt>
<pdfrwt beam="1">  1        1 0.64276829E-02 0.78217004E+02</pdfrwt>
<pdfrwt beam="2">  1       -2 0.56319814E-02 0.78217004E+02</pdfrwt>
<totfact> 0.13621398E+05</totfact>
</mgrwt>
</event>
<event>
 8    1  0.7756875E-014  0.7305589E+02  0.7818608E-02  0.1349999E+00
         -2   -1    0    0    0  501 -0.00000000000E+00  0.00000000000E+00  0.76482535418E+01  0.76482539669E+01  0.25500000000E-02 0.  1.
          1   -1    0    0  501    0  0.00000000000E+00 -0.00000000000E+00 -0.17445691230E+03  0.17445691237E+03  0.50400000000E-02 0. -1.
        -24    2    1    2    0    0  0.17763568394E-14  0.35527136788E-14 -0.16680865876E+03  0.18210516634E+03  0.73055889364E+02 0.  0.
         66    2    3    3    0    0  0.14381589713E+02  0.27129754171E+02 -0.34275966141E+02  0.46061866393E+02  0.19999991472E+01 0.  0.
         13    1    3    3    0    0 -0.14381589713E+02 -0.27129754171E+02 -0.13253269261E+03  0.13604329994E+03  0.10566000000E+00 0. -1.
         13    1    4    4    0    0  0.96338617195E+00  0.13806151048E+01 -0.23558184695E+01  0.28974567608E+01  0.10566000000E+00 0. -1.
        -13    1    4    4    0    0  0.96877596374E+01  0.18672045900E+02 -0.23836951751E+02  0.31791656417E+02  0.10566000000E+00 0.  1.
        -14    1    4    4    0    0  0.37304439041E+01  0.70770931662E+01 -0.80831959205E+01  0.11372753215E+02  0.00000000000E+00 0.  1.
<mgrwt>
<rscale>  0 0.73055889E+02</rscale>
<asrwt>0</asrwt>
<pdfrwt beam="1">  1        1 0.26839522E-01 0.73055889E+02</pdfrwt>
<pdfrwt beam="2">  1       -2 0.11766546E-02 0.73055889E+02</pdfrwt>
<totfact> 0.20654381E+05</totfact>
</mgrwt>
</event>
<event>
 8    1  0.7756875E-014  0.7974150E+02  0.7818608E-02  0.1329787E+00
         -2   -1    0    0    0  501 -0.00000000000E+00  0.00000000000E+00  0.44364254523E+02  0.44364254596E+02  0.25500000000E-02 0.  1.
          1   -1    0    0  501    0  0.00000000000E+00 -0.00000000000E+00 -0.35832375401E+02  0.35832375756E+02  0.50400000000E-02 0. -1.
        -24    2    1    2    0    0  0.35527136788E-14  0.35527136788E-14  0.85318791212E+01  0.80196630352E+02  0.79741498346E+02 0.  0.
         66    2    3    3    0    0 -0.20924803622E+02 -0.18265913397E+02  0.33000551233E+02  0.43180173501E+02  0.20000007548E+01 0.  0.
         13    1    3    3    0    0  0.20924803622E+02  0.18265913397E+02 -0.24468672112E+02  0.37016456851E+02  0.10566000000E+00 0. -1.
         13    1    4    4    0    0 -0.84841290142E+01 -0.82347493047E+01  0.14573004299E+02  0.18766330477E+02  0.10566000000E+00 0. -1.
        -13    1    4    4    0    0 -0.21815665493E+01 -0.17418848977E+01  0.26640877821E+01  0.38603009406E+01  0.10566000000E+00 0.  1.
         14    1    4    4    0    0 -0.10259108058E+02 -0.82892791945E+01  0.15763459152E+02  0.20553542083E+02  0.00000000000E+00 0. -1.
<mgrwt>
<rscale>  0 0.79741498E+02</rscale>
<asrwt>0</asrwt>
<pdfrwt beam="1">  1        1 0.55126732E-02 0.79741498E+02</pdfrwt>
<pdfrwt beam="2">  1       -2 0.68252699E-02 0.79741498E+02</pdfrwt>
<totfact> 0.12584549E+05</totfact>
</mgrwt>
</event>
<event>
 8    1  0.7756875E-014  0.7921269E+02  0.7818608E-02  0.1331301E+00
          1   -1    0    0  501    0  0.00000000000E+00  0.00000000000E+00  0.66324041571E+01  0.66324060720E+01  0.50400000000E-02 0. -1.
         -2   -1    0    0    0  501 -0.00000000000E+00 -0.00000000000E+00 -0.23651490817E+03  0.23651490818E+03  0.25500000000E-02 0.  1.
        -24    2    1    2    0    0  0.00000000000E+00  0.00000000000E+00 -0.22988250401E+03  0.24314731425E+03  0.79212693291E+02 0.  0.
         66    2    3    3    0    0  0.37875243584E+02  0.85026506558E+01 -0.13875696804E+03  0.14409831822E+03  0.19999975555E+01 0.  0.
         13    1    3    3    0    0 -0.37875243584E+02 -0.85026506558E+01 -0.91125535972E+02  0.99048996032E+02  0.10566000000E+00 0. -1.
         13    1    4    4    0    0  0.29461748648E+02  0.66684157009E+01 -0.11045741253E+03  0.11451337716E+03  0.10566000000E+00 0. -1.
        -13    1    4    4    0    0  0.51725230005E+01  0.89509139314E+00 -0.17006223735E+02  0.17798286226E+02  0.10566000000E+00 0.  1.
         14    1    4    4    0    0  0.32409719353E+01  0.93914356179E+00 -0.11293331775E+02  0.11786654840E+02  0.00000000000E+00 0. -1.
<mgrwt>
<rscale>  0 0.79212693E+02</rscale>
<asrwt>0</asrwt>
<pdfrwt beam="1">  1        1 0.10203702E-02 0.79212693E+02</pdfrwt>
<pdfrwt beam="2">  1       -2 0.36386903E-01 0.79212693E+02</pdfrwt>
<totfact> 0.81185839E+04</totfact>
</mgrwt>
</event>
<event>
 8    1  0.7756875E-014  0.7895946E+02  0.7818608E-02  0.1332031E+00
          1   -1    0    0  501    0  0.00000000000E+00  0.00000000000E+00  0.11274136970E+03  0.11274136981E+03  0.50400000000E-02 0. -1.
         -2   -1    0    0    0  501 -0.00000000000E+00 -0.00000000000E+00 -0.13824997117E+02  0.13824997352E+02  0.25500000000E-02 0.  1.
        -24    2    1    2    0    0 -0.71054273576E-14  0.35527136788E-14  0.98916372579E+02  0.12656636716E+03  0.78959461320E+02 0.  0.
         66    2    3    3    0    0  0.33403875197E+02 -0.19269209343E+02  0.36124550590E+02  0.52878204070E+02  0.20000008580E+01 0.  0.
         13    1    3    3    0    0 -0.33403875197E+02  0.19269209343E+02  0.62791821989E+02  0.73688163091E+02  0.10566000000E+00 0. -1.
         13    1    4    4    0    0  0.67351894031E+01 -0.34880006340E+01  0.77895991719E+01  0.10872807550E+02  0.10566000000E+00 0. -1.
        -13    1    4    4    0    0  0.19394716916E+02 -0.10967208104E+02  0.19999777632E+02  0.29940557230E+02  0.10566000000E+00 0.  1.
         14    1    4    4    0    0  0.72739688775E+01 -0.48140006054E+01  0.83351737862E+01  0.12064839291E+02  0.00000000000E+00 0. -1.
<mgrwt>
<rscale>  0 0.78959461E+02</rscale>
<asrwt>0</asrwt>
<pdfrwt beam="1">  1        1 0.17344825E-01 0.78959461E+02</pdfrwt>
<pdfrwt beam="2">  1       -2 0.21269228E-02 0.78959461E+02</pdfrwt>
<totfact> 0.15540529E+05</totfact>
</mgrwt>
</event>
<event>
 8    1  0.7756875E-014  0.7787234E+02  0.7818608E-02  0.1335200E+00
         -2   -1    0    0    0  501 -0.00000000000E+00  0.00000000000E+00  0.46072791060E+03  0.46072791061E+03  0.25500000000E-02 0.  1.
          1   -1    0    0  501    0  0.00000000000E+00 -0.00000000000E+00 -0.32904979833E+01  0.32905018432E+01  0.50400000000E-02 0. -1.
        -24    2    1    2    0    0  0.71054273576E-14  0.00000000000E+00  0.45743741262E+03  0.46401841245E+03  0.77872335469E+02 0.  0.
         66    2    3    3    0    0  0.37764320026E+02 -0.62005762919E+01  0.27076238595E+03  0.27346089420E+03  0.20000006985E+01 0.  0.
         13    1    3    3    0    0 -0.37764320026E+02  0.62005762919E+01  0.18667502667E+03  0.19055751825E+03  0.10566000000E+00 0. -1.
         13    1    4    4    0    0  0.18060509867E+02 -0.25799716882E+01  0.12873693909E+03  0.13002326300E+03  0.10566000000E+00 0. -1.
        -13    1    4    4    0    0  0.18743174314E+01 -0.47116398967E-01  0.15059216763E+02  0.15175851190E+02  0.10566000000E+00 0.  1.
        -14    1    4    4    0    0  0.17829492728E+02 -0.35734882047E+01  0.12696623009E+03  0.12826178001E+03  0.00000000000E+00 0.  1.
<mgrwt>
<rscale>  0 0.77872335E+02</rscale>
<asrwt>0</asrwt>
<pdfrwt beam="1">  1        1 0.50623072E-03 0.77872335E+02</pdfrwt>
<pdfrwt beam="2">  1       -2 0.70881222E-01 0.77872335E+02</pdfrwt>
<totfact> 0.57423781E+04</totfact>
</mgrwt>
</event>
<event>
 8    1  0.7756875E-014  0.7996388E+02  0.7818608E-02  0.1329154E+00
         -2   -1    0    0    0  501 -0.00000000000E+00  0.00000000000E+00  0.11792975256E+03  0.11792975259E+03  0.25500000000E-02 0.  1.
          1   -1    0    0  501    0  0.00000000000E+00 -0.00000000000E+00 -0.13555148255E+02  0.13555149192E+02  0.50400000000E-02 0. -1.
        -24    2    1    2    0    0  0.88817841970E-15  0.00000000000E+00  0.10437460431E+03  0.13148490178E+03  0.79963875421E+02 0.  0.
         66    2    3    3    0    0  0.40455044670E+01  0.36371272183E+02  0.25843521633E+02  0.44845547810E+02  0.20000003508E+01 0.  0.
         13    1    3    3    0    0 -0.40455044670E+01 -0.36371272183E+02  0.78531082677E+02  0.86639353974E+02  0.10566000000E+00 0. -1.
         13    1    4    4    0    0  0.77150935264E+00  0.42399507927E+01  0.32769842319E+01  0.54149976082E+01  0.10566000000E+00 0. -1.
        -13    1    4    4    0    0  0.23873738454E+01  0.16258009373E+02  0.11169853941E+02  0.19869555197E+02  0.10566000000E+00 0.  1.
         14    1    4    4    0    0  0.88662126899E+00  0.15873312018E+02  0.11396683460E+02  0.19560995005E+02  0.00000000000E+00 0. -1.
<mgrwt>
<rscale>  0 0.79963875E+02</rscale>
<asrwt>0</asrwt>
<pdfrwt beam="1">  1        1 0.20854076E-02 0.79963875E+02</pdfrwt>
<pdfrwt beam="2">  1       -2 0.18143038E-01 0.79963875E+02</pdfrwt>
<totfact> 0.10175465E+05</totfact>
</mgrwt>
</event>
<event>
 8    1  0.7756875E-014  0.8109890E+02  0.7818608E-02  0.1325962E+00
          1   -1    0    0  501    0  0.00000000000E+00  0.00000000000E+00  0.95529062023E+02  0.95529062156E+02  0.50400000000E-02 0. -1.
         -2   -1    0    0    0  501 -0.00000000000E+00 -0.00000000000E+00 -0.17212122336E+02  0.17212122525E+02  0.25500000000E-02 0.  1.
        -24    2    1    2    0    0  0.35527136788E-14  0.00000000000E+00  0.78316939687E+02  0.11274118468E+03  0.81098900618E+02 0.  0.
         66    2    3    3    0    0  0.29738969800E+02  0.23858573751E+01  0.10562312731E+01  0.29920131387E+02  0.19999993761E+01 0.  0.
         13    1    3    3    0    0 -0.29738969800E+02 -0.23858573751E+01  0.77260708414E+02  0.82821053295E+02  0.10566000000E+00 0. -1.
         13    1    4    4    0    0  0.11112661712E+02  0.93718043782E+00 -0.38824803759E+00  0.11159366383E+02  0.10566000000E+00 0. -1.
        -13    1    4    4    0    0  0.99392579422E+01  0.47119842955E+00  0.43057320018E+00  0.99602928530E+01  0.10566000000E+00 0.  1.
        -14    1    4    4    0    0  0.86870501463E+01  0.97747850776E+00  0.10139061105E+01  0.88004721508E+01  0.00000000000E+00 0.  1.
<mgrwt>
<rscale>  0 0.81098901E+02</rscale>
<asrwt>0</asrwt>
<pdfrwt beam="1">  1        1 0.14696779E-01 0.81098901E+02</pdfrwt>
<pdfrwt beam="2">  1       -2 0.26480188E-02 0.81098901E+02</pdfrwt>
<totfact> 0.14057730E+05</totfact>
</mgrwt>
</event>
<event>
 8    1  0.7756875E-014  0.7884614E+02  0.7818608E-02  0.1332358E+00
          1   -1    0    0  501    0  0.00000000000E+00  0.00000000000E+00  0.25576327700E+02  0.25576328196E+02  0.50400000000E-02 0. -1.
         -2   -1    0    0    0  501 -0.00000000000E+00 -0.00000000000E+00 -0.60766290297E+02  0.60766290351E+02  0.25500000000E-02 0.  1.
        -24    2    1    2    0    0  0.00000000000E+00 -0.71054273576E-14 -0.35189962597E+02  0.86342618547E+02  0.78846143279E+02 0.  0.
         66    2    3    3    0    0  0.13141999294E+02 -0.34163012383E+02 -0.33563995528E+02  0.49702770111E+02  0.20000000901E+01 0.  0.
         13    1    3    3    0    0 -0.13141999294E+02  0.34163012383E+02 -0.16259670691E+01  0.36639848437E+02  0.10566000000E+00 0. -1.
         13    1    4    4    0    0  0.17808373580E+01 -0.50059443625E+01 -0.41193808297E+01  0.67239365785E+01  0.10566000000E+00 0. -1.
        -13    1    4    4    0    0  0.76580826696E+00 -0.14356425161E+01 -0.14943938780E+01  0.22117659989E+01  0.10566000000E+00 0. -1.
        -14    1    4    4    0    0  0.10595353669E+02 -0.27721425504E+02 -0.27950220821E+02  0.40767067533E+02  0.00000000000E+00 0.  1.
<mgrwt>
<rscale>  0 0.78846143E+02</rscale>
<asrwt>0</asrwt>
<pdfrwt beam="1">  1        1 0.39348197E-02 0.78846143E+02</pdfrwt>
<pdfrwt beam="2">  1       -2 0.93486600E-02 0.78846143E+02</pdfrwt>
<totfact> 0.12253050E+05</totfact>
</mgrwt>
</event>
<event>
 8    1  0.7756875E-014  0.8111419E+02  0.7818608E-02  0.1325919E+00
         -2   -1    0    0    0  501 -0.00000000000E+00  0.00000000000E+00  0.30782798155E+03  0.30782798156E+03  0.25500000000E-02 0.  1.
          1   -1    0    0  501    0  0.00000000000E+00 -0.00000000000E+00 -0.53434959921E+01  0.53434983690E+01  0.50400000000E-02 0. -1.
        -24    2    1    2    0    0  0.00000000000E+00  0.00000000000E+00  0.30248448555E+03  0.31317147993E+03  0.81114190115E+02 0.  0.
         66    2    3    3    0    0 -0.15811780554E+02 -0.12760863683E+02  0.28674109061E+03  0.28746705045E+03  0.20000011167E+01 0.  0.
         13    1    3    3    0    0  0.15811780554E+02  0.12760863683E+02  0.15743394944E+02  0.25704429475E+02  0.10566000000E+00 0. -1.
         13    1    4    4    0    0 -0.17245313924E+01 -0.12987546727E+01  0.32966445446E+02  0.33037228419E+02  0.10566000000E+00 0.  1.
        -13    1    4    4    0    0 -0.48474055438E+01 -0.39019729083E+01  0.98981903116E+02  0.99177371621E+02  0.10566000000E+00 0. -1.
        -14    1    4    4    0    0 -0.92398436179E+01 -0.75601361024E+01  0.15479274205E+03  0.15525245041E+03  0.00000000000E+00 0.  1.
<mgrwt>
<rscale>  0 0.81114190E+02</rscale>
<asrwt>0</asrwt>
<pdfrwt beam="1">  1        1 0.82207648E-03 0.81114190E+02</pdfrwt>
<pdfrwt beam="2">  1       -2 0.47358152E-01 0.81114190E+02</pdfrwt>
<totfact> 0.66849822E+04</totfact>
</mgrwt>
</event>
<event>
 8    1  0.7839820E-014  0.8113656E+02  0.7818608E-02  0.1325857E+00
          1   -1    0    0  501    0  0.00000000000E+00  0.00000000000E+00  0.11505165526E+02  0.11505166630E+02  0.50400000000E-02 0. -1.
         -2   -1    0    0    0  501 -0.00000000000E+00 -0.00000000000E+00 -0.14304749903E+03  0.14304749905E+03  0.25500000000E-02 0.  1.
        -24    2    1    2    0    0  0.00000000000E+00  0.00000000000E+00 -0.13154233350E+03  0.15455266568E+03  0.81136557518E+02 0.  0.
         66    2    3    3    0    0  0.16916893503E+02  0.54336423568E+01 -0.13522886633E+03  0.13640583556E+03  0.19999832719E+01 0.  0.
         13    1    3    3    0    0 -0.16916893503E+02 -0.54336423568E+01  0.36865328217E+01  0.18146830118E+02  0.10566000000E+00 0. -1.
         13    1    4    4    0    0  0.38419788590E+00  0.15752471338E+00 -0.20131536271E+01  0.20582452752E+01  0.10566000000E+00 0. -1.
        -13    1    4    4    0    0  0.83439924071E+01  0.32583777574E+01 -0.66264345244E+02  0.66867135796E+02  0.10566000000E+00 0.  1.
         14    1    4    4    0    0  0.81887032103E+01  0.20177398860E+01 -0.66951367454E+02  0.67480454492E+02  0.00000000000E+00 0. -1.
<mgrwt>
<rscale>  0 0.81136558E+02</rscale>
<asrwt>0</asrwt>
<pdfrwt beam="1">  1        1 0.17700257E-02 0.81136558E+02</pdfrwt>
<pdfrwt beam="2">  1       -2 0.22007306E-01 0.81136558E+02</pdfrwt>
<totfact> 0.92549515E+04</totfact>
</mgrwt>
</event>
<event>
 8    1  0.7756875E-014  0.8568221E+02  0.7818608E-02  0.1313658E+00
          1   -1    0    0  501    0  0.00000000000E+00  0.00000000000E+00  0.23130235592E+03  0.23130235597E+03  0.50400000000E-02 0. -1.
         -2   -1    0    0    0  501 -0.00000000000E+00 -0.00000000000E+00 -0.79348959333E+01  0.79348963431E+01  0.25500000000E-02 0.  1.
        -24    2    1    2    0    0  0.35527136788E-14  0.35527136788E-14  0.22336745999E+03  0.23923725232E+03  0.85682207696E+02 0.  0.
         66    2    3    3    0    0 -0.31384955089E+02  0.24565162394E+02  0.68049996367E+02  0.78887670845E+02  0.19999990942E+01 0.  0.
         13    1    3    3    0    0  0.31384955089E+02 -0.24565162394E+02  0.15531746362E+03  0.16034958147E+03  0.10566000000E+00 0. -1.
         13    1    4    4    0    0 -0.71097514346E+01  0.60023780763E+01  0.15151858300E+02  0.17781087763E+02  0.10566000000E+00 0. -1.
        -13    1    4    4    0    0 -0.36355181951E+01  0.33919283990E+01  0.88706941346E+01  0.10169687767E+02  0.10566000000E+00 0.  1.
         14    1    4    4    0    0 -0.20639685459E+02  0.15170855919E+02  0.44027443932E+02  0.50936895315E+02  0.00000000000E+00 0. -1.
<mgrwt>
<rscale>  0 0.85682208E+02</rscale>
<asrwt>0</asrwt>
<pdfrwt beam="1">  1        1 0.35584975E-01 0.85682208E+02</pdfrwt>
<pdfrwt beam="2">  1       -2 0.12207534E-02 0.85682208E+02</pdfrwt>
<totfact> 0.14293722E+05</totfact>
</mgrwt>
</event>
<event>
 8    1  0.7756875E-014  0.7958384E+02  0.7818608E-02  0.1330237E+00
         -2   -1    0    0    0  501 -0.00000000000E+00  0.00000000000E+00  0.76832198347E+02  0.76832198389E+02  0.25500000000E-02 0.  1.
          1   -1    0    0  501    0  0.00000000000E+00 -0.00000000000E+00 -0.20608505733E+02  0.20608506349E+02  0.50400000000E-02 0. -1.
        -24    2    1    2    0    0  0.71054273576E-14 -0.17763568394E-14  0.56223692614E+02  0.97440704739E+02  0.79583838364E+02 0.  0.
         66    2    3    3    0    0  0.37974541442E+02  0.99341699472E+01  0.35934742451E+02  0.53254664036E+02  0.19999990755E+01 0.  0.
         13    1    3    3    0    0 -0.37974541442E+02 -0.99341699472E+01  0.20288950163E+02  0.44186040703E+02  0.10566000000E+00 0. -1.
         13    1    4    4    0    0  0.20527381301E+01  0.72652896403E+00  0.25447105203E+01  0.33508646398E+01  0.10566000000E+00 0. -1.
        -13    1    4    4    0    0  0.18063309643E+02  0.45618364480E+01  0.17142735997E+02  0.25317544678E+02  0.10566000000E+00 0.  1.
         14    1    4    4    0    0  0.17858493669E+02  0.46458045352E+01  0.16247295933E+02  0.24586254718E+02  0.00000000000E+00 0. -1.
<mgrwt>
<rscale>  0 0.79583838E+02</rscale>
<asrwt>0</asrwt>
<pdfrwt beam="1">  1        1 0.31705393E-02 0.79583838E+02</pdfrwt>
<pdfrwt beam="2">  1       -2 0.11820338E-01 0.79583838E+02</pdfrwt>
<totfact> 0.11423545E+05</totfact>
</mgrwt>
</event>
<event>
 8    1  0.7756875E-014  0.8034399E+02  0.7818608E-02  0.1328078E+00
          1   -1    0    0  501    0  0.00000000000E+00  0.00000000000E+00  0.20710630242E+02  0.20710630856E+02  0.50400000000E-02 0. -1.
         -2   -1    0    0    0  501 -0.00000000000E+00 -0.00000000000E+00 -0.77920804543E+02  0.77920804585E+02  0.25500000000E-02 0.  1.
        -24    2    1    2    0    0 -0.88817841970E-15  0.00000000000E+00 -0.57210174301E+02  0.98631435440E+02  0.80343985546E+02 0.  0.
         66    2    3    3    0    0  0.53704660803E+01 -0.33942280671E+02 -0.54104671123E+02  0.64126716385E+02  0.19999984725E+01 0.  0.
         13    1    3    3    0    0 -0.53704660803E+01  0.33942280671E+02 -0.31055031775E+01  0.34504719055E+02  0.10566000000E+00 0. -1.
         13    1    4    4    0    0  0.36164566903E+00 -0.15812454922E+01 -0.22159647550E+01  0.27482337469E+01  0.10566000000E+00 0. -1.
        -13    1    4    4    0    0  0.10204454327E+01 -0.11555308264E+02 -0.18412338890E+02  0.21762165457E+02  0.10566000000E+00 0.  1.
        -14    1    4    4    0    0  0.39883749785E+01 -0.20805726915E+02 -0.33476367478E+02  0.39616317181E+02  0.00000000000E+00 0.  1.
<mgrwt>
<rscale>  0 0.80343986E+02</rscale>
<asrwt>0</asrwt>
<pdfrwt beam="1">  1        1 0.31862509E-02 0.80343986E+02</pdfrwt>
<pdfrwt beam="2">  1       -2 0.11987816E-01 0.80343986E+02</pdfrwt>
<totfact> 0.11117141E+05</totfact>
</mgrwt>
</event>
<event>
 8    1  0.7756875E-014  0.7976353E+02  0.7818608E-02  0.1329724E+00
         -2   -1    0    0    0  501 -0.00000000000E+00  0.00000000000E+00  0.32546508213E+02  0.32546508313E+02  0.25500000000E-02 0.  1.
          1   -1    0    0  501    0  0.00000000000E+00 -0.00000000000E+00 -0.48870225444E+02  0.48870225704E+02  0.50400000000E-02 0. -1.
        -24    2    1    2    0    0  0.35527136788E-14  0.00000000000E+00 -0.16323717231E+02  0.81416734017E+02  0.79763530725E+02 0.  0.
         66    2    3    3    0    0 -0.23344733091E+02  0.18473497217E+01  0.24753006153E+02  0.34133569655E+02  0.19999999120E+01 0.  0.
         13    1    3    3    0    0  0.23344733091E+02 -0.18473497217E+01 -0.41076723384E+02  0.47283164362E+02  0.10566000000E+00 0. -1.
         13    1    4    4    0    0 -0.44383912105E+01  0.15041814889E+00  0.53429558858E+01  0.69484015277E+01  0.10566000000E+00 0. -1.
        -13    1    4    4    0    0 -0.74684432276E+01  0.10690486996E+01  0.69282458175E+01  0.10243645030E+02  0.10566000000E+00 0.  1.
        -14    1    4    4    0    0 -0.11437898653E+02  0.62788287316E+00  0.12481804450E+02  0.16941523097E+02  0.00000000000E+00 0.  1.
<mgrwt>
<rscale>  0 0.79763531E+02</rscale>
<asrwt>0</asrwt>
<pdfrwt beam="1">  1        1 0.75184963E-02 0.79763531E+02</pdfrwt>
<pdfrwt beam="2">  1       -2 0.50071551E-02 0.79763531E+02</pdfrwt>
<totfact> 0.13218369E+05</totfact>
</mgrwt>
</event>
<event>
 8    1  0.7756875E-014  0.7859178E+02  0.7818608E-02  0.1333096E+00
          1   -1    0    0  501    0  0.00000000000E+00  0.00000000000E+00  0.21548632054E+03  0.21548632060E+03  0.50400000000E-02 0. -1.
         -2   -1    0    0    0  501 -0.00000000000E+00 -0.00000000000E+00 -0.71659630255E+01  0.71659634792E+01  0.25500000000E-02 0.  1.
        -24    2    1    2    0    0 -0.35527136788E-14  0.00000000000E+00  0.20832035751E+03  0.22265228408E+03  0.78591782332E+02 0.  0.
         66    2    3    3    0    0 -0.15775195310E+02 -0.35489749545E+02  0.87761023000E+02  0.95991542676E+02  0.19999993668E+01 0.  0.
         13    1    3    3    0    0  0.15775195310E+02  0.35489749545E+02  0.12055933451E+03  0.12666074140E+03  0.10566000000E+00 0. -1.
         13    1    4    4    0    0 -0.58228084934E-01 -0.17427639348E+00  0.56759239245E+00  0.60587781834E+00  0.10566000000E+00 0.  1.
        -13    1    4    4    0    0 -0.35130053373E+01 -0.91935841285E+01  0.22286967554E+02  0.24363564649E+02  0.10566000000E+00 0.  1.
        -14    1    4    4    0    0 -0.12203961888E+02 -0.26121889023E+02  0.64906463053E+02  0.71022100208E+02  0.00000000000E+00 0.  1.
<mgrwt>
<rscale>  0 0.78591782E+02</rscale>
<asrwt>0</asrwt>
<pdfrwt beam="1">  1        1 0.33151737E-01 0.78591782E+02</pdfrwt>
<pdfrwt beam="2">  1       -2 0.11024560E-02 0.78591782E+02</pdfrwt>
<totfact> 0.17732474E+05</totfact>
</mgrwt>
</event>
<event>
 8    1  0.7756875E-014  0.7937747E+02  0.7818608E-02  0.1330827E+00
         -2   -1    0    0    0  501 -0.00000000000E+00  0.00000000000E+00  0.51632467575E+01  0.51632473872E+01  0.25500000000E-02 0.  1.
          1   -1    0    0  501    0  0.00000000000E+00 -0.00000000000E+00 -0.30507850857E+03  0.30507850862E+03  0.50400000000E-02 0. -1.
        -24    2    1    2    0    0 -0.35527136788E-14 -0.35527136788E-14 -0.29991526182E+03  0.31024175600E+03  0.79377470968E+02 0.  0.
         66    2    3    3    0    0  0.23284620624E+02  0.31907611429E+02 -0.16410204576E+03  0.16880092016E+03  0.19999997633E+01 0.  0.
         13    1    3    3    0    0 -0.23284620624E+02 -0.31907611429E+02 -0.13581321606E+03  0.14144083585E+03  0.10566000000E+00 0. -1.
         13    1    4    4    0    0  0.40601690710E+01  0.45981869882E+01 -0.26718815253E+02  0.27414130462E+02  0.10566000000E+00 0. -1.
        -13    1    4    4    0    0  0.18025201446E+02  0.25786580000E+02 -0.13006901535E+03  0.13382008636E+03  0.10566000000E+00 0.  1.
        -14    1    4    4    0    0  0.11992501066E+01  0.15228444407E+01 -0.73142151597E+01  0.75667033384E+01  0.00000000000E+00 0.  1.
<mgrwt>
<rscale>  0 0.79377471E+02</rscale>
<asrwt>0</asrwt>
<pdfrwt beam="1">  1        1 0.46935141E-01 0.79377471E+02</pdfrwt>
<pdfrwt beam="2">  1       -2 0.79434594E-03 0.79377471E+02</pdfrwt>
<totfact> 0.18475583E+05</totfact>
</mgrwt>
</event>
<event>
 8    1  0.7756875E-014  0.8143844E+02  0.7818608E-02  0.1325018E+00
          1   -1    0    0  501    0  0.00000000000E+00  0.00000000000E+00  0.15218355909E+03  0.15218355918E+03  0.50400000000E-02 0. -1.
         -2   -1    0    0    0  501 -0.00000000000E+00 -0.00000000000E+00 -0.10895099512E+02  0.10895099811E+02  0.25500000000E-02 0.  1.
        -24    2    1    2    0    0  0.35527136788E-14  0.00000000000E+00  0.14128845958E+03  0.16307865899E+03  0.81438444277E+02 0.  0.
         66    2    3    3    0    0  0.19624617530E+02  0.33121294371E+02  0.44279488338E+02  0.58709614632E+02  0.20000021872E+01 0.  0.
         13    1    3    3    0    0 -0.19624617530E+02 -0.33121294371E+02  0.97008971243E+02  0.10436904436E+03  0.10566000000E+00 0. -1.
         13    1    4    4    0    0  0.92275230288E+00  0.16540870406E+01  0.23535469545E+01  0.30228832351E+01  0.10566000000E+00 0.  1.
        -13    1    4    4    0    0  0.28391225229E+01  0.61386128748E+01  0.77590207830E+01  0.10293529631E+02  0.10566000000E+00 0.  1.
         14    1    4    4    0    0  0.15862742704E+02  0.25328594456E+02  0.34166920600E+02  0.45393201765E+02  0.00000000000E+00 0. -1.
<mgrwt>
<rscale>  0 0.81438444E+02</rscale>
<asrwt>0</asrwt>
<pdfrwt beam="1">  1        1 0.23412854E-01 0.81438444E+02</pdfrwt>
<pdfrwt beam="2">  1       -2 0.16761693E-02 0.81438444E+02</pdfrwt>
<totfact> 0.15093993E+05</totfact>
</mgrwt>
</event>
<event>
 8    1  0.7756875E-014  0.8355444E+02  0.7818608E-02  0.1319257E+00
          1   -1    0    0  501    0  0.00000000000E+00  0.00000000000E+00  0.86880275301E+02  0.86880275447E+02  0.50400000000E-02 0. -1.
         -2   -1    0    0    0  501 -0.00000000000E+00 -0.00000000000E+00 -0.20088980263E+02  0.20088980425E+02  0.25500000000E-02 0.  1.
        -24    2    1    2    0    0  0.00000000000E+00  0.00000000000E+00  0.66791295038E+02  0.10696925587E+03  0.83554440989E+02 0.  0.
         66    2    3    3    0    0 -0.25483005897E+02  0.12021999225E+02 -0.60326745407E+01  0.28884342066E+02  0.19999998961E+01 0.  0.
         13    1    3    3    0    0  0.25483005897E+02 -0.12021999225E+02  0.72823969579E+02  0.78084913806E+02  0.10566000000E+00 0. -1.
         13    1    4    4    0    0 -0.73414267202E+01  0.31907066079E+01 -0.11681684499E+01  0.80902989134E+01  0.10566000000E+00 0.  1.
        -13    1    4    4    0    0 -0.17149508896E+01  0.53511698333E+00 -0.66245174039E+00  0.19176582291E+01  0.10566000000E+00 0.  1.
         14    1    4    4    0    0 -0.16426628287E+02  0.82961756341E+01 -0.42020543504E+01  0.18876384924E+02  0.00000000000E+00 0. -1.
<mgrwt>
<rscale>  0 0.83554441E+02</rscale>
<asrwt>0</asrwt>
<pdfrwt beam="1">  1        1 0.13366196E-01 0.83554441E+02</pdfrwt>
<pdfrwt beam="2">  1       -2 0.30906123E-02 0.83554441E+02</pdfrwt>
<totfact> 0.12756784E+05</totfact>
</mgrwt>
</event>
<event>
 8    1  0.7756875E-014  0.8086998E+02  0.7818608E-02  0.1326601E+00
          1   -1    0    0  501    0  0.00000000000E+00  0.00000000000E+00  0.45159018142E+02  0.45159018423E+02  0.50400000000E-02 0. -1.
         -2   -1    0    0    0  501 -0.00000000000E+00 -0.00000000000E+00 -0.36205137185E+02  0.36205137275E+02  0.25500000000E-02 0.  1.
        -24    2    1    2    0    0  0.00000000000E+00  0.00000000000E+00  0.89538809563E+01  0.81364155698E+02  0.80869981132E+02 0.  0.
         66    2    3    3    0    0 -0.27537159793E+02  0.23431472506E+02  0.22635842097E+02  0.42704922675E+02  0.19999999904E+01 0.  0.
         13    1    3    3    0    0  0.27537159793E+02 -0.23431472506E+02 -0.13681961141E+02  0.38659233023E+02  0.10566000000E+00 0. -1.
         13    1    4    4    0    0 -0.14358708922E+02  0.11987506671E+02  0.11316314909E+02  0.21861907173E+02  0.10566000000E+00 0. -1.
        -13    1    4    4    0    0 -0.10092423659E+02  0.81169278080E+01  0.80469431658E+01  0.15248147123E+02  0.10566000000E+00 0.  1.
         14    1    4    4    0    0 -0.30860272123E+01  0.33270380266E+01  0.32725840224E+01  0.55948683782E+01  0.00000000000E+00 0. -1.
<mgrwt>
<rscale>  0 0.80869981E+02</rscale>
<asrwt>0</asrwt>
<pdfrwt beam="1">  1        1 0.69475414E-02 0.80869981E+02</pdfrwt>
<pdfrwt beam="2">  1       -2 0.55700211E-02 0.80869981E+02</pdfrwt>
<totfact> 0.12560936E+05</totfact>
</mgrwt>
</event>
<event>
 8    1  0.7756875E-014  0.7898884E+02  0.7818608E-02  0.1331946E+00
         -2   -1    0    0    0  501 -0.00000000000E+00  0.00000000000E+00  0.22194932414E+02  0.22194932561E+02  0.25500000000E-02 0.  1.
          1   -1    0    0  501    0  0.00000000000E+00 -0.00000000000E+00 -0.70277721573E+02  0.70277721754E+02  0.50400000000E-02 0. -1.
        -24    2    1    2    0    0  0.00000000000E+00  0.00000000000E+00 -0.48082789159E+02  0.92472654314E+02  0.78988842140E+02 0.  0.
         66    2    3    3    0    0 -0.19785166859E+02  0.13847825520E+02  0.12490795099E+02  0.27262337852E+02  0.20000009260E+01 0.  0.
         13    1    3    3    0    0  0.19785166859E+02 -0.13847825520E+02 -0.60573584258E+02  0.65210316462E+02  0.10566000000E+00 0. -1.
         13    1    4    4    0    0 -0.14335586054E+01  0.13522976212E+01  0.88035498868E+00  0.21610155189E+01  0.10566000000E+00 0. -1.
        -13    1    4    4    0    0 -0.66406776411E+01  0.54148283266E+01  0.45531623489E+01  0.97036805775E+01  0.10566000000E+00 0.  1.
         14    1    4    4    0    0 -0.11710930612E+02  0.70806995718E+01  0.70572777612E+01  0.15397641755E+02  0.00000000000E+00 0. -1.
<mgrwt>
<rscale>  0 0.78988842E+02</rscale>
<asrwt>0</asrwt>
<pdfrwt beam="1">  1        1 0.10811957E-01 0.78988842E+02</pdfrwt>
<pdfrwt beam="2">  1       -2 0.34146050E-02 0.78988842E+02</pdfrwt>
<totfact> 0.14370686E+05</totfact>
</mgrwt>
</event>
<event>
 8    1  0.7756875E-014  0.7780311E+02  0.7818608E-02  0.1335404E+00
         -2   -1    0    0    0  501 -0.00000000000E+00  0.00000000000E+00  0.10505568049E+02  0.10505568359E+02  0.25500000000E-02 0.  1.
          1   -1    0    0  501    0  0.00000000000E+00 -0.00000000000E+00 -0.14405035293E+03  0.14405035302E+03  0.50400000000E-02 0. -1.
        -24    2    1    2    0    0  0.00000000000E+00  0.00000000000E+00 -0.13354478488E+03  0.15455592137E+03  0.77803105746E+02 0.  0.
         66    2    3    3    0    0 -0.13187901337E+02 -0.33235454255E+02 -0.97126625747E+02  0.10351858563E+03  0.19999952337E+01 0.  0.
         13    1    3    3    0    0  0.13187901337E+02  0.33235454255E+02 -0.36418159131E+02  0.51037335743E+02  0.10566000000E+00 0. -1.
         13    1    4    4    0    0 -0.28770916489E+01 -0.65231189470E+01 -0.21036512338E+02  0.22212040711E+02  0.10566000000E+00 0. -1.
        -13    1    4    4    0    0 -0.36297870783E+01 -0.83604024930E+01 -0.23284588620E+02  0.25005097787E+02  0.10566000000E+00 0.  1.
         14    1    4    4    0    0 -0.66810226097E+01 -0.18351932815E+02 -0.52805524788E+02  0.56301447134E+02  0.00000000000E+00 0. -1.
<mgrwt>
<rscale>  0 0.77803106E+02</rscale>
<asrwt>0</asrwt>
<pdfrwt beam="1">  1        1 0.22161591E-01 0.77803106E+02</pdfrwt>
<pdfrwt beam="2">  1       -2 0.16162414E-02 0.77803106E+02</pdfrwt>
<totfact> 0.16881122E+05</totfact>
</mgrwt>
</event>
<event>
 8    1  0.7756875E-014  0.8516623E+02  0.7818608E-02  0.1314998E+00
          1   -1    0    0  501    0  0.00000000000E+00  0.00000000000E+00  0.16548091201E+03  0.16548091209E+03  0.50400000000E-02 0. -1.
         -2   -1    0    0    0  501 -0.00000000000E+00 -0.00000000000E+00 -0.10957891339E+02  0.10957891636E+02  0.25500000000E-02 0.  1.
        -24    2    1    2    0    0 -0.71054273576E-14  0.88817841970E-15  0.15452302067E+03  0.17643880372E+03  0.85166234752E+02 0.  0.
         66    2    3    3    0    0 -0.37553104529E+02  0.58593078749E+01  0.37629492449E+02  0.53521452414E+02  0.20000045089E+01 0.  0.
         13    1    3    3    0    0  0.37553104529E+02 -0.58593078749E+01  0.11689352822E+03  0.12291735131E+03  0.10566000000E+00 0. -1.
         13    1    4    4    0    0 -0.52500432011E+01  0.34984082063E+00  0.53613761431E+01  0.75127132513E+01  0.10566000000E+00 0. -1.
        -13    1    4    4    0    0 -0.23990522608E+02  0.42736567969E+01  0.24744313479E+02  0.34728972501E+02  0.10566000000E+00 0.  1.
        -14    1    4    4    0    0 -0.83125387199E+01  0.12358102573E+01  0.75238028266E+01  0.11279766661E+02  0.00000000000E+00 0.  1.
<mgrwt>
<rscale>  0 0.85166235E+02</rscale>
<asrwt>0</asrwt>
<pdfrwt beam="1">  1        1 0.25458601E-01 0.85166235E+02</pdfrwt>
<pdfrwt beam="2">  1       -2 0.16858295E-02 0.85166235E+02</pdfrwt>
<totfact> 0.13600907E+05</totfact>
</mgrwt>
</event>
<event>
 8    1  0.7756875E-014  0.7823604E+02  0.7818608E-02  0.1334133E+00
         -2   -1    0    0    0  501 -0.00000000000E+00  0.00000000000E+00  0.22556863843E+02  0.22556863987E+02  0.25500000000E-02 0.  1.
          1   -1    0    0  501    0  0.00000000000E+00 -0.00000000000E+00 -0.67838315774E+02  0.67838315961E+02  0.50400000000E-02 0. -1.
        -24    2    1    2    0    0  0.00000000000E+00  0.00000000000E+00 -0.45281451931E+02  0.90395179948E+02  0.78236044563E+02 0.  0.
         66    2    3    3    0    0  0.21713684041E+02  0.86703179331E+01  0.13543470439E+02  0.27093986093E+02  0.20000007984E+01 0.  0.
         13    1    3    3    0    0 -0.21713684041E+02 -0.86703179331E+01 -0.58824922370E+02  0.63301193855E+02  0.10566000000E+00 0. -1.
         13    1    4    4    0    0  0.13997954761E+02  0.62869923712E+01  0.81564036424E+01  0.17378351331E+02  0.10566000000E+00 0. -1.
        -13    1    4    4    0    0  0.53475702832E+01  0.15885844865E+01  0.39171543594E+01  0.68172847172E+01  0.10566000000E+00 0.  1.
         14    1    4    4    0    0  0.23681589962E+01  0.79474107544E+00  0.14699124369E+01  0.28983500445E+01  0.00000000000E+00 0. -1.
<mgrwt>
<rscale>  0 0.78236045E+02</rscale>
<asrwt>0</asrwt>
<pdfrwt beam="1">  1        1 0.10436664E-01 0.78236045E+02</pdfrwt>
<pdfrwt beam="2">  1       -2 0.34702868E-02 0.78236045E+02</pdfrwt>
<totfact> 0.14670561E+05</totfact>
</mgrwt>
</event>
<event>
 8    1  0.7756875E-014  0.7973220E+02  0.7818608E-02  0.1329813E+00
          1   -1    0    0  501    0  0.00000000000E+00  0.00000000000E+00  0.73458534560E+02  0.73458534733E+02  0.50400000000E-02 0. -1.
         -2   -1    0    0    0  501 -0.00000000000E+00 -0.00000000000E+00 -0.21635413951E+02  0.21635414101E+02  0.25500000000E-02 0.  1.
        -24    2    1    2    0    0  0.35527136788E-14 -0.17763568394E-14  0.51823120610E+02  0.95093948834E+02  0.79732197230E+02 0.  0.
         66    2    3    3    0    0  0.26132563948E+02 -0.13544297400E+02 -0.60957189845E+01  0.30125017532E+02  0.20000002060E+01 0.  0.
         13    1    3    3    0    0 -0.26132563948E+02  0.13544297400E+02  0.57918839594E+02  0.64968931302E+02  0.10566000000E+00 0. -1.
         13    1    4    4    0    0  0.28481578081E+01 -0.10364325848E+01 -0.62178314295E+00  0.30957993661E+01  0.10566000000E+00 0. -1.
        -13    1    4    4    0    0  0.18253834750E+02 -0.92764566595E+01 -0.38659493044E+01  0.20837750821E+02  0.10566000000E+00 0.  1.
        -14    1    4    4    0    0  0.50305713902E+01 -0.32314081555E+01 -0.16079865371E+01  0.61914673449E+01  0.00000000000E+00 0.  1.
<mgrwt>
<rscale>  0 0.79732197E+02</rscale>
<asrwt>0</asrwt>
<pdfrwt beam="1">  1        1 0.11301313E-01 0.79732197E+02</pdfrwt>
<pdfrwt beam="2">  1       -2 0.33285252E-02 0.79732197E+02</pdfrwt>
<totfact> 0.14105829E+05</totfact>
</mgrwt>
</event>
<event>
 8    1  0.7756875E-014  0.8035307E+02  0.7818608E-02  0.1328052E+00
          1   -1    0    0  501    0  0.00000000000E+00  0.00000000000E+00  0.91428794694E+01  0.91428808585E+01  0.50400000000E-02 0. -1.
         -2   -1    0    0    0  501 -0.00000000000E+00 -0.00000000000E+00 -0.17654766563E+03  0.17654766565E+03  0.25500000000E-02 0.  1.
        -24    2    1    2    0    0  0.00000000000E+00  0.00000000000E+00 -0.16740478616E+03  0.18569054651E+03  0.80353074817E+02 0.  0.
         66    2    3    3    0    0 -0.76687871619E+01 -0.39293148976E+02 -0.90834517793E+02  0.99285806967E+02  0.19999973708E+01 0.  0.
         13    1    3    3    0    0  0.76687871619E+01  0.39293148976E+02 -0.76570268366E+02  0.86404739538E+02  0.10566000000E+00 0. -1.
         13    1    4    4    0    0 -0.65678574239E+01 -0.33546212936E+02 -0.77007162189E+02  0.84253185969E+02  0.10566000000E+00 0. -1.
        -13    1    4    4    0    0 -0.64718650419E+00 -0.36390117885E+01 -0.78229776050E+01  0.86528261170E+01  0.10566000000E+00 0.  1.
         14    1    4    4    0    0 -0.45374323381E+00 -0.21079242513E+01 -0.60043779988E+01  0.63797948810E+01  0.00000000000E+00 0. -1.
<mgrwt>
<rscale>  0 0.80353075E+02</rscale>
<asrwt>0</asrwt>
<pdfrwt beam="1">  1        1 0.14065971E-02 0.80353075E+02</pdfrwt>
<pdfrwt beam="2">  1       -2 0.27161177E-01 0.80353075E+02</pdfrwt>
<totfact> 0.88284366E+04</totfact>
</mgrwt>
</event>
<event>
 8    1  0.7756875E-014  0.7993120E+02  0.7818608E-02  0.1329247E+00
          1   -1    0    0  501    0  0.00000000000E+00  0.00000000000E+00  0.86735703938E+01  0.86735718581E+01  0.50400000000E-02 0. -1.
         -2   -1    0    0    0  501 -0.00000000000E+00 -0.00000000000E+00 -0.18415128818E+03  0.18415128820E+03  0.25500000000E-02 0.  1.
        -24    2    1    2    0    0  0.00000000000E+00 -0.88817841970E-15 -0.17547771779E+03  0.19282486005E+03  0.79931203019E+02 0.  0.
         66    2    3    3    0    0 -0.11123121425E+02 -0.73462404318E+01 -0.17862092924E+03  0.17912880146E+03  0.20000177084E+01 0.  0.
         13    1    3    3    0    0  0.11123121425E+02  0.73462404318E+01  0.31432114562E+01  0.13696058594E+02  0.10566000000E+00 0. -1.
         13    1    4    4    0    0 -0.41174453177E+01 -0.24372569500E+01 -0.71701695944E+02  0.71861240893E+02  0.10566000000E+00 0. -1.
        -13    1    4    4    0    0 -0.40056491845E+01 -0.21574246570E+01 -0.53184022188E+02  0.53378376583E+02  0.10566000000E+00 0.  1.
        -14    1    4    4    0    0 -0.30000269233E+01 -0.27515588247E+01 -0.53735211110E+02  0.53889183985E+02  0.00000000000E+00 0.  1.
<mgrwt>
<rscale>  0 0.79931203E+02</rscale>
<asrwt>0</asrwt>
<pdfrwt beam="1">  1        1 0.13343957E-02 0.79931203E+02</pdfrwt>
<pdfrwt beam="2">  1       -2 0.28330965E-01 0.79931203E+02</pdfrwt>
<totfact> 0.88082179E+04</totfact>
</mgrwt>
</event>
<event>
 8    1  0.7756875E-014  0.7955776E+02  0.7818608E-02  0.1330311E+00
         -2   -1    0    0    0  501 -0.00000000000E+00  0.00000000000E+00  0.92747947642E+01  0.92747951148E+01  0.25500000000E-02 0.  1.
          1   -1    0    0  501    0  0.00000000000E+00 -0.00000000000E+00 -0.17060856448E+03  0.17060856456E+03  0.50400000000E-02 0. -1.
        -24    2    1    2    0    0  0.00000000000E+00  0.00000000000E+00 -0.16133376972E+03  0.17988335967E+03  0.79557764142E+02 0.  0.
         66    2    3    3    0    0  0.22671317014E+02 -0.29550072160E+02 -0.11214205194E+03  0.11818221186E+03  0.20000014947E+01 0.  0.
         13    1    3    3    0    0 -0.22671317014E+02  0.29550072160E+02 -0.49191717778E+02  0.61701147816E+02  0.10566000000E+00 0. -1.
         13    1    4    4    0    0  0.24837235991E+01 -0.24985666382E+01 -0.10584678887E+02  0.11156088442E+02  0.10566000000E+00 0.  1.
        -13    1    4    4    0    0  0.12220037517E+02 -0.16456833134E+02 -0.59868760923E+02  0.63280616086E+02  0.10566000000E+00 0.  1.
        -14    1    4    4    0    0  0.79675558983E+01 -0.10594672387E+02 -0.41688612129E+02  0.43745507326E+02  0.00000000000E+00 0.  1.
<mgrwt>
<rscale>  0 0.79557764E+02</rscale>
<asrwt>0</asrwt>
<pdfrwt beam="1">  1        1 0.26247469E-01 0.79557764E+02</pdfrwt>
<pdfrwt beam="2">  1       -2 0.14268917E-02 0.79557764E+02</pdfrwt>
<totfact> 0.16413287E+05</totfact>
</mgrwt>
</event>
<event>
 8    1  0.7756875E-014  0.8013683E+02  0.7818608E-02  0.1328664E+00
         -2   -1    0    0    0  501 -0.00000000000E+00  0.00000000000E+00  0.69416515085E+02  0.69416515132E+02  0.25500000000E-02 0.  1.
          1   -1    0    0  501    0  0.00000000000E+00 -0.00000000000E+00 -0.23128180909E+02  0.23128181458E+02  0.50400000000E-02 0. -1.
        -24    2    1    2    0    0  0.00000000000E+00  0.00000000000E+00  0.46288334176E+02  0.92544696590E+02  0.80136826654E+02 0.  0.
         66    2    3    3    0    0  0.39286604018E+02  0.45013478129E+01  0.30441633207E+02  0.49943892806E+02  0.20000022366E+01 0.  0.
         13    1    3    3    0    0 -0.39286604018E+02 -0.45013478129E+01  0.15846700969E+02  0.42600803784E+02  0.10566000000E+00 0. -1.
         13    1    4    4    0    0  0.89122481404E+01  0.52902355329E+00  0.74587686733E+01  0.11634106197E+02  0.10566000000E+00 0. -1.
        -13    1    4    4    0    0  0.47871108416E+01  0.29014246637E+00  0.37649432311E+01  0.60980795690E+01  0.10566000000E+00 0.  1.
        -14    1    4    4    0    0  0.25587245036E+02  0.36821817933E+01  0.19217921302E+02  0.32211707041E+02  0.00000000000E+00 0.  1.
<mgrwt>
<rscale>  0 0.80136827E+02</rscale>
<asrwt>0</asrwt>
<pdfrwt beam="1">  1        1 0.35581818E-02 0.80136827E+02</pdfrwt>
<pdfrwt beam="2">  1       -2 0.10679464E-01 0.80136827E+02</pdfrwt>
<totfact> 0.11460578E+05</totfact>
</mgrwt>
</event>
<event>
 8    1  0.7756875E-014  0.7979286E+02  0.7818608E-02  0.1329640E+00
          1   -1    0    0  501    0  0.00000000000E+00  0.00000000000E+00  0.17082398349E+02  0.17082399092E+02  0.50400000000E-02 0. -1.
         -2   -1    0    0    0  501 -0.00000000000E+00 -0.00000000000E+00 -0.93179246579E+02  0.93179246613E+02  0.25500000000E-02 0.  1.
        -24    2    1    2    0    0  0.00000000000E+00  0.00000000000E+00 -0.76096848230E+02  0.11026164571E+03  0.79792858096E+02 0.  0.
         66    2    3    3    0    0  0.37582318366E+02 -0.99224428327E+01 -0.50341532419E+02  0.63632974461E+02  0.20000067184E+01 0.  0.
         13    1    3    3    0    0 -0.37582318366E+02  0.99224428327E+01 -0.25755315810E+02  0.46628671245E+02  0.10566000000E+00 0. -1.
         13    1    4    4    0    0  0.13834588385E+02 -0.39049877396E+01 -0.20075344283E+02  0.24691605399E+02  0.10566000000E+00 0. -1.
        -13    1    4    4    0    0  0.11675190638E+02 -0.30442408728E+01 -0.15237024806E+02  0.19435934963E+02  0.10566000000E+00 0.  1.
         14    1    4    4    0    0  0.12072539343E+02 -0.29732142203E+01 -0.15029163330E+02  0.19505434099E+02  0.00000000000E+00 0. -1.
<mgrwt>
<rscale>  0 0.79792858E+02</rscale>
<asrwt>0</asrwt>
<pdfrwt beam="1">  1        1 0.26280614E-02 0.79792858E+02</pdfrwt>
<pdfrwt beam="2">  1       -2 0.14335268E-01 0.79792858E+02</pdfrwt>
<totfact> 0.10868203E+05</totfact>
</mgrwt>
</event>
<event>
 8    1  0.7756875E-014  0.7890423E+02  0.7818608E-02  0.1332190E+00
          1   -1    0    0  501    0  0.00000000000E+00  0.00000000000E+00  0.32472709128E+01  0.32472748241E+01  0.50400000000E-02 0. -1.
         -2   -1    0    0    0  501 -0.00000000000E+00 -0.00000000000E+00 -0.47931583889E+03  0.47931583889E+03  0.25500000000E-02 0.  1.
        -24    2    1    2    0    0  0.00000000000E+00  0.00000000000E+00 -0.47606856797E+03  0.48256311372E+03  0.78904228708E+02 0.  0.
         66    2    3    3    0    0 -0.18238929426E+02 -0.56909910107E+00 -0.45193248239E+03  0.45230515259E+03  0.19999991226E+01 0.  0.
         13    1    3    3    0    0  0.18238929426E+02  0.56909910107E+00 -0.24136085578E+02  0.30257961126E+02  0.10566000000E+00 0. -1.
         13    1    4    4    0    0 -0.28683980993E+01 -0.29243519343E+00 -0.66394882545E+02  0.66457541469E+02  0.10566000000E+00 0. -1.
        -13    1    4    4    0    0 -0.10020107680E+02  0.35032266339E+00 -0.23559094958E+03  0.23580422382E+03  0.10566000000E+00 0.  1.
         14    1    4    4    0    0 -0.53504236476E+01 -0.62698657104E+00 -0.14994665027E+03  0.15004338730E+03  0.00000000000E+00 0. -1.
<mgrwt>
<rscale>  0 0.78904229E+02</rscale>
<asrwt>0</asrwt>
<pdfrwt beam="1">  1        1 0.49958082E-03 0.78904229E+02</pdfrwt>
<pdfrwt beam="2">  1       -2 0.73740842E-01 0.78904229E+02</pdfrwt>
<totfact> 0.53911298E+04</totfact>
</mgrwt>
</event>
<event>
 8    1  0.7756875E-014  0.7972661E+02  0.7818608E-02  0.1329829E+00
          1   -1    0    0  501    0  0.00000000000E+00  0.00000000000E+00  0.43842582818E+03  0.43842582821E+03  0.50400000000E-02 0. -1.
         -2   -1    0    0    0  501 -0.00000000000E+00 -0.00000000000E+00 -0.36245196275E+01  0.36245205245E+01  0.25500000000E-02 0.  1.
        -24    2    1    2    0    0  0.35527136788E-14  0.00000000000E+00  0.43480130855E+03  0.44205034873E+03  0.79726613477E+02 0.  0.
         66    2    3    3    0    0 -0.22743516915E+02  0.29127023326E+02  0.30004277572E+03  0.30231658622E+03  0.19999988957E+01 0.  0.
         13    1    3    3    0    0  0.22743516915E+02 -0.29127023326E+02  0.13475853283E+03  0.13973376251E+03  0.10566000000E+00 0. -1.
         13    1    4    4    0    0 -0.88722459503E+01  0.12086443790E+02  0.11583367449E+03  0.11680004358E+03  0.10566000000E+00 0. -1.
        -13    1    4    4    0    0 -0.13288455407E+02  0.16545617888E+02  0.17791157231E+03  0.17917276368E+03  0.10566000000E+00 0.  1.
        -14    1    4    4    0    0 -0.58281555772E+00  0.49496164772E+00  0.62975289170E+01  0.63437789580E+01  0.00000000000E+00 0.  1.
<mgrwt>
<rscale>  0 0.79726613E+02</rscale>
<asrwt>0</asrwt>
<pdfrwt beam="1">  1        1 0.67450113E-01 0.79726613E+02</pdfrwt>
<pdfrwt beam="2">  1       -2 0.55761859E-03 0.79726613E+02</pdfrwt>
<totfact> 0.19440947E+05</totfact>
</mgrwt>
</event>
<event>
 8    1  0.7756875E-014  0.8180453E+02  0.7818608E-02  0.1324007E+00
         -2   -1    0    0    0  501 -0.00000000000E+00  0.00000000000E+00  0.26738989556E+02  0.26738989678E+02  0.25500000000E-02 0.  1.
          1   -1    0    0  501    0  0.00000000000E+00 -0.00000000000E+00 -0.62567637157E+02  0.62567637360E+02  0.50400000000E-02 0. -1.
        -24    2    1    2    0    0  0.22204460493E-15  0.00000000000E+00 -0.35828647601E+02  0.89306627038E+02  0.81804533151E+02 0.  0.
         66    2    3    3    0    0 -0.68714236621E+00  0.16233019118E+02  0.23025054114E+02  0.28251304224E+02  0.19999997669E+01 0.  0.
         13    1    3    3    0    0  0.68714236621E+00 -0.16233019118E+02 -0.58853701715E+02  0.61055322814E+02  0.10566000000E+00 0. -1.
         13    1    4    4    0    0  0.34943555181E+00  0.92668604241E+01  0.12727281695E+02  0.15747751291E+02  0.10566000000E+00 0. -1.
        -13    1    4    4    0    0 -0.62209236448E+00  0.37770099582E+01  0.48788464662E+01  0.62021859059E+01  0.10566000000E+00 0.  1.
         14    1    4    4    0    0 -0.41448555355E+00  0.31891487361E+01  0.54189259529E+01  0.63013670277E+01  0.00000000000E+00 0. -1.
<mgrwt>
<rscale>  0 0.81804533E+02</rscale>
<asrwt>0</asrwt>
<pdfrwt beam="1">  1        1 0.96257904E-02 0.81804533E+02</pdfrwt>
<pdfrwt beam="2">  1       -2 0.41136907E-02 0.81804533E+02</pdfrwt>
<totfact> 0.12815097E+05</totfact>
</mgrwt>
</event>
<event>
 8    1  0.7756875E-014  0.7882052E+02  0.7818608E-02  0.1332432E+00
         -2   -1    0    0    0  501 -0.00000000000E+00  0.00000000000E+00  0.87435265293E+02  0.87435265330E+02  0.25500000000E-02 0.  1.
          1   -1    0    0  501    0  0.00000000000E+00 -0.00000000000E+00 -0.17763641083E+02  0.17763641798E+02  0.50400000000E-02 0. -1.
        -24    2    1    2    0    0 -0.35527136788E-14  0.00000000000E+00  0.69671624210E+02  0.10519890713E+03  0.78820522967E+02 0.  0.
         66    2    3    3    0    0  0.31362777925E+02  0.20103574421E+02  0.51918202126E+02  0.63931817294E+02  0.20000016984E+01 0.  0.
         13    1    3    3    0    0 -0.31362777925E+02 -0.20103574421E+02  0.17753422084E+02  0.41267089834E+02  0.10566000000E+00 0. -1.
         13    1    4    4    0    0  0.23369770969E+02  0.13984233519E+02  0.37976788147E+02  0.46732778478E+02  0.10566000000E+00 0. -1.
        -13    1    4    4    0    0  0.19066275238E+01  0.15635022254E+01  0.35384663092E+01  0.43141251234E+01  0.10566000000E+00 0.  1.
         14    1    4    4    0    0  0.60863794320E+01  0.45558386768E+01  0.10402947670E+02  0.12884913692E+02  0.00000000000E+00 0. -1.
<mgrwt>
<rscale>  0 0.78820523E+02</rscale>
<asrwt>0</asrwt>
<pdfrwt beam="1">  1        1 0.27328679E-02 0.78820523E+02</pdfrwt>
<pdfrwt beam="2">  1       -2 0.13451580E-01 0.78820523E+02</pdfrwt>
<totfact> 0.11380982E+05</totfact>
</mgrwt>
</event>
<event>
 8    1  0.7756875E-014  0.7947736E+02  0.7818608E-02  0.1330541E+00
          1   -1    0    0  501    0  0.00000000000E+00  0.00000000000E+00  0.49648686284E+02  0.49648686540E+02  0.50400000000E-02 0. -1.
         -2   -1    0    0    0  501 -0.00000000000E+00 -0.00000000000E+00 -0.31806739970E+02  0.31806740072E+02  0.25500000000E-02 0.  1.
        -24    2    1    2    0    0  0.00000000000E+00  0.00000000000E+00  0.17841946315E+02  0.81455426612E+02  0.79477364553E+02 0.  0.
         66    2    3    3    0    0  0.31225291049E+02 -0.64454375434E+00 -0.16213963198E+02  0.35246657157E+02  0.20000000935E+01 0.  0.
         13    1    3    3    0    0 -0.31225291049E+02  0.64454375434E+00  0.34055909513E+02  0.46208769455E+02  0.10566000000E+00 0. -1.
         13    1    4    4    0    0  0.80615845554E+01 -0.19252173288E+00 -0.38440472415E+01  0.89338722507E+01  0.10566000000E+00 0. -1.
        -13    1    4    4    0    0  0.10819222515E+02 -0.10056559165E+01 -0.56938956316E+01  0.12267784280E+02  0.10566000000E+00 0.  1.
         14    1    4    4    0    0  0.12344483979E+02  0.55363389508E+00 -0.66760203252E+01  0.14045000626E+02  0.00000000000E+00 0. -1.
<mgrwt>
<rscale>  0 0.79477365E+02</rscale>
<asrwt>0</asrwt>
<pdfrwt beam="1">  1        1 0.76382595E-02 0.79477365E+02</pdfrwt>
<pdfrwt beam="2">  1       -2 0.48933446E-02 0.79477365E+02</pdfrwt>
<totfact> 0.13384290E+05</totfact>
</mgrwt>
</event>
<event>
 8    1  0.7756875E-014  0.7962571E+02  0.7818608E-02  0.1330117E+00
          1   -1    0    0  501    0  0.00000000000E+00  0.00000000000E+00  0.35928238314E+02  0.35928238668E+02  0.50400000000E-02 0. -1.
         -2   -1    0    0    0  501 -0.00000000000E+00 -0.00000000000E+00 -0.44117485528E+02  0.44117485602E+02  0.25500000000E-02 0.  1.
        -24    2    1    2    0    0 -0.35527136788E-14  0.35527136788E-14 -0.81892472139E+01  0.80045724270E+02  0.79625713209E+02 0.  0.
         66    2    3    3    0    0 -0.25799783824E+02  0.30037769751E+02 -0.80115983550E+01  0.40448512498E+02  0.19999995198E+01 0.  0.
         13    1    3    3    0    0  0.25799783824E+02 -0.30037769751E+02 -0.17764885887E+00  0.39597211772E+02  0.10566000000E+00 0. -1.
         13    1    4    4    0    0 -0.13997994145E+02  0.15190750679E+02 -0.36226029231E+01  0.20972295111E+02  0.10566000000E+00 0. -1.
        -13    1    4    4    0    0 -0.48792203386E+01  0.63777206091E+01 -0.16171286565E+01  0.81919704838E+01  0.10566000000E+00 0.  1.
         14    1    4    4    0    0 -0.69225693405E+01  0.84692984638E+01 -0.27718667753E+01  0.11284246903E+02  0.00000000000E+00 0. -1.
<mgrwt>
<rscale>  0 0.79625713E+02</rscale>
<asrwt>0</asrwt>
<pdfrwt beam="1">  1        1 0.55274213E-02 0.79625713E+02</pdfrwt>
<pdfrwt beam="2">  1       -2 0.67873055E-02 0.79625713E+02</pdfrwt>
<totfact> 0.12642117E+05</totfact>
</mgrwt>
</event>
<event>
 8    1  0.7756875E-014  0.8255132E+02  0.7818608E-02  0.1321963E+00
          1   -1    0    0  501    0  0.00000000000E+00  0.00000000000E+00  0.69906788391E+02  0.69906788573E+02  0.50400000000E-02 0. -1.
         -2   -1    0    0    0  501 -0.00000000000E+00 -0.00000000000E+00 -0.24370738766E+02  0.24370738900E+02  0.25500000000E-02 0.  1.
        -24    2    1    2    0    0  0.00000000000E+00  0.00000000000E+00  0.45536049625E+02  0.94277527473E+02  0.82551319619E+02 0.  0.
         66    2    3    3    0    0  0.33467444149E+02 -0.22662598242E+02  0.32199741265E+02  0.51715437984E+02  0.20000028550E+01 0.  0.
         13    1    3    3    0    0 -0.33467444149E+02  0.22662598242E+02  0.13336308360E+02  0.42562089489E+02  0.10566000000E+00 0. -1.
         13    1    4    4    0    0  0.20034844149E+01 -0.97148951756E+00  0.14490184149E+01  0.26586763785E+01  0.10566000000E+00 0. -1.
        -13    1    4    4    0    0  0.17566698545E+02 -0.12243159933E+02  0.17634314910E+02  0.27739215730E+02  0.10566000000E+00 0.  1.
         14    1    4    4    0    0  0.13897261189E+02 -0.94479487912E+01  0.13116407940E+02  0.21317545876E+02  0.00000000000E+00 0. -1.
<mgrwt>
<rscale>  0 0.82551320E+02</rscale>
<asrwt>0</asrwt>
<pdfrwt beam="1">  1        1 0.10754891E-01 0.82551320E+02</pdfrwt>
<pdfrwt beam="2">  1       -2 0.37493444E-02 0.82551320E+02</pdfrwt>
<totfact> 0.12722819E+05</totfact>
</mgrwt>
</event>
<event>
 8    1  0.7756875E-014  0.7738023E+02  0.7818608E-02  0.1336655E+00
         -2   -1    0    0    0  501 -0.00000000000E+00  0.00000000000E+00  0.69124924991E+02  0.69124925038E+02  0.25500000000E-02 0.  1.
          1   -1    0    0  501    0  0.00000000000E+00 -0.00000000000E+00 -0.21655357738E+02  0.21655358325E+02  0.50400000000E-02 0. -1.
        -24    2    1    2    0    0  0.00000000000E+00  0.00000000000E+00  0.47469567253E+02  0.90780283362E+02  0.77380230241E+02 0.  0.
         66    2    3    3    0    0  0.24713165716E+02  0.90671900468E+01  0.56973636277E+02  0.62792911440E+02  0.20000003550E+01 0.  0.
         13    1    3    3    0    0 -0.24713165716E+02 -0.90671900468E+01 -0.95040690244E+01  0.27987371922E+02  0.10566000000E+00 0. -1.
         13    1    4    4    0    0  0.95480382787E+01  0.34919887321E+01  0.20395446292E+02  0.22789129289E+02  0.10566000000E+00 0. -1.
        -13    1    4    4    0    0  0.29896878061E+00  0.19111765970E+00  0.60593753009E+00  0.71009338653E+00  0.10566000000E+00 0. -1.
        -14    1    4    4    0    0  0.14866158657E+02  0.53840836550E+01  0.35972252455E+02  0.39293688764E+02  0.00000000000E+00 0.  1.
<mgrwt>
<rscale>  0 0.77380230E+02</rscale>
<asrwt>0</asrwt>
<pdfrwt beam="1">  1        1 0.33315935E-02 0.77380230E+02</pdfrwt>
<pdfrwt beam="2">  1       -2 0.10634604E-01 0.77380230E+02</pdfrwt>
<totfact> 0.12536047E+05</totfact>
</mgrwt>
</event>
<event>
 8    1  0.7756875E-014  0.7631439E+02  0.7818608E-02  0.1339848E+00
          1   -1    0    0  501    0  0.00000000000E+00  0.00000000000E+00  0.17023145868E+02  0.17023146614E+02  0.50400000000E-02 0. -1.
         -2   -1    0    0    0  501 -0.00000000000E+00 -0.00000000000E+00 -0.85528934926E+02  0.85528934964E+02  0.25500000000E-02 0.  1.
        -24    2    1    2    0    0  0.00000000000E+00  0.00000000000E+00 -0.68505789057E+02  0.10255208158E+03  0.76314391183E+02 0.  0.
         66    2    3    3    0    0 -0.27253491703E+01 -0.29333654009E+02 -0.66808669317E+02  0.73043063209E+02  0.20000003572E+01 0.  0.
         13    1    3    3    0    0  0.27253491703E+01  0.29333654009E+02 -0.16971197398E+01  0.29509018368E+02  0.10566000000E+00 0. -1.
         13    1    4    4    0    0  0.13651546049E+00 -0.76354604160E+01 -0.17442802660E+02  0.19041570862E+02  0.10566000000E+00 0. -1.
        -13    1    4    4    0    0 -0.21197086511E+01 -0.16164701456E+02 -0.37192217982E+02  0.40608656471E+02  0.10566000000E+00 0.  1.
         14    1    4    4    0    0 -0.74215597971E+00 -0.55334921374E+01 -0.12173648675E+02  0.13392835876E+02  0.00000000000E+00 0. -1.
<mgrwt>
<rscale>  0 0.76314391E+02</rscale>
<asrwt>0</asrwt>
<pdfrwt beam="1">  1        1 0.26189456E-02 0.76314391E+02</pdfrwt>
<pdfrwt beam="2">  1       -2 0.13158297E-01 0.76314391E+02</pdfrwt>
<totfact> 0.12419826E+05</totfact>
</mgrwt>
</event>
<event>
 8    1  0.7756875E-014  0.7950249E+02  0.7818608E-02  0.1330469E+00
          1   -1    0    0  501    0  0.00000000000E+00  0.00000000000E+00  0.21353390117E+02  0.21353390711E+02  0.50400000000E-02 0. -1.
         -2   -1    0    0    0  501 -0.00000000000E+00 -0.00000000000E+00 -0.74000492933E+02  0.74000492977E+02  0.25500000000E-02 0.  1.
        -24    2    1    2    0    0 -0.17763568394E-14  0.17763568394E-14 -0.52647102816E+02  0.95353883688E+02  0.79502488637E+02 0.  0.
         66    2    3    3    0    0 -0.13922330953E+02 -0.10228588297E+02 -0.69245562637E+02  0.71396101024E+02  0.19999947251E+01 0.  0.
         13    1    3    3    0    0  0.13922330953E+02  0.10228588297E+02  0.16598459820E+02  0.23957782664E+02  0.10566000000E+00 0. -1.
         13    1    4    4    0    0 -0.35432831421E+00 -0.12140644221E+00 -0.10019549043E+01  0.10748794092E+01  0.10566000000E+00 0. -1.
        -13    1    4    4    0    0 -0.33575933033E+01 -0.28612317270E+01 -0.19812723415E+02  0.20298158856E+02  0.10566000000E+00 0.  1.
        -14    1    4    4    0    0 -0.10210409336E+02 -0.72459501274E+01 -0.48430884317E+02  0.50023062759E+02  0.00000000000E+00 0.  1.
<mgrwt>
<rscale>  0 0.79502489E+02</rscale>
<asrwt>0</asrwt>
<pdfrwt beam="1">  1        1 0.32851370E-02 0.79502489E+02</pdfrwt>
<pdfrwt beam="2">  1       -2 0.11384691E-01 0.79502489E+02</pdfrwt>
<totfact> 0.11543399E+05</totfact>
</mgrwt>
</event>
<event>
 8    1  0.7756875E-014  0.8173596E+02  0.7818608E-02  0.1324196E+00
          1   -1    0    0  501    0  0.00000000000E+00  0.00000000000E+00  0.44918641289E+02  0.44918641572E+02  0.50400000000E-02 0. -1.
         -2   -1    0    0    0  501 -0.00000000000E+00 -0.00000000000E+00 -0.37182600444E+02  0.37182600531E+02  0.25500000000E-02 0.  1.
        -24    2    1    2    0    0  0.00000000000E+00  0.35527136788E-14  0.77360408454E+01  0.82101242103E+02  0.81735962873E+02 0.  0.
         66    2    3    3    0    0 -0.99846360039E+01  0.24326386749E+02 -0.27521872020E+02  0.38117180989E+02  0.19999996782E+01 0.  0.
         13    1    3    3    0    0  0.99846360039E+01 -0.24326386749E+02  0.35257912865E+02  0.43984061113E+02  0.10566000000E+00 0. -1.
         13    1    4    4    0    0 -0.27408433192E+01  0.71410313085E+01 -0.70389379048E+01  0.10395400960E+02  0.10566000000E+00 0. -1.
        -13    1    4    4    0    0 -0.43328918095E+01  0.91050697083E+01 -0.11451798850E+02  0.15258804238E+02  0.10566000000E+00 0.  1.
        -14    1    4    4    0    0 -0.29109008752E+01  0.80802857323E+01 -0.90311352644E+01  0.12462975792E+02  0.00000000000E+00 0.  1.
<mgrwt>
<rscale>  0 0.81735963E+02</rscale>
<asrwt>0</asrwt>
<pdfrwt beam="1">  1        1 0.69105602E-02 0.81735963E+02</pdfrwt>
<pdfrwt beam="2">  1       -2 0.57204001E-02 0.81735963E+02</pdfrwt>
<totfact> 0.12180614E+05</totfact>
</mgrwt>
</event>
<event>
 8    1  0.1009717E-013  0.6960217E+02  0.7818608E-02  0.1361451E+00
         -2   -1    0    0    0  501 -0.00000000000E+00  0.00000000000E+00  0.40051986615E+02  0.40051986696E+02  0.25500000000E-02 0.  1.
          1   -1    0    0  501    0  0.00000000000E+00 -0.00000000000E+00 -0.30238586732E+02  0.30238587152E+02  0.50400000000E-02 0. -1.
        -24    2    1    2    0    0  0.00000000000E+00 -0.88817841970E-15  0.98133998836E+01  0.70290573848E+02  0.69602169180E+02 0.  0.
         66    2    3    3    0    0 -0.19790947391E+02 -0.73922789824E+01  0.32802435417E+02  0.39068237197E+02  0.20000002992E+01 0.  0.
         13    1    3    3    0    0  0.19790947391E+02  0.73922789824E+01 -0.22989035533E+02  0.31222336651E+02  0.10566000000E+00 0. -1.
         13    1    4    4    0    0 -0.82193580238E+01 -0.26518507620E+01  0.13040832040E+02  0.15641758952E+02  0.10566000000E+00 0. -1.
        -13    1    4    4    0    0 -0.97525938022E+01 -0.34288262035E+01  0.16250447649E+02  0.19260273826E+02  0.10566000000E+00 0.  1.
         14    1    4    4    0    0 -0.18189955652E+01 -0.13116020169E+01  0.35111557276E+01  0.41662044189E+01  0.00000000000E+00 0. -1.
<mgrwt>
<rscale>  0 0.69602169E+02</rscale>
<asrwt>0</asrwt>
<pdfrwt beam="1">  1        1 0.46520904E-02 0.69602169E+02</pdfrwt>
<pdfrwt beam="2">  1       -2 0.61618441E-02 0.69602169E+02</pdfrwt>
<totfact> 0.17954268E+05</totfact>
</mgrwt>
</event>
<event>
 8    1  0.7756875E-014  0.7837428E+02  0.7818608E-02  0.1333729E+00
          1   -1    0    0  501    0  0.00000000000E+00  0.00000000000E+00  0.75160179380E+02  0.75160179549E+02  0.50400000000E-02 0. -1.
         -2   -1    0    0    0  501 -0.00000000000E+00 -0.00000000000E+00 -0.20431457886E+02  0.20431458045E+02  0.25500000000E-02 0.  1.
        -24    2    1    2    0    0  0.17763568394E-14  0.00000000000E+00  0.54728721494E+02  0.95591637594E+02  0.78374282909E+02 0.  0.
         66    2    3    3    0    0  0.76187940210E+01 -0.31477202489E+02  0.52789676253E+00  0.32452102717E+02  0.19999992195E+01 0.  0.
         13    1    3    3    0    0 -0.76187940210E+01  0.31477202489E+02  0.54200824732E+02  0.63139534877E+02  0.10566000000E+00 0. -1.
         13    1    4    4    0    0  0.22765388942E+01 -0.90248359412E+01 -0.25391064444E+00  0.93116017824E+01  0.10566000000E+00 0.  1.
        -13    1    4    4    0    0  0.12885866408E+01 -0.41974143848E+01  0.65399054596E+00  0.44404516345E+01  0.10566000000E+00 0. -1.
        -14    1    4    4    0    0  0.40536684860E+01 -0.18254952163E+02  0.12781686101E+00  0.18700049300E+02  0.00000000000E+00 0.  1.
<mgrwt>
<rscale>  0 0.78374283E+02</rscale>
<asrwt>0</asrwt>
<pdfrwt beam="1">  1        1 0.11563105E-01 0.78374283E+02</pdfrwt>
<pdfrwt beam="2">  1       -2 0.31433012E-02 0.78374283E+02</pdfrwt>
<totfact> 0.14835894E+05</totfact>
</mgrwt>
</event>
<event>
 8    1  0.7756875E-014  0.8249976E+02  0.7818608E-02  0.1322103E+00
          1   -1    0    0  501    0  0.00000000000E+00  0.00000000000E+00  0.52733292043E+02  0.52733292284E+02  0.50400000000E-02 0. -1.
         -2   -1    0    0    0  501 -0.00000000000E+00 -0.00000000000E+00 -0.32267144921E+02  0.32267145022E+02  0.25500000000E-02 0.  1.
        -24    2    1    2    0    0  0.00000000000E+00  0.00000000000E+00  0.20466147122E+02  0.85000437307E+02  0.82499764632E+02 0.  0.
         66    2    3    3    0    0  0.12712955029E+02 -0.35972497092E+00 -0.30164361559E+02  0.32796910597E+02  0.20000022099E+01 0.  0.
         13    1    3    3    0    0 -0.12712955029E+02  0.35972497092E+00  0.50630508681E+02  0.52203526710E+02  0.10566000000E+00 0. -1.
         13    1    4    4    0    0  0.41089632763E+01 -0.22209052065E+00 -0.11199881270E+02  0.11932368076E+02  0.10566000000E+00 0. -1.
        -13    1    4    4    0    0  0.81167333753E+01 -0.34951403903E+00 -0.17212826755E+02  0.19034077064E+02  0.10566000000E+00 0.  1.
        -14    1    4    4    0    0  0.48725837735E+00  0.21187958876E+00 -0.17516535333E+01  0.18304654565E+01  0.00000000000E+00 0.  1.
<mgrwt>
<rscale>  0 0.82499765E+02</rscale>
<asrwt>0</asrwt>
<pdfrwt beam="1">  1        1 0.81128142E-02 0.82499765E+02</pdfrwt>
<pdfrwt beam="2">  1       -2 0.49641762E-02 0.82499765E+02</pdfrwt>
<totfact> 0.12179364E+05</totfact>
</mgrwt>
</event>
<event>
 8    1  0.7756875E-014  0.7581855E+02  0.7818608E-02  0.1341355E+00
         -2   -1    0    0    0  501 -0.00000000000E+00  0.00000000000E+00  0.36154692999E+01  0.36154701992E+01  0.25500000000E-02 0.  1.
          1   -1    0    0  501    0  0.00000000000E+00 -0.00000000000E+00 -0.39749005271E+03  0.39749005274E+03  0.50400000000E-02 0. -1.
        -24    2    1    2    0    0  0.88817841970E-15 -0.71054273576E-14 -0.39387458341E+03  0.40110552294E+03  0.75818553649E+02 0.  0.
         66    2    3    3    0    0  0.60561900769E+01 -0.36615346219E+02 -0.23727609041E+03  0.24016932381E+03  0.20000005029E+01 0.  0.
         13    1    3    3    0    0 -0.60561900769E+01  0.36615346219E+02 -0.15659849300E+03  0.16093619914E+03  0.10566000000E+00 0. -1.
         13    1    4    4    0    0  0.11773258881E+00 -0.78820696221E+00 -0.64434615289E+01  0.64934191061E+01  0.10566000000E+00 0. -1.
        -13    1    4    4    0    0  0.22108663040E+01 -0.10631350640E+02 -0.71829846488E+02  0.72646070484E+02  0.10566000000E+00 0.  1.
         14    1    4    4    0    0  0.37275911841E+01 -0.25195788616E+02 -0.15900278239E+03  0.16102983422E+03  0.00000000000E+00 0. -1.
<mgrwt>
<rscale>  0 0.75818554E+02</rscale>
<asrwt>0</asrwt>
<pdfrwt beam="1">  1        1 0.61152281E-01 0.75818554E+02</pdfrwt>
<pdfrwt beam="2">  1       -2 0.55622643E-03 0.75818554E+02</pdfrwt>
<totfact> 0.21838495E+05</totfact>
</mgrwt>
</event>
<event>
 8    1  0.7756875E-014  0.8019679E+02  0.7818608E-02  0.1328494E+00
         -2   -1    0    0    0  501 -0.00000000000E+00  0.00000000000E+00  0.44892399374E+02  0.44892399447E+02  0.25500000000E-02 0.  1.
          1   -1    0    0  501    0  0.00000000000E+00 -0.00000000000E+00 -0.35816332353E+02  0.35816332707E+02  0.50400000000E-02 0. -1.
        -24    2    1    2    0    0  0.35527136788E-14  0.71054273576E-14  0.90760670216E+01  0.80708732154E+02  0.80196785804E+02 0.  0.
         66    2    3    3    0    0 -0.20797622813E+02 -0.21814865698E+02 -0.22036954246E+02  0.37390598116E+02  0.19999987256E+01 0.  0.
         13    1    3    3    0    0  0.20797622813E+02  0.21814865698E+02  0.31113021268E+02  0.43318134038E+02  0.10566000000E+00 0. -1.
         13    1    4    4    0    0 -0.18619559718E+01 -0.24474347153E+01 -0.16992138602E+01  0.35150118784E+01  0.10566000000E+00 0. -1.
        -13    1    4    4    0    0 -0.16756202362E+02 -0.16902900864E+02 -0.17830798922E+02  0.29739316224E+02  0.10566000000E+00 0.  1.
         14    1    4    4    0    0 -0.21794644786E+01 -0.24645301189E+01 -0.25069414642E+01  0.41362700136E+01  0.00000000000E+00 0. -1.
<mgrwt>
<rscale>  0 0.80196786E+02</rscale>
<asrwt>0</asrwt>
<pdfrwt beam="1">  1        1 0.55102051E-02 0.80196786E+02</pdfrwt>
<pdfrwt beam="2">  1       -2 0.69065230E-02 0.80196786E+02</pdfrwt>
<totfact> 0.12381944E+05</totfact>
</mgrwt>
</event>
<event>
 8    1  0.7756875E-014  0.7847916E+02  0.7818608E-02  0.1333424E+00
         -2   -1    0    0    0  501 -0.00000000000E+00  0.00000000000E+00  0.73805217137E+02  0.73805217181E+02  0.25500000000E-02 0.  1.
          1   -1    0    0  501    0  0.00000000000E+00 -0.00000000000E+00 -0.20862271709E+02  0.20862272317E+02  0.50400000000E-02 0. -1.
        -24    2    1    2    0    0  0.35527136788E-14 -0.17763568394E-14  0.52942945429E+02  0.94667489499E+02  0.78479157088E+02 0.  0.
         66    2    3    3    0    0  0.29025730823E+02 -0.10268752326E+02  0.55783963628E+02  0.63747869958E+02  0.20000004929E+01 0.  0.
         13    1    3    3    0    0 -0.29025730823E+02  0.10268752326E+02 -0.28410181991E+01  0.30919619541E+02  0.10566000000E+00 0. -1.
         13    1    4    4    0    0  0.47860255401E+01 -0.20673935376E+01  0.98646622783E+01  0.11158085965E+02  0.10566000000E+00 0. -1.
        -13    1    4    4    0    0  0.19898489099E+02 -0.67763300075E+01  0.36489236678E+02  0.42111092056E+02  0.10566000000E+00 0.  1.
        -14    1    4    4    0    0  0.43412161836E+01 -0.14250287814E+01  0.94300646718E+01  0.10478691936E+02  0.00000000000E+00 0.  1.
<mgrwt>
<rscale>  0 0.78479157E+02</rscale>
<asrwt>0</asrwt>
<pdfrwt beam="1">  1        1 0.32095804E-02 0.78479157E+02</pdfrwt>
<pdfrwt beam="2">  1       -2 0.11354649E-01 0.78479157E+02</pdfrwt>
<totfact> 0.11936491E+05</totfact>
</mgrwt>
</event>
<event>
 8    1  0.7756875E-014  0.7964565E+02  0.7818608E-02  0.1330060E+00
          1   -1    0    0  501    0  0.00000000000E+00  0.00000000000E+00  0.28876534016E+03  0.28876534020E+03  0.50400000000E-02 0. -1.
         -2   -1    0    0    0  501 -0.00000000000E+00 -0.00000000000E+00 -0.54918542021E+01  0.54918547941E+01  0.25500000000E-02 0.  1.
        -24    2    1    2    0    0 -0.71054273576E-14  0.00000000000E+00  0.28327348595E+03  0.29425719499E+03  0.79645646217E+02 0.  0.
         66    2    3    3    0    0 -0.38858771049E+02 -0.27907058954E+01  0.11169722171E+03  0.11831340357E+03  0.19999995896E+01 0.  0.
         13    1    3    3    0    0  0.38858771049E+02  0.27907058954E+01  0.17157626424E+03  0.17594379143E+03  0.10566000000E+00 0. -1.
         13    1    4    4    0    0 -0.24458635677E+01 -0.51167923565E+00  0.62166760065E+01  0.67009170147E+01  0.10566000000E+00 0. -1.
        -13    1    4    4    0    0 -0.18967736011E+02 -0.12907142169E+01  0.55283646761E+02  0.58461386537E+02  0.10566000000E+00 0.  1.
         14    1    4    4    0    0 -0.17445171470E+02 -0.98831244286E+00  0.50196898944E+02  0.53151100014E+02  0.00000000000E+00 0. -1.
<mgrwt>
<rscale>  0 0.79645646E+02</rscale>
<asrwt>0</asrwt>
<pdfrwt beam="1">  1        1 0.44425431E-01 0.79645646E+02</pdfrwt>
<pdfrwt beam="2">  1       -2 0.84490081E-03 0.79645646E+02</pdfrwt>
<totfact> 0.18121231E+05</totfact>
</mgrwt>
</event>
<event>
 8    1  0.7756875E-014  0.8093579E+02  0.7818608E-02  0.1326417E+00
          1   -1    0    0  501    0  0.00000000000E+00  0.00000000000E+00  0.23495649739E+02  0.23495650279E+02  0.50400000000E-02 0. -1.
         -2   -1    0    0    0  501 -0.00000000000E+00 -0.00000000000E+00 -0.69700164270E+02  0.69700164317E+02  0.25500000000E-02 0.  1.
        -24    2    1    2    0    0  0.00000000000E+00 -0.88817841970E-15 -0.46204514532E+02  0.93195814596E+02  0.80935793658E+02 0.  0.
         66    2    3    3    0    0  0.34634816025E+02 -0.53678662124E+01 -0.46353980586E+02  0.58147020424E+02  0.19999998017E+01 0.  0.
         13    1    3    3    0    0 -0.34634816025E+02  0.53678662124E+01  0.14946605471E+00  0.35048794172E+02  0.10566000000E+00 0. -1.
         13    1    4    4    0    0  0.11601465133E+02 -0.23636488089E+01 -0.15447477212E+02  0.19463210043E+02  0.10566000000E+00 0. -1.
        -13    1    4    4    0    0  0.12783599459E+02 -0.21669080670E+01 -0.17899770890E+02  0.22102689149E+02  0.10566000000E+00 0.  1.
         14    1    4    4    0    0  0.10249751433E+02 -0.83730933651E+00 -0.13006732485E+02  0.16581121231E+02  0.00000000000E+00 0. -1.
<mgrwt>
<rscale>  0 0.80935794E+02</rscale>
<asrwt>0</asrwt>
<pdfrwt beam="1">  1        1 0.36147154E-02 0.80935794E+02</pdfrwt>
<pdfrwt beam="2">  1       -2 0.10723102E-01 0.80935794E+02</pdfrwt>
<totfact> 0.11166247E+05</totfact>
</mgrwt>
</event>
<event>
 8    1  0.7756875E-014  0.8168522E+02  0.7818608E-02  0.1324336E+00
         -2   -1    0    0    0  501 -0.00000000000E+00  0.00000000000E+00  0.10150260779E+02  0.10150261099E+02  0.25500000000E-02 0.  1.
          1   -1    0    0  501    0  0.00000000000E+00 -0.00000000000E+00 -0.16434244614E+03  0.16434244622E+03  0.50400000000E-02 0. -1.
        -24    2    1    2    0    0  0.00000000000E+00  0.00000000000E+00 -0.15419218536E+03  0.17449270732E+03  0.81685218247E+02 0.  0.
         66    2    3    3    0    0 -0.10815387784E+02 -0.26326905135E+02 -0.14642238987E+02  0.32069825573E+02  0.20000007005E+01 0.  0.
         13    1    3    3    0    0  0.10815387784E+02  0.26326905135E+02 -0.13954994637E+03  0.14242288174E+03  0.10566000000E+00 0. -1.
         13    1    4    4    0    0 -0.95462753071E-01 -0.64767673053E+00 -0.10452594885E+00  0.67133299791E+00  0.10566000000E+00 0.  1.
        -13    1    4    4    0    0 -0.79996786712E+01 -0.19252608572E+02 -0.10695885781E+02  0.23432262638E+02  0.10566000000E+00 0.  1.
        -14    1    4    4    0    0 -0.27202463595E+01 -0.64266198331E+01 -0.38418272565E+01  0.79662299367E+01  0.00000000000E+00 0.  1.
<mgrwt>
<rscale>  0 0.81685218E+02</rscale>
<asrwt>0</asrwt>
<pdfrwt beam="1">  1        1 0.25283451E-01 0.81685218E+02</pdfrwt>
<pdfrwt beam="2">  1       -2 0.15615787E-02 0.81685218E+02</pdfrwt>
<totfact> 0.15189842E+05</totfact>
</mgrwt>
</event>
<event>
 8    1  0.7756875E-014  0.7898047E+02  0.7818608E-02  0.1331970E+00
         -2   -1    0    0    0  501 -0.00000000000E+00  0.00000000000E+00  0.80422342483E+01  0.80422346525E+01  0.25500000000E-02 0.  1.
          1   -1    0    0  501    0  0.00000000000E+00 -0.00000000000E+00 -0.19391109715E+03  0.19391109721E+03  0.50400000000E-02 0. -1.
        -24    2    1    2    0    0 -0.35527136788E-14  0.71054273576E-14 -0.18586886290E+03  0.20195333186E+03  0.78980466295E+02 0.  0.
         66    2    3    3    0    0  0.24580848862E+02 -0.30463378642E+02 -0.80148124062E+02  0.89218592972E+02  0.19999930442E+01 0.  0.
         13    1    3    3    0    0 -0.24580848862E+02  0.30463378642E+02 -0.10572073884E+03  0.11273473889E+03  0.10566000000E+00 0. -1.
         13    1    4    4    0    0  0.40154226747E+01 -0.54392876462E+01 -0.14690341605E+02  0.16171789321E+02  0.10566000000E+00 0. -1.
        -13    1    4    4    0    0  0.13623218017E+02 -0.15517933755E+02 -0.41701381120E+02  0.46534016466E+02  0.10566000000E+00 0.  1.
        -14    1    4    4    0    0  0.69422081699E+01 -0.95061572414E+01 -0.23756401338E+02  0.26512787184E+02  0.00000000000E+00 0.  1.
<mgrwt>
<rscale>  0 0.78980466E+02</rscale>
<asrwt>0</asrwt>
<pdfrwt beam="1">  1        1 0.29832473E-01 0.78980466E+02</pdfrwt>
<pdfrwt beam="2">  1       -2 0.12372670E-02 0.78980466E+02</pdfrwt>
<totfact> 0.17148401E+05</totfact>
</mgrwt>
</event>
<event>
 8    1  0.7756875E-014  0.8125595E+02  0.7818608E-02  0.1325525E+00
         -2   -1    0    0    0  501 -0.00000000000E+00  0.00000000000E+00  0.18534624708E+03  0.18534624710E+03  0.25500000000E-02 0.  1.
          1   -1    0    0  501    0  0.00000000000E+00 -0.00000000000E+00 -0.89056678026E+01  0.89056692287E+01  0.50400000000E-02 0. -1.
        -24    2    1    2    0    0  0.00000000000E+00  0.11102230246E-15  0.17644057928E+03  0.19425191633E+03  0.81255947356E+02 0.  0.
         66    2    3    3    0    0 -0.40067591536E+02  0.59321742891E+00  0.72622164855E+02  0.82968323036E+02  0.20000001833E+01 0.  0.
         13    1    3    3    0    0  0.40067591536E+02 -0.59321742891E+00  0.10381841443E+03  0.11128359329E+03  0.10566000000E+00 0. -1.
         13    1    4    4    0    0 -0.10838258464E+02  0.14308734782E+00  0.18343598635E+02  0.21306972930E+02  0.10566000000E+00 0. -1.
        -13    1    4    4    0    0 -0.26797439036E+02  0.68145093644E+00  0.49344422477E+02  0.56155590175E+02  0.10566000000E+00 0.  1.
         14    1    4    4    0    0 -0.24318940365E+01 -0.23132085535E+00  0.49341437433E+01  0.55057599314E+01  0.00000000000E+00 0. -1.
<mgrwt>
<rscale>  0 0.81255947E+02</rscale>
<asrwt>0</asrwt>
<pdfrwt beam="1">  1        1 0.13701030E-02 0.81255947E+02</pdfrwt>
<pdfrwt beam="2">  1       -2 0.28514805E-01 0.81255947E+02</pdfrwt>
<totfact> 0.84216934E+04</totfact>
</mgrwt>
</event>
<event>
 8    1  0.7756875E-014  0.8051445E+02  0.7818608E-02  0.1327598E+00
         -2   -1    0    0    0  501 -0.00000000000E+00  0.00000000000E+00  0.77608843260E+01  0.77608847449E+01  0.25500000000E-02 0.  1.
          1   -1    0    0  501    0  0.00000000000E+00 -0.00000000000E+00 -0.20882211369E+03  0.20882211375E+03  0.50400000000E-02 0. -1.
        -24    2    1    2    0    0 -0.35527136788E-14 -0.35527136788E-14 -0.20106122936E+03  0.21658299849E+03  0.80514453882E+02 0.  0.
         66    2    3    3    0    0  0.27017868298E+02  0.19595336242E+02 -0.40160628879E+02  0.52257234203E+02  0.20000012010E+01 0.  0.
         13    1    3    3    0    0 -0.27017868298E+02 -0.19595336242E+02 -0.16090060048E+03  0.16432576429E+03  0.10566000000E+00 0. -1.
         13    1    4    4    0    0  0.13606918694E+02  0.90440978373E+01 -0.18824679357E+02  0.24926364737E+02  0.10566000000E+00 0. -1.
        -13    1    4    4    0    0  0.87523324529E+01  0.69079690626E+01 -0.13369024501E+02  0.17408771929E+02  0.10566000000E+00 0.  1.
        -14    1    4    4    0    0  0.46586171509E+01  0.36432693424E+01 -0.79669250205E+01  0.99220975374E+01  0.00000000000E+00 0.  1.
<mgrwt>
<rscale>  0 0.80514454E+02</rscale>
<asrwt>0</asrwt>
<pdfrwt beam="1">  1        1 0.32126475E-01 0.80514454E+02</pdfrwt>
<pdfrwt beam="2">  1       -2 0.11939824E-02 0.80514454E+02</pdfrwt>
<totfact> 0.16530825E+05</totfact>
</mgrwt>
</event>
<event>
 8    1  0.7756875E-014  0.6940033E+02  0.7818608E-02  0.1362144E+00
          1   -1    0    0  501    0  0.00000000000E+00  0.00000000000E+00  0.86357069734E+02  0.86357069881E+02  0.50400000000E-02 0. -1.
         -2   -1    0    0    0  501 -0.00000000000E+00 -0.00000000000E+00 -0.13943287097E+02  0.13943287330E+02  0.25500000000E-02 0.  1.
        -24    2    1    2    0    0 -0.17763568394E-14  0.00000000000E+00  0.72413782637E+02  0.10030035721E+03  0.69400329544E+02 0.  0.
         66    2    3    3    0    0 -0.10524084760E+02  0.32488849001E+02  0.44886027996E+02  0.56436133644E+02  0.20000004970E+01 0.  0.
         13    1    3    3    0    0  0.10524084760E+02 -0.32488849001E+02  0.27527754642E+02  0.43864223567E+02  0.10566000000E+00 0. -1.
         13    1    4    4    0    0 -0.19697619010E+01  0.74647997409E+01  0.97614967566E+01  0.12445930262E+02  0.10566000000E+00 0.  1.
        -13    1    4    4    0    0 -0.33340888769E+01  0.92267070328E+01  0.14139330297E+02  0.17209883689E+02  0.10566000000E+00 0.  1.
         14    1    4    4    0    0 -0.52202339819E+01  0.15797342228E+02  0.20985200943E+02  0.26780319694E+02  0.00000000000E+00 0. -1.
<mgrwt>
<rscale>  0 0.69400330E+02</rscale>
<asrwt>0</asrwt>
<pdfrwt beam="1">  1        1 0.13285704E-01 0.69400330E+02</pdfrwt>
<pdfrwt beam="2">  1       -2 0.21451210E-02 0.69400330E+02</pdfrwt>
<totfact> 0.21017045E+05</totfact>
</mgrwt>
</event>
<event>
 8    1  0.7756875E-014  0.8109371E+02  0.7818608E-02  0.1325976E+00
         -2   -1    0    0    0  501 -0.00000000000E+00  0.00000000000E+00  0.97357904122E+01  0.97357907462E+01  0.25500000000E-02 0.  1.
          1   -1    0    0  501    0  0.00000000000E+00 -0.00000000000E+00 -0.16886633693E+03  0.16886633701E+03  0.50400000000E-02 0. -1.
        -24    2    1    2    0    0 -0.35527136788E-14 -0.35527136788E-14 -0.15913054652E+03  0.17860212775E+03  0.81093706305E+02 0.  0.
         66    2    3    3    0    0  0.27381545660E+02 -0.29214077095E+02 -0.93337784562E+02  0.10158323375E+03  0.20000022646E+01 0.  0.
         13    1    3    3    0    0 -0.27381545660E+02  0.29214077095E+02 -0.65792761956E+02  0.77018894001E+02  0.10566000000E+00 0. -1.
         13    1    4    4    0    0  0.45803533583E+01 -0.41856968953E+01 -0.15822544170E+02  0.16995992570E+02  0.10566000000E+00 0. -1.
        -13    1    4    4    0    0  0.84734046531E+01 -0.94533260948E+01 -0.29055725087E+02  0.31708205326E+02  0.10566000000E+00 0.  1.
         14    1    4    4    0    0  0.14327787649E+02 -0.15575054105E+02 -0.48459515305E+02  0.52879035854E+02  0.00000000000E+00 0. -1.
<mgrwt>
<rscale>  0 0.81093706E+02</rscale>
<asrwt>0</asrwt>
<pdfrwt beam="1">  1        1 0.25979434E-01 0.81093706E+02</pdfrwt>
<pdfrwt beam="2">  1       -2 0.14978141E-02 0.81093706E+02</pdfrwt>
<totfact> 0.15567375E+05</totfact>
</mgrwt>
</event>
<event>
 8    1  0.7756875E-014  0.8063981E+02  0.7818608E-02  0.1327245E+00
         -2   -1    0    0    0  501 -0.00000000000E+00  0.00000000000E+00  0.16592999824E+02  0.16593000020E+02  0.25500000000E-02 0.  1.
          1   -1    0    0  501    0  0.00000000000E+00 -0.00000000000E+00 -0.97974743467E+02  0.97974743596E+02  0.50400000000E-02 0. -1.
        -24    2    1    2    0    0  0.35527136788E-14  0.00000000000E+00 -0.81381743643E+02  0.11456774362E+03  0.80639814478E+02 0.  0.
         66    2    3    3    0    0 -0.26143042842E+02 -0.80361418932E+01  0.13257001942E+01  0.27455340965E+02  0.20000002349E+01 0.  0.
         13    1    3    3    0    0  0.26143042842E+02  0.80361418932E+01 -0.82707443837E+02  0.87112402651E+02  0.10566000000E+00 0. -1.
         13    1    4    4    0    0 -0.87670112588E+01 -0.32910720598E+01 -0.12570346640E+00  0.93658212193E+01  0.10566000000E+00 0. -1.
        -13    1    4    4    0    0 -0.16831983205E+02 -0.45308803466E+01  0.12714712366E+01  0.17477766977E+02  0.10566000000E+00 0.  1.
         14    1    4    4    0    0 -0.54404837804E+00 -0.21418948678E+00  0.17993242397E+00  0.61175276958E+00  0.00000000000E+00 0. -1.
<mgrwt>
<rscale>  0 0.80639814E+02</rscale>
<asrwt>0</asrwt>
<pdfrwt beam="1">  1        1 0.15073037E-01 0.80639814E+02</pdfrwt>
<pdfrwt beam="2">  1       -2 0.25527693E-02 0.80639814E+02</pdfrwt>
<totfact> 0.14336370E+05</totfact>
</mgrwt>
</event>
<event>
 8    1  0.7756875E-014  0.8443905E+02  0.7818608E-02  0.1316906E+00
          1   -1    0    0  501    0  0.00000000000E+00  0.00000000000E+00  0.31207939843E+03  0.31207939847E+03  0.50400000000E-02 0. -1.
         -2   -1    0    0    0  501 -0.00000000000E+00 -0.00000000000E+00 -0.57116491554E+01  0.57116497246E+01  0.25500000000E-02 0.  1.
        -24    2    1    2    0    0 -0.17763568394E-14  0.00000000000E+00  0.30636774927E+03  0.31779104819E+03  0.84439046166E+02 0.  0.
         66    2    3    3    0    0  0.12243190988E+02 -0.37777687293E+02  0.20694923991E+03  0.21073451850E+03  0.20000009918E+01 0.  0.
         13    1    3    3    0    0 -0.12243190988E+02  0.37777687293E+02  0.99418509365E+02  0.10705652970E+03  0.10566000000E+00 0. -1.
         13    1    4    4    0    0  0.10400381973E+01 -0.38380109813E+01  0.19157175650E+02  0.19565800537E+02  0.10566000000E+00 0.  1.
        -13    1    4    4    0    0  0.41446544935E+01 -0.11005636659E+02  0.64431542336E+02  0.65496083936E+02  0.10566000000E+00 0.  1.
        -14    1    4    4    0    0  0.70584982975E+01 -0.22934039652E+02  0.12336052192E+03  0.12567263402E+03  0.00000000000E+00 0.  1.
<mgrwt>
<rscale>  0 0.84439046E+02</rscale>
<asrwt>0</asrwt>
<pdfrwt beam="1">  1        1 0.48012230E-01 0.84439046E+02</pdfrwt>
<pdfrwt beam="2">  1       -2 0.87871503E-03 0.84439046E+02</pdfrwt>
<totfact> 0.15759717E+05</totfact>
</mgrwt>
</event>
<event>
 8    1  0.9080594E-014  0.7981875E+02  0.7818608E-02  0.1329567E+00
         -2   -1    0    0    0  501 -0.00000000000E+00  0.00000000000E+00  0.91839679221E+02  0.91839679256E+02  0.25500000000E-02 0.  1.
          1   -1    0    0  501    0  0.00000000000E+00 -0.00000000000E+00 -0.17342812183E+02  0.17342812915E+02  0.50400000000E-02 0. -1.
        -24    2    1    2    0    0  0.00000000000E+00  0.00000000000E+00  0.74496867038E+02  0.10918249217E+03  0.79818753425E+02 0.  0.
         66    2    3    3    0    0  0.82135823263E+01 -0.21959762261E+02  0.81407025220E+02  0.84739588430E+02  0.19999997236E+01 0.  0.
         13    1    3    3    0    0 -0.82135823263E+01  0.21959762261E+02 -0.69101581824E+01  0.24442903741E+02  0.10566000000E+00 0. -1.
         13    1    4    4    0    0  0.35787829271E+01 -0.99577858317E+01  0.36647578817E+02  0.38144742536E+02  0.10566000000E+00 0. -1.
        -13    1    4    4    0    0  0.29767360788E+01 -0.86822628354E+01  0.33802332107E+02  0.35026439521E+02  0.10566000000E+00 0.  1.
         14    1    4    4    0    0  0.16580633204E+01 -0.33197135935E+01  0.10957114296E+02  0.11568406373E+02  0.00000000000E+00 0. -1.
<mgrwt>
<rscale>  0 0.79818753E+02</rscale>
<asrwt>0</asrwt>
<pdfrwt beam="1">  1        1 0.26681250E-02 0.79818753E+02</pdfrwt>
<pdfrwt beam="2">  1       -2 0.14129181E-01 0.79818753E+02</pdfrwt>
<totfact> 0.10896419E+05</totfact>
</mgrwt>
</event>
<event>
 8    1  0.7756875E-014  0.8005549E+02  0.7818608E-02  0.1328894E+00
         -2   -1    0    0    0  501 -0.00000000000E+00  0.00000000000E+00  0.88658127478E+02  0.88658127514E+02  0.25500000000E-02 0.  1.
          1   -1    0    0  501    0  0.00000000000E+00 -0.00000000000E+00 -0.18071894025E+02  0.18071894727E+02  0.50400000000E-02 0. -1.
        -24    2    1    2    0    0  0.00000000000E+00 -0.71054273576E-14  0.70586233453E+02  0.10673002224E+03  0.80055488847E+02 0.  0.
         66    2    3    3    0    0  0.14579209841E+02  0.33823289725E+02  0.56125274828E+02  0.67161110507E+02  0.20000006652E+01 0.  0.
         13    1    3    3    0    0 -0.14579209841E+02 -0.33823289725E+02  0.14460958625E+02  0.39568911734E+02  0.10566000000E+00 0. -1.
         13    1    4    4    0    0  0.12226679866E+01  0.37205621005E+01  0.52887077745E+01  0.65817241897E+01  0.10566000000E+00 0. -1.
        -13    1    4    4    0    0  0.79805953518E+01  0.16974574699E+02  0.29378704402E+02  0.34856068694E+02  0.10566000000E+00 0.  1.
        -14    1    4    4    0    0  0.53759465029E+01  0.13128152925E+02  0.21457862651E+02  0.25723317624E+02  0.00000000000E+00 0.  1.
<mgrwt>
<rscale>  0 0.80055489E+02</rscale>
<asrwt>0</asrwt>
<pdfrwt beam="1">  1        1 0.27802914E-02 0.80055489E+02</pdfrwt>
<pdfrwt beam="2">  1       -2 0.13639712E-01 0.80055489E+02</pdfrwt>
<totfact> 0.10903428E+05</totfact>
</mgrwt>
</event>
<event>
 8    1  0.7756875E-014  0.8759531E+02  0.7818608E-02  0.1308782E+00
         -2   -1    0    0    0  501 -0.00000000000E+00  0.00000000000E+00  0.14981635451E+02  0.14981635668E+02  0.25500000000E-02 0.  1.
          1   -1    0    0  501    0  0.00000000000E+00 -0.00000000000E+00 -0.12803906437E+03  0.12803906447E+03  0.50400000000E-02 0. -1.
        -24    2    1    2    0    0  0.35527136788E-14  0.00000000000E+00 -0.11305742892E+03  0.14302070014E+03  0.87595310570E+02 0.  0.
         66    2    3    3    0    0 -0.23608830496E+02  0.36793694385E+02 -0.60236933922E+02  0.74455631190E+02  0.19999959216E+01 0.  0.
         13    1    3    3    0    0  0.23608830496E+02 -0.36793694385E+02 -0.52820494997E+02  0.68565068947E+02  0.10566000000E+00 0. -1.
         13    1    4    4    0    0 -0.90557602311E+01  0.12841836913E+02 -0.21280091106E+02  0.26453223059E+02  0.10566000000E+00 0. -1.
        -13    1    4    4    0    0 -0.49636618533E+01  0.77731593288E+01 -0.12068910478E+02  0.15189789634E+02  0.10566000000E+00 0.  1.
         14    1    4    4    0    0 -0.95894084114E+01  0.16178698143E+02 -0.26887932338E+02  0.32812618498E+02  0.00000000000E+00 0. -1.
<mgrwt>
<rscale>  0 0.87595311E+02</rscale>
<asrwt>0</asrwt>
<pdfrwt beam="1">  1        1 0.19698317E-01 0.87595311E+02</pdfrwt>
<pdfrwt beam="2">  1       -2 0.23048671E-02 0.87595311E+02</pdfrwt>
<totfact> 0.12010943E+05</totfact>
</mgrwt>
</event>
<event>
 8    1  0.7756875E-014  0.7971522E+02  0.7818608E-02  0.1329862E+00
         -2   -1    0    0    0  501 -0.00000000000E+00  0.00000000000E+00  0.10099833232E+03  0.10099833235E+03  0.25500000000E-02 0.  1.
          1   -1    0    0  501    0  0.00000000000E+00 -0.00000000000E+00 -0.15729260598E+02  0.15729261406E+02  0.50400000000E-02 0. -1.
        -24    2    1    2    0    0  0.00000000000E+00  0.35527136788E-14  0.85269071718E+02  0.11672759375E+03  0.79715221582E+02 0.  0.
         66    2    3    3    0    0  0.36869390472E+02  0.14617051281E+02  0.48064184340E+02  0.62347220909E+02  0.19999992043E+01 0.  0.
         13    1    3    3    0    0 -0.36869390472E+02 -0.14617051281E+02  0.37204887378E+02  0.54380372845E+02  0.10566000000E+00 0. -1.
         13    1    4    4    0    0  0.13384734993E+02  0.57941209727E+01  0.18729473850E+02  0.23738730451E+02  0.10566000000E+00 0. -1.
        -13    1    4    4    0    0  0.82024909534E+01  0.29157444993E+01  0.10739854841E+02  0.13825269251E+02  0.10566000000E+00 0.  1.
        -14    1    4    4    0    0  0.15282164526E+02  0.59071858086E+01  0.18594855649E+02  0.24783221207E+02  0.00000000000E+00 0.  1.
<mgrwt>
<rscale>  0 0.79715222E+02</rscale>
<asrwt>0</asrwt>
<pdfrwt beam="1">  1        1 0.24198863E-02 0.79715222E+02</pdfrwt>
<pdfrwt beam="2">  1       -2 0.15538205E-01 0.79715222E+02</pdfrwt>
<totfact> 0.10683630E+05</totfact>
</mgrwt>
</event>
<event>
 8    1  0.7756875E-014  0.7924130E+02  0.7818608E-02  0.1331218E+00
         -2   -1    0    0    0  501 -0.00000000000E+00  0.00000000000E+00  0.52710051140E+01  0.52710057308E+01  0.25500000000E-02 0.  1.
          1   -1    0    0  501    0  0.00000000000E+00 -0.00000000000E+00 -0.29781715379E+03  0.29781715383E+03  0.50400000000E-02 0. -1.
        -24    2    1    2    0    0  0.00000000000E+00  0.71054273576E-14 -0.29254614868E+03  0.30308815956E+03  0.79241298339E+02 0.  0.
         66    2    3    3    0    0 -0.30808663511E+01 -0.38512737676E+02 -0.17950544933E+03  0.18362714679E+03  0.19999993424E+01 0.  0.
         13    1    3    3    0    0  0.30808663511E+01  0.38512737676E+02 -0.11304069934E+03  0.11946101277E+03  0.10566000000E+00 0. -1.
         13    1    4    4    0    0 -0.19681837361E+01 -0.25850663851E+02 -0.11836174367E+03  0.12116783442E+03  0.10566000000E+00 0. -1.
        -13    1    4    4    0    0 -0.92081760610E+00 -0.50403421619E+01 -0.23919439253E+02  0.24462291233E+02  0.10566000000E+00 0.  1.
        -14    1    4    4    0    0 -0.19186500887E+00 -0.76217316633E+01 -0.37224266409E+02  0.37997021139E+02  0.00000000000E+00 0.  1.
<mgrwt>
<rscale>  0 0.79241298E+02</rscale>
<asrwt>0</asrwt>
<pdfrwt beam="1">  1        1 0.45818011E-01 0.79241298E+02</pdfrwt>
<pdfrwt beam="2">  1       -2 0.81092414E-03 0.79241298E+02</pdfrwt>
<totfact> 0.18474680E+05</totfact>
</mgrwt>
</event>
<event>
 8    1  0.7756875E-014  0.8493153E+02  0.7818608E-02  0.1315612E+00
          1   -1    0    0  501    0  0.00000000000E+00  0.00000000000E+00  0.67921717195E+02  0.67921717382E+02  0.50400000000E-02 0. -1.
         -2   -1    0    0    0  501 -0.00000000000E+00 -0.00000000000E+00 -0.26550286040E+02  0.26550286163E+02  0.25500000000E-02 0.  1.
        -24    2    1    2    0    0  0.00000000000E+00  0.35527136788E-14  0.41371431155E+02  0.94472003545E+02  0.84931526172E+02 0.  0.
         66    2    3    3    0    0  0.29280056261E+02  0.30624782667E+02  0.23452731070E+02  0.48468851644E+02  0.19999942495E+01 0.  0.
         13    1    3    3    0    0 -0.29280056261E+02 -0.30624782667E+02  0.17918700085E+02  0.46003151901E+02  0.10566000000E+00 0. -1.
         13    1    4    4    0    0  0.27443267906E+01  0.29576915321E+01  0.24892139350E+01  0.47420057763E+01  0.10566000000E+00 0. -1.
        -13    1    4    4    0    0  0.65684685340E+01  0.60050597310E+01  0.43882895692E+01  0.99233951163E+01  0.10566000000E+00 0.  1.
        -14    1    4    4    0    0  0.19967260936E+02  0.21662031404E+02  0.16575227566E+02  0.33803450752E+02  0.00000000000E+00 0.  1.
<mgrwt>
<rscale>  0 0.84931526E+02</rscale>
<asrwt>0</asrwt>
<pdfrwt beam="1">  1        1 0.10449495E-01 0.84931526E+02</pdfrwt>
<pdfrwt beam="2">  1       -2 0.40846594E-02 0.84931526E+02</pdfrwt>
<totfact> 0.11707931E+05</totfact>
</mgrwt>
</event>
<event>
 8    1  0.7756875E-014  0.8198568E+02  0.7818608E-02  0.1323509E+00
         -2   -1    0    0    0  501 -0.00000000000E+00  0.00000000000E+00  0.24911712688E+02  0.24911712819E+02  0.25500000000E-02 0.  1.
          1   -1    0    0  501    0  0.00000000000E+00 -0.00000000000E+00 -0.67454726565E+02  0.67454726753E+02  0.50400000000E-02 0. -1.
        -24    2    1    2    0    0  0.71054273576E-14  0.00000000000E+00 -0.42543013876E+02  0.92366439572E+02  0.81985676368E+02 0.  0.
         66    2    3    3    0    0 -0.36922953396E+02  0.56901295059E+01 -0.23406882557E+01  0.37485475563E+02  0.19999988440E+01 0.  0.
         13    1    3    3    0    0  0.36922953396E+02 -0.56901295059E+01 -0.40202325620E+02  0.54880964009E+02  0.10566000000E+00 0. -1.
         13    1    4    4    0    0 -0.29254651455E+01  0.10741882193E+00 -0.34622770538E+00  0.29497326625E+01  0.10566000000E+00 0. -1.
        -13    1    4    4    0    0 -0.22495066464E+02  0.30835916821E+01 -0.11534471481E+01  0.22734954525E+02  0.10566000000E+00 0.  1.
        -14    1    4    4    0    0 -0.11502421786E+02  0.24991190019E+01 -0.84101340221E+00  0.11800788375E+02  0.00000000000E+00 0.  1.
<mgrwt>
<rscale>  0 0.81985676E+02</rscale>
<asrwt>0</asrwt>
<pdfrwt beam="1">  1        1 0.10377650E-01 0.81985676E+02</pdfrwt>
<pdfrwt beam="2">  1       -2 0.38325712E-02 0.81985676E+02</pdfrwt>
<totfact> 0.12891428E+05</totfact>
</mgrwt>
</event>
<event>
 8    1  0.7756875E-014  0.7931994E+02  0.7818608E-02  0.1330992E+00
         -2   -1    0    0    0  501 -0.00000000000E+00  0.00000000000E+00  0.27933048628E+03  0.27933048630E+03  0.25500000000E-02 0.  1.
          1   -1    0    0  501    0  0.00000000000E+00 -0.00000000000E+00 -0.56310108271E+01  0.56310130826E+01  0.50400000000E-02 0. -1.
        -24    2    1    2    0    0  0.00000000000E+00 -0.71054273576E-14  0.27369947546E+03  0.28496149938E+03  0.79319942401E+02 0.  0.
         66    2    3    3    0    0  0.15426425686E+02 -0.34414907583E+02  0.18072267721E+03  0.18462677632E+03  0.20000014532E+01 0.  0.
         13    1    3    3    0    0 -0.15426425686E+02  0.34414907583E+02  0.92976798250E+02  0.10033472305E+03  0.10566000000E+00 0. -1.
         13    1    4    4    0    0  0.94311007761E+01 -0.22662288908E+02  0.11739456476E+03  0.11993339818E+03  0.10566000000E+00 0. -1.
        -13    1    4    4    0    0  0.49582546817E+01 -0.98234465942E+01  0.51222549997E+02  0.52391270119E+02  0.10566000000E+00 0.  1.
        -14    1    4    4    0    0  0.10370702278E+01 -0.19291720804E+01  0.12105562455E+02  0.12302108027E+02  0.00000000000E+00 0.  1.
<mgrwt>
<rscale>  0 0.79319942E+02</rscale>
<asrwt>0</asrwt>
<pdfrwt beam="1">  1        1 0.86630965E-03 0.79319942E+02</pdfrwt>
<pdfrwt beam="2">  1       -2 0.42973915E-01 0.79319942E+02</pdfrwt>
<totfact> 0.74607607E+04</totfact>
</mgrwt>
</event>
<event>
 8    1  0.1110886E-013  0.8077551E+02  0.7818608E-02  0.1326865E+00
          1   -1    0    0  501    0  0.00000000000E+00  0.00000000000E+00  0.10319640296E+03  0.10319640309E+03  0.50400000000E-02 0. -1.
         -2   -1    0    0    0  501 -0.00000000000E+00 -0.00000000000E+00 -0.15806469661E+02  0.15806469867E+02  0.25500000000E-02 0.  1.
        -24    2    1    2    0    0  0.00000000000E+00 -0.35527136788E-14  0.87389933301E+02  0.11900287295E+03  0.80775511937E+02 0.  0.
         66    2    3    3    0    0 -0.21076084675E+01  0.17017580882E+02 -0.10110110352E+02  0.20006359130E+02  0.20000004483E+01 0.  0.
         13    1    3    3    0    0  0.21076084675E+01 -0.17017580882E+02  0.97500043654E+02  0.98996513823E+02  0.10566000000E+00 0. -1.
         13    1    4    4    0    0 -0.58314892002E+00  0.59979433769E+01 -0.37609806168E+01  0.71043315415E+01  0.10566000000E+00 0. -1.
        -13    1    4    4    0    0 -0.91575026249E+00  0.95689477739E+01 -0.58416860874E+01  0.11248991974E+02  0.10566000000E+00 0.  1.
         14    1    4    4    0    0 -0.60870928502E+00  0.14506897310E+01 -0.50744364826E+00  0.16530356153E+01  0.00000000000E+00 0. -1.
<mgrwt>
<rscale>  0 0.80775512E+02</rscale>
<asrwt>0</asrwt>
<pdfrwt beam="1">  1        1 0.15876370E-01 0.80775512E+02</pdfrwt>
<pdfrwt beam="2">  1       -2 0.24317645E-02 0.80775512E+02</pdfrwt>
<totfact> 0.14397206E+05</totfact>
</mgrwt>
</event>
<event>
 8    1  0.7756875E-014  0.7942138E+02  0.7818608E-02  0.1330702E+00
         -2   -1    0    0    0  501 -0.00000000000E+00  0.00000000000E+00  0.16893257068E+03  0.16893257070E+03  0.25500000000E-02 0.  1.
          1   -1    0    0  501    0  0.00000000000E+00 -0.00000000000E+00 -0.93347224515E+01  0.93347238121E+01  0.50400000000E-02 0. -1.
        -24    2    1    2    0    0 -0.71054273576E-14  0.00000000000E+00  0.15959784822E+03  0.17826729451E+03  0.79421377054E+02 0.  0.
         66    2    3    3    0    0 -0.31019387941E+02 -0.13690408623E+01  0.13532525178E+03  0.13885604226E+03  0.20000008536E+01 0.  0.
         13    1    3    3    0    0  0.31019387941E+02  0.13690408623E+01  0.24272596449E+02  0.39411252246E+02  0.10566000000E+00 0. -1.
         13    1    4    4    0    0 -0.34847870853E+01 -0.42496866956E+00  0.17545632162E+02  0.17893705916E+02  0.10566000000E+00 0. -1.
        -13    1    4    4    0    0 -0.13589222516E+02 -0.10183870981E+00  0.59173702314E+02  0.60714212087E+02  0.10566000000E+00 0.  1.
        -14    1    4    4    0    0 -0.13945378340E+02 -0.84223348296E+00  0.58605917299E+02  0.60248124259E+02  0.00000000000E+00 0.  1.
<mgrwt>
<rscale>  0 0.79421377E+02</rscale>
<asrwt>0</asrwt>
<pdfrwt beam="1">  1        1 0.14361113E-02 0.79421377E+02</pdfrwt>
<pdfrwt beam="2">  1       -2 0.25989626E-01 0.79421377E+02</pdfrwt>
<totfact> 0.92447753E+04</totfact>
</mgrwt>
</event>
<event>
 8    1  0.7756875E-014  0.8896294E+02  0.7818608E-02  0.1305383E+00
         -2   -1    0    0    0  501 -0.00000000000E+00  0.00000000000E+00  0.38926322410E+03  0.38926322411E+03  0.25500000000E-02 0.  1.
          1   -1    0    0  501    0  0.00000000000E+00 -0.00000000000E+00 -0.50829375448E+01  0.50829400436E+01  0.50400000000E-02 0. -1.
        -24    2    1    2    0    0  0.00000000000E+00  0.00000000000E+00  0.38418028656E+03  0.39434616415E+03  0.88962939496E+02 0.  0.
         66    2    3    3    0    0  0.33666444103E+02  0.28131283711E+02  0.16028459330E+03  0.16619250715E+03  0.20000002994E+01 0.  0.
         13    1    3    3    0    0 -0.33666444103E+02 -0.28131283711E+02  0.22389569325E+03  0.22815365700E+03  0.10566000000E+00 0. -1.
         13    1    4    4    0    0  0.39653412276E+01  0.29528322199E+01  0.17978467165E+02  0.18646168368E+02  0.10566000000E+00 0. -1.
        -13    1    4    4    0    0  0.20499838556E+02  0.16443346442E+02  0.97149730046E+02  0.10064148367E+03  0.10566000000E+00 0.  1.
         14    1    4    4    0    0  0.92012643201E+01  0.87351050489E+01  0.45156396094E+02  0.46904855116E+02  0.00000000000E+00 0. -1.
<mgrwt>
<rscale>  0 0.88962939E+02</rscale>
<asrwt>0</asrwt>
<pdfrwt beam="1">  1        1 0.78199022E-03 0.88962939E+02</pdfrwt>
<pdfrwt beam="2">  1       -2 0.59886678E-01 0.88962939E+02</pdfrwt>
<totfact> 0.45671611E+04</totfact>
</mgrwt>
</event>
<event>
 8    1  0.7756875E-014  0.7891324E+02  0.7818608E-02  0.1332164E+00
          1   -1    0    0  501    0  0.00000000000E+00  0.00000000000E+00  0.20651626361E+03  0.20651626367E+03  0.50400000000E-02 0. -1.
         -2   -1    0    0    0  501 -0.00000000000E+00 -0.00000000000E+00 -0.75385097842E+01  0.75385102154E+01  0.25500000000E-02 0.  1.
        -24    2    1    2    0    0 -0.71054273576E-14  0.00000000000E+00  0.19897775382E+03  0.21405477388E+03  0.78913241640E+02 0.  0.
         66    2    3    3    0    0  0.37115272537E+02  0.97152626428E+00  0.63532793408E+02  0.73613199610E+02  0.19999999572E+01 0.  0.
         13    1    3    3    0    0 -0.37115272537E+02 -0.97152626428E+00  0.13544496041E+03  0.14044157427E+03  0.10566000000E+00 0. -1.
         13    1    4    4    0    0  0.41827340987E+01 -0.83001323417E-02  0.79930574288E+01  0.90219435006E+01  0.10566000000E+00 0. -1.
        -13    1    4    4    0    0  0.15114109522E+02  0.10927360660E+01  0.25125540856E+02  0.29341682741E+02  0.10566000000E+00 0.  1.
        -14    1    4    4    0    0  0.17818428915E+02 -0.11290966943E+00  0.30414195123E+02  0.35249573368E+02  0.00000000000E+00 0.  1.
<mgrwt>
<rscale>  0 0.78913242E+02</rscale>
<asrwt>0</asrwt>
<pdfrwt beam="1">  1        1 0.31771729E-01 0.78913242E+02</pdfrwt>
<pdfrwt beam="2">  1       -2 0.11597709E-02 0.78913242E+02</pdfrwt>
<totfact> 0.17397742E+05</totfact>
</mgrwt>
</event>
<event>
 8    1  0.7756875E-014  0.7810250E+02  0.7818608E-02  0.1334524E+00
          1   -1    0    0  501    0  0.00000000000E+00  0.00000000000E+00  0.11316976343E+02  0.11316977465E+02  0.50400000000E-02 0. -1.
         -2   -1    0    0    0  501 -0.00000000000E+00 -0.00000000000E+00 -0.13475330231E+03  0.13475330234E+03  0.25500000000E-02 0.  1.
        -24    2    1    2    0    0 -0.27755575616E-16  0.00000000000E+00 -0.12343632597E+03  0.14607027980E+03  0.78102497224E+02 0.  0.
         66    2    3    3    0    0  0.66885612985E-01 -0.22159600186E+02 -0.12183780383E+03  0.12385274638E+03  0.19999977083E+01 0.  0.
         13    1    3    3    0    0 -0.66885612985E-01  0.22159600186E+02 -0.15985221392E+01  0.22217533417E+02  0.10566000000E+00 0. -1.
         13    1    4    4    0    0  0.36543638043E+00 -0.15821897612E+01 -0.76540128055E+01  0.78250842967E+01  0.10566000000E+00 0. -1.
        -13    1    4    4    0    0 -0.24419599496E+00 -0.19872299199E+02 -0.10917373319E+03  0.11096793721E+03  0.10566000000E+00 0.  1.
        -14    1    4    4    0    0 -0.54354772479E-01 -0.70511122531E+00 -0.50100578384E+01  0.50597248764E+01  0.00000000000E+00 0.  1.
<mgrwt>
<rscale>  0 0.78102497E+02</rscale>
<asrwt>0</asrwt>
<pdfrwt beam="1">  1        1 0.17410735E-02 0.78102497E+02</pdfrwt>
<pdfrwt beam="2">  1       -2 0.20731276E-01 0.78102497E+02</pdfrwt>
<totfact> 0.10399018E+05</totfact>
</mgrwt>
</event>
<event>
 8    1  0.7756875E-014  0.8061625E+02  0.7818608E-02  0.1327312E+00
         -2   -1    0    0    0  501 -0.00000000000E+00  0.00000000000E+00  0.25065280271E+03  0.25065280273E+03  0.25500000000E-02 0.  1.
          1   -1    0    0  501    0  0.00000000000E+00 -0.00000000000E+00 -0.64820521396E+01  0.64820540989E+01  0.50400000000E-02 0. -1.
        -24    2    1    2    0    0  0.00000000000E+00  0.00000000000E+00  0.24417075057E+03  0.25713485683E+03  0.80616246246E+02 0.  0.
         66    2    3    3    0    0 -0.10533152875E+02  0.18920202941E+02  0.23050486836E+03  0.23152843401E+03  0.20000068331E+01 0.  0.
         13    1    3    3    0    0  0.10533152875E+02 -0.18920202941E+02  0.13665882214E+02  0.25606422818E+02  0.10566000000E+00 0. -1.
         13    1    4    4    0    0 -0.64084664815E+01  0.13189397449E+02  0.15629314366E+03  0.15697957372E+03  0.10566000000E+00 0. -1.
        -13    1    4    4    0    0 -0.30050149181E+01  0.44692090384E+01  0.54913338491E+02  0.55176896001E+02  0.10566000000E+00 0.  1.
         14    1    4    4    0    0 -0.11196714758E+01  0.12615964539E+01  0.19298386213E+02  0.19371964285E+02  0.00000000000E+00 0. -1.
<mgrwt>
<rscale>  0 0.80616246E+02</rscale>
<asrwt>0</asrwt>
<pdfrwt beam="1">  1        1 0.99723914E-03 0.80616246E+02</pdfrwt>
<pdfrwt beam="2">  1       -2 0.38561962E-01 0.80616246E+02</pdfrwt>
<totfact> 0.75507592E+04</totfact>
</mgrwt>
</event>
<event>
 8    1  0.7756875E-014  0.7880585E+02  0.7818608E-02  0.1332475E+00
         -2   -1    0    0    0  501 -0.00000000000E+00  0.00000000000E+00  0.96513096746E+01  0.96513100115E+01  0.25500000000E-02 0.  1.
          1   -1    0    0  501    0  0.00000000000E+00 -0.00000000000E+00 -0.16086836408E+03  0.16086836416E+03  0.50400000000E-02 0. -1.
        -24    2    1    2    0    0  0.35527136788E-14  0.00000000000E+00 -0.15121705440E+03  0.17051967417E+03  0.78805848362E+02 0.  0.
         66    2    3    3    0    0 -0.17421858977E+02  0.21613448044E+02 -0.15228569184E+02  0.31726513015E+02  0.20000005357E+01 0.  0.
         13    1    3    3    0    0  0.17421858977E+02 -0.21613448044E+02 -0.13598848522E+03  0.13879316115E+03  0.10566000000E+00 0. -1.
         13    1    4    4    0    0 -0.71018207792E+00  0.10582290656E+01 -0.75000826030E+00  0.14825261432E+01  0.10566000000E+00 0. -1.
        -13    1    4    4    0    0 -0.14253895885E+01  0.24415882368E+01 -0.19356170797E+01  0.34279536333E+01  0.10566000000E+00 0.  1.
        -14    1    4    4    0    0 -0.15286287310E+02  0.18113630742E+02 -0.12542943844E+02  0.26816033239E+02  0.00000000000E+00 0.  1.
<mgrwt>
<rscale>  0 0.78805848E+02</rscale>
<asrwt>0</asrwt>
<pdfrwt beam="1">  1        1 0.24748977E-01 0.78805848E+02</pdfrwt>
<pdfrwt beam="2">  1       -2 0.14848170E-02 0.78805848E+02</pdfrwt>
<totfact> 0.16649164E+05</totfact>
</mgrwt>
</event>
<event>
 8    1  0.7756875E-014  0.8006116E+02  0.7818608E-02  0.1328878E+00
         -2   -1    0    0    0  501 -0.00000000000E+00  0.00000000000E+00  0.23055077553E+02  0.23055077694E+02  0.25500000000E-02 0.  1.
          1   -1    0    0  501    0  0.00000000000E+00 -0.00000000000E+00 -0.69505173359E+02  0.69505173542E+02  0.50400000000E-02 0. -1.
        -24    2    1    2    0    0  0.00000000000E+00 -0.17763568394E-14 -0.46450095806E+02  0.92560251236E+02  0.80061156052E+02 0.  0.
         66    2    3    3    0    0 -0.35029837746E+02  0.89073462472E+01 -0.34157836266E+01  0.36360664596E+02  0.20000005915E+01 0.  0.
         13    1    3    3    0    0  0.35029837746E+02 -0.89073462472E+01 -0.43034312179E+02  0.56199586640E+02  0.10566000000E+00 0. -1.
         13    1    4    4    0    0 -0.34883286038E+01  0.86001491707E+00  0.19646339348E-01  0.35943861951E+01  0.10566000000E+00 0. -1.
        -13    1    4    4    0    0 -0.20130841873E+02  0.56795061055E+01 -0.17295059146E+01  0.20988328635E+02  0.10566000000E+00 0.  1.
         14    1    4    4    0    0 -0.11410667269E+02  0.23678252247E+01 -0.17059240513E+01  0.11777949766E+02  0.00000000000E+00 0. -1.
<mgrwt>
<rscale>  0 0.80061156E+02</rscale>
<asrwt>0</asrwt>
<pdfrwt beam="1">  1        1 0.10693104E-01 0.80061156E+02</pdfrwt>
<pdfrwt beam="2">  1       -2 0.35469350E-02 0.80061156E+02</pdfrwt>
<totfact> 0.13826105E+05</totfact>
</mgrwt>
</event>
<event>
 8    1  0.7756875E-014  0.8077552E+02  0.7818608E-02  0.1326865E+00
         -2   -1    0    0    0  501 -0.00000000000E+00  0.00000000000E+00  0.12121635285E+02  0.12121635553E+02  0.25500000000E-02 0.  1.
          1   -1    0    0  501    0  0.00000000000E+00 -0.00000000000E+00 -0.13456692113E+03  0.13456692122E+03  0.50400000000E-02 0. -1.
        -24    2    1    2    0    0  0.00000000000E+00  0.71054273576E-14 -0.12244528584E+03  0.14668855677E+03  0.80775520201E+02 0.  0.
         66    2    3    3    0    0  0.14945572565E+02 -0.25791804243E+02 -0.11840139826E+02  0.32136835728E+02  0.19999985206E+01 0.  0.
         13    1    3    3    0    0 -0.14945572565E+02  0.25791804243E+02 -0.11060514602E+03  0.11455172105E+03  0.10566000000E+00 0. -1.
         13    1    4    4    0    0  0.43418404170E+00 -0.87463667847E+00 -0.57818965000E+00  0.11397247073E+01  0.10566000000E+00 0. -1.
        -13    1    4    4    0    0  0.37665070727E+01 -0.60992741616E+01 -0.35137510891E+01  0.79840673581E+01  0.10566000000E+00 0.  1.
        -14    1    4    4    0    0  0.10744881451E+02 -0.18817893403E+02 -0.77481990869E+01  0.23013043663E+02  0.00000000000E+00 0.  1.
<mgrwt>
<rscale>  0 0.80775520E+02</rscale>
<asrwt>0</asrwt>
<pdfrwt beam="1">  1        1 0.20702602E-01 0.80775520E+02</pdfrwt>
<pdfrwt beam="2">  1       -2 0.18648671E-02 0.80775520E+02</pdfrwt>
<totfact> 0.15083578E+05</totfact>
</mgrwt>
</event>
<event>
 8    1  0.7756875E-014  0.8038402E+02  0.7818608E-02  0.1327965E+00
         -2   -1    0    0    0  501 -0.00000000000E+00  0.00000000000E+00  0.13188615786E+02  0.13188616032E+02  0.25500000000E-02 0.  1.
          1   -1    0    0  501    0  0.00000000000E+00 -0.00000000000E+00 -0.12248424637E+03  0.12248424647E+03  0.50400000000E-02 0. -1.
        -24    2    1    2    0    0 -0.71054273576E-14 -0.35527136788E-14 -0.10929563058E+03  0.13567286250E+03  0.80384020524E+02 0.  0.
         66    2    3    3    0    0 -0.32699196598E+02 -0.23313832200E+02 -0.53352054393E+02  0.66807289749E+02  0.20000064027E+01 0.  0.
         13    1    3    3    0    0  0.32699196598E+02  0.23313832200E+02 -0.55943576190E+02  0.68865572756E+02  0.10566000000E+00 0. -1.
         13    1    4    4    0    0 -0.22138629498E+01 -0.12761671821E+01 -0.34773793956E+01  0.43166101669E+01  0.10566000000E+00 0.  1.
        -13    1    4    4    0    0 -0.10310820327E+02 -0.69119491430E+01 -0.15451539536E+02  0.19820426202E+02  0.10566000000E+00 0.  1.
        -14    1    4    4    0    0 -0.20174513321E+02 -0.15125715875E+02 -0.34423135461E+02  0.42670253379E+02  0.00000000000E+00 0.  1.
<mgrwt>
<rscale>  0 0.80384021E+02</rscale>
<asrwt>0</asrwt>
<pdfrwt beam="1">  1        1 0.18843730E-01 0.80384021E+02</pdfrwt>
<pdfrwt beam="2">  1       -2 0.20290179E-02 0.80384021E+02</pdfrwt>
<totfact> 0.15026522E+05</totfact>
</mgrwt>
</event>
<event>
 8    1  0.7756875E-014  0.7712540E+02  0.7818608E-02  0.1337413E+00
         -2   -1    0    0    0  501 -0.00000000000E+00  0.00000000000E+00  0.19263654736E+02  0.19263654905E+02  0.25500000000E-02 0.  1.
          1   -1    0    0  501    0  0.00000000000E+00 -0.00000000000E+00 -0.77196246688E+02  0.77196246853E+02  0.50400000000E-02 0. -1.
        -24    2    1    2    0    0  0.00000000000E+00 -0.44408920985E-15 -0.57932591952E+02  0.96459901758E+02  0.77125400724E+02 0.  0.
         66    2    3    3    0    0 -0.19524209031E+02 -0.33223672576E+01  0.12359801697E+02  0.23430697794E+02  0.20000096572E+01 0.  0.
         13    1    3    3    0    0  0.19524209031E+02  0.33223672576E+01 -0.70292393650E+02  0.73029203963E+02  0.10566000000E+00 0. -1.
         13    1    4    4    0    0 -0.21046518867E+01 -0.14911970703E+00  0.10666769927E+01  0.23665925069E+01  0.10566000000E+00 0. -1.
        -13    1    4    4    0    0 -0.71531746301E+01 -0.73161087389E+00  0.39150067277E+01  0.81878937141E+01  0.10566000000E+00 0.  1.
        -14    1    4    4    0    0 -0.10266382515E+02 -0.24416366766E+01  0.73781179770E+01  0.12876211573E+02  0.00000000000E+00 0.  1.
<mgrwt>
<rscale>  0 0.77125401E+02</rscale>
<asrwt>0</asrwt>
<pdfrwt beam="1">  1        1 0.11876346E-01 0.77125401E+02</pdfrwt>
<pdfrwt beam="2">  1       -2 0.29636392E-02 0.77125401E+02</pdfrwt>
<totfact> 0.15563076E+05</totfact>
</mgrwt>
</event>
<event>
 8    1  0.7756875E-014  0.8387697E+02  0.7818608E-02  0.1318396E+00
          1   -1    0    0  501    0  0.00000000000E+00  0.00000000000E+00  0.45679796845E+01  0.45679824649E+01  0.50400000000E-02 0. -1.
         -2   -1    0    0    0  501 -0.00000000000E+00 -0.00000000000E+00 -0.38503583446E+03  0.38503583447E+03  0.25500000000E-02 0.  1.
        -24    2    1    2    0    0 -0.35527136788E-14  0.35527136788E-14 -0.38046785478E+03  0.38960381694E+03  0.83876967348E+02 0.  0.
         66    2    3    3    0    0 -0.29074838757E+02  0.13806195703E+02 -0.31505434522E+03  0.31670048584E+03  0.19999997226E+01 0.  0.
         13    1    3    3    0    0  0.29074838757E+02 -0.13806195703E+02 -0.65413509555E+02  0.72903331096E+02  0.10566000000E+00 0. -1.
         13    1    4    4    0    0 -0.47932284458E+01  0.21155756955E+01 -0.53407475717E+02  0.53663957419E+02  0.10566000000E+00 0. -1.
        -13    1    4    4    0    0 -0.30468300994E+01  0.12322663270E+01 -0.27331670937E+02  0.27528767756E+02  0.10566000000E+00 0.  1.
        -14    1    4    4    0    0 -0.21234780212E+02  0.10458353680E+02 -0.23431519857E+03  0.23550776066E+03  0.00000000000E+00 0.  1.
<mgrwt>
<rscale>  0 0.83876967E+02</rscale>
<asrwt>0</asrwt>
<pdfrwt beam="1">  1        1 0.70276662E-03 0.83876967E+02</pdfrwt>
<pdfrwt beam="2">  1       -2 0.59236257E-01 0.83876967E+02</pdfrwt>
<totfact> 0.53600285E+04</totfact>
</mgrwt>
</event>
<event>
 8    1  0.7756875E-014  0.7725340E+02  0.7818608E-02  0.1337032E+00
         -2   -1    0    0    0  501 -0.00000000000E+00  0.00000000000E+00  0.11342700464E+02  0.11342700750E+02  0.25500000000E-02 0.  1.
          1   -1    0    0  501    0  0.00000000000E+00 -0.00000000000E+00 -0.13154026208E+03  0.13154026218E+03  0.50400000000E-02 0. -1.
        -24    2    1    2    0    0  0.00000000000E+00  0.00000000000E+00 -0.12019756162E+03  0.14288296293E+03  0.77253396535E+02 0.  0.
         66    2    3    3    0    0  0.52599888262E+01 -0.36111649437E+02 -0.36868708830E+02  0.51913585781E+02  0.19999976083E+01 0.  0.
         13    1    3    3    0    0 -0.52599888262E+01  0.36111649437E+02 -0.83328852785E+02  0.90969377145E+02  0.10566000000E+00 0. -1.
         13    1    4    4    0    0  0.28899155948E+01 -0.17935550456E+02 -0.17312763621E+02  0.25095388631E+02  0.10566000000E+00 0.  1.
        -13    1    4    4    0    0  0.50016858369E+00 -0.19879519041E+01 -0.23475108199E+01  0.31183477148E+01  0.10566000000E+00 0. -1.
        -14    1    4    4    0    0  0.18699046477E+01 -0.16188147076E+02 -0.17208434389E+02  0.23699849435E+02  0.00000000000E+00 0.  1.
<mgrwt>
<rscale>  0 0.77253397E+02</rscale>
<asrwt>0</asrwt>
<pdfrwt beam="1">  1        1 0.20236962E-01 0.77253397E+02</pdfrwt>
<pdfrwt beam="2">  1       -2 0.17450310E-02 0.77253397E+02</pdfrwt>
<totfact> 0.16925798E+05</totfact>
</mgrwt>
</event>
<event>
 8    1  0.7756875E-014  0.8035880E+02  0.7818608E-02  0.1328036E+00
          1   -1    0    0  501    0  0.00000000000E+00  0.00000000000E+00  0.62721935811E+01  0.62721956061E+01  0.50400000000E-02 0. -1.
         -2   -1    0    0    0  501 -0.00000000000E+00 -0.00000000000E+00 -0.25738748013E+03  0.25738748014E+03  0.25500000000E-02 0.  1.
        -24    2    1    2    0    0 -0.88817841970E-15  0.00000000000E+00 -0.25111528655E+03  0.26365967575E+03  0.80358804604E+02 0.  0.
         66    2    3    3    0    0  0.73211387904E+01 -0.11957183806E+02 -0.24909118111E+03  0.24949346649E+03  0.19999992782E+01 0.  0.
         13    1    3    3    0    0 -0.73211387904E+01  0.11957183806E+02 -0.20241054345E+01  0.14166209253E+02  0.10566000000E+00 0. -1.
         13    1    4    4    0    0  0.16874356650E+01 -0.25216330483E+01 -0.57327423003E+02  0.57407757878E+02  0.10566000000E+00 0.  1.
        -13    1    4    4    0    0  0.87214234590E+00 -0.27436288099E+01 -0.55376980139E+02  0.55451864033E+02  0.10566000000E+00 0. -1.
         14    1    4    4    0    0  0.47615607795E+01 -0.66919219481E+01 -0.13638677797E+03  0.13663384458E+03  0.00000000000E+00 0. -1.
<mgrwt>
<rscale>  0 0.80358805E+02</rscale>
<asrwt>0</asrwt>
<pdfrwt beam="1">  1        1 0.96495322E-03 0.80358805E+02</pdfrwt>
<pdfrwt beam="2">  1       -2 0.39598066E-01 0.80358805E+02</pdfrwt>
<totfact> 0.75166654E+04</totfact>
</mgrwt>
</event>
<event>
 8    1  0.7756875E-014  0.8199405E+02  0.7818608E-02  0.1323486E+00
         -2   -1    0    0    0  501 -0.00000000000E+00  0.00000000000E+00  0.81406053564E+01  0.81406057558E+01  0.25500000000E-02 0.  1.
          1   -1    0    0  501    0  0.00000000000E+00 -0.00000000000E+00 -0.20646571030E+03  0.20646571036E+03  0.50400000000E-02 0. -1.
        -24    2    1    2    0    0  0.00000000000E+00  0.00000000000E+00 -0.19832510494E+03  0.21460631611E+03  0.81994046531E+02 0.  0.
         66    2    3    3    0    0 -0.37781734026E+02  0.98023174779E+01 -0.13182866376E+03  0.13750033251E+03  0.19999993601E+01 0.  0.
         13    1    3    3    0    0  0.37781734026E+02 -0.98023174779E+01 -0.66496441175E+02  0.77105983600E+02  0.10566000000E+00 0. -1.
         13    1    4    4    0    0 -0.13784541611E+02  0.37052687885E+01 -0.51522029186E+02  0.53462821285E+02  0.10566000000E+00 0. -1.
        -13    1    4    4    0    0 -0.13380968727E+02  0.33741307123E+01 -0.45253119596E+02  0.47310581050E+02  0.10566000000E+00 0.  1.
         14    1    4    4    0    0 -0.10616223687E+02  0.27229179771E+01 -0.35053514983E+02  0.36726930179E+02  0.00000000000E+00 0. -1.
<mgrwt>
<rscale>  0 0.81994047E+02</rscale>
<asrwt>0</asrwt>
<pdfrwt beam="1">  1        1 0.31763952E-01 0.81994047E+02</pdfrwt>
<pdfrwt beam="2">  1       -2 0.12524010E-02 0.81994047E+02</pdfrwt>
<totfact> 0.15714971E+05</totfact>
</mgrwt>
</event>
<event>
 8    1  0.7756875E-014  0.7961555E+02  0.7818608E-02  0.1330146E+00
         -2   -1    0    0    0  501 -0.00000000000E+00  0.00000000000E+00  0.66079484098E+01  0.66079489018E+01  0.25500000000E-02 0.  1.
          1   -1    0    0  501    0  0.00000000000E+00 -0.00000000000E+00 -0.23981100407E+03  0.23981100412E+03  0.50400000000E-02 0. -1.
        -24    2    1    2    0    0 -0.71054273576E-14  0.00000000000E+00 -0.23320305566E+03  0.24641895303E+03  0.79615546475E+02 0.  0.
         66    2    3    3    0    0 -0.32376078444E+02  0.16732400505E+02 -0.67301315027E+02  0.76561417451E+02  0.19999889031E+01 0.  0.
         13    1    3    3    0    0  0.32376078444E+02 -0.16732400505E+02 -0.16590174063E+03  0.16985753557E+03  0.10566000000E+00 0. -1.
         13    1    4    4    0    0 -0.18100995288E+01  0.12940795645E+01 -0.37672012118E+01  0.43765364421E+01  0.10566000000E+00 0. -1.
        -13    1    4    4    0    0 -0.25278395594E+02  0.13231985393E+02 -0.52550212791E+02  0.59796477736E+02  0.10566000000E+00 0.  1.
         14    1    4    4    0    0 -0.52875833220E+01  0.22063355480E+01 -0.10983901024E+02  0.12388403273E+02  0.00000000000E+00 0. -1.
<mgrwt>
<rscale>  0 0.79615546E+02</rscale>
<asrwt>0</asrwt>
<pdfrwt beam="1">  1        1 0.36893994E-01 0.79615546E+02</pdfrwt>
<pdfrwt beam="2">  1       -2 0.10166077E-02 0.79615546E+02</pdfrwt>
<totfact> 0.17496141E+05</totfact>
</mgrwt>
</event>
<event>
 8    1  0.7756875E-014  0.8024399E+02  0.7818608E-02  0.1328360E+00
          1   -1    0    0  501    0  0.00000000000E+00  0.00000000000E+00  0.73347634364E+02  0.73347634537E+02  0.50400000000E-02 0. -1.
         -2   -1    0    0    0  501 -0.00000000000E+00 -0.00000000000E+00 -0.21947188587E+02  0.21947188735E+02  0.25500000000E-02 0.  1.
        -24    2    1    2    0    0  0.00000000000E+00  0.00000000000E+00  0.51400445777E+02  0.95294823272E+02  0.80243987416E+02 0.  0.
         66    2    3    3    0    0 -0.55309269824E-01 -0.24079920033E+02 -0.12358625070E+02  0.27140029697E+02  0.19999976021E+01 0.  0.
         13    1    3    3    0    0  0.55309269824E-01  0.24079920033E+02  0.63759070848E+02  0.68154793575E+02  0.10566000000E+00 0. -1.
         13    1    4    4    0    0  0.11220656945E+00 -0.73856658933E+01 -0.30721988922E+01  0.80006387914E+01  0.10566000000E+00 0. -1.
        -13    1    4    4    0    0  0.63578043170E-01 -0.11872769449E+02 -0.71561363195E+01  0.13863193991E+02  0.10566000000E+00 0.  1.
        -14    1    4    4    0    0 -0.23109388244E+00 -0.48214846904E+01 -0.21302898585E+01  0.52761969147E+01  0.00000000000E+00 0.  1.
<mgrwt>
<rscale>  0 0.80243987E+02</rscale>
<asrwt>0</asrwt>
<pdfrwt beam="1">  1        1 0.11284252E-01 0.80243987E+02</pdfrwt>
<pdfrwt beam="2">  1       -2 0.33764905E-02 0.80243987E+02</pdfrwt>
<totfact> 0.13857995E+05</totfact>
</mgrwt>
</event>
<event>
 8    1  0.7756875E-014  0.8266271E+02  0.7818608E-02  0.1321660E+00
          1   -1    0    0  501    0  0.00000000000E+00  0.00000000000E+00  0.45731561642E+02  0.45731561919E+02  0.50400000000E-02 0. -1.
         -2   -1    0    0    0  501 -0.00000000000E+00 -0.00000000000E+00 -0.37354526778E+02  0.37354526865E+02  0.25500000000E-02 0.  1.
        -24    2    1    2    0    0  0.00000000000E+00  0.00000000000E+00  0.83770348633E+01  0.83086088785E+02  0.82662708862E+02 0.  0.
         66    2    3    3    0    0  0.38122662055E+02  0.22281339604E+01 -0.11636878744E+02  0.39971475891E+02  0.19999987192E+01 0.  0.
         13    1    3    3    0    0 -0.38122662055E+02 -0.22281339604E+01  0.20013913607E+02  0.43114612894E+02  0.10566000000E+00 0. -1.
         13    1    4    4    0    0  0.54507754722E+01  0.68011329977E+00 -0.13025750248E+01  0.56463592766E+01  0.10566000000E+00 0. -1.
        -13    1    4    4    0    0  0.24369778696E+02  0.16727571615E+01 -0.75434238783E+01  0.25565575253E+02  0.10566000000E+00 0.  1.
        -14    1    4    4    0    0  0.83021078871E+01 -0.12473650087E+00 -0.27908798411E+01  0.87595413608E+01  0.00000000000E+00 0.  1.
<mgrwt>
<rscale>  0 0.82662709E+02</rscale>
<asrwt>0</asrwt>
<pdfrwt beam="1">  1        1 0.70356249E-02 0.82662709E+02</pdfrwt>
<pdfrwt beam="2">  1       -2 0.57468503E-02 0.82662709E+02</pdfrwt>
<totfact> 0.11835324E+05</totfact>
</mgrwt>
</event>
<event>
 8    1  0.7756875E-014  0.7974793E+02  0.7818608E-02  0.1329768E+00
         -2   -1    0    0    0  501 -0.00000000000E+00  0.00000000000E+00  0.24451573211E+02  0.24451573344E+02  0.25500000000E-02 0.  1.
          1   -1    0    0  501    0  0.00000000000E+00 -0.00000000000E+00 -0.65023761495E+02  0.65023761690E+02  0.50400000000E-02 0. -1.
        -24    2    1    2    0    0  0.55511151231E-16 -0.71054273576E-14 -0.40572188284E+02  0.89475335034E+02  0.79747934878E+02 0.  0.
         66    2    3    3    0    0 -0.37562136142E+00  0.32890603114E+02  0.49393137833E+01  0.33321609877E+02  0.19999998744E+01 0.  0.
         13    1    3    3    0    0  0.37562136142E+00 -0.32890603114E+02 -0.45511502067E+02  0.56153725157E+02  0.10566000000E+00 0. -1.
         13    1    4    4    0    0 -0.45803755183E+00  0.60353444052E+01  0.71072828493E+00  0.60952013271E+01  0.10566000000E+00 0. -1.
        -13    1    4    4    0    0 -0.16204064108E+00  0.13019089628E+02  0.13349391810E+01  0.13088780637E+02  0.10566000000E+00 0.  1.
        -14    1    4    4    0    0  0.24445683150E+00  0.13836169081E+02  0.28936463174E+01  0.14137627913E+02  0.00000000000E+00 0.  1.
<mgrwt>
<rscale>  0 0.79747935E+02</rscale>
<asrwt>0</asrwt>
<pdfrwt beam="1">  1        1 0.10003656E-01 0.79747935E+02</pdfrwt>
<pdfrwt beam="2">  1       -2 0.37617805E-02 0.79747935E+02</pdfrwt>
<totfact> 0.13829587E+05</totfact>
</mgrwt>
</event>
<event>
 8    1  0.7756875E-014  0.8603882E+02  0.7818608E-02  0.1312738E+00
         -2   -1    0    0    0  501 -0.00000000000E+00  0.00000000000E+00  0.51654296989E+01  0.51654303284E+01  0.25500000000E-02 0.  1.
          1   -1    0    0  501    0  0.00000000000E+00 -0.00000000000E+00 -0.35827987025E+03  0.35827987029E+03  0.50400000000E-02 0. -1.
        -24    2    1    2    0    0  0.00000000000E+00  0.00000000000E+00 -0.35311444055E+03  0.36344530061E+03  0.86038819219E+02 0.  0.
         66    2    3    3    0    0 -0.42880208811E+02  0.12678143422E+00 -0.18996775829E+03  0.19475748399E+03  0.19999996035E+01 0.  0.
         13    1    3    3    0    0  0.42880208811E+02 -0.12678143422E+00 -0.16314668226E+03  0.16868781663E+03  0.10566000000E+00 0. -1.
         13    1    4    4    0    0 -0.10535762809E+02  0.76749702169E+00 -0.45408686120E+02  0.46621360865E+02  0.10566000000E+00 0. -1.
        -13    1    4    4    0    0 -0.23422626705E+02 -0.69361302788E+00 -0.10394762666E+03  0.10655618608E+03  0.10566000000E+00 0.  1.
        -14    1    4    4    0    0 -0.89218192970E+01  0.52897440411E-01 -0.40611445515E+02  0.41579937044E+02  0.00000000000E+00 0.  1.
<mgrwt>
<rscale>  0 0.86038819E+02</rscale>
<asrwt>0</asrwt>
<pdfrwt beam="1">  1        1 0.55119961E-01 0.86038819E+02</pdfrwt>
<pdfrwt beam="2">  1       -2 0.79468182E-03 0.86038819E+02</pdfrwt>
<totfact> 0.15382436E+05</totfact>
</mgrwt>
</event>
<event>
 8    1  0.7756875E-014  0.8020532E+02  0.7818608E-02  0.1328470E+00
         -2   -1    0    0    0  501 -0.00000000000E+00  0.00000000000E+00  0.22067582929E+02  0.22067583076E+02  0.25500000000E-02 0.  1.
          1   -1    0    0  501    0  0.00000000000E+00 -0.00000000000E+00 -0.72877188796E+02  0.72877188970E+02  0.50400000000E-02 0. -1.
        -24    2    1    2    0    0  0.00000000000E+00  0.00000000000E+00 -0.50809605866E+02  0.94944772046E+02  0.80205322084E+02 0.  0.
         66    2    3    3    0    0 -0.27251896711E+02  0.12450680609E+02  0.60894116377E+01  0.30639292661E+02  0.19999996769E+01 0.  0.
         13    1    3    3    0    0  0.27251896711E+02 -0.12450680609E+02 -0.56899017504E+02  0.64305479385E+02  0.10566000000E+00 0. -1.
         13    1    4    4    0    0 -0.56514663761E+01  0.25824072575E+01  0.89847335017E+00  0.62790379709E+01  0.10566000000E+00 0. -1.
        -13    1    4    4    0    0 -0.69389899423E+01  0.27183694799E+01  0.22491987526E+01  0.77851893434E+01  0.10566000000E+00 0.  1.
        -14    1    4    4    0    0 -0.14661440392E+02  0.71499038720E+01  0.29417395349E+01  0.16575065347E+02  0.00000000000E+00 0.  1.
<mgrwt>
<rscale>  0 0.80205322E+02</rscale>
<asrwt>0</asrwt>
<pdfrwt beam="1">  1        1 0.11211875E-01 0.80205322E+02</pdfrwt>
<pdfrwt beam="2">  1       -2 0.33950128E-02 0.80205322E+02</pdfrwt>
<totfact> 0.13862048E+05</totfact>
</mgrwt>
</event>
<event>
 8    1  0.7756875E-014  0.8652627E+02  0.7818608E-02  0.1311489E+00
          1   -1    0    0  501    0  0.00000000000E+00  0.00000000000E+00  0.45588257955E+02  0.45588258234E+02  0.50400000000E-02 0. -1.
         -2   -1    0    0    0  501 -0.00000000000E+00 -0.00000000000E+00 -0.41056600205E+02  0.41056600284E+02  0.25500000000E-02 0.  1.
        -24    2    1    2    0    0  0.00000000000E+00 -0.35527136788E-14  0.45316577500E+01  0.86644858518E+02  0.86526271072E+02 0.  0.
         66    2    3    3    0    0 -0.30351001579E+02  0.16672940861E+02 -0.23662923437E+02  0.41989334491E+02  0.20000028974E+01 0.  0.
         13    1    3    3    0    0  0.30351001579E+02 -0.16672940861E+02  0.28194581187E+02  0.44655524027E+02  0.10566000000E+00 0. -1.
         13    1    4    4    0    0 -0.65426589533E+01  0.37578683207E+01 -0.55429788716E+01  0.93628916100E+01  0.10566000000E+00 0.  1.
        -13    1    4    4    0    0 -0.28100875901E+01  0.21190383960E+01 -0.23493672900E+01  0.42329194047E+01  0.10566000000E+00 0.  1.
        -14    1    4    4    0    0 -0.20998255035E+02  0.10796034145E+02 -0.15770577276E+02  0.28393523476E+02  0.00000000000E+00 0.  1.
<mgrwt>
<rscale>  0 0.86526271E+02</rscale>
<asrwt>0</asrwt>
<pdfrwt beam="1">  1        1 0.70135782E-02 0.86526271E+02</pdfrwt>
<pdfrwt beam="2">  1       -2 0.63164000E-02 0.86526271E+02</pdfrwt>
<totfact> 0.10397461E+05</totfact>
</mgrwt>
</event>
<event>
 8    1  0.7756875E-014  0.7859457E+02  0.7818608E-02  0.1333088E+00
         -2   -1    0    0    0  501 -0.00000000000E+00  0.00000000000E+00  0.52717988958E+01  0.52717995125E+01  0.25500000000E-02 0.  1.
          1   -1    0    0  501    0  0.00000000000E+00 -0.00000000000E+00 -0.29293161824E+03  0.29293161828E+03  0.50400000000E-02 0. -1.
        -24    2    1    2    0    0  0.00000000000E+00  0.00000000000E+00 -0.28765981934E+03  0.29820341780E+03  0.78594571823E+02 0.  0.
         66    2    3    3    0    0  0.19280257608E+02 -0.29920136615E+02 -0.80965513729E+02  0.88466701777E+02  0.20000003804E+01 0.  0.
         13    1    3    3    0    0 -0.19280257608E+02  0.29920136615E+02 -0.20669430562E+03  0.20973671602E+03  0.10566000000E+00 0. -1.
         13    1    4    4    0    0  0.73512502056E+01 -0.11785514297E+02 -0.33476964835E+02  0.36244414265E+02  0.10566000000E+00 0. -1.
        -13    1    4    4    0    0  0.97242348027E+01 -0.15025635811E+02 -0.39895380723E+02  0.43726228297E+02  0.10566000000E+00 0.  1.
         14    1    4    4    0    0  0.22047725992E+01 -0.31089865066E+01 -0.75931681708E+01  0.84960592149E+01  0.00000000000E+00 0. -1.
<mgrwt>
<rscale>  0 0.78594572E+02</rscale>
<asrwt>0</asrwt>
<pdfrwt beam="1">  1        1 0.45066390E-01 0.78594572E+02</pdfrwt>
<pdfrwt beam="2">  1       -2 0.81104626E-03 0.78594572E+02</pdfrwt>
<totfact> 0.18818236E+05</totfact>
</mgrwt>
</event>
<event>
 8    1  0.7756875E-014  0.7854729E+02  0.7818608E-02  0.1333225E+00
         -2   -1    0    0    0  501 -0.00000000000E+00  0.00000000000E+00  0.10469481635E+02  0.10469481946E+02  0.25500000000E-02 0.  1.
          1   -1    0    0  501    0  0.00000000000E+00 -0.00000000000E+00 -0.14732524788E+03  0.14732524797E+03  0.50400000000E-02 0. -1.
        -24    2    1    2    0    0  0.00000000000E+00  0.00000000000E+00 -0.13685576625E+03  0.15779472991E+03  0.78547285336E+02 0.  0.
         66    2    3    3    0    0 -0.10269087099E+02  0.34937646117E+02 -0.39062227848E+02  0.53441097573E+02  0.19999998447E+01 0.  0.
         13    1    3    3    0    0  0.10269087099E+02 -0.34937646117E+02 -0.97793538399E+02  0.10435363234E+03  0.10566000000E+00 0. -1.
         13    1    4    4    0    0 -0.14723017820E+01  0.73036998598E+01 -0.78564351528E+01  0.10828039598E+02  0.10566000000E+00 0. -1.
        -13    1    4    4    0    0 -0.35428576445E+01  0.10545159784E+02 -0.12647622482E+02  0.16844160818E+02  0.10566000000E+00 0.  1.
        -14    1    4    4    0    0 -0.52539276729E+01  0.17088786472E+02 -0.18558170213E+02  0.25768897158E+02  0.00000000000E+00 0.  1.
<mgrwt>
<rscale>  0 0.78547285E+02</rscale>
<asrwt>0</asrwt>
<pdfrwt beam="1">  1        1 0.22665421E-01 0.78547285E+02</pdfrwt>
<pdfrwt beam="2">  1       -2 0.16106896E-02 0.78547285E+02</pdfrwt>
<totfact> 0.16525432E+05</totfact>
</mgrwt>
</event>
<event>
 8    1  0.7756875E-014  0.7986254E+02  0.7818608E-02  0.1329442E+00
         -2   -1    0    0    0  501 -0.00000000000E+00  0.00000000000E+00  0.40130909040E+03  0.40130909041E+03  0.25500000000E-02 0.  1.
          1   -1    0    0  501    0  0.00000000000E+00 -0.00000000000E+00 -0.39732609844E+01  0.39732641810E+01  0.50400000000E-02 0. -1.
        -24    2    1    2    0    0  0.00000000000E+00  0.35527136788E-14  0.39733582941E+03  0.40528235459E+03  0.79862541933E+02 0.  0.
         66    2    3    3    0    0  0.77431022710E+01 -0.30703370998E+02  0.32204159339E+03  0.32360074242E+03  0.19999999302E+01 0.  0.
         13    1    3    3    0    0 -0.77431022710E+01  0.30703370998E+02  0.75294236025E+02  0.81681612166E+02  0.10566000000E+00 0. -1.
         13    1    4    4    0    0  0.28303464728E+01 -0.11547521336E+02  0.12680296607E+03  0.12735917509E+03  0.10566000000E+00 0.  1.
        -13    1    4    4    0    0  0.37460210751E+01 -0.13732965276E+02  0.14542616411E+03  0.14612120784E+03  0.10566000000E+00 0. -1.
         14    1    4    4    0    0  0.11667347230E+01 -0.54228843859E+01  0.49812463203E+02  0.50120359489E+02  0.00000000000E+00 0. -1.
<mgrwt>
<rscale>  0 0.79862542E+02</rscale>
<asrwt>0</asrwt>
<pdfrwt beam="1">  1        1 0.61127117E-03 0.79862542E+02</pdfrwt>
<pdfrwt beam="2">  1       -2 0.61739860E-01 0.79862542E+02</pdfrwt>
<totfact> 0.59228113E+04</totfact>
</mgrwt>
</event>
<event>
 8    1  0.7756875E-014  0.8080876E+02  0.7818608E-02  0.1326772E+00
          1   -1    0    0  501    0  0.00000000000E+00  0.00000000000E+00  0.11547841133E+02  0.11547842232E+02  0.50400000000E-02 0. -1.
         -2   -1    0    0    0  501 -0.00000000000E+00 -0.00000000000E+00 -0.14136962800E+03  0.14136962802E+03  0.25500000000E-02 0.  1.
        -24    2    1    2    0    0  0.35527136788E-14  0.35527136788E-14 -0.12982178686E+03  0.15291747025E+03  0.80808764152E+02 0.  0.
         66    2    3    3    0    0 -0.29887473361E+02 -0.21793186581E+02 -0.34302554603E+02  0.50486327815E+02  0.19999996654E+01 0.  0.
         13    1    3    3    0    0  0.29887473361E+02  0.21793186581E+02 -0.95519232262E+02  0.10243114244E+03  0.10566000000E+00 0. -1.
         13    1    4    4    0    0 -0.22576941991E+02 -0.16212236088E+02 -0.25035055901E+02  0.37407487174E+02  0.10566000000E+00 0. -1.
        -13    1    4    4    0    0 -0.62337783293E+01 -0.46818869153E+01 -0.82083500153E+01  0.11321140903E+02  0.10566000000E+00 0.  1.
         14    1    4    4    0    0 -0.10767530410E+01 -0.89906357694E+00 -0.10591486863E+01  0.17576997373E+01  0.00000000000E+00 0. -1.
<mgrwt>
<rscale>  0 0.80808764E+02</rscale>
<asrwt>0</asrwt>
<pdfrwt beam="1">  1        1 0.17765911E-02 0.80808764E+02</pdfrwt>
<pdfrwt beam="2">  1       -2 0.21749172E-01 0.80808764E+02</pdfrwt>
<totfact> 0.93869022E+04</totfact>
</mgrwt>
</event>
<event>
 8    1  0.7756875E-014  0.8146658E+02  0.7818608E-02  0.1324940E+00
          1   -1    0    0  501    0  0.00000000000E+00  0.00000000000E+00  0.12646171019E+03  0.12646171029E+03  0.50400000000E-02 0. -1.
         -2   -1    0    0    0  501 -0.00000000000E+00 -0.00000000000E+00 -0.13120184763E+02  0.13120185011E+02  0.25500000000E-02 0.  1.
        -24    2    1    2    0    0  0.00000000000E+00  0.35527136788E-14  0.11334152542E+03  0.13958189530E+03  0.81466582778E+02 0.  0.
         66    2    3    3    0    0 -0.88187647521E+01  0.29957947650E+02  0.11961849456E+02  0.33501269817E+02  0.19999994360E+01 0.  0.
         13    1    3    3    0    0  0.88187647521E+01 -0.29957947650E+02  0.10137967597E+03  0.10608062548E+03  0.10566000000E+00 0. -1.
         13    1    4    4    0    0 -0.40607656917E+01  0.10703908327E+02  0.41997438918E+01  0.12194772826E+02  0.10566000000E+00 0. -1.
        -13    1    4    4    0    0 -0.11284366200E+01  0.52406569290E+01  0.23044812437E+01  0.58360647778E+01  0.10566000000E+00 0.  1.
        -14    1    4    4    0    0 -0.36295624404E+01  0.14013382395E+02  0.54576243206E+01  0.15470432213E+02  0.00000000000E+00 0.  1.
<mgrwt>
<rscale>  0 0.81466583E+02</rscale>
<asrwt>0</asrwt>
<pdfrwt beam="1">  1        1 0.19455648E-01 0.81466583E+02</pdfrwt>
<pdfrwt beam="2">  1       -2 0.20184899E-02 0.81466583E+02</pdfrwt>
<totfact> 0.14578349E+05</totfact>
</mgrwt>
</event>
<event>
 8    1  0.7756875E-014  0.7880239E+02  0.7818608E-02  0.1332485E+00
          1   -1    0    0  501    0  0.00000000000E+00  0.00000000000E+00  0.80956169753E+02  0.80956169909E+02  0.50400000000E-02 0. -1.
         -2   -1    0    0    0  501 -0.00000000000E+00 -0.00000000000E+00 -0.19176476767E+02  0.19176476936E+02  0.25500000000E-02 0.  1.
        -24    2    1    2    0    0  0.00000000000E+00  0.00000000000E+00  0.61779692986E+02  0.10013264685E+03  0.78802388916E+02 0.  0.
         66    2    3    3    0    0  0.28526299631E+02 -0.19597327569E+02  0.54771569615E+02  0.64820751177E+02  0.19999816292E+01 0.  0.
         13    1    3    3    0    0 -0.28526299631E+02  0.19597327569E+02  0.70081233711E+01  0.35311895669E+02  0.10566000000E+00 0. -1.
         13    1    4    4    0    0  0.52081068037E+01 -0.41257716318E+01  0.10631535791E+02  0.12537427382E+02  0.10566000000E+00 0. -1.
        -13    1    4    4    0    0  0.18126740045E+02 -0.12655782586E+02  0.34327923125E+02  0.40830931996E+02  0.10566000000E+00 0.  1.
        -14    1    4    4    0    0  0.51914527826E+01 -0.28157733511E+01  0.98121106984E+01  0.11452391799E+02  0.00000000000E+00 0.  1.
<mgrwt>
<rscale>  0 0.78802389E+02</rscale>
<asrwt>0</asrwt>
<pdfrwt beam="1">  1        1 0.12454796E-01 0.78802389E+02</pdfrwt>
<pdfrwt beam="2">  1       -2 0.29502272E-02 0.78802389E+02</pdfrwt>
<totfact> 0.14791066E+05</totfact>
</mgrwt>
</event>
<event>
 8    1  0.7756875E-014  0.7866797E+02  0.7818608E-02  0.1332875E+00
         -2   -1    0    0    0  501 -0.00000000000E+00  0.00000000000E+00  0.47788351078E+03  0.47788351078E+03  0.25500000000E-02 0.  1.
          1   -1    0    0  501    0  0.00000000000E+00 -0.00000000000E+00 -0.32375281103E+01  0.32375320333E+01  0.50400000000E-02 0. -1.
        -24    2    1    2    0    0 -0.88817841970E-15  0.00000000000E+00  0.47464598267E+03  0.48112104282E+03  0.78667966668E+02 0.  0.
         66    2    3    3    0    0  0.44406247744E+01 -0.20081222492E+02  0.44235059594E+03  0.44283295312E+03  0.19999976427E+01 0.  0.
         13    1    3    3    0    0 -0.44406247744E+01  0.20081222492E+02  0.32295386722E+02  0.38288089698E+02  0.10566000000E+00 0. -1.
         13    1    4    4    0    0  0.24962623829E+01 -0.84839196496E+01  0.20552081657E+03  0.20571102408E+03  0.10566000000E+00 0. -1.
        -13    1    4    4    0    0  0.10131329367E+01 -0.48590103668E+01  0.99352845809E+02  0.99476809129E+02  0.10566000000E+00 0.  1.
         14    1    4    4    0    0  0.93122945485E+00 -0.67382924753E+01  0.13747693356E+03  0.13764511991E+03  0.00000000000E+00 0. -1.
<mgrwt>
<rscale>  0 0.78667967E+02</rscale>
<asrwt>0</asrwt>
<pdfrwt beam="1">  1        1 0.49808176E-03 0.78667967E+02</pdfrwt>
<pdfrwt beam="2">  1       -2 0.73520509E-01 0.78667967E+02</pdfrwt>
<totfact> 0.54451508E+04</totfact>
</mgrwt>
</event>
<event>
 8    1  0.7756875E-014  0.7915133E+02  0.7818608E-02  0.1331477E+00
         -2   -1    0    0    0  501 -0.00000000000E+00  0.00000000000E+00  0.11682749748E+03  0.11682749750E+03  0.25500000000E-02 0.  1.
          1   -1    0    0  501    0  0.00000000000E+00 -0.00000000000E+00 -0.13406373030E+02  0.13406373977E+02  0.50400000000E-02 0. -1.
        -24    2    1    2    0    0  0.00000000000E+00  0.35527136788E-14  0.10342112445E+03  0.13023387148E+03  0.79151325316E+02 0.  0.
         66    2    3    3    0    0  0.83312207862E+00  0.26935911571E+02  0.99374010042E+02  0.10298267474E+03  0.20000002725E+01 0.  0.
         13    1    3    3    0    0 -0.83312207862E+00 -0.26935911571E+02  0.40471144036E+01  0.27251196737E+02  0.10566000000E+00 0. -1.
         13    1    4    4    0    0  0.31931171124E-01  0.70124917607E+01  0.24364709117E+02  0.25354018906E+02  0.10566000000E+00 0. -1.
        -13    1    4    4    0    0  0.30553272293E+00  0.14944100660E+01  0.46944755983E+01  0.49371932177E+01  0.10566000000E+00 0.  1.
        -14    1    4    4    0    0  0.49565818456E+00  0.18429009744E+02  0.70314825326E+02  0.72691462620E+02  0.00000000000E+00 0.  1.
<mgrwt>
<rscale>  0 0.79151325E+02</rscale>
<asrwt>0</asrwt>
<pdfrwt beam="1">  1        1 0.20625190E-02 0.79151325E+02</pdfrwt>
<pdfrwt beam="2">  1       -2 0.17973461E-01 0.79151325E+02</pdfrwt>
<totfact> 0.10472691E+05</totfact>
</mgrwt>
</event>
<event>
 8    1  0.7756875E-014  0.7873414E+02  0.7818608E-02  0.1332683E+00
          1   -1    0    0  501    0  0.00000000000E+00  0.00000000000E+00  0.37715708464E+02  0.37715708801E+02  0.50400000000E-02 0. -1.
         -2   -1    0    0    0  501 -0.00000000000E+00 -0.00000000000E+00 -0.41090730311E+02  0.41090730390E+02  0.25500000000E-02 0.  1.
        -24    2    1    2    0    0  0.17763568394E-14  0.71054273576E-14 -0.33750218467E+01  0.78806439191E+02  0.78734135453E+02 0.  0.
         66    2    3    3    0    0  0.15303414797E+02  0.36175611429E+02  0.52516131572E+00  0.39333765613E+02  0.19999890363E+01 0.  0.
         13    1    3    3    0    0 -0.15303414797E+02 -0.36175611429E+02 -0.39001831624E+01  0.39472673579E+02  0.10566000000E+00 0. -1.
         13    1    4    4    0    0  0.27257730895E+01  0.79876333112E+01  0.50913721759E+00  0.84559156566E+01  0.10566000000E+00 0. -1.
        -13    1    4    4    0    0  0.11386713206E+02  0.25441968968E+02  0.25476212197E+00  0.27875205657E+02  0.10566000000E+00 0.  1.
         14    1    4    4    0    0  0.11909285013E+01  0.27460091495E+01 -0.23873802383E+00  0.30026442994E+01  0.00000000000E+00 0. -1.
<mgrwt>
<rscale>  0 0.78734135E+02</rscale>
<asrwt>0</asrwt>
<pdfrwt beam="1">  1        1 0.58024167E-02 0.78734135E+02</pdfrwt>
<pdfrwt beam="2">  1       -2 0.63216509E-02 0.78734135E+02</pdfrwt>
<totfact> 0.13155333E+05</totfact>
</mgrwt>
</event>
<event>
 8    1  0.7756875E-014  0.8401071E+02  0.7818608E-02  0.1318040E+00
         -2   -1    0    0    0  501 -0.00000000000E+00  0.00000000000E+00  0.14179127259E+03  0.14179127261E+03  0.25500000000E-02 0.  1.
          1   -1    0    0  501    0  0.00000000000E+00 -0.00000000000E+00 -0.12443993248E+02  0.12443994269E+02  0.50400000000E-02 0. -1.
        -24    2    1    2    0    0  0.35527136788E-14 -0.35527136788E-14  0.12934727934E+03  0.15423526688E+03  0.84010706918E+02 0.  0.
         66    2    3    3    0    0 -0.26771085958E+02  0.14019251941E+02  0.11821067154E+03  0.12202865784E+03  0.20000002944E+01 0.  0.
         13    1    3    3    0    0  0.26771085958E+02 -0.14019251941E+02  0.11136607804E+02  0.32206609038E+02  0.10566000000E+00 0. -1.
         13    1    4    4    0    0 -0.74194112395E+01  0.43554182488E+01  0.31741818949E+02  0.32887255366E+02  0.10566000000E+00 0. -1.
        -13    1    4    4    0    0 -0.18666434655E+01  0.10941543899E+01  0.10038946655E+02  0.10270011959E+02  0.10566000000E+00 0.  1.
        -14    1    4    4    0    0 -0.17485031253E+02  0.85696793018E+01  0.76429905935E+02  0.78871390520E+02  0.00000000000E+00 0.  1.
<mgrwt>
<rscale>  0 0.84010707E+02</rscale>
<asrwt>0</asrwt>
<pdfrwt beam="1">  1        1 0.19144606E-02 0.84010707E+02</pdfrwt>
<pdfrwt beam="2">  1       -2 0.21814042E-01 0.84010707E+02</pdfrwt>
<totfact> 0.84848401E+04</totfact>
</mgrwt>
</event>
<event>
 8    1  0.7756875E-014  0.7875987E+02  0.7818608E-02  0.1332608E+00
          1   -1    0    0  501    0  0.00000000000E+00  0.00000000000E+00  0.54613783291E+01  0.54613806546E+01  0.50400000000E-02 0. -1.
         -2   -1    0    0    0  501 -0.00000000000E+00 -0.00000000000E+00 -0.28395375395E+03  0.28395375396E+03  0.25500000000E-02 0.  1.
        -24    2    1    2    0    0 -0.17763568394E-14 -0.35527136788E-14 -0.27849237562E+03  0.28941513462E+03  0.78759868371E+02 0.  0.
         66    2    3    3    0    0 -0.78525844000E+01 -0.17457664448E+02 -0.26568933954E+03  0.26638554438E+03  0.19999940928E+01 0.  0.
         13    1    3    3    0    0  0.78525844000E+01  0.17457664448E+02 -0.12803036078E+02  0.23029590240E+02  0.10566000000E+00 0. -1.
         13    1    4    4    0    0 -0.96656184033E+00 -0.12044196143E+01 -0.21775513422E+02  0.21830460766E+02  0.10566000000E+00 0. -1.
        -13    1    4    4    0    0 -0.35290657172E+01 -0.86763695402E+01 -0.12078214192E+03  0.12114483342E+03  0.10566000000E+00 0.  1.
         14    1    4    4    0    0 -0.33569568424E+01 -0.75768752939E+01 -0.12313168420E+03  0.12341025019E+03  0.00000000000E+00 0. -1.
<mgrwt>
<rscale>  0 0.78759868E+02</rscale>
<asrwt>0</asrwt>
<pdfrwt beam="1">  1        1 0.84021245E-03 0.78759868E+02</pdfrwt>
<pdfrwt beam="2">  1       -2 0.43685182E-01 0.78759868E+02</pdfrwt>
<totfact> 0.75339011E+04</totfact>
</mgrwt>
</event>
<event>
 8    1  0.7756875E-014  0.7453155E+02  0.7818608E-02  0.1345328E+00
          1   -1    0    0  501    0  0.00000000000E+00  0.00000000000E+00  0.12426712221E+03  0.12426712231E+03  0.50400000000E-02 0. -1.
         -2   -1    0    0    0  501 -0.00000000000E+00 -0.00000000000E+00 -0.11175425453E+02  0.11175425744E+02  0.25500000000E-02 0.  1.
        -24    2    1    2    0    0 -0.17763568394E-14  0.35527136788E-14  0.11309169675E+03  0.13544254805E+03  0.74531550019E+02 0.  0.
         66    2    3    3    0    0  0.15177109318E+02 -0.30568703551E+02  0.29513505003E+02  0.45164557466E+02  0.19999973822E+01 0.  0.
         13    1    3    3    0    0 -0.15177109318E+02  0.30568703551E+02  0.83578191750E+02  0.90277990586E+02  0.10566000000E+00 0. -1.
         13    1    4    4    0    0  0.42795021630E+01 -0.84843077453E+01  0.72673747496E+01  0.11963424111E+02  0.10566000000E+00 0. -1.
        -13    1    4    4    0    0  0.71681869079E+01 -0.13497172758E+02  0.13652418982E+02  0.20492834945E+02  0.10566000000E+00 0.  1.
         14    1    4    4    0    0  0.37294202467E+01 -0.85872230468E+01  0.85937112722E+01  0.12708298409E+02  0.00000000000E+00 0. -1.
<mgrwt>
<rscale>  0 0.74531550E+02</rscale>
<asrwt>0</asrwt>
<pdfrwt beam="1">  1        1 0.19118019E-01 0.74531550E+02</pdfrwt>
<pdfrwt beam="2">  1       -2 0.17192962E-02 0.74531550E+02</pdfrwt>
<totfact> 0.18438850E+05</totfact>
</mgrwt>
</event>
<event>
 8    1  0.7756875E-014  0.7849990E+02  0.7818608E-02  0.1333363E+00
          1   -1    0    0  501    0  0.00000000000E+00  0.00000000000E+00  0.50306689315E+02  0.50306689568E+02  0.50400000000E-02 0. -1.
         -2   -1    0    0    0  501 -0.00000000000E+00 -0.00000000000E+00 -0.30623331409E+02  0.30623331516E+02  0.25500000000E-02 0.  1.
        -24    2    1    2    0    0 -0.44408920985E-15  0.71054273576E-14  0.19683357906E+02  0.80930021083E+02  0.78499896396E+02 0.  0.
         66    2    3    3    0    0  0.36525411290E+01 -0.37559379575E+02  0.20880034222E+02  0.43174342716E+02  0.19999972807E+01 0.  0.
         13    1    3    3    0    0 -0.36525411290E+01  0.37559379575E+02 -0.11966763164E+01  0.37755678367E+02  0.10566000000E+00 0. -1.
         13    1    4    4    0    0  0.22060599362E+01 -0.25915023702E+02  0.14988499068E+02  0.30018684552E+02  0.10566000000E+00 0. -1.
        -13    1    4    4    0    0  0.22133713892E+00 -0.31213036731E+01  0.12272840471E+01  0.33628733126E+01  0.10566000000E+00 0.  1.
        -14    1    4    4    0    0  0.12251440539E+01 -0.85230521995E+01  0.46642511076E+01  0.97927848513E+01  0.00000000000E+00 0.  1.
<mgrwt>
<rscale>  0 0.78499896E+02</rscale>
<asrwt>0</asrwt>
<pdfrwt beam="1">  1        1 0.77394907E-02 0.78499896E+02</pdfrwt>
<pdfrwt beam="2">  1       -2 0.47112818E-02 0.78499896E+02</pdfrwt>
<totfact> 0.13880384E+05</totfact>
</mgrwt>
</event>
<event>
 8    1  0.7756875E-014  0.8014741E+02  0.7818608E-02  0.1328634E+00
         -2   -1    0    0    0  501 -0.00000000000E+00  0.00000000000E+00  0.13754181007E+02  0.13754181244E+02  0.25500000000E-02 0.  1.
          1   -1    0    0  501    0  0.00000000000E+00 -0.00000000000E+00 -0.11675735267E+03  0.11675735278E+03  0.50400000000E-02 0. -1.
        -24    2    1    2    0    0  0.00000000000E+00 -0.35527136788E-14 -0.10300317166E+03  0.13051153402E+03  0.80147408817E+02 0.  0.
         66    2    3    3    0    0  0.94597110513E+01 -0.20873897909E+02  0.19484718709E+01  0.23086842300E+02  0.19999994188E+01 0.  0.
         13    1    3    3    0    0 -0.94597110513E+01  0.20873897909E+02 -0.10495164353E+03  0.10742469172E+03  0.10566000000E+00 0. -1.
         13    1    4    4    0    0  0.33117778404E+01 -0.80826938084E+01  0.33691196603E+00  0.87419955029E+01  0.10566000000E+00 0. -1.
        -13    1    4    4    0    0  0.45474659600E+01 -0.81937176079E+01  0.75539063711E+00  0.94020335005E+01  0.10566000000E+00 0.  1.
         14    1    4    4    0    0  0.16004672510E+01 -0.45974864928E+01  0.85616926780E+00  0.49428132969E+01  0.00000000000E+00 0. -1.
<mgrwt>
<rscale>  0 0.80147409E+02</rscale>
<asrwt>0</asrwt>
<pdfrwt beam="1">  1        1 0.17962669E-01 0.80147409E+02</pdfrwt>
<pdfrwt beam="2">  1       -2 0.21160279E-02 0.80147409E+02</pdfrwt>
<totfact> 0.15019430E+05</totfact>
</mgrwt>
</event>
<event>
 8    1  0.7756875E-014  0.7974004E+02  0.7818608E-02  0.1329791E+00
         -2   -1    0    0    0  501 -0.00000000000E+00  0.00000000000E+00  0.74308184340E+02  0.74308184383E+02  0.25500000000E-02 0.  1.
          1   -1    0    0  501    0  0.00000000000E+00 -0.00000000000E+00 -0.21392237971E+02  0.21392238565E+02  0.50400000000E-02 0. -1.
        -24    2    1    2    0    0 -0.71054273576E-14 -0.88817841970E-15  0.52915946369E+02  0.95700422948E+02  0.79740037449E+02 0.  0.
         66    2    3    3    0    0  0.28631288613E+02 -0.65700684949E+01 -0.58338429955E+01  0.30015832654E+02  0.19999995361E+01 0.  0.
         13    1    3    3    0    0 -0.28631288613E+02  0.65700684949E+01  0.58749789364E+02  0.65684590294E+02  0.10566000000E+00 0. -1.
         13    1    4    4    0    0  0.54903919568E+00 -0.13596937621E+00 -0.25828856399E+00  0.63072080000E+00  0.10566000000E+00 0. -1.
        -13    1    4    4    0    0  0.10711862093E+02 -0.20070232398E+01 -0.14945458241E+01  0.11000771021E+02  0.10566000000E+00 0.  1.
        -14    1    4    4    0    0  0.17370387324E+02 -0.44270758789E+01 -0.40810086074E+01  0.18384340834E+02  0.00000000000E+00 0.  1.
<mgrwt>
<rscale>  0 0.79740037E+02</rscale>
<asrwt>0</asrwt>
<pdfrwt beam="1">  1        1 0.32911137E-02 0.79740037E+02</pdfrwt>
<pdfrwt beam="2">  1       -2 0.11432028E-01 0.79740037E+02</pdfrwt>
<totfact> 0.11446307E+05</totfact>
</mgrwt>
</event>
<event>
 8    1  0.7756875E-014  0.7898747E+02  0.7818608E-02  0.1331950E+00
          1   -1    0    0  501    0  0.00000000000E+00  0.00000000000E+00  0.48996007346E+02  0.48996007606E+02  0.50400000000E-02 0. -1.
         -2   -1    0    0    0  501 -0.00000000000E+00 -0.00000000000E+00 -0.31834333442E+02  0.31834333544E+02  0.25500000000E-02 0.  1.
        -24    2    1    2    0    0  0.00000000000E+00  0.00000000000E+00  0.17161673905E+02  0.80830341150E+02  0.78987473685E+02 0.  0.
         66    2    3    3    0    0  0.61936467128E+01 -0.13609175204E+02 -0.28792300393E+02  0.32504883810E+02  0.20000000575E+01 0.  0.
         13    1    3    3    0    0 -0.61936467128E+01  0.13609175204E+02  0.45953974298E+02  0.48325457340E+02  0.10566000000E+00 0. -1.
         13    1    4    4    0    0  0.30515150241E+01 -0.88609182994E+01 -0.17896585816E+02  0.20202142583E+02  0.10566000000E+00 0. -1.
        -13    1    4    4    0    0  0.21652933638E+01 -0.30703470514E+01 -0.67814271537E+01  0.77533505431E+01  0.10566000000E+00 0.  1.
         14    1    4    4    0    0  0.97683832483E+00 -0.16779098529E+01 -0.41142874234E+01  0.45493906834E+01  0.00000000000E+00 0. -1.
<mgrwt>
<rscale>  0 0.78987474E+02</rscale>
<asrwt>0</asrwt>
<pdfrwt beam="1">  1        1 0.75378473E-02 0.78987474E+02</pdfrwt>
<pdfrwt beam="2">  1       -2 0.48975898E-02 0.78987474E+02</pdfrwt>
<totfact> 0.13588172E+05</totfact>
</mgrwt>
</event>
<event>
 8    1  0.7756875E-014  0.7461328E+02  0.7818608E-02  0.1345073E+00
          1   -1    0    0  501    0  0.00000000000E+00  0.00000000000E+00  0.14549464591E+03  0.14549464600E+03  0.50400000000E-02 0. -1.
         -2   -1    0    0    0  501 -0.00000000000E+00 -0.00000000000E+00 -0.95658870401E+01  0.95658873800E+01  0.25500000000E-02 0.  1.
        -24    2    1    2    0    0  0.00000000000E+00  0.00000000000E+00  0.13592875887E+03  0.15506053338E+03  0.74613279806E+02 0.  0.
         66    2    3    3    0    0  0.24402961759E+02 -0.76015243645E+01  0.11614336670E+02  0.28145701911E+02  0.20000011218E+01 0.  0.
         13    1    3    3    0    0 -0.24402961759E+02  0.76015243645E+01  0.12431442220E+03  0.12691483147E+03  0.10566000000E+00 0. -1.
         13    1    4    4    0    0  0.46190727984E+01 -0.21254015206E+01  0.19966062906E+01  0.54635854396E+01  0.10566000000E+00 0. -1.
        -13    1    4    4    0    0  0.14372281338E+02 -0.37485420349E+01  0.72379327858E+01  0.16523101201E+02  0.10566000000E+00 0.  1.
        -14    1    4    4    0    0  0.54116076221E+01 -0.17275808090E+01  0.23797975934E+01  0.61590152697E+01  0.00000000000E+00 0.  1.
<mgrwt>
<rscale>  0 0.74613280E+02</rscale>
<asrwt>0</asrwt>
<pdfrwt beam="1">  1        1 0.22383791E-01 0.74613280E+02</pdfrwt>
<pdfrwt beam="2">  1       -2 0.14716750E-02 0.74613280E+02</pdfrwt>
<totfact> 0.18901682E+05</totfact>
</mgrwt>
</event>
<event>
 8    1  0.7756875E-014  0.7906431E+02  0.7818608E-02  0.1331728E+00
          1   -1    0    0  501    0  0.00000000000E+00  0.00000000000E+00  0.18849334027E+03  0.18849334034E+03  0.50400000000E-02 0. -1.
         -2   -1    0    0    0  501 -0.00000000000E+00 -0.00000000000E+00 -0.82909634147E+01  0.82909638069E+01  0.25500000000E-02 0.  1.
        -24    2    1    2    0    0 -0.88817841970E-15  0.00000000000E+00  0.18020237686E+03  0.19678430415E+03  0.79064313906E+02 0.  0.
         66    2    3    3    0    0 -0.78195244642E+01 -0.34259105336E+02  0.45223249379E+02  0.57305964322E+02  0.20000003032E+01 0.  0.
         13    1    3    3    0    0  0.78195244642E+01  0.34259105336E+02  0.13497912748E+03  0.13947833983E+03  0.10566000000E+00 0. -1.
         13    1    4    4    0    0 -0.15703708362E+01 -0.47207002523E+01  0.62647609623E+01  0.80005918147E+01  0.10566000000E+00 0. -1.
        -13    1    4    4    0    0 -0.24589024844E+01 -0.90534200318E+01  0.11666402041E+02  0.14970862244E+02  0.10566000000E+00 0.  1.
        -14    1    4    4    0    0 -0.37902511435E+01 -0.20484985052E+02  0.27292086376E+02  0.34334510264E+02  0.00000000000E+00 0.  1.
<mgrwt>
<rscale>  0 0.79064314E+02</rscale>
<asrwt>0</asrwt>
<pdfrwt beam="1">  1        1 0.28998974E-01 0.79064314E+02</pdfrwt>
<pdfrwt beam="2">  1       -2 0.12755329E-02 0.79064314E+02</pdfrwt>
<totfact> 0.17007159E+05</totfact>
</mgrwt>
</event>
<event>
 8    1  0.7756875E-014  0.8062116E+02  0.7818608E-02  0.1327298E+00
         -2   -1    0    0    0  501 -0.00000000000E+00  0.00000000000E+00  0.16318953548E+03  0.16318953550E+03  0.25500000000E-02 0.  1.
          1   -1    0    0  501    0  0.00000000000E+00 -0.00000000000E+00 -0.99573963248E+01  0.99573976003E+01  0.50400000000E-02 0. -1.
        -24    2    1    2    0    0  0.00000000000E+00  0.17763568394E-14  0.15323213915E+03  0.17314693310E+03  0.80621163300E+02 0.  0.
         66    2    3    3    0    0  0.12076435236E+02 -0.10022973343E+02  0.15634790483E+03  0.15714632554E+03  0.20000009484E+01 0.  0.
         13    1    3    3    0    0 -0.12076435236E+02  0.10022973343E+02 -0.31157656706E+01  0.16000607563E+02  0.10566000000E+00 0. -1.
         13    1    4    4    0    0  0.22651316866E+01 -0.12713044778E+01  0.28676839227E+02  0.28794431905E+02  0.10566000000E+00 0. -1.
        -13    1    4    4    0    0  0.28775000198E+01 -0.18749724093E+01  0.33888708721E+02  0.34062461313E+02  0.10566000000E+00 0.  1.
         14    1    4    4    0    0  0.69338035292E+01 -0.68766964558E+01  0.93782356878E+02  0.94289432319E+02  0.00000000000E+00 0. -1.
<mgrwt>
<rscale>  0 0.80621163E+02</rscale>
<asrwt>0</asrwt>
<pdfrwt beam="1">  1        1 0.15319074E-02 0.80621163E+02</pdfrwt>
<pdfrwt beam="2">  1       -2 0.25106079E-01 0.80621163E+02</pdfrwt>
<totfact> 0.90038719E+04</totfact>
</mgrwt>
</event>
<event>
 8    1  0.7756875E-014  0.8053966E+02  0.7818608E-02  0.1327527E+00
         -2   -1    0    0    0  501 -0.00000000000E+00  0.00000000000E+00  0.11361317518E+03  0.11361317520E+03  0.25500000000E-02 0.  1.
          1   -1    0    0  501    0  0.00000000000E+00 -0.00000000000E+00 -0.14273511483E+02  0.14273512373E+02  0.50400000000E-02 0. -1.
        -24    2    1    2    0    0 -0.35527136788E-14  0.35527136788E-14  0.99339663693E+02  0.12788668758E+03  0.80539655306E+02 0.  0.
         66    2    3    3    0    0  0.27486508532E+02 -0.27567711696E+02  0.33494181707E+02  0.51394037332E+02  0.19999964236E+01 0.  0.
         13    1    3    3    0    0 -0.27486508532E+02  0.27567711696E+02  0.65845481986E+02  0.76492650245E+02  0.10566000000E+00 0. -1.
         13    1    4    4    0    0  0.48687380415E+01 -0.52957202902E+01  0.56882953644E+01  0.91715392217E+01  0.10566000000E+00 0. -1.
        -13    1    4    4    0    0  0.17847394469E+02 -0.17541898004E+02  0.21147508406E+02  0.32763942845E+02  0.10566000000E+00 0.  1.
         14    1    4    4    0    0  0.47703760213E+01 -0.47300934017E+01  0.66583779359E+01  0.94585552655E+01  0.00000000000E+00 0. -1.
<mgrwt>
<rscale>  0 0.80539655E+02</rscale>
<asrwt>0</asrwt>
<pdfrwt beam="1">  1        1 0.21959249E-02 0.80539655E+02</pdfrwt>
<pdfrwt beam="2">  1       -2 0.17478950E-01 0.80539655E+02</pdfrwt>
<totfact> 0.10092262E+05</totfact>
</mgrwt>
</event>
<event>
 8    1  0.7756875E-014  0.8091572E+02  0.7818608E-02  0.1326473E+00
         -2   -1    0    0    0  501 -0.00000000000E+00  0.00000000000E+00  0.80009815630E+01  0.80009819693E+01  0.25500000000E-02 0.  1.
          1   -1    0    0  501    0  0.00000000000E+00 -0.00000000000E+00 -0.20457968743E+03  0.20457968749E+03  0.50400000000E-02 0. -1.
        -24    2    1    2    0    0  0.00000000000E+00  0.35527136788E-14 -0.19657870587E+03  0.21258066946E+03  0.80915718054E+02 0.  0.
         66    2    3    3    0    0  0.28804125332E+02  0.22471028900E+02 -0.52829214436E+02  0.64261580242E+02  0.20000053548E+01 0.  0.
         13    1    3    3    0    0 -0.28804125332E+02 -0.22471028900E+02 -0.14374949143E+03  0.14831908922E+03  0.10566000000E+00 0. -1.
         13    1    4    4    0    0  0.33807305459E+00  0.47076510974E+00 -0.86501425140E+00  0.10465786495E+01  0.10566000000E+00 0. -1.
        -13    1    4    4    0    0  0.64916552194E+01  0.55625858834E+01 -0.12852559066E+02  0.15436430539E+02  0.10566000000E+00 0.  1.
        -14    1    4    4    0    0  0.21974397058E+02  0.16437677907E+02 -0.39111641118E+02  0.47778571054E+02  0.00000000000E+00 0.  1.
<mgrwt>
<rscale>  0 0.80915718E+02</rscale>
<asrwt>0</asrwt>
<pdfrwt beam="1">  1        1 0.31473794E-01 0.80915718E+02</pdfrwt>
<pdfrwt beam="2">  1       -2 0.12309204E-02 0.80915718E+02</pdfrwt>
<totfact> 0.16248820E+05</totfact>
</mgrwt>
</event>
<event>
 8    1  0.8100970E-014  0.7688060E+02  0.7818608E-02  0.1338144E+00
         -2   -1    0    0    0  501 -0.00000000000E+00  0.00000000000E+00  0.14424527493E+03  0.14424527495E+03  0.25500000000E-02 0.  1.
          1   -1    0    0  501    0  0.00000000000E+00 -0.00000000000E+00 -0.10244056534E+02  0.10244057773E+02  0.50400000000E-02 0. -1.
        -24    2    1    2    0    0 -0.17763568394E-14  0.00000000000E+00  0.13400121839E+03  0.15448933272E+03  0.76880604799E+02 0.  0.
         66    2    3    3    0    0  0.12495439315E+02  0.12822068905E+02  0.13534154216E+03  0.13653525000E+03  0.20000004478E+01 0.  0.
         13    1    3    3    0    0 -0.12495439315E+02 -0.12822068905E+02 -0.13403237701E+01  0.17954082726E+02  0.10566000000E+00 0. -1.
         13    1    4    4    0    0  0.82673488182E+01  0.89119947045E+01  0.91852636482E+02  0.92653605967E+02  0.10566000000E+00 0. -1.
        -13    1    4    4    0    0  0.39584146682E+01  0.38043421940E+01  0.42429299285E+02  0.42783158697E+02  0.10566000000E+00 0.  1.
         14    1    4    4    0    0  0.26967582867E+00  0.10573200700E+00  0.10596063967E+01  0.10984853326E+01  0.00000000000E+00 0. -1.
<mgrwt>
<rscale>  0 0.76880605E+02</rscale>
<asrwt>0</asrwt>
<pdfrwt beam="1">  1        1 0.15760090E-02 0.76880605E+02</pdfrwt>
<pdfrwt beam="2">  1       -2 0.22191579E-01 0.76880605E+02</pdfrwt>
<totfact> 0.10601651E+05</totfact>
</mgrwt>
</event>
<event>
 8    1  0.7756875E-014  0.8409585E+02  0.7818608E-02  0.1317814E+00
         -2   -1    0    0    0  501 -0.00000000000E+00  0.00000000000E+00  0.10212327070E+03  0.10212327073E+03  0.25500000000E-02 0.  1.
          1   -1    0    0  501    0  0.00000000000E+00 -0.00000000000E+00 -0.17312682394E+02  0.17312683127E+02  0.50400000000E-02 0. -1.
        -24    2    1    2    0    0  0.00000000000E+00  0.00000000000E+00  0.84810588305E+02  0.11943595386E+03  0.84095845232E+02 0.  0.
         66    2    3    3    0    0  0.15001686522E+02  0.11641332106E+02  0.95672943275E+02  0.97559639469E+02  0.19999916651E+01 0.  0.
         13    1    3    3    0    0 -0.15001686522E+02 -0.11641332106E+02 -0.10862354970E+02  0.21876314389E+02  0.10566000000E+00 0. -1.
         13    1    4    4    0    0  0.34284514425E+01  0.21870917567E+01  0.18993415807E+02  0.19424177143E+02  0.10566000000E+00 0. -1.
        -13    1    4    4    0    0  0.11040538143E+02  0.91044201065E+01  0.71601405154E+02  0.73017507024E+02  0.10566000000E+00 0.  1.
         14    1    4    4    0    0  0.53269693623E+00  0.34982024314E+00  0.50781223145E+01  0.51179553016E+01  0.00000000000E+00 0. -1.
<mgrwt>
<rscale>  0 0.84095845E+02</rscale>
<asrwt>0</asrwt>
<pdfrwt beam="1">  1        1 0.26634897E-02 0.84095845E+02</pdfrwt>
<pdfrwt beam="2">  1       -2 0.15711273E-01 0.84095845E+02</pdfrwt>
<totfact> 0.92890987E+04</totfact>
</mgrwt>
</event>
<event>
 8    1  0.7756875E-014  0.7907811E+02  0.7818608E-02  0.1331688E+00
          1   -1    0    0  501    0  0.00000000000E+00  0.00000000000E+00  0.79012101717E+01  0.79012117791E+01  0.50400000000E-02 0. -1.
         -2   -1    0    0    0  501 -0.00000000000E+00 -0.00000000000E+00 -0.19786041148E+03  0.19786041150E+03  0.25500000000E-02 0.  1.
        -24    2    1    2    0    0  0.00000000000E+00  0.35527136788E-14 -0.18995920131E+03  0.20576162328E+03  0.79078109811E+02 0.  0.
         66    2    3    3    0    0 -0.31829584633E+02  0.19085396682E+02 -0.59748990230E+02  0.70365592841E+02  0.19999994755E+01 0.  0.
         13    1    3    3    0    0  0.31829584633E+02 -0.19085396682E+02 -0.13021021108E+03  0.13539603044E+03  0.10566000000E+00 0. -1.
         13    1    4    4    0    0 -0.10620640113E+02  0.73845184051E+01 -0.20116801388E+02  0.23917064423E+02  0.10566000000E+00 0. -1.
        -13    1    4    4    0    0 -0.10846242971E+02  0.59505294132E+01 -0.20257390901E+02  0.23736529591E+02  0.10566000000E+00 0.  1.
         14    1    4    4    0    0 -0.10362701550E+02  0.57503488634E+01 -0.19374797942E+02  0.22711998828E+02  0.00000000000E+00 0. -1.
<mgrwt>
<rscale>  0 0.79078110E+02</rscale>
<asrwt>0</asrwt>
<pdfrwt beam="1">  1        1 0.12155711E-02 0.79078110E+02</pdfrwt>
<pdfrwt beam="2">  1       -2 0.30440060E-01 0.79078110E+02</pdfrwt>
<totfact> 0.88038792E+04</totfact>
</mgrwt>
</event>
<event>
 8    1  0.7756875E-014  0.7635065E+02  0.7818608E-02  0.1339739E+00
         -2   -1    0    0    0  501 -0.00000000000E+00  0.00000000000E+00  0.19270420861E+02  0.19270421030E+02  0.25500000000E-02 0.  1.
          1   -1    0    0  501    0  0.00000000000E+00 -0.00000000000E+00 -0.75626542477E+02  0.75626542645E+02  0.50400000000E-02 0. -1.
        -24    2    1    2    0    0 -0.35527136788E-14  0.00000000000E+00 -0.56356121616E+02  0.94896963675E+02  0.76350646829E+02 0.  0.
         66    2    3    3    0    0  0.29737163108E+02  0.42077364709E+00  0.14994760887E+01  0.29845005442E+02  0.20000002900E+01 0.  0.
         13    1    3    3    0    0 -0.29737163108E+02 -0.42077364709E+00 -0.57855597704E+02  0.65051958233E+02  0.10566000000E+00 0. -1.
         13    1    4    4    0    0  0.40418300757E+01  0.34458377008E+00  0.49535584882E+00  0.40879909232E+01  0.10566000000E+00 0.  1.
        -13    1    4    4    0    0  0.12676528111E+02  0.71935832615E-01 -0.23519502150E+00  0.12679354102E+02  0.10566000000E+00 0.  1.
         14    1    4    4    0    0  0.13018804921E+02  0.42540443944E-02  0.12393152614E+01  0.13077660417E+02  0.00000000000E+00 0. -1.
<mgrwt>
<rscale>  0 0.76350647E+02</rscale>
<asrwt>0</asrwt>
<pdfrwt beam="1">  1        1 0.11634853E-01 0.76350647E+02</pdfrwt>
<pdfrwt beam="2">  1       -2 0.29646802E-02 0.76350647E+02</pdfrwt>
<totfact> 0.15944046E+05</totfact>
</mgrwt>
</event>
<event>
 8    1  0.7756875E-014  0.7909683E+02  0.7818608E-02  0.1331634E+00
          1   -1    0    0  501    0  0.00000000000E+00  0.00000000000E+00  0.37857828130E+03  0.37857828133E+03  0.50400000000E-02 0. -1.
         -2   -1    0    0    0  501 -0.00000000000E+00 -0.00000000000E+00 -0.41314497182E+01  0.41314505052E+01  0.25500000000E-02 0.  1.
        -24    2    1    2    0    0  0.71054273576E-14  0.00000000000E+00  0.37444683158E+03  0.38270973184E+03  0.79096834086E+02 0.  0.
         66    2    3    3    0    0 -0.33322789010E+02 -0.21251230731E+02  0.18626877983E+03  0.19042605234E+03  0.19999992131E+01 0.  0.
         13    1    3    3    0    0  0.33322789010E+02  0.21251230731E+02  0.18817805175E+03  0.19228367950E+03  0.10566000000E+00 0. -1.
         13    1    4    4    0    0 -0.33150146431E+01 -0.21259830741E+01  0.19508771094E+02  0.19902573696E+02  0.10566000000E+00 0. -1.
        -13    1    4    4    0    0 -0.13051386270E+01 -0.12479594363E+01  0.90747745539E+01  0.92532959982E+01  0.10566000000E+00 0.  1.
        -14    1    4    4    0    0 -0.28702635740E+02 -0.17877288221E+02  0.15768523418E+03  0.16127018265E+03  0.00000000000E+00 0.  1.
<mgrwt>
<rscale>  0 0.79096834E+02</rscale>
<asrwt>0</asrwt>
<pdfrwt beam="1">  1        1 0.58242817E-01 0.79096834E+02</pdfrwt>
<pdfrwt beam="2">  1       -2 0.63560766E-03 0.79096834E+02</pdfrwt>
<totfact> 0.19388907E+05</totfact>
</mgrwt>
</event>
<event>
 8    1  0.7756875E-014  0.8049822E+02  0.7818608E-02  0.1327643E+00
          1   -1    0    0  501    0  0.00000000000E+00  0.00000000000E+00  0.38444619608E+02  0.38444619938E+02  0.50400000000E-02 0. -1.
         -2   -1    0    0    0  501 -0.00000000000E+00 -0.00000000000E+00 -0.42138296708E+02  0.42138296785E+02  0.25500000000E-02 0.  1.
        -24    2    1    2    0    0  0.00000000000E+00  0.44408920985E-15 -0.36936771000E+01  0.80582916724E+02  0.80498218720E+02 0.  0.
         66    2    3    3    0    0 -0.37426196210E+02 -0.38357482680E+01 -0.16095052205E+02  0.40969302952E+02  0.19999878474E+01 0.  0.
         13    1    3    3    0    0  0.37426196210E+02  0.38357482680E+01  0.12401375105E+02  0.39613613772E+02  0.10566000000E+00 0. -1.
         13    1    4    4    0    0 -0.13398470365E+01 -0.51387474210E-01 -0.51481820811E+00  0.14401501924E+01  0.10566000000E+00 0.  1.
        -13    1    4    4    0    0 -0.87386648309E+01 -0.40118340976E+00 -0.43811854517E+01  0.97842302279E+01  0.10566000000E+00 0. -1.
        -14    1    4    4    0    0 -0.27347684343E+02 -0.33831773840E+01 -0.11199048545E+02  0.29744922532E+02  0.00000000000E+00 0.  1.
<mgrwt>
<rscale>  0 0.80498219E+02</rscale>
<asrwt>0</asrwt>
<pdfrwt beam="1">  1        1 0.59145569E-02 0.80498219E+02</pdfrwt>
<pdfrwt beam="2">  1       -2 0.64828149E-02 0.80498219E+02</pdfrwt>
<totfact> 0.12396148E+05</totfact>
</mgrwt>
</event>
<event>
 8    1  0.7756875E-014  0.8010839E+02  0.7818608E-02  0.1328744E+00
          1   -1    0    0  501    0  0.00000000000E+00  0.00000000000E+00  0.30595424711E+02  0.30595425126E+02  0.50400000000E-02 0. -1.
         -2   -1    0    0    0  501 -0.00000000000E+00 -0.00000000000E+00 -0.52437204503E+02  0.52437204565E+02  0.25500000000E-02 0.  1.
        -24    2    1    2    0    0  0.00000000000E+00  0.00000000000E+00 -0.21841779792E+02  0.83032629691E+02  0.80108390628E+02 0.  0.
         66    2    3    3    0    0 -0.22207221929E+02  0.99558893709E+01 -0.43869142389E+02  0.50207390835E+02  0.20000003650E+01 0.  0.
         13    1    3    3    0    0  0.22207221929E+02 -0.99558893709E+01  0.22027362597E+02  0.32825238857E+02  0.10566000000E+00 0. -1.
         13    1    4    4    0    0 -0.91334783552E+01  0.38558736835E+01 -0.18598640754E+02  0.21076261306E+02  0.10566000000E+00 0.  1.
        -13    1    4    4    0    0 -0.81630767818E+01  0.35499795859E+01 -0.14308878428E+02  0.16852102050E+02  0.10566000000E+00 0.  1.
        -14    1    4    4    0    0 -0.49106667918E+01  0.25500361015E+01 -0.10961623208E+02  0.12279027478E+02  0.00000000000E+00 0.  1.
<mgrwt>
<rscale>  0 0.80108391E+02</rscale>
<asrwt>0</asrwt>
<pdfrwt beam="1">  1        1 0.47069885E-02 0.80108391E+02</pdfrwt>
<pdfrwt beam="2">  1       -2 0.80672622E-02 0.80108391E+02</pdfrwt>
<totfact> 0.12089744E+05</totfact>
</mgrwt>
</event>
<event>
 8    1  0.7756875E-014  0.7622095E+02  0.7818608E-02  0.1340131E+00
          1   -1    0    0  501    0  0.00000000000E+00  0.00000000000E+00  0.12505590512E+03  0.12505590522E+03  0.50400000000E-02 0. -1.
         -2   -1    0    0    0  501 -0.00000000000E+00 -0.00000000000E+00 -0.11614070636E+02  0.11614070916E+02  0.25500000000E-02 0.  1.
        -24    2    1    2    0    0 -0.35527136788E-14  0.35527136788E-14  0.11344183449E+03  0.13666997614E+03  0.76220945719E+02 0.  0.
         66    2    3    3    0    0  0.28083345017E+02 -0.25265150882E+02  0.65433816057E+02  0.75581653900E+02  0.20000015106E+01 0.  0.
         13    1    3    3    0    0 -0.28083345017E+02  0.25265150882E+02  0.48008018431E+02  0.61088322240E+02  0.10566000000E+00 0. -1.
         13    1    4    4    0    0  0.23715350049E+01 -0.16268261074E+01  0.52022815737E+01  0.59452198505E+01  0.10566000000E+00 0. -1.
        -13    1    4    4    0    0  0.21499125655E+02 -0.19151429082E+02  0.49376272427E+02  0.57157826083E+02  0.10566000000E+00 0.  1.
         14    1    4    4    0    0  0.42126843576E+01 -0.44868956930E+01  0.10855262056E+02  0.12478607966E+02  0.00000000000E+00 0. -1.
<mgrwt>
<rscale>  0 0.76220946E+02</rscale>
<asrwt>0</asrwt>
<pdfrwt beam="1">  1        1 0.19239370E-01 0.76220946E+02</pdfrwt>
<pdfrwt beam="2">  1       -2 0.17867802E-02 0.76220946E+02</pdfrwt>
<totfact> 0.17389737E+05</totfact>
</mgrwt>
</event>
<event>
 8    1  0.7756875E-014  0.7984767E+02  0.7818608E-02  0.1329484E+00
          1   -1    0    0  501    0  0.00000000000E+00  0.00000000000E+00  0.44367229956E+02  0.44367230242E+02  0.50400000000E-02 0. -1.
         -2   -1    0    0    0  501 -0.00000000000E+00 -0.00000000000E+00 -0.35925444520E+02  0.35925444610E+02  0.25500000000E-02 0.  1.
        -24    2    1    2    0    0 -0.44408920985E-15  0.00000000000E+00  0.84417854361E+01  0.80292674853E+02  0.79847666802E+02 0.  0.
         66    2    3    3    0    0 -0.26921648752E+01 -0.39788844814E+02  0.54582175114E+01  0.40301266214E+02  0.19999991759E+01 0.  0.
         13    1    3    3    0    0  0.26921648752E+01  0.39788844814E+02  0.29835679246E+01  0.39991408639E+02  0.10566000000E+00 0. -1.
         13    1    4    4    0    0 -0.25528140023E+00 -0.16374527835E+01 -0.29487824314E-01  0.16608593495E+01  0.10566000000E+00 0. -1.
        -13    1    4    4    0    0 -0.58637931002E+00 -0.18669241474E+02  0.26248407256E+01  0.18862273744E+02  0.10566000000E+00 0.  1.
        -14    1    4    4    0    0 -0.18505041649E+01 -0.19482150556E+02  0.28628646101E+01  0.19778133121E+02  0.00000000000E+00 0.  1.
<mgrwt>
<rscale>  0 0.79847667E+02</rscale>
<asrwt>0</asrwt>
<pdfrwt beam="1">  1        1 0.68257277E-02 0.79847667E+02</pdfrwt>
<pdfrwt beam="2">  1       -2 0.55269915E-02 0.79847667E+02</pdfrwt>
<totfact> 0.12979816E+05</totfact>
</mgrwt>
</event>
<event>
 8    1  0.7756875E-014  0.8989541E+02  0.7818608E-02  0.1303105E+00
          1   -1    0    0  501    0  0.00000000000E+00  0.00000000000E+00  0.85084979794E+02  0.85084979943E+02  0.50400000000E-02 0. -1.
         -2   -1    0    0    0  501 -0.00000000000E+00 -0.00000000000E+00 -0.23744451712E+02  0.23744451849E+02  0.25500000000E-02 0.  1.
        -24    2    1    2    0    0 -0.17763568394E-14  0.71054273576E-14  0.61340528083E+02  0.10882943179E+03  0.89895410554E+02 0.  0.
         66    2    3    3    0    0 -0.99728950716E+01  0.40793006698E+02  0.11362289613E+02  0.43550311729E+02  0.19999987251E+01 0.  0.
         13    1    3    3    0    0  0.99728950716E+01 -0.40793006698E+02  0.49978238469E+02  0.65279120062E+02  0.10566000000E+00 0. -1.
         13    1    4    4    0    0 -0.12475541282E+01  0.79872677227E+01  0.20678211974E+01  0.83450515587E+01  0.10566000000E+00 0. -1.
        -13    1    4    4    0    0 -0.52193832450E+01  0.21038793827E+02  0.60784745515E+01  0.22512925711E+02  0.10566000000E+00 0.  1.
        -14    1    4    4    0    0 -0.35059576983E+01  0.11766945148E+02  0.32159938642E+01  0.12692334460E+02  0.00000000000E+00 0.  1.
<mgrwt>
<rscale>  0 0.89895411E+02</rscale>
<asrwt>0</asrwt>
<pdfrwt beam="1">  1        1 0.13089997E-01 0.89895411E+02</pdfrwt>
<pdfrwt beam="2">  1       -2 0.36529926E-02 0.89895411E+02</pdfrwt>
<totfact> 0.10396614E+05</totfact>
</mgrwt>
</event>
<event>
 8    1  0.7756875E-014  0.7976029E+02  0.7818608E-02  0.1329733E+00
          1   -1    0    0  501    0  0.00000000000E+00  0.00000000000E+00  0.22217829882E+02  0.22217830453E+02  0.50400000000E-02 0. -1.
         -2   -1    0    0    0  501 -0.00000000000E+00 -0.00000000000E+00 -0.71583313361E+02  0.71583313407E+02  0.25500000000E-02 0.  1.
        -24    2    1    2    0    0 -0.71054273576E-14  0.17763568394E-14 -0.49365483479E+02  0.93801143860E+02  0.79760288555E+02 0.  0.
         66    2    3    3    0    0 -0.34108647983E+02  0.15319693476E+02 -0.84736592442E+01  0.38391349340E+02  0.19999819377E+01 0.  0.
         13    1    3    3    0    0  0.34108647983E+02 -0.15319693476E+02 -0.40891824235E+02  0.55409794520E+02  0.10566000000E+00 0. -1.
         13    1    4    4    0    0 -0.39518036770E+01  0.20322256378E+01 -0.54163798804E+00  0.44778598783E+01  0.10566000000E+00 0.  1.
        -13    1    4    4    0    0 -0.14993258755E+02  0.60823937267E+01 -0.36239543799E+01  0.16581240331E+02  0.10566000000E+00 0.  1.
        -14    1    4    4    0    0 -0.15163585551E+02  0.72050741118E+01 -0.43080668762E+01  0.17332249131E+02  0.00000000000E+00 0.  1.
<mgrwt>
<rscale>  0 0.79760289E+02</rscale>
<asrwt>0</asrwt>
<pdfrwt beam="1">  1        1 0.34181278E-02 0.79760289E+02</pdfrwt>
<pdfrwt beam="2">  1       -2 0.11012817E-01 0.79760289E+02</pdfrwt>
<totfact> 0.11526890E+05</totfact>
</mgrwt>
</event>
<event>
 8    1  0.9801371E-014  0.7410842E+02  0.7818608E-02  0.1346654E+00
         -2   -1    0    0    0  501 -0.00000000000E+00  0.00000000000E+00  0.84036689593E+01  0.84036693462E+01  0.25500000000E-02 0.  1.
          1   -1    0    0  501    0  0.00000000000E+00 -0.00000000000E+00 -0.16338272483E+03  0.16338272491E+03  0.50400000000E-02 0. -1.
        -24    2    1    2    0    0 -0.35527136788E-14  0.00000000000E+00 -0.15497905587E+03  0.17178639426E+03  0.74108417148E+02 0.  0.
         66    2    3    3    0    0 -0.24128211899E+02 -0.21914820576E+02 -0.36826084839E+02  0.49219817660E+02  0.19999889020E+01 0.  0.
         13    1    3    3    0    0  0.24128211899E+02  0.21914820576E+02 -0.11815297103E+03  0.12256657660E+03  0.10566000000E+00 0. -1.
         13    1    4    4    0    0 -0.49590919064E+01 -0.50539463668E+01 -0.84609967317E+01  0.11033340208E+02  0.10566000000E+00 0. -1.
        -13    1    4    4    0    0 -0.17107692825E+02 -0.15273484486E+02 -0.26013190729E+02  0.34679240737E+02  0.10566000000E+00 0.  1.
         14    1    4    4    0    0 -0.20614271671E+01 -0.15873897233E+01 -0.23518973784E+01  0.35072367153E+01  0.00000000000E+00 0. -1.
<mgrwt>
<rscale>  0 0.74108417E+02</rscale>
<asrwt>0</asrwt>
<pdfrwt beam="1">  1        1 0.25135802E-01 0.74108417E+02</pdfrwt>
<pdfrwt beam="2">  1       -2 0.12928723E-02 0.74108417E+02</pdfrwt>
<totfact> 0.19652143E+05</totfact>
</mgrwt>
</event>
<event>
 8    1  0.7756875E-014  0.8268997E+02  0.7818608E-02  0.1321586E+00
         -2   -1    0    0    0  501 -0.00000000000E+00  0.00000000000E+00  0.19090092840E+03  0.19090092841E+03  0.25500000000E-02 0.  1.
          1   -1    0    0  501    0  0.00000000000E+00 -0.00000000000E+00 -0.89544218264E+01  0.89544232448E+01  0.50400000000E-02 0. -1.
        -24    2    1    2    0    0  0.00000000000E+00  0.00000000000E+00  0.18194650657E+03  0.19985535166E+03  0.82689965131E+02 0.  0.
         66    2    3    3    0    0 -0.11665477614E+02  0.28843198325E+02  0.15674661861E+03  0.15981713273E+03  0.20000027158E+01 0.  0.
         13    1    3    3    0    0  0.11665477614E+02 -0.28843198325E+02  0.25199887957E+02  0.40038218925E+02  0.10566000000E+00 0. -1.
         13    1    4    4    0    0 -0.96048164505E+00  0.26244975437E+01  0.12054200017E+02  0.12374385416E+02  0.10566000000E+00 0. -1.
        -13    1    4    4    0    0 -0.87465875590E+01  0.21250038237E+02  0.11491068286E+03  0.11718593396E+03  0.10566000000E+00 0.  1.
         14    1    4    4    0    0 -0.19584084101E+01  0.49686625449E+01  0.29781735737E+02  0.30256813356E+02  0.00000000000E+00 0. -1.
<mgrwt>
<rscale>  0 0.82689965E+02</rscale>
<asrwt>0</asrwt>
<pdfrwt beam="1">  1        1 0.13776035E-02 0.82689965E+02</pdfrwt>
<pdfrwt beam="2">  1       -2 0.29369372E-01 0.82689965E+02</pdfrwt>
<totfact> 0.79579180E+04</totfact>
</mgrwt>
</event>
<event>
 8    1  0.7756875E-014  0.7889815E+02  0.7818608E-02  0.1332208E+00
         -2   -1    0    0    0  501 -0.00000000000E+00  0.00000000000E+00  0.26435861146E+02  0.26435861269E+02  0.25500000000E-02 0.  1.
          1   -1    0    0  501    0  0.00000000000E+00 -0.00000000000E+00 -0.58868120830E+02  0.58868121046E+02  0.50400000000E-02 0. -1.
        -24    2    1    2    0    0  0.00000000000E+00  0.17763568394E-14 -0.32432259684E+02  0.85303982316E+02  0.78898149095E+02 0.  0.
         66    2    3    3    0    0  0.35367183741E+02  0.14235600140E+02 -0.53749720711E+01  0.38553602915E+02  0.19999939671E+01 0.  0.
         13    1    3    3    0    0 -0.35367183741E+02 -0.14235600140E+02 -0.27057287613E+02  0.46750379400E+02  0.10566000000E+00 0. -1.
         13    1    4    4    0    0  0.11630331729E+02  0.43309910634E+01 -0.19126596179E+01  0.12557528840E+02  0.10566000000E+00 0. -1.
        -13    1    4    4    0    0  0.13100413985E+02  0.48879831843E+01 -0.13532449041E+01  0.14048333068E+02  0.10566000000E+00 0.  1.
         14    1    4    4    0    0  0.10636438026E+02  0.50166258924E+01 -0.21090675491E+01  0.11947741007E+02  0.00000000000E+00 0. -1.
<mgrwt>
<rscale>  0 0.78898149E+02</rscale>
<asrwt>0</asrwt>
<pdfrwt beam="1">  1        1 0.90566340E-02 0.78898149E+02</pdfrwt>
<pdfrwt beam="2">  1       -2 0.40670556E-02 0.78898149E+02</pdfrwt>
<totfact> 0.14024049E+05</totfact>
</mgrwt>
</event>
<event>
 8    1  0.7756875E-014  0.7953899E+02  0.7818608E-02  0.1330365E+00
          1   -1    0    0  501    0  0.00000000000E+00  0.00000000000E+00  0.14172098538E+03  0.14172098547E+03  0.50400000000E-02 0. -1.
         -2   -1    0    0    0  501 -0.00000000000E+00 -0.00000000000E+00 -0.11160045822E+02  0.11160046113E+02  0.25500000000E-02 0.  1.
        -24    2    1    2    0    0  0.00000000000E+00  0.00000000000E+00  0.13056093955E+03  0.15288103158E+03  0.79538989681E+02 0.  0.
         66    2    3    3    0    0 -0.11689365564E+02 -0.36226886557E+02  0.43357676032E+02  0.57731418287E+02  0.20000023950E+01 0.  0.
         13    1    3    3    0    0  0.11689365564E+02  0.36226886557E+02  0.87203263522E+02  0.95149613293E+02  0.10566000000E+00 0. -1.
         13    1    4    4    0    0 -0.66345771450E+01 -0.23111008627E+02  0.27875124317E+02  0.36812634426E+02  0.10566000000E+00 0. -1.
        -13    1    4    4    0    0 -0.44854672882E+01 -0.12060617850E+02  0.14153998427E+02  0.19129159814E+02  0.10566000000E+00 0.  1.
         14    1    4    4    0    0 -0.56932113030E+00 -0.10552600805E+01  0.13285532889E+01  0.17896240466E+01  0.00000000000E+00 0. -1.
<mgrwt>
<rscale>  0 0.79538990E+02</rscale>
<asrwt>0</asrwt>
<pdfrwt beam="1">  1        1 0.21803229E-01 0.79538990E+02</pdfrwt>
<pdfrwt beam="2">  1       -2 0.17169301E-02 0.79538990E+02</pdfrwt>
<totfact> 0.15868278E+05</totfact>
</mgrwt>
</event>
<event>
 8    1  0.7756875E-014  0.7897307E+02  0.7818608E-02  0.1331991E+00
         -2   -1    0    0    0  501 -0.00000000000E+00  0.00000000000E+00  0.56112377236E+01  0.56112383031E+01  0.25500000000E-02 0.  1.
          1   -1    0    0  501    0  0.00000000000E+00 -0.00000000000E+00 -0.27786855403E+03  0.27786855408E+03  0.50400000000E-02 0. -1.
        -24    2    1    2    0    0  0.00000000000E+00 -0.35527136788E-14 -0.27225731631E+03  0.28347979238E+03  0.78973073922E+02 0.  0.
         66    2    3    3    0    0 -0.24800238120E+02 -0.24230528027E+02 -0.68581861113E+02  0.76874195864E+02  0.20000041665E+01 0.  0.
         13    1    3    3    0    0  0.24800238120E+02  0.24230528027E+02 -0.20367545519E+03  0.20660559651E+03  0.10566000000E+00 0. -1.
         13    1    4    4    0    0 -0.17182045510E+02 -0.16800055254E+02 -0.46443269111E+02  0.52291997038E+02  0.10566000000E+00 0.  1.
        -13    1    4    4    0    0 -0.54753590869E+01 -0.51760398317E+01 -0.16593901303E+02  0.18224699448E+02  0.10566000000E+00 0. -1.
         14    1    4    4    0    0 -0.21428335226E+01 -0.22544329412E+01 -0.55446906988E+01  0.63574993777E+01  0.00000000000E+00 0. -1.
<mgrwt>
<rscale>  0 0.78973074E+02</rscale>
<asrwt>0</asrwt>
<pdfrwt beam="1">  1        1 0.42748998E-01 0.78973074E+02</pdfrwt>
<pdfrwt beam="2">  1       -2 0.86326760E-03 0.78973074E+02</pdfrwt>
<totfact> 0.18394018E+05</totfact>
</mgrwt>
</event>
<event>
 8    1  0.7756875E-014  0.7980601E+02  0.7818608E-02  0.1329603E+00
         -2   -1    0    0    0  501 -0.00000000000E+00  0.00000000000E+00  0.66471768074E+03  0.66471768075E+03  0.25500000000E-02 0.  1.
          1   -1    0    0  501    0  0.00000000000E+00 -0.00000000000E+00 -0.23953748466E+01  0.23953801488E+01  0.50400000000E-02 0. -1.
        -24    2    1    2    0    0  0.00000000000E+00  0.27755575616E-16  0.66232230590E+03  0.66711306090E+03  0.79806009367E+02 0.  0.
         66    2    3    3    0    0 -0.33981322631E+02 -0.22262666839E+00  0.50580630065E+03  0.50695048440E+03  0.19999992964E+01 0.  0.
         13    1    3    3    0    0  0.33981322631E+02  0.22262666839E+00  0.15651600524E+03  0.16016257650E+03  0.10566000000E+00 0. -1.
         13    1    4    4    0    0 -0.41164457099E+01 -0.43349823026E+00  0.61450356687E+02  0.61589695136E+02  0.10566000000E+00 0. -1.
        -13    1    4    4    0    0 -0.19866430316E+02 -0.28177084510E+00  0.30325830908E+03  0.30390848564E+03  0.10566000000E+00 0.  1.
         14    1    4    4    0    0 -0.99984466057E+01  0.49264240697E+00  0.14109763488E+03  0.14145230362E+03  0.00000000000E+00 0. -1.
<mgrwt>
<rscale>  0 0.79806009E+02</rscale>
<asrwt>0</asrwt>
<pdfrwt beam="1">  1        1 0.36851914E-03 0.79806009E+02</pdfrwt>
<pdfrwt beam="2">  1       -2 0.10226439E+00 0.79806009E+02</pdfrwt>
<totfact> 0.39953622E+04</totfact>
</mgrwt>
</event>
<event>
 8    1  0.7756875E-014  0.7955011E+02  0.7818608E-02  0.1330333E+00
          1   -1    0    0  501    0  0.00000000000E+00  0.00000000000E+00  0.70107324612E+02  0.70107324793E+02  0.50400000000E-02 0. -1.
         -2   -1    0    0    0  501 -0.00000000000E+00 -0.00000000000E+00 -0.22566188843E+02  0.22566188987E+02  0.25500000000E-02 0.  1.
        -24    2    1    2    0    0 -0.17763568394E-14  0.00000000000E+00  0.47541135769E+02  0.92673513780E+02  0.79550113551E+02 0.  0.
         66    2    3    3    0    0 -0.75919426091E+01  0.38807597268E+02  0.19070227922E+02  0.43947022464E+02  0.19999980397E+01 0.  0.
         13    1    3    3    0    0  0.75919426091E+01 -0.38807597268E+02  0.28470907847E+02  0.48726491316E+02  0.10566000000E+00 0. -1.
         13    1    4    4    0    0 -0.56862687956E-01  0.15863741295E+01  0.62976596287E+00  0.17110188332E+01  0.10566000000E+00 0. -1.
        -13    1    4    4    0    0 -0.30585659307E+01  0.12384816059E+02  0.64749150233E+01  0.14306438515E+02  0.10566000000E+00 0.  1.
         14    1    4    4    0    0 -0.44765139904E+01  0.24836407079E+02  0.11965546936E+02  0.27929565116E+02  0.00000000000E+00 0. -1.
<mgrwt>
<rscale>  0 0.79550114E+02</rscale>
<asrwt>0</asrwt>
<pdfrwt beam="1">  1        1 0.10785742E-01 0.79550114E+02</pdfrwt>
<pdfrwt beam="2">  1       -2 0.34717215E-02 0.79550114E+02</pdfrwt>
<totfact> 0.14089785E+05</totfact>
</mgrwt>
</event>
<event>
 8    1  0.7756875E-014  0.7991530E+02  0.7818608E-02  0.1329292E+00
         -2   -1    0    0    0  501 -0.00000000000E+00  0.00000000000E+00  0.18265113031E+03  0.18265113033E+03  0.25500000000E-02 0.  1.
          1   -1    0    0  501    0  0.00000000000E+00 -0.00000000000E+00 -0.87413296604E+01  0.87413311133E+01  0.50400000000E-02 0. -1.
        -24    2    1    2    0    0  0.00000000000E+00  0.00000000000E+00  0.17390980065E+03  0.19139246144E+03  0.79915302256E+02 0.  0.
         66    2    3    3    0    0  0.17713678349E+02 -0.16089398692E+02  0.16357117289E+03  0.16532444390E+03  0.19999992650E+01 0.  0.
         13    1    3    3    0    0 -0.17713678349E+02  0.16089398692E+02  0.10338627760E+02  0.26068017548E+02  0.10566000000E+00 0. -1.
         13    1    4    4    0    0  0.60548231299E+01 -0.60712833909E+01  0.62582349978E+02  0.63167104239E+02  0.10566000000E+00 0. -1.
        -13    1    4    4    0    0  0.29552107231E+01 -0.30442874526E+01  0.26210613998E+02  0.26551994401E+02  0.10566000000E+00 0.  1.
        -14    1    4    4    0    0  0.87036444957E+01 -0.69738278484E+01  0.74778208918E+02  0.75605345256E+02  0.00000000000E+00 0.  1.
<mgrwt>
<rscale>  0 0.79915302E+02</rscale>
<asrwt>0</asrwt>
<pdfrwt beam="1">  1        1 0.13448201E-02 0.79915302E+02</pdfrwt>
<pdfrwt beam="2">  1       -2 0.28100173E-01 0.79915302E+02</pdfrwt>
<totfact> 0.88402348E+04</totfact>
</mgrwt>
</event>
<event>
 8    1  0.7756875E-014  0.8235892E+02  0.7818608E-02  0.1322487E+00
          1   -1    0    0  501    0  0.00000000000E+00  0.00000000000E+00  0.22615939435E+02  0.22615939997E+02  0.50400000000E-02 0. -1.
         -2   -1    0    0    0  501 -0.00000000000E+00 -0.00000000000E+00 -0.74980213508E+02  0.74980213551E+02  0.25500000000E-02 0.  1.
        -24    2    1    2    0    0  0.35527136788E-14  0.00000000000E+00 -0.52364274072E+02  0.97596153548E+02  0.82358921728E+02 0.  0.
         66    2    3    3    0    0  0.25243488514E+02  0.92076110753E+01 -0.63137345159E+02  0.68646472397E+02  0.20000011757E+01 0.  0.
         13    1    3    3    0    0 -0.25243488514E+02 -0.92076110753E+01  0.10773071086E+02  0.28949681151E+02  0.10566000000E+00 0. -1.
         13    1    4    4    0    0  0.12345521997E+02  0.45359482800E+01 -0.29422377607E+02  0.32228468910E+02  0.10566000000E+00 0. -1.
        -13    1    4    4    0    0  0.95254938998E+01  0.34827149574E+01 -0.23507940938E+02  0.25602710573E+02  0.10566000000E+00 0.  1.
         14    1    4    4    0    0  0.33724726180E+01  0.11889478378E+01 -0.10207026613E+02  0.10815292913E+02  0.00000000000E+00 0. -1.
<mgrwt>
<rscale>  0 0.82358922E+02</rscale>
<asrwt>0</asrwt>
<pdfrwt beam="1">  1        1 0.34793754E-02 0.82358922E+02</pdfrwt>
<pdfrwt beam="2">  1       -2 0.11535417E-01 0.82358922E+02</pdfrwt>
<totfact> 0.10522817E+05</totfact>
</mgrwt>
</event>
<event>
 8    1  0.7802633E-014  0.7969053E+02  0.7818608E-02  0.1329932E+00
         -2   -1    0    0    0  501 -0.00000000000E+00  0.00000000000E+00  0.82654997151E+01  0.82655001084E+01  0.25500000000E-02 0.  1.
          1   -1    0    0  501    0  0.00000000000E+00 -0.00000000000E+00 -0.19208098052E+03  0.19208098058E+03  0.50400000000E-02 0. -1.
        -24    2    1    2    0    0 -0.17763568394E-14  0.00000000000E+00 -0.18381548080E+03  0.20034648069E+03  0.79690534840E+02 0.  0.
         66    2    3    3    0    0  0.13264869009E+02 -0.31633783887E+02 -0.41122616277E+02  0.53588456096E+02  0.20000061165E+01 0.  0.
         13    1    3    3    0    0 -0.13264869009E+02  0.31633783887E+02 -0.14269286453E+03  0.14675802460E+03  0.10566000000E+00 0. -1.
         13    1    4    4    0    0  0.44483778022E+00 -0.20441618802E+01 -0.25958309292E+01  0.33355630247E+01  0.10566000000E+00 0. -1.
        -13    1    4    4    0    0  0.79140636922E+01 -0.19365262851E+02 -0.24584050536E+02  0.32280528407E+02  0.10566000000E+00 0.  1.
         14    1    4    4    0    0  0.49059675363E+01 -0.10224359156E+02 -0.13942734811E+02  0.17972364665E+02  0.00000000000E+00 0. -1.
<mgrwt>
<rscale>  0 0.79690535E+02</rscale>
<asrwt>0</asrwt>
<pdfrwt beam="1">  1        1 0.29550917E-01 0.79690535E+02</pdfrwt>
<pdfrwt beam="2">  1       -2 0.12716155E-02 0.79690535E+02</pdfrwt>
<totfact> 0.16715187E+05</totfact>
</mgrwt>
</event>
<event>
 8    1  0.7756875E-014  0.7866092E+02  0.7818608E-02  0.1332895E+00
          1   -1    0    0  501    0  0.00000000000E+00  0.00000000000E+00  0.14225625036E+02  0.14225625929E+02  0.50400000000E-02 0. -1.
         -2   -1    0    0    0  501 -0.00000000000E+00 -0.00000000000E+00 -0.10873932461E+03  0.10873932464E+03  0.25500000000E-02 0.  1.
        -24    2    1    2    0    0  0.35527136788E-14  0.00000000000E+00 -0.94513699577E+02  0.12296495057E+03  0.78660915718E+02 0.  0.
         66    2    3    3    0    0  0.23982670244E+02  0.28507202007E+02 -0.27696943737E+02  0.46464499180E+02  0.19999883467E+01 0.  0.
         13    1    3    3    0    0 -0.23982670244E+02 -0.28507202007E+02 -0.66816755840E+02  0.76500451392E+02  0.10566000000E+00 0. -1.
         13    1    4    4    0    0  0.26431433995E+01  0.36082957176E+01 -0.36762539387E+01  0.57906832130E+01  0.10566000000E+00 0.  1.
        -13    1    4    4    0    0  0.57374033110E+01  0.64239885547E+01 -0.70571510510E+01  0.11135527410E+02  0.10566000000E+00 0. -1.
         14    1    4    4    0    0  0.15602123533E+02  0.18474917734E+02 -0.16963538747E+02  0.29538288557E+02  0.00000000000E+00 0. -1.
<mgrwt>
<rscale>  0 0.78660916E+02</rscale>
<asrwt>0</asrwt>
<pdfrwt beam="1">  1        1 0.21885578E-02 0.78660916E+02</pdfrwt>
<pdfrwt beam="2">  1       -2 0.16729126E-01 0.78660916E+02</pdfrwt>
<totfact> 0.10847460E+05</totfact>
</mgrwt>
</event>
<event>
 8    1  0.7756875E-014  0.7939949E+02  0.7818608E-02  0.1330764E+00
          1   -1    0    0  501    0  0.00000000000E+00  0.00000000000E+00  0.67162628046E+01  0.67162646957E+01  0.50400000000E-02 0. -1.
         -2   -1    0    0    0  501 -0.00000000000E+00 -0.00000000000E+00 -0.23466466429E+03  0.23466466430E+03  0.25500000000E-02 0.  1.
        -24    2    1    2    0    0  0.00000000000E+00  0.00000000000E+00 -0.22794840148E+03  0.24138092900E+03  0.79399490835E+02 0.  0.
         66    2    3    3    0    0  0.10262353978E+02  0.48533172978E+01 -0.22961717488E+03  0.22990632370E+03  0.20000202015E+01 0.  0.
         13    1    3    3    0    0 -0.10262353978E+02 -0.48533172978E+01  0.16687733971E+01  0.11474605294E+02  0.10566000000E+00 0. -1.
         13    1    4    4    0    0  0.81413001614E+00  0.28624762939E-01 -0.10408270690E+02  0.10440636467E+02  0.10566000000E+00 0. -1.
        -13    1    4    4    0    0  0.87510912180E+01  0.45117428722E+01 -0.20471763259E+03  0.20495428192E+03  0.10566000000E+00 0.  1.
         14    1    4    4    0    0  0.69713274413E+00  0.31294966259E+00 -0.14491271607E+02  0.14511405319E+02  0.00000000000E+00 0. -1.
<mgrwt>
<rscale>  0 0.79399491E+02</rscale>
<asrwt>0</asrwt>
<pdfrwt beam="1">  1        1 0.10332715E-02 0.79399491E+02</pdfrwt>
<pdfrwt beam="2">  1       -2 0.36102250E-01 0.79399491E+02</pdfrwt>
<totfact> 0.80983823E+04</totfact>
</mgrwt>
</event>
<event>
 8    1  0.7756875E-014  0.8046023E+02  0.7818608E-02  0.1327750E+00
          1   -1    0    0  501    0  0.00000000000E+00  0.00000000000E+00  0.69909218232E+02  0.69909218414E+02  0.50400000000E-02 0. -1.
         -2   -1    0    0    0  501 -0.00000000000E+00 -0.00000000000E+00 -0.23150912873E+02  0.23150913014E+02  0.25500000000E-02 0.  1.
        -24    2    1    2    0    0  0.35527136788E-14  0.35527136788E-14  0.46758305359E+02  0.93060131427E+02  0.80460232048E+02 0.  0.
         66    2    3    3    0    0  0.25222385445E+02  0.24821043288E+02  0.13208841881E+01  0.35468262868E+02  0.20000045866E+01 0.  0.
         13    1    3    3    0    0 -0.25222385445E+02 -0.24821043288E+02  0.45437421171E+02  0.57591868560E+02  0.10566000000E+00 0. -1.
         13    1    4    4    0    0  0.48844759968E+01  0.44316124855E+01  0.90071364856E+00  0.66573075712E+01  0.10566000000E+00 0. -1.
        -13    1    4    4    0    0  0.14912403610E+02  0.15328070181E+02  0.47997843806E+00  0.21390910693E+02  0.10566000000E+00 0.  1.
         14    1    4    4    0    0  0.54255058383E+01  0.50613606217E+01 -0.59807898519E-01  0.74200446042E+01  0.00000000000E+00 0. -1.
<mgrwt>
<rscale>  0 0.80460232E+02</rscale>
<asrwt>0</asrwt>
<pdfrwt beam="1">  1        1 0.10755264E-01 0.80460232E+02</pdfrwt>
<pdfrwt beam="2">  1       -2 0.35616790E-02 0.80460232E+02</pdfrwt>
<totfact> 0.13651564E+05</totfact>
</mgrwt>
</event>
<event>
 8    1  0.8247381E-014  0.7189709E+02  0.7818608E-02  0.1353758E+00
         -2   -1    0    0    0  501 -0.00000000000E+00  0.00000000000E+00  0.71370271464E+02  0.71370271509E+02  0.25500000000E-02 0.  1.
          1   -1    0    0  501    0  0.00000000000E+00 -0.00000000000E+00 -0.18106947870E+02  0.18106948571E+02  0.50400000000E-02 0. -1.
        -24    2    1    2    0    0  0.00000000000E+00  0.00000000000E+00  0.53263323594E+02  0.89477220081E+02  0.71897088071E+02 0.  0.
         66    2    3    3    0    0  0.21022293450E+02 -0.11597492391E+02  0.59903310033E+02  0.64566595127E+02  0.20000004267E+01 0.  0.
         13    1    3    3    0    0 -0.21022293450E+02  0.11597492391E+02 -0.66399864395E+01  0.24910624954E+02  0.10566000000E+00 0. -1.
         13    1    4    4    0    0  0.12200428845E+02 -0.70507502556E+01  0.34064865647E+02  0.36864478550E+02  0.10566000000E+00 0. -1.
        -13    1    4    4    0    0  0.86172575283E+01 -0.45949985885E+01  0.25061426458E+02  0.26897163409E+02  0.10566000000E+00 0.  1.
         14    1    4    4    0    0  0.20460707609E+00  0.48256453266E-01  0.77701792841E+00  0.80495316754E+00  0.00000000000E+00 0. -1.
<mgrwt>
<rscale>  0 0.71897088E+02</rscale>
<asrwt>0</asrwt>
<pdfrwt beam="1">  1        1 0.27856844E-02 0.71897088E+02</pdfrwt>
<pdfrwt beam="2">  1       -2 0.10980042E-01 0.71897088E+02</pdfrwt>
<totfact> 0.15004565E+05</totfact>
</mgrwt>
</event>
<event>
 8    1  0.7756875E-014  0.8056233E+02  0.7818608E-02  0.1327463E+00
          1   -1    0    0  501    0  0.00000000000E+00  0.00000000000E+00  0.10035530453E+03  0.10035530465E+03  0.50400000000E-02 0. -1.
         -2   -1    0    0    0  501 -0.00000000000E+00 -0.00000000000E+00 -0.16168277353E+02  0.16168277554E+02  0.25500000000E-02 0.  1.
        -24    2    1    2    0    0  0.00000000000E+00  0.35527136788E-14  0.84187027173E+02  0.11652358221E+03  0.80562334041E+02 0.  0.
         66    2    3    3    0    0  0.87763272451E+01  0.26719030390E+02  0.45875411760E+00  0.28198243953E+02  0.20000004414E+01 0.  0.
         13    1    3    3    0    0 -0.87763272451E+01 -0.26719030390E+02  0.83728273055E+02  0.88325338254E+02  0.10566000000E+00 0. -1.
         13    1    4    4    0    0  0.19765536025E+01  0.49265447442E+01 -0.42400442553E+00  0.53262135752E+01  0.10566000000E+00 0. -1.
        -13    1    4    4    0    0  0.17893160160E+01  0.66667846586E+01  0.67788159232E+00  0.69367396504E+01  0.10566000000E+00 0.  1.
         14    1    4    4    0    0  0.50104576266E+01  0.15125700988E+02  0.20487695081E+00  0.15935290727E+02  0.00000000000E+00 0. -1.
<mgrwt>
<rscale>  0 0.80562334E+02</rscale>
<asrwt>0</asrwt>
<pdfrwt beam="1">  1        1 0.15439278E-01 0.80562334E+02</pdfrwt>
<pdfrwt beam="2">  1       -2 0.24874273E-02 0.80562334E+02</pdfrwt>
<totfact> 0.14431986E+05</totfact>
</mgrwt>
</event>
<event>
 8    1  0.7756875E-014  0.8824240E+02  0.7818608E-02  0.1307165E+00
          1   -1    0    0  501    0  0.00000000000E+00  0.00000000000E+00  0.10974780998E+03  0.10974781009E+03  0.50400000000E-02 0. -1.
         -2   -1    0    0    0  501 -0.00000000000E+00 -0.00000000000E+00 -0.17737758164E+02  0.17737758347E+02  0.25500000000E-02 0.  1.
        -24    2    1    2    0    0  0.17763568394E-14 -0.71054273576E-14  0.92010051814E+02  0.12748556844E+03  0.88242396419E+02 0.  0.
         66    2    3    3    0    0 -0.15002116350E+02  0.41452895999E+02  0.47656057796E+02  0.64950026298E+02  0.19999974590E+01 0.  0.
         13    1    3    3    0    0  0.15002116350E+02 -0.41452895999E+02  0.44353994017E+02  0.62535542142E+02  0.10566000000E+00 0. -1.
         13    1    4    4    0    0 -0.24810285548E+01  0.75559595449E+01  0.80885590795E+01  0.11343896128E+02  0.10566000000E+00 0. -1.
        -13    1    4    4    0    0 -0.11821159198E+02  0.30790009857E+02  0.36005708466E+02  0.48828134492E+02  0.10566000000E+00 0.  1.
        -14    1    4    4    0    0 -0.69992859678E+00  0.31069265964E+01  0.35617902511E+01  0.47779956791E+01  0.00000000000E+00 0.  1.
<mgrwt>
<rscale>  0 0.88242396E+02</rscale>
<asrwt>0</asrwt>
<pdfrwt beam="1">  1        1 0.16884279E-01 0.88242396E+02</pdfrwt>
<pdfrwt beam="2">  1       -2 0.27288858E-02 0.88242396E+02</pdfrwt>
<totfact> 0.11445940E+05</totfact>
</mgrwt>
</event>
<event>
 8    1  0.7756875E-014  0.7953932E+02  0.7818608E-02  0.1330364E+00
         -2   -1    0    0    0  501 -0.00000000000E+00  0.00000000000E+00  0.39375413332E+02  0.39375413414E+02  0.25500000000E-02 0.  1.
          1   -1    0    0  501    0  0.00000000000E+00 -0.00000000000E+00 -0.40167856010E+02  0.40167856326E+02  0.50400000000E-02 0. -1.
        -24    2    1    2    0    0 -0.35527136788E-14  0.17763568394E-14 -0.79244267822E+00  0.79543269740E+02  0.79539322323E+02 0.  0.
         66    2    3    3    0    0 -0.19518946423E+02 -0.15831247636E+02  0.30394719307E+02  0.39489956420E+02  0.20000062874E+01 0.  0.
         13    1    3    3    0    0  0.19518946423E+02  0.15831247636E+02 -0.31187161985E+02  0.40053313320E+02  0.10566000000E+00 0. -1.
         13    1    4    4    0    0 -0.69117010241E+01 -0.48384588386E+01  0.10364713853E+02  0.13364907492E+02  0.10566000000E+00 0. -1.
        -13    1    4    4    0    0 -0.21852422857E+01 -0.21494387679E+01  0.43725280308E+01  0.53409302823E+01  0.10566000000E+00 0.  1.
         14    1    4    4    0    0 -0.10422003113E+02 -0.88433500295E+01  0.15657477424E+02  0.20784118646E+02  0.00000000000E+00 0. -1.
<mgrwt>
<rscale>  0 0.79539322E+02</rscale>
<asrwt>0</asrwt>
<pdfrwt beam="1">  1        1 0.61796702E-02 0.79539322E+02</pdfrwt>
<pdfrwt beam="2">  1       -2 0.60577559E-02 0.79539322E+02</pdfrwt>
<totfact> 0.12914456E+05</totfact>
</mgrwt>
</event>
<event>
 8    1  0.7756875E-014  0.7992948E+02  0.7818608E-02  0.1329252E+00
         -2   -1    0    0    0  501 -0.00000000000E+00  0.00000000000E+00  0.38463748963E+02  0.38463749047E+02  0.25500000000E-02 0.  1.
          1   -1    0    0  501    0  0.00000000000E+00 -0.00000000000E+00 -0.41524307423E+02  0.41524307729E+02  0.50400000000E-02 0. -1.
        -24    2    1    2    0    0  0.00000000000E+00  0.35527136788E-14 -0.30605584603E+01  0.79988056776E+02  0.79929482725E+02 0.  0.
         66    2    3    3    0    0  0.18910541517E+02 -0.17047009883E+02  0.29264136586E+02  0.38840685046E+02  0.19999995538E+01 0.  0.
         13    1    3    3    0    0 -0.18910541517E+02  0.17047009883E+02 -0.32324695047E+02  0.41147371731E+02  0.10566000000E+00 0. -1.
         13    1    4    4    0    0  0.15248814241E+02 -0.14181146663E+02  0.23269328118E+02  0.31226656106E+02  0.10566000000E+00 0. -1.
        -13    1    4    4    0    0  0.34700663231E+01 -0.28650865847E+01  0.57840782244E+01  0.73291750127E+01  0.10566000000E+00 0.  1.
         14    1    4    4    0    0  0.19166095346E+00 -0.77663566549E-03  0.21073024356E+00  0.28485392712E+00  0.00000000000E+00 0. -1.
<mgrwt>
<rscale>  0 0.79929483E+02</rscale>
<asrwt>0</asrwt>
<pdfrwt beam="1">  1        1 0.63883550E-02 0.79929483E+02</pdfrwt>
<pdfrwt beam="2">  1       -2 0.59174999E-02 0.79929483E+02</pdfrwt>
<totfact> 0.12806273E+05</totfact>
</mgrwt>
</event>
<event>
 8    1  0.7756875E-014  0.8585810E+02  0.7818608E-02  0.1313204E+00
         -2   -1    0    0    0  501 -0.00000000000E+00  0.00000000000E+00  0.29212970168E+02  0.29212970280E+02  0.25500000000E-02 0.  1.
          1   -1    0    0  501    0  0.00000000000E+00 -0.00000000000E+00 -0.63085100367E+02  0.63085100569E+02  0.50400000000E-02 0. -1.
        -24    2    1    2    0    0  0.00000000000E+00  0.00000000000E+00 -0.33872130199E+02  0.92298070848E+02  0.85858096171E+02 0.  0.
         66    2    3    3    0    0  0.13916095479E+01 -0.19313581853E+02  0.24214311414E+02  0.31069018231E+02  0.19999988537E+01 0.  0.
         13    1    3    3    0    0 -0.13916095479E+01  0.19313581853E+02 -0.58086441614E+02  0.61229052618E+02  0.10566000000E+00 0. -1.
         13    1    4    4    0    0  0.16885733928E+00 -0.40071003890E+00  0.77984505455E+00  0.89911271875E+00  0.10566000000E+00 0. -1.
        -13    1    4    4    0    0  0.96173536032E+00 -0.18399634808E+02  0.22688728587E+02  0.29227744780E+02  0.10566000000E+00 0.  1.
        -14    1    4    4    0    0  0.26101684827E+00 -0.51323700553E+00  0.74573777284E+00  0.94216073192E+00  0.00000000000E+00 0.  1.
<mgrwt>
<rscale>  0 0.85858096E+02</rscale>
<asrwt>0</asrwt>
<pdfrwt beam="1">  1        1 0.97054001E-02 0.85858096E+02</pdfrwt>
<pdfrwt beam="2">  1       -2 0.44943031E-02 0.85858096E+02</pdfrwt>
<totfact> 0.11222643E+05</totfact>
</mgrwt>
</event>
<event>
 8    1  0.7756875E-014  0.8041059E+02  0.7818608E-02  0.1327890E+00
         -2   -1    0    0    0  501 -0.00000000000E+00  0.00000000000E+00  0.19651576234E+02  0.19651576400E+02  0.25500000000E-02 0.  1.
          1   -1    0    0  501    0  0.00000000000E+00 -0.00000000000E+00 -0.82256287490E+02  0.82256287644E+02  0.50400000000E-02 0. -1.
        -24    2    1    2    0    0 -0.35527136788E-14  0.17763568394E-14 -0.62604711256E+02  0.10190786404E+03  0.80410589369E+02 0.  0.
         66    2    3    3    0    0 -0.22086622137E+02  0.10040723207E+02  0.92694740944E+01  0.26049148765E+02  0.20000003623E+01 0.  0.
         13    1    3    3    0    0  0.22086622137E+02 -0.10040723207E+02 -0.71874185350E+02  0.75858715279E+02  0.10566000000E+00 0. -1.
         13    1    4    4    0    0 -0.59917414641E+01  0.36314668861E+01  0.29779225496E+01  0.76136524917E+01  0.10566000000E+00 0. -1.
        -13    1    4    4    0    0 -0.50370375526E+01  0.21014417169E+01  0.18358444723E+01  0.57592789096E+01  0.10566000000E+00 0.  1.
         14    1    4    4    0    0 -0.11057843121E+02  0.43078146041E+01  0.44557070725E+01  0.12676217364E+02  0.00000000000E+00 0. -1.
<mgrwt>
<rscale>  0 0.80410589E+02</rscale>
<asrwt>0</asrwt>
<pdfrwt beam="1">  1        1 0.12654813E-01 0.80410589E+02</pdfrwt>
<pdfrwt beam="2">  1       -2 0.30233195E-02 0.80410589E+02</pdfrwt>
<totfact> 0.14036222E+05</totfact>
</mgrwt>
</event>
<event>
 8    1  0.7756875E-014  0.7934325E+02  0.7818608E-02  0.1330926E+00
         -2   -1    0    0    0  501 -0.00000000000E+00  0.00000000000E+00  0.12978533301E+02  0.12978533552E+02  0.25500000000E-02 0.  1.
          1   -1    0    0  501    0  0.00000000000E+00 -0.00000000000E+00 -0.12126468379E+03  0.12126468390E+03  0.50400000000E-02 0. -1.
        -24    2    1    2    0    0  0.35527136788E-14  0.00000000000E+00 -0.10828615049E+03  0.13424321745E+03  0.79343248250E+02 0.  0.
         66    2    3    3    0    0 -0.17767156642E+02 -0.17491298200E+02 -0.20226852364E+01  0.25093995831E+02  0.20000008297E+01 0.  0.
         13    1    3    3    0    0  0.17767156642E+02  0.17491298200E+02 -0.10626346526E+03  0.10914922162E+03  0.10566000000E+00 0. -1.
         13    1    4    4    0    0 -0.16379403099E+01 -0.11545579647E+01  0.11567658339E+00  0.20100740435E+01  0.10566000000E+00 0. -1.
        -13    1    4    4    0    0 -0.25132982844E+01 -0.24044983174E+01 -0.70441579805E+00  0.35504430818E+01  0.10566000000E+00 0.  1.
         14    1    4    4    0    0 -0.13615918048E+02 -0.13932241918E+02 -0.14339460217E+01  0.19533478705E+02  0.00000000000E+00 0. -1.
<mgrwt>
<rscale>  0 0.79343248E+02</rscale>
<asrwt>0</asrwt>
<pdfrwt beam="1">  1        1 0.18656105E-01 0.79343248E+02</pdfrwt>
<pdfrwt beam="2">  1       -2 0.19966975E-02 0.79343248E+02</pdfrwt>
<totfact> 0.15534455E+05</totfact>
</mgrwt>
</event>
<event>
 8    1  0.7756875E-014  0.7777114E+02  0.7818608E-02  0.1335498E+00
          1   -1    0    0  501    0  0.00000000000E+00  0.00000000000E+00  0.12392549920E+02  0.12392550945E+02  0.50400000000E-02 0. -1.
         -2   -1    0    0    0  501 -0.00000000000E+00 -0.00000000000E+00 -0.12201584399E+03  0.12201584401E+03  0.25500000000E-02 0.  1.
        -24    2    1    2    0    0 -0.35527136788E-14 -0.71054273576E-14 -0.10962329407E+03  0.13440839496E+03  0.77771138820E+02 0.  0.
         66    2    3    3    0    0 -0.16649349373E+02 -0.29155949590E+02 -0.88662134288E+02  0.94827444814E+02  0.20000006220E+01 0.  0.
         13    1    3    3    0    0  0.16649349373E+02  0.29155949590E+02 -0.20961159778E+02  0.39580950144E+02  0.10566000000E+00 0. -1.
         13    1    4    4    0    0 -0.91048926919E+01 -0.14081180972E+02 -0.45043277541E+02  0.48063361765E+02  0.10566000000E+00 0. -1.
        -13    1    4    4    0    0 -0.10543239766E+01 -0.20019961894E+01 -0.59291736023E+01  0.63471136300E+01  0.10566000000E+00 0.  1.
         14    1    4    4    0    0 -0.64901327046E+01 -0.13072772428E+02 -0.37689683145E+02  0.40416969419E+02  0.00000000000E+00 0. -1.
<mgrwt>
<rscale>  0 0.77771139E+02</rscale>
<asrwt>0</asrwt>
<pdfrwt beam="1">  1        1 0.19065463E-02 0.77771139E+02</pdfrwt>
<pdfrwt beam="2">  1       -2 0.18771668E-01 0.77771139E+02</pdfrwt>
<totfact> 0.10824028E+05</totfact>
</mgrwt>
</event>
<event>
 8    1  0.7756875E-014  0.7884269E+02  0.7818608E-02  0.1332368E+00
         -2   -1    0    0    0  501 -0.00000000000E+00  0.00000000000E+00  0.28425504888E+03  0.28425504889E+03  0.25500000000E-02 0.  1.
          1   -1    0    0  501    0  0.00000000000E+00 -0.00000000000E+00 -0.54670698951E+01  0.54670722182E+01  0.50400000000E-02 0. -1.
        -24    2    1    2    0    0  0.00000000000E+00  0.00000000000E+00  0.27878797899E+03  0.28972212111E+03  0.78842692964E+02 0.  0.
         66    2    3    3    0    0  0.21640144708E+02  0.76673796517E+01  0.25712808909E+03  0.25815874727E+03  0.20000052854E+01 0.  0.
         13    1    3    3    0    0 -0.21640144708E+02 -0.76673796517E+01  0.21659889900E+02  0.31563373841E+02  0.10566000000E+00 0. -1.
         13    1    4    4    0    0  0.15276277920E+01  0.33842937964E+00  0.16213504988E+02  0.16289170917E+02  0.10566000000E+00 0. -1.
        -13    1    4    4    0    0  0.16778400645E+02  0.55463864995E+01  0.20227113301E+03  0.20304162023E+03  0.10566000000E+00 0.  1.
        -14    1    4    4    0    0  0.33341162712E+01  0.17825637726E+01  0.38643451090E+02  0.38827956128E+02  0.00000000000E+00 0.  1.
<mgrwt>
<rscale>  0 0.78842693E+02</rscale>
<asrwt>0</asrwt>
<pdfrwt beam="1">  1        1 0.84108791E-03 0.78842693E+02</pdfrwt>
<pdfrwt beam="2">  1       -2 0.43731543E-01 0.78842693E+02</pdfrwt>
<totfact> 0.75093268E+04</totfact>
</mgrwt>
</event>
<event>
 8    1  0.7756875E-014  0.8069131E+02  0.7818608E-02  0.1327101E+00
         -2   -1    0    0    0  501 -0.00000000000E+00  0.00000000000E+00  0.13214042131E+02  0.13214042377E+02  0.25500000000E-02 0.  1.
          1   -1    0    0  501    0  0.00000000000E+00 -0.00000000000E+00 -0.12318500331E+03  0.12318500341E+03  0.50400000000E-02 0. -1.
        -24    2    1    2    0    0  0.00000000000E+00  0.00000000000E+00 -0.10997096118E+03  0.13639904579E+03  0.80691309259E+02 0.  0.
         66    2    3    3    0    0  0.18714187819E+02  0.15051192150E+02 -0.27045459887E+00  0.24100463792E+02  0.19999996097E+01 0.  0.
         13    1    3    3    0    0 -0.18714187819E+02 -0.15051192150E+02 -0.10970050658E+03  0.11229858200E+03  0.10566000000E+00 0. -1.
         13    1    4    4    0    0  0.13606437085E+02  0.11724636620E+02 -0.14432812130E+00  0.17962021842E+02  0.10566000000E+00 0.  1.
        -13    1    4    4    0    0  0.97510730312E+00  0.90623584122E+00  0.13440126241E+00  0.13421346384E+01  0.10566000000E+00 0. -1.
         14    1    4    4    0    0  0.41326434306E+01  0.24203196889E+01 -0.26052773998E+00  0.47963073112E+01  0.00000000000E+00 0. -1.
<mgrwt>
<rscale>  0 0.80691309E+02</rscale>
<asrwt>0</asrwt>
<pdfrwt beam="1">  1        1 0.18951538E-01 0.80691309E+02</pdfrwt>
<pdfrwt beam="2">  1       -2 0.20329297E-02 0.80691309E+02</pdfrwt>
<totfact> 0.14888222E+05</totfact>
</mgrwt>
</event>
<event>
 8    1  0.7756875E-014  0.8221567E+02  0.7818608E-02  0.1322879E+00
         -2   -1    0    0    0  501 -0.00000000000E+00  0.00000000000E+00  0.85356240000E+02  0.85356240038E+02  0.25500000000E-02 0.  1.
          1   -1    0    0  501    0  0.00000000000E+00 -0.00000000000E+00 -0.19797661489E+02  0.19797662131E+02  0.50400000000E-02 0. -1.
        -24    2    1    2    0    0  0.35527136788E-14  0.35527136788E-14  0.65558578511E+02  0.10515390217E+03  0.82215667150E+02 0.  0.
         66    2    3    3    0    0 -0.27215580020E+02 -0.27904308587E+02  0.49401558363E+02  0.62959131195E+02  0.19999996336E+01 0.  0.
         13    1    3    3    0    0  0.27215580020E+02  0.27904308587E+02  0.16157020147E+02  0.42194770974E+02  0.10566000000E+00 0. -1.
         13    1    4    4    0    0 -0.44251937082E+01 -0.39603823479E+01  0.78028039965E+01  0.98062164947E+01  0.10566000000E+00 0. -1.
        -13    1    4    4    0    0 -0.98698863687E+01 -0.11358136537E+02  0.18596049343E+02  0.23921666700E+02  0.10566000000E+00 0.  1.
        -14    1    4    4    0    0 -0.12920499943E+02 -0.12585789701E+02  0.23002705024E+02  0.29231248000E+02  0.00000000000E+00 0.  1.
<mgrwt>
<rscale>  0 0.82215667E+02</rscale>
<asrwt>0</asrwt>
<pdfrwt beam="1">  1        1 0.30457941E-02 0.82215667E+02</pdfrwt>
<pdfrwt beam="2">  1       -2 0.13131730E-01 0.82215667E+02</pdfrwt>
<totfact> 0.10275329E+05</totfact>
</mgrwt>
</event>
<event>
 8    1  0.7756875E-014  0.8004937E+02  0.7818608E-02  0.1328911E+00
         -2   -1    0    0    0  501 -0.00000000000E+00  0.00000000000E+00  0.27977474336E+02  0.27977474453E+02  0.25500000000E-02 0.  1.
          1   -1    0    0  501    0  0.00000000000E+00 -0.00000000000E+00 -0.57259467091E+02  0.57259467313E+02  0.50400000000E-02 0. -1.
        -24    2    1    2    0    0  0.00000000000E+00  0.00000000000E+00 -0.29281992755E+02  0.85236941765E+02  0.80049366905E+02 0.  0.
         66    2    3    3    0    0 -0.54122558859E+01 -0.20073184522E+02  0.21736699690E+02  0.30144806270E+02  0.19999952588E+01 0.  0.
         13    1    3    3    0    0  0.54122558859E+01  0.20073184522E+02 -0.51018692445E+02  0.55092135495E+02  0.10566000000E+00 0. -1.
         13    1    4    4    0    0 -0.35852821859E+00 -0.12559747382E+01  0.15316245568E+01  0.20157015764E+01  0.10566000000E+00 0.  1.
        -13    1    4    4    0    0 -0.44527417238E+01 -0.14349259529E+02  0.14785824281E+02  0.21079846337E+02  0.10566000000E+00 0.  1.
        -14    1    4    4    0    0 -0.60098594360E+00 -0.44679502548E+01  0.54192508519E+01  0.70492583567E+01  0.00000000000E+00 0.  1.
<mgrwt>
<rscale>  0 0.80049367E+02</rscale>
<asrwt>0</asrwt>
<pdfrwt beam="1">  1        1 0.88091488E-02 0.80049367E+02</pdfrwt>
<pdfrwt beam="2">  1       -2 0.43042268E-02 0.80049367E+02</pdfrwt>
<totfact> 0.13416870E+05</totfact>
</mgrwt>
</event>
<event>
 8    1  0.7756875E-014  0.7703387E+02  0.7818608E-02  0.1337686E+00
          1   -1    0    0  501    0  0.00000000000E+00  0.00000000000E+00  0.17321742506E+03  0.17321742514E+03  0.50400000000E-02 0. -1.
         -2   -1    0    0    0  501 -0.00000000000E+00 -0.00000000000E+00 -0.85646945735E+01  0.85646949531E+01  0.25500000000E-02 0.  1.
        -24    2    1    2    0    0  0.00000000000E+00  0.00000000000E+00  0.16465273049E+03  0.18178212009E+03  0.77033872592E+02 0.  0.
         66    2    3    3    0    0 -0.20152577737E+02 -0.16933417066E+02  0.16111160751E+02  0.30926307781E+02  0.20000023067E+01 0.  0.
         13    1    3    3    0    0  0.20152577737E+02  0.16933417066E+02  0.14854156974E+03  0.15085581231E+03  0.10566000000E+00 0. -1.
         13    1    4    4    0    0 -0.56205953605E+00 -0.72230556826E+00  0.63935369484E+00  0.11214158188E+01  0.10566000000E+00 0. -1.
        -13    1    4    4    0    0 -0.63621594862E+01 -0.59685442314E+01  0.58696902752E+01  0.10514990325E+02  0.10566000000E+00 0.  1.
        -14    1    4    4    0    0 -0.13228358714E+02 -0.10242567267E+02  0.96021167812E+01  0.19289901637E+02  0.00000000000E+00 0.  1.
<mgrwt>
<rscale>  0 0.77033873E+02</rscale>
<asrwt>0</asrwt>
<pdfrwt beam="1">  1        1 0.26648836E-01 0.77033873E+02</pdfrwt>
<pdfrwt beam="2">  1       -2 0.13176453E-02 0.77033873E+02</pdfrwt>
<totfact> 0.17932179E+05</totfact>
</mgrwt>
</event>
<event>
 8    1  0.7756875E-014  0.8011633E+02  0.7818608E-02  0.1328722E+00
         -2   -1    0    0    0  501 -0.00000000000E+00  0.00000000000E+00  0.72950463479E+02  0.72950463524E+02  0.25500000000E-02 0.  1.
          1   -1    0    0  501    0  0.00000000000E+00 -0.00000000000E+00 -0.21996522423E+02  0.21996523000E+02  0.50400000000E-02 0. -1.
        -24    2    1    2    0    0  0.35527136788E-14  0.00000000000E+00  0.50953941056E+02  0.94946986524E+02  0.80116328803E+02 0.  0.
         66    2    3    3    0    0 -0.22586771505E+02 -0.32977278283E+02  0.22845872111E+02  0.46082502143E+02  0.20000002966E+01 0.  0.
         13    1    3    3    0    0  0.22586771505E+02  0.32977278283E+02  0.28108068945E+02  0.48864484382E+02  0.10566000000E+00 0. -1.
         13    1    4    4    0    0 -0.65464257958E+01 -0.91249688845E+01  0.60038965537E+01  0.12734939564E+02  0.10566000000E+00 0. -1.
        -13    1    4    4    0    0 -0.62030147446E+01 -0.10496103612E+02  0.73087685802E+01  0.14215303203E+02  0.10566000000E+00 0.  1.
        -14    1    4    4    0    0 -0.98373309650E+01 -0.13356205787E+02  0.95332069772E+01  0.19132259375E+02  0.00000000000E+00 0.  1.
<mgrwt>
<rscale>  0 0.80116329E+02</rscale>
<asrwt>0</asrwt>
<pdfrwt beam="1">  1        1 0.33840805E-02 0.80116329E+02</pdfrwt>
<pdfrwt beam="2">  1       -2 0.11223148E-01 0.80116329E+02</pdfrwt>
<totfact> 0.11353167E+05</totfact>
</mgrwt>
</event>
<event>
 8    1  0.7756875E-014  0.7868725E+02  0.7818608E-02  0.1332819E+00
          1   -1    0    0  501    0  0.00000000000E+00  0.00000000000E+00  0.78694317721E+01  0.78694333860E+01  0.50400000000E-02 0. -1.
         -2   -1    0    0    0  501 -0.00000000000E+00 -0.00000000000E+00 -0.19670045911E+03  0.19670045912E+03  0.25500000000E-02 0.  1.
        -24    2    1    2    0    0  0.35527136788E-14  0.00000000000E+00 -0.18883102734E+03  0.20456989251E+03  0.78687254603E+02 0.  0.
         66    2    3    3    0    0  0.27219486930E+02 -0.27984920987E+02 -0.10663149210E+03  0.11357082093E+03  0.19999969991E+01 0.  0.
         13    1    3    3    0    0 -0.27219486930E+02  0.27984920987E+02 -0.82199535238E+02  0.90999071582E+02  0.10566000000E+00 0. -1.
         13    1    4    4    0    0  0.39488667831E+01 -0.32291296331E+01 -0.13274707340E+02  0.14221457241E+02  0.10566000000E+00 0. -1.
        -13    1    4    4    0    0  0.10406634512E+02 -0.11306399284E+02 -0.41418039756E+02  0.44176893144E+02  0.10566000000E+00 0.  1.
         14    1    4    4    0    0  0.12863985634E+02 -0.13449392070E+02 -0.51938745002E+02  0.55172470543E+02  0.00000000000E+00 0. -1.
<mgrwt>
<rscale>  0 0.78687255E+02</rscale>
<asrwt>0</asrwt>
<pdfrwt beam="1">  1        1 0.12106821E-02 0.78687255E+02</pdfrwt>
<pdfrwt beam="2">  1       -2 0.30261605E-01 0.78687255E+02</pdfrwt>
<totfact> 0.89380866E+04</totfact>
</mgrwt>
</event>
<event>
 8    1  0.7756875E-014  0.7903317E+02  0.7818608E-02  0.1331818E+00
         -2   -1    0    0    0  501 -0.00000000000E+00  0.00000000000E+00  0.63225148888E+02  0.63225148940E+02  0.25500000000E-02 0.  1.
          1   -1    0    0  501    0  0.00000000000E+00 -0.00000000000E+00 -0.24698408825E+02  0.24698409339E+02  0.50400000000E-02 0. -1.
        -24    2    1    2    0    0  0.00000000000E+00  0.00000000000E+00  0.38526740063E+02  0.87923558279E+02  0.79033172785E+02 0.  0.
         66    2    3    3    0    0  0.34761616322E+02 -0.17030463788E+02  0.27975095143E+02  0.47801805567E+02  0.20000002560E+01 0.  0.
         13    1    3    3    0    0 -0.34761616322E+02  0.17030463788E+02  0.10551644920E+02  0.40121752712E+02  0.10566000000E+00 0. -1.
         13    1    4    4    0    0  0.77814314855E+00 -0.20301500593E+00  0.44404468046E+00  0.92469539099E+00  0.10566000000E+00 0. -1.
        -13    1    4    4    0    0  0.18384574213E+02 -0.86268002733E+01  0.14219876596E+02  0.24791738672E+02  0.10566000000E+00 0.  1.
         14    1    4    4    0    0  0.15598898960E+02 -0.82006485085E+01  0.13311173867E+02  0.22085371503E+02  0.00000000000E+00 0. -1.
<mgrwt>
<rscale>  0 0.79033173E+02</rscale>
<asrwt>0</asrwt>
<pdfrwt beam="1">  1        1 0.37997552E-02 0.79033173E+02</pdfrwt>
<pdfrwt beam="2">  1       -2 0.97269460E-02 0.79033173E+02</pdfrwt>
<totfact> 0.12089143E+05</totfact>
</mgrwt>
</event>
<event>
 8    1  0.7756875E-014  0.7705264E+02  0.7818608E-02  0.1337630E+00
         -2   -1    0    0    0  501 -0.00000000000E+00  0.00000000000E+00  0.10616312547E+02  0.10616312853E+02  0.25500000000E-02 0.  1.
          1   -1    0    0  501    0  0.00000000000E+00 -0.00000000000E+00 -0.13981098830E+03  0.13981098839E+03  0.50400000000E-02 0. -1.
        -24    2    1    2    0    0  0.00000000000E+00  0.00000000000E+00 -0.12919467575E+03  0.15042730124E+03  0.77052636013E+02 0.  0.
         66    2    3    3    0    0  0.23583130078E+02 -0.15652810913E+02 -0.13690772991E+02  0.31505742093E+02  0.20000014965E+01 0.  0.
         13    1    3    3    0    0 -0.23583130078E+02  0.15652810913E+02 -0.11550390276E+03  0.11892155915E+03  0.10566000000E+00 0. -1.
         13    1    4    4    0    0  0.74902898856E+01 -0.42567008747E+01 -0.35530542683E+01  0.93198338813E+01  0.10566000000E+00 0. -1.
        -13    1    4    4    0    0  0.13085480943E+02 -0.90566616395E+01 -0.84530022255E+01  0.18019915156E+02  0.10566000000E+00 0.  1.
        -14    1    4    4    0    0  0.30073592487E+01 -0.23394483985E+01 -0.16847164972E+01  0.41659930552E+01  0.00000000000E+00 0.  1.
<mgrwt>
<rscale>  0 0.77052636E+02</rscale>
<asrwt>0</asrwt>
<pdfrwt beam="1">  1        1 0.21509382E-01 0.77052636E+02</pdfrwt>
<pdfrwt beam="2">  1       -2 0.16332790E-02 0.77052636E+02</pdfrwt>
<totfact> 0.17229869E+05</totfact>
</mgrwt>
</event>
<event>
 8    1  0.7756875E-014  0.8103734E+02  0.7818608E-02  0.1326133E+00
         -2   -1    0    0    0  501 -0.00000000000E+00  0.00000000000E+00  0.54757360906E+02  0.54757360966E+02  0.25500000000E-02 0.  1.
          1   -1    0    0  501    0  0.00000000000E+00 -0.00000000000E+00 -0.29982502848E+02  0.29982503271E+02  0.50400000000E-02 0. -1.
        -24    2    1    2    0    0  0.35527136788E-14 -0.35527136788E-14  0.24774858058E+02  0.84739864237E+02  0.81037343238E+02 0.  0.
         66    2    3    3    0    0  0.25359463092E+02 -0.17961877840E+02  0.39543151109E+02  0.50332814559E+02  0.19999994959E+01 0.  0.
         13    1    3    3    0    0 -0.25359463092E+02  0.17961877840E+02 -0.14768293051E+02  0.34407049678E+02  0.10566000000E+00 0. -1.
         13    1    4    4    0    0  0.48787628497E+00 -0.30619150732E+00  0.74892614873E+00  0.95070022638E+00  0.10566000000E+00 0.  1.
        -13    1    4    4    0    0  0.23996451221E+02 -0.16763594564E+02  0.37625058133E+02  0.47670787044E+02  0.10566000000E+00 0.  1.
        -14    1    4    4    0    0  0.87513558588E+00 -0.89209176913E+00  0.11691668276E+01  0.17113272887E+01  0.00000000000E+00 0.  1.
<mgrwt>
<rscale>  0 0.81037343E+02</rscale>
<asrwt>0</asrwt>
<pdfrwt beam="1">  1        1 0.46126929E-02 0.81037343E+02</pdfrwt>
<pdfrwt beam="2">  1       -2 0.84242093E-02 0.81037343E+02</pdfrwt>
<totfact> 0.11653311E+05</totfact>
</mgrwt>
</event>
<event>
 8    1  0.7756875E-014  0.6942225E+02  0.7818608E-02  0.1362069E+00
          1   -1    0    0  501    0  0.00000000000E+00  0.00000000000E+00  0.57185336828E+02  0.57185337050E+02  0.50400000000E-02 0. -1.
         -2   -1    0    0    0  501 -0.00000000000E+00 -0.00000000000E+00 -0.21069426056E+02  0.21069426210E+02  0.25500000000E-02 0.  1.
        -24    2    1    2    0    0  0.35527136788E-14  0.35527136788E-14  0.36115910772E+02  0.78254763260E+02  0.69422251203E+02 0.  0.
         66    2    3    3    0    0 -0.19430481178E+02 -0.28450086517E+02  0.22568617135E+02  0.41234615360E+02  0.20000007203E+01 0.  0.
         13    1    3    3    0    0  0.19430481178E+02  0.28450086517E+02  0.13547293637E+02  0.37020147900E+02  0.10566000000E+00 0. -1.
         13    1    4    4    0    0 -0.63894206743E+01 -0.78611382040E+01  0.70011983776E+01  0.12314630858E+02  0.10566000000E+00 0. -1.
        -13    1    4    4    0    0 -0.59402073564E+01 -0.95151522229E+01  0.71844031461E+01  0.13321073450E+02  0.10566000000E+00 0.  1.
         14    1    4    4    0    0 -0.71008531474E+01 -0.11073796090E+02  0.83830156117E+01  0.15598911052E+02  0.00000000000E+00 0. -1.
<mgrwt>
<rscale>  0 0.69422251E+02</rscale>
<asrwt>0</asrwt>
<pdfrwt beam="1">  1        1 0.87977441E-02 0.69422251E+02</pdfrwt>
<pdfrwt beam="2">  1       -2 0.32414502E-02 0.69422251E+02</pdfrwt>
<totfact> 0.19785561E+05</totfact>
</mgrwt>
</event>
<event>
 8    1  0.8581431E-014  0.7925480E+02  0.7818608E-02  0.1331180E+00
         -2   -1    0    0    0  501 -0.00000000000E+00  0.00000000000E+00  0.33393208774E+02  0.33393208871E+02  0.25500000000E-02 0.  1.
          1   -1    0    0  501    0  0.00000000000E+00 -0.00000000000E+00 -0.47025453090E+02  0.47025453360E+02  0.50400000000E-02 0. -1.
        -24    2    1    2    0    0 -0.17763568394E-14 -0.79797279895E-16 -0.13632244315E+02  0.80418662231E+02  0.79254798908E+02 0.  0.
         66    2    3    3    0    0  0.11696531037E+02 -0.18684269266E-01  0.31570554129E+02  0.33726978403E+02  0.19999991975E+01 0.  0.
         13    1    3    3    0    0 -0.11696531037E+02  0.18684269266E-01 -0.45202798445E+02  0.46691683828E+02  0.10566000000E+00 0. -1.
         13    1    4    4    0    0  0.22419210754E+01 -0.39207424996E+00  0.47538903295E+01  0.52716761686E+01  0.10566000000E+00 0. -1.
        -13    1    4    4    0    0  0.57575293695E+01 -0.25992846620E+00  0.15991809158E+02  0.16998995013E+02  0.10566000000E+00 0.  1.
         14    1    4    4    0    0  0.36970805923E+01  0.63331844689E+00  0.10824854641E+02  0.11456307222E+02  0.00000000000E+00 0. -1.
<mgrwt>
<rscale>  0 0.79254799E+02</rscale>
<asrwt>0</asrwt>
<pdfrwt beam="1">  1        1 0.72346852E-02 0.79254799E+02</pdfrwt>
<pdfrwt beam="2">  1       -2 0.51374167E-02 0.79254799E+02</pdfrwt>
<totfact> 0.13375024E+05</totfact>
</mgrwt>
</event>
<event>
 8    1  0.7756875E-014  0.7989453E+02  0.7818608E-02  0.1329351E+00
         -2   -1    0    0    0  501 -0.00000000000E+00  0.00000000000E+00  0.55637052321E+02  0.55637052379E+02  0.25500000000E-02 0.  1.
          1   -1    0    0  501    0  0.00000000000E+00 -0.00000000000E+00 -0.28682039268E+02  0.28682039710E+02  0.50400000000E-02 0. -1.
        -24    2    1    2    0    0  0.00000000000E+00 -0.35527136788E-14  0.26955013053E+02  0.84319092090E+02  0.79894533994E+02 0.  0.
         66    2    3    3    0    0 -0.10624633450E+01  0.19683310845E+02  0.50124758214E+02  0.53898542966E+02  0.19999984173E+01 0.  0.
         13    1    3    3    0    0  0.10624633450E+01 -0.19683310845E+02 -0.23169745160E+02  0.30420549124E+02  0.10566000000E+00 0. -1.
         13    1    4    4    0    0  0.38321725595E+00  0.25776451542E+01  0.74647315444E+01  0.79072429501E+01  0.10566000000E+00 0. -1.
        -13    1    4    4    0    0 -0.91470632022E+00  0.68888494103E+01  0.16759629449E+02  0.18143573991E+02  0.10566000000E+00 0.  1.
         14    1    4    4    0    0 -0.53097428069E+00  0.10216816281E+02  0.25900397220E+02  0.27847726025E+02  0.00000000000E+00 0. -1.
<mgrwt>
<rscale>  0 0.79894534E+02</rscale>
<asrwt>0</asrwt>
<pdfrwt beam="1">  1        1 0.44126215E-02 0.79894534E+02</pdfrwt>
<pdfrwt beam="2">  1       -2 0.85595464E-02 0.79894534E+02</pdfrwt>
<totfact> 0.12043854E+05</totfact>
</mgrwt>
</event>
<event>
 8    1  0.7756875E-014  0.8128411E+02  0.7818608E-02  0.1325446E+00
         -2   -1    0    0    0  501 -0.00000000000E+00  0.00000000000E+00  0.24853051729E+03  0.24853051730E+03  0.25500000000E-02 0.  1.
          1   -1    0    0  501    0  0.00000000000E+00 -0.00000000000E+00 -0.66461709815E+01  0.66461728924E+01  0.50400000000E-02 0. -1.
        -24    2    1    2    0    0  0.00000000000E+00  0.17763568394E-14  0.24188434630E+03  0.25517669019E+03  0.81284108102E+02 0.  0.
         66    2    3    3    0    0  0.36350189098E+02  0.14389764449E+02  0.15560044843E+03  0.16044906083E+03  0.20000001418E+01 0.  0.
         13    1    3    3    0    0 -0.36350189098E+02 -0.14389764449E+02  0.86283897874E+02  0.94727629363E+02  0.10566000000E+00 0. -1.
         13    1    4    4    0    0  0.17203195362E+02  0.65321332074E+01  0.74114454634E+02  0.76364797156E+02  0.10566000000E+00 0. -1.
        -13    1    4    4    0    0  0.18739101604E+02  0.77414541294E+01  0.78889009387E+02  0.81452875990E+02  0.10566000000E+00 0.  1.
         14    1    4    4    0    0  0.40789213237E+00  0.11617711217E+00  0.25969844087E+01  0.26313876818E+01  0.00000000000E+00 0. -1.
<mgrwt>
<rscale>  0 0.81284108E+02</rscale>
<asrwt>0</asrwt>
<pdfrwt beam="1">  1        1 0.10224882E-02 0.81284108E+02</pdfrwt>
<pdfrwt beam="2">  1       -2 0.38235458E-01 0.81284108E+02</pdfrwt>
<totfact> 0.74214546E+04</totfact>
</mgrwt>
</event>
<event>
 8    1  0.7756875E-014  0.8790190E+02  0.7818608E-02  0.1308014E+00
          1   -1    0    0  501    0  0.00000000000E+00  0.00000000000E+00  0.34063568106E+03  0.34063568109E+03  0.50400000000E-02 0. -1.
         -2   -1    0    0    0  501 -0.00000000000E+00 -0.00000000000E+00 -0.56708264121E+01  0.56708269855E+01  0.25500000000E-02 0.  1.
        -24    2    1    2    0    0  0.17763568394E-14 -0.71054273576E-14  0.33496485464E+03  0.34630650808E+03  0.87901898109E+02 0.  0.
         66    2    3    3    0    0  0.10935578973E+02 -0.38635648844E+02  0.97382549297E+02  0.10535492948E+03  0.20000025212E+01 0.  0.
         13    1    3    3    0    0 -0.10935578973E+02  0.38635648844E+02  0.23758230535E+03  0.24095157859E+03  0.10566000000E+00 0. -1.
         13    1    4    4    0    0  0.13453664892E+01 -0.55592417768E+01  0.12761447163E+02  0.13985023341E+02  0.10566000000E+00 0. -1.
        -13    1    4    4    0    0  0.25848517787E+01 -0.70493052592E+01  0.18732248468E+02  0.20181240301E+02  0.10566000000E+00 0.  1.
         14    1    4    4    0    0  0.70053607050E+01 -0.26027101808E+02  0.65888853665E+02  0.71188665843E+02  0.00000000000E+00 0. -1.
<mgrwt>
<rscale>  0 0.87901898E+02</rscale>
<asrwt>0</asrwt>
<pdfrwt beam="1">  1        1 0.52405500E-01 0.87901898E+02</pdfrwt>
<pdfrwt beam="2">  1       -2 0.87243471E-03 0.87901898E+02</pdfrwt>
<totfact> 0.14399836E+05</totfact>
</mgrwt>
</event>
<event>
 8    1  0.7756875E-014  0.8116822E+02  0.7818608E-02  0.1325769E+00
         -2   -1    0    0    0  501 -0.00000000000E+00  0.00000000000E+00  0.21570320943E+03  0.21570320944E+03  0.25500000000E-02 0.  1.
          1   -1    0    0  501    0  0.00000000000E+00 -0.00000000000E+00 -0.76358149173E+01  0.76358165806E+01  0.50400000000E-02 0. -1.
        -24    2    1    2    0    0 -0.35527136788E-14 -0.35527136788E-14  0.20806739451E+03  0.22333902602E+03  0.81168219685E+02 0.  0.
         66    2    3    3    0    0  0.31548203202E+02  0.17351978933E+02  0.15547679481E+03  0.15960392864E+03  0.20000033134E+01 0.  0.
         13    1    3    3    0    0 -0.31548203202E+02 -0.17351978933E+02  0.52590599699E+02  0.63735097386E+02  0.10566000000E+00 0. -1.
         13    1    4    4    0    0  0.30979414159E+01  0.12198698266E+01  0.14955063378E+02  0.15321566763E+02  0.10566000000E+00 0. -1.
        -13    1    4    4    0    0  0.48642513245E+01  0.28166571440E+01  0.26105158341E+02  0.26703650583E+02  0.10566000000E+00 0.  1.
        -14    1    4    4    0    0  0.23586010461E+02  0.13315451963E+02  0.11441657309E+03  0.11757871129E+03  0.00000000000E+00 0.  1.
<mgrwt>
<rscale>  0 0.81168220E+02</rscale>
<asrwt>0</asrwt>
<pdfrwt beam="1">  1        1 0.11747409E-02 0.81168220E+02</pdfrwt>
<pdfrwt beam="2">  1       -2 0.33185108E-01 0.81168220E+02</pdfrwt>
<totfact> 0.79407956E+04</totfact>
</mgrwt>
</event>
<event>
 8    1  0.7756875E-014  0.8175918E+02  0.7818608E-02  0.1324132E+00
          1   -1    0    0  501    0  0.00000000000E+00  0.00000000000E+00  0.96365310016E+01  0.96365323196E+01  0.50400000000E-02 0. -1.
         -2   -1    0    0    0  501 -0.00000000000E+00 -0.00000000000E+00 -0.17341724044E+03  0.17341724046E+03  0.25500000000E-02 0.  1.
        -24    2    1    2    0    0  0.88817841970E-15 -0.71054273576E-14 -0.16378070944E+03  0.18305377278E+03  0.81759176515E+02 0.  0.
         66    2    3    3    0    0  0.43574980639E+01 -0.34736251327E+02 -0.12909218122E+03  0.13376990017E+03  0.19999982240E+01 0.  0.
         13    1    3    3    0    0 -0.43574980639E+01  0.34736251327E+02 -0.34688528221E+02  0.49283872614E+02  0.10566000000E+00 0. -1.
         13    1    4    4    0    0  0.66349245355E+00 -0.91441232870E+01 -0.36550681478E+02  0.37683135399E+02  0.10566000000E+00 0. -1.
        -13    1    4    4    0    0  0.17535403301E+01 -0.13183627878E+02 -0.47891407688E+02  0.49703933869E+02  0.10566000000E+00 0.  1.
         14    1    4    4    0    0  0.19404652803E+01 -0.12408500163E+02 -0.44650092056E+02  0.46382830901E+02  0.00000000000E+00 0. -1.
<mgrwt>
<rscale>  0 0.81759177E+02</rscale>
<asrwt>0</asrwt>
<pdfrwt beam="1">  1        1 0.14825435E-02 0.81759177E+02</pdfrwt>
<pdfrwt beam="2">  1       -2 0.26679573E-01 0.81759177E+02</pdfrwt>
<totfact> 0.84977812E+04</totfact>
</mgrwt>
</event>
<event>
 8    1  0.7756875E-014  0.7905047E+02  0.7818608E-02  0.1331768E+00
          1   -1    0    0  501    0  0.00000000000E+00  0.00000000000E+00  0.68899393000E+02  0.68899393184E+02  0.50400000000E-02 0. -1.
         -2   -1    0    0    0  501 -0.00000000000E+00 -0.00000000000E+00 -0.22674279701E+02  0.22674279844E+02  0.25500000000E-02 0.  1.
        -24    2    1    2    0    0 -0.88817841970E-15  0.00000000000E+00  0.46225113299E+02  0.91573673028E+02  0.79050468008E+02 0.  0.
         66    2    3    3    0    0 -0.61514086765E+01  0.14169748644E+02 -0.18985972757E+02  0.24557865087E+02  0.19999926820E+01 0.  0.
         13    1    3    3    0    0  0.61514086765E+01 -0.14169748644E+02  0.65211086056E+02  0.67015807941E+02  0.10566000000E+00 0. -1.
         13    1    4    4    0    0 -0.43908673098E+01  0.86020314418E+01 -0.12020879077E+02  0.15420355329E+02  0.10566000000E+00 0. -1.
        -13    1    4    4    0    0 -0.14208058065E+01  0.30431754334E+01 -0.37397530266E+01  0.50275762146E+01  0.10566000000E+00 0.  1.
         14    1    4    4    0    0 -0.33973556014E+00  0.25245417692E+01 -0.32253406539E+01  0.41099335431E+01  0.00000000000E+00 0. -1.
<mgrwt>
<rscale>  0 0.79050468E+02</rscale>
<asrwt>0</asrwt>
<pdfrwt beam="1">  1        1 0.10599907E-01 0.79050468E+02</pdfrwt>
<pdfrwt beam="2">  1       -2 0.34883507E-02 0.79050468E+02</pdfrwt>
<totfact> 0.14295616E+05</totfact>
</mgrwt>
</event>
<event>
 8    1  0.7756875E-014  0.7611182E+02  0.7818608E-02  0.1340462E+00
         -2   -1    0    0    0  501 -0.00000000000E+00  0.00000000000E+00  0.11458033127E+02  0.11458033411E+02  0.25500000000E-02 0.  1.
          1   -1    0    0  501    0  0.00000000000E+00 -0.00000000000E+00 -0.12639625150E+03  0.12639625160E+03  0.50400000000E-02 0. -1.
        -24    2    1    2    0    0  0.35527136788E-14  0.35527136788E-14 -0.11493821837E+03  0.13785428501E+03  0.76111824660E+02 0.  0.
         66    2    3    3    0    0  0.18505125549E+02  0.23105112383E+02 -0.14268154657E+02  0.32922122246E+02  0.20000015277E+01 0.  0.
         13    1    3    3    0    0 -0.18505125549E+02 -0.23105112383E+02 -0.10067006371E+03  0.10493216276E+03  0.10566000000E+00 0. -1.
         13    1    4    4    0    0  0.64798944536E+01  0.74337964289E+01 -0.51645879185E+01  0.11132587026E+02  0.10566000000E+00 0. -1.
        -13    1    4    4    0    0  0.10745579497E+02  0.14595544967E+02 -0.83559395778E+01  0.19958213895E+02  0.10566000000E+00 0.  1.
         14    1    4    4    0    0  0.12796515980E+01  0.10757709870E+01 -0.74762716022E+00  0.18313213261E+01  0.00000000000E+00 0. -1.
<mgrwt>
<rscale>  0 0.76111825E+02</rscale>
<asrwt>0</asrwt>
<pdfrwt beam="1">  1        1 0.19445576E-01 0.76111825E+02</pdfrwt>
<pdfrwt beam="2">  1       -2 0.17627744E-02 0.76111825E+02</pdfrwt>
<totfact> 0.17488765E+05</totfact>
</mgrwt>
</event>
<event>
 8    1  0.7756875E-014  0.7918618E+02  0.7818608E-02  0.1331377E+00
          1   -1    0    0  501    0  0.00000000000E+00  0.00000000000E+00  0.64127035138E+02  0.64127035336E+02  0.50400000000E-02 0. -1.
         -2   -1    0    0    0  501 -0.00000000000E+00 -0.00000000000E+00 -0.24445427718E+02  0.24445427851E+02  0.25500000000E-02 0.  1.
        -24    2    1    2    0    0  0.00000000000E+00  0.00000000000E+00  0.39681607420E+02  0.88572463187E+02  0.79186181040E+02 0.  0.
         66    2    3    3    0    0 -0.17296010166E+02  0.34811200024E+02  0.11585628255E+02  0.40610323701E+02  0.19999985712E+01 0.  0.
         13    1    3    3    0    0  0.17296010166E+02 -0.34811200024E+02  0.28095979165E+02  0.47962139486E+02  0.10566000000E+00 0. -1.
         13    1    4    4    0    0 -0.25288799547E+01  0.47671377361E+01  0.18039323192E+01  0.56908849811E+01  0.10566000000E+00 0. -1.
        -13    1    4    4    0    0 -0.12580134357E+02  0.26724901194E+02  0.88748742174E+01  0.30842416908E+02  0.10566000000E+00 0.  1.
        -14    1    4    4    0    0 -0.21869958543E+01  0.33191610935E+01  0.90682171826E+00  0.40770218125E+01  0.00000000000E+00 0.  1.
<mgrwt>
<rscale>  0 0.79186181E+02</rscale>
<asrwt>0</asrwt>
<pdfrwt beam="1">  1        1 0.98656976E-02 0.79186181E+02</pdfrwt>
<pdfrwt beam="2">  1       -2 0.37608351E-02 0.79186181E+02</pdfrwt>
<totfact> 0.14069942E+05</totfact>
</mgrwt>
</event>
<event>
 8    1  0.7756875E-014  0.8000276E+02  0.7818608E-02  0.1329044E+00
         -2   -1    0    0    0  501 -0.00000000000E+00  0.00000000000E+00  0.17173039589E+03  0.17173039591E+03  0.25500000000E-02 0.  1.
          1   -1    0    0  501    0  0.00000000000E+00 -0.00000000000E+00 -0.93175721620E+01  0.93175735251E+01  0.50400000000E-02 0. -1.
        -24    2    1    2    0    0  0.00000000000E+00 -0.35527136788E-14  0.16241282373E+03  0.18104796944E+03  0.80002761984E+02 0.  0.
         66    2    3    3    0    0 -0.25019905990E+02  0.25218193691E+02  0.12274830472E+03  0.12780101440E+03  0.19999949846E+01 0.  0.
         13    1    3    3    0    0  0.25019905990E+02 -0.25218193691E+02  0.39664519009E+02  0.53246955040E+02  0.10566000000E+00 0. -1.
         13    1    4    4    0    0 -0.12162974119E+02  0.13379050884E+02  0.60385366433E+02  0.63034439676E+02  0.10566000000E+00 0. -1.
        -13    1    4    4    0    0 -0.99310220163E+01  0.92198205282E+01  0.48771320758E+02  0.50619000201E+02  0.10566000000E+00 0.  1.
         14    1    4    4    0    0 -0.29259098550E+01  0.26193222784E+01  0.13591617531E+02  0.14147574519E+02  0.00000000000E+00 0. -1.
<mgrwt>
<rscale>  0 0.80002762E+02</rscale>
<asrwt>0</asrwt>
<pdfrwt beam="1">  1        1 0.14334728E-02 0.80002762E+02</pdfrwt>
<pdfrwt beam="2">  1       -2 0.26420060E-01 0.80002762E+02</pdfrwt>
<totfact> 0.90192240E+04</totfact>
</mgrwt>
</event>
<event>
 8    1  0.7756875E-014  0.7941439E+02  0.7818608E-02  0.1330722E+00
         -2   -1    0    0    0  501 -0.00000000000E+00  0.00000000000E+00  0.12263205616E+02  0.12263205881E+02  0.25500000000E-02 0.  1.
          1   -1    0    0  501    0  0.00000000000E+00 -0.00000000000E+00 -0.12856845951E+03  0.12856845961E+03  0.50400000000E-02 0. -1.
        -24    2    1    2    0    0  0.00000000000E+00  0.00000000000E+00 -0.11630525390E+03  0.14083166549E+03  0.79414393668E+02 0.  0.
         66    2    3    3    0    0  0.30567115460E+02 -0.22786432222E+02 -0.38675289295E+02  0.54344714980E+02  0.20000008106E+01 0.  0.
         13    1    3    3    0    0 -0.30567115460E+02  0.22786432222E+02 -0.77629964603E+02  0.86486950514E+02  0.10566000000E+00 0. -1.
         13    1    4    4    0    0  0.71631200879E+00 -0.87909356159E+00 -0.13725179391E+01  0.17835015876E+01  0.10566000000E+00 0. -1.
        -13    1    4    4    0    0  0.93326320914E+01 -0.70682412052E+01 -0.11758786470E+02  0.16593320306E+02  0.10566000000E+00 0.  1.
         14    1    4    4    0    0  0.20518171360E+02 -0.14839097455E+02 -0.25543984886E+02  0.35967893087E+02  0.00000000000E+00 0. -1.
<mgrwt>
<rscale>  0 0.79414394E+02</rscale>
<asrwt>0</asrwt>
<pdfrwt beam="1">  1        1 0.19779762E-01 0.79414394E+02</pdfrwt>
<pdfrwt beam="2">  1       -2 0.18866471E-02 0.79414394E+02</pdfrwt>
<totfact> 0.15658111E+05</totfact>
</mgrwt>
</event>
<event>
 8    1  0.7756875E-014  0.7893657E+02  0.7818608E-02  0.1332097E+00
          1   -1    0    0  501    0  0.00000000000E+00  0.00000000000E+00  0.92581174060E+02  0.92581174197E+02  0.50400000000E-02 0. -1.
         -2   -1    0    0    0  501 -0.00000000000E+00 -0.00000000000E+00 -0.16825725701E+02  0.16825725894E+02  0.25500000000E-02 0.  1.
        -24    2    1    2    0    0  0.00000000000E+00  0.71054273576E-14  0.75755448360E+02  0.10940690009E+03  0.78936568404E+02 0.  0.
         66    2    3    3    0    0  0.31049065592E+01 -0.33086729498E+02  0.84555831857E+01  0.34349221403E+02  0.20000025924E+01 0.  0.
         13    1    3    3    0    0 -0.31049065592E+01  0.33086729498E+02  0.67299865174E+02  0.75057678688E+02  0.10566000000E+00 0. -1.
         13    1    4    4    0    0  0.48383896623E+00 -0.25283091738E+01  0.27831760041E+00  0.25913456246E+01  0.10566000000E+00 0. -1.
        -13    1    4    4    0    0  0.20218261202E+01 -0.27013132018E+02  0.70860918731E+01  0.28000374004E+02  0.10566000000E+00 0.  1.
        -14    1    4    4    0    0  0.59924147279E+00 -0.35452883063E+01  0.10911737122E+01  0.37575017748E+01  0.00000000000E+00 0.  1.
<mgrwt>
<rscale>  0 0.78936568E+02</rscale>
<asrwt>0</asrwt>
<pdfrwt beam="1">  1        1 0.14243258E-01 0.78936568E+02</pdfrwt>
<pdfrwt beam="2">  1       -2 0.25885732E-02 0.78936568E+02</pdfrwt>
<totfact> 0.15046600E+05</totfact>
</mgrwt>
</event>
<event>
 8    1  0.7756875E-014  0.8082006E+02  0.7818608E-02  0.1326740E+00
         -2   -1    0    0    0  501 -0.00000000000E+00  0.00000000000E+00  0.22858209294E+02  0.22858209436E+02  0.25500000000E-02 0.  1.
          1   -1    0    0  501    0  0.00000000000E+00 -0.00000000000E+00 -0.71439128589E+02  0.71439128766E+02  0.50400000000E-02 0. -1.
        -24    2    1    2    0    0  0.35527136788E-14  0.00000000000E+00 -0.48580919295E+02  0.94297338202E+02  0.80820061077E+02 0.  0.
         66    2    3    3    0    0  0.26597977667E+02 -0.15163764222E+02  0.64221543744E+01  0.31347028922E+02  0.19999985070E+01 0.  0.
         13    1    3    3    0    0 -0.26597977667E+02  0.15163764222E+02 -0.55003073669E+02  0.62950309280E+02  0.10566000000E+00 0. -1.
         13    1    4    4    0    0  0.40030651640E+01 -0.21178290644E+01  0.11323616223E+01  0.46693829927E+01  0.10566000000E+00 0. -1.
        -13    1    4    4    0    0  0.18257457658E+02 -0.10104861317E+02  0.48133756022E+01  0.21415478773E+02  0.10566000000E+00 0.  1.
         14    1    4    4    0    0  0.43374548451E+01 -0.29410738410E+01  0.47641714993E+00  0.52621671555E+01  0.00000000000E+00 0. -1.
<mgrwt>
<rscale>  0 0.80820061E+02</rscale>
<asrwt>0</asrwt>
<pdfrwt beam="1">  1        1 0.10990635E-01 0.80820061E+02</pdfrwt>
<pdfrwt beam="2">  1       -2 0.35166476E-02 0.80820061E+02</pdfrwt>
<totfact> 0.13532246E+05</totfact>
</mgrwt>
</event>
<event>
 8    1  0.7756875E-014  0.7640709E+02  0.7818608E-02  0.1339568E+00
         -2   -1    0    0    0  501 -0.00000000000E+00  0.00000000000E+00  0.52415815365E+01  0.52415821568E+01  0.25500000000E-02 0.  1.
          1   -1    0    0  501    0  0.00000000000E+00 -0.00000000000E+00 -0.27844855627E+03  0.27844855632E+03  0.50400000000E-02 0. -1.
        -24    2    1    2    0    0  0.00000000000E+00  0.00000000000E+00 -0.27320697474E+03  0.28369013848E+03  0.76407091448E+02 0.  0.
         66    2    3    3    0    0 -0.14230086602E+02  0.33719841511E+02 -0.96367566394E+02  0.10310301107E+03  0.19999909003E+01 0.  0.
         13    1    3    3    0    0  0.14230086602E+02 -0.33719841511E+02 -0.17683940834E+03  0.18058712740E+03  0.10566000000E+00 0. -1.
         13    1    4    4    0    0 -0.11846736669E-01  0.11949367547E+00 -0.33578283992E+00  0.37193176098E+00  0.10566000000E+00 0.  1.
        -13    1    4    4    0    0 -0.11111926640E+01  0.30041365819E+01 -0.85752716188E+01  0.91545635128E+01  0.10566000000E+00 0. -1.
        -14    1    4    4    0    0 -0.13107047201E+02  0.30596211253E+02 -0.87456511935E+02  0.93576515800E+02  0.00000000000E+00 0.  1.
<mgrwt>
<rscale>  0 0.76407091E+02</rscale>
<asrwt>0</asrwt>
<pdfrwt beam="1">  1        1 0.42838228E-01 0.76407091E+02</pdfrwt>
<pdfrwt beam="2">  1       -2 0.80639742E-03 0.76407091E+02</pdfrwt>
<totfact> 0.20072249E+05</totfact>
</mgrwt>
</event>
<event>
 8    1  0.7756875E-014  0.7816369E+02  0.7818608E-02  0.1334345E+00
          1   -1    0    0  501    0  0.00000000000E+00  0.00000000000E+00  0.24939491941E+02  0.24939492450E+02  0.50400000000E-02 0. -1.
         -2   -1    0    0    0  501 -0.00000000000E+00 -0.00000000000E+00 -0.61243850149E+02  0.61243850202E+02  0.25500000000E-02 0.  1.
        -24    2    1    2    0    0 -0.17763568394E-14  0.17763568394E-14 -0.36304358208E+02  0.86183342653E+02  0.78163688026E+02 0.  0.
         66    2    3    3    0    0  0.14750017968E+02 -0.15698962584E+02 -0.54085219287E+02  0.58251449752E+02  0.19999991649E+01 0.  0.
         13    1    3    3    0    0 -0.14750017968E+02  0.15698962584E+02  0.17780861078E+02  0.27931892900E+02  0.10566000000E+00 0. -1.
         13    1    4    4    0    0  0.38868605482E+01 -0.40195746922E+01 -0.12011974997E+02  0.13250032943E+02  0.10566000000E+00 0. -1.
        -13    1    4    4    0    0  0.45927116328E+01 -0.46982549823E+01 -0.16438958552E+02  0.17703590662E+02  0.10566000000E+00 0.  1.
         14    1    4    4    0    0  0.62704457866E+01 -0.69811329100E+01 -0.25634285738E+02  0.27297826147E+02  0.00000000000E+00 0. -1.
<mgrwt>
<rscale>  0 0.78163688E+02</rscale>
<asrwt>0</asrwt>
<pdfrwt beam="1">  1        1 0.38368450E-02 0.78163688E+02</pdfrwt>
<pdfrwt beam="2">  1       -2 0.94221308E-02 0.78163688E+02</pdfrwt>
<totfact> 0.12507212E+05</totfact>
</mgrwt>
</event>
<event>
 8    1  0.7756875E-014  0.7921273E+02  0.7818608E-02  0.1331301E+00
         -2   -1    0    0    0  501 -0.00000000000E+00  0.00000000000E+00  0.99001840037E+02  0.99001840070E+02  0.25500000000E-02 0.  1.
          1   -1    0    0  501    0  0.00000000000E+00 -0.00000000000E+00 -0.15844797665E+02  0.15844798467E+02  0.50400000000E-02 0. -1.
        -24    2    1    2    0    0 -0.35527136788E-14  0.00000000000E+00  0.83157042372E+02  0.11484663854E+03  0.79212730588E+02 0.  0.
         66    2    3    3    0    0  0.25618596591E+02 -0.25102971076E+02  0.17336184249E+02  0.39887528509E+02  0.19999995249E+01 0.  0.
         13    1    3    3    0    0 -0.25618596591E+02  0.25102971076E+02  0.65820858122E+02  0.74959110028E+02  0.10566000000E+00 0. -1.
         13    1    4    4    0    0  0.11567228001E+02 -0.10730925755E+02  0.70668285570E+01  0.17288862342E+02  0.10566000000E+00 0. -1.
        -13    1    4    4    0    0  0.78387547263E+01 -0.72970977323E+01  0.52122718092E+01  0.11911030704E+02  0.10566000000E+00 0.  1.
         14    1    4    4    0    0  0.62126138640E+01 -0.70749475880E+01  0.50570838831E+01  0.10687635463E+02  0.00000000000E+00 0. -1.
<mgrwt>
<rscale>  0 0.79212731E+02</rscale>
<asrwt>0</asrwt>
<pdfrwt beam="1">  1        1 0.24376613E-02 0.79212731E+02</pdfrwt>
<pdfrwt beam="2">  1       -2 0.15231052E-01 0.79212731E+02</pdfrwt>
<totfact> 0.10911802E+05</totfact>
</mgrwt>
</event>
<event>
 8    1  0.7756875E-014  0.7957386E+02  0.7818608E-02  0.1330265E+00
         -2   -1    0    0    0  501 -0.00000000000E+00  0.00000000000E+00  0.54266804074E+03  0.54266804074E+03  0.25500000000E-02 0.  1.
          1   -1    0    0  501    0  0.00000000000E+00 -0.00000000000E+00 -0.29170661446E+01  0.29170704986E+01  0.50400000000E-02 0. -1.
        -24    2    1    2    0    0  0.00000000000E+00  0.00000000000E+00  0.53975097459E+03  0.54558511124E+03  0.79573858993E+02 0.  0.
         66    2    3    3    0    0 -0.13830259302E+02  0.35614747449E+02  0.34556127212E+03  0.34767266086E+03  0.20000018813E+01 0.  0.
         13    1    3    3    0    0  0.13830259302E+02 -0.35614747449E+02  0.19418970247E+03  0.19791245039E+03  0.10566000000E+00 0. -1.
         13    1    4    4    0    0 -0.29816116641E+01  0.97686153855E+01  0.96244702241E+02  0.96785173080E+02  0.10566000000E+00 0. -1.
        -13    1    4    4    0    0 -0.91699561119E+01  0.22048273419E+02  0.21222626284E+03  0.21356547534E+03  0.10566000000E+00 0.  1.
         14    1    4    4    0    0 -0.16786915262E+01  0.37978586449E+01  0.37090307042E+02  0.37322012432E+02  0.00000000000E+00 0. -1.
<mgrwt>
<rscale>  0 0.79573859E+02</rscale>
<asrwt>0</asrwt>
<pdfrwt beam="1">  1        1 0.44877990E-03 0.79573859E+02</pdfrwt>
<pdfrwt beam="2">  1       -2 0.83487362E-01 0.79573859E+02</pdfrwt>
<totfact> 0.47900123E+04</totfact>
</mgrwt>
</event>
<event>
 8    1  0.7756875E-014  0.8044811E+02  0.7818608E-02  0.1327785E+00
         -2   -1    0    0    0  501 -0.00000000000E+00  0.00000000000E+00  0.14366251443E+03  0.14366251446E+03  0.25500000000E-02 0.  1.
          1   -1    0    0  501    0  0.00000000000E+00 -0.00000000000E+00 -0.11262328110E+02  0.11262329237E+02  0.50400000000E-02 0. -1.
        -24    2    1    2    0    0 -0.17763568394E-14 -0.17763568394E-14  0.13240018632E+03  0.15492484369E+03  0.80448106596E+02 0.  0.
         66    2    3    3    0    0 -0.12909512831E+02 -0.14929476405E+02  0.13368215591E+03  0.13514608243E+03  0.19999999683E+01 0.  0.
         13    1    3    3    0    0  0.12909512831E+02  0.14929476405E+02 -0.12819695827E+01  0.19778761268E+02  0.10566000000E+00 0. -1.
         13    1    4    4    0    0 -0.18303335205E+01 -0.14598529765E+01  0.14535991308E+02  0.14723705337E+02  0.10566000000E+00 0. -1.
        -13    1    4    4    0    0 -0.62584560194E+01 -0.74096396444E+01  0.70379175937E+02  0.71044426953E+02  0.10566000000E+00 0.  1.
        -14    1    4    4    0    0 -0.48207232912E+01 -0.60599837838E+01  0.48766988661E+02  0.49377950135E+02  0.00000000000E+00 0.  1.
<mgrwt>
<rscale>  0 0.80448107E+02</rscale>
<asrwt>0</asrwt>
<pdfrwt beam="1">  1        1 0.17326660E-02 0.80448107E+02</pdfrwt>
<pdfrwt beam="2">  1       -2 0.22101925E-01 0.80448107E+02</pdfrwt>
<totfact> 0.94472434E+04</totfact>
</mgrwt>
</event>
<event>
 8    1  0.7756875E-014  0.8044081E+02  0.7818608E-02  0.1327805E+00
         -2   -1    0    0    0  501 -0.00000000000E+00  0.00000000000E+00  0.13590986236E+02  0.13590986475E+02  0.25500000000E-02 0.  1.
          1   -1    0    0  501    0  0.00000000000E+00 -0.00000000000E+00 -0.11902601175E+03  0.11902601186E+03  0.50400000000E-02 0. -1.
        -24    2    1    2    0    0  0.00000000000E+00  0.35527136788E-14 -0.10543502552E+03  0.13261699834E+03  0.80440808311E+02 0.  0.
         66    2    3    3    0    0 -0.21257807689E+02  0.22462351581E+02 -0.10420876721E+02  0.32696273449E+02  0.19999998895E+01 0.  0.
         13    1    3    3    0    0  0.21257807689E+02 -0.22462351581E+02 -0.95014148797E+02  0.99920724887E+02  0.10566000000E+00 0. -1.
         13    1    4    4    0    0 -0.70567150746E+01  0.80491635772E+01 -0.31431285380E+01  0.11156911893E+02  0.10566000000E+00 0. -1.
        -13    1    4    4    0    0 -0.11499608121E+02  0.12318248663E+02 -0.59376043614E+01  0.17867471748E+02  0.10566000000E+00 0.  1.
         14    1    4    4    0    0 -0.27014844930E+01  0.20949393403E+01 -0.13401438212E+01  0.36718898087E+01  0.00000000000E+00 0. -1.
<mgrwt>
<rscale>  0 0.80440808E+02</rscale>
<asrwt>0</asrwt>
<pdfrwt beam="1">  1        1 0.18311693E-01 0.80440808E+02</pdfrwt>
<pdfrwt beam="2">  1       -2 0.20909211E-02 0.80440808E+02</pdfrwt>
<totfact> 0.14922605E+05</totfact>
</mgrwt>
</event>
<event>
 8    1  0.7756875E-014  0.8307996E+02  0.7818608E-02  0.1320531E+00
         -2   -1    0    0    0  501 -0.00000000000E+00  0.00000000000E+00  0.29245589376E+03  0.29245589377E+03  0.25500000000E-02 0.  1.
          1   -1    0    0  501    0  0.00000000000E+00 -0.00000000000E+00 -0.59002723519E+01  0.59002745044E+01  0.50400000000E-02 0. -1.
        -24    2    1    2    0    0 -0.22204460493E-15  0.00000000000E+00  0.28655562141E+03  0.29835616827E+03  0.83079955389E+02 0.  0.
         66    2    3    3    0    0  0.12380971098E+01  0.41305382499E+02  0.15767917616E+03  0.16301653324E+03  0.20000017788E+01 0.  0.
         13    1    3    3    0    0 -0.12380971098E+01 -0.41305382499E+02  0.12887644525E+03  0.13533963503E+03  0.10566000000E+00 0. -1.
         13    1    4    4    0    0  0.71959351613E+00  0.71948473715E+01  0.28971028553E+02  0.29859928047E+02  0.10566000000E+00 0. -1.
        -13    1    4    4    0    0  0.41521299349E+00  0.31729337099E+02  0.12067135340E+03  0.12477383511E+03  0.10566000000E+00 0.  1.
        -14    1    4    4    0    0  0.10329060017E+00  0.23811980286E+01  0.80367942084E+01  0.83827700760E+01  0.00000000000E+00 0.  1.
<mgrwt>
<rscale>  0 0.83079955E+02</rscale>
<asrwt>0</asrwt>
<pdfrwt beam="1">  1        1 0.90773465E-03 0.83079955E+02</pdfrwt>
<pdfrwt beam="2">  1       -2 0.44993201E-01 0.83079955E+02</pdfrwt>
<totfact> 0.64608277E+04</totfact>
</mgrwt>
</event>
<event>
 8    1  0.7756875E-014  0.7976869E+02  0.7818608E-02  0.1329709E+00
          1   -1    0    0  501    0  0.00000000000E+00  0.00000000000E+00  0.10642884853E+03  0.10642884864E+03  0.50400000000E-02 0. -1.
         -2   -1    0    0    0  501 -0.00000000000E+00 -0.00000000000E+00 -0.14946706560E+02  0.14946706777E+02  0.25500000000E-02 0.  1.
        -24    2    1    2    0    0  0.00000000000E+00  0.00000000000E+00  0.91482141965E+02  0.12137555542E+03  0.79768685306E+02 0.  0.
         66    2    3    3    0    0 -0.23311543597E+02 -0.61327900526E+01 -0.25325774799E+01  0.24319809507E+02  0.20000017696E+01 0.  0.
         13    1    3    3    0    0  0.23311543597E+02  0.61327900526E+01  0.94014719445E+02  0.97055745915E+02  0.10566000000E+00 0. -1.
         13    1    4    4    0    0 -0.40946975882E+01 -0.13453222366E+01 -0.69462166863E+00  0.43669329692E+01  0.10566000000E+00 0. -1.
        -13    1    4    4    0    0 -0.99615485794E+01 -0.21846975323E+01 -0.16866668662E+01  0.10337376967E+02  0.10566000000E+00 0.  1.
        -14    1    4    4    0    0 -0.92552974290E+01 -0.26027702837E+01 -0.15128894512E+00  0.96154995707E+01  0.00000000000E+00 0.  1.
<mgrwt>
<rscale>  0 0.79768685E+02</rscale>
<asrwt>0</asrwt>
<pdfrwt beam="1">  1        1 0.16373669E-01 0.79768685E+02</pdfrwt>
<pdfrwt beam="2">  1       -2 0.22994934E-02 0.79768685E+02</pdfrwt>
<totfact> 0.14971490E+05</totfact>
</mgrwt>
</event>
<event>
 8    1  0.7756875E-014  0.7953940E+02  0.7818608E-02  0.1330364E+00
          1   -1    0    0  501    0  0.00000000000E+00  0.00000000000E+00  0.18807227746E+02  0.18807228421E+02  0.50400000000E-02 0. -1.
         -2   -1    0    0    0  501 -0.00000000000E+00 -0.00000000000E+00 -0.84096867148E+02  0.84096867187E+02  0.25500000000E-02 0.  1.
        -24    2    1    2    0    0  0.00000000000E+00  0.00000000000E+00 -0.65289639403E+02  0.10290409561E+03  0.79539398285E+02 0.  0.
         66    2    3    3    0    0  0.17174542926E+02 -0.10493662855E+01 -0.79016293942E+02  0.80892773449E+02  0.19999984076E+01 0.  0.
         13    1    3    3    0    0 -0.17174542926E+02  0.10493662855E+01  0.13726654539E+02  0.22011322159E+02  0.10566000000E+00 0. -1.
         13    1    4    4    0    0  0.48085558529E+01 -0.21439390854E+00 -0.20617682649E+02  0.21172344603E+02  0.10566000000E+00 0. -1.
        -13    1    4    4    0    0  0.62829654080E+01  0.34205622765E+00 -0.30372079647E+02  0.31017205594E+02  0.10566000000E+00 0.  1.
         14    1    4    4    0    0  0.60830216650E+01 -0.11770286046E+01 -0.28026531647E+02  0.28703223252E+02  0.00000000000E+00 0. -1.
<mgrwt>
<rscale>  0 0.79539398E+02</rscale>
<asrwt>0</asrwt>
<pdfrwt beam="1">  1        1 0.28934198E-02 0.79539398E+02</pdfrwt>
<pdfrwt beam="2">  1       -2 0.12937979E-01 0.79539398E+02</pdfrwt>
<totfact> 0.11218348E+05</totfact>
</mgrwt>
</event>
<event>
 8    1  0.7756875E-014  0.7995743E+02  0.7818608E-02  0.1329172E+00
          1   -1    0    0  501    0  0.00000000000E+00  0.00000000000E+00  0.32987038488E+02  0.32987038873E+02  0.50400000000E-02 0. -1.
         -2   -1    0    0    0  501 -0.00000000000E+00 -0.00000000000E+00 -0.48452293722E+02  0.48452293789E+02  0.25500000000E-02 0.  1.
        -24    2    1    2    0    0  0.00000000000E+00  0.00000000000E+00 -0.15465255234E+02  0.81439332661E+02  0.79957431080E+02 0.  0.
         66    2    3    3    0    0  0.21787640806E+02 -0.33080370580E+02 -0.24175728968E+01  0.39734831849E+02  0.19999984184E+01 0.  0.
         13    1    3    3    0    0 -0.21787640806E+02  0.33080370580E+02 -0.13047682337E+02  0.41704500813E+02  0.10566000000E+00 0. -1.
         13    1    4    4    0    0  0.18382674044E+02 -0.28825798629E+02 -0.18717132665E+01  0.34239799155E+02  0.10566000000E+00 0.  1.
        -13    1    4    4    0    0  0.22369336812E+01 -0.24610881945E+01 -0.31654502378E+00  0.33424829368E+01  0.10566000000E+00 0. -1.
        -14    1    4    4    0    0  0.11680330815E+01 -0.17934837574E+01 -0.22931460652E+00  0.21525497569E+01  0.00000000000E+00 0.  1.
<mgrwt>
<rscale>  0 0.79957431E+02</rscale>
<asrwt>0</asrwt>
<pdfrwt beam="1">  1        1 0.50749290E-02 0.79957431E+02</pdfrwt>
<pdfrwt beam="2">  1       -2 0.74541991E-02 0.79957431E+02</pdfrwt>
<totfact> 0.12315000E+05</totfact>
</mgrwt>
</event>
<event>
 8    1  0.7756875E-014  0.7915614E+02  0.7818608E-02  0.1331463E+00
         -2   -1    0    0    0  501 -0.00000000000E+00  0.00000000000E+00  0.27206806532E+03  0.27206806533E+03  0.25500000000E-02 0.  1.
          1   -1    0    0  501    0  0.00000000000E+00 -0.00000000000E+00 -0.57574688194E+01  0.57574710254E+01  0.50400000000E-02 0. -1.
        -24    2    1    2    0    0  0.35527136788E-14 -0.35527136788E-14  0.26631059650E+03  0.27782553636E+03  0.79156142174E+02 0.  0.
         66    2    3    3    0    0 -0.17781012042E+02  0.29216976622E+02  0.20296346532E+03  0.20583479873E+03  0.19999996804E+01 0.  0.
         13    1    3    3    0    0  0.17781012042E+02 -0.29216976622E+02  0.63347131179E+02  0.71990737632E+02  0.10566000000E+00 0. -1.
         13    1    4    4    0    0 -0.15216940928E+01  0.18733618968E+01  0.12873669562E+02  0.13098380425E+02  0.10566000000E+00 0. -1.
        -13    1    4    4    0    0 -0.70121607906E+01  0.11406368314E+02  0.82961710911E+02  0.84035303762E+02  0.10566000000E+00 0.  1.
         14    1    4    4    0    0 -0.92471571589E+01  0.15937246412E+02  0.10712808485E+03  0.10870111454E+03  0.00000000000E+00 0. -1.
<mgrwt>
<rscale>  0 0.79156142E+02</rscale>
<asrwt>0</asrwt>
<pdfrwt beam="1">  1        1 0.88576419E-03 0.79156142E+02</pdfrwt>
<pdfrwt beam="2">  1       -2 0.41856645E-01 0.79156142E+02</pdfrwt>
<totfact> 0.76025258E+04</totfact>
</mgrwt>
</event>
<event>
 8    1  0.7756875E-014  0.7873768E+02  0.7818608E-02  0.1332672E+00
          1   -1    0    0  501    0  0.00000000000E+00  0.00000000000E+00  0.38383967189E+02  0.38383967520E+02  0.50400000000E-02 0. -1.
         -2   -1    0    0    0  501 -0.00000000000E+00 -0.00000000000E+00 -0.40378978951E+02  0.40378979032E+02  0.25500000000E-02 0.  1.
        -24    2    1    2    0    0 -0.17763568394E-14  0.00000000000E+00 -0.19950117618E+01  0.78762946552E+02  0.78737676354E+02 0.  0.
         66    2    3    3    0    0  0.76379314534E+01  0.17169449630E+02 -0.35574722263E+02  0.40282612369E+02  0.19999994160E+01 0.  0.
         13    1    3    3    0    0 -0.76379314534E+01 -0.17169449630E+02  0.33579710501E+02  0.38480334183E+02  0.10566000000E+00 0. -1.
         13    1    4    4    0    0  0.10234167315E+01  0.37579223670E+01 -0.64663486692E+01  0.75494497461E+01  0.10566000000E+00 0. -1.
        -13    1    4    4    0    0  0.29217448256E+01  0.60901360449E+01 -0.12386018121E+02  0.14108542051E+02  0.10566000000E+00 0.  1.
        -14    1    4    4    0    0  0.36927698963E+01  0.73213912178E+01 -0.16722355473E+02  0.18624620572E+02  0.00000000000E+00 0.  1.
<mgrwt>
<rscale>  0 0.78737676E+02</rscale>
<asrwt>0</asrwt>
<pdfrwt beam="1">  1        1 0.59052258E-02 0.78737676E+02</pdfrwt>
<pdfrwt beam="2">  1       -2 0.62121506E-02 0.78737676E+02</pdfrwt>
<totfact> 0.13191052E+05</totfact>
</mgrwt>
</event>
<event>
 8    1  0.7756875E-014  0.7683163E+02  0.7818608E-02  0.1338291E+00
          1   -1    0    0  501    0  0.00000000000E+00  0.00000000000E+00  0.44129680303E+02  0.44129680591E+02  0.50400000000E-02 0. -1.
         -2   -1    0    0    0  501 -0.00000000000E+00 -0.00000000000E+00 -0.33441771954E+02  0.33441772052E+02  0.25500000000E-02 0.  1.
        -24    2    1    2    0    0  0.00000000000E+00 -0.35527136788E-14  0.10687908349E+02  0.77571452643E+02  0.76831626823E+02 0.  0.
         66    2    3    3    0    0  0.20675197330E+02 -0.20446503273E+02 -0.19958635330E+02  0.35325209210E+02  0.20000001945E+01 0.  0.
         13    1    3    3    0    0 -0.20675197330E+02  0.20446503273E+02  0.30646543679E+02  0.42246243433E+02  0.10566000000E+00 0. -1.
         13    1    4    4    0    0  0.12125900109E+02 -0.12611978308E+02 -0.12237064533E+02  0.21350793023E+02  0.10566000000E+00 0. -1.
        -13    1    4    4    0    0  0.53116062221E+01 -0.55350803409E+01 -0.49111293279E+01  0.91093704695E+01  0.10566000000E+00 0.  1.
        -14    1    4    4    0    0  0.32376909984E+01 -0.22994446243E+01 -0.28104414693E+01  0.48650457176E+01  0.00000000000E+00 0.  1.
<mgrwt>
<rscale>  0 0.76831627E+02</rscale>
<asrwt>0</asrwt>
<pdfrwt beam="1">  1        1 0.67891816E-02 0.76831627E+02</pdfrwt>
<pdfrwt beam="2">  1       -2 0.51448881E-02 0.76831627E+02</pdfrwt>
<totfact> 0.14439574E+05</totfact>
</mgrwt>
</event>
<event>
 8    1  0.7756875E-014  0.7898862E+02  0.7818608E-02  0.1331946E+00
         -2   -1    0    0    0  501 -0.00000000000E+00  0.00000000000E+00  0.87504351108E+02  0.87504351145E+02  0.25500000000E-02 0.  1.
          1   -1    0    0  501    0  0.00000000000E+00 -0.00000000000E+00 -0.17825407074E+02  0.17825407786E+02  0.50400000000E-02 0. -1.
        -24    2    1    2    0    0  0.00000000000E+00  0.00000000000E+00  0.69678944034E+02  0.10532975893E+03  0.78988624971E+02 0.  0.
         66    2    3    3    0    0  0.24495952308E+02 -0.30946134458E+02  0.35240917411E+02  0.52949383225E+02  0.20000016550E+01 0.  0.
         13    1    3    3    0    0 -0.24495952308E+02  0.30946134458E+02  0.34438026623E+02  0.52380375706E+02  0.10566000000E+00 0. -1.
         13    1    4    4    0    0  0.95685534803E+01 -0.12744057867E+02  0.13301633302E+02  0.20758440191E+02  0.10566000000E+00 0. -1.
        -13    1    4    4    0    0  0.72856055469E+01 -0.87299513814E+01  0.11177359762E+02  0.15944799610E+02  0.10566000000E+00 0.  1.
        -14    1    4    4    0    0  0.76417932809E+01 -0.94721252091E+01  0.10761924347E+02  0.16246143425E+02  0.00000000000E+00 0.  1.
<mgrwt>
<rscale>  0 0.78988625E+02</rscale>
<asrwt>0</asrwt>
<pdfrwt beam="1">  1        1 0.27423704E-02 0.78988625E+02</pdfrwt>
<pdfrwt beam="2">  1       -2 0.13462208E-01 0.78988625E+02</pdfrwt>
<totfact> 0.11317242E+05</totfact>
</mgrwt>
</event>
<event>
 8    1  0.7756875E-014  0.7943862E+02  0.7818608E-02  0.1330652E+00
         -2   -1    0    0    0  501 -0.00000000000E+00  0.00000000000E+00  0.87645397066E+02  0.87645397103E+02  0.25500000000E-02 0.  1.
          1   -1    0    0  501    0  0.00000000000E+00 -0.00000000000E+00 -0.18000072331E+02  0.18000073036E+02  0.50400000000E-02 0. -1.
        -24    2    1    2    0    0  0.71054273576E-14 -0.35527136788E-14  0.69645324735E+02  0.10564547014E+03  0.79438618464E+02 0.  0.
         66    2    3    3    0    0  0.25305487581E+02 -0.30341328184E+02  0.29753623918E+02  0.49499919508E+02  0.19999993309E+01 0.  0.
         13    1    3    3    0    0 -0.25305487581E+02  0.30341328184E+02  0.39891700817E+02  0.56145550632E+02  0.10566000000E+00 0. -1.
         13    1    4    4    0    0  0.71686913330E+01 -0.80839899072E+01  0.74154788590E+01  0.13105018847E+02  0.10566000000E+00 0. -1.
        -13    1    4    4    0    0  0.11223607598E+02 -0.14408354841E+02  0.13749308464E+02  0.22860986506E+02  0.10566000000E+00 0.  1.
        -14    1    4    4    0    0  0.69131886499E+01 -0.78489834356E+01  0.85888365948E+01  0.13533914154E+02  0.00000000000E+00 0.  1.
<mgrwt>
<rscale>  0 0.79438618E+02</rscale>
<asrwt>0</asrwt>
<pdfrwt beam="1">  1        1 0.27692419E-02 0.79438618E+02</pdfrwt>
<pdfrwt beam="2">  1       -2 0.13483907E-01 0.79438618E+02</pdfrwt>
<totfact> 0.11150247E+05</totfact>
</mgrwt>
</event>
<event>
 8    1  0.7756875E-014  0.8021767E+02  0.7818608E-02  0.1328435E+00
          1   -1    0    0  501    0  0.00000000000E+00  0.00000000000E+00  0.47760025283E+02  0.47760025549E+02  0.50400000000E-02 0. -1.
         -2   -1    0    0    0  501 -0.00000000000E+00 -0.00000000000E+00 -0.33683373342E+02  0.33683373439E+02  0.25500000000E-02 0.  1.
        -24    2    1    2    0    0 -0.35527136788E-14  0.00000000000E+00  0.14076651941E+02  0.81443398988E+02  0.80217673295E+02 0.  0.
         66    2    3    3    0    0 -0.18608476905E+02 -0.17237516963E+02 -0.24468736934E+02  0.35300516857E+02  0.19999998688E+01 0.  0.
         13    1    3    3    0    0  0.18608476905E+02  0.17237516963E+02  0.38545388875E+02  0.46142882131E+02  0.10566000000E+00 0. -1.
         13    1    4    4    0    0 -0.81863050021E+01 -0.76575756293E+01 -0.11047314502E+02  0.15738753949E+02  0.10566000000E+00 0.  1.
        -13    1    4    4    0    0 -0.76451567714E+01 -0.78116701974E+01 -0.10591680220E+02  0.15220560674E+02  0.10566000000E+00 0. -1.
         14    1    4    4    0    0 -0.27770151319E+01 -0.17682711358E+01 -0.28297422123E+01  0.43412022345E+01  0.00000000000E+00 0. -1.
<mgrwt>
<rscale>  0 0.80217673E+02</rscale>
<asrwt>0</asrwt>
<pdfrwt beam="1">  1        1 0.73476963E-02 0.80217673E+02</pdfrwt>
<pdfrwt beam="2">  1       -2 0.51820574E-02 0.80217673E+02</pdfrwt>
<totfact> 0.12963829E+05</totfact>
</mgrwt>
</event>
<event>
 8    1  0.7756875E-014  0.8009742E+02  0.7818608E-02  0.1328775E+00
          1   -1    0    0  501    0  0.00000000000E+00  0.00000000000E+00  0.71227250296E+01  0.71227268128E+01  0.50400000000E-02 0. -1.
         -2   -1    0    0    0  501 -0.00000000000E+00 -0.00000000000E+00 -0.22518051527E+03  0.22518051529E+03  0.25500000000E-02 0.  1.
        -24    2    1    2    0    0  0.00000000000E+00 -0.35527136788E-14 -0.21805779024E+03  0.23230324210E+03  0.80097418213E+02 0.  0.
         66    2    3    3    0    0 -0.27394007071E+02 -0.23347069433E+02 -0.15986172328E+03  0.16387583057E+03  0.20000001492E+01 0.  0.
         13    1    3    3    0    0  0.27394007071E+02  0.23347069433E+02 -0.58196066959E+02  0.68427411526E+02  0.10566000000E+00 0. -1.
         13    1    4    4    0    0 -0.42384811758E+01 -0.31329523846E+01 -0.22061181863E+02  0.22682306376E+02  0.10566000000E+00 0. -1.
        -13    1    4    4    0    0 -0.15021547001E+02 -0.12904869369E+02 -0.91613697522E+02  0.93729735225E+02  0.10566000000E+00 0.  1.
        -14    1    4    4    0    0 -0.81339788944E+01 -0.73092476793E+01 -0.46186843898E+02  0.47463788972E+02  0.00000000000E+00 0.  1.
<mgrwt>
<rscale>  0 0.80097418E+02</rscale>
<asrwt>0</asrwt>
<pdfrwt beam="1">  1        1 0.10958042E-02 0.80097418E+02</pdfrwt>
<pdfrwt beam="2">  1       -2 0.34643151E-01 0.80097418E+02</pdfrwt>
<totfact> 0.80654275E+04</totfact>
</mgrwt>
</event>
<event>
 8    1  0.7756875E-014  0.8734026E+02  0.7818608E-02  0.1309424E+00
         -2   -1    0    0    0  501 -0.00000000000E+00  0.00000000000E+00  0.36270028174E+03  0.36270028175E+03  0.25500000000E-02 0.  1.
          1   -1    0    0  501    0  0.00000000000E+00 -0.00000000000E+00 -0.52580044345E+01  0.52580068500E+01  0.50400000000E-02 0. -1.
        -24    2    1    2    0    0  0.00000000000E+00  0.00000000000E+00  0.35744227730E+03  0.36795828860E+03  0.87340257289E+02 0.  0.
         66    2    3    3    0    0  0.33352481577E+02  0.25822398415E+02  0.22608410105E+03  0.22999392393E+03  0.20000016371E+01 0.  0.
         13    1    3    3    0    0 -0.33352481577E+02 -0.25822398415E+02  0.13135817625E+03  0.13796436467E+03  0.10566000000E+00 0. -1.
         13    1    4    4    0    0  0.13773073401E+02  0.10999064210E+02  0.90309443403E+02  0.92013497359E+02  0.10566000000E+00 0. -1.
        -13    1    4    4    0    0  0.14135306129E+02  0.10445675744E+02  0.95278217862E+02  0.96885855438E+02  0.10566000000E+00 0.  1.
         14    1    4    4    0    0  0.54441020470E+01  0.43776584610E+01  0.40496439790E+02  0.41094571130E+02  0.00000000000E+00 0. -1.
<mgrwt>
<rscale>  0 0.87340257E+02</rscale>
<asrwt>0</asrwt>
<pdfrwt beam="1">  1        1 0.80892385E-03 0.87340257E+02</pdfrwt>
<pdfrwt beam="2">  1       -2 0.55800050E-01 0.87340257E+02</pdfrwt>
<totfact> 0.50115419E+04</totfact>
</mgrwt>
</event>
<event>
 8    1  0.7756875E-014  0.8296240E+02  0.7818608E-02  0.1320849E+00
         -2   -1    0    0    0  501 -0.00000000000E+00  0.00000000000E+00  0.27695819183E+02  0.27695819300E+02  0.25500000000E-02 0.  1.
          1   -1    0    0  501    0  0.00000000000E+00 -0.00000000000E+00 -0.62128142009E+02  0.62128142213E+02  0.50400000000E-02 0. -1.
        -24    2    1    2    0    0  0.00000000000E+00  0.00000000000E+00 -0.34432322826E+02  0.89823961514E+02  0.82962396342E+02 0.  0.
         66    2    3    3    0    0  0.14060614497E+02  0.18721676439E+02  0.19815775681E+02  0.30738689200E+02  0.19999997919E+01 0.  0.
         13    1    3    3    0    0 -0.14060614497E+02 -0.18721676439E+02 -0.54248098507E+02  0.59085272314E+02  0.10566000000E+00 0. -1.
         13    1    4    4    0    0  0.95971180439E+00  0.99709473000E+00  0.15750542974E+01  0.20993343525E+01  0.10566000000E+00 0. -1.
        -13    1    4    4    0    0  0.59366781829E+01  0.85803663921E+01  0.93551511671E+01  0.14014166142E+02  0.10566000000E+00 0.  1.
        -14    1    4    4    0    0  0.71642245100E+01  0.91442153164E+01  0.88855702168E+01  0.14625188705E+02  0.00000000000E+00 0.  1.
<mgrwt>
<rscale>  0 0.82962396E+02</rscale>
<asrwt>0</asrwt>
<pdfrwt beam="1">  1        1 0.95581757E-02 0.82962396E+02</pdfrwt>
<pdfrwt beam="2">  1       -2 0.42608953E-02 0.82962396E+02</pdfrwt>
<totfact> 0.12312782E+05</totfact>
</mgrwt>
</event>
<event>
 8    1  0.7756875E-014  0.7821899E+02  0.7818608E-02  0.1334183E+00
          1   -1    0    0  501    0  0.00000000000E+00  0.00000000000E+00  0.23278655523E+03  0.23278655529E+03  0.50400000000E-02 0. -1.
         -2   -1    0    0    0  501 -0.00000000000E+00 -0.00000000000E+00 -0.65706230321E+01  0.65706235269E+01  0.25500000000E-02 0.  1.
        -24    2    1    2    0    0  0.71054273576E-14  0.00000000000E+00  0.22621593220E+03  0.23935717881E+03  0.78218994294E+02 0.  0.
         66    2    3    3    0    0  0.32159371287E+02  0.18091014523E+01  0.45440280177E+02  0.55734343801E+02  0.20000016761E+01 0.  0.
         13    1    3    3    0    0 -0.32159371287E+02 -0.18091014523E+01  0.18077565202E+03  0.18362283501E+03  0.10566000000E+00 0. -1.
         13    1    4    4    0    0  0.13105421943E+02  0.13281485153E+01  0.18135788116E+02  0.22415040428E+02  0.10566000000E+00 0. -1.
        -13    1    4    4    0    0  0.40661194626E+01  0.15367419643E+00  0.50457496558E+01  0.64828772060E+01  0.10566000000E+00 0.  1.
         14    1    4    4    0    0  0.14987829882E+02  0.32727874057E+00  0.22258742406E+02  0.26836426167E+02  0.00000000000E+00 0. -1.
<mgrwt>
<rscale>  0 0.78218994E+02</rscale>
<asrwt>0</asrwt>
<pdfrwt beam="1">  1        1 0.35813310E-01 0.78218994E+02</pdfrwt>
<pdfrwt beam="2">  1       -2 0.10108653E-02 0.78218994E+02</pdfrwt>
<totfact> 0.18228141E+05</totfact>
</mgrwt>
</event>
<event>
 8    1  0.7756875E-014  0.8056779E+02  0.7818608E-02  0.1327448E+00
         -2   -1    0    0    0  501 -0.00000000000E+00  0.00000000000E+00  0.36531115967E+02  0.36531116056E+02  0.25500000000E-02 0.  1.
          1   -1    0    0  501    0  0.00000000000E+00 -0.00000000000E+00 -0.44422193342E+02  0.44422193628E+02  0.50400000000E-02 0. -1.
        -24    2    1    2    0    0  0.71054273576E-14  0.44408920985E-15 -0.78910773758E+01  0.80953309684E+02  0.80567792862E+02 0.  0.
         66    2    3    3    0    0  0.39198434374E+02  0.29743724831E+01  0.47782453316E+01  0.39650924148E+02  0.20000020659E+01 0.  0.
         13    1    3    3    0    0 -0.39198434374E+02 -0.29743724831E+01 -0.12669322707E+02  0.41302385536E+02  0.10566000000E+00 0. -1.
         13    1    4    4    0    0  0.63551414897E+01  0.12218787841E+00  0.85564465397E+00  0.64145183015E+01  0.10566000000E+00 0. -1.
        -13    1    4    4    0    0  0.34764026101E+01  0.52870748061E+00  0.84030597606E+00  0.36169303113E+01  0.10566000000E+00 0.  1.
        -14    1    4    4    0    0  0.29366890275E+02  0.23234771241E+01  0.30822947016E+01  0.29619475535E+02  0.00000000000E+00 0.  1.
<mgrwt>
<rscale>  0 0.80567793E+02</rscale>
<asrwt>0</asrwt>
<pdfrwt beam="1">  1        1 0.68341836E-02 0.80567793E+02</pdfrwt>
<pdfrwt beam="2">  1       -2 0.56201717E-02 0.80567793E+02</pdfrwt>
<totfact> 0.12659963E+05</totfact>
</mgrwt>
</event>
<event>
 8    1  0.7756875E-014  0.7344299E+02  0.7818608E-02  0.1348761E+00
          1   -1    0    0  501    0  0.00000000000E+00  0.00000000000E+00  0.12494242826E+03  0.12494242836E+03  0.50400000000E-02 0. -1.
         -2   -1    0    0    0  501 -0.00000000000E+00 -0.00000000000E+00 -0.10792717574E+02  0.10792717875E+02  0.25500000000E-02 0.  1.
        -24    2    1    2    0    0  0.88817841970E-15  0.00000000000E+00  0.11414971068E+03  0.13573514623E+03  0.73442994725E+02 0.  0.
         66    2    3    3    0    0 -0.66102988840E+01  0.22952164725E+02  0.56341424971E+01  0.24621971409E+02  0.19999993789E+01 0.  0.
         13    1    3    3    0    0  0.66102988840E+01 -0.22952164725E+02  0.10851556819E+03  0.11111317482E+03  0.10566000000E+00 0. -1.
         13    1    4    4    0    0 -0.23577702918E+01  0.10676840618E+02  0.32171066403E+01  0.11398023754E+02  0.10566000000E+00 0. -1.
        -13    1    4    4    0    0 -0.16857815287E+01  0.56080102099E+01  0.10948797808E+01  0.59583188607E+01  0.10566000000E+00 0.  1.
         14    1    4    4    0    0 -0.25667470636E+01  0.66673138968E+01  0.13221560759E+01  0.72656287943E+01  0.00000000000E+00 0. -1.
<mgrwt>
<rscale>  0 0.73442995E+02</rscale>
<asrwt>0</asrwt>
<pdfrwt beam="1">  1        1 0.19221911E-01 0.73442995E+02</pdfrwt>
<pdfrwt beam="2">  1       -2 0.16604182E-02 0.73442995E+02</pdfrwt>
<totfact> 0.19190966E+05</totfact>
</mgrwt>
</event>
<event>
 8    1  0.7756875E-014  0.7795870E+02  0.7818608E-02  0.1334946E+00
          1   -1    0    0  501    0  0.00000000000E+00  0.00000000000E+00  0.66412744133E+01  0.66412763257E+01  0.50400000000E-02 0. -1.
         -2   -1    0    0    0  501 -0.00000000000E+00 -0.00000000000E+00 -0.22877980549E+03  0.22877980551E+03  0.25500000000E-02 0.  1.
        -24    2    1    2    0    0  0.00000000000E+00  0.35527136788E-14 -0.22213853108E+03  0.23542108183E+03  0.77958699201E+02 0.  0.
         66    2    3    3    0    0  0.57343442300E+01 -0.24904973895E+02 -0.19991887122E+03  0.20155568833E+03  0.20000005035E+01 0.  0.
         13    1    3    3    0    0 -0.57343442300E+01  0.24904973895E+02 -0.22219659861E+02  0.33865393499E+02  0.10566000000E+00 0. -1.
         13    1    4    4    0    0  0.25286488071E+00 -0.40911048866E+01 -0.31040500675E+02  0.31310140946E+02  0.10566000000E+00 0. -1.
        -13    1    4    4    0    0  0.14599952568E+01 -0.46183999701E+01 -0.38335228549E+02  0.38640161961E+02  0.10566000000E+00 0.  1.
         14    1    4    4    0    0  0.40214840924E+01 -0.16195469038E+02 -0.13054314200E+03  0.13160538543E+03  0.00000000000E+00 0. -1.
<mgrwt>
<rscale>  0 0.77958699E+02</rscale>
<asrwt>0</asrwt>
<pdfrwt beam="1">  1        1 0.10217349E-02 0.77958699E+02</pdfrwt>
<pdfrwt beam="2">  1       -2 0.35196887E-01 0.77958699E+02</pdfrwt>
<totfact> 0.85878306E+04</totfact>
</mgrwt>
</event>
<event>
 8    1  0.7756875E-014  0.8041811E+02  0.7818608E-02  0.1327869E+00
         -2   -1    0    0    0  501 -0.00000000000E+00  0.00000000000E+00  0.30034660669E+03  0.30034660670E+03  0.25500000000E-02 0.  1.
          1   -1    0    0  501    0  0.00000000000E+00 -0.00000000000E+00 -0.53830071157E+01  0.53830094751E+01  0.50400000000E-02 0. -1.
        -24    2    1    2    0    0  0.00000000000E+00  0.00000000000E+00  0.29496359957E+03  0.30572961617E+03  0.80418114460E+02 0.  0.
         66    2    3    3    0    0  0.17971847887E+02  0.13571949596E+02  0.27409615580E+03  0.27502706732E+03  0.20000010611E+01 0.  0.
         13    1    3    3    0    0 -0.17971847887E+02 -0.13571949596E+02  0.20867443775E+02  0.30702548853E+02  0.10566000000E+00 0. -1.
         13    1    4    4    0    0  0.13518437812E+01  0.10496633057E+01  0.24816138259E+02  0.24875312195E+02  0.10566000000E+00 0. -1.
        -13    1    4    4    0    0  0.57753834609E+01  0.34675098792E+01  0.81384171728E+02  0.81662557214E+02  0.10566000000E+00 0.  1.
        -14    1    4    4    0    0  0.10844620645E+02  0.90547764108E+01  0.16789584581E+03  0.16848919791E+03  0.00000000000E+00 0.  1.
<mgrwt>
<rscale>  0 0.80418114E+02</rscale>
<asrwt>0</asrwt>
<pdfrwt beam="1">  1        1 0.82815474E-03 0.80418114E+02</pdfrwt>
<pdfrwt beam="2">  1       -2 0.46207192E-01 0.80418114E+02</pdfrwt>
<totfact> 0.69285934E+04</totfact>
</mgrwt>
</event>
<event>
 8    1  0.7756875E-014  0.7770301E+02  0.7818608E-02  0.1335699E+00
          1   -1    0    0  501    0  0.00000000000E+00  0.00000000000E+00  0.45887193222E+02  0.45887193499E+02  0.50400000000E-02 0. -1.
         -2   -1    0    0    0  501 -0.00000000000E+00 -0.00000000000E+00 -0.32894570523E+02  0.32894570622E+02  0.25500000000E-02 0.  1.
        -24    2    1    2    0    0  0.00000000000E+00  0.00000000000E+00  0.12992622699E+02  0.78781764121E+02  0.77703012254E+02 0.  0.
         66    2    3    3    0    0 -0.22422354616E+02 -0.30330189867E+02 -0.28333009886E+01  0.37877565943E+02  0.20000008493E+01 0.  0.
         13    1    3    3    0    0  0.22422354616E+02  0.30330189867E+02  0.15825923688E+02  0.40904198177E+02  0.10566000000E+00 0. -1.
         13    1    4    4    0    0 -0.29161236752E+01 -0.45748850842E+01 -0.92924348177E+00  0.55052709567E+01  0.10566000000E+00 0. -1.
        -13    1    4    4    0    0 -0.10618836552E+02 -0.14549423116E+02 -0.92216395006E+00  0.18036267715E+02  0.10566000000E+00 0.  1.
         14    1    4    4    0    0 -0.88873943891E+01 -0.11205881667E+02 -0.98189355677E+00  0.14336027271E+02  0.00000000000E+00 0. -1.
<mgrwt>
<rscale>  0 0.77703012E+02</rscale>
<asrwt>0</asrwt>
<pdfrwt beam="1">  1        1 0.70595683E-02 0.77703012E+02</pdfrwt>
<pdfrwt beam="2">  1       -2 0.50607031E-02 0.77703012E+02</pdfrwt>
<totfact> 0.14078035E+05</totfact>
</mgrwt>
</event>
<event>
 8    1  0.7756875E-014  0.8451563E+02  0.7818608E-02  0.1316704E+00
         -2   -1    0    0    0  501 -0.00000000000E+00  0.00000000000E+00  0.94266774515E+02  0.94266774549E+02  0.25500000000E-02 0.  1.
          1   -1    0    0  501    0  0.00000000000E+00 -0.00000000000E+00 -0.18943288361E+02  0.18943289032E+02  0.50400000000E-02 0. -1.
        -24    2    1    2    0    0  0.17763568394E-14  0.00000000000E+00  0.75323486153E+02  0.11321006358E+03  0.84515625358E+02 0.  0.
         66    2    3    3    0    0 -0.12498447204E+02  0.34062844913E+02  0.66637068516E+02  0.75901169180E+02  0.19999990992E+01 0.  0.
         13    1    3    3    0    0  0.12498447204E+02 -0.34062844913E+02  0.86864176373E+01  0.37308894401E+02  0.10566000000E+00 0. -1.
         13    1    4    4    0    0 -0.70108210853E+00  0.17366163842E+01  0.27209252662E+01  0.33048375041E+01  0.10566000000E+00 0.  1.
        -13    1    4    4    0    0 -0.58507137190E+01  0.16676621577E+02  0.33621623910E+02  0.37983750692E+02  0.10566000000E+00 0.  1.
         14    1    4    4    0    0 -0.59466513763E+01  0.15649606951E+02  0.30294519340E+02  0.34612580984E+02  0.00000000000E+00 0. -1.
<mgrwt>
<rscale>  0 0.84515625E+02</rscale>
<asrwt>0</asrwt>
<pdfrwt beam="1">  1        1 0.29143522E-02 0.84515625E+02</pdfrwt>
<pdfrwt beam="2">  1       -2 0.14502580E-01 0.84515625E+02</pdfrwt>
<totfact> 0.93551472E+04</totfact>
</mgrwt>
</event>
<event>
 8    1  0.7756875E-014  0.7913977E+02  0.7818608E-02  0.1331511E+00
          1   -1    0    0  501    0  0.00000000000E+00  0.00000000000E+00  0.12244971580E+03  0.12244971590E+03  0.50400000000E-02 0. -1.
         -2   -1    0    0    0  501 -0.00000000000E+00 -0.00000000000E+00 -0.12787091108E+02  0.12787091362E+02  0.25500000000E-02 0.  1.
        -24    2    1    2    0    0  0.00000000000E+00  0.00000000000E+00  0.10966262469E+03  0.13523680726E+03  0.79139767404E+02 0.  0.
         66    2    3    3    0    0  0.26015532780E+02  0.27398601748E+02  0.34917501908E+02  0.51485175235E+02  0.20000014771E+01 0.  0.
         13    1    3    3    0    0 -0.26015532780E+02 -0.27398601748E+02  0.74745122780E+02  0.83751632026E+02  0.10566000000E+00 0. -1.
         13    1    4    4    0    0  0.12909747721E+02  0.12340341339E+02  0.17021966853E+02  0.24671930005E+02  0.10566000000E+00 0. -1.
        -13    1    4    4    0    0  0.55495053420E+01  0.63158320023E+01  0.77980631581E+01  0.11467680519E+02  0.10566000000E+00 0.  1.
         14    1    4    4    0    0  0.75562797165E+01  0.87424284071E+01  0.10097471896E+02  0.15345564711E+02  0.00000000000E+00 0. -1.
<mgrwt>
<rscale>  0 0.79139767E+02</rscale>
<asrwt>0</asrwt>
<pdfrwt beam="1">  1        1 0.18838418E-01 0.79139767E+02</pdfrwt>
<pdfrwt beam="2">  1       -2 0.19672447E-02 0.79139767E+02</pdfrwt>
<totfact> 0.15668550E+05</totfact>
</mgrwt>
</event>
<event>
 8    1  0.7756875E-014  0.8131542E+02  0.7818608E-02  0.1325359E+00
         -2   -1    0    0    0  501 -0.00000000000E+00  0.00000000000E+00  0.29106880884E+03  0.29106880885E+03  0.25500000000E-02 0.  1.
          1   -1    0    0  501    0  0.00000000000E+00 -0.00000000000E+00 -0.56792379417E+01  0.56792401780E+01  0.50400000000E-02 0. -1.
        -24    2    1    2    0    0 -0.88817841970E-15 -0.35527136788E-14  0.28538957090E+03  0.29674804903E+03  0.81315419356E+02 0.  0.
         66    2    3    3    0    0  0.72425684025E+01  0.27981683668E+02  0.24700242369E+03  0.24869585186E+03  0.20000013549E+01 0.  0.
         13    1    3    3    0    0 -0.72425684025E+01 -0.27981683668E+02  0.38387147205E+02  0.48052197166E+02  0.10566000000E+00 0. -1.
         13    1    4    4    0    0  0.30328814962E+01  0.96639044694E+01  0.86134440865E+02  0.86727979838E+02  0.10566000000E+00 0.  1.
        -13    1    4    4    0    0  0.30423138528E+01  0.11023005539E+02  0.94010354197E+02  0.94703327212E+02  0.10566000000E+00 0. -1.
        -14    1    4    4    0    0  0.11673730534E+01  0.72947736597E+01  0.66857628631E+02  0.67264544812E+02  0.00000000000E+00 0.  1.
<mgrwt>
<rscale>  0 0.81315419E+02</rscale>
<asrwt>0</asrwt>
<pdfrwt beam="1">  1        1 0.87372900E-03 0.81315419E+02</pdfrwt>
<pdfrwt beam="2">  1       -2 0.44779822E-01 0.81315419E+02</pdfrwt>
<totfact> 0.68473352E+04</totfact>
</mgrwt>
</event>
<event>
 8    1  0.7756875E-014  0.7747607E+02  0.7818608E-02  0.1336370E+00
          1   -1    0    0  501    0  0.00000000000E+00  0.00000000000E+00  0.15227104293E+02  0.15227105128E+02  0.50400000000E-02 0. -1.
         -2   -1    0    0    0  501 -0.00000000000E+00 -0.00000000000E+00 -0.98550273219E+02  0.98550273252E+02  0.25500000000E-02 0.  1.
        -24    2    1    2    0    0  0.00000000000E+00  0.44408920985E-15 -0.83323168926E+02  0.11377737838E+03  0.77476069539E+02 0.  0.
         66    2    3    3    0    0  0.16102786371E+02 -0.24704280425E+01 -0.93260794625E+02  0.94694131481E+02  0.19999948307E+01 0.  0.
         13    1    3    3    0    0 -0.16102786371E+02  0.24704280425E+01  0.99376256992E+01  0.19083246898E+02  0.10566000000E+00 0. -1.
         13    1    4    4    0    0  0.49817541510E+01 -0.71535794610E+00 -0.25027739941E+02  0.25528974558E+02  0.10566000000E+00 0. -1.
        -13    1    4    4    0    0  0.44889168249E+01 -0.43212208931E+00 -0.30308156389E+02  0.30642007302E+02  0.10566000000E+00 0.  1.
        -14    1    4    4    0    0  0.66321153948E+01 -0.13229480071E+01 -0.37924898296E+02  0.38523149622E+02  0.00000000000E+00 0.  1.
<mgrwt>
<rscale>  0 0.77476070E+02</rscale>
<asrwt>0</asrwt>
<pdfrwt beam="1">  1        1 0.23426316E-02 0.77476070E+02</pdfrwt>
<pdfrwt beam="2">  1       -2 0.15161580E-01 0.77476070E+02</pdfrwt>
<totfact> 0.11561102E+05</totfact>
</mgrwt>
</event>
<event>
 8    1  0.7756875E-014  0.7855982E+02  0.7818608E-02  0.1333189E+00
          1   -1    0    0  501    0  0.00000000000E+00  0.00000000000E+00  0.46845048564E+02  0.46845048836E+02  0.50400000000E-02 0. -1.
         -2   -1    0    0    0  501 -0.00000000000E+00 -0.00000000000E+00 -0.32936483905E+02  0.32936484004E+02  0.25500000000E-02 0.  1.
        -24    2    1    2    0    0 -0.35527136788E-14  0.00000000000E+00  0.13908564659E+02  0.79781532839E+02  0.78559816772E+02 0.  0.
         66    2    3    3    0    0 -0.16109698544E+02  0.21679573394E+02 -0.21968933396E+02  0.34873489901E+02  0.19999933895E+01 0.  0.
         13    1    3    3    0    0  0.16109698544E+02 -0.21679573394E+02  0.35877498056E+02  0.44908042938E+02  0.10566000000E+00 0. -1.
         13    1    4    4    0    0 -0.10376834614E+02  0.12673749016E+02 -0.13516604006E+02  0.21237051552E+02  0.10566000000E+00 0. -1.
        -13    1    4    4    0    0 -0.42783955242E+01  0.71718545686E+01 -0.63731006753E+01  0.10505605288E+02  0.10566000000E+00 0.  1.
        -14    1    4    4    0    0 -0.14544684064E+01  0.18339698093E+01 -0.20792287152E+01  0.31308330611E+01  0.00000000000E+00 0.  1.
<mgrwt>
<rscale>  0 0.78559817E+02</rscale>
<asrwt>0</asrwt>
<pdfrwt beam="1">  1        1 0.72069306E-02 0.78559817E+02</pdfrwt>
<pdfrwt beam="2">  1       -2 0.50671514E-02 0.78559817E+02</pdfrwt>
<totfact> 0.13698858E+05</totfact>
</mgrwt>
</event>
<event>
 8    1  0.7756875E-014  0.7884067E+02  0.7818608E-02  0.1332374E+00
         -2   -1    0    0    0  501 -0.00000000000E+00  0.00000000000E+00  0.21241538124E+01  0.21241553430E+01  0.25500000000E-02 0.  1.
          1   -1    0    0  501    0  0.00000000000E+00 -0.00000000000E+00 -0.73156764775E+03  0.73156764776E+03  0.50400000000E-02 0. -1.
        -24    2    1    2    0    0  0.00000000000E+00  0.00000000000E+00 -0.72944349393E+03  0.73369180311E+03  0.78840669095E+02 0.  0.
         66    2    3    3    0    0 -0.29938246278E+02  0.79681650610E+01 -0.59141276106E+03  0.59222702082E+03  0.20000010645E+01 0.  0.
         13    1    3    3    0    0  0.29938246278E+02 -0.79681650610E+01 -0.13803073288E+03  0.14146478228E+03  0.10566000000E+00 0. -1.
         13    1    4    4    0    0 -0.14978926452E+02  0.37845280570E+01 -0.31004312409E+03  0.31042783517E+03  0.10566000000E+00 0. -1.
        -13    1    4    4    0    0 -0.31345802638E+01  0.11963847141E+01 -0.59929058016E+02  0.60022996331E+02  0.10566000000E+00 0.  1.
         14    1    4    4    0    0 -0.11824739562E+02  0.29872522899E+01 -0.22144057896E+03  0.22177618932E+03  0.00000000000E+00 0. -1.
<mgrwt>
<rscale>  0 0.78840669E+02</rscale>
<asrwt>0</asrwt>
<pdfrwt beam="1">  1        1 0.11254867E+00 0.78840669E+02</pdfrwt>
<pdfrwt beam="2">  1       -2 0.32679360E-03 0.78840669E+02</pdfrwt>
<totfact> 0.20779214E+05</totfact>
</mgrwt>
</event>
<event>
 8    1  0.7756875E-014  0.7992350E+02  0.7818608E-02  0.1329269E+00
          1   -1    0    0  501    0  0.00000000000E+00  0.00000000000E+00  0.35744687334E+01  0.35744722866E+01  0.50400000000E-02 0. -1.
         -2   -1    0    0    0  501 -0.00000000000E+00 -0.00000000000E+00 -0.44676310730E+03  0.44676310731E+03  0.25500000000E-02 0.  1.
        -24    2    1    2    0    0 -0.35527136788E-14  0.00000000000E+00 -0.44318863856E+03  0.45033757959E+03  0.79923502426E+02 0.  0.
         66    2    3    3    0    0 -0.24524379012E+02 -0.22866828320E+02 -0.34396597127E+03  0.34560226620E+03  0.20000009361E+01 0.  0.
         13    1    3    3    0    0  0.24524379012E+02  0.22866828320E+02 -0.99222667294E+02  0.10473531340E+03  0.10566000000E+00 0. -1.
         13    1    4    4    0    0 -0.18529677236E+01 -0.12741554430E+01 -0.23136171714E+02  0.23245441856E+02  0.10566000000E+00 0. -1.
        -13    1    4    4    0    0 -0.21799064863E+02 -0.21038451208E+02 -0.30866882735E+03  0.31015201402E+03  0.10566000000E+00 0.  1.
        -14    1    4    4    0    0 -0.87234642510E+00 -0.55422166905E+00 -0.12160972203E+02  0.12204810316E+02  0.00000000000E+00 0.  1.
<mgrwt>
<rscale>  0 0.79923502E+02</rscale>
<asrwt>0</asrwt>
<pdfrwt beam="1">  1        1 0.54991890E-03 0.79923502E+02</pdfrwt>
<pdfrwt beam="2">  1       -2 0.68732742E-01 0.79923502E+02</pdfrwt>
<totfact> 0.54901434E+04</totfact>
</mgrwt>
</event>
<event>
 8    1  0.7756875E-014  0.7820764E+02  0.7818608E-02  0.1334216E+00
         -2   -1    0    0    0  501 -0.00000000000E+00  0.00000000000E+00  0.39193586939E+02  0.39193587022E+02  0.25500000000E-02 0.  1.
          1   -1    0    0  501    0  0.00000000000E+00 -0.00000000000E+00 -0.39014260717E+02  0.39014261042E+02  0.50400000000E-02 0. -1.
        -24    2    1    2    0    0  0.00000000000E+00  0.35527136788E-14  0.17932622240E+00  0.78207848064E+02  0.78207642472E+02 0.  0.
         66    2    3    3    0    0  0.34580713504E+02 -0.15319513427E+02  0.99178025957E+01  0.39151960875E+02  0.19999984838E+01 0.  0.
         13    1    3    3    0    0 -0.34580713504E+02  0.15319513427E+02 -0.97384763733E+01  0.39055887190E+02  0.10566000000E+00 0. -1.
         13    1    4    4    0    0  0.28309094006E+01 -0.12889968977E+01  0.13314360395E+01  0.33851804973E+01  0.10566000000E+00 0. -1.
        -13    1    4    4    0    0  0.21890814358E+02 -0.10058604752E+02  0.60425773454E+01  0.24837616387E+02  0.10566000000E+00 0.  1.
         14    1    4    4    0    0  0.98589897458E+01 -0.39719117766E+01  0.25437892108E+01  0.10929163990E+02  0.00000000000E+00 0. -1.
<mgrwt>
<rscale>  0 0.78207642E+02</rscale>
<asrwt>0</asrwt>
<pdfrwt beam="1">  1        1 0.60021940E-02 0.78207642E+02</pdfrwt>
<pdfrwt beam="2">  1       -2 0.60297826E-02 0.78207642E+02</pdfrwt>
<totfact> 0.13479196E+05</totfact>
</mgrwt>
</event>
<event>
 8    1  0.7756875E-014  0.8008463E+02  0.7818608E-02  0.1328811E+00
          1   -1    0    0  501    0  0.00000000000E+00  0.00000000000E+00  0.75723134784E+01  0.75723151557E+01  0.50400000000E-02 0. -1.
         -2   -1    0    0    0  501 -0.00000000000E+00 -0.00000000000E+00 -0.21174331892E+03  0.21174331893E+03  0.25500000000E-02 0.  1.
        -24    2    1    2    0    0  0.00000000000E+00  0.00000000000E+00 -0.20417100544E+03  0.21931563409E+03  0.80084629572E+02 0.  0.
         66    2    3    3    0    0  0.33207308712E+02 -0.10295638270E+02 -0.15641486894E+03  0.16024461533E+03  0.19999997403E+01 0.  0.
         13    1    3    3    0    0 -0.33207308712E+02  0.10295638270E+02 -0.47756136502E+02  0.59071018756E+02  0.10566000000E+00 0. -1.
         13    1    4    4    0    0  0.16132045384E+01 -0.80064232377E+00 -0.85228084984E+01  0.87116522973E+01  0.10566000000E+00 0. -1.
        -13    1    4    4    0    0  0.10471051905E+02 -0.36556194122E+01 -0.51574994130E+02  0.52754124624E+02  0.10566000000E+00 0.  1.
         14    1    4    4    0    0  0.21123052269E+02 -0.58393765337E+01 -0.96317066308E+02  0.98778838410E+02  0.00000000000E+00 0. -1.
<mgrwt>
<rscale>  0 0.80084630E+02</rscale>
<asrwt>0</asrwt>
<pdfrwt beam="1">  1        1 0.11649716E-02 0.80084630E+02</pdfrwt>
<pdfrwt beam="2">  1       -2 0.32575891E-01 0.80084630E+02</pdfrwt>
<totfact> 0.82862850E+04</totfact>
</mgrwt>
</event>
<event>
 8    1  0.7756875E-014  0.8710025E+02  0.7818608E-02  0.1310030E+00
          1   -1    0    0  501    0  0.00000000000E+00  0.00000000000E+00  0.22476450649E+03  0.22476450655E+03  0.50400000000E-02 0. -1.
         -2   -1    0    0    0  501 -0.00000000000E+00 -0.00000000000E+00 -0.84382253075E+01  0.84382256928E+01  0.25500000000E-02 0.  1.
        -24    2    1    2    0    0 -0.35527136788E-14 -0.35527136788E-14  0.21632628118E+03  0.23320273224E+03  0.87100254842E+02 0.  0.
         66    2    3    3    0    0 -0.24693266855E+02 -0.26315384949E+02  0.43056571349E+02  0.56214991356E+02  0.20000009656E+01 0.  0.
         13    1    3    3    0    0  0.24693266855E+02  0.26315384949E+02  0.17326970983E+03  0.17698774088E+03  0.10566000000E+00 0. -1.
         13    1    4    4    0    0 -0.97005359218E+00 -0.70009865210E+00  0.13916865439E+01  0.18382321851E+01  0.10566000000E+00 0. -1.
        -13    1    4    4    0    0 -0.17684668288E+02 -0.19505935007E+02  0.30581312832E+02  0.40354142929E+02  0.10566000000E+00 0.  1.
         14    1    4    4    0    0 -0.60385449749E+01 -0.61093512901E+01  0.11083571973E+02  0.14022616242E+02  0.00000000000E+00 0. -1.
<mgrwt>
<rscale>  0 0.87100255E+02</rscale>
<asrwt>0</asrwt>
<pdfrwt beam="1">  1        1 0.34579144E-01 0.87100255E+02</pdfrwt>
<pdfrwt beam="2">  1       -2 0.12981889E-02 0.87100255E+02</pdfrwt>
<totfact> 0.13602762E+05</totfact>
</mgrwt>
</event>
<event>
 8    1  0.7756875E-014  0.8167319E+02  0.7818608E-02  0.1324369E+00
         -2   -1    0    0    0  501 -0.00000000000E+00  0.00000000000E+00  0.23370923624E+03  0.23370923625E+03  0.25500000000E-02 0.  1.
          1   -1    0    0  501    0  0.00000000000E+00 -0.00000000000E+00 -0.71354784988E+01  0.71354802787E+01  0.50400000000E-02 0. -1.
        -24    2    1    2    0    0  0.00000000000E+00 -0.35527136788E-14  0.22657375774E+03  0.24084471653E+03  0.81673188897E+02 0.  0.
         66    2    3    3    0    0 -0.28011050572E+02 -0.28957844595E+02  0.13256694077E+03  0.13856828465E+03  0.20000019156E+01 0.  0.
         13    1    3    3    0    0  0.28011050572E+02  0.28957844595E+02  0.94006816968E+02  0.10227643188E+03  0.10566000000E+00 0. -1.
         13    1    4    4    0    0 -0.79153906074E+01 -0.84690232863E+01  0.35469459680E+02  0.37315834413E+02  0.10566000000E+00 0. -1.
        -13    1    4    4    0    0 -0.31525695787E+01 -0.34678843118E+01  0.16465260668E+02  0.17119605411E+02  0.10566000000E+00 0.  1.
         14    1    4    4    0    0 -0.16943090386E+02 -0.17020936997E+02  0.80632220421E+02  0.84132844823E+02  0.00000000000E+00 0. -1.
<mgrwt>
<rscale>  0 0.81673189E+02</rscale>
<asrwt>0</asrwt>
<pdfrwt beam="1">  1        1 0.10977660E-02 0.81673189E+02</pdfrwt>
<pdfrwt beam="2">  1       -2 0.35955270E-01 0.81673189E+02</pdfrwt>
<totfact> 0.75428111E+04</totfact>
</mgrwt>
</event>
<event>
 8    1  0.7756875E-014  0.8093449E+02  0.7818608E-02  0.1326420E+00
          1   -1    0    0  501    0  0.00000000000E+00  0.00000000000E+00  0.20781367543E+03  0.20781367549E+03  0.50400000000E-02 0. -1.
         -2   -1    0    0    0  501 -0.00000000000E+00 -0.00000000000E+00 -0.78801263601E+01  0.78801267727E+01  0.25500000000E-02 0.  1.
        -24    2    1    2    0    0 -0.35527136788E-14  0.00000000000E+00  0.19993354907E+03  0.21569380226E+03  0.80934493828E+02 0.  0.
         66    2    3    3    0    0  0.27629271163E+02 -0.26337122681E+02  0.64414429896E+02  0.74901531588E+02  0.19999998532E+01 0.  0.
         13    1    3    3    0    0 -0.27629271163E+02  0.26337122681E+02  0.13551911917E+03  0.14079227067E+03  0.10566000000E+00 0. -1.
         13    1    4    4    0    0  0.31209870617E+01 -0.35517313394E+01  0.72840824551E+01  0.86847208933E+01  0.10566000000E+00 0.  1.
        -13    1    4    4    0    0  0.10408007477E+02 -0.91144182673E+01  0.24084064556E+02  0.27775035005E+02  0.10566000000E+00 0. -1.
        -14    1    4    4    0    0  0.14100276625E+02 -0.13670973074E+02  0.33046282884E+02  0.38441775690E+02  0.00000000000E+00 0.  1.
<mgrwt>
<rscale>  0 0.80934494E+02</rscale>
<asrwt>0</asrwt>
<pdfrwt beam="1">  1        1 0.31971331E-01 0.80934494E+02</pdfrwt>
<pdfrwt beam="2">  1       -2 0.12123273E-02 0.80934494E+02</pdfrwt>
<totfact> 0.16288582E+05</totfact>
</mgrwt>
</event>
<event>
 8    1  0.7756875E-014  0.8025714E+02  0.7818608E-02  0.1328323E+00
          1   -1    0    0  501    0  0.00000000000E+00  0.00000000000E+00  0.58817392253E+02  0.58817392468E+02  0.50400000000E-02 0. -1.
         -2   -1    0    0    0  501 -0.00000000000E+00 -0.00000000000E+00 -0.27377994912E+02  0.27377995030E+02  0.25500000000E-02 0.  1.
        -24    2    1    2    0    0  0.35527136788E-14  0.00000000000E+00  0.31439397341E+02  0.86195387499E+02  0.80257143737E+02 0.  0.
         66    2    3    3    0    0  0.21138359436E+02 -0.32933993253E+02  0.63162804095E+01  0.39690975669E+02  0.20000000326E+01 0.  0.
         13    1    3    3    0    0 -0.21138359436E+02  0.32933993253E+02  0.25123116932E+02  0.46504411830E+02  0.10566000000E+00 0. -1.
         13    1    4    4    0    0  0.11870062484E+02 -0.19075610456E+02  0.41805375972E+01  0.22853125744E+02  0.10566000000E+00 0.  1.
        -13    1    4    4    0    0  0.31724867948E+01 -0.49547205928E+01  0.12127531275E+01  0.60079832556E+01  0.10566000000E+00 0. -1.
         14    1    4    4    0    0  0.60958101574E+01 -0.89036622040E+01  0.92298968484E+00  0.10829866669E+02  0.00000000000E+00 0. -1.
<mgrwt>
<rscale>  0 0.80257144E+02</rscale>
<asrwt>0</asrwt>
<pdfrwt beam="1">  1        1 0.90488295E-02 0.80257144E+02</pdfrwt>
<pdfrwt beam="2">  1       -2 0.42119993E-02 0.80257144E+02</pdfrwt>
<totfact> 0.13377356E+05</totfact>
</mgrwt>
</event>
<event>
 8    1  0.7756875E-014  0.8294117E+02  0.7818608E-02  0.1320906E+00
          1   -1    0    0  501    0  0.00000000000E+00  0.00000000000E+00  0.11820788887E+02  0.11820789961E+02  0.50400000000E-02 0. -1.
         -2   -1    0    0    0  501 -0.00000000000E+00 -0.00000000000E+00 -0.14549024178E+03  0.14549024180E+03  0.25500000000E-02 0.  1.
        -24    2    1    2    0    0  0.00000000000E+00  0.00000000000E+00 -0.13366945289E+03  0.15731103176E+03  0.82941172392E+02 0.  0.
         66    2    3    3    0    0 -0.96180713060E+01  0.28977157484E+02 -0.12003479363E+03  0.12387305861E+03  0.20000039714E+01 0.  0.
         13    1    3    3    0    0  0.96180713060E+01 -0.28977157484E+02 -0.13634659265E+02  0.33437973156E+02  0.10566000000E+00 0. -1.
         13    1    4    4    0    0 -0.51491032263E+01  0.14340191980E+02 -0.58647185801E+02  0.60594207119E+02  0.10566000000E+00 0.  1.
        -13    1    4    4    0    0 -0.65805110144E+00  0.10512431543E+01 -0.49022689151E+01  0.50578204766E+01  0.10566000000E+00 0.  1.
        -14    1    4    4    0    0 -0.38109169782E+01  0.13585722350E+02 -0.56485338912E+02  0.58221031011E+02  0.00000000000E+00 0.  1.
<mgrwt>
<rscale>  0 0.82941172E+02</rscale>
<asrwt>0</asrwt>
<pdfrwt beam="1">  1        1 0.18185831E-02 0.82941172E+02</pdfrwt>
<pdfrwt beam="2">  1       -2 0.22383113E-01 0.82941172E+02</pdfrwt>
<totfact> 0.86978045E+04</totfact>
</mgrwt>
</event>
<event>
 8    1  0.7756875E-014  0.8013422E+02  0.7818608E-02  0.1328671E+00
         -2   -1    0    0    0  501 -0.00000000000E+00  0.00000000000E+00  0.42962182696E+01  0.42962190263E+01  0.25500000000E-02 0.  1.
          1   -1    0    0  501    0  0.00000000000E+00 -0.00000000000E+00 -0.37367123760E+03  0.37367123764E+03  0.50400000000E-02 0. -1.
        -24    2    1    2    0    0  0.00000000000E+00 -0.88817841970E-15 -0.36937501933E+03  0.37796745666E+03  0.80134221086E+02 0.  0.
         66    2    3    3    0    0 -0.39503717121E+02 -0.64466529980E+01 -0.17949647001E+03  0.18391597468E+03  0.19999991641E+01 0.  0.
         13    1    3    3    0    0  0.39503717121E+02  0.64466529980E+01 -0.18987854932E+03  0.19405148198E+03  0.10566000000E+00 0. -1.
         13    1    4    4    0    0 -0.11963065747E+01 -0.31569800380E+00 -0.44995280436E+01  0.46677329937E+01  0.10566000000E+00 0. -1.
        -13    1    4    4    0    0 -0.14805670935E+02 -0.23577684984E+01 -0.69805639367E+02  0.71397516873E+02  0.10566000000E+00 0.  1.
        -14    1    4    4    0    0 -0.23501739611E+02 -0.37731864959E+01 -0.10519130260E+03  0.10785072482E+03  0.00000000000E+00 0.  1.
<mgrwt>
<rscale>  0 0.80134221E+02</rscale>
<asrwt>0</asrwt>
<pdfrwt beam="1">  1        1 0.57487857E-01 0.80134221E+02</pdfrwt>
<pdfrwt beam="2">  1       -2 0.66095701E-03 0.80134221E+02</pdfrwt>
<totfact> 0.18694523E+05</totfact>
</mgrwt>
</event>
<event>
 8    1  0.7756875E-014  0.8053657E+02  0.7818608E-02  0.1327536E+00
         -2   -1    0    0    0  501 -0.00000000000E+00  0.00000000000E+00  0.38583849114E+03  0.38583849115E+03  0.25500000000E-02 0.  1.
          1   -1    0    0  501    0  0.00000000000E+00 -0.00000000000E+00 -0.42026247274E+01  0.42026277495E+01  0.50400000000E-02 0. -1.
        -24    2    1    2    0    0  0.00000000000E+00  0.00000000000E+00  0.38163586641E+03  0.39004111890E+03  0.80536574913E+02 0.  0.
         66    2    3    3    0    0  0.24196605752E+01 -0.39986800742E+02  0.17234724002E+03  0.17695301672E+03  0.19999977382E+01 0.  0.
         13    1    3    3    0    0 -0.24196605752E+01  0.39986800742E+02  0.20928862639E+03  0.21308810218E+03  0.10566000000E+00 0. -1.
         13    1    4    4    0    0  0.15192445776E+01 -0.17436448820E+02  0.74592961708E+02  0.76618920326E+02  0.10566000000E+00 0. -1.
        -13    1    4    4    0    0  0.10502545929E+01 -0.20147773504E+02  0.88664252908E+02  0.90930724838E+02  0.10566000000E+00 0.  1.
         14    1    4    4    0    0 -0.14983859534E+00 -0.24025784184E+01  0.90900254092E+01  0.94033715550E+01  0.00000000000E+00 0. -1.
<mgrwt>
<rscale>  0 0.80536575E+02</rscale>
<asrwt>0</asrwt>
<pdfrwt beam="1">  1        1 0.64655797E-03 0.80536575E+02</pdfrwt>
<pdfrwt beam="2">  1       -2 0.59359760E-01 0.80536575E+02</pdfrwt>
<totfact> 0.59468351E+04</totfact>
</mgrwt>
</event>
<event>
 8    1  0.7756875E-014  0.7892810E+02  0.7818608E-02  0.1332121E+00
         -2   -1    0    0    0  501 -0.00000000000E+00  0.00000000000E+00  0.47213328328E+02  0.47213328397E+02  0.25500000000E-02 0.  1.
          1   -1    0    0  501    0  0.00000000000E+00 -0.00000000000E+00 -0.32986686506E+02  0.32986686891E+02  0.50400000000E-02 0. -1.
        -24    2    1    2    0    0  0.00000000000E+00 -0.17763568394E-14  0.14226641822E+02  0.80200015288E+02  0.78928100919E+02 0.  0.
         66    2    3    3    0    0 -0.24906195441E+01  0.15913266185E+02  0.43697602260E+02  0.46614543733E+02  0.20000044557E+01 0.  0.
         13    1    3    3    0    0  0.24906195441E+01 -0.15913266185E+02 -0.29470960437E+02  0.33585471554E+02  0.10566000000E+00 0. -1.
         13    1    4    4    0    0 -0.13036670114E+01  0.54486970292E+01  0.16420007747E+02  0.17349803037E+02  0.10566000000E+00 0. -1.
        -13    1    4    4    0    0 -0.14065844455E+01  0.97599542606E+01  0.25305344502E+02  0.27158917713E+02  0.10566000000E+00 0.  1.
        -14    1    4    4    0    0  0.21963191271E+00  0.70461489538E+00  0.19722500113E+01  0.21058229828E+01  0.00000000000E+00 0.  1.
<mgrwt>
<rscale>  0 0.78928101E+02</rscale>
<asrwt>0</asrwt>
<pdfrwt beam="1">  1        1 0.50748749E-02 0.78928101E+02</pdfrwt>
<pdfrwt beam="2">  1       -2 0.72635890E-02 0.78928101E+02</pdfrwt>
<totfact> 0.12778236E+05</totfact>
</mgrwt>
</event>
<event>
 8    1  0.7756875E-014  0.7885465E+02  0.7818608E-02  0.1332334E+00
         -2   -1    0    0    0  501 -0.00000000000E+00  0.00000000000E+00  0.65212112527E+01  0.65212117512E+01  0.25500000000E-02 0.  1.
          1   -1    0    0  501    0  0.00000000000E+00 -0.00000000000E+00 -0.23837812015E+03  0.23837812021E+03  0.50400000000E-02 0. -1.
        -24    2    1    2    0    0  0.00000000000E+00  0.00000000000E+00 -0.23185690890E+03  0.24489933196E+03  0.78854654830E+02 0.  0.
         66    2    3    3    0    0 -0.31829516968E+02  0.11002386860E+02 -0.52480815745E+02  0.62389155181E+02  0.19999989908E+01 0.  0.
         13    1    3    3    0    0  0.31829516968E+02 -0.11002386860E+02 -0.17937609316E+03  0.18251017678E+03  0.10566000000E+00 0. -1.
         13    1    4    4    0    0 -0.12018220467E+02  0.34651488456E+01 -0.18491921912E+02  0.22325035716E+02  0.10566000000E+00 0. -1.
        -13    1    4    4    0    0 -0.16954603305E+02  0.67228836984E+01 -0.29097817818E+02  0.34341664262E+02  0.10566000000E+00 0.  1.
         14    1    4    4    0    0 -0.28566931969E+01  0.81435431593E+00 -0.48910760146E+01  0.57224552033E+01  0.00000000000E+00 0. -1.
<mgrwt>
<rscale>  0 0.78854655E+02</rscale>
<asrwt>0</asrwt>
<pdfrwt beam="1">  1        1 0.36673550E-01 0.78854655E+02</pdfrwt>
<pdfrwt beam="2">  1       -2 0.10032635E-02 0.78854655E+02</pdfrwt>
<totfact> 0.17925045E+05</totfact>
</mgrwt>
</event>
<event>
 8    1  0.7756875E-014  0.7977906E+02  0.7818608E-02  0.1329680E+00
         -2   -1    0    0    0  501 -0.00000000000E+00  0.00000000000E+00  0.94772667208E+01  0.94772670639E+01  0.25500000000E-02 0.  1.
          1   -1    0    0  501    0  0.00000000000E+00 -0.00000000000E+00 -0.16789384638E+03  0.16789384645E+03  0.50400000000E-02 0. -1.
        -24    2    1    2    0    0  0.00000000000E+00  0.35527136788E-14 -0.15841657966E+03  0.17737111352E+03  0.79779064924E+02 0.  0.
         66    2    3    3    0    0 -0.99790319027E+00  0.27310604355E+02 -0.14732840337E+02  0.31111436811E+02  0.19999987655E+01 0.  0.
         13    1    3    3    0    0  0.99790319027E+00 -0.27310604355E+02 -0.14368373932E+03  0.14625967670E+03  0.10566000000E+00 0. -1.
         13    1    4    4    0    0 -0.17925809393E+00  0.15900310212E+01 -0.74477219312E+00  0.17681011758E+01  0.10566000000E+00 0. -1.
        -13    1    4    4    0    0 -0.27695091227E+00  0.39268546756E+01 -0.28596433309E+01  0.48667867702E+01  0.10566000000E+00 0.  1.
        -14    1    4    4    0    0 -0.54169418407E+00  0.21793718658E+02 -0.11128424813E+02  0.24476548865E+02  0.00000000000E+00 0.  1.
<mgrwt>
<rscale>  0 0.79779065E+02</rscale>
<asrwt>0</asrwt>
<pdfrwt beam="1">  1        1 0.25829820E-01 0.79779065E+02</pdfrwt>
<pdfrwt beam="2">  1       -2 0.14580412E-02 0.79779065E+02</pdfrwt>
<totfact> 0.16243125E+05</totfact>
</mgrwt>
</event>
<event>
 8    1  0.7756875E-014  0.8079035E+02  0.7818608E-02  0.1326823E+00
          1   -1    0    0  501    0  0.00000000000E+00  0.00000000000E+00  0.96784215869E+02  0.96784216000E+02  0.50400000000E-02 0. -1.
         -2   -1    0    0    0  501 -0.00000000000E+00 -0.00000000000E+00 -0.16859878001E+02  0.16859878194E+02  0.25500000000E-02 0.  1.
        -24    2    1    2    0    0 -0.71054273576E-14  0.00000000000E+00  0.79924337868E+02  0.11364409419E+03  0.80790348196E+02 0.  0.
         66    2    3    3    0    0  0.39468381913E+02  0.48616374218E+01  0.30202864721E+02  0.49976011569E+02  0.20000014462E+01 0.  0.
         13    1    3    3    0    0 -0.39468381913E+02 -0.48616374218E+01  0.49721473146E+02  0.63668082625E+02  0.10566000000E+00 0. -1.
         13    1    4    4    0    0  0.11615460370E+02  0.93486835623E+00  0.94164903818E+01  0.14982468208E+02  0.10566000000E+00 0. -1.
        -13    1    4    4    0    0  0.19986058318E+02  0.24399669924E+01  0.15291760940E+02  0.25283296515E+02  0.10566000000E+00 0.  1.
         14    1    4    4    0    0  0.78668632249E+01  0.14868020732E+01  0.54946133994E+01  0.97102468461E+01  0.00000000000E+00 0. -1.
<mgrwt>
<rscale>  0 0.80790348E+02</rscale>
<asrwt>0</asrwt>
<pdfrwt beam="1">  1        1 0.14889879E-01 0.80790348E+02</pdfrwt>
<pdfrwt beam="2">  1       -2 0.25938274E-02 0.80790348E+02</pdfrwt>
<totfact> 0.14234872E+05</totfact>
</mgrwt>
</event>
<event>
 8    1  0.7756875E-014  0.8068710E+02  0.7818608E-02  0.1327113E+00
         -2   -1    0    0    0  501 -0.00000000000E+00  0.00000000000E+00  0.48647319326E+01  0.48647326010E+01  0.25500000000E-02 0.  1.
          1   -1    0    0  501    0  0.00000000000E+00 -0.00000000000E+00 -0.33457175377E+03  0.33457175381E+03  0.50400000000E-02 0. -1.
        -24    2    1    2    0    0  0.71054273576E-14  0.17763568394E-14 -0.32970702184E+03  0.33943648641E+03  0.80687099693E+02 0.  0.
         66    2    3    3    0    0 -0.39710672300E+02 -0.65498026640E+01 -0.17505057274E+03  0.17962889641E+03  0.19999999852E+01 0.  0.
         13    1    3    3    0    0  0.39710672300E+02  0.65498026640E+01 -0.15465644910E+03  0.15980759000E+03  0.10566000000E+00 0. -1.
         13    1    4    4    0    0 -0.84789186404E+01 -0.17723314088E+01 -0.40742767129E+02  0.41653540754E+02  0.10566000000E+00 0. -1.
        -13    1    4    4    0    0 -0.11335208661E+02 -0.18066128372E+01 -0.47625946923E+02  0.48989721266E+02  0.10566000000E+00 0.  1.
         14    1    4    4    0    0 -0.19896544999E+02 -0.29708584180E+01 -0.86681858688E+02  0.88985634393E+02  0.00000000000E+00 0. -1.
<mgrwt>
<rscale>  0 0.80687100E+02</rscale>
<asrwt>0</asrwt>
<pdfrwt beam="1">  1        1 0.51472560E-01 0.80687100E+02</pdfrwt>
<pdfrwt beam="2">  1       -2 0.74842061E-03 0.80687100E+02</pdfrwt>
<totfact> 0.18002824E+05</totfact>
</mgrwt>
</event>
<event>
 8    1  0.7756875E-014  0.8054578E+02  0.7818608E-02  0.1327510E+00
          1   -1    0    0  501    0  0.00000000000E+00  0.00000000000E+00  0.69366369461E+02  0.69366369645E+02  0.50400000000E-02 0. -1.
         -2   -1    0    0    0  501 -0.00000000000E+00 -0.00000000000E+00 -0.23381731519E+02  0.23381731658E+02  0.25500000000E-02 0.  1.
        -24    2    1    2    0    0  0.00000000000E+00  0.35527136788E-14  0.45984637943E+02  0.92748101303E+02  0.80545784300E+02 0.  0.
         66    2    3    3    0    0  0.26984848581E+02 -0.26020803709E+02  0.61364937125E+01  0.38038412570E+02  0.19999992943E+01 0.  0.
         13    1    3    3    0    0 -0.26984848581E+02  0.26020803709E+02  0.39848144230E+02  0.54709688732E+02  0.10566000000E+00 0. -1.
         13    1    4    4    0    0  0.60119844518E+01 -0.61155781039E+01  0.15990786008E+01  0.87242460420E+01  0.10566000000E+00 0. -1.
        -13    1    4    4    0    0  0.99304269711E+01 -0.10528341657E+02  0.24002249616E+01  0.14670773728E+02  0.10566000000E+00 0.  1.
        -14    1    4    4    0    0  0.11042437158E+02 -0.93768839482E+01  0.21371901501E+01  0.14643392800E+02  0.00000000000E+00 0.  1.
<mgrwt>
<rscale>  0 0.80545784E+02</rscale>
<asrwt>0</asrwt>
<pdfrwt beam="1">  1        1 0.10671749E-01 0.80545784E+02</pdfrwt>
<pdfrwt beam="2">  1       -2 0.35971895E-02 0.80545784E+02</pdfrwt>
<totfact> 0.13595005E+05</totfact>
</mgrwt>
</event>
<event>
 8    1  0.7756875E-014  0.7952009E+02  0.7818608E-02  0.1330419E+00
         -2   -1    0    0    0  501 -0.00000000000E+00  0.00000000000E+00  0.76596599270E+02  0.76596599312E+02  0.25500000000E-02 0.  1.
          1   -1    0    0  501    0  0.00000000000E+00 -0.00000000000E+00 -0.20638790418E+02  0.20638791033E+02  0.50400000000E-02 0. -1.
        -24    2    1    2    0    0 -0.35527136788E-14 -0.44408920985E-15  0.55957808852E+02  0.97235390345E+02  0.79520090318E+02 0.  0.
         66    2    3    3    0    0 -0.23187875449E+02 -0.35484511478E+01  0.67212982800E+02  0.71216951152E+02  0.20000002688E+01 0.  0.
         13    1    3    3    0    0  0.23187875449E+02  0.35484511478E+01 -0.11255173948E+02  0.26018439193E+02  0.10566000000E+00 0. -1.
         13    1    4    4    0    0 -0.57204699117E+01 -0.20776085756E+00  0.16561048256E+02  0.17522740195E+02  0.10566000000E+00 0. -1.
        -13    1    4    4    0    0 -0.49612948331E+01 -0.66257601544E+00  0.15448301127E+02  0.16239292631E+02  0.10566000000E+00 0.  1.
        -14    1    4    4    0    0 -0.12506110705E+02 -0.26781142747E+01  0.35203633417E+02  0.37454918326E+02  0.00000000000E+00 0.  1.
<mgrwt>
<rscale>  0 0.79520090E+02</rscale>
<asrwt>0</asrwt>
<pdfrwt beam="1">  1        1 0.31751986E-02 0.79520090E+02</pdfrwt>
<pdfrwt beam="2">  1       -2 0.11784092E-01 0.79520090E+02</pdfrwt>
<totfact> 0.11454278E+05</totfact>
</mgrwt>
</event>
<event>
 8    1  0.7756875E-014  0.7879984E+02  0.7818608E-02  0.1332492E+00
         -2   -1    0    0    0  501 -0.00000000000E+00  0.00000000000E+00  0.17374503569E+02  0.17374503756E+02  0.25500000000E-02 0.  1.
          1   -1    0    0  501    0  0.00000000000E+00 -0.00000000000E+00 -0.89346655854E+02  0.89346655996E+02  0.50400000000E-02 0. -1.
        -24    2    1    2    0    0  0.00000000000E+00  0.00000000000E+00 -0.71972152285E+02  0.10672115975E+03  0.78799842856E+02 0.  0.
         66    2    3    3    0    0 -0.85383440855E+01  0.22379129826E+02  0.63149343514E+01  0.24851703484E+02  0.19999996768E+01 0.  0.
         13    1    3    3    0    0  0.85383440855E+01 -0.22379129826E+02 -0.78287086637E+02  0.81869456268E+02  0.10566000000E+00 0. -1.
         13    1    4    4    0    0 -0.49976055232E+01  0.14687835428E+02  0.39263430579E+01  0.16004246448E+02  0.10566000000E+00 0.  1.
        -13    1    4    4    0    0 -0.31139271849E+00  0.13317483078E+01  0.19678744559E+00  0.13857879761E+01  0.10566000000E+00 0. -1.
        -14    1    4    4    0    0 -0.32293458439E+01  0.63595460906E+01  0.21918038479E+01  0.74616690603E+01  0.00000000000E+00 0.  1.
<mgrwt>
<rscale>  0 0.78799843E+02</rscale>
<asrwt>0</asrwt>
<pdfrwt beam="1">  1        1 0.13745639E-01 0.78799843E+02</pdfrwt>
<pdfrwt beam="2">  1       -2 0.26730006E-02 0.78799843E+02</pdfrwt>
<totfact> 0.15029631E+05</totfact>
</mgrwt>
</event>
<event>
 8    1  0.7756875E-014  0.7537848E+02  0.7818608E-02  0.1342703E+00
         -2   -1    0    0    0  501 -0.00000000000E+00  0.00000000000E+00  0.40256893823E+02  0.40256893904E+02  0.25500000000E-02 0.  1.
          1   -1    0    0  501    0  0.00000000000E+00 -0.00000000000E+00 -0.35285353320E+02  0.35285353680E+02  0.50400000000E-02 0. -1.
        -24    2    1    2    0    0 -0.35527136788E-14 -0.35527136788E-14  0.49715405030E+01  0.75542247584E+02  0.75378478063E+02 0.  0.
         66    2    3    3    0    0 -0.24269897979E+02 -0.28533628361E+02  0.64047104766E+01  0.38055436096E+02  0.20000012065E+01 0.  0.
         13    1    3    3    0    0  0.24269897979E+02  0.28533628361E+02 -0.14331699736E+01  0.37486811488E+02  0.10566000000E+00 0. -1.
         13    1    4    4    0    0 -0.10899397066E+02 -0.11557955473E+02  0.26220866410E+01  0.16101853729E+02  0.10566000000E+00 0. -1.
        -13    1    4    4    0    0 -0.93410237425E+01 -0.12351141875E+02  0.29318876669E+01  0.15761109082E+02  0.10566000000E+00 0.  1.
        -14    1    4    4    0    0 -0.40294771703E+01 -0.46245310129E+01  0.85073616871E+00  0.61924732849E+01  0.00000000000E+00 0.  1.
<mgrwt>
<rscale>  0 0.75378478E+02</rscale>
<asrwt>0</asrwt>
<pdfrwt beam="1">  1        1 0.54285160E-02 0.75378478E+02</pdfrwt>
<pdfrwt beam="2">  1       -2 0.61933682E-02 0.75378478E+02</pdfrwt>
<totfact> 0.14713350E+05</totfact>
</mgrwt>
</event>
<event>
 8    1  0.7756875E-014  0.7971074E+02  0.7818608E-02  0.1329874E+00
          1   -1    0    0  501    0  0.00000000000E+00  0.00000000000E+00  0.52813860942E+01  0.52813884990E+01  0.50400000000E-02 0. -1.
         -2   -1    0    0    0  501 -0.00000000000E+00 -0.00000000000E+00 -0.30076384375E+03  0.30076384376E+03  0.25500000000E-02 0.  1.
        -24    2    1    2    0    0 -0.35527136788E-14 -0.17763568394E-14 -0.29548245765E+03  0.30604523226E+03  0.79710735830E+02 0.  0.
         66    2    3    3    0    0  0.25497705584E+02  0.13996209990E+02 -0.25230778912E+03  0.25398670701E+03  0.20000005289E+01 0.  0.
         13    1    3    3    0    0 -0.25497705584E+02 -0.13996209990E+02 -0.43174668534E+02  0.52058525250E+02  0.10566000000E+00 0. -1.
         13    1    4    4    0    0  0.64705720121E+01  0.31674550254E+01 -0.68180180967E+02  0.68559822887E+02  0.10566000000E+00 0. -1.
        -13    1    4    4    0    0  0.30226022556E+01  0.13970742684E+01 -0.26757165888E+02  0.26963772572E+02  0.10566000000E+00 0.  1.
         14    1    4    4    0    0  0.16004531316E+02  0.94316806961E+01 -0.15737044226E+03  0.15846311155E+03  0.00000000000E+00 0. -1.
<mgrwt>
<rscale>  0 0.79710736E+02</rscale>
<asrwt>0</asrwt>
<pdfrwt beam="1">  1        1 0.81252136E-03 0.79710736E+02</pdfrwt>
<pdfrwt beam="2">  1       -2 0.46271347E-01 0.79710736E+02</pdfrwt>
<totfact> 0.70832271E+04</totfact>
</mgrwt>
</event>
<event>
 8    1  0.7756875E-014  0.8026394E+02  0.7818608E-02  0.1328304E+00
          1   -1    0    0  501    0  0.00000000000E+00  0.00000000000E+00  0.49600758811E+03  0.49600758814E+03  0.50400000000E-02 0. -1.
         -2   -1    0    0    0  501 -0.00000000000E+00 -0.00000000000E+00 -0.32470764920E+01  0.32470774933E+01  0.25500000000E-02 0.  1.
        -24    2    1    2    0    0  0.00000000000E+00 -0.35527136788E-14  0.49276051162E+03  0.49925466563E+03  0.80263935502E+02 0.  0.
         66    2    3    3    0    0  0.22159839468E+02  0.31006613079E+02  0.32424782662E+03  0.32648602059E+03  0.20000079999E+01 0.  0.
         13    1    3    3    0    0 -0.22159839468E+02 -0.31006613079E+02  0.16851268500E+03  0.17276864504E+03  0.10566000000E+00 0. -1.
         13    1    4    4    0    0  0.62163263673E+01  0.73573810098E+01  0.80504097030E+02  0.81078323685E+02  0.10566000000E+00 0. -1.
        -13    1    4    4    0    0  0.12938829438E+02  0.18881222240E+02  0.19726160597E+03  0.19858516111E+03  0.10566000000E+00 0.  1.
         14    1    4    4    0    0  0.30046836627E+01  0.47680098293E+01  0.46482123622E+02  0.46822535793E+02  0.00000000000E+00 0. -1.
<mgrwt>
<rscale>  0 0.80263936E+02</rscale>
<asrwt>0</asrwt>
<pdfrwt beam="1">  1        1 0.76308907E-01 0.80263936E+02</pdfrwt>
<pdfrwt beam="2">  1       -2 0.49955000E-03 0.80263936E+02</pdfrwt>
<totfact> 0.19421405E+05</totfact>
</mgrwt>
</event>
<event>
 8    1  0.7756875E-014  0.7774470E+02  0.7818608E-02  0.1335576E+00
          1   -1    0    0  501    0  0.00000000000E+00  0.00000000000E+00  0.19484684598E+03  0.19484684605E+03  0.50400000000E-02 0. -1.
         -2   -1    0    0    0  501 -0.00000000000E+00 -0.00000000000E+00 -0.77551148389E+01  0.77551152581E+01  0.25500000000E-02 0.  1.
        -24    2    1    2    0    0 -0.35527136788E-14  0.00000000000E+00  0.18709173114E+03  0.20260196130E+03  0.77744703116E+02 0.  0.
         66    2    3    3    0    0 -0.30907670043E+02  0.17755679206E+02  0.53361572985E+02  0.64202847954E+02  0.20000005904E+01 0.  0.
         13    1    3    3    0    0  0.30907670043E+02 -0.17755679206E+02  0.13373015816E+03  0.13839911335E+03  0.10566000000E+00 0. -1.
         13    1    4    4    0    0 -0.53833360055E+01  0.34486415488E+01  0.94852374269E+01  0.11439157668E+02  0.10566000000E+00 0. -1.
        -13    1    4    4    0    0 -0.88145643846E+01  0.48132650404E+01  0.13701002238E+02  0.16988016129E+02  0.10566000000E+00 0.  1.
        -14    1    4    4    0    0 -0.16709769653E+02  0.94937726169E+01  0.30175333320E+02  0.35775674156E+02  0.00000000000E+00 0.  1.
<mgrwt>
<rscale>  0 0.77744703E+02</rscale>
<asrwt>0</asrwt>
<pdfrwt beam="1">  1        1 0.29976436E-01 0.77744703E+02</pdfrwt>
<pdfrwt beam="2">  1       -2 0.11930947E-02 0.77744703E+02</pdfrwt>
<totfact> 0.17896915E+05</totfact>
</mgrwt>
</event>
<event>
 8    1  0.7756875E-014  0.8072567E+02  0.7818608E-02  0.1327005E+00
          1   -1    0    0  501    0  0.00000000000E+00  0.00000000000E+00  0.33200917339E+03  0.33200917342E+03  0.50400000000E-02 0. -1.
         -2   -1    0    0    0  501 -0.00000000000E+00 -0.00000000000E+00 -0.49069673936E+01  0.49069680562E+01  0.25500000000E-02 0.  1.
        -24    2    1    2    0    0  0.00000000000E+00 -0.71054273576E-14  0.32710220599E+03  0.33691614148E+03  0.80725666457E+02 0.  0.
         66    2    3    3    0    0  0.10942106542E+02 -0.37389536464E+02  0.11998851875E+03  0.12617032838E+03  0.19999997155E+01 0.  0.
         13    1    3    3    0    0 -0.10942106542E+02  0.37389536464E+02  0.20711368724E+03  0.21074581310E+03  0.10566000000E+00 0. -1.
         13    1    4    4    0    0  0.17623058095E+00 -0.36444236203E+00  0.97749370890E+00  0.10632654605E+01  0.10566000000E+00 0. -1.
        -13    1    4    4    0    0  0.68093970371E+01 -0.24900725412E+02  0.80831882859E+02  0.84854101047E+02  0.10566000000E+00 0.  1.
        -14    1    4    4    0    0  0.39564789236E+01 -0.12124368690E+02  0.38179142183E+02  0.40252961872E+02  0.00000000000E+00 0.  1.
<mgrwt>
<rscale>  0 0.80725666E+02</rscale>
<asrwt>0</asrwt>
<pdfrwt beam="1">  1        1 0.51078349E-01 0.80725666E+02</pdfrwt>
<pdfrwt beam="2">  1       -2 0.75491790E-03 0.80725666E+02</pdfrwt>
<totfact> 0.17954859E+05</totfact>
</mgrwt>
</event>
<event>
 8    1  0.7756875E-014  0.7979549E+02  0.7818608E-02  0.1329633E+00
          1   -1    0    0  501    0  0.00000000000E+00  0.00000000000E+00  0.21822999455E+02  0.21823000037E+02  0.50400000000E-02 0. -1.
         -2   -1    0    0    0  501 -0.00000000000E+00 -0.00000000000E+00 -0.72942763536E+02  0.72942763581E+02  0.25500000000E-02 0.  1.
        -24    2    1    2    0    0  0.00000000000E+00  0.00000000000E+00 -0.51119764081E+02  0.94765763618E+02  0.79795486555E+02 0.  0.
         66    2    3    3    0    0  0.20977490337E+02  0.11921599747E+02 -0.63274647158E+02  0.67748510094E+02  0.20000013960E+01 0.  0.
         13    1    3    3    0    0 -0.20977490337E+02 -0.11921599747E+02  0.12154883077E+02  0.27017253525E+02  0.10566000000E+00 0. -1.
         13    1    4    4    0    0  0.61090857794E+01  0.34867939910E+01 -0.17237538880E+02  0.18617802558E+02  0.10566000000E+00 0. -1.
        -13    1    4    4    0    0  0.12433534121E+02  0.72261863578E+01 -0.40101287983E+02  0.42602053964E+02  0.10566000000E+00 0.  1.
        -14    1    4    4    0    0  0.24348704359E+01  0.12086193984E+01 -0.59358202949E+01  0.65286535720E+01  0.00000000000E+00 0.  1.
<mgrwt>
<rscale>  0 0.79795487E+02</rscale>
<asrwt>0</asrwt>
<pdfrwt beam="1">  1        1 0.33573846E-02 0.79795487E+02</pdfrwt>
<pdfrwt beam="2">  1       -2 0.11221964E-01 0.79795487E+02</pdfrwt>
<totfact> 0.11469850E+05</totfact>
</mgrwt>
</event>
<event>
 8    1  0.7756875E-014  0.7482232E+02  0.7818608E-02  0.1344422E+00
         -2   -1    0    0    0  501 -0.00000000000E+00  0.00000000000E+00  0.54660641903E+02  0.54660641962E+02  0.25500000000E-02 0.  1.
          1   -1    0    0  501    0  0.00000000000E+00 -0.00000000000E+00 -0.25605164944E+02  0.25605165440E+02  0.50400000000E-02 0. -1.
        -24    2    1    2    0    0 -0.35527136788E-14 -0.17763568394E-14  0.29055476959E+02  0.80265807402E+02  0.74822316835E+02 0.  0.
         66    2    3    3    0    0 -0.28149989640E+02 -0.14941303958E+02  0.35502792744E+02  0.47750525986E+02  0.19999896497E+01 0.  0.
         13    1    3    3    0    0  0.28149989640E+02  0.14941303958E+02 -0.64473157857E+01  0.32515281416E+02  0.10566000000E+00 0. -1.
         13    1    4    4    0    0 -0.34697978906E+01 -0.25037273137E+01  0.52035967330E+01  0.67377096152E+01  0.10566000000E+00 0. -1.
        -13    1    4    4    0    0 -0.71569128815E+01 -0.36420718579E+01  0.85350553816E+01  0.11719403731E+02  0.10566000000E+00 0.  1.
         14    1    4    4    0    0 -0.17523278868E+02 -0.87955047864E+01  0.21764140630E+02  0.29293412640E+02  0.00000000000E+00 0. -1.
<mgrwt>
<rscale>  0 0.74822317E+02</rscale>
<asrwt>0</asrwt>
<pdfrwt beam="1">  1        1 0.39392562E-02 0.74822317E+02</pdfrwt>
<pdfrwt beam="2">  1       -2 0.84093296E-02 0.74822317E+02</pdfrwt>
<totfact> 0.14253816E+05</totfact>
</mgrwt>
</event>
<event>
 8    1  0.7756875E-014  0.8041313E+02  0.7818608E-02  0.1327883E+00
         -2   -1    0    0    0  501 -0.00000000000E+00  0.00000000000E+00  0.51978883208E+02  0.51978883270E+02  0.25500000000E-02 0.  1.
          1   -1    0    0  501    0  0.00000000000E+00 -0.00000000000E+00 -0.31100475010E+02  0.31100475418E+02  0.50400000000E-02 0. -1.
        -24    2    1    2    0    0  0.00000000000E+00  0.88817841970E-15  0.20878408198E+02  0.83079358688E+02  0.80413132703E+02 0.  0.
         66    2    3    3    0    0  0.33531766304E+02  0.63760669396E+01  0.32350742627E+02  0.47070204264E+02  0.19999999682E+01 0.  0.
         13    1    3    3    0    0 -0.33531766304E+02 -0.63760669396E+01 -0.11472334429E+02  0.36009154424E+02  0.10566000000E+00 0. -1.
         13    1    4    4    0    0  0.16253198828E+01  0.56939540969E+00  0.18520061859E+01  0.25311986888E+01  0.10566000000E+00 0. -1.
        -13    1    4    4    0    0  0.12734987340E+02  0.21678650966E+01  0.13027405846E+02  0.18346771071E+02  0.10566000000E+00 0.  1.
        -14    1    4    4    0    0  0.19171459081E+02  0.36388064334E+01  0.17471330595E+02  0.26192234504E+02  0.00000000000E+00 0.  1.
<mgrwt>
<rscale>  0 0.80413133E+02</rscale>
<asrwt>0</asrwt>
<pdfrwt beam="1">  1        1 0.47846886E-02 0.80413133E+02</pdfrwt>
<pdfrwt beam="2">  1       -2 0.79967511E-02 0.80413133E+02</pdfrwt>
<totfact> 0.11993213E+05</totfact>
</mgrwt>
</event>
<event>
 8    1  0.7756875E-014  0.8043300E+02  0.7818608E-02  0.1327827E+00
          1   -1    0    0  501    0  0.00000000000E+00  0.00000000000E+00  0.84149462355E+01  0.84149477448E+01  0.50400000000E-02 0. -1.
         -2   -1    0    0    0  501 -0.00000000000E+00 -0.00000000000E+00 -0.19220164821E+03  0.19220164823E+03  0.25500000000E-02 0.  1.
        -24    2    1    2    0    0  0.00000000000E+00  0.00000000000E+00 -0.18378670198E+03  0.20061659597E+03  0.80432995448E+02 0.  0.
         66    2    3    3    0    0 -0.94124905015E+01  0.34560278049E+02 -0.13742085456E+03  0.14202640254E+03  0.19999883655E+01 0.  0.
         13    1    3    3    0    0  0.94124905015E+01 -0.34560278049E+02 -0.46365847417E+02  0.58590193437E+02  0.10566000000E+00 0. -1.
         13    1    4    4    0    0 -0.14694313495E+01  0.56945045103E+01 -0.23565434730E+02  0.24288422925E+02  0.10566000000E+00 0. -1.
        -13    1    4    4    0    0 -0.22136185994E+00  0.22891832198E+01 -0.80306812912E+01  0.83541826005E+01  0.10566000000E+00 0.  1.
        -14    1    4    4    0    0 -0.77216972921E+01  0.26576590319E+02 -0.10582473854E+03  0.10938379701E+03  0.00000000000E+00 0.  1.
<mgrwt>
<rscale>  0 0.80432995E+02</rscale>
<asrwt>0</asrwt>
<pdfrwt beam="1">  1        1 0.12946074E-02 0.80432995E+02</pdfrwt>
<pdfrwt beam="2">  1       -2 0.29569481E-01 0.80432995E+02</pdfrwt>
<totfact> 0.85244779E+04</totfact>
</mgrwt>
</event>
<event>
 8    1  0.7756875E-014  0.7999989E+02  0.7818608E-02  0.1329052E+00
         -2   -1    0    0    0  501 -0.00000000000E+00  0.00000000000E+00  0.86485354841E+02  0.86485354879E+02  0.25500000000E-02 0.  1.
          1   -1    0    0  501    0  0.00000000000E+00 -0.00000000000E+00 -0.18500189593E+02  0.18500190279E+02  0.50400000000E-02 0. -1.
        -24    2    1    2    0    0 -0.88817841970E-15  0.00000000000E+00  0.67985165248E+02  0.10498554516E+03  0.79999887489E+02 0.  0.
         66    2    3    3    0    0  0.74243621589E+01  0.38636385182E+02  0.43302474449E+02  0.58540547553E+02  0.20000002489E+01 0.  0.
         13    1    3    3    0    0 -0.74243621589E+01 -0.38636385182E+02  0.24682690799E+02  0.46444997605E+02  0.10566000000E+00 0. -1.
         13    1    4    4    0    0  0.29390985634E+01  0.13202632115E+02  0.13952334952E+02  0.19432617162E+02  0.10566000000E+00 0. -1.
        -13    1    4    4    0    0  0.12288537451E+00  0.55444223252E+00  0.51153037348E+00  0.77157913597E+00  0.10566000000E+00 0.  1.
        -14    1    4    4    0    0  0.43623782209E+01  0.24879310835E+02  0.28838609124E+02  0.38336351255E+02  0.00000000000E+00 0.  1.
<mgrwt>
<rscale>  0 0.79999887E+02</rscale>
<asrwt>0</asrwt>
<pdfrwt beam="1">  1        1 0.28461831E-02 0.79999887E+02</pdfrwt>
<pdfrwt beam="2">  1       -2 0.13305439E-01 0.79999887E+02</pdfrwt>
<totfact> 0.10984931E+05</totfact>
</mgrwt>
</event>
<event>
 8    1  0.7756875E-014  0.8331407E+02  0.7818608E-02  0.1319901E+00
         -2   -1    0    0    0  501 -0.00000000000E+00  0.00000000000E+00  0.83113499156E+01  0.83113503067E+01  0.25500000000E-02 0.  1.
          1   -1    0    0  501    0  0.00000000000E+00 -0.00000000000E+00 -0.20878781983E+03  0.20878781989E+03  0.50400000000E-02 0. -1.
        -24    2    1    2    0    0 -0.35527136788E-14  0.17763568394E-14 -0.20047646991E+03  0.21709917020E+03  0.83314072707E+02 0.  0.
         66    2    3    3    0    0  0.30740448170E+02 -0.15222359951E+02 -0.38818560222E+02  0.51841836544E+02  0.20000005837E+01 0.  0.
         13    1    3    3    0    0 -0.30740448170E+02  0.15222359951E+02 -0.16165790969E+03  0.16525733365E+03  0.10566000000E+00 0. -1.
         13    1    4    4    0    0  0.97846810775E+01 -0.54380101721E+01 -0.12321564822E+02  0.16647644341E+02  0.10566000000E+00 0.  1.
        -13    1    4    4    0    0  0.44853034631E+01 -0.22535721936E+01 -0.65367836278E+01  0.82424049294E+01  0.10566000000E+00 0. -1.
        -14    1    4    4    0    0  0.16470463629E+02 -0.75307775857E+01 -0.19960211772E+02  0.26951787273E+02  0.00000000000E+00 0.  1.
<mgrwt>
<rscale>  0 0.83314073E+02</rscale>
<asrwt>0</asrwt>
<pdfrwt beam="1">  1        1 0.32121199E-01 0.83314073E+02</pdfrwt>
<pdfrwt beam="2">  1       -2 0.12786694E-02 0.83314073E+02</pdfrwt>
<totfact> 0.15093809E+05</totfact>
</mgrwt>
</event>
<event>
 8    1  0.7756875E-014  0.8039518E+02  0.7818608E-02  0.1327934E+00
          1   -1    0    0  501    0  0.00000000000E+00  0.00000000000E+00  0.26743855841E+03  0.26743855845E+03  0.50400000000E-02 0. -1.
         -2   -1    0    0    0  501 -0.00000000000E+00 -0.00000000000E+00 -0.60419347725E+01  0.60419353106E+01  0.25500000000E-02 0.  1.
        -24    2    1    2    0    0  0.71054273576E-14  0.00000000000E+00  0.26139662363E+03  0.27348049376E+03  0.80395184075E+02 0.  0.
         66    2    3    3    0    0 -0.39040650863E+02 -0.65591071938E+01  0.15401215902E+03  0.15903125300E+03  0.19999994774E+01 0.  0.
         13    1    3    3    0    0  0.39040650863E+02  0.65591071938E+01  0.10738446462E+03  0.11444924077E+03  0.10566000000E+00 0. -1.
         13    1    4    4    0    0 -0.14006676752E+02 -0.20458865426E+01  0.52566616536E+02  0.54439259578E+02  0.10566000000E+00 0. -1.
        -13    1    4    4    0    0 -0.67373769804E+01 -0.13259059923E+01  0.25498695659E+02  0.26407289138E+02  0.10566000000E+00 0.  1.
        -14    1    4    4    0    0 -0.18296597131E+02 -0.31873146589E+01  0.75946846823E+02  0.78184704282E+02  0.00000000000E+00 0.  1.
<mgrwt>
<rscale>  0 0.80395184E+02</rscale>
<asrwt>0</asrwt>
<pdfrwt beam="1">  1        1 0.41144387E-01 0.80395184E+02</pdfrwt>
<pdfrwt beam="2">  1       -2 0.92952863E-03 0.80395184E+02</pdfrwt>
<totfact> 0.17417758E+05</totfact>
</mgrwt>
</event>
<event>
 8    1  0.7756875E-014  0.7952869E+02  0.7818608E-02  0.1330394E+00
         -2   -1    0    0    0  501 -0.00000000000E+00  0.00000000000E+00  0.18442434033E+03  0.18442434035E+03  0.25500000000E-02 0.  1.
          1   -1    0    0  501    0  0.00000000000E+00 -0.00000000000E+00 -0.85737223384E+01  0.85737238198E+01  0.50400000000E-02 0. -1.
        -24    2    1    2    0    0  0.00000000000E+00 -0.17763568394E-14  0.17585061799E+03  0.19299806416E+03  0.79528692459E+02 0.  0.
         66    2    3    3    0    0 -0.36483597447E+02  0.14891916991E+02  0.10044412371E+03  0.10791591199E+03  0.19999998728E+01 0.  0.
         13    1    3    3    0    0  0.36483597447E+02 -0.14891916991E+02  0.75406494283E+02  0.85082152173E+02  0.10566000000E+00 0. -1.
         13    1    4    4    0    0 -0.28256484017E+01  0.15774620525E+01  0.91786493030E+01  0.97330078845E+01  0.10566000000E+00 0. -1.
        -13    1    4    4    0    0 -0.23758390908E+02  0.91087775133E+01  0.64175170643E+02  0.69035459421E+02  0.10566000000E+00 0.  1.
        -14    1    4    4    0    0 -0.98995581374E+01  0.42056774250E+01  0.27090303760E+02  0.29147444686E+02  0.00000000000E+00 0.  1.
<mgrwt>
<rscale>  0 0.79528692E+02</rscale>
<asrwt>0</asrwt>
<pdfrwt beam="1">  1        1 0.13190344E-02 0.79528692E+02</pdfrwt>
<pdfrwt beam="2">  1       -2 0.28372974E-01 0.79528692E+02</pdfrwt>
<totfact> 0.89185315E+04</totfact>
</mgrwt>
</event>
<event>
 8    1  0.7756875E-014  0.7982037E+02  0.7818608E-02  0.1329562E+00
          1   -1    0    0  501    0  0.00000000000E+00  0.00000000000E+00  0.56042756524E+02  0.56042756751E+02  0.50400000000E-02 0. -1.
         -2   -1    0    0    0  501 -0.00000000000E+00 -0.00000000000E+00 -0.28421563139E+02  0.28421563254E+02  0.25500000000E-02 0.  1.
        -24    2    1    2    0    0  0.71054273576E-14  0.00000000000E+00  0.27621193385E+02  0.84464320004E+02  0.79820367262E+02 0.  0.
         66    2    3    3    0    0  0.34439262546E+02  0.10349056359E+02 -0.44371087738E+01  0.36288478823E+02  0.19999971920E+01 0.  0.
         13    1    3    3    0    0 -0.34439262546E+02 -0.10349056359E+02  0.32058302159E+02  0.48175841182E+02  0.10566000000E+00 0. -1.
         13    1    4    4    0    0  0.10565089461E+01  0.31491575648E+00 -0.13511720410E-01  0.11075782992E+01  0.10566000000E+00 0. -1.
        -13    1    4    4    0    0  0.26147966345E+02  0.71094676906E+01 -0.35241690690E+01  0.27325658391E+02  0.10566000000E+00 0.  1.
        -14    1    4    4    0    0  0.72347872544E+01  0.29246729121E+01 -0.89942798435E+00  0.78552421324E+01  0.00000000000E+00 0.  1.
<mgrwt>
<rscale>  0 0.79820367E+02</rscale>
<asrwt>0</asrwt>
<pdfrwt beam="1">  1        1 0.86219625E-02 0.79820367E+02</pdfrwt>
<pdfrwt beam="2">  1       -2 0.43725482E-02 0.79820367E+02</pdfrwt>
<totfact> 0.13478158E+05</totfact>
</mgrwt>
</event>
<event>
 8    1  0.7756875E-014  0.7959623E+02  0.7818608E-02  0.1330201E+00
         -2   -1    0    0    0  501 -0.00000000000E+00  0.00000000000E+00  0.50358366892E+02  0.50358366956E+02  0.25500000000E-02 0.  1.
          1   -1    0    0  501    0  0.00000000000E+00 -0.00000000000E+00 -0.31452368963E+02  0.31452369366E+02  0.50400000000E-02 0. -1.
        -24    2    1    2    0    0  0.00000000000E+00 -0.71054273576E-14  0.18905997929E+02  0.81810736323E+02  0.79596229936E+02 0.  0.
         66    2    3    3    0    0  0.93811283760E+01  0.38415315215E+02  0.13836916123E+02  0.41942844893E+02  0.19999943222E+01 0.  0.
         13    1    3    3    0    0 -0.93811283760E+01 -0.38415315215E+02  0.50690818063E+01  0.39867891430E+02  0.10566000000E+00 0. -1.
         13    1    4    4    0    0  0.34478741428E+01  0.16322578028E+02  0.51456716834E+01  0.17458622245E+02  0.10566000000E+00 0. -1.
        -13    1    4    4    0    0  0.46914265325E+01  0.18596846643E+02  0.73023921785E+01  0.20522872205E+02  0.10566000000E+00 0.  1.
         14    1    4    4    0    0  0.12418277007E+01  0.34958905434E+01  0.13888522611E+01  0.39613504431E+01  0.00000000000E+00 0. -1.
<mgrwt>
<rscale>  0 0.79596230E+02</rscale>
<asrwt>0</asrwt>
<pdfrwt beam="1">  1        1 0.48388261E-02 0.79596230E+02</pdfrwt>
<pdfrwt beam="2">  1       -2 0.77474409E-02 0.79596230E+02</pdfrwt>
<totfact> 0.12373522E+05</totfact>
</mgrwt>
</event>
<event>
 8    1  0.7756875E-014  0.7946608E+02  0.7818608E-02  0.1330573E+00
         -2   -1    0    0    0  501 -0.00000000000E+00  0.00000000000E+00  0.40870487245E+02  0.40870487325E+02  0.25500000000E-02 0.  1.
          1   -1    0    0  501    0  0.00000000000E+00 -0.00000000000E+00 -0.38627244981E+02  0.38627245310E+02  0.50400000000E-02 0. -1.
        -24    2    1    2    0    0  0.00000000000E+00  0.00000000000E+00  0.22432422640E+01  0.79497732635E+02  0.79466076776E+02 0.  0.
         66    2    3    3    0    0  0.13665913000E+02 -0.37163109291E+02  0.40993379716E+01  0.39857978276E+02  0.19999975346E+01 0.  0.
         13    1    3    3    0    0 -0.13665913000E+02  0.37163109291E+02 -0.18560957076E+01  0.39639754359E+02  0.10566000000E+00 0. -1.
         13    1    4    4    0    0  0.10191310914E+01 -0.35056146269E+01  0.18192125734E+00  0.36568048175E+01  0.10566000000E+00 0. -1.
        -13    1    4    4    0    0  0.90555783009E+01 -0.23953380377E+02  0.20855165137E+01  0.25692965438E+02  0.10566000000E+00 0.  1.
        -14    1    4    4    0    0  0.35912036075E+01 -0.97041142873E+01  0.18319002006E+01  0.10508208020E+02  0.00000000000E+00 0.  1.
<mgrwt>
<rscale>  0 0.79466077E+02</rscale>
<asrwt>0</asrwt>
<pdfrwt beam="1">  1        1 0.59426531E-02 0.79466077E+02</pdfrwt>
<pdfrwt beam="2">  1       -2 0.62877673E-02 0.79466077E+02</pdfrwt>
<totfact> 0.12866270E+05</totfact>
</mgrwt>
</event>
<event>
 8    1  0.7756875E-014  0.7945039E+02  0.7818608E-02  0.1330618E+00
          1   -1    0    0  501    0  0.00000000000E+00  0.00000000000E+00  0.83911359937E+02  0.83911360088E+02  0.50400000000E-02 0. -1.
         -2   -1    0    0    0  501 -0.00000000000E+00 -0.00000000000E+00 -0.18806645193E+02  0.18806645366E+02  0.25500000000E-02 0.  1.
        -24    2    1    2    0    0  0.00000000000E+00 -0.17763568394E-14  0.65104714744E+02  0.10271800545E+03  0.79450391833E+02 0.  0.
         66    2    3    3    0    0  0.25595890201E+02  0.11902356278E+02 -0.35177197536E+01  0.28516486867E+02  0.19999977104E+01 0.  0.
         13    1    3    3    0    0 -0.25595890201E+02 -0.11902356278E+02  0.68622434498E+02  0.74201518587E+02  0.10566000000E+00 0. -1.
         13    1    4    4    0    0  0.18483959869E+02  0.89644145142E+01 -0.29661110313E+01  0.20756359958E+02  0.10566000000E+00 0. -1.
        -13    1    4    4    0    0  0.60050671130E+01  0.23545790357E+01 -0.74560280821E+00  0.64939942293E+01  0.10566000000E+00 0.  1.
         14    1    4    4    0    0  0.11068632192E+01  0.58336272778E+00  0.19399408597E+00  0.12661326801E+01  0.00000000000E+00 0. -1.
<mgrwt>
<rscale>  0 0.79450392E+02</rscale>
<asrwt>0</asrwt>
<pdfrwt beam="1">  1        1 0.12909440E-01 0.79450392E+02</pdfrwt>
<pdfrwt beam="2">  1       -2 0.28933301E-02 0.79450392E+02</pdfrwt>
<totfact> 0.14549261E+05</totfact>
</mgrwt>
</event>
<event>
 8    1  0.7756875E-014  0.7677529E+02  0.7818608E-02  0.1338460E+00
         -2   -1    0    0    0  501 -0.00000000000E+00  0.00000000000E+00  0.66550929120E+01  0.66550934005E+01  0.25500000000E-02 0.  1.
          1   -1    0    0  501    0  0.00000000000E+00 -0.00000000000E+00 -0.22142606756E+03  0.22142606761E+03  0.50400000000E-02 0. -1.
        -24    2    1    2    0    0  0.00000000000E+00  0.00000000000E+00 -0.21477097464E+03  0.22808116101E+03  0.76775285476E+02 0.  0.
         66    2    3    3    0    0 -0.18192613651E+02 -0.32301354503E+02 -0.13675558768E+03  0.14170546732E+03  0.20000030177E+01 0.  0.
         13    1    3    3    0    0  0.18192613651E+02  0.32301354503E+02 -0.78015386965E+02  0.86375693696E+02  0.10566000000E+00 0. -1.
         13    1    4    4    0    0 -0.69128068677E+01 -0.12662277363E+02 -0.56339457768E+02  0.58157250901E+02  0.10566000000E+00 0.  1.
        -13    1    4    4    0    0 -0.53958051711E+01 -0.10157042283E+02 -0.41101935967E+02  0.42680915239E+02  0.10566000000E+00 0. -1.
        -14    1    4    4    0    0 -0.58840016127E+01 -0.94820348568E+01 -0.39314193945E+02  0.40867301178E+02  0.00000000000E+00 0.  1.
<mgrwt>
<rscale>  0 0.76775285E+02</rscale>
<asrwt>0</asrwt>
<pdfrwt beam="1">  1        1 0.34065543E-01 0.76775285E+02</pdfrwt>
<pdfrwt beam="2">  1       -2 0.10238607E-02 0.76775285E+02</pdfrwt>
<totfact> 0.18962173E+05</totfact>
</mgrwt>
</event>
<event>
 8    1  0.7756875E-014  0.7897669E+02  0.7818608E-02  0.1331981E+00
         -2   -1    0    0    0  501 -0.00000000000E+00  0.00000000000E+00  0.78279499674E+02  0.78279499716E+02  0.25500000000E-02 0.  1.
          1   -1    0    0  501    0  0.00000000000E+00 -0.00000000000E+00 -0.19920021689E+02  0.19920022326E+02  0.50400000000E-02 0. -1.
        -24    2    1    2    0    0  0.35527136788E-14  0.00000000000E+00  0.58359477985E+02  0.98199522042E+02  0.78976689336E+02 0.  0.
         66    2    3    3    0    0 -0.15328491868E+02 -0.51500379250E+01  0.73957974389E+02  0.75731549110E+02  0.20000003238E+01 0.  0.
         13    1    3    3    0    0  0.15328491868E+02  0.51500379250E+01 -0.15598496403E+02  0.22467972932E+02  0.10566000000E+00 0. -1.
         13    1    4    4    0    0 -0.10530274439E+01 -0.38644976585E+00  0.34152838647E+01  0.35963228624E+01  0.10566000000E+00 0. -1.
        -13    1    4    4    0    0 -0.23187627274E+01 -0.47604296609E+00  0.10655552186E+02  0.10915824930E+02  0.10566000000E+00 0.  1.
        -14    1    4    4    0    0 -0.11956701697E+02 -0.42875451931E+01  0.59887138338E+02  0.61219401317E+02  0.00000000000E+00 0.  1.
<mgrwt>
<rscale>  0 0.78976689E+02</rscale>
<asrwt>0</asrwt>
<pdfrwt beam="1">  1        1 0.30646187E-02 0.78976689E+02</pdfrwt>
<pdfrwt beam="2">  1       -2 0.12043000E-01 0.78976689E+02</pdfrwt>
<totfact> 0.11602522E+05</totfact>
</mgrwt>
</event>
<event>
 8    1  0.7756875E-014  0.8094402E+02  0.7818608E-02  0.1326394E+00
          1   -1    0    0  501    0  0.00000000000E+00  0.00000000000E+00  0.16494397309E+02  0.16494398079E+02  0.50400000000E-02 0. -1.
         -2   -1    0    0    0  501 -0.00000000000E+00 -0.00000000000E+00 -0.99305440100E+02  0.99305440133E+02  0.25500000000E-02 0.  1.
        -24    2    1    2    0    0  0.00000000000E+00 -0.35527136788E-14 -0.82811042791E+02  0.11579983821E+03  0.80944015972E+02 0.  0.
         66    2    3    3    0    0 -0.11726533033E+02  0.24721116330E+02 -0.84046131414E+02  0.88410391749E+02  0.19999985036E+01 0.  0.
         13    1    3    3    0    0  0.11726533033E+02 -0.24721116330E+02  0.12350886233E+01  0.27389446462E+02  0.10566000000E+00 0. -1.
         13    1    4    4    0    0 -0.31054669587E+00  0.13436875354E+01 -0.34658455587E+01  0.37316464081E+01  0.10566000000E+00 0. -1.
        -13    1    4    4    0    0 -0.74633763385E+01  0.14794497851E+02 -0.50511905862E+02  0.53160539415E+02  0.10566000000E+00 0.  1.
        -14    1    4    4    0    0 -0.39526099986E+01  0.85829309432E+01 -0.30068379993E+02  0.31518205926E+02  0.00000000000E+00 0.  1.
<mgrwt>
<rscale>  0 0.80944016E+02</rscale>
<asrwt>0</asrwt>
<pdfrwt beam="1">  1        1 0.25375997E-02 0.80944016E+02</pdfrwt>
<pdfrwt beam="2">  1       -2 0.15277760E-01 0.80944016E+02</pdfrwt>
<totfact> 0.10316629E+05</totfact>
</mgrwt>
</event>
<event>
 8    1  0.7756875E-014  0.8310270E+02  0.7818608E-02  0.1320470E+00
         -2   -1    0    0    0  501 -0.00000000000E+00  0.00000000000E+00  0.34495129857E+02  0.34495129951E+02  0.25500000000E-02 0.  1.
          1   -1    0    0  501    0  0.00000000000E+00 -0.00000000000E+00 -0.50050974431E+02  0.50050974685E+02  0.50400000000E-02 0. -1.
        -24    2    1    2    0    0  0.00000000000E+00  0.00000000000E+00 -0.15555844574E+02  0.84546104637E+02  0.83102704582E+02 0.  0.
         66    2    3    3    0    0 -0.28068417528E+02 -0.25199442380E+02  0.98876722833E+01  0.39046306033E+02  0.19999982147E+01 0.  0.
         13    1    3    3    0    0  0.28068417528E+02  0.25199442380E+02 -0.25443516858E+02  0.45499798603E+02  0.10566000000E+00 0. -1.
         13    1    4    4    0    0 -0.42061382726E+01 -0.30156621342E+01  0.13810453388E+01  0.53576363761E+01  0.10566000000E+00 0. -1.
        -13    1    4    4    0    0 -0.93057297968E+01 -0.91145871338E+01  0.30330614757E+01  0.13374712394E+02  0.10566000000E+00 0.  1.
         14    1    4    4    0    0 -0.14556549459E+02 -0.13069193113E+02  0.54735654688E+01  0.20313957263E+02  0.00000000000E+00 0. -1.
<mgrwt>
<rscale>  0 0.83102705E+02</rscale>
<asrwt>0</asrwt>
<pdfrwt beam="1">  1        1 0.77001499E-02 0.83102705E+02</pdfrwt>
<pdfrwt beam="2">  1       -2 0.53069431E-02 0.83102705E+02</pdfrwt>
<totfact> 0.11833531E+05</totfact>
</mgrwt>
</event>
<event>
 8    1  0.7756875E-014  0.8026892E+02  0.7818608E-02  0.1328290E+00
          1   -1    0    0  501    0  0.00000000000E+00  0.00000000000E+00  0.36268219018E+02  0.36268219368E+02  0.50400000000E-02 0. -1.
         -2   -1    0    0    0  501 -0.00000000000E+00 -0.00000000000E+00 -0.44412844682E+02  0.44412844756E+02  0.25500000000E-02 0.  1.
        -24    2    1    2    0    0  0.00000000000E+00  0.35527136788E-14 -0.81446256642E+01  0.80681064124E+02  0.80268917901E+02 0.  0.
         66    2    3    3    0    0  0.13814574412E+02  0.24712733634E+02 -0.32632123243E+02  0.43248319480E+02  0.20000001518E+01 0.  0.
         13    1    3    3    0    0 -0.13814574412E+02 -0.24712733634E+02  0.24487497579E+02  0.37432744644E+02  0.10566000000E+00 0. -1.
         13    1    4    4    0    0  0.78196645640E+00  0.16827341908E+01 -0.27185106803E+01  0.32931034375E+01  0.10566000000E+00 0. -1.
        -13    1    4    4    0    0  0.10158155951E+02  0.16969979454E+02 -0.22560883497E+02  0.30002882581E+02  0.10566000000E+00 0.  1.
        -14    1    4    4    0    0  0.28744520048E+01  0.60600199898E+01 -0.73527290663E+01  0.99523334614E+01  0.00000000000E+00 0.  1.
<mgrwt>
<rscale>  0 0.80268918E+02</rscale>
<asrwt>0</asrwt>
<pdfrwt beam="1">  1        1 0.55797260E-02 0.80268918E+02</pdfrwt>
<pdfrwt beam="2">  1       -2 0.68327454E-02 0.80268918E+02</pdfrwt>
<totfact> 0.12376325E+05</totfact>
</mgrwt>
</event>
<event>
 8    1  0.7756875E-014  0.7933555E+02  0.7818608E-02  0.1330948E+00
          1   -1    0    0  501    0  0.00000000000E+00  0.00000000000E+00  0.17922462490E+02  0.17922463199E+02  0.50400000000E-02 0. -1.
         -2   -1    0    0    0  501 -0.00000000000E+00 -0.00000000000E+00 -0.87796667276E+02  0.87796667313E+02  0.25500000000E-02 0.  1.
        -24    2    1    2    0    0  0.00000000000E+00  0.00000000000E+00 -0.69874204786E+02  0.10571913051E+03  0.79335553580E+02 0.  0.
         66    2    3    3    0    0  0.59006246382E+01  0.10162915378E+02 -0.85410648465E+02  0.86238512803E+02  0.19999997830E+01 0.  0.
         13    1    3    3    0    0 -0.59006246382E+01 -0.10162915378E+02  0.15536443679E+02  0.19480617709E+02  0.10566000000E+00 0. -1.
         13    1    4    4    0    0  0.13634879841E+01  0.13476308349E+01 -0.14561817874E+02  0.14687849134E+02  0.10566000000E+00 0. -1.
        -13    1    4    4    0    0  0.16523692275E+01  0.33184727019E+01 -0.31030376884E+02  0.31251208597E+02  0.10566000000E+00 0.  1.
         14    1    4    4    0    0  0.28847674267E+01  0.54968118417E+01 -0.39818453707E+02  0.40299455072E+02  0.00000000000E+00 0. -1.
<mgrwt>
<rscale>  0 0.79335554E+02</rscale>
<asrwt>0</asrwt>
<pdfrwt beam="1">  1        1 0.27573020E-02 0.79335554E+02</pdfrwt>
<pdfrwt beam="2">  1       -2 0.13507179E-01 0.79335554E+02</pdfrwt>
<totfact> 0.11182851E+05</totfact>
</mgrwt>
</event>
<event>
 8    1  0.7756875E-014  0.7391859E+02  0.7818608E-02  0.1347253E+00
         -2   -1    0    0    0  501 -0.00000000000E+00  0.00000000000E+00  0.28997355535E+02  0.28997355648E+02  0.25500000000E-02 0.  1.
          1   -1    0    0  501    0  0.00000000000E+00 -0.00000000000E+00 -0.47107382617E+02  0.47107382886E+02  0.50400000000E-02 0. -1.
        -24    2    1    2    0    0  0.00000000000E+00 -0.88817841970E-15 -0.18110027081E+02  0.76104738534E+02  0.73918591345E+02 0.  0.
         66    2    3    3    0    0  0.36268681866E+02 -0.67572379702E+01 -0.10817081859E+02  0.38497880604E+02  0.20000004415E+01 0.  0.
         13    1    3    3    0    0 -0.36268681866E+02  0.67572379702E+01 -0.72929452220E+01  0.37606857930E+02  0.10566000000E+00 0. -1.
         13    1    4    4    0    0  0.55537548629E+01 -0.14855563429E+01 -0.17968089812E+01  0.60241810461E+01  0.10566000000E+00 0.  1.
        -13    1    4    4    0    0  0.43338470936E+01 -0.11842769331E+01 -0.10784483919E+01  0.46215752136E+01  0.10566000000E+00 0.  1.
         14    1    4    4    0    0  0.26381079910E+02 -0.40874046942E+01 -0.79418244863E+01  0.27852124345E+02  0.00000000000E+00 0. -1.
<mgrwt>
<rscale>  0 0.73918591E+02</rscale>
<asrwt>0</asrwt>
<pdfrwt beam="1">  1        1 0.72472897E-02 0.73918591E+02</pdfrwt>
<pdfrwt beam="2">  1       -2 0.44611316E-02 0.73918591E+02</pdfrwt>
<totfact> 0.16225165E+05</totfact>
</mgrwt>
</event>
<event>
 8    1  0.7756875E-014  0.7936413E+02  0.7818608E-02  0.1330866E+00
         -2   -1    0    0    0  501 -0.00000000000E+00  0.00000000000E+00  0.64837473153E+01  0.64837478167E+01  0.25500000000E-02 0.  1.
          1   -1    0    0  501    0  0.00000000000E+00 -0.00000000000E+00 -0.24286357338E+03  0.24286357343E+03  0.50400000000E-02 0. -1.
        -24    2    1    2    0    0  0.00000000000E+00 -0.35527136788E-14 -0.23637982606E+03  0.24934732125E+03  0.79364125671E+02 0.  0.
         66    2    3    3    0    0 -0.33775094702E+02  0.19807214124E+02 -0.13803034296E+03  0.14349027262E+03  0.20000013319E+01 0.  0.
         13    1    3    3    0    0  0.33775094702E+02 -0.19807214124E+02 -0.98349483100E+02  0.10585704862E+03  0.10566000000E+00 0. -1.
         13    1    4    4    0    0 -0.26820478916E+01  0.12521246673E+01 -0.93894978064E+01  0.98455589058E+01  0.10566000000E+00 0. -1.
        -13    1    4    4    0    0 -0.22573172213E+02  0.12860041184E+02 -0.92179687945E+02  0.95770740817E+02  0.10566000000E+00 0.  1.
        -14    1    4    4    0    0 -0.85198745967E+01  0.56950482727E+01 -0.36461157210E+02  0.37873972898E+02  0.00000000000E+00 0.  1.
<mgrwt>
<rscale>  0 0.79364126E+02</rscale>
<asrwt>0</asrwt>
<pdfrwt beam="1">  1        1 0.37363620E-01 0.79364126E+02</pdfrwt>
<pdfrwt beam="2">  1       -2 0.99749982E-03 0.79364126E+02</pdfrwt>
<totfact> 0.17686588E+05</totfact>
</mgrwt>
</event>
<event>
 8    1  0.7756875E-014  0.7641503E+02  0.7818608E-02  0.1339544E+00
         -2   -1    0    0    0  501 -0.00000000000E+00  0.00000000000E+00  0.13494142737E+02  0.13494142978E+02  0.25500000000E-02 0.  1.
          1   -1    0    0  501    0  0.00000000000E+00 -0.00000000000E+00 -0.10818132217E+03  0.10818132229E+03  0.50400000000E-02 0. -1.
        -24    2    1    2    0    0 -0.35527136788E-14  0.71054273576E-14 -0.94687179437E+02  0.12167546527E+03  0.76415030583E+02 0.  0.
         66    2    3    3    0    0 -0.20425658342E+02  0.30500125848E+02 -0.30649670418E+02  0.47863007508E+02  0.19999988801E+01 0.  0.
         13    1    3    3    0    0  0.20425658342E+02 -0.30500125848E+02 -0.64037509019E+02  0.73812457762E+02  0.10566000000E+00 0. -1.
         13    1    4    4    0    0 -0.42379974386E+01  0.56735690128E+01 -0.64048131290E+01  0.95489686818E+01  0.10566000000E+00 0.  1.
        -13    1    4    4    0    0 -0.37707697130E+00  0.46008475855E+00 -0.68977020816E+00  0.91695801594E+00  0.10566000000E+00 0.  1.
        -14    1    4    4    0    0 -0.15810583932E+02  0.24366472077E+02 -0.23555087081E+02  0.37397080810E+02  0.00000000000E+00 0.  1.
<mgrwt>
<rscale>  0 0.76415031E+02</rscale>
<asrwt>0</asrwt>
<pdfrwt beam="1">  1        1 0.16643280E-01 0.76415031E+02</pdfrwt>
<pdfrwt beam="2">  1       -2 0.20760221E-02 0.76415031E+02</pdfrwt>
<totfact> 0.16850365E+05</totfact>
</mgrwt>
</event>
<event>
 8    1  0.7756875E-014  0.8378840E+02  0.7818608E-02  0.1318632E+00
         -2   -1    0    0    0  501 -0.00000000000E+00  0.00000000000E+00  0.51989932931E+03  0.51989932932E+03  0.25500000000E-02 0.  1.
          1   -1    0    0  501    0  0.00000000000E+00 -0.00000000000E+00 -0.33758903591E+01  0.33758941214E+01  0.50400000000E-02 0. -1.
        -24    2    1    2    0    0 -0.35527136788E-14  0.00000000000E+00  0.51652343896E+03  0.52327522344E+03  0.83788403005E+02 0.  0.
         66    2    3    3    0    0 -0.21309790191E+02 -0.10828881981E+02  0.47309684700E+03  0.47370454768E+03  0.20000011720E+01 0.  0.
         13    1    3    3    0    0  0.21309790191E+02  0.10828881981E+02  0.43426591952E+02  0.49570675762E+02  0.10566000000E+00 0. -1.
         13    1    4    4    0    0 -0.38771312347E+01 -0.23795182792E+01  0.89530199362E+02  0.89645758492E+02  0.10566000000E+00 0. -1.
        -13    1    4    4    0    0 -0.64391701610E+01 -0.39534508801E+01  0.14611054367E+03  0.14630582635E+03  0.10566000000E+00 0.  1.
        -14    1    4    4    0    0 -0.10993488796E+02 -0.44959128216E+01  0.23745610397E+03  0.23775296284E+03  0.00000000000E+00 0.  1.
<mgrwt>
<rscale>  0 0.83788403E+02</rscale>
<asrwt>0</asrwt>
<pdfrwt beam="1">  1        1 0.51936824E-03 0.83788403E+02</pdfrwt>
<pdfrwt beam="2">  1       -2 0.79984481E-01 0.83788403E+02</pdfrwt>
<totfact> 0.43367223E+04</totfact>
</mgrwt>
</event>
<event>
 8    1  0.7756875E-014  0.8096004E+02  0.7818608E-02  0.1326349E+00
         -2   -1    0    0    0  501 -0.00000000000E+00  0.00000000000E+00  0.10295597186E+02  0.10295597501E+02  0.25500000000E-02 0.  1.
          1   -1    0    0  501    0  0.00000000000E+00 -0.00000000000E+00 -0.15915852546E+03  0.15915852554E+03  0.50400000000E-02 0. -1.
        -24    2    1    2    0    0  0.17763568394E-14  0.00000000000E+00 -0.14886292827E+03  0.16945412304E+03  0.80960042003E+02 0.  0.
         66    2    3    3    0    0 -0.11584433520E+02  0.38217661863E+02 -0.88015201112E+02  0.96671942233E+02  0.20000025204E+01 0.  0.
         13    1    3    3    0    0  0.11584433520E+02 -0.38217661863E+02 -0.60847727161E+02  0.72782180807E+02  0.10566000000E+00 0. -1.
         13    1    4    4    0    0 -0.81809377382E+01  0.23889469149E+02 -0.56063613982E+02  0.61488002531E+02  0.10566000000E+00 0.  1.
        -13    1    4    4    0    0 -0.10455081944E+01  0.48674493296E+01 -0.11028399924E+02  0.12100492522E+02  0.10566000000E+00 0. -1.
        -14    1    4    4    0    0 -0.23579875873E+01  0.94607433849E+01 -0.20923187206E+02  0.23083447180E+02  0.00000000000E+00 0.  1.
<mgrwt>
<rscale>  0 0.80960042E+02</rscale>
<asrwt>0</asrwt>
<pdfrwt beam="1">  1        1 0.24485925E-01 0.80960042E+02</pdfrwt>
<pdfrwt beam="2">  1       -2 0.15839382E-02 0.80960042E+02</pdfrwt>
<totfact> 0.15462613E+05</totfact>
</mgrwt>
</event>
<event>
 8    1  0.7756875E-014  0.7814568E+02  0.7818608E-02  0.1334398E+00
          1   -1    0    0  501    0  0.00000000000E+00  0.00000000000E+00  0.46125207574E+02  0.46125207849E+02  0.50400000000E-02 0. -1.
         -2   -1    0    0    0  501 -0.00000000000E+00 -0.00000000000E+00 -0.33098754160E+02  0.33098754259E+02  0.25500000000E-02 0.  1.
        -24    2    1    2    0    0  0.00000000000E+00  0.00000000000E+00  0.13026453413E+02  0.79223962108E+02  0.78145682437E+02 0.  0.
         66    2    3    3    0    0 -0.27385570041E+02 -0.80534587063E+01 -0.20493241088E+02  0.35196598717E+02  0.19999968441E+01 0.  0.
         13    1    3    3    0    0  0.27385570041E+02  0.80534587063E+01  0.33519694501E+02  0.44027363390E+02  0.10566000000E+00 0. -1.
         13    1    4    4    0    0 -0.22829455523E+01 -0.85917377505E+00 -0.13636143547E+01  0.27965385951E+01  0.10566000000E+00 0. -1.
        -13    1    4    4    0    0 -0.20695937859E+02 -0.60592445788E+01 -0.15148212628E+02  0.26353667649E+02  0.10566000000E+00 0.  1.
         14    1    4    4    0    0 -0.44066866301E+01 -0.11350403524E+01 -0.39814141054E+01  0.60463924728E+01  0.00000000000E+00 0. -1.
<mgrwt>
<rscale>  0 0.78145682E+02</rscale>
<asrwt>0</asrwt>
<pdfrwt beam="1">  1        1 0.70961858E-02 0.78145682E+02</pdfrwt>
<pdfrwt beam="2">  1       -2 0.50921160E-02 0.78145682E+02</pdfrwt>
<totfact> 0.13868439E+05</totfact>
</mgrwt>
</event>
<event>
 8    1  0.7932708E-014  0.7943492E+02  0.7818608E-02  0.1330663E+00
         -2   -1    0    0    0  501 -0.00000000000E+00  0.00000000000E+00  0.13504768839E+03  0.13504768841E+03  0.25500000000E-02 0.  1.
          1   -1    0    0  501    0  0.00000000000E+00 -0.00000000000E+00 -0.11680885556E+02  0.11680886643E+02  0.50400000000E-02 0. -1.
        -24    2    1    2    0    0  0.00000000000E+00  0.00000000000E+00  0.12336680283E+03  0.14672857505E+03  0.79434921140E+02 0.  0.
         66    2    3    3    0    0  0.14936361754E+02 -0.64330600548E+01  0.12860348518E+03  0.12964310842E+03  0.19999986937E+01 0.  0.
         13    1    3    3    0    0 -0.14936361754E+02  0.64330600548E+01 -0.52366823516E+01  0.17085466637E+02  0.10566000000E+00 0. -1.
         13    1    4    4    0    0  0.81693860838E+01 -0.41307752625E+01  0.67861309860E+02  0.68476059417E+02  0.10566000000E+00 0. -1.
        -13    1    4    4    0    0  0.52054539251E+01 -0.21288938081E+01  0.47082664522E+02  0.47417479920E+02  0.10566000000E+00 0.  1.
         14    1    4    4    0    0  0.15615217450E+01 -0.17339098423E+00  0.13659510800E+02  0.13749569080E+02  0.00000000000E+00 0. -1.
<mgrwt>
<rscale>  0 0.79434921E+02</rscale>
<asrwt>0</asrwt>
<pdfrwt beam="1">  1        1 0.17970594E-02 0.79434921E+02</pdfrwt>
<pdfrwt beam="2">  1       -2 0.20776568E-01 0.79434921E+02</pdfrwt>
<totfact> 0.99502564E+04</totfact>
</mgrwt>
</event>
<event>
 8    1  0.7756875E-014  0.7072408E+02  0.7818608E-02  0.1357648E+00
         -2   -1    0    0    0  501 -0.00000000000E+00  0.00000000000E+00  0.17662753423E+01  0.17662771831E+01  0.25500000000E-02 0.  1.
          1   -1    0    0  501    0  0.00000000000E+00 -0.00000000000E+00 -0.70797187402E+03  0.70797187404E+03  0.50400000000E-02 0. -1.
        -24    2    1    2    0    0  0.35527136788E-14  0.17763568394E-14 -0.70620559868E+03  0.70973815122E+03  0.70724081436E+02 0.  0.
         66    2    3    3    0    0 -0.26863879018E+02 -0.11727371601E+02 -0.55138030867E+03  0.55216251595E+03  0.19999981402E+01 0.  0.
         13    1    3    3    0    0  0.26863879018E+02  0.11727371601E+02 -0.15482529001E+03  0.15757563527E+03  0.10566000000E+00 0. -1.
         13    1    4    4    0    0 -0.51938836059E+01 -0.16537505651E+01 -0.10922123620E+03  0.10935721704E+03  0.10566000000E+00 0. -1.
        -13    1    4    4    0    0 -0.18147704000E+02 -0.85257721878E+01 -0.36484609554E+03  0.36539665098E+03  0.10566000000E+00 0.  1.
        -14    1    4    4    0    0 -0.35222914118E+01 -0.15478488480E+01 -0.77312976929E+02  0.77408647931E+02  0.00000000000E+00 0.  1.
<mgrwt>
<rscale>  0 0.70724081E+02</rscale>
<asrwt>0</asrwt>
<pdfrwt beam="1">  1        1 0.10891852E+00 0.70724081E+02</pdfrwt>
<pdfrwt beam="2">  1       -2 0.27173537E-03 0.70724081E+02</pdfrwt>
<totfact> 0.27567964E+05</totfact>
</mgrwt>
</event>
<event>
 8    1  0.7756875E-014  0.7852940E+02  0.7818608E-02  0.1333277E+00
         -2   -1    0    0    0  501 -0.00000000000E+00  0.00000000000E+00  0.55027240454E+01  0.55027246362E+01  0.25500000000E-02 0.  1.
          1   -1    0    0  501    0  0.00000000000E+00 -0.00000000000E+00 -0.28017330480E+03  0.28017330485E+03  0.50400000000E-02 0. -1.
        -24    2    1    2    0    0 -0.17763568394E-14 -0.71054273576E-14 -0.27467058076E+03  0.28567602949E+03  0.78529395059E+02 0.  0.
         66    2    3    3    0    0  0.12972110750E+02  0.34370312596E+02 -0.87264692163E+02  0.94703329108E+02  0.20000001267E+01 0.  0.
         13    1    3    3    0    0 -0.12972110750E+02 -0.34370312596E+02 -0.18740588859E+03  0.19097270038E+03  0.10566000000E+00 0. -1.
         13    1    4    4    0    0  0.20469884420E+01  0.51325527765E+01 -0.14729215630E+02  0.15731948919E+02  0.10566000000E+00 0. -1.
        -13    1    4    4    0    0  0.92750176634E+01  0.25670311368E+02 -0.63192035456E+02  0.68834841087E+02  0.10566000000E+00 0.  1.
        -14    1    4    4    0    0  0.16501046451E+01  0.35674484514E+01 -0.93434410774E+01  0.10136539102E+02  0.00000000000E+00 0.  1.
<mgrwt>
<rscale>  0 0.78529395E+02</rscale>
<asrwt>0</asrwt>
<pdfrwt beam="1">  1        1 0.43103574E-01 0.78529395E+02</pdfrwt>
<pdfrwt beam="2">  1       -2 0.84657319E-03 0.78529395E+02</pdfrwt>
<totfact> 0.18698905E+05</totfact>
</mgrwt>
</event>
<event>
 8    1  0.7756875E-014  0.7532511E+02  0.7818608E-02  0.1342867E+00
          1   -1    0    0  501    0  0.00000000000E+00  0.00000000000E+00  0.86566972989E+02  0.86566973136E+02  0.50400000000E-02 0. -1.
         -2   -1    0    0    0  501 -0.00000000000E+00 -0.00000000000E+00 -0.16385787487E+02  0.16385787686E+02  0.25500000000E-02 0.  1.
        -24    2    1    2    0    0  0.00000000000E+00  0.00000000000E+00  0.70181185501E+02  0.10295276082E+03  0.75325109773E+02 0.  0.
         66    2    3    3    0    0  0.32592506021E+02 -0.18767144170E+02  0.33189124254E+02  0.50199553257E+02  0.20000073361E+01 0.  0.
         13    1    3    3    0    0 -0.32592506021E+02  0.18767144170E+02  0.36992061247E+02  0.52753207565E+02  0.10566000000E+00 0. -1.
         13    1    4    4    0    0  0.99295136489E+01 -0.55010581299E+01  0.11060555345E+02  0.15849414198E+02  0.10566000000E+00 0. -1.
        -13    1    4    4    0    0  0.16677693776E+02 -0.94351749266E+01  0.16424042430E+02  0.25237439041E+02  0.10566000000E+00 0.  1.
         14    1    4    4    0    0  0.59852985963E+01 -0.38309111140E+01  0.57045264789E+01  0.91127000169E+01  0.00000000000E+00 0. -1.
<mgrwt>
<rscale>  0 0.75325110E+02</rscale>
<asrwt>0</asrwt>
<pdfrwt beam="1">  1        1 0.13317996E-01 0.75325110E+02</pdfrwt>
<pdfrwt beam="2">  1       -2 0.25208904E-02 0.75325110E+02</pdfrwt>
<totfact> 0.16889970E+05</totfact>
</mgrwt>
</event>
<event>
 8    1  0.7756875E-014  0.7933815E+02  0.7818608E-02  0.1330940E+00
          1   -1    0    0  501    0  0.00000000000E+00  0.00000000000E+00  0.92809604478E+02  0.92809604615E+02  0.50400000000E-02 0. -1.
         -2   -1    0    0    0  501 -0.00000000000E+00 -0.00000000000E+00 -0.16955526264E+02  0.16955526456E+02  0.25500000000E-02 0.  1.
        -24    2    1    2    0    0 -0.17763568394E-14 -0.22204460493E-15  0.75854078213E+02  0.10976513107E+03  0.79338154865E+02 0.  0.
         66    2    3    3    0    0  0.15543483474E+02  0.15067997182E+01 -0.12461882816E+02  0.20079064926E+02  0.20000002799E+01 0.  0.
         13    1    3    3    0    0 -0.15543483474E+02 -0.15067997182E+01  0.88315961029E+02  0.89686066144E+02  0.10566000000E+00 0. -1.
         13    1    4    4    0    0  0.83120402429E+00  0.43363625916E+00 -0.46561428469E+00  0.10520937377E+01  0.10566000000E+00 0. -1.
        -13    1    4    4    0    0  0.11090037465E+02  0.54924500798E+00 -0.88142788658E+01  0.14177209775E+02  0.10566000000E+00 0.  1.
         14    1    4    4    0    0  0.36222419842E+01  0.52391845107E+00 -0.31819896655E+01  0.48497614134E+01  0.00000000000E+00 0. -1.
<mgrwt>
<rscale>  0 0.79338155E+02</rscale>
<asrwt>0</asrwt>
<pdfrwt beam="1">  1        1 0.14278401E-01 0.79338155E+02</pdfrwt>
<pdfrwt beam="2">  1       -2 0.26085425E-02 0.79338155E+02</pdfrwt>
<totfact> 0.14847466E+05</totfact>
</mgrwt>
</event>
<event>
 8    1  0.7756875E-014  0.7693456E+02  0.7818608E-02  0.1337983E+00
          1   -1    0    0  501    0  0.00000000000E+00  0.00000000000E+00  0.13574196442E+03  0.13574196452E+03  0.50400000000E-02 0. -1.
         -2   -1    0    0    0  501 -0.00000000000E+00 -0.00000000000E+00 -0.10901063105E+02  0.10901063404E+02  0.25500000000E-02 0.  1.
        -24    2    1    2    0    0  0.00000000000E+00 -0.35527136788E-14  0.12484090132E+03  0.14664302792E+03  0.76934563077E+02 0.  0.
         66    2    3    3    0    0  0.23767410790E+02 -0.22909142182E+02  0.24916799757E+02  0.41407312273E+02  0.19999970783E+01 0.  0.
         13    1    3    3    0    0 -0.23767410790E+02  0.22909142182E+02  0.99924101559E+02  0.10523571565E+03  0.10566000000E+00 0. -1.
         13    1    4    4    0    0  0.87625272415E+00 -0.13656735039E+01  0.13420584179E+01  0.21083566559E+01  0.10566000000E+00 0. -1.
        -13    1    4    4    0    0  0.18221033716E+02 -0.16797747445E+02  0.18413222594E+02  0.30874395851E+02  0.10566000000E+00 0.  1.
         14    1    4    4    0    0  0.46701243502E+01 -0.47457212338E+01  0.51615187459E+01  0.84245597654E+01  0.00000000000E+00 0. -1.
<mgrwt>
<rscale>  0 0.76934563E+02</rscale>
<asrwt>0</asrwt>
<pdfrwt beam="1">  1        1 0.20883378E-01 0.76934563E+02</pdfrwt>
<pdfrwt beam="2">  1       -2 0.16770868E-02 0.76934563E+02</pdfrwt>
<totfact> 0.17209369E+05</totfact>
</mgrwt>
</event>
<event>
 8    1  0.7756875E-014  0.7914362E+02  0.7818608E-02  0.1331499E+00
          1   -1    0    0  501    0  0.00000000000E+00  0.00000000000E+00  0.51480041280E+01  0.51480065951E+01  0.50400000000E-02 0. -1.
         -2   -1    0    0    0  501 -0.00000000000E+00 -0.00000000000E+00 -0.30418156044E+03  0.30418156045E+03  0.25500000000E-02 0.  1.
        -24    2    1    2    0    0  0.00000000000E+00  0.00000000000E+00 -0.29903355631E+03  0.30932956704E+03  0.79143624178E+02 0.  0.
         66    2    3    3    0    0  0.31561196460E+02  0.87590337250E+01 -0.23622589890E+03  0.23849424543E+03  0.20000003769E+01 0.  0.
         13    1    3    3    0    0 -0.31561196460E+02 -0.87590337250E+01 -0.62807657410E+02  0.70835321607E+02  0.10566000000E+00 0. -1.
         13    1    4    4    0    0  0.77037522920E+00  0.13763481494E+00 -0.73148334834E+01  0.73573347254E+01  0.10566000000E+00 0.  1.
        -13    1    4    4    0    0  0.92598177543E+01  0.29836709841E+01 -0.66538545824E+02  0.67246083617E+02  0.10566000000E+00 0.  1.
        -14    1    4    4    0    0  0.21531003477E+02  0.56377279260E+01 -0.16237251959E+03  0.16389082709E+03  0.00000000000E+00 0.  1.
<mgrwt>
<rscale>  0 0.79143624E+02</rscale>
<asrwt>0</asrwt>
<pdfrwt beam="1">  1        1 0.79200107E-03 0.79143624E+02</pdfrwt>
<pdfrwt beam="2">  1       -2 0.46797149E-01 0.79143624E+02</pdfrwt>
<totfact> 0.71705841E+04</totfact>
</mgrwt>
</event>
<event>
 8    1  0.7756875E-014  0.8573474E+02  0.7818608E-02  0.1313522E+00
          1   -1    0    0  501    0  0.00000000000E+00  0.00000000000E+00  0.37104093881E+02  0.37104094224E+02  0.50400000000E-02 0. -1.
         -2   -1    0    0    0  501 -0.00000000000E+00 -0.00000000000E+00 -0.49525840260E+02  0.49525840326E+02  0.25500000000E-02 0.  1.
        -24    2    1    2    0    0  0.71054273576E-14  0.88817841970E-15 -0.12421746379E+02  0.86629934549E+02  0.85734740782E+02 0.  0.
         66    2    3    3    0    0  0.27705623653E+02  0.52336198556E+01 -0.38809619147E+02  0.48012278587E+02  0.19999994931E+01 0.  0.
         13    1    3    3    0    0 -0.27705623653E+02 -0.52336198556E+01  0.26387872768E+02  0.38617655963E+02  0.10566000000E+00 0. -1.
         13    1    4    4    0    0  0.11846533715E+02  0.20432958052E+01 -0.17689064360E+02  0.21387603437E+02  0.10566000000E+00 0. -1.
        -13    1    4    4    0    0  0.13855075771E+02  0.27888548995E+01 -0.18991499107E+02  0.23673382492E+02  0.10566000000E+00 0.  1.
         14    1    4    4    0    0  0.20040141677E+01  0.40146915080E+00 -0.21290556802E+01  0.29512926579E+01  0.00000000000E+00 0. -1.
<mgrwt>
<rscale>  0 0.85734741E+02</rscale>
<asrwt>0</asrwt>
<pdfrwt beam="1">  1        1 0.57083222E-02 0.85734741E+02</pdfrwt>
<pdfrwt beam="2">  1       -2 0.76193600E-02 0.85734741E+02</pdfrwt>
<totfact> 0.10295484E+05</totfact>
</mgrwt>
</event>
<event>
 8    1  0.7756875E-014  0.8250474E+02  0.7818608E-02  0.1322090E+00
         -2   -1    0    0    0  501 -0.00000000000E+00  0.00000000000E+00  0.13703871057E+02  0.13703871294E+02  0.25500000000E-02 0.  1.
          1   -1    0    0  501    0  0.00000000000E+00 -0.00000000000E+00 -0.12418082463E+03  0.12418082473E+03  0.50400000000E-02 0. -1.
        -24    2    1    2    0    0 -0.35527136788E-14  0.00000000000E+00 -0.11047695357E+03  0.13788469602E+03  0.82504740028E+02 0.  0.
         66    2    3    3    0    0  0.27119148364E+02 -0.30802241359E+02 -0.48685516544E+02  0.63706403143E+02  0.19999998699E+01 0.  0.
         13    1    3    3    0    0 -0.27119148364E+02  0.30802241359E+02 -0.61791437025E+02  0.74178292878E+02  0.10566000000E+00 0. -1.
         13    1    4    4    0    0  0.70134354094E+01 -0.86606617547E+01 -0.12223133756E+02  0.16541206157E+02  0.10566000000E+00 0. -1.
        -13    1    4    4    0    0  0.12237978409E+02 -0.13082369792E+02 -0.21449784202E+02  0.27946751533E+02  0.10566000000E+00 0.  1.
         14    1    4    4    0    0  0.78677345456E+01 -0.90592098127E+01 -0.15012598586E+02  0.19218445453E+02  0.00000000000E+00 0. -1.
<mgrwt>
<rscale>  0 0.82504740E+02</rscale>
<asrwt>0</asrwt>
<pdfrwt beam="1">  1        1 0.19104742E-01 0.82504740E+02</pdfrwt>
<pdfrwt beam="2">  1       -2 0.21082880E-02 0.82504740E+02</pdfrwt>
<totfact> 0.14043673E+05</totfact>
</mgrwt>
</event>
<event>
 8    1  0.7756875E-014  0.7687537E+02  0.7818608E-02  0.1338160E+00
         -2   -1    0    0    0  501 -0.00000000000E+00  0.00000000000E+00  0.84389656874E+01  0.84389660726E+01  0.25500000000E-02 0.  1.
          1   -1    0    0  501    0  0.00000000000E+00 -0.00000000000E+00 -0.17507541201E+03  0.17507541208E+03  0.50400000000E-02 0. -1.
        -24    2    1    2    0    0 -0.35527136788E-14  0.00000000000E+00 -0.16663644632E+03  0.18351437815E+03  0.76875365017E+02 0.  0.
         66    2    3    3    0    0  0.18799908924E+02 -0.32728918330E+02 -0.66354797941E+02  0.76364768558E+02  0.19999991408E+01 0.  0.
         13    1    3    3    0    0 -0.18799908924E+02  0.32728918330E+02 -0.10028164838E+03  0.10714960959E+03  0.10566000000E+00 0. -1.
         13    1    4    4    0    0  0.65216222550E+01 -0.99112310121E+01 -0.21039612044E+02  0.24154512953E+02  0.10566000000E+00 0. -1.
        -13    1    4    4    0    0  0.71321488611E+01 -0.14291289585E+02 -0.27863261623E+02  0.32116678186E+02  0.10566000000E+00 0.  1.
        -14    1    4    4    0    0  0.51461378077E+01 -0.85263977323E+01 -0.17451924274E+02  0.20093577419E+02  0.00000000000E+00 0.  1.
<mgrwt>
<rscale>  0 0.76875365E+02</rscale>
<asrwt>0</asrwt>
<pdfrwt beam="1">  1        1 0.26934676E-01 0.76875365E+02</pdfrwt>
<pdfrwt beam="2">  1       -2 0.12983026E-02 0.76875365E+02</pdfrwt>
<totfact> 0.18066424E+05</totfact>
</mgrwt>
</event>
<event>
 8    1  0.7756875E-014  0.7952224E+02  0.7818608E-02  0.1330413E+00
          1   -1    0    0  501    0  0.00000000000E+00  0.00000000000E+00  0.19591587666E+02  0.19591588314E+02  0.50400000000E-02 0. -1.
         -2   -1    0    0    0  501 -0.00000000000E+00 -0.00000000000E+00 -0.80695178659E+02  0.80695178700E+02  0.25500000000E-02 0.  1.
        -24    2    1    2    0    0  0.00000000000E+00  0.00000000000E+00 -0.61103590994E+02  0.10028676701E+03  0.79522240950E+02 0.  0.
         66    2    3    3    0    0  0.10823932181E+02  0.37726603970E+02 -0.38394825236E+02  0.54941939732E+02  0.19999954300E+01 0.  0.
         13    1    3    3    0    0 -0.10823932181E+02 -0.37726603970E+02 -0.22708765758E+02  0.45344827282E+02  0.10566000000E+00 0. -1.
         13    1    4    4    0    0  0.87051084057E+00  0.22746719886E+01 -0.22922905134E+01  0.33462937129E+01  0.10566000000E+00 0. -1.
        -13    1    4    4    0    0  0.90718439216E+01  0.31474886374E+02 -0.32748805867E+02  0.46319135076E+02  0.10566000000E+00 0.  1.
        -14    1    4    4    0    0  0.88157741838E+00  0.39770456064E+01 -0.33537288548E+01  0.52765109430E+01  0.00000000000E+00 0.  1.
<mgrwt>
<rscale>  0 0.79522241E+02</rscale>
<asrwt>0</asrwt>
<pdfrwt beam="1">  1        1 0.30140905E-02 0.79522241E+02</pdfrwt>
<pdfrwt beam="2">  1       -2 0.12414643E-01 0.79522241E+02</pdfrwt>
<totfact> 0.11326693E+05</totfact>
</mgrwt>
</event>
<event>
 8    1  0.7756875E-014  0.7588159E+02  0.7818608E-02  0.1341163E+00
         -2   -1    0    0    0  501 -0.00000000000E+00  0.00000000000E+00  0.97288612963E+01  0.97288616305E+01  0.25500000000E-02 0.  1.
          1   -1    0    0  501    0  0.00000000000E+00 -0.00000000000E+00 -0.14796223666E+03  0.14796223675E+03  0.50400000000E-02 0. -1.
        -24    2    1    2    0    0 -0.71054273576E-14  0.00000000000E+00 -0.13823337537E+03  0.15769109838E+03  0.75881594888E+02 0.  0.
         66    2    3    3    0    0 -0.37381516196E+02  0.88234198017E+00 -0.56129775429E+02  0.67473757656E+02  0.20000005061E+01 0.  0.
         13    1    3    3    0    0  0.37381516196E+02 -0.88234198017E+00 -0.82103599937E+02  0.90217340723E+02  0.10566000000E+00 0. -1.
         13    1    4    4    0    0 -0.44864863978E+01 -0.15916970251E+00 -0.59771001939E+01  0.74760140420E+01  0.10566000000E+00 0. -1.
        -13    1    4    4    0    0 -0.12788593661E+02  0.27538286834E+00 -0.18537174159E+02  0.22522476627E+02  0.10566000000E+00 0.  1.
        -14    1    4    4    0    0 -0.20106436137E+02  0.76612881434E+00 -0.31615501076E+02  0.37475266987E+02  0.00000000000E+00 0.  1.
<mgrwt>
<rscale>  0 0.75881595E+02</rscale>
<asrwt>0</asrwt>
<pdfrwt beam="1">  1        1 0.22763420E-01 0.75881595E+02</pdfrwt>
<pdfrwt beam="2">  1       -2 0.14967480E-02 0.75881595E+02</pdfrwt>
<totfact> 0.18130405E+05</totfact>
</mgrwt>
</event>
<event>
 8    1  0.7756875E-014  0.7979741E+02  0.7818608E-02  0.1329627E+00
          1   -1    0    0  501    0  0.00000000000E+00  0.00000000000E+00  0.33167303937E+01  0.33167342231E+01  0.50400000000E-02 0. -1.
         -2   -1    0    0    0  501 -0.00000000000E+00 -0.00000000000E+00 -0.47996230417E+03  0.47996230418E+03  0.25500000000E-02 0.  1.
        -24    2    1    2    0    0  0.00000000000E+00 -0.35527136788E-14 -0.47664557378E+03  0.48327903840E+03  0.79797405698E+02 0.  0.
         66    2    3    3    0    0  0.32190478539E+02  0.18735264145E+02 -0.32469009414E+03  0.32682547984E+03  0.20000018982E+01 0.  0.
         13    1    3    3    0    0 -0.32190478539E+02 -0.18735264145E+02 -0.15195547964E+03  0.15645355857E+03  0.10566000000E+00 0. -1.
         13    1    4    4    0    0  0.65182071235E+01  0.43759624285E+01 -0.67970815754E+02  0.68422796125E+02  0.10566000000E+00 0. -1.
        -13    1    4    4    0    0  0.17634065488E+02  0.10146373653E+02 -0.17230805271E+03  0.17350500096E+03  0.10566000000E+00 0.  1.
         14    1    4    4    0    0  0.80382059278E+01  0.42129280630E+01 -0.84411225672E+02  0.84897682753E+02  0.00000000000E+00 0. -1.
<mgrwt>
<rscale>  0 0.79797406E+02</rscale>
<asrwt>0</asrwt>
<pdfrwt beam="1">  1        1 0.51026689E-03 0.79797406E+02</pdfrwt>
<pdfrwt beam="2">  1       -2 0.73840299E-01 0.79797406E+02</pdfrwt>
<totfact> 0.52314382E+04</totfact>
</mgrwt>
</event>
<event>
 8    1  0.7756875E-014  0.8051172E+02  0.7818608E-02  0.1327605E+00
          1   -1    0    0  501    0  0.00000000000E+00  0.00000000000E+00  0.38824829516E+02  0.38824829843E+02  0.50400000000E-02 0. -1.
         -2   -1    0    0    0  501 -0.00000000000E+00 -0.00000000000E+00 -0.41739633919E+02  0.41739633997E+02  0.25500000000E-02 0.  1.
        -24    2    1    2    0    0  0.00000000000E+00  0.00000000000E+00 -0.29148044030E+01  0.80564463841E+02  0.80511718086E+02 0.  0.
         66    2    3    3    0    0 -0.21889857485E+02 -0.28512551963E+02 -0.19536615955E+02  0.40961089446E+02  0.20000013768E+01 0.  0.
         13    1    3    3    0    0  0.21889857485E+02  0.28512551963E+02  0.16621811552E+02  0.39603374395E+02  0.10566000000E+00 0. -1.
         13    1    4    4    0    0 -0.89760589720E+00 -0.69322088754E+00 -0.75148635057E+00  0.13646051870E+01  0.10566000000E+00 0. -1.
        -13    1    4    4    0    0 -0.92178141759E+01 -0.12673806416E+02 -0.86040603002E+01  0.17878324444E+02  0.10566000000E+00 0.  1.
         14    1    4    4    0    0 -0.11774437412E+02 -0.15145524659E+02 -0.10181069304E+02  0.21718159815E+02  0.00000000000E+00 0. -1.
<mgrwt>
<rscale>  0 0.80511718E+02</rscale>
<asrwt>0</asrwt>
<pdfrwt beam="1">  1        1 0.59730508E-02 0.80511718E+02</pdfrwt>
<pdfrwt beam="2">  1       -2 0.64214821E-02 0.80511718E+02</pdfrwt>
<totfact> 0.12410408E+05</totfact>
</mgrwt>
</event>
<event>
 8    1  0.7756875E-014  0.7929370E+02  0.7818608E-02  0.1331068E+00
          1   -1    0    0  501    0  0.00000000000E+00  0.00000000000E+00  0.19651487393E+03  0.19651487400E+03  0.50400000000E-02 0. -1.
         -2   -1    0    0    0  501 -0.00000000000E+00 -0.00000000000E+00 -0.79987474594E+01  0.79987478658E+01  0.25500000000E-02 0.  1.
        -24    2    1    2    0    0 -0.17763568394E-14  0.35527136788E-14  0.18851612648E+03  0.20451362187E+03  0.79293704587E+02 0.  0.
         66    2    3    3    0    0  0.12381035498E+02  0.25511349175E+02  0.22946046236E+02  0.36532725299E+02  0.20000007842E+01 0.  0.
         13    1    3    3    0    0 -0.12381035498E+02 -0.25511349175E+02  0.16557008024E+03  0.16798089657E+03  0.10566000000E+00 0. -1.
         13    1    4    4    0    0  0.29721629694E+01  0.48267710132E+01  0.43689944571E+01  0.71575657687E+01  0.10566000000E+00 0.  1.
        -13    1    4    4    0    0  0.28925079081E+01  0.76854131865E+01  0.65350972748E+01  0.10495276951E+02  0.10566000000E+00 0.  1.
         14    1    4    4    0    0  0.65163646205E+01  0.12999164976E+02  0.12041954504E+02  0.18879882579E+02  0.00000000000E+00 0. -1.
<mgrwt>
<rscale>  0 0.79293705E+02</rscale>
<asrwt>0</asrwt>
<pdfrwt beam="1">  1        1 0.30233056E-01 0.79293705E+02</pdfrwt>
<pdfrwt beam="2">  1       -2 0.12305766E-02 0.79293705E+02</pdfrwt>
<totfact> 0.17013009E+05</totfact>
</mgrwt>
</event>
<event>
 8    1  0.7756875E-014  0.8007378E+02  0.7818608E-02  0.1328842E+00
         -2   -1    0    0    0  501 -0.00000000000E+00  0.00000000000E+00  0.12250039274E+02  0.12250039539E+02  0.25500000000E-02 0.  1.
          1   -1    0    0  501    0  0.00000000000E+00 -0.00000000000E+00 -0.13085285456E+03  0.13085285465E+03  0.50400000000E-02 0. -1.
        -24    2    1    2    0    0  0.00000000000E+00 -0.35527136788E-14 -0.11860281528E+03  0.14310289419E+03  0.80073781811E+02 0.  0.
         66    2    3    3    0    0  0.31520382333E+02 -0.23424043220E+02 -0.73033814834E+02  0.82946720203E+02  0.19999950394E+01 0.  0.
         13    1    3    3    0    0 -0.31520382333E+02  0.23424043220E+02 -0.45569000449E+02  0.60156173990E+02  0.10566000000E+00 0. -1.
         13    1    4    4    0    0  0.88652586924E+01 -0.60921233057E+01 -0.21556003386E+02  0.24091061082E+02  0.10566000000E+00 0. -1.
        -13    1    4    4    0    0  0.16859850693E+02 -0.13188089055E+02 -0.38375738343E+02  0.43941878837E+02  0.10566000000E+00 0.  1.
        -14    1    4    4    0    0  0.57952729471E+01 -0.41438308590E+01 -0.13102073104E+02  0.14913780284E+02  0.00000000000E+00 0.  1.
<mgrwt>
<rscale>  0 0.80073782E+02</rscale>
<asrwt>0</asrwt>
<pdfrwt beam="1">  1        1 0.20131208E-01 0.80073782E+02</pdfrwt>
<pdfrwt beam="2">  1       -2 0.18846215E-02 0.80073782E+02</pdfrwt>
<totfact> 0.15363078E+05</totfact>
</mgrwt>
</event>
<event>
 8    1  0.7756875E-014  0.8000736E+02  0.7818608E-02  0.1329031E+00
          1   -1    0    0  501    0  0.00000000000E+00  0.00000000000E+00  0.91150353975E+02  0.91150354114E+02  0.50400000000E-02 0. -1.
         -2   -1    0    0    0  501 -0.00000000000E+00 -0.00000000000E+00 -0.17556645120E+02  0.17556645305E+02  0.25500000000E-02 0.  1.
        -24    2    1    2    0    0  0.22204460493E-15  0.00000000000E+00  0.73593708855E+02  0.10870699942E+03  0.80007360535E+02 0.  0.
         66    2    3    3    0    0  0.19535141008E+01  0.25090398621E+02 -0.53866712589E+01  0.25813960344E+02  0.20000002629E+01 0.  0.
         13    1    3    3    0    0 -0.19535141008E+01 -0.25090398621E+02  0.78980380114E+02  0.82893039076E+02  0.10566000000E+00 0. -1.
         13    1    4    4    0    0 -0.35625926605E+00  0.32974143624E+01 -0.56714311646E+00  0.33664042378E+01  0.10566000000E+00 0.  1.
        -13    1    4    4    0    0  0.22141679882E+01  0.21423354090E+02 -0.47945965862E+01  0.22064948692E+02  0.10566000000E+00 0. -1.
         14    1    4    4    0    0  0.95605378594E-01  0.36963016923E+00 -0.24931556237E-01  0.38260741356E+00  0.00000000000E+00 0. -1.
<mgrwt>
<rscale>  0 0.80007361E+02</rscale>
<asrwt>0</asrwt>
<pdfrwt beam="1">  1        1 0.14023131E-01 0.80007361E+02</pdfrwt>
<pdfrwt beam="2">  1       -2 0.27010224E-02 0.80007361E+02</pdfrwt>
<totfact> 0.14470383E+05</totfact>
</mgrwt>
</event>
<event>
 8    1  0.7756875E-014  0.7899733E+02  0.7818608E-02  0.1331921E+00
          1   -1    0    0  501    0  0.00000000000E+00  0.00000000000E+00  0.25623354146E+03  0.25623354151E+03  0.50400000000E-02 0. -1.
         -2   -1    0    0    0  501 -0.00000000000E+00 -0.00000000000E+00 -0.60887602551E+01  0.60887607891E+01  0.25500000000E-02 0.  1.
        -24    2    1    2    0    0  0.88817841970E-15  0.00000000000E+00  0.25014478121E+03  0.26232230230E+03  0.78997333621E+02 0.  0.
         66    2    3    3    0    0  0.41292810877E+01 -0.38857428368E+02  0.10660746475E+03  0.11356100666E+03  0.19999977525E+01 0.  0.
         13    1    3    3    0    0 -0.41292810877E+01  0.38857428368E+02  0.14353731646E+03  0.14876129564E+03  0.10566000000E+00 0. -1.
         13    1    4    4    0    0  0.71238418707E+00 -0.63670304849E+01  0.15495265865E+02  0.16767856055E+02  0.10566000000E+00 0.  1.
        -13    1    4    4    0    0  0.24492814947E+01 -0.24434206247E+02  0.68101184406E+02  0.72393452026E+02  0.10566000000E+00 0.  1.
        -14    1    4    4    0    0  0.96761540593E+00 -0.80561916359E+01  0.23011014478E+02  0.24399698575E+02  0.00000000000E+00 0.  1.
<mgrwt>
<rscale>  0 0.78997334E+02</rscale>
<asrwt>0</asrwt>
<pdfrwt beam="1">  1        1 0.39420548E-01 0.78997334E+02</pdfrwt>
<pdfrwt beam="2">  1       -2 0.93673231E-03 0.78997334E+02</pdfrwt>
<totfact> 0.18091636E+05</totfact>
</mgrwt>
</event>
<event>
 8    1  0.7756875E-014  0.7981705E+02  0.7818608E-02  0.1329571E+00
         -2   -1    0    0    0  501 -0.00000000000E+00  0.00000000000E+00  0.42474100364E+01  0.42474108019E+01  0.25500000000E-02 0.  1.
          1   -1    0    0  501    0  0.00000000000E+00 -0.00000000000E+00 -0.37497919825E+03  0.37497919828E+03  0.50400000000E-02 0. -1.
        -24    2    1    2    0    0  0.00000000000E+00  0.00000000000E+00 -0.37073178821E+03  0.37922660908E+03  0.79817054860E+02 0.  0.
         66    2    3    3    0    0  0.30487119612E+02 -0.25676378984E+02 -0.19210761177E+03  0.19620926435E+03  0.20000041818E+01 0.  0.
         13    1    3    3    0    0 -0.30487119612E+02  0.25676378984E+02 -0.17862417644E+03  0.18301734473E+03  0.10566000000E+00 0. -1.
         13    1    4    4    0    0  0.10172738838E+02 -0.94155620990E+01 -0.66082030632E+02  0.67520244087E+02  0.10566000000E+00 0. -1.
        -13    1    4    4    0    0  0.77717407978E+01 -0.69142586045E+01 -0.51019671845E+02  0.52069424870E+02  0.10566000000E+00 0.  1.
        -14    1    4    4    0    0  0.12542639976E+02 -0.93465582807E+01 -0.75005909297E+02  0.76619595396E+02  0.00000000000E+00 0.  1.
<mgrwt>
<rscale>  0 0.79817055E+02</rscale>
<asrwt>0</asrwt>
<pdfrwt beam="1">  1        1 0.57689081E-01 0.79817055E+02</pdfrwt>
<pdfrwt beam="2">  1       -2 0.65344806E-03 0.79817055E+02</pdfrwt>
<totfact> 0.18901796E+05</totfact>
</mgrwt>
</event>
<event>
 8    1  0.7756875E-014  0.8063117E+02  0.7818608E-02  0.1327270E+00
          1   -1    0    0  501    0  0.00000000000E+00  0.00000000000E+00  0.73621075364E+01  0.73621092615E+01  0.50400000000E-02 0. -1.
         -2   -1    0    0    0  501 -0.00000000000E+00 -0.00000000000E+00 -0.22077188090E+03  0.22077188092E+03  0.25500000000E-02 0.  1.
        -24    2    1    2    0    0  0.00000000000E+00  0.71054273576E-14 -0.21340977337E+03  0.22813399018E+03  0.80631173293E+02 0.  0.
         66    2    3    3    0    0 -0.67268503638E+01  0.29053292096E+02 -0.18342425065E+03  0.18584348257E+03  0.19999971108E+01 0.  0.
         13    1    3    3    0    0  0.67268503638E+01 -0.29053292096E+02 -0.29985522712E+02  0.42290507608E+02  0.10566000000E+00 0. -1.
         13    1    4    4    0    0 -0.82731205805E+00  0.27019221920E+01 -0.18599006177E+02  0.18812735675E+02  0.10566000000E+00 0. -1.
        -13    1    4    4    0    0 -0.11391733359E+01  0.83198762190E+01 -0.52869276734E+02  0.53532136540E+02  0.10566000000E+00 0.  1.
        -14    1    4    4    0    0 -0.47603649698E+01  0.18031493685E+02 -0.11195596774E+03  0.11349861035E+03  0.00000000000E+00 0.  1.
<mgrwt>
<rscale>  0 0.80631173E+02</rscale>
<asrwt>0</asrwt>
<pdfrwt beam="1">  1        1 0.11326322E-02 0.80631173E+02</pdfrwt>
<pdfrwt beam="2">  1       -2 0.33964900E-01 0.80631173E+02</pdfrwt>
<totfact> 0.79974115E+04</totfact>
</mgrwt>
</event>
<event>
 8    1  0.7756875E-014  0.7863780E+02  0.7818608E-02  0.1332962E+00
         -2   -1    0    0    0  501 -0.00000000000E+00  0.00000000000E+00  0.30003448575E+02  0.30003448684E+02  0.25500000000E-02 0.  1.
          1   -1    0    0  501    0  0.00000000000E+00 -0.00000000000E+00 -0.51526602800E+02  0.51526603046E+02  0.50400000000E-02 0. -1.
        -24    2    1    2    0    0  0.17763568394E-14  0.00000000000E+00 -0.21523154225E+02  0.81530051730E+02  0.78637797320E+02 0.  0.
         66    2    3    3    0    0  0.12210379839E+02 -0.23745180204E+02  0.19119584849E+02  0.32901147135E+02  0.19999998225E+01 0.  0.
         13    1    3    3    0    0 -0.12210379839E+02  0.23745180204E+02 -0.40642739073E+02  0.48628904595E+02  0.10566000000E+00 0. -1.
         13    1    4    4    0    0  0.48387424262E+01 -0.84412548183E+01  0.77365401248E+01  0.12431147506E+02  0.10566000000E+00 0. -1.
        -13    1    4    4    0    0  0.30444900983E+01 -0.54368082949E+01  0.44518196320E+01  0.76588293143E+01  0.10566000000E+00 0.  1.
        -14    1    4    4    0    0  0.43271473141E+01 -0.98671170905E+01  0.69312250918E+01  0.12811170315E+02  0.00000000000E+00 0.  1.
<mgrwt>
<rscale>  0 0.78637797E+02</rscale>
<asrwt>0</asrwt>
<pdfrwt beam="1">  1        1 0.79271697E-02 0.78637797E+02</pdfrwt>
<pdfrwt beam="2">  1       -2 0.46159152E-02 0.78637797E+02</pdfrwt>
<totfact> 0.13864286E+05</totfact>
</mgrwt>
</event>
<event>
 8    1  0.7756875E-014  0.8225905E+02  0.7818608E-02  0.1322760E+00
         -2   -1    0    0    0  501 -0.00000000000E+00  0.00000000000E+00  0.31063744198E+02  0.31063744303E+02  0.25500000000E-02 0.  1.
          1   -1    0    0  501    0  0.00000000000E+00 -0.00000000000E+00 -0.54456983215E+02  0.54456983448E+02  0.50400000000E-02 0. -1.
        -24    2    1    2    0    0  0.00000000000E+00  0.00000000000E+00 -0.23393239017E+02  0.85520727751E+02  0.82259049614E+02 0.  0.
         66    2    3    3    0    0  0.23194904296E+02 -0.23764498899E+02  0.13482621731E+02  0.35896184799E+02  0.20000002957E+01 0.  0.
         13    1    3    3    0    0 -0.23194904296E+02  0.23764498899E+02 -0.36875860748E+02  0.49624542952E+02  0.10566000000E+00 0. -1.
         13    1    4    4    0    0  0.25665903573E+01 -0.26362939085E+01  0.18122979759E+01  0.41028063107E+01  0.10566000000E+00 0. -1.
        -13    1    4    4    0    0  0.69935641685E+01 -0.79193389451E+01  0.47955859942E+01  0.11603218440E+02  0.10566000000E+00 0.  1.
        -14    1    4    4    0    0  0.13634749770E+02 -0.13208866046E+02  0.68747377610E+01  0.20190160048E+02  0.00000000000E+00 0.  1.
<mgrwt>
<rscale>  0 0.82259050E+02</rscale>
<asrwt>0</asrwt>
<pdfrwt beam="1">  1        1 0.83779975E-02 0.82259050E+02</pdfrwt>
<pdfrwt beam="2">  1       -2 0.47790376E-02 0.82259050E+02</pdfrwt>
<totfact> 0.12342591E+05</totfact>
</mgrwt>
</event>
<event>
 8    1  0.7756875E-014  0.8265988E+02  0.7818608E-02  0.1321668E+00
          1   -1    0    0  501    0  0.00000000000E+00  0.00000000000E+00  0.61594892195E+02  0.61594892401E+02  0.50400000000E-02 0. -1.
         -2   -1    0    0    0  501 -0.00000000000E+00 -0.00000000000E+00 -0.27732234099E+02  0.27732234216E+02  0.25500000000E-02 0.  1.
        -24    2    1    2    0    0  0.00000000000E+00 -0.35527136788E-14  0.33862658096E+02  0.89327126617E+02  0.82659881056E+02 0.  0.
         66    2    3    3    0    0 -0.26369928246E+02 -0.30118329575E+02  0.59380005109E+01  0.40518474132E+02  0.20000009572E+01 0.  0.
         13    1    3    3    0    0  0.26369928246E+02  0.30118329575E+02  0.27924657585E+02  0.48808652485E+02  0.10566000000E+00 0. -1.
         13    1    4    4    0    0 -0.17035140381E+01 -0.24685538016E+01  0.70179472807E+00  0.30821093143E+01  0.10566000000E+00 0. -1.
        -13    1    4    4    0    0 -0.17963026058E+02 -0.20813895886E+02  0.39742647666E+01  0.27779390050E+02  0.10566000000E+00 0.  1.
        -14    1    4    4    0    0 -0.67033881501E+01 -0.68358798876E+01  0.12619410163E+01  0.96569747673E+01  0.00000000000E+00 0.  1.
<mgrwt>
<rscale>  0 0.82659881E+02</rscale>
<asrwt>0</asrwt>
<pdfrwt beam="1">  1        1 0.94761373E-02 0.82659881E+02</pdfrwt>
<pdfrwt beam="2">  1       -2 0.42664976E-02 0.82659881E+02</pdfrwt>
<totfact> 0.12420640E+05</totfact>
</mgrwt>
</event>
<event>
 8    1  0.7756875E-014  0.7911192E+02  0.7818608E-02  0.1331591E+00
         -2   -1    0    0    0  501 -0.00000000000E+00  0.00000000000E+00  0.24118414420E+02  0.24118414555E+02  0.25500000000E-02 0.  1.
          1   -1    0    0  501    0  0.00000000000E+00 -0.00000000000E+00 -0.64874653395E+02  0.64874653591E+02  0.50400000000E-02 0. -1.
        -24    2    1    2    0    0  0.17763568394E-14  0.00000000000E+00 -0.40756238975E+02  0.88993068146E+02  0.79111915428E+02 0.  0.
         66    2    3    3    0    0  0.10196374551E+02 -0.37706163847E+02 -0.13553412627E+02  0.41393427692E+02  0.20000040615E+01 0.  0.
         13    1    3    3    0    0 -0.10196374551E+02  0.37706163847E+02 -0.27202826348E+02  0.47599640454E+02  0.10566000000E+00 0. -1.
         13    1    4    4    0    0  0.11678069633E+01 -0.33100176072E+01 -0.13745244729E+01  0.37710040077E+01  0.10566000000E+00 0. -1.
        -13    1    4    4    0    0  0.40881627073E+01 -0.15684256636E+02 -0.63816697413E+01  0.17419697278E+02  0.10566000000E+00 0.  1.
         14    1    4    4    0    0  0.49404048801E+01 -0.18711889604E+02 -0.57972184128E+01  0.20202726406E+02  0.00000000000E+00 0. -1.
<mgrwt>
<rscale>  0 0.79111915E+02</rscale>
<asrwt>0</asrwt>
<pdfrwt beam="1">  1        1 0.99807159E-02 0.79111915E+02</pdfrwt>
<pdfrwt beam="2">  1       -2 0.37105253E-02 0.79111915E+02</pdfrwt>
<totfact> 0.14131706E+05</totfact>
</mgrwt>
</event>
<event>
 8    1  0.7756875E-014  0.8099452E+02  0.7818608E-02  0.1326253E+00
          1   -1    0    0  501    0  0.00000000000E+00  0.00000000000E+00  0.15659368686E+02  0.15659369497E+02  0.50400000000E-02 0. -1.
         -2   -1    0    0    0  501 -0.00000000000E+00 -0.00000000000E+00 -0.10473143856E+03  0.10473143860E+03  0.25500000000E-02 0.  1.
        -24    2    1    2    0    0  0.00000000000E+00  0.00000000000E+00 -0.89072069879E+02  0.12039080809E+03  0.80994524757E+02 0.  0.
         66    2    3    3    0    0 -0.20598687105E+02  0.34486107757E+02 -0.51909296377E+02  0.65667134631E+02  0.19999954151E+01 0.  0.
         13    1    3    3    0    0  0.20598687105E+02 -0.34486107757E+02 -0.37162773502E+02  0.54723673461E+02  0.10566000000E+00 0. -1.
         13    1    4    4    0    0 -0.83805066978E+00  0.12620901178E+01 -0.24667549123E+01  0.28967644405E+01  0.10566000000E+00 0. -1.
        -13    1    4    4    0    0 -0.16090206516E+02  0.27254939333E+02 -0.41139146625E+02  0.51905365935E+02  0.10566000000E+00 0.  1.
        -14    1    4    4    0    0 -0.36704299199E+01  0.59690783060E+01 -0.83033948400E+01  0.10865004256E+02  0.00000000000E+00 0.  1.
<mgrwt>
<rscale>  0 0.80994525E+02</rscale>
<asrwt>0</asrwt>
<pdfrwt beam="1">  1        1 0.24091338E-02 0.80994525E+02</pdfrwt>
<pdfrwt beam="2">  1       -2 0.16112529E-01 0.80994525E+02</pdfrwt>
<totfact> 0.10162981E+05</totfact>
</mgrwt>
</event>
<event>
 8    1  0.7756875E-014  0.8023322E+02  0.7818608E-02  0.1328391E+00
          1   -1    0    0  501    0  0.00000000000E+00  0.00000000000E+00  0.17608156718E+03  0.17608156725E+03  0.50400000000E-02 0. -1.
         -2   -1    0    0    0  501 -0.00000000000E+00 -0.00000000000E+00 -0.91397556775E+01  0.91397560332E+01  0.25500000000E-02 0.  1.
        -24    2    1    2    0    0  0.00000000000E+00  0.00000000000E+00  0.16694181150E+03  0.18522132329E+03  0.80233223616E+02 0.  0.
         66    2    3    3    0    0 -0.17859040963E+02  0.34581393331E+02  0.10572775689E+03  0.11268174957E+03  0.20000000302E+01 0.  0.
         13    1    3    3    0    0  0.17859040963E+02 -0.34581393331E+02  0.61214054616E+02  0.72539573719E+02  0.10566000000E+00 0. -1.
         13    1    4    4    0    0 -0.93260783091E+01  0.18857275555E+02  0.57432743986E+02  0.61164563464E+02  0.10566000000E+00 0.  1.
        -13    1    4    4    0    0 -0.62384503312E+01  0.11249951304E+02  0.33108685682E+02  0.35520077400E+02  0.10566000000E+00 0. -1.
         14    1    4    4    0    0 -0.22945123224E+01  0.44741664726E+01  0.15186327220E+02  0.15997108703E+02  0.00000000000E+00 0. -1.
<mgrwt>
<rscale>  0 0.80233224E+02</rscale>
<asrwt>0</asrwt>
<pdfrwt beam="1">  1        1 0.27089471E-01 0.80233224E+02</pdfrwt>
<pdfrwt beam="2">  1       -2 0.14061163E-02 0.80233224E+02</pdfrwt>
<totfact> 0.16144179E+05</totfact>
</mgrwt>
</event>
<event>
 8    1  0.7756875E-014  0.7981839E+02  0.7818608E-02  0.1329568E+00
         -2   -1    0    0    0  501 -0.00000000000E+00  0.00000000000E+00  0.16390007290E+02  0.16390007488E+02  0.25500000000E-02 0.  1.
          1   -1    0    0  501    0  0.00000000000E+00 -0.00000000000E+00 -0.97177732230E+02  0.97177732361E+02  0.50400000000E-02 0. -1.
        -24    2    1    2    0    0 -0.44408920985E-15  0.00000000000E+00 -0.80787724940E+02  0.11356773985E+03  0.79818387815E+02 0.  0.
         66    2    3    3    0    0  0.34463704496E+01  0.38959902375E+02 -0.29307671136E+02  0.48915140782E+02  0.19999869928E+01 0.  0.
         13    1    3    3    0    0 -0.34463704496E+01 -0.38959902375E+02 -0.51480053804E+02  0.64652599067E+02  0.10566000000E+00 0. -1.
         13    1    4    4    0    0  0.50632906154E+00  0.25262179051E+01 -0.16428288147E+01  0.30574820641E+01  0.10566000000E+00 0. -1.
        -13    1    4    4    0    0  0.24126949395E+01  0.24336441133E+02 -0.18042758890E+02  0.30391376677E+02  0.10566000000E+00 0.  1.
         14    1    4    4    0    0  0.52734644856E+00  0.12097243337E+02 -0.96220834309E+01  0.15466282042E+02  0.00000000000E+00 0. -1.
<mgrwt>
<rscale>  0 0.79818388E+02</rscale>
<asrwt>0</asrwt>
<pdfrwt beam="1">  1        1 0.14950420E-01 0.79818388E+02</pdfrwt>
<pdfrwt beam="2">  1       -2 0.25215397E-02 0.79818388E+02</pdfrwt>
<totfact> 0.14718927E+05</totfact>
</mgrwt>
</event>
<event>
 8    1  0.7756875E-014  0.8062818E+02  0.7818608E-02  0.1327278E+00
         -2   -1    0    0    0  501 -0.00000000000E+00  0.00000000000E+00  0.42956499533E+03  0.42956499534E+03  0.25500000000E-02 0.  1.
          1   -1    0    0  501    0  0.00000000000E+00 -0.00000000000E+00 -0.37834211908E+01  0.37834245478E+01  0.50400000000E-02 0. -1.
        -24    2    1    2    0    0  0.71054273576E-14  0.00000000000E+00  0.42578157414E+03  0.43334841989E+03  0.80628184531E+02 0.  0.
         66    2    3    3    0    0 -0.35949568760E+02  0.26506267123E+00  0.31077202974E+03  0.31285091692E+03  0.20000003244E+01 0.  0.
         13    1    3    3    0    0  0.35949568760E+02 -0.26506267123E+00  0.11500954441E+03  0.12049750296E+03  0.10566000000E+00 0. -1.
         13    1    4    4    0    0 -0.74219204476E+01 -0.48671933528E+00  0.68259131654E+02  0.68663250848E+02  0.10566000000E+00 0. -1.
        -13    1    4    4    0    0 -0.71832559248E+01 -0.58377093566E-01  0.63256182324E+02  0.63662848976E+02  0.10566000000E+00 0.  1.
         14    1    4    4    0    0 -0.21344392388E+02  0.81015910008E+00  0.17925671576E+03  0.18052481710E+03  0.00000000000E+00 0. -1.
<mgrwt>
<rscale>  0 0.80628185E+02</rscale>
<asrwt>0</asrwt>
<pdfrwt beam="1">  1        1 0.58206509E-03 0.80628185E+02</pdfrwt>
<pdfrwt beam="2">  1       -2 0.66086919E-01 0.80628185E+02</pdfrwt>
<totfact> 0.55174187E+04</totfact>
</mgrwt>
</event>
<event>
 8    1  0.7756875E-014  0.8074303E+02  0.7818608E-02  0.1326956E+00
          1   -1    0    0  501    0  0.00000000000E+00  0.00000000000E+00  0.78125846181E+01  0.78125862438E+01  0.50400000000E-02 0. -1.
         -2   -1    0    0    0  501 -0.00000000000E+00 -0.00000000000E+00 -0.20861969870E+03  0.20861969871E+03  0.25500000000E-02 0.  1.
        -24    2    1    2    0    0  0.88817841970E-15  0.00000000000E+00 -0.20080711408E+03  0.21643228495E+03  0.80743030081E+02 0.  0.
         66    2    3    3    0    0  0.41813799211E+01 -0.33225122192E+02 -0.16078900418E+03  0.16425132132E+03  0.20000013075E+01 0.  0.
         13    1    3    3    0    0 -0.41813799211E+01  0.33225122192E+02 -0.40018109894E+02  0.52180963638E+02  0.10566000000E+00 0. -1.
         13    1    4    4    0    0  0.23690860015E+01 -0.16475525578E+02 -0.78980458474E+02  0.80715422915E+02  0.10566000000E+00 0. -1.
        -13    1    4    4    0    0  0.19755164302E+01 -0.13464971484E+02 -0.66356468953E+02  0.67737731422E+02  0.10566000000E+00 0.  1.
        -14    1    4    4    0    0 -0.16322251066E+00 -0.32846251299E+01 -0.15452076756E+02  0.15798166979E+02  0.00000000000E+00 0.  1.
<mgrwt>
<rscale>  0 0.80743030E+02</rscale>
<asrwt>0</asrwt>
<pdfrwt beam="1">  1        1 0.12019364E-02 0.80743030E+02</pdfrwt>
<pdfrwt beam="2">  1       -2 0.32095334E-01 0.80743030E+02</pdfrwt>
<totfact> 0.81638754E+04</totfact>
</mgrwt>
</event>
<event>
 8    1  0.7756875E-014  0.8062364E+02  0.7818608E-02  0.1327291E+00
          1   -1    0    0  501    0  0.00000000000E+00  0.00000000000E+00  0.33252648922E+02  0.33252649304E+02  0.50400000000E-02 0. -1.
         -2   -1    0    0    0  501 -0.00000000000E+00 -0.00000000000E+00 -0.48869572431E+02  0.48869572498E+02  0.25500000000E-02 0.  1.
        -24    2    1    2    0    0  0.00000000000E+00  0.00000000000E+00 -0.15616923510E+02  0.82122221802E+02  0.80623638058E+02 0.  0.
         66    2    3    3    0    0  0.38042480357E+01  0.18482166639E+02 -0.44069456567E+02  0.47981035703E+02  0.19999995406E+01 0.  0.
         13    1    3    3    0    0 -0.38042480357E+01 -0.18482166639E+02  0.28452533058E+02  0.34141186099E+02  0.10566000000E+00 0. -1.
         13    1    4    4    0    0  0.11249826602E+01  0.72109627628E+01 -0.18401789973E+02  0.19796479692E+02  0.10566000000E+00 0. -1.
        -13    1    4    4    0    0  0.21534662522E+01  0.92683382599E+01 -0.19943965500E+02  0.22097792534E+02  0.10566000000E+00 0.  1.
        -14    1    4    4    0    0  0.52579912333E+00  0.20028656165E+01 -0.57237010946E+01  0.60867634763E+01  0.00000000000E+00 0.  1.
<mgrwt>
<rscale>  0 0.80623638E+02</rscale>
<asrwt>0</asrwt>
<pdfrwt beam="1">  1        1 0.51157922E-02 0.80623638E+02</pdfrwt>
<pdfrwt beam="2">  1       -2 0.75183958E-02 0.80623638E+02</pdfrwt>
<totfact> 0.12043228E+05</totfact>
</mgrwt>
</event>
<event>
 8    1  0.7756875E-014  0.8112106E+02  0.7818608E-02  0.1325900E+00
          1   -1    0    0  501    0  0.00000000000E+00  0.00000000000E+00  0.11314159265E+03  0.11314159276E+03  0.50400000000E-02 0. -1.
         -2   -1    0    0    0  501 -0.00000000000E+00 -0.00000000000E+00 -0.14540689057E+02  0.14540689281E+02  0.25500000000E-02 0.  1.
        -24    2    1    2    0    0  0.35527136788E-14  0.00000000000E+00  0.98600903593E+02  0.12768228204E+03  0.81121063593E+02 0.  0.
         66    2    3    3    0    0  0.16317324849E+02  0.36868996475E+02  0.42732079604E+02  0.58784425406E+02  0.20000129376E+01 0.  0.
         13    1    3    3    0    0 -0.16317324849E+02 -0.36868996475E+02  0.55868823990E+02  0.68897856638E+02  0.10566000000E+00 0. -1.
         13    1    4    4    0    0  0.32741932591E+01  0.75734242038E+01  0.97915038051E+01  0.12804757181E+02  0.10566000000E+00 0. -1.
        -13    1    4    4    0    0  0.47694020595E+01  0.99693655563E+01  0.11005787956E+02  0.15597242646E+02  0.10566000000E+00 0.  1.
        -14    1    4    4    0    0  0.82737295302E+01  0.19326206714E+02  0.21934787843E+02  0.30382425578E+02  0.00000000000E+00 0.  1.
<mgrwt>
<rscale>  0 0.81121064E+02</rscale>
<asrwt>0</asrwt>
<pdfrwt beam="1">  1        1 0.17406399E-01 0.81121064E+02</pdfrwt>
<pdfrwt beam="2">  1       -2 0.22370291E-02 0.81121064E+02</pdfrwt>
<totfact> 0.14459294E+05</totfact>
</mgrwt>
</event>
<event>
 8    1  0.7756875E-014  0.8104664E+02  0.7818608E-02  0.1326107E+00
         -2   -1    0    0    0  501 -0.00000000000E+00  0.00000000000E+00  0.80514279835E+02  0.80514279875E+02  0.25500000000E-02 0.  1.
          1   -1    0    0  501    0  0.00000000000E+00 -0.00000000000E+00 -0.20395629546E+02  0.20395630168E+02  0.50400000000E-02 0. -1.
        -24    2    1    2    0    0  0.00000000000E+00  0.00000000000E+00  0.60118650289E+02  0.10090991004E+03  0.81046639858E+02 0.  0.
         66    2    3    3    0    0  0.20898543681E+02  0.42864273830E+01  0.72938367897E+02  0.76020576760E+02  0.19999979378E+01 0.  0.
         13    1    3    3    0    0 -0.20898543681E+02 -0.42864273830E+01 -0.12819717608E+02  0.24889333283E+02  0.10566000000E+00 0. -1.
         13    1    4    4    0    0  0.51722418276E+01  0.11124109715E+01  0.16349429956E+02  0.17184428056E+02  0.10566000000E+00 0.  1.
        -13    1    4    4    0    0  0.30175028617E+01  0.11380063693E+01  0.10623119879E+02  0.11102352094E+02  0.10566000000E+00 0. -1.
         14    1    4    4    0    0  0.12708798992E+02  0.20360100422E+01  0.45965818062E+02  0.47733796610E+02  0.00000000000E+00 0. -1.
<mgrwt>
<rscale>  0 0.81046640E+02</rscale>
<asrwt>0</asrwt>
<pdfrwt beam="1">  1        1 0.31377892E-02 0.81046640E+02</pdfrwt>
<pdfrwt beam="2">  1       -2 0.12386813E-01 0.81046640E+02</pdfrwt>
<totfact> 0.10796782E+05</totfact>
</mgrwt>
</event>
<event>
 8    1  0.7756875E-014  0.7786347E+02  0.7818608E-02  0.1335226E+00
          1   -1    0    0  501    0  0.00000000000E+00  0.00000000000E+00  0.84961141313E+02  0.84961141463E+02  0.50400000000E-02 0. -1.
         -2   -1    0    0    0  501 -0.00000000000E+00 -0.00000000000E+00 -0.17839684383E+02  0.17839684565E+02  0.25500000000E-02 0.  1.
        -24    2    1    2    0    0  0.88817841970E-15  0.00000000000E+00  0.67121456931E+02  0.10280082603E+03  0.77863469300E+02 0.  0.
         66    2    3    3    0    0  0.60426158988E+01  0.19932829859E+02 -0.98025693376E+01  0.23106736570E+02  0.19999990484E+01 0.  0.
         13    1    3    3    0    0 -0.60426158988E+01 -0.19932829859E+02  0.76924026268E+02  0.79694089458E+02  0.10566000000E+00 0. -1.
         13    1    4    4    0    0  0.15526228809E+01  0.31538322542E+01 -0.17954063880E+01  0.39486635501E+01  0.10566000000E+00 0. -1.
        -13    1    4    4    0    0  0.43723181776E+01  0.16405578000E+02 -0.79939846815E+01  0.18766329180E+02  0.10566000000E+00 0.  1.
        -14    1    4    4    0    0  0.11767484030E+00  0.37341960507E+00 -0.13178268171E-01  0.39174384008E+00  0.00000000000E+00 0.  1.
<mgrwt>
<rscale>  0 0.77863469E+02</rscale>
<asrwt>0</asrwt>
<pdfrwt beam="1">  1        1 0.13070945E-01 0.77863469E+02</pdfrwt>
<pdfrwt beam="2">  1       -2 0.27445668E-02 0.77863469E+02</pdfrwt>
<totfact> 0.15398225E+05</totfact>
</mgrwt>
</event>
<event>
 8    1  0.7756875E-014  0.7775200E+02  0.7818608E-02  0.1335555E+00
         -2   -1    0    0    0  501 -0.00000000000E+00  0.00000000000E+00  0.20477504077E+03  0.20477504078E+03  0.25500000000E-02 0.  1.
          1   -1    0    0  501    0  0.00000000000E+00 -0.00000000000E+00 -0.73805043512E+01  0.73805060720E+01  0.50400000000E-02 0. -1.
        -24    2    1    2    0    0  0.00000000000E+00  0.71054273576E-14  0.19739453642E+03  0.21215554685E+03  0.77751997109E+02 0.  0.
         66    2    3    3    0    0  0.42041149399E+01  0.38467715581E+02  0.89350191616E+02  0.97390433115E+02  0.19999990065E+01 0.  0.
         13    1    3    3    0    0 -0.42041149399E+01 -0.38467715581E+02  0.10804434480E+03  0.11476511374E+03  0.10566000000E+00 0. -1.
         13    1    4    4    0    0  0.32750092295E+01  0.24003919843E+02  0.56771691592E+02  0.61724792292E+02  0.10566000000E+00 0. -1.
        -13    1    4    4    0    0  0.55466840807E+00  0.67041713311E+01  0.14231445258E+02  0.15741625343E+02  0.10566000000E+00 0.  1.
         14    1    4    4    0    0  0.37443730229E+00  0.77596244072E+01  0.18347054766E+02  0.19924015480E+02  0.00000000000E+00 0. -1.
<mgrwt>
<rscale>  0 0.77751997E+02</rscale>
<asrwt>0</asrwt>
<pdfrwt beam="1">  1        1 0.11354625E-02 0.77751997E+02</pdfrwt>
<pdfrwt beam="2">  1       -2 0.31503848E-01 0.77751997E+02</pdfrwt>
<totfact> 0.90682113E+04</totfact>
</mgrwt>
</event>
<event>
 8    1  0.7756875E-014  0.7401099E+02  0.7818608E-02  0.1346961E+00
          1   -1    0    0  501    0  0.00000000000E+00  0.00000000000E+00  0.47707249383E+02  0.47707249649E+02  0.50400000000E-02 0. -1.
         -2   -1    0    0    0  501 -0.00000000000E+00 -0.00000000000E+00 -0.28704373607E+02  0.28704373720E+02  0.25500000000E-02 0.  1.
        -24    2    1    2    0    0  0.00000000000E+00  0.00000000000E+00  0.19002875776E+02  0.76411623369E+02  0.74010991739E+02 0.  0.
         66    2    3    3    0    0  0.29552415276E+02  0.20415023692E+02  0.43210823685E+00  0.35976452886E+02  0.20000009277E+01 0.  0.
         13    1    3    3    0    0 -0.29552415276E+02 -0.20415023692E+02  0.18570767539E+02  0.40435170483E+02  0.10566000000E+00 0. -1.
         13    1    4    4    0    0  0.18391392744E+02  0.12610652237E+02 -0.49263505749E+00  0.22305284806E+02  0.10566000000E+00 0. -1.
        -13    1    4    4    0    0  0.10789664928E+02  0.76151702446E+01  0.77931345280E+00  0.13229746052E+02  0.10566000000E+00 0.  1.
         14    1    4    4    0    0  0.37135760396E+00  0.18920120988E+00  0.14542984154E+00  0.44142202782E+00  0.00000000000E+00 0. -1.
<mgrwt>
<rscale>  0 0.74010992E+02</rscale>
<asrwt>0</asrwt>
<pdfrwt beam="1">  1        1 0.73395768E-02 0.74010992E+02</pdfrwt>
<pdfrwt beam="2">  1       -2 0.44160575E-02 0.74010992E+02</pdfrwt>
<totfact> 0.16199662E+05</totfact>
</mgrwt>
</event>
<event>
 8    1  0.7756875E-014  0.7877991E+02  0.7818608E-02  0.1332550E+00
          1   -1    0    0  501    0  0.00000000000E+00  0.00000000000E+00  0.20562003120E+02  0.20562003737E+02  0.50400000000E-02 0. -1.
         -2   -1    0    0    0  501 -0.00000000000E+00 -0.00000000000E+00 -0.75458037340E+02  0.75458037383E+02  0.25500000000E-02 0.  1.
        -24    2    1    2    0    0  0.35527136788E-14  0.35527136788E-14 -0.54896034220E+02  0.96020041120E+02  0.78779906852E+02 0.  0.
         66    2    3    3    0    0 -0.89853510489E+01 -0.20701172833E+02 -0.66777491937E+02  0.70516016112E+02  0.20000021876E+01 0.  0.
         13    1    3    3    0    0  0.89853510489E+01  0.20701172833E+02  0.11881457717E+02  0.25504025009E+02  0.10566000000E+00 0. -1.
         13    1    4    4    0    0 -0.51217742565E+00 -0.61856911752E+00 -0.24007842043E+01  0.25337486654E+01  0.10566000000E+00 0. -1.
        -13    1    4    4    0    0 -0.42927134907E+01 -0.11869271439E+02 -0.38079271689E+02  0.40116693408E+02  0.10566000000E+00 0.  1.
         14    1    4    4    0    0 -0.41804601326E+01 -0.82133322765E+01 -0.26297436044E+02  0.27865574038E+02  0.00000000000E+00 0. -1.
<mgrwt>
<rscale>  0 0.78779907E+02</rscale>
<asrwt>0</asrwt>
<pdfrwt beam="1">  1        1 0.31633852E-02 0.78779907E+02</pdfrwt>
<pdfrwt beam="2">  1       -2 0.11608929E-01 0.78779907E+02</pdfrwt>
<totfact> 0.11766943E+05</totfact>
</mgrwt>
</event>
<event>
 8    1  0.7756875E-014  0.7973299E+02  0.7818608E-02  0.1329811E+00
         -2   -1    0    0    0  501 -0.00000000000E+00  0.00000000000E+00  0.52477551621E+01  0.52477557817E+01  0.25500000000E-02 0.  1.
          1   -1    0    0  501    0  0.00000000000E+00 -0.00000000000E+00 -0.30286039517E+03  0.30286039521E+03  0.50400000000E-02 0. -1.
        -24    2    1    2    0    0  0.00000000000E+00 -0.35527136788E-14 -0.29761264001E+03  0.30810815099E+03  0.79732987002E+02 0.  0.
         66    2    3    3    0    0  0.32323385462E+02 -0.20867774095E+02 -0.10891504551E+03  0.11552814534E+03  0.19999960740E+01 0.  0.
         13    1    3    3    0    0 -0.32323385462E+02  0.20867774095E+02 -0.18869759450E+03  0.19258000565E+03  0.10566000000E+00 0. -1.
         13    1    4    4    0    0  0.95413160199E+00 -0.47730994099E+00 -0.27195241081E+01  0.29232118130E+01  0.10566000000E+00 0.  1.
        -13    1    4    4    0    0  0.24288141282E+01 -0.16646671602E+01 -0.96868251086E+01  0.10125018496E+02  0.10566000000E+00 0.  1.
         14    1    4    4    0    0  0.28940439732E+02 -0.18725796994E+02 -0.96508696292E+02  0.10247991503E+03  0.00000000000E+00 0. -1.
<mgrwt>
<rscale>  0 0.79732987E+02</rscale>
<asrwt>0</asrwt>
<pdfrwt beam="1">  1        1 0.46593894E-01 0.79732987E+02</pdfrwt>
<pdfrwt beam="2">  1       -2 0.80734723E-03 0.79732987E+02</pdfrwt>
<totfact> 0.18234143E+05</totfact>
</mgrwt>
</event>
<event>
 8    1  0.7756875E-014  0.7888714E+02  0.7818608E-02  0.1332240E+00
         -2   -1    0    0    0  501 -0.00000000000E+00  0.00000000000E+00  0.60586409007E+02  0.60586409060E+02  0.25500000000E-02 0.  1.
          1   -1    0    0  501    0  0.00000000000E+00 -0.00000000000E+00 -0.25678945713E+02  0.25678946207E+02  0.50400000000E-02 0. -1.
        -24    2    1    2    0    0  0.00000000000E+00  0.00000000000E+00  0.34907463294E+02  0.86265355267E+02  0.78887137898E+02 0.  0.
         66    2    3    3    0    0 -0.37923567134E+02 -0.14584783217E+01  0.29113237344E+02  0.47873841601E+02  0.20000044559E+01 0.  0.
         13    1    3    3    0    0  0.37923567134E+02  0.14584783217E+01  0.57942259495E+01  0.38391513666E+02  0.10566000000E+00 0. -1.
         13    1    4    4    0    0 -0.45489263734E+01  0.19010272307E+00  0.35512536419E+01  0.57750702732E+01  0.10566000000E+00 0. -1.
        -13    1    4    4    0    0 -0.73594270730E+01  0.25292373479E+00  0.57405616849E+01  0.93375772956E+01  0.10566000000E+00 0.  1.
         14    1    4    4    0    0 -0.26015213688E+02 -0.19015047795E+01  0.19821422018E+02  0.32761194033E+02  0.00000000000E+00 0. -1.
<mgrwt>
<rscale>  0 0.78887138E+02</rscale>
<asrwt>0</asrwt>
<pdfrwt beam="1">  1        1 0.39506072E-02 0.78887138E+02</pdfrwt>
<pdfrwt beam="2">  1       -2 0.93209858E-02 0.78887138E+02</pdfrwt>
<totfact> 0.12243714E+05</totfact>
</mgrwt>
</event>
<event>
 8    1  0.1087712E-013  0.7826575E+02  0.7818608E-02  0.1334046E+00
          1   -1    0    0  501    0  0.00000000000E+00  0.00000000000E+00  0.10231766131E+02  0.10231767372E+02  0.50400000000E-02 0. -1.
         -2   -1    0    0    0  501 -0.00000000000E+00 -0.00000000000E+00 -0.14966935011E+03  0.14966935013E+03  0.25500000000E-02 0.  1.
        -24    2    1    2    0    0  0.00000000000E+00  0.00000000000E+00 -0.13943758398E+03  0.15990111750E+03  0.78265749553E+02 0.  0.
         66    2    3    3    0    0  0.10691592761E+02  0.92588184368E+01 -0.14425418973E+03  0.14495967415E+03  0.19999998150E+01 0.  0.
         13    1    3    3    0    0 -0.10691592761E+02 -0.92588184368E+01  0.48166057513E+01  0.14941443357E+02  0.10566000000E+00 0. -1.
         13    1    4    4    0    0  0.28515827757E+01  0.21850316851E+01 -0.36497224037E+02  0.36673756479E+02  0.10566000000E+00 0. -1.
        -13    1    4    4    0    0  0.78729715582E+01  0.69918215186E+01 -0.10481065190E+03  0.10533827968E+03  0.10566000000E+00 0.  1.
         14    1    4    4    0    0 -0.32961573262E-01  0.81965233095E-01 -0.29463137910E+01  0.29476379899E+01  0.00000000000E+00 0. -1.
<mgrwt>
<rscale>  0 0.78265750E+02</rscale>
<asrwt>0</asrwt>
<pdfrwt beam="1">  1        1 0.15741181E-02 0.78265750E+02</pdfrwt>
<pdfrwt beam="2">  1       -2 0.23026052E-01 0.78265750E+02</pdfrwt>
<totfact> 0.10006327E+05</totfact>
</mgrwt>
</event>
<event>
 8    1  0.7756875E-014  0.7984954E+02  0.7818608E-02  0.1329479E+00
          1   -1    0    0  501    0  0.00000000000E+00  0.00000000000E+00  0.16826535022E+03  0.16826535029E+03  0.50400000000E-02 0. -1.
         -2   -1    0    0    0  501 -0.00000000000E+00 -0.00000000000E+00 -0.94730562405E+01  0.94730565837E+01  0.25500000000E-02 0.  1.
        -24    2    1    2    0    0  0.00000000000E+00 -0.44408920985E-15  0.15879229398E+03  0.17773840688E+03  0.79849537585E+02 0.  0.
         66    2    3    3    0    0 -0.34944531508E+02  0.22351359398E+01  0.36869317697E+02  0.50886763513E+02  0.19999996080E+01 0.  0.
         13    1    3    3    0    0  0.34944531508E+02 -0.22351359398E+01  0.12192297628E+03  0.12685164336E+03  0.10566000000E+00 0. -1.
         13    1    4    4    0    0 -0.74816154271E+01  0.48214953699E-01  0.87084124240E+01  0.11481485316E+02  0.10566000000E+00 0. -1.
        -13    1    4    4    0    0 -0.16173268803E+02  0.97534901409E+00  0.16155415725E+02  0.22880877403E+02  0.10566000000E+00 0. -1.
        -14    1    4    4    0    0 -0.11289647278E+02  0.12115719720E+01  0.12005489548E+02  0.16524400794E+02  0.00000000000E+00 0.  1.
<mgrwt>
<rscale>  0 0.79849538E+02</rscale>
<asrwt>0</asrwt>
<pdfrwt beam="1">  1        1 0.25886978E-01 0.79849538E+02</pdfrwt>
<pdfrwt beam="2">  1       -2 0.14573932E-02 0.79849538E+02</pdfrwt>
<totfact> 0.16211707E+05</totfact>
</mgrwt>
</event>
<event>
 8    1  0.7756875E-014  0.7931056E+02  0.7818608E-02  0.1331019E+00
         -2   -1    0    0    0  501 -0.00000000000E+00  0.00000000000E+00  0.52785302001E+02  0.52785302063E+02  0.25500000000E-02 0.  1.
          1   -1    0    0  501    0  0.00000000000E+00 -0.00000000000E+00 -0.29791268172E+02  0.29791268599E+02  0.50400000000E-02 0. -1.
        -24    2    1    2    0    0  0.00000000000E+00 -0.35527136788E-14  0.22994033829E+02  0.82576570662E+02  0.79310556867E+02 0.  0.
         66    2    3    3    0    0 -0.17860285559E+01  0.30396594652E+02  0.37914046585E+02  0.48668447607E+02  0.19999998889E+01 0.  0.
         13    1    3    3    0    0  0.17860285559E+01 -0.30396594652E+02 -0.14920012756E+02  0.33908123055E+02  0.10566000000E+00 0. -1.
         13    1    4    4    0    0  0.25540130733E+00  0.18873992204E+01  0.22425731967E+01  0.29441134868E+01  0.10566000000E+00 0. -1.
        -13    1    4    4    0    0 -0.11958901590E+01  0.20885148576E+02  0.26744860136E+02  0.33954650522E+02  0.10566000000E+00 0.  1.
         14    1    4    4    0    0 -0.84553970420E+00  0.76240468555E+01  0.89266132516E+01  0.11769683598E+02  0.00000000000E+00 0. -1.
<mgrwt>
<rscale>  0 0.79310557E+02</rscale>
<asrwt>0</asrwt>
<pdfrwt beam="1">  1        1 0.45832722E-02 0.79310557E+02</pdfrwt>
<pdfrwt beam="2">  1       -2 0.81208156E-02 0.79310557E+02</pdfrwt>
<totfact> 0.12383993E+05</totfact>
</mgrwt>
</event>
<event>
 8    1  0.7756875E-014  0.7274527E+02  0.7818608E-02  0.1350999E+00
         -2   -1    0    0    0  501 -0.00000000000E+00  0.00000000000E+00  0.11591944805E+02  0.11591945085E+02  0.25500000000E-02 0.  1.
          1   -1    0    0  501    0  0.00000000000E+00 -0.00000000000E+00 -0.11412827316E+03  0.11412827327E+03  0.50400000000E-02 0. -1.
        -24    2    1    2    0    0  0.00000000000E+00 -0.35527136788E-14 -0.10253632835E+03  0.12572021836E+03  0.72745272499E+02 0.  0.
         66    2    3    3    0    0 -0.18349805735E+02 -0.31368634398E+02 -0.50430261220E+02  0.62192586645E+02  0.19999980951E+01 0.  0.
         13    1    3    3    0    0  0.18349805735E+02  0.31368634398E+02 -0.52106067135E+02  0.63527631711E+02  0.10566000000E+00 0. -1.
         13    1    4    4    0    0 -0.87218264274E+00 -0.19729061483E+01 -0.33901094067E+01  0.40195854335E+01  0.10566000000E+00 0. -1.
        -13    1    4    4    0    0 -0.38656151300E+01 -0.55760936992E+01 -0.89717506716E+01  0.11248967749E+02  0.10566000000E+00 0.  1.
        -14    1    4    4    0    0 -0.13612007962E+02 -0.23819634550E+02 -0.38068401141E+02  0.46924033462E+02  0.00000000000E+00 0.  1.
<mgrwt>
<rscale>  0 0.72745272E+02</rscale>
<asrwt>0</asrwt>
<pdfrwt beam="1">  1        1 0.17558195E-01 0.72745272E+02</pdfrwt>
<pdfrwt beam="2">  1       -2 0.17833762E-02 0.72745272E+02</pdfrwt>
<totfact> 0.19384893E+05</totfact>
</mgrwt>
</event>
<event>
 8    1  0.7756875E-014  0.8341120E+02  0.7818608E-02  0.1319640E+00
          1   -1    0    0  501    0  0.00000000000E+00  0.00000000000E+00  0.23508915459E+03  0.23508915465E+03  0.50400000000E-02 0. -1.
         -2   -1    0    0    0  501 -0.00000000000E+00 -0.00000000000E+00 -0.73987123069E+01  0.73987127463E+01  0.25500000000E-02 0.  1.
        -24    2    1    2    0    0  0.35527136788E-14  0.00000000000E+00  0.22769044228E+03  0.24248786739E+03  0.83411200234E+02 0.  0.
         66    2    3    3    0    0  0.13362162561E+02 -0.34209690618E+02  0.56609499977E+02  0.67509153529E+02  0.20000004984E+01 0.  0.
         13    1    3    3    0    0 -0.13362162561E+02  0.34209690618E+02  0.17108094231E+03  0.17497871386E+03  0.10566000000E+00 0. -1.
         13    1    4    4    0    0  0.19285913594E+01 -0.43271153170E+01  0.69000953264E+01  0.83705358937E+01  0.10566000000E+00 0. -1.
        -13    1    4    4    0    0  0.23980696780E+01 -0.75032782366E+01  0.13245300325E+02  0.15411004744E+02  0.10566000000E+00 0.  1.
        -14    1    4    4    0    0  0.90355015237E+01 -0.22379297064E+02  0.36464104326E+02  0.43727612891E+02  0.00000000000E+00 0.  1.
<mgrwt>
<rscale>  0 0.83411200E+02</rscale>
<asrwt>0</asrwt>
<pdfrwt beam="1">  1        1 0.36167566E-01 0.83411200E+02</pdfrwt>
<pdfrwt beam="2">  1       -2 0.11382633E-02 0.83411200E+02</pdfrwt>
<totfact> 0.15403231E+05</totfact>
</mgrwt>
</event>
<event>
 8    1  0.7756875E-014  0.8193045E+02  0.7818608E-02  0.1323661E+00
          1   -1    0    0  501    0  0.00000000000E+00  0.00000000000E+00  0.51355257029E+02  0.51355257276E+02  0.50400000000E-02 0. -1.
         -2   -1    0    0    0  501 -0.00000000000E+00 -0.00000000000E+00 -0.32677271883E+02  0.32677271983E+02  0.25500000000E-02 0.  1.
        -24    2    1    2    0    0 -0.17763568394E-14  0.00000000000E+00  0.18677985145E+02  0.84032529259E+02  0.81930451265E+02 0.  0.
         66    2    3    3    0    0 -0.14494453418E+02  0.29545640641E+02 -0.15634164679E+02  0.36489192708E+02  0.20000046226E+01 0.  0.
         13    1    3    3    0    0  0.14494453418E+02 -0.29545640641E+02  0.34312149825E+02  0.47543336551E+02  0.10566000000E+00 0. -1.
         13    1    4    4    0    0 -0.71809167916E+01  0.14339857077E+02 -0.68811674769E+01  0.17451610150E+02  0.10566000000E+00 0. -1.
        -13    1    4    4    0    0 -0.91444880577E+00  0.18951150562E+01 -0.14815404228E+01  0.25756171599E+01  0.10566000000E+00 0.  1.
        -14    1    4    4    0    0 -0.63990878211E+01  0.13310668507E+02 -0.72714567797E+01  0.16461965398E+02  0.00000000000E+00 0.  1.
<mgrwt>
<rscale>  0 0.81930451E+02</rscale>
<asrwt>0</asrwt>
<pdfrwt beam="1">  1        1 0.79008088E-02 0.81930451E+02</pdfrwt>
<pdfrwt beam="2">  1       -2 0.50272726E-02 0.81930451E+02</pdfrwt>
<totfact> 0.12364090E+05</totfact>
</mgrwt>
</event>
<event>
 8    1  0.7756875E-014  0.8377949E+02  0.7818608E-02  0.1318655E+00
         -2   -1    0    0    0  501 -0.00000000000E+00  0.00000000000E+00  0.14300221983E+03  0.14300221986E+03  0.25500000000E-02 0.  1.
          1   -1    0    0  501    0  0.00000000000E+00 -0.00000000000E+00 -0.12270794044E+02  0.12270795079E+02  0.50400000000E-02 0. -1.
        -24    2    1    2    0    0  0.00000000000E+00  0.17763568394E-14  0.13073142579E+03  0.15527301493E+03  0.83779493183E+02 0.  0.
         66    2    3    3    0    0 -0.38587762195E+02  0.15748184461E+02  0.58053395932E+02  0.71492779240E+02  0.19999998162E+01 0.  0.
         13    1    3    3    0    0  0.38587762195E+02 -0.15748184461E+02  0.72678029857E+02  0.83780235694E+02  0.10566000000E+00 0. -1.
         13    1    4    4    0    0 -0.18017668489E+02  0.77397530645E+01  0.26927784220E+02  0.33311512759E+02  0.10566000000E+00 0. -1.
        -13    1    4    4    0    0 -0.52029010593E+01  0.25057078269E+01  0.87623539494E+01  0.10494701612E+02  0.10566000000E+00 0.  1.
         14    1    4    4    0    0 -0.15367192646E+02  0.55027235694E+01  0.22363257762E+02  0.27686564869E+02  0.00000000000E+00 0. -1.
<mgrwt>
<rscale>  0 0.83779493E+02</rscale>
<asrwt>0</asrwt>
<pdfrwt beam="1">  1        1 0.18878144E-02 0.83779493E+02</pdfrwt>
<pdfrwt beam="2">  1       -2 0.22000343E-01 0.83779493E+02</pdfrwt>
<totfact> 0.85222513E+04</totfact>
</mgrwt>
</event>
<event>
 8    1  0.7756875E-014  0.7987708E+02  0.7818608E-02  0.1329401E+00
          1   -1    0    0  501    0  0.00000000000E+00  0.00000000000E+00  0.65284875443E+02  0.65284875637E+02  0.50400000000E-02 0. -1.
         -2   -1    0    0    0  501 -0.00000000000E+00 -0.00000000000E+00 -0.24432718416E+02  0.24432718549E+02  0.25500000000E-02 0.  1.
        -24    2    1    2    0    0  0.00000000000E+00  0.00000000000E+00  0.40852157027E+02  0.89717594186E+02  0.79877080398E+02 0.  0.
         66    2    3    3    0    0 -0.88805675711E+01 -0.33647155478E+02 -0.15162948529E+01  0.34889750614E+02  0.19999989198E+01 0.  0.
         13    1    3    3    0    0  0.88805675711E+01  0.33647155478E+02  0.42368451880E+02  0.54827843573E+02  0.10566000000E+00 0. -1.
         13    1    4    4    0    0 -0.31328956746E+01 -0.14307940616E+02 -0.40635464453E+00  0.14652934454E+02  0.10566000000E+00 0. -1.
        -13    1    4    4    0    0 -0.47080079884E+01 -0.17108110993E+02 -0.10212748220E+01  0.17773771892E+02  0.10566000000E+00 0.  1.
        -14    1    4    4    0    0 -0.10396639081E+01 -0.22311038691E+01 -0.88665386384E-01  0.24630442682E+01  0.00000000000E+00 0.  1.
<mgrwt>
<rscale>  0 0.79877080E+02</rscale>
<asrwt>0</asrwt>
<pdfrwt beam="1">  1        1 0.10043827E-01 0.79877080E+02</pdfrwt>
<pdfrwt beam="2">  1       -2 0.37588798E-02 0.79877080E+02</pdfrwt>
<totfact> 0.13776951E+05</totfact>
</mgrwt>
</event>
<event>
 8    1  0.7756875E-014  0.8111158E+02  0.7818608E-02  0.1325926E+00
          1   -1    0    0  501    0  0.00000000000E+00  0.00000000000E+00  0.69544646751E+01  0.69544665013E+01  0.50400000000E-02 0. -1.
         -2   -1    0    0    0  501 -0.00000000000E+00 -0.00000000000E+00 -0.23650586666E+03  0.23650586667E+03  0.25500000000E-02 0.  1.
        -24    2    1    2    0    0  0.71054273576E-14 -0.35527136788E-14 -0.22955140199E+03  0.24346033318E+03  0.81111575478E+02 0.  0.
         66    2    3    3    0    0 -0.32703129526E+02  0.20592211762E+02 -0.15151250293E+03  0.15637638060E+03  0.19999999932E+01 0.  0.
         13    1    3    3    0    0  0.32703129526E+02 -0.20592211762E+02 -0.78038899056E+02  0.87083952574E+02  0.10566000000E+00 0. -1.
         13    1    4    4    0    0 -0.73038268305E+01  0.41749667565E+01 -0.35761200988E+02  0.36737595103E+02  0.10566000000E+00 0. -1.
        -13    1    4    4    0    0 -0.23195138948E+02  0.14897127139E+02 -0.10483841157E+03  0.10840222587E+03  0.10566000000E+00 0.  1.
        -14    1    4    4    0    0 -0.22041637480E+01  0.15201178662E+01 -0.10912890367E+02  0.11236559630E+02  0.00000000000E+00 0.  1.
<mgrwt>
<rscale>  0 0.81111575E+02</rscale>
<asrwt>0</asrwt>
<pdfrwt beam="1">  1        1 0.10699180E-02 0.81111575E+02</pdfrwt>
<pdfrwt beam="2">  1       -2 0.36385512E-01 0.81111575E+02</pdfrwt>
<totfact> 0.76369814E+04</totfact>
</mgrwt>
</event>
<event>
 8    1  0.7756875E-014  0.7961682E+02  0.7818608E-02  0.1330142E+00
         -2   -1    0    0    0  501 -0.00000000000E+00  0.00000000000E+00  0.68445428899E+03  0.68445428899E+03  0.25500000000E-02 0.  1.
          1   -1    0    0  501    0  0.00000000000E+00 -0.00000000000E+00 -0.23152864652E+01  0.23152919508E+01  0.50400000000E-02 0. -1.
        -24    2    1    2    0    0  0.00000000000E+00  0.00000000000E+00  0.68213900252E+03  0.68676958094E+03  0.79616823264E+02 0.  0.
         66    2    3    3    0    0 -0.30338296708E+02 -0.40008980435E+01  0.56057387338E+03  0.56141204739E+03  0.20000001627E+01 0.  0.
         13    1    3    3    0    0  0.30338296708E+02  0.40008980435E+01  0.12156512914E+03  0.12535753355E+03  0.10566000000E+00 0. -1.
         13    1    4    4    0    0 -0.11658298715E+02 -0.18484274404E+01  0.23059081044E+03  0.23089275787E+03  0.10566000000E+00 0. -1.
        -13    1    4    4    0    0 -0.47245818896E+01 -0.86394845252E+00  0.85557068903E+02  0.85691839076E+02  0.10566000000E+00 0.  1.
         14    1    4    4    0    0 -0.13955416103E+02 -0.12885221506E+01  0.24442599404E+03  0.24482745045E+03  0.00000000000E+00 0. -1.
<mgrwt>
<rscale>  0 0.79616823E+02</rscale>
<asrwt>0</asrwt>
<pdfrwt beam="1">  1        1 0.35619792E-03 0.79616823E+02</pdfrwt>
<pdfrwt beam="2">  1       -2 0.10530078E+00 0.79616823E+02</pdfrwt>
<totfact> 0.39127637E+04</totfact>
</mgrwt>
</event>
<event>
 8    1  0.7756875E-014  0.8045732E+02  0.7818608E-02  0.1327759E+00
          1   -1    0    0  501    0  0.00000000000E+00  0.00000000000E+00  0.47974528538E+01  0.47974555012E+01  0.50400000000E-02 0. -1.
         -2   -1    0    0    0  501 -0.00000000000E+00 -0.00000000000E+00 -0.33733417868E+03  0.33733417869E+03  0.25500000000E-02 0.  1.
        -24    2    1    2    0    0  0.35527136788E-14  0.17763568394E-14 -0.33253672583E+03  0.34213163419E+03  0.80457324657E+02 0.  0.
         66    2    3    3    0    0 -0.23447612331E+02 -0.11676085875E+02 -0.29606491017E+03  0.29722811532E+03  0.20000000612E+01 0.  0.
         13    1    3    3    0    0  0.23447612331E+02  0.11676085875E+02 -0.36471815664E+02  0.44903518873E+02  0.10566000000E+00 0. -1.
         13    1    4    4    0    0 -0.91738313309E+01 -0.45789691769E+01 -0.11115517225E+03  0.11162710075E+03  0.10566000000E+00 0. -1.
        -13    1    4    4    0    0 -0.79312918298E+01 -0.39752186498E+01 -0.94698871096E+02  0.95113590534E+02  0.10566000000E+00 0.  1.
         14    1    4    4    0    0 -0.63424891702E+01 -0.31218980480E+01 -0.90210866815E+02  0.90487424031E+02  0.00000000000E+00 0. -1.
<mgrwt>
<rscale>  0 0.80457325E+02</rscale>
<asrwt>0</asrwt>
<pdfrwt beam="1">  1        1 0.73807014E-03 0.80457325E+02</pdfrwt>
<pdfrwt beam="2">  1       -2 0.51897547E-01 0.80457325E+02</pdfrwt>
<totfact> 0.64786935E+04</totfact>
</mgrwt>
</event>
<event>
 8    1  0.7756875E-014  0.7945349E+02  0.7818608E-02  0.1330610E+00
          1   -1    0    0  501    0  0.00000000000E+00  0.00000000000E+00  0.15793654980E+03  0.15793654988E+03  0.50400000000E-02 0. -1.
         -2   -1    0    0    0  501 -0.00000000000E+00 -0.00000000000E+00 -0.99927112525E+01  0.99927115779E+01  0.25500000000E-02 0.  1.
        -24    2    1    2    0    0  0.35527136788E-14  0.00000000000E+00  0.14794383855E+03  0.16792926146E+03  0.79453492622E+02 0.  0.
         66    2    3    3    0    0  0.16164192419E+02  0.25750137996E+02  0.20056400888E+02  0.36477526595E+02  0.20000016413E+01 0.  0.
         13    1    3    3    0    0 -0.16164192419E+02 -0.25750137996E+02  0.12788743766E+03  0.13145173486E+03  0.10566000000E+00 0. -1.
         13    1    4    4    0    0  0.93297571205E+01  0.14354456505E+02  0.12052130204E+02  0.20937043630E+02  0.10566000000E+00 0. -1.
        -13    1    4    4    0    0  0.39450182097E+01  0.63998522635E+01  0.50475116934E+01  0.90559271198E+01  0.10566000000E+00 0.  1.
         14    1    4    4    0    0  0.28894170889E+01  0.49958292277E+01  0.29567589909E+01  0.64845558457E+01  0.00000000000E+00 0. -1.
<mgrwt>
<rscale>  0 0.79453493E+02</rscale>
<asrwt>0</asrwt>
<pdfrwt beam="1">  1        1 0.24297929E-01 0.79453493E+02</pdfrwt>
<pdfrwt beam="2">  1       -2 0.15373404E-02 0.79453493E+02</pdfrwt>
<totfact> 0.16234316E+05</totfact>
</mgrwt>
</event>
<event>
 8    1  0.7756875E-014  0.7997428E+02  0.7818608E-02  0.1329124E+00
          1   -1    0    0  501    0  0.00000000000E+00  0.00000000000E+00  0.41088057097E+01  0.41088088009E+01  0.50400000000E-02 0. -1.
         -2   -1    0    0    0  501 -0.00000000000E+00 -0.00000000000E+00 -0.38915702217E+03  0.38915702217E+03  0.25500000000E-02 0.  1.
        -24    2    1    2    0    0 -0.35527136788E-14  0.00000000000E+00 -0.38504821646E+03  0.39326583098E+03  0.79974275967E+02 0.  0.
         66    2    3    3    0    0 -0.27050856715E+02 -0.56922697809E+01 -0.33455329046E+03  0.33569935202E+03  0.20000006387E+01 0.  0.
         13    1    3    3    0    0  0.27050856715E+02  0.56922697809E+01 -0.50494925997E+02  0.57566478960E+02  0.10566000000E+00 0. -1.
         13    1    4    4    0    0 -0.10567281756E+02 -0.18006895191E+01 -0.11933384132E+03  0.11981438468E+03  0.10566000000E+00 0. -1.
        -13    1    4    4    0    0 -0.10862193230E+02 -0.26203464347E+01 -0.14294056401E+03  0.14337666986E+03  0.10566000000E+00 0.  1.
         14    1    4    4    0    0 -0.56213817294E+01 -0.12712338271E+01 -0.72278885132E+02  0.72508297483E+02  0.00000000000E+00 0. -1.
<mgrwt>
<rscale>  0 0.79974276E+02</rscale>
<asrwt>0</asrwt>
<pdfrwt beam="1">  1        1 0.63212451E-03 0.79974276E+02</pdfrwt>
<pdfrwt beam="2">  1       -2 0.59870282E-01 0.79974276E+02</pdfrwt>
<totfact> 0.60219632E+04</totfact>
</mgrwt>
</event>
<event>
 8    1  0.7756875E-014  0.7968539E+02  0.7818608E-02  0.1329947E+00
         -2   -1    0    0    0  501 -0.00000000000E+00  0.00000000000E+00  0.16541130697E+02  0.16541130893E+02  0.25500000000E-02 0.  1.
          1   -1    0    0  501    0  0.00000000000E+00 -0.00000000000E+00 -0.95969281091E+02  0.95969281223E+02  0.50400000000E-02 0. -1.
        -24    2    1    2    0    0  0.00000000000E+00  0.00000000000E+00 -0.79428150394E+02  0.11251041212E+03  0.79685392385E+02 0.  0.
         66    2    3    3    0    0  0.24029858551E+02 -0.28477910303E+01  0.49077867253E+01  0.24771563995E+02  0.19999991186E+01 0.  0.
         13    1    3    3    0    0 -0.24029858551E+02  0.28477910303E+01 -0.84335937119E+02  0.87738848121E+02  0.10566000000E+00 0. -1.
         13    1    4    4    0    0  0.13372340174E+02 -0.11788448664E+01  0.23667265361E+01  0.13631643902E+02  0.10566000000E+00 0. -1.
        -13    1    4    4    0    0  0.86618097916E+01 -0.12053391069E+01  0.16249484365E+01  0.88955838867E+01  0.10566000000E+00 0.  1.
         14    1    4    4    0    0  0.19957085857E+01 -0.46360705690E+00  0.91611175272E+00  0.22443362061E+01  0.00000000000E+00 0. -1.
<mgrwt>
<rscale>  0 0.79685392E+02</rscale>
<asrwt>0</asrwt>
<pdfrwt beam="1">  1        1 0.14764505E-01 0.79685392E+02</pdfrwt>
<pdfrwt beam="2">  1       -2 0.25447894E-02 0.79685392E+02</pdfrwt>
<totfact> 0.14754655E+05</totfact>
</mgrwt>
</event>
<event>
 8    1  0.7756875E-014  0.8016818E+02  0.7818608E-02  0.1328575E+00
          1   -1    0    0  501    0  0.00000000000E+00  0.00000000000E+00  0.13510204238E+03  0.13510204247E+03  0.50400000000E-02 0. -1.
         -2   -1    0    0    0  501 -0.00000000000E+00 -0.00000000000E+00 -0.11892744497E+02  0.11892744771E+02  0.25500000000E-02 0.  1.
        -24    2    1    2    0    0  0.35527136788E-14 -0.35527136788E-14  0.12320929788E+03  0.14699478724E+03  0.80168175683E+02 0.  0.
         66    2    3    3    0    0 -0.24570863795E+02 -0.15924036654E+02  0.11514433376E+02  0.31525933383E+02  0.20000021739E+01 0.  0.
         13    1    3    3    0    0  0.24570863795E+02  0.15924036654E+02  0.11169486451E+03  0.11546885386E+03  0.10566000000E+00 0. -1.
         13    1    4    4    0    0 -0.56275153146E+01 -0.43137562663E+01  0.21362850254E+01  0.74062338261E+01  0.10566000000E+00 0. -1.
        -13    1    4    4    0    0 -0.14536645591E+02 -0.90673974068E+01  0.73262752451E+01  0.18633765958E+02  0.10566000000E+00 0.  1.
         14    1    4    4    0    0 -0.44067028886E+01 -0.25428829814E+01  0.20518731059E+01  0.54859335986E+01  0.00000000000E+00 0. -1.
<mgrwt>
<rscale>  0 0.80168176E+02</rscale>
<asrwt>0</asrwt>
<pdfrwt beam="1">  1        1 0.20784931E-01 0.80168176E+02</pdfrwt>
<pdfrwt beam="2">  1       -2 0.18296529E-02 0.80168176E+02</pdfrwt>
<totfact> 0.15402953E+05</totfact>
</mgrwt>
</event>
<event>
 8    1  0.7756875E-014  0.8230475E+02  0.7818608E-02  0.1322635E+00
          1   -1    0    0  501    0  0.00000000000E+00  0.00000000000E+00  0.64936489562E+01  0.64936509121E+01  0.50400000000E-02 0. -1.
         -2   -1    0    0    0  501 -0.00000000000E+00 -0.00000000000E+00 -0.26079602539E+03  0.26079602541E+03  0.25500000000E-02 0.  1.
        -24    2    1    2    0    0  0.00000000000E+00 -0.27755575616E-16 -0.25430237644E+03  0.26728967632E+03  0.82304753232E+02 0.  0.
         66    2    3    3    0    0  0.40580210414E+02  0.17875958352E+00 -0.10550677702E+03  0.11305956576E+03  0.19999952289E+01 0.  0.
         13    1    3    3    0    0 -0.40580210414E+02 -0.17875958352E+00 -0.14879559942E+03  0.15423011056E+03  0.10566000000E+00 0. -1.
         13    1    4    4    0    0  0.27438597840E+01 -0.19664343446E+00 -0.74142777422E+01  0.79088629795E+01  0.10566000000E+00 0. -1.
        -13    1    4    4    0    0  0.19702019436E+02 -0.40718112637E+00 -0.52655824215E+02  0.56222614259E+02  0.10566000000E+00 0.  1.
         14    1    4    4    0    0  0.18134331193E+02  0.78258414435E+00 -0.45436675062E+02  0.48928088522E+02  0.00000000000E+00 0. -1.
<mgrwt>
<rscale>  0 0.82304753E+02</rscale>
<asrwt>0</asrwt>
<pdfrwt beam="1">  1        1 0.99902327E-03 0.82304753E+02</pdfrwt>
<pdfrwt beam="2">  1       -2 0.40122457E-01 0.82304753E+02</pdfrwt>
<totfact> 0.70203337E+04</totfact>
</mgrwt>
</event>
<event>
 8    1  0.7756875E-014  0.8333739E+02  0.7818608E-02  0.1319839E+00
         -2   -1    0    0    0  501 -0.00000000000E+00  0.00000000000E+00  0.19135670568E+03  0.19135670569E+03  0.25500000000E-02 0.  1.
          1   -1    0    0  501    0  0.00000000000E+00 -0.00000000000E+00 -0.90735258042E+01  0.90735272040E+01  0.50400000000E-02 0. -1.
        -24    2    1    2    0    0 -0.35527136788E-14 -0.88817841970E-15  0.18228317987E+03  0.20043023290E+03  0.83337390138E+02 0.  0.
         66    2    3    3    0    0  0.23972265933E+02  0.51931861040E+01  0.17213494176E+03  0.17388524059E+03  0.20000009145E+01 0.  0.
         13    1    3    3    0    0 -0.23972265933E+02 -0.51931861040E+01  0.10148238112E+02  0.26544992310E+02  0.10566000000E+00 0. -1.
         13    1    4    4    0    0  0.56421792661E+01  0.84009325185E+00  0.39721419639E+02  0.40129070332E+02  0.10566000000E+00 0. -1.
        -13    1    4    4    0    0  0.13138677586E+02  0.24551150783E+01  0.95654368702E+02  0.96583755645E+02  0.10566000000E+00 0.  1.
         14    1    4    4    0    0  0.51914090811E+01  0.18979777739E+01  0.36759153419E+02  0.37172414610E+02  0.00000000000E+00 0. -1.
<mgrwt>
<rscale>  0 0.83337390E+02</rscale>
<asrwt>0</asrwt>
<pdfrwt beam="1">  1        1 0.13959271E-02 0.83337390E+02</pdfrwt>
<pdfrwt beam="2">  1       -2 0.29439495E-01 0.83337390E+02</pdfrwt>
<totfact> 0.77918072E+04</totfact>
</mgrwt>
</event>
<event>
 8    1  0.7756875E-014  0.7942227E+02  0.7818608E-02  0.1330699E+00
          1   -1    0    0  501    0  0.00000000000E+00  0.00000000000E+00  0.20731879454E+03  0.20731879460E+03  0.50400000000E-02 0. -1.
         -2   -1    0    0    0  501 -0.00000000000E+00 -0.00000000000E+00 -0.76065184044E+01  0.76065188318E+01  0.25500000000E-02 0.  1.
        -24    2    1    2    0    0  0.00000000000E+00  0.00000000000E+00  0.19971227614E+03  0.21492531343E+03  0.79422270901E+02 0.  0.
         66    2    3    3    0    0  0.38112099832E+02  0.11064703689E+02  0.10018309769E+03  0.10777575278E+03  0.20000010030E+01 0.  0.
         13    1    3    3    0    0 -0.38112099832E+02 -0.11064703689E+02  0.99529178450E+02  0.10714956065E+03  0.10566000000E+00 0. -1.
         13    1    4    4    0    0  0.38695579314E+01  0.13041207144E+01  0.10272534878E+02  0.11054878845E+02  0.10566000000E+00 0. -1.
        -13    1    4    4    0    0  0.24381660170E+02  0.77815626411E+01  0.64721896840E+02  0.69598514096E+02  0.10566000000E+00 0.  1.
        -14    1    4    4    0    0  0.98608817299E+01  0.19790203331E+01  0.25188665969E+02  0.27122359840E+02  0.00000000000E+00 0.  1.
<mgrwt>
<rscale>  0 0.79422271E+02</rscale>
<asrwt>0</asrwt>
<pdfrwt beam="1">  1        1 0.31895201E-01 0.79422271E+02</pdfrwt>
<pdfrwt beam="2">  1       -2 0.11702336E-02 0.79422271E+02</pdfrwt>
<totfact> 0.17116672E+05</totfact>
</mgrwt>
</event>
<event>
 8    1  0.7756875E-014  0.7797017E+02  0.7818608E-02  0.1334913E+00
         -2   -1    0    0    0  501 -0.00000000000E+00  0.00000000000E+00  0.17887548441E+03  0.17887548443E+03  0.25500000000E-02 0.  1.
          1   -1    0    0  501    0  0.00000000000E+00 -0.00000000000E+00 -0.84966185906E+01  0.84966200854E+01  0.50400000000E-02 0. -1.
        -24    2    1    2    0    0 -0.35527136788E-14  0.00000000000E+00  0.17037886582E+03  0.18737210451E+03  0.77970171424E+02 0.  0.
         66    2    3    3    0    0 -0.19300045724E+02  0.19100609446E+02  0.15238277594E+03  0.15479610934E+03  0.20000047495E+01 0.  0.
         13    1    3    3    0    0  0.19300045724E+02 -0.19100609446E+02  0.17996089877E+02  0.32575995166E+02  0.10566000000E+00 0. -1.
         13    1    4    4    0    0 -0.12364529824E+02  0.11803667134E+02  0.10016702428E+03  0.10161521575E+03  0.10566000000E+00 0. -1.
        -13    1    4    4    0    0 -0.46131194619E+01  0.49223235232E+01  0.36424958165E+02  0.37044552655E+02  0.10566000000E+00 0.  1.
         14    1    4    4    0    0 -0.23223964389E+01  0.23746187885E+01  0.15790793498E+02  0.16136340940E+02  0.00000000000E+00 0. -1.
<mgrwt>
<rscale>  0 0.77970171E+02</rscale>
<asrwt>0</asrwt>
<pdfrwt beam="1">  1        1 0.13071722E-02 0.77970171E+02</pdfrwt>
<pdfrwt beam="2">  1       -2 0.27519307E-01 0.77970171E+02</pdfrwt>
<totfact> 0.94938663E+04</totfact>
</mgrwt>
</event>
<event>
 8    1  0.7756875E-014  0.8472786E+02  0.7818608E-02  0.1316146E+00
         -2   -1    0    0    0  501 -0.00000000000E+00  0.00000000000E+00  0.74971809019E+01  0.74971813355E+01  0.25500000000E-02 0.  1.
          1   -1    0    0  501    0  0.00000000000E+00 -0.00000000000E+00 -0.23938366401E+03  0.23938366406E+03  0.50400000000E-02 0. -1.
        -24    2    1    2    0    0  0.00000000000E+00  0.00000000000E+00 -0.23188648311E+03  0.24688084540E+03  0.84727863047E+02 0.  0.
         66    2    3    3    0    0  0.32774477851E+02 -0.73153665717E+01 -0.40866587918E+02  0.52931644552E+02  0.20000001223E+01 0.  0.
         13    1    3    3    0    0 -0.32774477851E+02  0.73153665717E+01 -0.19101989519E+03  0.19394920085E+03  0.10566000000E+00 0. -1.
         13    1    4    4    0    0  0.23004047164E+02 -0.48887426924E+01 -0.27556436628E+02  0.36227811895E+02  0.10566000000E+00 0. -1.
        -13    1    4    4    0    0  0.85546882547E+01 -0.18803813698E+01 -0.11577261903E+02  0.14517667941E+02  0.10566000000E+00 0.  1.
         14    1    4    4    0    0  0.12157424318E+01 -0.54624250950E+00 -0.17328893868E+01  0.21861647162E+01  0.00000000000E+00 0. -1.
<mgrwt>
<rscale>  0 0.84727863E+02</rscale>
<asrwt>0</asrwt>
<pdfrwt beam="1">  1        1 0.36828250E-01 0.84727863E+02</pdfrwt>
<pdfrwt beam="2">  1       -2 0.11534127E-02 0.84727863E+02</pdfrwt>
<totfact> 0.14827445E+05</totfact>
</mgrwt>
</event>
<event>
 8    1  0.7756875E-014  0.8085316E+02  0.7818608E-02  0.1326648E+00
          1   -1    0    0  501    0  0.00000000000E+00  0.00000000000E+00  0.96118431254E+02  0.96118431387E+02  0.50400000000E-02 0. -1.
         -2   -1    0    0    0  501 -0.00000000000E+00 -0.00000000000E+00 -0.17003068948E+02  0.17003069139E+02  0.25500000000E-02 0.  1.
        -24    2    1    2    0    0  0.71054273576E-14 -0.44408920985E-15  0.79115362307E+02  0.11312150053E+03  0.80853159050E+02 0.  0.
         66    2    3    3    0    0 -0.37475086480E+02  0.33022236619E+01  0.18971029224E+02  0.42180406978E+02  0.19999988009E+01 0.  0.
         13    1    3    3    0    0  0.37475086480E+02 -0.33022236619E+01  0.60144333082E+02  0.70941093548E+02  0.10566000000E+00 0. -1.
         13    1    4    4    0    0 -0.12238927198E+02  0.58867113473E+00  0.56159730135E+01  0.13479176146E+02  0.10566000000E+00 0. -1.
        -13    1    4    4    0    0 -0.18381299069E+02  0.24567596297E+01  0.97775978110E+01  0.20964741981E+02  0.10566000000E+00 0.  1.
        -14    1    4    4    0    0 -0.68548602134E+01  0.25679289743E+00  0.35774583999E+01  0.77364888509E+01  0.00000000000E+00 0.  1.
<mgrwt>
<rscale>  0 0.80853159E+02</rscale>
<asrwt>0</asrwt>
<pdfrwt beam="1">  1        1 0.14787451E-01 0.80853159E+02</pdfrwt>
<pdfrwt beam="2">  1       -2 0.26158568E-02 0.80853159E+02</pdfrwt>
<totfact> 0.14188484E+05</totfact>
</mgrwt>
</event>
<event>
 8    1  0.8047238E-014  0.7887128E+02  0.7818608E-02  0.1332285E+00
          1   -1    0    0  501    0  0.00000000000E+00  0.00000000000E+00  0.13237794120E+03  0.13237794130E+03  0.50400000000E-02 0. -1.
         -2   -1    0    0    0  501 -0.00000000000E+00 -0.00000000000E+00 -0.11747951205E+02  0.11747951482E+02  0.25500000000E-02 0.  1.
        -24    2    1    2    0    0  0.88817841970E-15 -0.35527136788E-14  0.12062999000E+03  0.14412589278E+03  0.78871277934E+02 0.  0.
         66    2    3    3    0    0  0.64547866228E+01  0.30018833619E+02  0.15207622697E+02  0.34322972357E+02  0.20000002802E+01 0.  0.
         13    1    3    3    0    0 -0.64547866228E+01 -0.30018833619E+02  0.10542236730E+03  0.10980292042E+03  0.10566000000E+00 0. -1.
         13    1    4    4    0    0  0.28153548498E+01  0.14063536369E+02  0.65518995128E+01  0.15768570937E+02  0.10566000000E+00 0. -1.
        -13    1    4    4    0    0  0.29904513565E+01  0.14586365979E+02  0.77010444144E+01  0.16763714412E+02  0.10566000000E+00 0.  1.
         14    1    4    4    0    0  0.64898041645E+00  0.13689312713E+01  0.95467876956E+00  0.17906870077E+01  0.00000000000E+00 0. -1.
<mgrwt>
<rscale>  0 0.78871278E+02</rscale>
<asrwt>0</asrwt>
<pdfrwt beam="1">  1        1 0.20365837E-01 0.78871278E+02</pdfrwt>
<pdfrwt beam="2">  1       -2 0.18073771E-02 0.78871278E+02</pdfrwt>
<totfact> 0.16031781E+05</totfact>
</mgrwt>
</event>
<event>
 8    1  0.7756875E-014  0.8882559E+02  0.7818608E-02  0.1305721E+00
          1   -1    0    0  501    0  0.00000000000E+00  0.00000000000E+00  0.27803934868E+03  0.27803934873E+03  0.50400000000E-02 0. -1.
         -2   -1    0    0    0  501 -0.00000000000E+00 -0.00000000000E+00 -0.70943055158E+01  0.70943059741E+01  0.25500000000E-02 0.  1.
        -24    2    1    2    0    0  0.00000000000E+00  0.88817841970E-15  0.27094504317E+03  0.28513365470E+03  0.88825585432E+02 0.  0.
         66    2    3    3    0    0  0.41407918565E+02 -0.42019241411E+01  0.85996131955E+02  0.95559440187E+02  0.20000028454E+01 0.  0.
         13    1    3    3    0    0 -0.41407918565E+02  0.42019241411E+01  0.18494891121E+03  0.18957421452E+03  0.10566000000E+00 0. -1.
         13    1    4    4    0    0  0.29867661017E+01 -0.34252394421E+00  0.51357770405E+01  0.59519294556E+01  0.10566000000E+00 0. -1.
        -13    1    4    4    0    0  0.20149574174E+02 -0.19851716620E+01  0.42447307337E+02  0.47029047515E+02  0.10566000000E+00 0.  1.
         14    1    4    4    0    0  0.18271578289E+02 -0.18742285348E+01  0.38413047577E+02  0.42578463217E+02  0.00000000000E+00 0. -1.
<mgrwt>
<rscale>  0 0.88825585E+02</rscale>
<asrwt>0</asrwt>
<pdfrwt beam="1">  1        1 0.42775286E-01 0.88825585E+02</pdfrwt>
<pdfrwt beam="2">  1       -2 0.10914316E-02 0.88825585E+02</pdfrwt>
<totfact> 0.13467930E+05</totfact>
</mgrwt>
</event>
<event>
 8    1  0.7756875E-014  0.8007685E+02  0.7818608E-02  0.1328833E+00
          1   -1    0    0  501    0  0.00000000000E+00  0.00000000000E+00  0.64165800845E+01  0.64165820638E+01  0.50400000000E-02 0. -1.
         -2   -1    0    0    0  501 -0.00000000000E+00 -0.00000000000E+00 -0.24983329909E+03  0.24983329910E+03  0.25500000000E-02 0.  1.
        -24    2    1    2    0    0  0.35527136788E-14 -0.35527136788E-14 -0.24341671901E+03  0.25624988117E+03  0.80076853751E+02 0.  0.
         66    2    3    3    0    0  0.25690509421E+02 -0.27397559838E+02 -0.77623144556E+02  0.86255325218E+02  0.19999995829E+01 0.  0.
         13    1    3    3    0    0 -0.25690509421E+02  0.27397559838E+02 -0.16579357445E+03  0.16999455595E+03  0.10566000000E+00 0. -1.
         13    1    4    4    0    0  0.34285653399E+01 -0.35454254406E+01 -0.90128354287E+01  0.10274603075E+02  0.10566000000E+00 0. -1.
        -13    1    4    4    0    0  0.10156591909E+02 -0.10150598806E+02 -0.30615933679E+02  0.33816232410E+02  0.10566000000E+00 0.  1.
        -14    1    4    4    0    0  0.12105352173E+02 -0.13701535591E+02 -0.37994375448E+02  0.42164489734E+02  0.00000000000E+00 0.  1.
<mgrwt>
<rscale>  0 0.80076854E+02</rscale>
<asrwt>0</asrwt>
<pdfrwt beam="1">  1        1 0.98716652E-03 0.80076854E+02</pdfrwt>
<pdfrwt beam="2">  1       -2 0.38435885E-01 0.80076854E+02</pdfrwt>
<totfact> 0.76948632E+04</totfact>
</mgrwt>
</event>
<event>
 8    1  0.7756875E-014  0.8098726E+02  0.7818608E-02  0.1326273E+00
         -2   -1    0    0    0  501 -0.00000000000E+00  0.00000000000E+00  0.98433602574E+02  0.98433602607E+02  0.25500000000E-02 0.  1.
          1   -1    0    0  501    0  0.00000000000E+00 -0.00000000000E+00 -0.16658275870E+02  0.16658276633E+02  0.50400000000E-02 0. -1.
        -24    2    1    2    0    0  0.00000000000E+00  0.00000000000E+00  0.81775326704E+02  0.11509187924E+03  0.80987262020E+02 0.  0.
         66    2    3    3    0    0 -0.30475122797E+02  0.21526534718E+02  0.63183851772E+02  0.73405203784E+02  0.20000028242E+01 0.  0.
         13    1    3    3    0    0  0.30475122797E+02 -0.21526534718E+02  0.18591474931E+02  0.41686675456E+02  0.10566000000E+00 0. -1.
         13    1    4    4    0    0 -0.23614865631E+01  0.15360386681E+01  0.40257578786E+01  0.49146641910E+01  0.10566000000E+00 0. -1.
        -13    1    4    4    0    0 -0.48954770811E+01  0.40034732238E+01  0.10791545989E+02  0.12508482025E+02  0.10566000000E+00 0.  1.
        -14    1    4    4    0    0 -0.23218159152E+02  0.15987022826E+02  0.48366547905E+02  0.55982057568E+02  0.00000000000E+00 0.  1.
<mgrwt>
<rscale>  0 0.80987262E+02</rscale>
<asrwt>0</asrwt>
<pdfrwt beam="1">  1        1 0.25628117E-02 0.80987262E+02</pdfrwt>
<pdfrwt beam="2">  1       -2 0.15143631E-01 0.80987262E+02</pdfrwt>
<totfact> 0.10325002E+05</totfact>
</mgrwt>
</event>
<event>
 8    1  0.7756875E-014  0.8982544E+02  0.7818608E-02  0.1303275E+00
         -2   -1    0    0    0  501 -0.00000000000E+00  0.00000000000E+00  0.81297060655E+01  0.81297064654E+01  0.25500000000E-02 0.  1.
          1   -1    0    0  501    0  0.00000000000E+00 -0.00000000000E+00 -0.24812118104E+03  0.24812118109E+03  0.50400000000E-02 0. -1.
        -24    2    1    2    0    0  0.44408920985E-15 -0.71054273576E-14 -0.23999147497E+03  0.25625088755E+03  0.89825438006E+02 0.  0.
         66    2    3    3    0    0  0.20190951047E+01 -0.37068075955E+02 -0.48052923737E+02  0.60755267106E+02  0.20000003557E+01 0.  0.
         13    1    3    3    0    0 -0.20190951047E+01  0.37068075955E+02 -0.19193855124E+03  0.19549562045E+03  0.10566000000E+00 0. -1.
         13    1    4    4    0    0  0.92449222412E+00 -0.21364305793E+02 -0.28058818399E+02  0.35278842127E+02  0.10566000000E+00 0. -1.
        -13    1    4    4    0    0  0.11720901548E+01 -0.81739291654E+01 -0.10533376795E+02  0.13384696638E+02  0.10566000000E+00 0.  1.
         14    1    4    4    0    0 -0.77487274232E-01 -0.75298409968E+01 -0.94607285432E+01  0.12091728341E+02  0.00000000000E+00 0. -1.
<mgrwt>
<rscale>  0 0.89825438E+02</rscale>
<asrwt>0</asrwt>
<pdfrwt beam="1">  1        1 0.38172484E-01 0.89825438E+02</pdfrwt>
<pdfrwt beam="2">  1       -2 0.12507242E-02 0.89825438E+02</pdfrwt>
<totfact> 0.12776626E+05</totfact>
</mgrwt>
</event>
<event>
 8    1  0.7756875E-014  0.7952239E+02  0.7818608E-02  0.1330412E+00
          1   -1    0    0  501    0  0.00000000000E+00  0.00000000000E+00  0.63797554863E+01  0.63797574771E+01  0.50400000000E-02 0. -1.
         -2   -1    0    0    0  501 -0.00000000000E+00 -0.00000000000E+00 -0.24780765656E+03  0.24780765658E+03  0.25500000000E-02 0.  1.
        -24    2    1    2    0    0 -0.35527136788E-14  0.00000000000E+00 -0.24142790108E+03  0.25418741405E+03  0.79522387067E+02 0.  0.
         66    2    3    3    0    0  0.27074743724E+02  0.49269427577E+01 -0.21241278622E+03  0.21419735820E+03  0.19999997779E+01 0.  0.
         13    1    3    3    0    0 -0.27074743724E+02 -0.49269427577E+01 -0.29015114858E+02  0.39990055850E+02  0.10566000000E+00 0. -1.
         13    1    4    4    0    0  0.35727494968E+01  0.55425464031E+00 -0.25339452782E+02  0.25596303806E+02  0.10566000000E+00 0. -1.
        -13    1    4    4    0    0  0.48657898985E+00 -0.12441259076E-01 -0.27648718648E+01  0.28093761519E+01  0.10566000000E+00 0. -1.
        -14    1    4    4    0    0  0.23015415238E+02  0.43851293765E+01 -0.18430846157E+03  0.18579167825E+03  0.00000000000E+00 0.  1.
<mgrwt>
<rscale>  0 0.79522387E+02</rscale>
<asrwt>0</asrwt>
<pdfrwt beam="1">  1        1 0.98150119E-03 0.79522387E+02</pdfrwt>
<pdfrwt beam="2">  1       -2 0.38124247E-01 0.79522387E+02</pdfrwt>
<totfact> 0.78645190E+04</totfact>
</mgrwt>
</event>
<event>
 8    1  0.7756875E-014  0.8162761E+02  0.7818608E-02  0.1324495E+00
          1   -1    0    0  501    0  0.00000000000E+00  0.00000000000E+00  0.95300871293E+02  0.95300871427E+02  0.50400000000E-02 0. -1.
         -2   -1    0    0    0  501 -0.00000000000E+00 -0.00000000000E+00 -0.17479030463E+02  0.17479030649E+02  0.25500000000E-02 0.  1.
        -24    2    1    2    0    0  0.00000000000E+00  0.00000000000E+00  0.77821840831E+02  0.11277990208E+03  0.81627614211E+02 0.  0.
         66    2    3    3    0    0 -0.18929010368E+02 -0.41813387218E+01 -0.10650478160E+02  0.22208640526E+02  0.20000004952E+01 0.  0.
         13    1    3    3    0    0  0.18929010368E+02  0.41813387218E+01  0.88472318990E+02  0.90571261549E+02  0.10566000000E+00 0. -1.
         13    1    4    4    0    0 -0.49703129929E+01 -0.10513295503E+01 -0.20786793818E+01  0.54901163083E+01  0.10566000000E+00 0. -1.
        -13    1    4    4    0    0 -0.22398131392E+01 -0.76586299777E-01 -0.13629022335E+01  0.26251275957E+01  0.10566000000E+00 0.  1.
        -14    1    4    4    0    0 -0.11718884236E+02 -0.30534228717E+01 -0.72088965446E+01  0.14093396622E+02  0.00000000000E+00 0.  1.
<mgrwt>
<rscale>  0 0.81627614E+02</rscale>
<asrwt>0</asrwt>
<pdfrwt beam="1">  1        1 0.14661672E-01 0.81627614E+02</pdfrwt>
<pdfrwt beam="2">  1       -2 0.26890817E-02 0.81627614E+02</pdfrwt>
<totfact> 0.13806531E+05</totfact>
</mgrwt>
</event>
<event>
 8    1  0.7756875E-014  0.8000702E+02  0.7818608E-02  0.1329032E+00
          1   -1    0    0  501    0  0.00000000000E+00  0.00000000000E+00  0.23531578688E+03  0.23531578694E+03  0.50400000000E-02 0. -1.
         -2   -1    0    0    0  501 -0.00000000000E+00 -0.00000000000E+00 -0.68005675922E+01  0.68005680703E+01  0.25500000000E-02 0.  1.
        -24    2    1    2    0    0  0.88817841970E-15  0.00000000000E+00  0.22851521929E+03  0.24211635501E+03  0.80007024157E+02 0.  0.
         66    2    3    3    0    0 -0.65794240253E+01 -0.39305431828E+02  0.10472561501E+03  0.11206988991E+03  0.19999984938E+01 0.  0.
         13    1    3    3    0    0  0.65794240253E+01  0.39305431828E+02  0.12378960428E+03  0.13004646510E+03  0.10566000000E+00 0. -1.
         13    1    4    4    0    0 -0.96018203565E+00 -0.55274006504E+01  0.13436147188E+02  0.14560745956E+02  0.10566000000E+00 0. -1.
        -13    1    4    4    0    0 -0.54726189608E+01 -0.33257392556E+02  0.90229541892E+02  0.96319183510E+02  0.10566000000E+00 0.  1.
        -14    1    4    4    0    0 -0.14662302884E+00 -0.52063862132E+00  0.10599259250E+01  0.11899604418E+01  0.00000000000E+00 0.  1.
<mgrwt>
<rscale>  0 0.80007024E+02</rscale>
<asrwt>0</asrwt>
<pdfrwt beam="1">  1        1 0.36202431E-01 0.80007024E+02</pdfrwt>
<pdfrwt beam="2">  1       -2 0.10462411E-02 0.80007024E+02</pdfrwt>
<totfact> 0.17206916E+05</totfact>
</mgrwt>
</event>
<event>
 8    1  0.7756875E-014  0.8022142E+02  0.7818608E-02  0.1328424E+00
         -2   -1    0    0    0  501 -0.00000000000E+00  0.00000000000E+00  0.10260947010E+02  0.10260947327E+02  0.25500000000E-02 0.  1.
          1   -1    0    0  501    0  0.00000000000E+00 -0.00000000000E+00 -0.15679537628E+03  0.15679537637E+03  0.50400000000E-02 0. -1.
        -24    2    1    2    0    0 -0.17763568394E-14 -0.71054273576E-14 -0.14653442927E+03  0.16705632369E+03  0.80221420598E+02 0.  0.
         66    2    3    3    0    0  0.10979339653E+02  0.38497689677E+02 -0.69021533594E+02  0.79815976544E+02  0.20000005831E+01 0.  0.
         13    1    3    3    0    0 -0.10979339653E+02 -0.38497689677E+02 -0.77512895681E+02  0.87240347148E+02  0.10566000000E+00 0. -1.
         13    1    4    4    0    0  0.41242935394E+01  0.14028215067E+02 -0.23412743406E+02  0.27603773890E+02  0.10566000000E+00 0.  1.
        -13    1    4    4    0    0  0.17742972224E+01  0.66174920081E+01 -0.12633687424E+02  0.14372214619E+02  0.10566000000E+00 0.  1.
         14    1    4    4    0    0  0.50807488913E+01  0.17851982602E+02 -0.32975102764E+02  0.37839988034E+02  0.00000000000E+00 0. -1.
<mgrwt>
<rscale>  0 0.80221421E+02</rscale>
<asrwt>0</asrwt>
<pdfrwt beam="1">  1        1 0.24122364E-01 0.80221421E+02</pdfrwt>
<pdfrwt beam="2">  1       -2 0.15786074E-02 0.80221421E+02</pdfrwt>
<totfact> 0.15801594E+05</totfact>
</mgrwt>
</event>
<event>
 8    1  0.7756875E-014  0.7783841E+02  0.7818608E-02  0.1335300E+00
         -2   -1    0    0    0  501 -0.00000000000E+00  0.00000000000E+00  0.34337496543E+02  0.34337496638E+02  0.25500000000E-02 0.  1.
          1   -1    0    0  501    0  0.00000000000E+00 -0.00000000000E+00 -0.44112253468E+02  0.44112253756E+02  0.50400000000E-02 0. -1.
        -24    2    1    2    0    0  0.17763568394E-14  0.00000000000E+00 -0.97747569247E+01  0.78449750394E+02  0.77838406098E+02 0.  0.
         66    2    3    3    0    0  0.12660260915E+02 -0.25412125329E+02  0.21900907361E+02  0.35912505630E+02  0.19999993012E+01 0.  0.
         13    1    3    3    0    0 -0.12660260915E+02  0.25412125329E+02 -0.31675664286E+02  0.42537244764E+02  0.10566000000E+00 0. -1.
         13    1    4    4    0    0  0.44184072350E+01 -0.10280910747E+02  0.82645831104E+01  0.13911647865E+02  0.10566000000E+00 0. -1.
        -13    1    4    4    0    0  0.15615822674E+01 -0.21322626465E+01  0.22866516449E+01  0.34964300296E+01  0.10566000000E+00 0.  1.
        -14    1    4    4    0    0  0.66802714121E+01 -0.12998951935E+02  0.11349672606E+02  0.18504427735E+02  0.00000000000E+00 0.  1.
<mgrwt>
<rscale>  0 0.77838406E+02</rscale>
<asrwt>0</asrwt>
<pdfrwt beam="1">  1        1 0.67865006E-02 0.77838406E+02</pdfrwt>
<pdfrwt beam="2">  1       -2 0.52826918E-02 0.77838406E+02</pdfrwt>
<totfact> 0.13924788E+05</totfact>
</mgrwt>
</event>
<event>
 8    1  0.7756875E-014  0.8026863E+02  0.7818608E-02  0.1328291E+00
          1   -1    0    0  501    0  0.00000000000E+00  0.00000000000E+00  0.47393162492E+01  0.47393189291E+01  0.50400000000E-02 0. -1.
         -2   -1    0    0    0  501 -0.00000000000E+00 -0.00000000000E+00 -0.33987236681E+03  0.33987236682E+03  0.25500000000E-02 0.  1.
        -24    2    1    2    0    0  0.00000000000E+00  0.35527136788E-14 -0.33513305056E+03  0.34461168575E+03  0.80268626352E+02 0.  0.
         66    2    3    3    0    0 -0.32231841360E+02 -0.21412756756E+02 -0.21297561728E+03  0.21647173328E+03  0.20000008322E+01 0.  0.
         13    1    3    3    0    0  0.32231841360E+02  0.21412756756E+02 -0.12215743328E+03  0.12813995247E+03  0.10566000000E+00 0. -1.
         13    1    4    4    0    0 -0.17146829889E+01 -0.13218025897E+01 -0.13294778029E+02  0.13470322443E+02  0.10566000000E+00 0. -1.
        -13    1    4    4    0    0 -0.28890308498E+02 -0.18632470151E+02 -0.18699870908E+03  0.19013244655E+03  0.10566000000E+00 0.  1.
        -14    1    4    4    0    0 -0.16268498734E+01 -0.14584840156E+01 -0.12682130175E+02  0.12868964290E+02  0.00000000000E+00 0.  1.
<mgrwt>
<rscale>  0 0.80268626E+02</rscale>
<asrwt>0</asrwt>
<pdfrwt beam="1">  1        1 0.72912606E-03 0.80268626E+02</pdfrwt>
<pdfrwt beam="2">  1       -2 0.52288037E-01 0.80268626E+02</pdfrwt>
<totfact> 0.64892661E+04</totfact>
</mgrwt>
</event>
<event>
 8    1  0.7756875E-014  0.7322180E+02  0.7818608E-02  0.1349468E+00
          1   -1    0    0  501    0  0.00000000000E+00  0.00000000000E+00  0.50918049718E+01  0.50918074661E+01  0.50400000000E-02 0. -1.
         -2   -1    0    0    0  501 -0.00000000000E+00 -0.00000000000E+00 -0.26323821521E+03  0.26323821522E+03  0.25500000000E-02 0.  1.
        -24    2    1    2    0    0 -0.17763568394E-14  0.00000000000E+00 -0.25814641023E+03  0.26833002268E+03  0.73221799739E+02 0.  0.
         66    2    3    3    0    0 -0.15417811753E+02 -0.91203217220E+01 -0.24606220190E+03  0.24672149560E+03  0.20000004229E+01 0.  0.
         13    1    3    3    0    0  0.15417811753E+02  0.91203217220E+01 -0.12084208338E+02  0.21608527084E+02  0.10566000000E+00 0. -1.
         13    1    4    4    0    0 -0.53832893782E+00 -0.61601781968E+00 -0.81739890441E+01  0.82155058839E+01  0.10566000000E+00 0.  1.
        -13    1    4    4    0    0 -0.94645421277E+01 -0.57920225514E+01 -0.15197535230E+03  0.15237993291E+03  0.10566000000E+00 0.  1.
         14    1    4    4    0    0 -0.54149406874E+01 -0.27122813509E+01 -0.85912860549E+02  0.86126056804E+02  0.00000000000E+00 0. -1.
<mgrwt>
<rscale>  0 0.73221800E+02</rscale>
<asrwt>0</asrwt>
<pdfrwt beam="1">  1        1 0.78335501E-03 0.73221800E+02</pdfrwt>
<pdfrwt beam="2">  1       -2 0.40498177E-01 0.73221800E+02</pdfrwt>
<totfact> 0.94447358E+04</totfact>
</mgrwt>
</event>
<event>
 8    1  0.7756875E-014  0.8279841E+02  0.7818608E-02  0.1321292E+00
          1   -1    0    0  501    0  0.00000000000E+00  0.00000000000E+00  0.91042424453E+01  0.91042438403E+01  0.50400000000E-02 0. -1.
         -2   -1    0    0    0  501 -0.00000000000E+00 -0.00000000000E+00 -0.18825224465E+03  0.18825224466E+03  0.25500000000E-02 0.  1.
        -24    2    1    2    0    0  0.00000000000E+00  0.00000000000E+00 -0.17914800220E+03  0.19735648850E+03  0.82798410987E+02 0.  0.
         66    2    3    3    0    0 -0.20683266585E+02  0.75828192879E+01 -0.17310556658E+03  0.17451313373E+03  0.19999997237E+01 0.  0.
         13    1    3    3    0    0  0.20683266585E+02 -0.75828192879E+01 -0.60424356217E+01  0.22843354773E+02  0.10566000000E+00 0. -1.
         13    1    4    4    0    0 -0.12035860457E+01  0.39841505135E+00 -0.13032769232E+02  0.13094716180E+02  0.10566000000E+00 0. -1.
        -13    1    4    4    0    0 -0.96553141124E+01  0.37258092747E+01 -0.84397724915E+02  0.85029958722E+02  0.10566000000E+00 0.  1.
        -14    1    4    4    0    0 -0.98243664274E+01  0.34585949619E+01 -0.75675072431E+02  0.76388458828E+02  0.00000000000E+00 0.  1.
<mgrwt>
<rscale>  0 0.82798411E+02</rscale>
<asrwt>0</asrwt>
<pdfrwt beam="1">  1        1 0.14006529E-02 0.82798411E+02</pdfrwt>
<pdfrwt beam="2">  1       -2 0.28961881E-01 0.82798411E+02</pdfrwt>
<totfact> 0.79744305E+04</totfact>
</mgrwt>
</event>
<event>
 8    1  0.7756875E-014  0.8169486E+02  0.7818608E-02  0.1324309E+00
         -2   -1    0    0    0  501 -0.00000000000E+00  0.00000000000E+00  0.97747127001E+02  0.97747127034E+02  0.25500000000E-02 0.  1.
          1   -1    0    0  501    0  0.00000000000E+00 -0.00000000000E+00 -0.17069682069E+02  0.17069682813E+02  0.50400000000E-02 0. -1.
        -24    2    1    2    0    0  0.00000000000E+00 -0.35527136788E-14  0.80677444932E+02  0.11481680985E+03  0.81694857259E+02 0.  0.
         66    2    3    3    0    0 -0.97711171874E+01  0.24594251917E+02  0.84048025491E+02  0.88138655192E+02  0.19999979154E+01 0.  0.
         13    1    3    3    0    0  0.97711171874E+01 -0.24594251917E+02 -0.33705805582E+01  0.26678154655E+02  0.10566000000E+00 0. -1.
         13    1    4    4    0    0 -0.26830515763E+01  0.61008576882E+01  0.18897236414E+02  0.20038361670E+02  0.10566000000E+00 0. -1.
        -13    1    4    4    0    0 -0.23373047933E+01  0.56389319060E+01  0.21342894933E+02  0.22198893551E+02  0.10566000000E+00 0.  1.
         14    1    4    4    0    0 -0.47507608178E+01  0.12854462323E+02  0.43807894143E+02  0.45901399970E+02  0.00000000000E+00 0. -1.
<mgrwt>
<rscale>  0 0.81694857E+02</rscale>
<asrwt>0</asrwt>
<pdfrwt beam="1">  1        1 0.26261050E-02 0.81694857E+02</pdfrwt>
<pdfrwt beam="2">  1       -2 0.15038019E-01 0.81694857E+02</pdfrwt>
<totfact> 0.10114995E+05</totfact>
</mgrwt>
</event>
<event>
 8    1  0.7756875E-014  0.8008271E+02  0.7818608E-02  0.1328817E+00
         -2   -1    0    0    0  501 -0.00000000000E+00  0.00000000000E+00  0.14395097738E+02  0.14395097963E+02  0.25500000000E-02 0.  1.
          1   -1    0    0  501    0  0.00000000000E+00 -0.00000000000E+00 -0.11137889569E+03  0.11137889581E+03  0.50400000000E-02 0. -1.
        -24    2    1    2    0    0  0.00000000000E+00  0.00000000000E+00 -0.96983797957E+02  0.12577399377E+03  0.80082710014E+02 0.  0.
         66    2    3    3    0    0 -0.38089009509E+02  0.10612948128E+02 -0.38853554480E+02  0.55470767075E+02  0.19999976896E+01 0.  0.
         13    1    3    3    0    0  0.38089009509E+02 -0.10612948128E+02 -0.58130243477E+02  0.70303226697E+02  0.10566000000E+00 0. -1.
         13    1    4    4    0    0 -0.18018131752E+02  0.56631579513E+01 -0.18891681693E+02  0.26713877125E+02  0.10566000000E+00 0. -1.
        -13    1    4    4    0    0 -0.14460488825E+02  0.39050187253E+01 -0.13973842518E+02  0.20484978571E+02  0.10566000000E+00 0.  1.
         14    1    4    4    0    0 -0.56103889320E+01  0.10447714516E+01 -0.59880302696E+01  0.82719113791E+01  0.00000000000E+00 0. -1.
<mgrwt>
<rscale>  0 0.80082710E+02</rscale>
<asrwt>0</asrwt>
<pdfrwt beam="1">  1        1 0.17135214E-01 0.80082710E+02</pdfrwt>
<pdfrwt beam="2">  1       -2 0.22146305E-02 0.80082710E+02</pdfrwt>
<totfact> 0.14929601E+05</totfact>
</mgrwt>
</event>
<event>
 8    1  0.7756875E-014  0.7876083E+02  0.7818608E-02  0.1332605E+00
          1   -1    0    0  501    0  0.00000000000E+00  0.00000000000E+00  0.18469553050E+02  0.18469553737E+02  0.50400000000E-02 0. -1.
         -2   -1    0    0    0  501 -0.00000000000E+00 -0.00000000000E+00 -0.83966144471E+02  0.83966144509E+02  0.25500000000E-02 0.  1.
        -24    2    1    2    0    0  0.88817841970E-15 -0.71054273576E-14 -0.65496591421E+02  0.10243569825E+03  0.78760832826E+02 0.  0.
         66    2    3    3    0    0 -0.47343200923E+01  0.35220901487E+02 -0.54759995599E+02  0.65311429335E+02  0.19999988830E+01 0.  0.
         13    1    3    3    0    0  0.47343200923E+01 -0.35220901487E+02 -0.10736595822E+02  0.37124268911E+02  0.10566000000E+00 0. -1.
         13    1    4    4    0    0 -0.62692163990E+00  0.26798124057E+01 -0.36334990789E+01  0.45593754905E+01  0.10566000000E+00 0. -1.
        -13    1    4    4    0    0 -0.27462801383E+01  0.24897629942E+02 -0.39403440591E+02  0.46691287472E+02  0.10566000000E+00 0.  1.
        -14    1    4    4    0    0 -0.13611183141E+01  0.76434591395E+01 -0.11723055929E+02  0.14060766373E+02  0.00000000000E+00 0.  1.
<mgrwt>
<rscale>  0 0.78760833E+02</rscale>
<asrwt>0</asrwt>
<pdfrwt beam="1">  1        1 0.28414698E-02 0.78760833E+02</pdfrwt>
<pdfrwt beam="2">  1       -2 0.12917868E-01 0.78760833E+02</pdfrwt>
<totfact> 0.11507277E+05</totfact>
</mgrwt>
</event>
<event>
 8    1  0.7756875E-014  0.7808595E+02  0.7818608E-02  0.1334573E+00
         -2   -1    0    0    0  501 -0.00000000000E+00  0.00000000000E+00  0.17939875474E+02  0.17939875655E+02  0.25500000000E-02 0.  1.
          1   -1    0    0  501    0  0.00000000000E+00 -0.00000000000E+00 -0.84970144888E+02  0.84970145037E+02  0.50400000000E-02 0. -1.
        -24    2    1    2    0    0  0.17763568394E-14 -0.17763568394E-14 -0.67030269414E+02  0.10291002069E+03  0.78085948423E+02 0.  0.
         66    2    3    3    0    0  0.14418290209E+02 -0.92262483288E+01  0.12671289819E+02  0.21390940355E+02  0.19999981975E+01 0.  0.
         13    1    3    3    0    0 -0.14418290209E+02  0.92262483288E+01 -0.79701559234E+02  0.81519080338E+02  0.10566000000E+00 0. -1.
         13    1    4    4    0    0  0.24592663899E+01 -0.16141274673E+01  0.14347930031E+01  0.32746287811E+01  0.10566000000E+00 0. -1.
        -13    1    4    4    0    0  0.56049674378E+01 -0.41170334768E+01  0.56994205703E+01  0.89922290619E+01  0.10566000000E+00 0.  1.
         14    1    4    4    0    0  0.63540563817E+01 -0.34950873847E+01  0.55370762459E+01  0.91240825118E+01  0.00000000000E+00 0. -1.
<mgrwt>
<rscale>  0 0.78085948E+02</rscale>
<asrwt>0</asrwt>
<pdfrwt beam="1">  1        1 0.13072330E-01 0.78085948E+02</pdfrwt>
<pdfrwt beam="2">  1       -2 0.27599809E-02 0.78085948E+02</pdfrwt>
<totfact> 0.15279976E+05</totfact>
</mgrwt>
</event>
<event>
 8    1  0.7756875E-014  0.8094872E+02  0.7818608E-02  0.1326380E+00
         -2   -1    0    0    0  501 -0.00000000000E+00  0.00000000000E+00  0.32350701574E+01  0.32350711624E+01  0.25500000000E-02 0.  1.
          1   -1    0    0  501    0  0.00000000000E+00 -0.00000000000E+00 -0.50637955247E+03  0.50637955249E+03  0.50400000000E-02 0. -1.
        -24    2    1    2    0    0  0.00000000000E+00  0.00000000000E+00 -0.50314448231E+03  0.50961462365E+03  0.80948715641E+02 0.  0.
         66    2    3    3    0    0  0.86043733713E+01  0.29666518770E+02 -0.41613756781E+03  0.41728720675E+03  0.19999998903E+01 0.  0.
         13    1    3    3    0    0 -0.86043733713E+01 -0.29666518770E+02 -0.87006914501E+02  0.92327416904E+02  0.10566000000E+00 0. -1.
         13    1    4    4    0    0  0.18077698274E+01  0.51715961351E+01 -0.81725693720E+02  0.81909179073E+02  0.10566000000E+00 0. -1.
        -13    1    4    4    0    0  0.40360298532E+01  0.16193754085E+02 -0.22076453189E+03  0.22139448257E+03  0.10566000000E+00 0.  1.
         14    1    4    4    0    0  0.27605736908E+01  0.83011685491E+01 -0.11364734220E+03  0.11398354511E+03  0.00000000000E+00 0. -1.
<mgrwt>
<rscale>  0 0.80948716E+02</rscale>
<asrwt>0</asrwt>
<pdfrwt beam="1">  1        1 0.77904484E-01 0.80948716E+02</pdfrwt>
<pdfrwt beam="2">  1       -2 0.49770358E-03 0.80948716E+02</pdfrwt>
<totfact> 0.19039786E+05</totfact>
</mgrwt>
</event>
<event>
 8    1  0.7756875E-014  0.7801014E+02  0.7818608E-02  0.1334795E+00
         -2   -1    0    0    0  501 -0.00000000000E+00  0.00000000000E+00  0.45726639893E+01  0.45726647003E+01  0.25500000000E-02 0.  1.
          1   -1    0    0  501    0  0.00000000000E+00 -0.00000000000E+00 -0.33271534738E+03  0.33271534742E+03  0.50400000000E-02 0. -1.
        -24    2    1    2    0    0  0.00000000000E+00 -0.22204460493E-15 -0.32814268339E+03  0.33728801212E+03  0.78010143289E+02 0.  0.
         66    2    3    3    0    0 -0.38821841645E+02  0.18569251912E+01 -0.17701007199E+03  0.18123782483E+03  0.20000008500E+01 0.  0.
         13    1    3    3    0    0  0.38821841645E+02 -0.18569251912E+01 -0.15113261141E+03  0.15605018729E+03  0.10566000000E+00 0. -1.
         13    1    4    4    0    0 -0.29051864671E+02  0.13517431249E+01 -0.13345158873E+03  0.13658395129E+03  0.10566000000E+00 0. -1.
        -13    1    4    4    0    0 -0.92549262520E+01  0.55421874327E+00 -0.40176853131E+02  0.41232893543E+02  0.10566000000E+00 0.  1.
         14    1    4    4    0    0 -0.51505072184E+00 -0.49036677011E-01 -0.33816301212E+01  0.34209799939E+01  0.00000000000E+00 0. -1.
<mgrwt>
<rscale>  0 0.78010143E+02</rscale>
<asrwt>0</asrwt>
<pdfrwt beam="1">  1        1 0.51186958E-01 0.78010143E+02</pdfrwt>
<pdfrwt beam="2">  1       -2 0.70348708E-03 0.78010143E+02</pdfrwt>
<totfact> 0.19653458E+05</totfact>
</mgrwt>
</event>
<event>
 8    1  0.7756875E-014  0.7969032E+02  0.7818608E-02  0.1329933E+00
          1   -1    0    0  501    0  0.00000000000E+00  0.00000000000E+00  0.21040906748E+03  0.21040906754E+03  0.50400000000E-02 0. -1.
         -2   -1    0    0    0  501 -0.00000000000E+00 -0.00000000000E+00 -0.75454758248E+01  0.75454762557E+01  0.25500000000E-02 0.  1.
        -24    2    1    2    0    0  0.00000000000E+00  0.00000000000E+00  0.20286359165E+03  0.21795454379E+03  0.79690315233E+02 0.  0.
         66    2    3    3    0    0 -0.25494706594E+01  0.38578511776E+02  0.75429428335E+02  0.84784432597E+02  0.19999950898E+01 0.  0.
         13    1    3    3    0    0  0.25494706594E+01 -0.38578511776E+02  0.12743416332E+03  0.13317011120E+03  0.10566000000E+00 0. -1.
         13    1    4    4    0    0 -0.10989258595E-01  0.47681843518E+01  0.96379285592E+01  0.10753442878E+02  0.10566000000E+00 0. -1.
        -13    1    4    4    0    0 -0.27131020012E+01  0.31691440748E+02  0.61253463505E+02  0.69019608044E+02  0.10566000000E+00 0.  1.
         14    1    4    4    0    0  0.17462060036E+00  0.21188866766E+01  0.45380362704E+01  0.50113816751E+01  0.00000000000E+00 0. -1.
<mgrwt>
<rscale>  0 0.79690315E+02</rscale>
<asrwt>0</asrwt>
<pdfrwt beam="1">  1        1 0.32370625E-01 0.79690315E+02</pdfrwt>
<pdfrwt beam="2">  1       -2 0.11608425E-02 0.79690315E+02</pdfrwt>
<totfact> 0.17013331E+05</totfact>
</mgrwt>
</event>
<event>
 8    1  0.7756875E-014  0.7413284E+02  0.7818608E-02  0.1346578E+00
         -2   -1    0    0    0  501 -0.00000000000E+00  0.00000000000E+00  0.59011935335E+02  0.59011935390E+02  0.25500000000E-02 0.  1.
          1   -1    0    0  501    0  0.00000000000E+00 -0.00000000000E+00 -0.23282060933E+02  0.23282061478E+02  0.50400000000E-02 0. -1.
        -24    2    1    2    0    0  0.00000000000E+00  0.00000000000E+00  0.35729874403E+02  0.82293996868E+02  0.74132840198E+02 0.  0.
         66    2    3    3    0    0  0.35074204421E+02 -0.41455791366E+01  0.30265663348E+02  0.46555300632E+02  0.19999992335E+01 0.  0.
         13    1    3    3    0    0 -0.35074204421E+02  0.41455791366E+01  0.54642110549E+01  0.35738696236E+02  0.10566000000E+00 0. -1.
         13    1    4    4    0    0  0.21896402880E+02 -0.20535842768E+01  0.18510863020E+02  0.28746006353E+02  0.10566000000E+00 0. -1.
        -13    1    4    4    0    0  0.12185331535E+02 -0.21268118387E+01  0.10641389713E+02  0.16317351877E+02  0.10566000000E+00 0.  1.
         14    1    4    4    0    0  0.99247000629E+00  0.34816978881E-01  0.11134106152E+01  0.14919424029E+01  0.00000000000E+00 0. -1.
<mgrwt>
<rscale>  0 0.74132840E+02</rscale>
<asrwt>0</asrwt>
<pdfrwt beam="1">  1        1 0.35818556E-02 0.74132840E+02</pdfrwt>
<pdfrwt beam="2">  1       -2 0.90787593E-02 0.74132840E+02</pdfrwt>
<totfact> 0.14393769E+05</totfact>
</mgrwt>
</event>
<event>
 8    1  0.7756875E-014  0.7961347E+02  0.7818608E-02  0.1330152E+00
          1   -1    0    0  501    0  0.00000000000E+00  0.00000000000E+00  0.27785386567E+02  0.27785387024E+02  0.50400000000E-02 0. -1.
         -2   -1    0    0    0  501 -0.00000000000E+00 -0.00000000000E+00 -0.57029126272E+02  0.57029126329E+02  0.25500000000E-02 0.  1.
        -24    2    1    2    0    0 -0.17763568394E-14  0.00000000000E+00 -0.29243739706E+02  0.84814513353E+02  0.79613474760E+02 0.  0.
         66    2    3    3    0    0 -0.15961415186E+02  0.28412067799E+02 -0.38937356150E+02  0.50814664307E+02  0.20000083209E+01 0.  0.
         13    1    3    3    0    0  0.15961415186E+02 -0.28412067799E+02  0.96936164445E+01  0.33999849046E+02  0.10566000000E+00 0. -1.
         13    1    4    4    0    0 -0.31810984106E+01  0.55901965023E+01 -0.70381032926E+01  0.95349748833E+01  0.10566000000E+00 0. -1.
        -13    1    4    4    0    0 -0.69304520086E+01  0.13610453338E+02 -0.17926448329E+02  0.23550887857E+02  0.10566000000E+00 0.  1.
        -14    1    4    4    0    0 -0.58498647664E+01  0.92114179588E+01 -0.13972804529E+02  0.17728801567E+02  0.00000000000E+00 0.  1.
<mgrwt>
<rscale>  0 0.79613475E+02</rscale>
<asrwt>0</asrwt>
<pdfrwt beam="1">  1        1 0.42746749E-02 0.79613475E+02</pdfrwt>
<pdfrwt beam="2">  1       -2 0.87737117E-02 0.79613475E+02</pdfrwt>
<totfact> 0.12097323E+05</totfact>
</mgrwt>
</event>
<event>
 8    1  0.7756875E-014  0.7942753E+02  0.7818608E-02  0.1330684E+00
         -2   -1    0    0    0  501 -0.00000000000E+00  0.00000000000E+00  0.74329076371E+03  0.74329076371E+03  0.25500000000E-02 0.  1.
          1   -1    0    0  501    0  0.00000000000E+00 -0.00000000000E+00 -0.21218895604E+01  0.21218955460E+01  0.50400000000E-02 0. -1.
        -24    2    1    2    0    0  0.00000000000E+00 -0.35527136788E-14  0.74116887415E+03  0.74541265926E+03  0.79427530350E+02 0.  0.
         66    2    3    3    0    0 -0.85013176130E+00 -0.29642753001E+02  0.61836494748E+03  0.61907885104E+03  0.20000014252E+01 0.  0.
         13    1    3    3    0    0  0.85013176130E+00  0.29642753001E+02  0.12280392667E+03  0.12633380822E+03  0.10566000000E+00 0. -1.
         13    1    4    4    0    0  0.11167911218E+00 -0.48112488562E+00  0.81882414348E+01  0.82038049227E+01  0.10566000000E+00 0.  1.
        -13    1    4    4    0    0 -0.28736894013E+00 -0.20652214406E+02  0.43914149273E+03  0.43962695361E+03  0.10566000000E+00 0.  1.
        -14    1    4    4    0    0 -0.67444193335E+00 -0.85094137102E+01  0.17103521331E+03  0.17124809250E+03  0.00000000000E+00 0.  1.
<mgrwt>
<rscale>  0 0.79427530E+02</rscale>
<asrwt>0</asrwt>
<pdfrwt beam="1">  1        1 0.32644453E-03 0.79427530E+02</pdfrwt>
<pdfrwt beam="2">  1       -2 0.11435259E+00 0.79427530E+02</pdfrwt>
<totfact> 0.36408287E+04</totfact>
</mgrwt>
</event>
<event>
 8    1  0.7756875E-014  0.8050152E+02  0.7818608E-02  0.1327634E+00
         -2   -1    0    0    0  501 -0.00000000000E+00  0.00000000000E+00  0.49896456435E+01  0.49896462951E+01  0.25500000000E-02 0.  1.
          1   -1    0    0  501    0  0.00000000000E+00 -0.00000000000E+00 -0.32469709051E+03  0.32469709055E+03  0.50400000000E-02 0. -1.
        -24    2    1    2    0    0  0.35527136788E-14  0.00000000000E+00 -0.31970744487E+03  0.32968673685E+03  0.80501516433E+02 0.  0.
         66    2    3    3    0    0 -0.24842883684E+02  0.41152749570E+01 -0.28842104259E+03  0.28952513218E+03  0.19999993527E+01 0.  0.
         13    1    3    3    0    0  0.24842883684E+02 -0.41152749570E+01 -0.31286402274E+02  0.40161604662E+02  0.10566000000E+00 0. -1.
         13    1    4    4    0    0 -0.16334466191E+02  0.30800130109E+01 -0.19303421559E+03  0.19374860210E+03  0.10566000000E+00 0. -1.
        -13    1    4    4    0    0 -0.82784175868E+01  0.11124476177E+01 -0.90855490463E+02  0.91238703677E+02  0.10566000000E+00 0.  1.
         14    1    4    4    0    0 -0.22999990685E+00 -0.77185671604E-01 -0.45313365444E+01  0.45378264030E+01  0.00000000000E+00 0. -1.
<mgrwt>
<rscale>  0 0.80501516E+02</rscale>
<asrwt>0</asrwt>
<pdfrwt beam="1">  1        1 0.49953382E-01 0.80501516E+02</pdfrwt>
<pdfrwt beam="2">  1       -2 0.76763810E-03 0.80501516E+02</pdfrwt>
<totfact> 0.18012753E+05</totfact>
</mgrwt>
</event>
<event>
 8    1  0.7756875E-014  0.7881223E+02  0.7818608E-02  0.1332456E+00
         -2   -1    0    0    0  501 -0.00000000000E+00  0.00000000000E+00  0.23632944386E+02  0.23632944523E+02  0.25500000000E-02 0.  1.
          1   -1    0    0  501    0  0.00000000000E+00 -0.00000000000E+00 -0.65706660060E+02  0.65706660253E+02  0.50400000000E-02 0. -1.
        -24    2    1    2    0    0  0.00000000000E+00 -0.17763568394E-14 -0.42073715675E+02  0.89339604776E+02  0.78812228943E+02 0.  0.
         66    2    3    3    0    0 -0.60411588267E+00  0.11917292084E+02  0.21491950761E+02  0.24663551093E+02  0.19999996024E+01 0.  0.
         13    1    3    3    0    0  0.60411588267E+00 -0.11917292084E+02 -0.63565666436E+02  0.64676053683E+02  0.10566000000E+00 0. -1.
         13    1    4    4    0    0 -0.26338292995E+00  0.39938512384E+00  0.13788952208E+01  0.14633506451E+01  0.10566000000E+00 0. -1.
        -13    1    4    4    0    0 -0.16061137581E-01  0.26296592107E+01  0.54125075123E+01  0.60184522205E+01  0.10566000000E+00 0.  1.
        -14    1    4    4    0    0 -0.32467181513E+00  0.88882477490E+01  0.14700548028E+02  0.17181748228E+02  0.00000000000E+00 0.  1.
<mgrwt>
<rscale>  0 0.78812229E+02</rscale>
<asrwt>0</asrwt>
<pdfrwt beam="1">  1        1 0.10108717E-01 0.78812229E+02</pdfrwt>
<pdfrwt beam="2">  1       -2 0.36358376E-02 0.78812229E+02</pdfrwt>
<totfact> 0.14307829E+05</totfact>
</mgrwt>
</event>
<event>
 8    1  0.7756875E-014  0.7975131E+02  0.7818608E-02  0.1329759E+00
         -2   -1    0    0    0  501 -0.00000000000E+00  0.00000000000E+00  0.19961257060E+03  0.19961257062E+03  0.25500000000E-02 0.  1.
          1   -1    0    0  501    0  0.00000000000E+00 -0.00000000000E+00 -0.79657695305E+01  0.79657711250E+01  0.50400000000E-02 0. -1.
        -24    2    1    2    0    0 -0.35527136788E-14 -0.22204460493E-15  0.19164680107E+03  0.20757834175E+03  0.79751310961E+02 0.  0.
         66    2    3    3    0    0  0.22164918077E+02  0.10225139862E+01  0.18204172037E+03  0.18339988299E+03  0.19999996864E+01 0.  0.
         13    1    3    3    0    0 -0.22164918077E+02 -0.10225139862E+01  0.96050807031E+01  0.24178458751E+02  0.10566000000E+00 0. -1.
         13    1    4    4    0    0  0.54836481907E+01  0.49151742356E+00  0.39760855679E+02  0.40140363666E+02  0.10566000000E+00 0. -1.
        -13    1    4    4    0    0  0.41096607081E+01  0.52682079801E+00  0.35692785841E+02  0.35932617166E+02  0.10566000000E+00 0.  1.
         14    1    4    4    0    0  0.12571609178E+02  0.41757646578E-02  0.10658807885E+03  0.10732690216E+03  0.00000000000E+00 0. -1.
<mgrwt>
<rscale>  0 0.79751311E+02</rscale>
<asrwt>0</asrwt>
<pdfrwt beam="1">  1        1 0.12255033E-02 0.79751311E+02</pdfrwt>
<pdfrwt beam="2">  1       -2 0.30709622E-01 0.79751311E+02</pdfrwt>
<totfact> 0.85829494E+04</totfact>
</mgrwt>
</event>
<event>
 8    1  0.8068570E-014  0.7138252E+02  0.7818608E-02  0.1355454E+00
          1   -1    0    0  501    0  0.00000000000E+00  0.00000000000E+00  0.14921915157E+02  0.14921916009E+02  0.50400000000E-02 0. -1.
         -2   -1    0    0    0  501 -0.00000000000E+00 -0.00000000000E+00 -0.85368806407E+02  0.85368806445E+02  0.25500000000E-02 0.  1.
        -24    2    1    2    0    0  0.17763568394E-14  0.00000000000E+00 -0.70446891250E+02  0.10029072245E+03  0.71382522536E+02 0.  0.
         66    2    3    3    0    0 -0.11419230021E+02  0.17981344779E+02 -0.75437597121E+02  0.78412745320E+02  0.19999987069E+01 0.  0.
         13    1    3    3    0    0  0.11419230021E+02 -0.17981344779E+02  0.49907058712E+01  0.21877977134E+02  0.10566000000E+00 0. -1.
         13    1    4    4    0    0 -0.71957141667E+00  0.57391051211E+00 -0.34385686807E+01  0.35611900970E+01  0.10566000000E+00 0. -1.
        -13    1    4    4    0    0 -0.80496752762E+01  0.12352360395E+02 -0.53178235767E+02  0.55184363752E+02  0.10566000000E+00 0.  1.
         14    1    4    4    0    0 -0.26499833285E+01  0.50550738726E+01 -0.18820792673E+02  0.19667191470E+02  0.00000000000E+00 0. -1.
<mgrwt>
<rscale>  0 0.71382523E+02</rscale>
<asrwt>0</asrwt>
<pdfrwt beam="1">  1        1 0.22956794E-02 0.71382523E+02</pdfrwt>
<pdfrwt beam="2">  1       -2 0.13133662E-01 0.71382523E+02</pdfrwt>
<totfact> 0.14722080E+05</totfact>
</mgrwt>
</event>
<event>
 8    1  0.7756875E-014  0.7955118E+02  0.7818608E-02  0.1330330E+00
         -2   -1    0    0    0  501 -0.00000000000E+00  0.00000000000E+00  0.48760906128E+03  0.48760906129E+03  0.25500000000E-02 0.  1.
          1   -1    0    0  501    0  0.00000000000E+00 -0.00000000000E+00 -0.32446007791E+01  0.32446046936E+01  0.50400000000E-02 0. -1.
        -24    2    1    2    0    0  0.55511151231E-16  0.71054273576E-14  0.48436446051E+03  0.49085366598E+03  0.79551183587E+02 0.  0.
         66    2    3    3    0    0  0.29735959977E+00  0.33234052020E+02  0.37688423430E+03  0.37835210677E+03  0.19999993831E+01 0.  0.
         13    1    3    3    0    0 -0.29735959977E+00 -0.33234052020E+02  0.10748022620E+03  0.11250155921E+03  0.10566000000E+00 0. -1.
         13    1    4    4    0    0  0.60152220067E-01  0.12555662005E+01  0.18041454890E+02  0.18085500363E+02  0.10566000000E+00 0. -1.
        -13    1    4    4    0    0  0.38701388756E+00  0.15265910610E+02  0.17662565853E+03  0.17728460796E+03  0.10566000000E+00 0.  1.
         14    1    4    4    0    0 -0.14980650787E+00  0.16712575209E+02  0.18221712089E+03  0.18298199845E+03  0.00000000000E+00 0. -1.
<mgrwt>
<rscale>  0 0.79551184E+02</rscale>
<asrwt>0</asrwt>
<pdfrwt beam="1">  1        1 0.49916961E-03 0.79551184E+02</pdfrwt>
<pdfrwt beam="2">  1       -2 0.75016785E-01 0.79551184E+02</pdfrwt>
<totfact> 0.52111154E+04</totfact>
</mgrwt>
</event>
<event>
 8    1  0.7756875E-014  0.7939629E+02  0.7818608E-02  0.1330773E+00
         -2   -1    0    0    0  501 -0.00000000000E+00  0.00000000000E+00  0.15675189442E+02  0.15675189649E+02  0.25500000000E-02 0.  1.
          1   -1    0    0  501    0  0.00000000000E+00 -0.00000000000E+00 -0.10053738757E+03  0.10053738769E+03  0.50400000000E-02 0. -1.
        -24    2    1    2    0    0  0.00000000000E+00  0.00000000000E+00 -0.84862198127E+02  0.11621257734E+03  0.79396287457E+02 0.  0.
         66    2    3    3    0    0 -0.22953262495E+02 -0.10205769949E+01  0.48820107281E+01  0.23573881198E+02  0.20000023598E+01 0.  0.
         13    1    3    3    0    0  0.22953262495E+02  0.10205769949E+01 -0.89744208855E+02  0.92638696146E+02  0.10566000000E+00 0. -1.
         13    1    4    4    0    0 -0.20100153527E+02 -0.10195045195E+01  0.43903573732E+01  0.20599562208E+02  0.10566000000E+00 0. -1.
        -13    1    4    4    0    0 -0.25556169864E+01 -0.19264540212E+00  0.33310645921E+00  0.25865835345E+01  0.10566000000E+00 0.  1.
         14    1    4    4    0    0 -0.29749198156E+00  0.19157292674E+00  0.15854689565E+00  0.38773545553E+00  0.00000000000E+00 0. -1.
<mgrwt>
<rscale>  0 0.79396287E+02</rscale>
<asrwt>0</asrwt>
<pdfrwt beam="1">  1        1 0.15467290E-01 0.79396287E+02</pdfrwt>
<pdfrwt beam="2">  1       -2 0.24115677E-02 0.79396287E+02</pdfrwt>
<totfact> 0.15016480E+05</totfact>
</mgrwt>
</event>
<event>
 8    1  0.7756875E-014  0.8069185E+02  0.7818608E-02  0.1327099E+00
         -2   -1    0    0    0  501 -0.00000000000E+00  0.00000000000E+00  0.10020866909E+02  0.10020867233E+02  0.25500000000E-02 0.  1.
          1   -1    0    0  501    0  0.00000000000E+00 -0.00000000000E+00 -0.16244038614E+03  0.16244038622E+03  0.50400000000E-02 0. -1.
        -24    2    1    2    0    0  0.00000000000E+00  0.00000000000E+00 -0.15241951923E+03  0.17246125345E+03  0.80691846549E+02 0.  0.
         66    2    3    3    0    0  0.18292281290E+02  0.24358840268E+02 -0.19797074330E+02  0.36385227975E+02  0.20000021919E+01 0.  0.
         13    1    3    3    0    0 -0.18292281290E+02 -0.24358840268E+02 -0.13262244490E+03  0.13607602548E+03  0.10566000000E+00 0. -1.
         13    1    4    4    0    0  0.68215400859E+01  0.10338069380E+02 -0.83473086794E+01  0.14936459215E+02  0.10566000000E+00 0. -1.
        -13    1    4    4    0    0  0.10429444092E+02  0.13086875057E+02 -0.10678670239E+02  0.19851568324E+02  0.10566000000E+00 0.  1.
         14    1    4    4    0    0  0.10412971119E+01  0.93389583153E+00 -0.77109541126E+00  0.15972004360E+01  0.00000000000E+00 0. -1.
<mgrwt>
<rscale>  0 0.80691847E+02</rscale>
<asrwt>0</asrwt>
<pdfrwt beam="1">  1        1 0.24990827E-01 0.80691847E+02</pdfrwt>
<pdfrwt beam="2">  1       -2 0.15416720E-02 0.80691847E+02</pdfrwt>
<totfact> 0.15660124E+05</totfact>
</mgrwt>
</event>
<event>
 8    1  0.7756875E-014  0.8260495E+02  0.7818608E-02  0.1321817E+00
          1   -1    0    0  501    0  0.00000000000E+00  0.00000000000E+00  0.10112389796E+02  0.10112391052E+02  0.50400000000E-02 0. -1.
         -2   -1    0    0    0  501 -0.00000000000E+00 -0.00000000000E+00 -0.16869349378E+03  0.16869349380E+03  0.25500000000E-02 0.  1.
        -24    2    1    2    0    0  0.00000000000E+00  0.00000000000E+00 -0.15858110399E+03  0.17880588485E+03  0.82604950922E+02 0.  0.
         66    2    3    3    0    0  0.16540118176E+02 -0.55973543094E+01 -0.16029905431E+03  0.16125970573E+03  0.19999991014E+01 0.  0.
         13    1    3    3    0    0 -0.16540118176E+02  0.55973543094E+01  0.17179503179E+01  0.17546179125E+02  0.10566000000E+00 0. -1.
         13    1    4    4    0    0  0.69468446969E+01 -0.31347613203E+01 -0.68057884255E+02  0.68483371362E+02  0.10566000000E+00 0. -1.
        -13    1    4    4    0    0  0.65541703801E+01 -0.19116095062E+01 -0.59848214344E+02  0.60236461753E+02  0.10566000000E+00 0.  1.
         14    1    4    4    0    0  0.30391030992E+01 -0.55098348294E+00 -0.32392955706E+02  0.32539872615E+02  0.00000000000E+00 0. -1.
<mgrwt>
<rscale>  0 0.82604951E+02</rscale>
<asrwt>0</asrwt>
<pdfrwt beam="1">  1        1 0.15557525E-02 0.82604951E+02</pdfrwt>
<pdfrwt beam="2">  1       -2 0.25952843E-01 0.82604951E+02</pdfrwt>
<totfact> 0.83581109E+04</totfact>
</mgrwt>
</event>
<event>
 8    1  0.7756875E-014  0.8509418E+02  0.7818608E-02  0.1315186E+00
         -2   -1    0    0    0  501 -0.00000000000E+00  0.00000000000E+00  0.51930871193E+01  0.51930877454E+01  0.25500000000E-02 0.  1.
          1   -1    0    0  501    0  0.00000000000E+00 -0.00000000000E+00 -0.34858935235E+03  0.34858935238E+03  0.50400000000E-02 0. -1.
        -24    2    1    2    0    0  0.00000000000E+00 -0.44408920985E-15 -0.34339626523E+03  0.35378244013E+03  0.85094182945E+02 0.  0.
         66    2    3    3    0    0 -0.39628218692E+02 -0.26738079778E+01 -0.10864394697E+03  0.11569378636E+03  0.20000053778E+01 0.  0.
         13    1    3    3    0    0  0.39628218692E+02  0.26738079778E+01 -0.23475231825E+03  0.23808865377E+03  0.10566000000E+00 0. -1.
         13    1    4    4    0    0 -0.87075874442E+01 -0.60213987896E-01 -0.22402604765E+02  0.24035672845E+02  0.10566000000E+00 0. -1.
        -13    1    4    4    0    0 -0.12585255625E+02 -0.11205357542E+01 -0.36321094087E+02  0.38456173747E+02  0.10566000000E+00 0.  1.
        -14    1    4    4    0    0 -0.18335375622E+02 -0.14930582358E+01 -0.49920248123E+02  0.53201939765E+02  0.00000000000E+00 0.  1.
<mgrwt>
<rscale>  0 0.85094183E+02</rscale>
<asrwt>0</asrwt>
<pdfrwt beam="1">  1        1 0.53629113E-01 0.85094183E+02</pdfrwt>
<pdfrwt beam="2">  1       -2 0.79893680E-03 0.85094183E+02</pdfrwt>
<totfact> 0.15761025E+05</totfact>
</mgrwt>
</event>
<event>
 8    1  0.7756875E-014  0.7860278E+02  0.7818608E-02  0.1333064E+00
         -2   -1    0    0    0  501 -0.00000000000E+00  0.00000000000E+00  0.32143695957E+03  0.32143695958E+03  0.25500000000E-02 0.  1.
          1   -1    0    0  501    0  0.00000000000E+00 -0.00000000000E+00 -0.48052926510E+01  0.48052952941E+01  0.50400000000E-02 0. -1.
        -24    2    1    2    0    0  0.00000000000E+00  0.00000000000E+00  0.31663166692E+03  0.32624225487E+03  0.78602775838E+02 0.  0.
         66    2    3    3    0    0 -0.30028902355E+02 -0.23593853953E+02  0.19650099739E+03  0.20018752928E+03  0.19999949343E+01 0.  0.
         13    1    3    3    0    0  0.30028902355E+02  0.23593853953E+02  0.12013066952E+03  0.12605472560E+03  0.10566000000E+00 0. -1.
         13    1    4    4    0    0 -0.93250906276E+01 -0.74240048832E+01  0.59075436314E+02  0.60266006201E+02  0.10566000000E+00 0. -1.
        -13    1    4    4    0    0 -0.18214604626E+02 -0.14741010978E+02  0.12132124786E+03  0.12356344755E+03  0.10566000000E+00 0.  1.
        -14    1    4    4    0    0 -0.24892071019E+01 -0.14288380921E+01  0.16104313226E+02  0.16358075521E+02  0.00000000000E+00 0.  1.
<mgrwt>
<rscale>  0 0.78602776E+02</rscale>
<asrwt>0</asrwt>
<pdfrwt beam="1">  1        1 0.73927584E-03 0.78602776E+02</pdfrwt>
<pdfrwt beam="2">  1       -2 0.49451851E-01 0.78602776E+02</pdfrwt>
<totfact> 0.70765551E+04</totfact>
</mgrwt>
</event>
<event>
 8    1  0.7756875E-014  0.7830234E+02  0.7818608E-02  0.1333939E+00
         -2   -1    0    0    0  501 -0.00000000000E+00  0.00000000000E+00  0.65701020193E+02  0.65701020243E+02  0.25500000000E-02 0.  1.
          1   -1    0    0  501    0  0.00000000000E+00 -0.00000000000E+00 -0.23330144099E+02  0.23330144643E+02  0.50400000000E-02 0. -1.
        -24    2    1    2    0    0  0.00000000000E+00  0.00000000000E+00  0.42370876095E+02  0.89031164886E+02  0.78302344664E+02 0.  0.
         66    2    3    3    0    0  0.23770998121E+01  0.31697793369E+02  0.47137403404E+02  0.56888799469E+02  0.19999993414E+01 0.  0.
         13    1    3    3    0    0 -0.23770998121E+01 -0.31697793369E+02 -0.47665273094E+01  0.32142365417E+02  0.10566000000E+00 0. -1.
         13    1    4    4    0    0  0.31360482070E+00  0.11790168026E+02  0.18591635824E+02  0.22017413488E+02  0.10566000000E+00 0. -1.
        -13    1    4    4    0    0  0.18119296948E+01  0.15509470971E+02  0.22670037084E+02  0.27527595690E+02  0.10566000000E+00 0.  1.
        -14    1    4    4    0    0  0.25156529663E+00  0.43981543727E+01  0.58757304952E+01  0.73437902909E+01  0.00000000000E+00 0.  1.
<mgrwt>
<rscale>  0 0.78302345E+02</rscale>
<asrwt>0</asrwt>
<pdfrwt beam="1">  1        1 0.35892530E-02 0.78302345E+02</pdfrwt>
<pdfrwt beam="2">  1       -2 0.10107849E-01 0.78302345E+02</pdfrwt>
<totfact> 0.12286297E+05</totfact>
</mgrwt>
</event>
<event>
 8    1  0.7756875E-014  0.8099562E+02  0.7818608E-02  0.1326250E+00
         -2   -1    0    0    0  501 -0.00000000000E+00  0.00000000000E+00  0.14352953947E+03  0.14352953949E+03  0.25500000000E-02 0.  1.
          1   -1    0    0  501    0  0.00000000000E+00 -0.00000000000E+00 -0.11426724332E+02  0.11426725443E+02  0.50400000000E-02 0. -1.
        -24    2    1    2    0    0  0.00000000000E+00  0.55511151231E-16  0.13210281514E+03  0.15495626494E+03  0.80995618867E+02 0.  0.
         66    2    3    3    0    0 -0.16118870559E+02  0.15527571545E+00  0.13711599771E+03  0.13807475842E+03  0.19999968096E+01 0.  0.
         13    1    3    3    0    0  0.16118870559E+02 -0.15527571545E+00 -0.50131825701E+01  0.16881506514E+02  0.10566000000E+00 0. -1.
         13    1    4    4    0    0 -0.41047331561E+01  0.69913843346E+00  0.32565582004E+02  0.32830868464E+02  0.10566000000E+00 0. -1.
        -13    1    4    4    0    0 -0.20722427007E+01  0.14074750638E+00  0.20237862139E+02  0.20344439724E+02  0.10566000000E+00 0.  1.
         14    1    4    4    0    0 -0.99418947027E+01 -0.68461022439E+00  0.84312553565E+02  0.84899450234E+02  0.00000000000E+00 0. -1.
<mgrwt>
<rscale>  0 0.80995619E+02</rscale>
<asrwt>0</asrwt>
<pdfrwt beam="1">  1        1 0.17579576E-02 0.80995619E+02</pdfrwt>
<pdfrwt beam="2">  1       -2 0.22081469E-01 0.80995619E+02</pdfrwt>
<totfact> 0.92865057E+04</totfact>
</mgrwt>
</event>
<event>
 8    1  0.7756875E-014  0.8078017E+02  0.7818608E-02  0.1326852E+00
          1   -1    0    0  501    0  0.00000000000E+00  0.00000000000E+00  0.39545126108E+01  0.39545158225E+01  0.50400000000E-02 0. -1.
         -2   -1    0    0    0  501 -0.00000000000E+00 -0.00000000000E+00 -0.41253080863E+03  0.41253080863E+03  0.25500000000E-02 0.  1.
        -24    2    1    2    0    0  0.00000000000E+00 -0.17763568394E-14 -0.40857629602E+03  0.41648532446E+03  0.80780169733E+02 0.  0.
         66    2    3    3    0    0 -0.35139246015E+02  0.10480505332E+02 -0.29141398446E+03  0.29371877357E+03  0.20000021638E+01 0.  0.
         13    1    3    3    0    0  0.35139246015E+02 -0.10480505332E+02 -0.11716231156E+03  0.12276655088E+03  0.10566000000E+00 0. -1.
         13    1    4    4    0    0 -0.26868749584E+01  0.46621677379E+00 -0.23356513781E+02  0.23515411014E+02  0.10566000000E+00 0. -1.
        -13    1    4    4    0    0 -0.56349661653E+01  0.21965700845E+01 -0.46254384945E+02  0.46648226703E+02  0.10566000000E+00 0.  1.
         14    1    4    4    0    0 -0.26817404891E+02  0.78177184735E+01 -0.22180308573E+03  0.22355513586E+03  0.00000000000E+00 0. -1.
<mgrwt>
<rscale>  0 0.80780170E+02</rscale>
<asrwt>0</asrwt>
<pdfrwt beam="1">  1        1 0.60838713E-03 0.80780170E+02</pdfrwt>
<pdfrwt beam="2">  1       -2 0.63466244E-01 0.80780170E+02</pdfrwt>
<totfact> 0.56451205E+04</totfact>
</mgrwt>
</event>
<event>
 8    1  0.7756875E-014  0.7983053E+02  0.7818608E-02  0.1329533E+00
          1   -1    0    0  501    0  0.00000000000E+00  0.00000000000E+00  0.42953756226E+01  0.42953785795E+01  0.50400000000E-02 0. -1.
         -2   -1    0    0    0  501 -0.00000000000E+00 -0.00000000000E+00 -0.37091696110E+03  0.37091696111E+03  0.25500000000E-02 0.  1.
        -24    2    1    2    0    0  0.88817841970E-15  0.00000000000E+00 -0.36662158548E+03  0.37521233969E+03  0.79830526219E+02 0.  0.
         66    2    3    3    0    0  0.48528872211E+01  0.39148297451E+02 -0.15558612153E+03  0.16052159021E+03  0.20000000866E+01 0.  0.
         13    1    3    3    0    0 -0.48528872211E+01 -0.39148297451E+02 -0.21103546394E+03  0.21469074948E+03  0.10566000000E+00 0. -1.
         13    1    4    4    0    0  0.67762916173E+00  0.11532738435E+02 -0.44517184819E+02  0.45991892169E+02  0.10566000000E+00 0. -1.
        -13    1    4    4    0    0  0.65727711210E+00  0.53586810949E+01 -0.20362987202E+02  0.21066795867E+02  0.10566000000E+00 0.  1.
        -14    1    4    4    0    0  0.35179809473E+01  0.22256877921E+02 -0.90705949513E+02  0.93462902169E+02  0.00000000000E+00 0.  1.
<mgrwt>
<rscale>  0 0.79830526E+02</rscale>
<asrwt>0</asrwt>
<pdfrwt beam="1">  1        1 0.66082754E-03 0.79830526E+02</pdfrwt>
<pdfrwt beam="2">  1       -2 0.57064123E-01 0.79830526E+02</pdfrwt>
<totfact> 0.62388310E+04</totfact>
</mgrwt>
</event>
<event>
 8    1  0.7756875E-014  0.7654342E+02  0.7818608E-02  0.1339157E+00
         -2   -1    0    0    0  501 -0.00000000000E+00  0.00000000000E+00  0.83425316468E+01  0.83425320366E+01  0.25500000000E-02 0.  1.
          1   -1    0    0  501    0  0.00000000000E+00 -0.00000000000E+00 -0.17557304060E+03  0.17557304067E+03  0.50400000000E-02 0. -1.
        -24    2    1    2    0    0 -0.17763568394E-14  0.00000000000E+00 -0.16723050895E+03  0.18391557271E+03  0.76543417483E+02 0.  0.
         66    2    3    3    0    0  0.15237542341E+02  0.34048046407E+02 -0.63388174130E+02  0.73576577670E+02  0.20000003361E+01 0.  0.
         13    1    3    3    0    0 -0.15237542341E+02 -0.34048046407E+02 -0.10384233482E+03  0.11033899504E+03  0.10566000000E+00 0. -1.
         13    1    4    4    0    0  0.44145568141E+00  0.14595759885E+01 -0.26510127526E+01  0.30601107553E+01  0.10566000000E+00 0. -1.
        -13    1    4    4    0    0  0.52806470150E+01  0.12469268053E+02 -0.24370119465E+02  0.27879773411E+02  0.10566000000E+00 0.  1.
         14    1    4    4    0    0  0.95154396444E+01  0.20119202365E+02 -0.36367041912E+02  0.42636693503E+02  0.00000000000E+00 0. -1.
<mgrwt>
<rscale>  0 0.76543417E+02</rscale>
<asrwt>0</asrwt>
<pdfrwt beam="1">  1        1 0.27011234E-01 0.76543417E+02</pdfrwt>
<pdfrwt beam="2">  1       -2 0.12834666E-02 0.76543417E+02</pdfrwt>
<totfact> 0.18284478E+05</totfact>
</mgrwt>
</event>
<event>
 8    1  0.7756875E-014  0.8033384E+02  0.7818608E-02  0.1328107E+00
         -2   -1    0    0    0  501 -0.00000000000E+00  0.00000000000E+00  0.16791289246E+02  0.16791289440E+02  0.25500000000E-02 0.  1.
          1   -1    0    0  501    0  0.00000000000E+00 -0.00000000000E+00 -0.96084428670E+02  0.96084428802E+02  0.50400000000E-02 0. -1.
        -24    2    1    2    0    0 -0.35527136788E-14  0.35527136788E-14 -0.79293139424E+02  0.11287571824E+03  0.80333839750E+02 0.  0.
         66    2    3    3    0    0 -0.22246597767E+02  0.21912131585E+02 -0.42272070215E+01  0.31574070077E+02  0.19999998183E+01 0.  0.
         13    1    3    3    0    0  0.22246597767E+02 -0.21912131585E+02 -0.75065932403E+02  0.81301648165E+02  0.10566000000E+00 0. -1.
         13    1    4    4    0    0 -0.51900056052E+01  0.53315595452E+01 -0.17975881510E+01  0.76553362148E+01  0.10566000000E+00 0. -1.
        -13    1    4    4    0    0 -0.73437339966E+01  0.68078108912E+01 -0.86378970869E+00  0.10051567780E+02  0.10566000000E+00 0.  1.
         14    1    4    4    0    0 -0.97128581648E+01  0.97727611483E+01 -0.15658291618E+01  0.13867166082E+02  0.00000000000E+00 0. -1.
<mgrwt>
<rscale>  0 0.80333840E+02</rscale>
<asrwt>0</asrwt>
<pdfrwt beam="1">  1        1 0.14782220E-01 0.80333840E+02</pdfrwt>
<pdfrwt beam="2">  1       -2 0.25832753E-02 0.80333840E+02</pdfrwt>
<totfact> 0.14437455E+05</totfact>
</mgrwt>
</event>
<event>
 8    1  0.8525931E-014  0.8259721E+02  0.7818608E-02  0.1321838E+00
          1   -1    0    0  501    0  0.00000000000E+00  0.00000000000E+00  0.42105132228E+03  0.42105132231E+03  0.50400000000E-02 0. -1.
         -2   -1    0    0    0  501 -0.00000000000E+00 -0.00000000000E+00 -0.40507520281E+01  0.40507528307E+01  0.25500000000E-02 0.  1.
        -24    2    1    2    0    0  0.00000000000E+00 -0.35527136788E-14  0.41700057025E+03  0.42510207514E+03  0.82597207571E+02 0.  0.
         66    2    3    3    0    0  0.33902601547E+02  0.23480712240E+02  0.19994970051E+03  0.20416809980E+03  0.20000009922E+01 0.  0.
         13    1    3    3    0    0 -0.33902601547E+02 -0.23480712240E+02  0.21705086974E+03  0.22093397533E+03  0.10566000000E+00 0. -1.
         13    1    4    4    0    0  0.51403485532E+01  0.32580305237E+01  0.27809249900E+02  0.28467586659E+02  0.10566000000E+00 0. -1.
        -13    1    4    4    0    0  0.14123244643E+02  0.10267946259E+02  0.82146410049E+02  0.83981787356E+02  0.10566000000E+00 0.  1.
         14    1    4    4    0    0  0.14639008351E+02  0.99547354579E+01  0.89994040562E+02  0.91718725789E+02  0.00000000000E+00 0. -1.
<mgrwt>
<rscale>  0 0.82597208E+02</rscale>
<asrwt>0</asrwt>
<pdfrwt beam="1">  1        1 0.64777136E-01 0.82597208E+02</pdfrwt>
<pdfrwt beam="2">  1       -2 0.62319260E-03 0.82597208E+02</pdfrwt>
<totfact> 0.17606665E+05</totfact>
</mgrwt>
</event>
<event>
 8    1  0.7756875E-014  0.7916181E+02  0.7818608E-02  0.1331447E+00
          1   -1    0    0  501    0  0.00000000000E+00  0.00000000000E+00  0.18975727741E+03  0.18975727747E+03  0.50400000000E-02 0. -1.
         -2   -1    0    0    0  501 -0.00000000000E+00 -0.00000000000E+00 -0.82560634591E+01  0.82560638529E+01  0.25500000000E-02 0.  1.
        -24    2    1    2    0    0  0.35527136788E-14  0.00000000000E+00  0.18150121395E+03  0.19801334133E+03  0.79161813261E+02 0.  0.
         66    2    3    3    0    0 -0.22766589285E+02 -0.32343700000E+02  0.91956571228E+02  0.10012214294E+03  0.19999994533E+01 0.  0.
         13    1    3    3    0    0  0.22766589285E+02  0.32343700000E+02  0.89544642718E+02  0.97891198383E+02  0.10566000000E+00 0. -1.
         13    1    4    4    0    0 -0.45108553973E+01 -0.74058940846E+01  0.20229482079E+02  0.22009956675E+02  0.10566000000E+00 0. -1.
        -13    1    4    4    0    0 -0.49536608499E+01 -0.76406877240E+01  0.21701455395E+02  0.23534723177E+02  0.10566000000E+00 0.  1.
        -14    1    4    4    0    0 -0.13302073038E+02 -0.17297118192E+02  0.50025633754E+02  0.54577463090E+02  0.00000000000E+00 0.  1.
<mgrwt>
<rscale>  0 0.79161813E+02</rscale>
<asrwt>0</asrwt>
<pdfrwt beam="1">  1        1 0.29193427E-01 0.79161813E+02</pdfrwt>
<pdfrwt beam="2">  1       -2 0.12701637E-02 0.79161813E+02</pdfrwt>
<totfact> 0.16973409E+05</totfact>
</mgrwt>
</event>
<event>
 8    1  0.7756875E-014  0.7852535E+02  0.7818608E-02  0.1333289E+00
          1   -1    0    0  501    0  0.00000000000E+00  0.00000000000E+00  0.81929769985E+01  0.81929785487E+01  0.50400000000E-02 0. -1.
         -2   -1    0    0    0  501 -0.00000000000E+00 -0.00000000000E+00 -0.18815598869E+03  0.18815598871E+03  0.25500000000E-02 0.  1.
        -24    2    1    2    0    0 -0.44408920985E-15  0.00000000000E+00 -0.17996301170E+03  0.19634896726E+03  0.78525354921E+02 0.  0.
         66    2    3    3    0    0 -0.21244616052E+01  0.34322410628E+02 -0.13728515767E+03  0.14154065040E+03  0.19999978639E+01 0.  0.
         13    1    3    3    0    0  0.21244616052E+01 -0.34322410628E+02 -0.42677854024E+02  0.54808316856E+02  0.10566000000E+00 0. -1.
         13    1    4    4    0    0 -0.21021582399E+00  0.30441847586E+01 -0.12332844985E+02  0.12705175363E+02  0.10566000000E+00 0.  1.
        -13    1    4    4    0    0 -0.15758017909E+01  0.20320658984E+02 -0.84587383089E+02  0.87008326467E+02  0.10566000000E+00 0.  1.
        -14    1    4    4    0    0 -0.33844399029E+00  0.10957566886E+02 -0.40364929598E+02  0.41827148574E+02  0.00000000000E+00 0.  1.
<mgrwt>
<rscale>  0 0.78525355E+02</rscale>
<asrwt>0</asrwt>
<pdfrwt beam="1">  1        1 0.12604583E-02 0.78525355E+02</pdfrwt>
<pdfrwt beam="2">  1       -2 0.28947072E-01 0.78525355E+02</pdfrwt>
<totfact> 0.91442801E+04</totfact>
</mgrwt>
</event>
<event>
 8    1  0.7756875E-014  0.7966457E+02  0.7818608E-02  0.1330006E+00
         -2   -1    0    0    0  501 -0.00000000000E+00  0.00000000000E+00  0.32336457656E+02  0.32336457757E+02  0.25500000000E-02 0.  1.
          1   -1    0    0  501    0  0.00000000000E+00 -0.00000000000E+00 -0.49065700197E+02  0.49065700456E+02  0.50400000000E-02 0. -1.
        -24    2    1    2    0    0  0.35527136788E-14  0.00000000000E+00 -0.16729242541E+02  0.81402158213E+02  0.79664570580E+02 0.  0.
         66    2    3    3    0    0 -0.19059585294E+02  0.18187874172E+02  0.22122919547E+02  0.34459978657E+02  0.20000003174E+01 0.  0.
         13    1    3    3    0    0  0.19059585294E+02 -0.18187874172E+02 -0.38852162088E+02  0.46942179556E+02  0.10566000000E+00 0. -1.
         13    1    4    4    0    0 -0.17724156907E+01  0.16399719120E+01  0.19739245003E+01  0.31206581392E+01  0.10566000000E+00 0. -1.
        -13    1    4    4    0    0 -0.10593062257E+02  0.11338960409E+02  0.13299205355E+02  0.20436854412E+02  0.10566000000E+00 0.  1.
         14    1    4    4    0    0 -0.66941073462E+01  0.52089418513E+01  0.68497896918E+01  0.10902466106E+02  0.00000000000E+00 0. -1.
<mgrwt>
<rscale>  0 0.79664571E+02</rscale>
<asrwt>0</asrwt>
<pdfrwt beam="1">  1        1 0.75485693E-02 0.79664571E+02</pdfrwt>
<pdfrwt beam="2">  1       -2 0.49748396E-02 0.79664571E+02</pdfrwt>
<totfact> 0.13272430E+05</totfact>
</mgrwt>
</event>
<event>
 8    1  0.7756875E-014  0.8124361E+02  0.7818608E-02  0.1325559E+00
          1   -1    0    0  501    0  0.00000000000E+00  0.00000000000E+00  0.21821832751E+02  0.21821833333E+02  0.50400000000E-02 0. -1.
         -2   -1    0    0    0  501 -0.00000000000E+00 -0.00000000000E+00 -0.75618345486E+02  0.75618345529E+02  0.25500000000E-02 0.  1.
        -24    2    1    2    0    0  0.35527136788E-14  0.71054273576E-14 -0.53796512736E+02  0.97440178862E+02  0.81243606974E+02 0.  0.
         66    2    3    3    0    0  0.21931109674E+02  0.32726441326E+02 -0.15155150041E+02  0.42257214024E+02  0.20000077351E+01 0.  0.
         13    1    3    3    0    0 -0.21931109674E+02 -0.32726441326E+02 -0.38641362695E+02  0.55182964838E+02  0.10566000000E+00 0. -1.
         13    1    4    4    0    0  0.68569172387E+01  0.10470024290E+02 -0.39663445324E+01  0.13129424041E+02  0.10566000000E+00 0. -1.
        -13    1    4    4    0    0  0.18724474952E+01  0.23471636127E+01 -0.12772344852E+01  0.32646176825E+01  0.10566000000E+00 0. -1.
        -14    1    4    4    0    0  0.13201744940E+02  0.19909253423E+02 -0.99115710231E+01  0.25863172301E+02  0.00000000000E+00 0.  1.
<mgrwt>
<rscale>  0 0.81243607E+02</rscale>
<asrwt>0</asrwt>
<pdfrwt beam="1">  1        1 0.33572051E-02 0.81243607E+02</pdfrwt>
<pdfrwt beam="2">  1       -2 0.11633592E-01 0.81243607E+02</pdfrwt>
<totfact> 0.10875151E+05</totfact>
</mgrwt>
</event>
<event>
 8    1  0.7756875E-014  0.8064917E+02  0.7818608E-02  0.1327219E+00
         -2   -1    0    0    0  501 -0.00000000000E+00  0.00000000000E+00  0.47127810485E+02  0.47127810554E+02  0.25500000000E-02 0.  1.
          1   -1    0    0  501    0  0.00000000000E+00 -0.00000000000E+00 -0.34503450345E+02  0.34503450713E+02  0.50400000000E-02 0. -1.
        -24    2    1    2    0    0  0.00000000000E+00  0.00000000000E+00  0.12624360140E+02  0.81631261266E+02  0.80649168297E+02 0.  0.
         66    2    3    3    0    0 -0.15967195429E+02  0.23594096144E+01  0.43691979033E+02  0.46620887785E+02  0.20000005973E+01 0.  0.
         13    1    3    3    0    0  0.15967195429E+02 -0.23594096144E+01 -0.31067618893E+02  0.35010373482E+02  0.10566000000E+00 0. -1.
         13    1    4    4    0    0 -0.19604675828E+01 -0.19708321147E+00  0.59521478079E+01  0.62706859671E+01  0.10566000000E+00 0. -1.
        -13    1    4    4    0    0 -0.61212427278E+01  0.15944118144E+01  0.17363642249E+02  0.18480232621E+02  0.10566000000E+00 0.  1.
         14    1    4    4    0    0 -0.78854851181E+01  0.96208101146E+00  0.20376188977E+02  0.21869969196E+02  0.00000000000E+00 0. -1.
<mgrwt>
<rscale>  0 0.80649168E+02</rscale>
<asrwt>0</asrwt>
<pdfrwt beam="1">  1        1 0.53082232E-02 0.80649168E+02</pdfrwt>
<pdfrwt beam="2">  1       -2 0.72504324E-02 0.80649168E+02</pdfrwt>
<totfact> 0.12108749E+05</totfact>
</mgrwt>
</event>
<event>
 8    1  0.7756875E-014  0.7893054E+02  0.7818608E-02  0.1332114E+00
         -2   -1    0    0    0  501 -0.00000000000E+00  0.00000000000E+00  0.47057597998E+01  0.47057604907E+01  0.25500000000E-02 0.  1.
          1   -1    0    0  501    0  0.00000000000E+00 -0.00000000000E+00 -0.33097898589E+03  0.33097898593E+03  0.50400000000E-02 0. -1.
        -24    2    1    2    0    0  0.00000000000E+00  0.00000000000E+00 -0.32627322609E+03  0.33568474642E+03  0.78930544881E+02 0.  0.
         66    2    3    3    0    0 -0.18097917520E+02  0.34905840263E+02 -0.15009792294E+03  0.15517518737E+03  0.20000005643E+01 0.  0.
         13    1    3    3    0    0  0.18097917520E+02 -0.34905840263E+02 -0.17617530315E+03  0.18050955905E+03  0.10566000000E+00 0. -1.
         13    1    4    4    0    0 -0.10087449649E+02  0.17413097187E+02 -0.75845154445E+02  0.78469555949E+02  0.10566000000E+00 0. -1.
        -13    1    4    4    0    0 -0.49262366524E+01  0.11120762290E+02 -0.46984183865E+02  0.48533121257E+02  0.10566000000E+00 0.  1.
        -14    1    4    4    0    0 -0.30842312183E+01  0.63719807856E+01 -0.27268584631E+02  0.28172510167E+02  0.00000000000E+00 0.  1.
<mgrwt>
<rscale>  0 0.78930545E+02</rscale>
<asrwt>0</asrwt>
<pdfrwt beam="1">  1        1 0.50919826E-01 0.78930545E+02</pdfrwt>
<pdfrwt beam="2">  1       -2 0.72396336E-03 0.78930545E+02</pdfrwt>
<totfact> 0.19038837E+05</totfact>
</mgrwt>
</event>
<event>
 8    1  0.7756875E-014  0.8114514E+02  0.7818608E-02  0.1325833E+00
          1   -1    0    0  501    0  0.00000000000E+00  0.00000000000E+00  0.13771030189E+03  0.13771030198E+03  0.50400000000E-02 0. -1.
         -2   -1    0    0    0  501 -0.00000000000E+00 -0.00000000000E+00 -0.11953596779E+02  0.11953597051E+02  0.25500000000E-02 0.  1.
        -24    2    1    2    0    0  0.00000000000E+00 -0.71054273576E-14  0.12575670511E+03  0.14966389903E+03  0.81145140293E+02 0.  0.
         66    2    3    3    0    0 -0.13158358405E+02 -0.38241982655E+02  0.57527507483E+02  0.70349170221E+02  0.20000001019E+01 0.  0.
         13    1    3    3    0    0  0.13158358405E+02  0.38241982655E+02  0.68229197625E+02  0.79314728808E+02  0.10566000000E+00 0. -1.
         13    1    4    4    0    0 -0.28895112840E+01 -0.82038562610E+01  0.12490160775E+02  0.15220637741E+02  0.10566000000E+00 0. -1.
        -13    1    4    4    0    0 -0.60364076822E+01 -0.17438786034E+02  0.24684850186E+02  0.30820487809E+02  0.10566000000E+00 0.  1.
         14    1    4    4    0    0 -0.42324394386E+01 -0.12599340360E+02  0.20352496522E+02  0.24308044672E+02  0.00000000000E+00 0. -1.
<mgrwt>
<rscale>  0 0.81145140E+02</rscale>
<asrwt>0</asrwt>
<pdfrwt beam="1">  1        1 0.21186202E-01 0.81145140E+02</pdfrwt>
<pdfrwt beam="2">  1       -2 0.18390147E-02 0.81145140E+02</pdfrwt>
<totfact> 0.14962597E+05</totfact>
</mgrwt>
</event>
<event>
 8    1  0.7756875E-014  0.8031743E+02  0.7818608E-02  0.1328153E+00
          1   -1    0    0  501    0  0.00000000000E+00  0.00000000000E+00  0.71872697753E+01  0.71872715424E+01  0.50400000000E-02 0. -1.
         -2   -1    0    0    0  501 -0.00000000000E+00 -0.00000000000E+00 -0.22438590093E+03  0.22438590094E+03  0.25500000000E-02 0.  1.
        -24    2    1    2    0    0  0.00000000000E+00  0.00000000000E+00 -0.21719863115E+03  0.23157317249E+03  0.80317425508E+02 0.  0.
         66    2    3    3    0    0  0.35925046038E+01  0.24683507941E+02 -0.19931788865E+03  0.20088255877E+03  0.20000075797E+01 0.  0.
         13    1    3    3    0    0 -0.35925046038E+01 -0.24683507941E+02 -0.17880742508E+02  0.30690613716E+02  0.10566000000E+00 0. -1.
         13    1    4    4    0    0  0.10067401059E+01  0.56864852823E+01 -0.51394882941E+02  0.51718418355E+02  0.10566000000E+00 0. -1.
        -13    1    4    4    0    0  0.18480190426E+01  0.10237250895E+02 -0.78000193286E+02  0.78690900344E+02  0.10566000000E+00 0.  1.
        -14    1    4    4    0    0  0.73774545531E+00  0.87597717636E+01 -0.69922812418E+02  0.70473240071E+02  0.00000000000E+00 0.  1.
<mgrwt>
<rscale>  0 0.80317426E+02</rscale>
<asrwt>0</asrwt>
<pdfrwt beam="1">  1        1 0.11057341E-02 0.80317426E+02</pdfrwt>
<pdfrwt beam="2">  1       -2 0.34520902E-01 0.80317426E+02</pdfrwt>
<totfact> 0.80210230E+04</totfact>
</mgrwt>
</event>
<event>
 8    1  0.7756875E-014  0.8354231E+02  0.7818608E-02  0.1319289E+00
          1   -1    0    0  501    0  0.00000000000E+00  0.00000000000E+00  0.10321988066E+02  0.10321989297E+02  0.50400000000E-02 0. -1.
         -2   -1    0    0    0  501 -0.00000000000E+00 -0.00000000000E+00 -0.16904003651E+03  0.16904003653E+03  0.25500000000E-02 0.  1.
        -24    2    1    2    0    0  0.00000000000E+00 -0.88817841970E-15 -0.15871804844E+03  0.17936202582E+03  0.83542309080E+02 0.  0.
         66    2    3    3    0    0 -0.40392575919E+02 -0.69552797368E+01 -0.96430226510E+02  0.10479849566E+03  0.20000005251E+01 0.  0.
         13    1    3    3    0    0  0.40392575919E+02  0.69552797368E+01 -0.62287821931E+02  0.74563530164E+02  0.10566000000E+00 0. -1.
         13    1    4    4    0    0 -0.77439792311E+00 -0.80562871018E-01 -0.19995447993E+01  0.21483775179E+01  0.10566000000E+00 0.  1.
        -13    1    4    4    0    0 -0.15898280222E+02 -0.33917109677E+01 -0.39640023785E+02  0.42843922171E+02  0.10566000000E+00 0.  1.
        -14    1    4    4    0    0 -0.23719897774E+02 -0.34830058980E+01 -0.54790657926E+02  0.59806195971E+02  0.00000000000E+00 0.  1.
<mgrwt>
<rscale>  0 0.83542309E+02</rscale>
<asrwt>0</asrwt>
<pdfrwt beam="1">  1        1 0.15879984E-02 0.83542309E+02</pdfrwt>
<pdfrwt beam="2">  1       -2 0.26006158E-01 0.83542309E+02</pdfrwt>
<totfact> 0.81121511E+04</totfact>
</mgrwt>
</event>
<event>
 8    1  0.7756875E-014  0.7978841E+02  0.7818608E-02  0.1329653E+00
         -2   -1    0    0    0  501 -0.00000000000E+00  0.00000000000E+00  0.66251916674E+03  0.66251916675E+03  0.25500000000E-02 0.  1.
          1   -1    0    0  501    0  0.00000000000E+00 -0.00000000000E+00 -0.24022640843E+01  0.24022693713E+01  0.50400000000E-02 0. -1.
        -24    2    1    2    0    0  0.00000000000E+00  0.00000000000E+00  0.66011690266E+03  0.66492143612E+03  0.79788414166E+02 0.  0.
         66    2    3    3    0    0  0.35817276017E+02 -0.85203893111E+01  0.45776284956E+03  0.45924536005E+03  0.20000001189E+01 0.  0.
         13    1    3    3    0    0 -0.35817276017E+02  0.85203893111E+01  0.20235405310E+03  0.20567607607E+03  0.10566000000E+00 0. -1.
         13    1    4    4    0    0  0.74009511276E+01 -0.20629582618E+01  0.96888879269E+02  0.97193085991E+02  0.10566000000E+00 0. -1.
        -13    1    4    4    0    0  0.18324588409E+02 -0.36418648688E+01  0.23840658820E+03  0.23913754658E+03  0.10566000000E+00 0.  1.
        -14    1    4    4    0    0  0.10091736480E+02 -0.28155661805E+01  0.12246738208E+03  0.12291472748E+03  0.00000000000E+00 0.  1.
<mgrwt>
<rscale>  0 0.79788414E+02</rscale>
<asrwt>0</asrwt>
<pdfrwt beam="1">  1        1 0.36957924E-03 0.79788414E+02</pdfrwt>
<pdfrwt beam="2">  1       -2 0.10192610E+00 0.79788414E+02</pdfrwt>
<totfact> 0.40097829E+04</totfact>
</mgrwt>
</event>
<event>
 8    1  0.7756875E-014  0.8021611E+02  0.7818608E-02  0.1328439E+00
          1   -1    0    0  501    0  0.00000000000E+00  0.00000000000E+00  0.13359310863E+02  0.13359311814E+02  0.50400000000E-02 0. -1.
         -2   -1    0    0    0  501 -0.00000000000E+00 -0.00000000000E+00 -0.12041459446E+03  0.12041459448E+03  0.25500000000E-02 0.  1.
        -24    2    1    2    0    0  0.00000000000E+00 -0.71054273576E-14 -0.10705528359E+03  0.13377390630E+03  0.80216109734E+02 0.  0.
         66    2    3    3    0    0 -0.65986525395E+01  0.36391053389E+02 -0.79331575196E+02  0.87551983432E+02  0.19999993955E+01 0.  0.
         13    1    3    3    0    0  0.65986525395E+01 -0.36391053389E+02 -0.27723708396E+02  0.46221922865E+02  0.10566000000E+00 0. -1.
         13    1    4    4    0    0 -0.14994628192E+01  0.12767928090E+02 -0.27058778595E+02  0.29957587345E+02  0.10566000000E+00 0. -1.
        -13    1    4    4    0    0 -0.13435244487E+01  0.64109243716E+01 -0.13383763200E+02  0.14901049986E+02  0.10566000000E+00 0.  1.
        -14    1    4    4    0    0 -0.37556652716E+01  0.17212200927E+02 -0.38889033401E+02  0.42693346101E+02  0.00000000000E+00 0.  1.
<mgrwt>
<rscale>  0 0.80216110E+02</rscale>
<asrwt>0</asrwt>
<pdfrwt beam="1">  1        1 0.20552787E-02 0.80216110E+02</pdfrwt>
<pdfrwt beam="2">  1       -2 0.18525322E-01 0.80216110E+02</pdfrwt>
<totfact> 0.10035016E+05</totfact>
</mgrwt>
</event>
<event>
 8    1  0.7756875E-014  0.7963299E+02  0.7818608E-02  0.1330096E+00
         -2   -1    0    0    0  501 -0.00000000000E+00  0.00000000000E+00  0.10721080273E+03  0.10721080276E+03  0.25500000000E-02 0.  1.
          1   -1    0    0  501    0  0.00000000000E+00 -0.00000000000E+00 -0.14787252412E+02  0.14787253271E+02  0.50400000000E-02 0. -1.
        -24    2    1    2    0    0  0.71054273576E-14  0.00000000000E+00  0.92423550317E+02  0.12199805603E+03  0.79632989533E+02 0.  0.
         66    2    3    3    0    0  0.33498192302E+02 -0.84090764623E+01  0.76515150486E+02  0.83972672355E+02  0.19999984991E+01 0.  0.
         13    1    3    3    0    0 -0.33498192302E+02  0.84090764623E+01  0.15908399831E+02  0.38025383676E+02  0.10566000000E+00 0. -1.
         13    1    4    4    0    0  0.16400268397E+02 -0.35617485401E+01  0.38560918566E+02  0.42054850622E+02  0.10566000000E+00 0. -1.
        -13    1    4    4    0    0  0.10949091080E+02 -0.32507834045E+01  0.23474756406E+02  0.26106044139E+02  0.10566000000E+00 0.  1.
        -14    1    4    4    0    0  0.61488328255E+01 -0.15965445177E+01  0.14479475513E+02  0.15811777593E+02  0.00000000000E+00 0.  1.
<mgrwt>
<rscale>  0 0.79632990E+02</rscale>
<asrwt>0</asrwt>
<pdfrwt beam="1">  1        1 0.22749620E-02 0.79632990E+02</pdfrwt>
<pdfrwt beam="2">  1       -2 0.16493969E-01 0.79632990E+02</pdfrwt>
<totfact> 0.10550331E+05</totfact>
</mgrwt>
</event>
<event>
 8    1  0.7756875E-014  0.7448928E+02  0.7818608E-02  0.1345460E+00
          1   -1    0    0  501    0  0.00000000000E+00  0.00000000000E+00  0.13492247327E+03  0.13492247336E+03  0.50400000000E-02 0. -1.
         -2   -1    0    0    0  501 -0.00000000000E+00 -0.00000000000E+00 -0.10281186316E+02  0.10281186632E+02  0.25500000000E-02 0.  1.
        -24    2    1    2    0    0 -0.35527136788E-14  0.00000000000E+00  0.12464128695E+03  0.14520366000E+03  0.74489277502E+02 0.  0.
         66    2    3    3    0    0  0.17762682058E+02 -0.18690540524E+02  0.10048395269E+02  0.27745619966E+02  0.20000002123E+01 0.  0.
         13    1    3    3    0    0 -0.17762682058E+02  0.18690540524E+02  0.11459289168E+03  0.11745804003E+03  0.10566000000E+00 0. -1.
         13    1    4    4    0    0  0.67737524704E+01 -0.63025075215E+01  0.42643858413E+01  0.10188300851E+02  0.10566000000E+00 0. -1.
        -13    1    4    4    0    0  0.94188286303E+01 -0.10508732614E+02  0.51987466749E+01  0.15039478878E+02  0.10566000000E+00 0.  1.
         14    1    4    4    0    0  0.15701009568E+01 -0.18793003891E+01  0.58526275268E+00  0.25178402365E+01  0.00000000000E+00 0. -1.
<mgrwt>
<rscale>  0 0.74489278E+02</rscale>
<asrwt>0</asrwt>
<pdfrwt beam="1">  1        1 0.20757302E-01 0.74489278E+02</pdfrwt>
<pdfrwt beam="2">  1       -2 0.15817211E-02 0.74489278E+02</pdfrwt>
<totfact> 0.18732795E+05</totfact>
</mgrwt>
</event>
<event>
 8    1  0.7756875E-014  0.8183068E+02  0.7818608E-02  0.1323935E+00
          1   -1    0    0  501    0  0.00000000000E+00  0.00000000000E+00  0.83625384013E+01  0.83625399201E+01  0.50400000000E-02 0. -1.
         -2   -1    0    0    0  501 -0.00000000000E+00 -0.00000000000E+00 -0.20018620752E+03  0.20018620754E+03  0.25500000000E-02 0.  1.
        -24    2    1    2    0    0  0.00000000000E+00 -0.17763568394E-14 -0.19182366912E+03  0.20854874746E+03  0.81830679036E+02 0.  0.
         66    2    3    3    0    0 -0.35457456174E+02  0.13445347237E+02 -0.56979516977E+02  0.68473892142E+02  0.19999973510E+01 0.  0.
         13    1    3    3    0    0  0.35457456174E+02 -0.13445347237E+02 -0.13484415214E+03  0.14007485532E+03  0.10566000000E+00 0. -1.
         13    1    4    4    0    0 -0.15690347945E+02  0.55283848372E+01 -0.26075951888E+02  0.30930833944E+02  0.10566000000E+00 0. -1.
        -13    1    4    4    0    0 -0.16257904488E+02  0.63771072885E+01 -0.24675138588E+02  0.30230127093E+02  0.10566000000E+00 0.  1.
        -14    1    4    4    0    0 -0.35092037409E+01  0.15398551112E+01 -0.62284265018E+01  0.73129311050E+01  0.00000000000E+00 0.  1.
<mgrwt>
<rscale>  0 0.81830679E+02</rscale>
<asrwt>0</asrwt>
<pdfrwt beam="1">  1        1 0.12865446E-02 0.81830679E+02</pdfrwt>
<pdfrwt beam="2">  1       -2 0.30797874E-01 0.81830679E+02</pdfrwt>
<totfact> 0.80219353E+04</totfact>
</mgrwt>
</event>
<event>
 8    1  0.7756875E-014  0.8014923E+02  0.7818608E-02  0.1328628E+00
         -2   -1    0    0    0  501 -0.00000000000E+00  0.00000000000E+00  0.14169145717E+02  0.14169145947E+02  0.25500000000E-02 0.  1.
          1   -1    0    0  501    0  0.00000000000E+00 -0.00000000000E+00 -0.11334308861E+03  0.11334308872E+03  0.50400000000E-02 0. -1.
        -24    2    1    2    0    0  0.00000000000E+00  0.35527136788E-14 -0.99173942891E+02  0.12751223467E+03  0.80149229823E+02 0.  0.
         66    2    3    3    0    0  0.25134546759E+02 -0.19077653192E+02 -0.10380398845E+02  0.33278446032E+02  0.19999995049E+01 0.  0.
         13    1    3    3    0    0 -0.25134546759E+02  0.19077653192E+02 -0.88793544046E+02  0.94233788634E+02  0.10566000000E+00 0. -1.
         13    1    4    4    0    0  0.21985496397E+01 -0.13726366091E+01 -0.11261972883E+01  0.28279384977E+01  0.10566000000E+00 0.  1.
        -13    1    4    4    0    0  0.21148702828E+01 -0.17145830500E+01 -0.13014993815E+01  0.30195257946E+01  0.10566000000E+00 0.  1.
        -14    1    4    4    0    0  0.20821126837E+02 -0.15990433533E+02 -0.79527021752E+01  0.27430981740E+02  0.00000000000E+00 0.  1.
<mgrwt>
<rscale>  0 0.80149230E+02</rscale>
<asrwt>0</asrwt>
<pdfrwt beam="1">  1        1 0.17437398E-01 0.80149230E+02</pdfrwt>
<pdfrwt beam="2">  1       -2 0.21798687E-02 0.80149230E+02</pdfrwt>
<totfact> 0.14941295E+05</totfact>
</mgrwt>
</event>
<event>
 8    1  0.7756875E-014  0.7864050E+02  0.7818608E-02  0.1332954E+00
         -2   -1    0    0    0  501 -0.00000000000E+00  0.00000000000E+00  0.17069207197E+03  0.17069207199E+03  0.25500000000E-02 0.  1.
          1   -1    0    0  501    0  0.00000000000E+00 -0.00000000000E+00 -0.90577252001E+01  0.90577266023E+01  0.50400000000E-02 0. -1.
        -24    2    1    2    0    0  0.00000000000E+00  0.00000000000E+00  0.16163434677E+03  0.17974979859E+03  0.78640498713E+02 0.  0.
         66    2    3    3    0    0  0.29000036203E+02 -0.12492351871E+02  0.27410132620E+02  0.41861395224E+02  0.20000211938E+01 0.  0.
         13    1    3    3    0    0 -0.29000036203E+02  0.12492351871E+02  0.13422421415E+03  0.13788840336E+03  0.10566000000E+00 0. -1.
         13    1    4    4    0    0  0.12798641787E+02 -0.46517370774E+01  0.11482008666E+02  0.17812680216E+02  0.10566000000E+00 0. -1.
        -13    1    4    4    0    0  0.60552722992E+01 -0.32580317536E+01  0.57420349225E+01  0.89589744174E+01  0.10566000000E+00 0.  1.
         14    1    4    4    0    0  0.10146122117E+02 -0.45825830397E+01  0.10186089032E+02  0.15089740591E+02  0.00000000000E+00 0. -1.
<mgrwt>
<rscale>  0 0.78640499E+02</rscale>
<asrwt>0</asrwt>
<pdfrwt beam="1">  1        1 0.13934963E-02 0.78640499E+02</pdfrwt>
<pdfrwt beam="2">  1       -2 0.26260318E-01 0.78640499E+02</pdfrwt>
<totfact> 0.94477932E+04</totfact>
</mgrwt>
</event>
<event>
 8    1  0.7756875E-014  0.8012375E+02  0.7818608E-02  0.1328701E+00
          1   -1    0    0  501    0  0.00000000000E+00  0.00000000000E+00  0.68275845656E+02  0.68275845842E+02  0.50400000000E-02 0. -1.
         -2   -1    0    0    0  501 -0.00000000000E+00 -0.00000000000E+00 -0.23506905707E+02  0.23506905845E+02  0.25500000000E-02 0.  1.
        -24    2    1    2    0    0  0.00000000000E+00 -0.35527136788E-14  0.44768939949E+02  0.91782751687E+02  0.80123751304E+02 0.  0.
         66    2    3    3    0    0 -0.17380933084E+02 -0.31244695973E+02  0.17594020855E+01  0.35852801100E+02  0.19999974240E+01 0.  0.
         13    1    3    3    0    0  0.17380933084E+02  0.31244695973E+02  0.43009537864E+02  0.55929950587E+02  0.10566000000E+00 0. -1.
         13    1    4    4    0    0 -0.67486197293E+00 -0.84935543844E+00  0.32314182023E+00  0.11368500406E+01  0.10566000000E+00 0. -1.
        -13    1    4    4    0    0 -0.59977383063E+01 -0.10695839224E+02  0.64788547655E+00  0.12280259000E+02  0.10566000000E+00 0.  1.
         14    1    4    4    0    0 -0.10708332805E+02 -0.19699501311E+02  0.78837478872E+00  0.22435692059E+02  0.00000000000E+00 0. -1.
<mgrwt>
<rscale>  0 0.80123751E+02</rscale>
<asrwt>0</asrwt>
<pdfrwt beam="1">  1        1 0.10503977E-01 0.80123751E+02</pdfrwt>
<pdfrwt beam="2">  1       -2 0.36164470E-02 0.80123751E+02</pdfrwt>
<totfact> 0.13757649E+05</totfact>
</mgrwt>
</event>
<event>
 8    1  0.7756875E-014  0.7730732E+02  0.7818608E-02  0.1336871E+00
         -2   -1    0    0    0  501 -0.00000000000E+00  0.00000000000E+00  0.24658879682E+03  0.24658879683E+03  0.25500000000E-02 0.  1.
          1   -1    0    0  501    0  0.00000000000E+00 -0.00000000000E+00 -0.60590959870E+01  0.60590980832E+01  0.50400000000E-02 0. -1.
        -24    2    1    2    0    0  0.17763568394E-14  0.00000000000E+00  0.24052970083E+03  0.25264789492E+03  0.77307320629E+02 0.  0.
         66    2    3    3    0    0 -0.82891359833E+01 -0.20932056038E+02  0.22292590757E+03  0.22406878635E+03  0.20000009050E+01 0.  0.
         13    1    3    3    0    0  0.82891359833E+01  0.20932056038E+02  0.17603793261E+02  0.28579108568E+02  0.10566000000E+00 0. -1.
         13    1    4    4    0    0 -0.32826186025E+01 -0.70257931195E+01  0.73190387593E+02  0.73600145067E+02  0.10566000000E+00 0. -1.
        -13    1    4    4    0    0 -0.30380843903E+01 -0.88724286539E+01  0.10088777013E+03  0.10132276779E+03  0.10566000000E+00 0.  1.
        -14    1    4    4    0    0 -0.19684329905E+01 -0.50338342645E+01  0.48847749848E+02  0.49145873489E+02  0.00000000000E+00 0.  1.
<mgrwt>
<rscale>  0 0.77307321E+02</rscale>
<asrwt>0</asrwt>
<pdfrwt beam="1">  1        1 0.93216869E-03 0.77307321E+02</pdfrwt>
<pdfrwt beam="2">  1       -2 0.37936741E-01 0.77307321E+02</pdfrwt>
<totfact> 0.84785674E+04</totfact>
</mgrwt>
</event>
<event>
 8    1  0.7756875E-014  0.8030035E+02  0.7818608E-02  0.1328201E+00
         -2   -1    0    0    0  501 -0.00000000000E+00  0.00000000000E+00  0.14301899794E+02  0.14301900021E+02  0.25500000000E-02 0.  1.
          1   -1    0    0  501    0  0.00000000000E+00 -0.00000000000E+00 -0.11271485250E+03  0.11271485261E+03  0.50400000000E-02 0. -1.
        -24    2    1    2    0    0  0.00000000000E+00 -0.35527136788E-14 -0.98412952702E+02  0.12701675263E+03  0.80300349868E+02 0.  0.
         66    2    3    3    0    0 -0.29288125133E+02  0.22363680305E+02 -0.24121945028E+02  0.44088509817E+02  0.19999988366E+01 0.  0.
         13    1    3    3    0    0  0.29288125133E+02 -0.22363680305E+02 -0.74291007674E+02  0.82928242812E+02  0.10566000000E+00 0. -1.
         13    1    4    4    0    0 -0.87813148245E+01  0.66013943573E+01 -0.64167052298E+01  0.12723017235E+02  0.10566000000E+00 0. -1.
        -13    1    4    4    0    0 -0.89907503646E+01  0.69019510347E+01 -0.70721346596E+01  0.13360268444E+02  0.10566000000E+00 0.  1.
         14    1    4    4    0    0 -0.11516059944E+02  0.88603349131E+01 -0.10633105138E+02  0.18005224139E+02  0.00000000000E+00 0. -1.
<mgrwt>
<rscale>  0 0.80300350E+02</rscale>
<asrwt>0</asrwt>
<pdfrwt beam="1">  1        1 0.17340746E-01 0.80300350E+02</pdfrwt>
<pdfrwt beam="2">  1       -2 0.22002924E-02 0.80300350E+02</pdfrwt>
<totfact> 0.14851385E+05</totfact>
</mgrwt>
</event>
<event>
 8    1  0.7756875E-014  0.8545282E+02  0.7818608E-02  0.1314253E+00
         -2   -1    0    0    0  501 -0.00000000000E+00  0.00000000000E+00  0.10457850531E+02  0.10457850842E+02  0.25500000000E-02 0.  1.
          1   -1    0    0  501    0  0.00000000000E+00 -0.00000000000E+00 -0.17456226076E+03  0.17456226083E+03  0.50400000000E-02 0. -1.
        -24    2    1    2    0    0  0.00000000000E+00  0.00000000000E+00 -0.16410441023E+03  0.18502011168E+03  0.85452818957E+02 0.  0.
         66    2    3    3    0    0  0.20260672501E+02 -0.17846671630E+02 -0.10464732593E+02  0.29026008432E+02  0.19999996974E+01 0.  0.
         13    1    3    3    0    0 -0.20260672501E+02  0.17846671630E+02 -0.15363967764E+03  0.15599410324E+03  0.10566000000E+00 0. -1.
         13    1    4    4    0    0  0.99444862790E+01 -0.95406422542E+01 -0.44996954338E+01  0.14497416494E+02  0.10566000000E+00 0.  1.
        -13    1    4    4    0    0  0.39619465019E+01 -0.32041878463E+01 -0.24205157075E+01  0.56421538586E+01  0.10566000000E+00 0. -1.
        -14    1    4    4    0    0  0.63542397199E+01 -0.51018415294E+01 -0.35445214515E+01  0.88864380788E+01  0.00000000000E+00 0.  1.
<mgrwt>
<rscale>  0 0.85452819E+02</rscale>
<asrwt>0</asrwt>
<pdfrwt beam="1">  1        1 0.26855730E-01 0.85452819E+02</pdfrwt>
<pdfrwt beam="2">  1       -2 0.16089002E-02 0.85452819E+02</pdfrwt>
<totfact> 0.13618379E+05</totfact>
</mgrwt>
</event>
<event>
 8    1  0.7756875E-014  0.7908928E+02  0.7818608E-02  0.1331656E+00
         -2   -1    0    0    0  501 -0.00000000000E+00  0.00000000000E+00  0.53219709069E+02  0.53219709130E+02  0.25500000000E-02 0.  1.
          1   -1    0    0  501    0  0.00000000000E+00 -0.00000000000E+00 -0.29383445693E+02  0.29383446125E+02  0.50400000000E-02 0. -1.
        -24    2    1    2    0    0  0.00000000000E+00  0.00000000000E+00  0.23836263376E+02  0.82603155256E+02  0.79089277443E+02 0.  0.
         66    2    3    3    0    0  0.36645765429E+02  0.11733611938E+02  0.25152134194E+01  0.38612382265E+02  0.19999981576E+01 0.  0.
         13    1    3    3    0    0 -0.36645765429E+02 -0.11733611938E+02  0.21321049957E+02  0.43990772990E+02  0.10566000000E+00 0. -1.
         13    1    4    4    0    0  0.14597680434E+02  0.49947598736E+01  0.49917689803E+00  0.15436976449E+02  0.10566000000E+00 0. -1.
        -13    1    4    4    0    0  0.44607438422E+01  0.18736096046E+01  0.46810157659E+00  0.48619884510E+01  0.10566000000E+00 0.  1.
         14    1    4    4    0    0  0.17587341153E+02  0.48652424599E+01  0.15479349448E+01  0.18313417366E+02  0.00000000000E+00 0. -1.
<mgrwt>
<rscale>  0 0.79089277E+02</rscale>
<asrwt>0</asrwt>
<pdfrwt beam="1">  1        1 0.45205302E-02 0.79089277E+02</pdfrwt>
<pdfrwt beam="2">  1       -2 0.81876475E-02 0.79089277E+02</pdfrwt>
<totfact> 0.12453507E+05</totfact>
</mgrwt>
</event>
<event>
 8    1  0.7756875E-014  0.7978162E+02  0.7818608E-02  0.1329672E+00
         -2   -1    0    0    0  501 -0.00000000000E+00  0.00000000000E+00  0.37524725165E+02  0.37524725251E+02  0.25500000000E-02 0.  1.
          1   -1    0    0  501    0  0.00000000000E+00 -0.00000000000E+00 -0.42406090784E+02  0.42406091084E+02  0.50400000000E-02 0. -1.
        -24    2    1    2    0    0 -0.17763568394E-14  0.00000000000E+00 -0.48813656192E+01  0.79930816335E+02  0.79781624887E+02 0.  0.
         66    2    3    3    0    0  0.15660655250E+02  0.36976316546E+01  0.34099866037E+02  0.37758832884E+02  0.19999985859E+01 0.  0.
         13    1    3    3    0    0 -0.15660655250E+02 -0.36976316546E+01 -0.38981231656E+02  0.42171983451E+02  0.10566000000E+00 0. -1.
         13    1    4    4    0    0  0.10989609472E+02  0.32919860630E+01  0.23318038471E+02  0.25987511824E+02  0.10566000000E+00 0. -1.
        -13    1    4    4    0    0  0.40499818672E+01  0.15563842816E+00  0.92870993642E+01  0.10133506554E+02  0.10566000000E+00 0.  1.
        -14    1    4    4    0    0  0.62106391072E+00  0.25000716337E+00  0.14947282011E+01  0.16378145066E+01  0.00000000000E+00 0.  1.
<mgrwt>
<rscale>  0 0.79781625E+02</rscale>
<asrwt>0</asrwt>
<pdfrwt beam="1">  1        1 0.65240141E-02 0.79781625E+02</pdfrwt>
<pdfrwt beam="2">  1       -2 0.57730346E-02 0.79781625E+02</pdfrwt>
<totfact> 0.12916498E+05</totfact>
</mgrwt>
</event>
<event>
 8    1  0.7756875E-014  0.7917808E+02  0.7818608E-02  0.1331400E+00
          1   -1    0    0  501    0  0.00000000000E+00  0.00000000000E+00  0.86883960878E+02  0.86883961024E+02  0.50400000000E-02 0. -1.
         -2   -1    0    0    0  501 -0.00000000000E+00 -0.00000000000E+00 -0.18038911247E+02  0.18038911428E+02  0.25500000000E-02 0.  1.
        -24    2    1    2    0    0  0.00000000000E+00  0.00000000000E+00  0.68845049631E+02  0.10492287245E+03  0.79178079699E+02 0.  0.
         66    2    3    3    0    0 -0.69146234920E+01 -0.20848664677E+02 -0.91610455199E+01  0.23883123677E+02  0.20000011670E+01 0.  0.
         13    1    3    3    0    0  0.69146234920E+01  0.20848664677E+02  0.78006095150E+02  0.81039748775E+02  0.10566000000E+00 0. -1.
         13    1    4    4    0    0 -0.32388451511E+01 -0.82916510658E+01 -0.40206257932E+01  0.97682235394E+01  0.10566000000E+00 0. -1.
        -13    1    4    4    0    0 -0.68295190614E+00 -0.10597201524E+01 -0.49072513473E+00  0.13569838986E+01  0.10566000000E+00 0.  1.
         14    1    4    4    0    0 -0.29928264348E+01 -0.11497293459E+02 -0.46496945920E+01  0.12757916239E+02  0.00000000000E+00 0. -1.
<mgrwt>
<rscale>  0 0.79178080E+02</rscale>
<asrwt>0</asrwt>
<pdfrwt beam="1">  1        1 0.13366763E-01 0.79178080E+02</pdfrwt>
<pdfrwt beam="2">  1       -2 0.27752172E-02 0.79178080E+02</pdfrwt>
<totfact> 0.14768580E+05</totfact>
</mgrwt>
</event>
<event>
 8    1  0.7756875E-014  0.8469514E+02  0.7818608E-02  0.1316232E+00
         -2   -1    0    0    0  501 -0.00000000000E+00  0.00000000000E+00  0.11545654870E+03  0.11545654873E+03  0.25500000000E-02 0.  1.
          1   -1    0    0  501    0  0.00000000000E+00 -0.00000000000E+00 -0.15532394389E+02  0.15532395207E+02  0.50400000000E-02 0. -1.
        -24    2    1    2    0    0  0.00000000000E+00  0.17763568394E-14  0.99924154312E+02  0.13098894394E+03  0.84695140465E+02 0.  0.
         66    2    3    3    0    0 -0.36673894644E+02 -0.13494099326E+02  0.75130751470E+02  0.84709474907E+02  0.20000143962E+01 0.  0.
         13    1    3    3    0    0  0.36673894644E+02  0.13494099326E+02  0.24793402841E+02  0.46279469028E+02  0.10566000000E+00 0. -1.
         13    1    4    4    0    0 -0.60327512480E+01 -0.25704786784E+01  0.11900046364E+02  0.13587630984E+02  0.10566000000E+00 0. -1.
        -13    1    4    4    0    0 -0.26424279162E+02 -0.99089941411E+01  0.54529009441E+02  0.61399142737E+02  0.10566000000E+00 0.  1.
        -14    1    4    4    0    0 -0.42168642342E+01 -0.10146265067E+01  0.87016956652E+01  0.97227011868E+01  0.00000000000E+00 0.  1.
<mgrwt>
<rscale>  0 0.84695140E+02</rscale>
<asrwt>0</asrwt>
<pdfrwt beam="1">  1        1 0.23895992E-02 0.84695140E+02</pdfrwt>
<pdfrwt beam="2">  1       -2 0.17762546E-01 0.84695140E+02</pdfrwt>
<totfact> 0.88300012E+04</totfact>
</mgrwt>
</event>
<event>
 8    1  0.8120688E-014  0.7851701E+02  0.7818608E-02  0.1333313E+00
         -2   -1    0    0    0  501 -0.00000000000E+00  0.00000000000E+00  0.12463683688E+02  0.12463683949E+02  0.25500000000E-02 0.  1.
          1   -1    0    0  501    0  0.00000000000E+00 -0.00000000000E+00 -0.12365768579E+03  0.12365768589E+03  0.50400000000E-02 0. -1.
        -24    2    1    2    0    0  0.35527136788E-14 -0.71054273576E-14 -0.11119400210E+03  0.13612136984E+03  0.78517012322E+02 0.  0.
         66    2    3    3    0    0  0.19948906285E+02 -0.29628864475E+02 -0.27496615928E+02  0.45120863863E+02  0.19999990528E+01 0.  0.
         13    1    3    3    0    0 -0.19948906285E+02  0.29628864475E+02 -0.83697386172E+02  0.91000505977E+02  0.10566000000E+00 0. -1.
         13    1    4    4    0    0  0.46799011795E+01 -0.66160514585E+01 -0.59698218035E+01  0.10065959882E+02  0.10566000000E+00 0. -1.
        -13    1    4    4    0    0  0.14173907063E+02 -0.21091196754E+02 -0.19240876581E+02  0.31874138695E+02  0.10566000000E+00 0.  1.
         14    1    4    4    0    0  0.10950980420E+01 -0.19216162625E+01 -0.22859175436E+01  0.31807652850E+01  0.00000000000E+00 0. -1.
<mgrwt>
<rscale>  0 0.78517012E+02</rscale>
<asrwt>0</asrwt>
<pdfrwt beam="1">  1        1 0.19024259E-01 0.78517012E+02</pdfrwt>
<pdfrwt beam="2">  1       -2 0.19174899E-02 0.78517012E+02</pdfrwt>
<totfact> 0.16031542E+05</totfact>
</mgrwt>
</event>
<event>
 8    1  0.7756875E-014  0.7900663E+02  0.7818608E-02  0.1331894E+00
         -2   -1    0    0    0  501 -0.00000000000E+00  0.00000000000E+00  0.16626004456E+02  0.16626004651E+02  0.25500000000E-02 0.  1.
          1   -1    0    0  501    0  0.00000000000E+00 -0.00000000000E+00 -0.93859713911E+02  0.93859714046E+02  0.50400000000E-02 0. -1.
        -24    2    1    2    0    0 -0.17763568394E-14 -0.35527136788E-14 -0.77233709455E+02  0.11048571870E+03  0.79006633645E+02 0.  0.
         66    2    3    3    0    0  0.13204988376E+02 -0.25724992903E+02 -0.10561068975E+01  0.29004522871E+02  0.20000018473E+01 0.  0.
         13    1    3    3    0    0 -0.13204988376E+02  0.25724992903E+02 -0.76177602557E+02  0.81481195826E+02  0.10566000000E+00 0. -1.
         13    1    4    4    0    0  0.12687778230E+01 -0.33027819223E+01  0.30492123833E+00  0.35527885650E+01  0.10566000000E+00 0. -1.
        -13    1    4    4    0    0  0.71398188077E+01 -0.13494179312E+02 -0.41199465542E+00  0.15272550264E+02  0.10566000000E+00 0.  1.
         14    1    4    4    0    0  0.47963917449E+01 -0.89280316679E+01 -0.94903348044E+00  0.10179184043E+02  0.00000000000E+00 0. -1.
<mgrwt>
<rscale>  0 0.79006634E+02</rscale>
<asrwt>0</asrwt>
<pdfrwt beam="1">  1        1 0.14439956E-01 0.79006634E+02</pdfrwt>
<pdfrwt beam="2">  1       -2 0.25578469E-02 0.79006634E+02</pdfrwt>
<totfact> 0.15044467E+05</totfact>
</mgrwt>
</event>
<event>
 8    1  0.7756875E-014  0.8211640E+02  0.7818608E-02  0.1323150E+00
          1   -1    0    0  501    0  0.00000000000E+00  0.00000000000E+00  0.21936957404E+02  0.21936957983E+02  0.50400000000E-02 0. -1.
         -2   -1    0    0    0  501 -0.00000000000E+00 -0.00000000000E+00 -0.76846381808E+02  0.76846381850E+02  0.25500000000E-02 0.  1.
        -24    2    1    2    0    0 -0.17763568394E-14  0.00000000000E+00 -0.54909424404E+02  0.98783339833E+02  0.82116401165E+02 0.  0.
         66    2    3    3    0    0 -0.97154342123E+01 -0.24845131982E+02 -0.64977700177E+02  0.70269280385E+02  0.20000000866E+01 0.  0.
         13    1    3    3    0    0  0.97154342123E+01  0.24845131982E+02  0.10068275773E+02  0.28514059448E+02  0.10566000000E+00 0. -1.
         13    1    4    4    0    0 -0.13929981049E+01 -0.24103607907E+01 -0.72457041002E+01  0.77628393520E+01  0.10566000000E+00 0. -1.
        -13    1    4    4    0    0 -0.15933906445E+01 -0.30944150349E+01 -0.84533836116E+01  0.91424918198E+01  0.10566000000E+00 0.  1.
        -14    1    4    4    0    0 -0.67290454628E+01 -0.19340356156E+02 -0.49278612466E+02  0.53363949213E+02  0.00000000000E+00 0.  1.
<mgrwt>
<rscale>  0 0.82116401E+02</rscale>
<asrwt>0</asrwt>
<pdfrwt beam="1">  1        1 0.33749166E-02 0.82116401E+02</pdfrwt>
<pdfrwt beam="2">  1       -2 0.11822520E-01 0.82116401E+02</pdfrwt>
<totfact> 0.10547176E+05</totfact>
</mgrwt>
</event>
<event>
 8    1  0.7756875E-014  0.7912395E+02  0.7818608E-02  0.1331556E+00
         -2   -1    0    0    0  501 -0.00000000000E+00  0.00000000000E+00  0.43885293053E+02  0.43885293127E+02  0.25500000000E-02 0.  1.
          1   -1    0    0  501    0  0.00000000000E+00 -0.00000000000E+00 -0.35664566871E+02  0.35664567227E+02  0.50400000000E-02 0. -1.
        -24    2    1    2    0    0  0.00000000000E+00  0.00000000000E+00  0.82207261818E+01  0.79549860354E+02  0.79123953031E+02 0.  0.
         66    2    3    3    0    0 -0.39259630529E+02  0.37697857854E+00 -0.56872778246E+00  0.39316461701E+02  0.20000018030E+01 0.  0.
         13    1    3    3    0    0  0.39259630529E+02 -0.37697857854E+00  0.87894539643E+01  0.40233398653E+02  0.10566000000E+00 0. -1.
         13    1    4    4    0    0 -0.54402132632E+01 -0.50879009357E+00 -0.27640493918E-02  0.54649756984E+01  0.10566000000E+00 0. -1.
        -13    1    4    4    0    0 -0.20101767476E+02  0.37385650991E+00  0.14235790665E+00  0.20106025320E+02  0.10566000000E+00 0.  1.
        -14    1    4    4    0    0 -0.13717649790E+02  0.51191216220E+00 -0.70832163972E+00  0.13745460682E+02  0.00000000000E+00 0.  1.
<mgrwt>
<rscale>  0 0.79123953E+02</rscale>
<asrwt>0</asrwt>
<pdfrwt beam="1">  1        1 0.54868565E-02 0.79123953E+02</pdfrwt>
<pdfrwt beam="2">  1       -2 0.67515835E-02 0.79123953E+02</pdfrwt>
<totfact> 0.12854918E+05</totfact>
</mgrwt>
</event>
<event>
 8    1  0.7756875E-014  0.7953718E+02  0.7818608E-02  0.1330370E+00
          1   -1    0    0  501    0  0.00000000000E+00  0.00000000000E+00  0.17476095466E+01  0.17476168141E+01  0.50400000000E-02 0. -1.
         -2   -1    0    0    0  501 -0.00000000000E+00 -0.00000000000E+00 -0.90497185961E+03  0.90497185961E+03  0.25500000000E-02 0.  1.
        -24    2    1    2    0    0  0.71054273576E-14 -0.17763568394E-14 -0.90322425006E+03  0.90671947642E+03  0.79537180177E+02 0.  0.
         66    2    3    3    0    0 -0.27579400875E+02  0.13009944686E+02 -0.74246217678E+03  0.74309081945E+03  0.19999977308E+01 0.  0.
         13    1    3    3    0    0  0.27579400875E+02 -0.13009944686E+02 -0.16076207328E+03  0.16362865698E+03  0.10566000000E+00 0. -1.
         13    1    4    4    0    0 -0.45299191116E+01  0.21090185162E+01 -0.12689210118E+03  0.12699049033E+03  0.10566000000E+00 0. -1.
        -13    1    4    4    0    0 -0.71169616961E+01  0.25221962903E+01 -0.18626812008E+03  0.18642112632E+03  0.10566000000E+00 0.  1.
        -14    1    4    4    0    0 -0.15932520068E+02  0.83787298794E+01 -0.42930195551E+03  0.42967920280E+03  0.00000000000E+00 0.  1.
<mgrwt>
<rscale>  0 0.79537180E+02</rscale>
<asrwt>0</asrwt>
<pdfrwt beam="1">  1        1 0.26886429E-03 0.79537180E+02</pdfrwt>
<pdfrwt beam="2">  1       -2 0.13922607E+00 0.79537180E+02</pdfrwt>
<totfact> 0.29628276E+04</totfact>
</mgrwt>
</event>
<event>
 8    1  0.7756875E-014  0.7857109E+02  0.7818608E-02  0.1333156E+00
         -2   -1    0    0    0  501 -0.00000000000E+00  0.00000000000E+00  0.10696152626E+03  0.10696152629E+03  0.25500000000E-02 0.  1.
          1   -1    0    0  501    0  0.00000000000E+00 -0.00000000000E+00 -0.14429058062E+02  0.14429058942E+02  0.50400000000E-02 0. -1.
        -24    2    1    2    0    0 -0.71054273576E-14 -0.44408920985E-15  0.92532468195E+02  0.12139058523E+03  0.78571092090E+02 0.  0.
         66    2    3    3    0    0 -0.38241335419E+02 -0.31783751589E+01  0.33476778320E+02  0.50962696764E+02  0.19999928589E+01 0.  0.
         13    1    3    3    0    0  0.38241335419E+02  0.31783751589E+01  0.59055689875E+02  0.70427888467E+02  0.10566000000E+00 0. -1.
         13    1    4    4    0    0 -0.56281116579E+01 -0.81151612820E+00  0.42321038196E+01  0.70891512916E+01  0.10566000000E+00 0. -1.
        -13    1    4    4    0    0 -0.21739374278E+02 -0.14014315064E+01  0.19801456415E+02  0.29439314605E+02  0.10566000000E+00 0.  1.
        -14    1    4    4    0    0 -0.10873849483E+02 -0.96542752433E+00  0.94432180862E+01  0.14434230867E+02  0.00000000000E+00 0.  1.
<mgrwt>
<rscale>  0 0.78571092E+02</rscale>
<asrwt>0</asrwt>
<pdfrwt beam="1">  1        1 0.22198552E-02 0.78571092E+02</pdfrwt>
<pdfrwt beam="2">  1       -2 0.16455619E-01 0.78571092E+02</pdfrwt>
<totfact> 0.10925987E+05</totfact>
</mgrwt>
</event>
<event>
 8    1  0.7756875E-014  0.7872624E+02  0.7818608E-02  0.1332706E+00
          1   -1    0    0  501    0  0.00000000000E+00  0.00000000000E+00  0.16726359811E+03  0.16726359819E+03  0.50400000000E-02 0. -1.
         -2   -1    0    0    0  501 -0.00000000000E+00 -0.00000000000E+00 -0.92635519389E+01  0.92635522899E+01  0.25500000000E-02 0.  1.
        -24    2    1    2    0    0  0.35527136788E-14  0.88817841970E-15  0.15800004617E+03  0.17652715048E+03  0.78726236193E+02 0.  0.
         66    2    3    3    0    0  0.29880633930E+02  0.71933041671E+01  0.23995688206E+02  0.39043424069E+02  0.20000004169E+01 0.  0.
         13    1    3    3    0    0 -0.29880633930E+02 -0.71933041671E+01  0.13400435797E+03  0.13748372641E+03  0.10566000000E+00 0. -1.
         13    1    4    4    0    0  0.87607163410E+01  0.26404686634E+01  0.68905393328E+01  0.11454820902E+02  0.10566000000E+00 0. -1.
        -13    1    4    4    0    0  0.11231701013E+02  0.21399109181E+01  0.82843021906E+01  0.14119885028E+02  0.10566000000E+00 0.  1.
        -14    1    4    4    0    0  0.98882165766E+01  0.24129245856E+01  0.88208466824E+01  0.13468718139E+02  0.00000000000E+00 0.  1.
<mgrwt>
<rscale>  0 0.78726236E+02</rscale>
<asrwt>0</asrwt>
<pdfrwt beam="1">  1        1 0.25732861E-01 0.78726236E+02</pdfrwt>
<pdfrwt beam="2">  1       -2 0.14251619E-02 0.78726236E+02</pdfrwt>
<totfact> 0.16816006E+05</totfact>
</mgrwt>
</event>
<event>
 8    1  0.7756875E-014  0.7522041E+02  0.7818608E-02  0.1343190E+00
          1   -1    0    0  501    0  0.00000000000E+00  0.00000000000E+00  0.62533051445E+00  0.62535082466E+00  0.50400000000E-02 0. -1.
         -2   -1    0    0    0  501 -0.00000000000E+00 -0.00000000000E+00 -0.22620111088E+04  0.22620111088E+04  0.25500000000E-02 0.  1.
        -24    2    1    2    0    0  0.00000000000E+00  0.00000000000E+00 -0.22613857783E+04  0.22626364597E+04  0.75220410775E+02 0.  0.
         66    2    3    3    0    0 -0.47569310909E+01  0.96120557530E+01 -0.22150007123E+04  0.22150275790E+04  0.19999969406E+01 0.  0.
         13    1    3    3    0    0  0.47569310909E+01 -0.96120557530E+01 -0.46385065988E+02  0.47608880684E+02  0.10566000000E+00 0. -1.
         13    1    4    4    0    0 -0.13293426710E+01  0.18510812599E+01 -0.51202221414E+03  0.51202729672E+03  0.10566000000E+00 0. -1.
        -13    1    4    4    0    0 -0.26672103680E+01  0.58241644945E+01 -0.11472423702E+04  0.11472602591E+04  0.10566000000E+00 0.  1.
        -14    1    4    4    0    0 -0.76037805188E+00  0.19368099987E+01 -0.55573612800E+03  0.55574002319E+03  0.00000000000E+00 0.  1.
<mgrwt>
<rscale>  0 0.75220411E+02</rscale>
<asrwt>0</asrwt>
<pdfrwt beam="1">  1        1 0.96208068E-04 0.75220411E+02</pdfrwt>
<pdfrwt beam="2">  1       -2 0.34799516E+00 0.75220411E+02</pdfrwt>
<totfact> 0.66267430E+03</totfact>
</mgrwt>
</event>
<event>
 8    1  0.7756875E-014  0.8028204E+02  0.7818608E-02  0.1328253E+00
          1   -1    0    0  501    0  0.00000000000E+00  0.00000000000E+00  0.10323087946E+03  0.10323087959E+03  0.50400000000E-02 0. -1.
         -2   -1    0    0    0  501 -0.00000000000E+00 -0.00000000000E+00 -0.15608714658E+02  0.15608714866E+02  0.25500000000E-02 0.  1.
        -24    2    1    2    0    0  0.00000000000E+00  0.35527136788E-14  0.87622164806E+02  0.11883959445E+03  0.80282036872E+02 0.  0.
         66    2    3    3    0    0 -0.29757371829E+02  0.26861090860E+02  0.41604498171E+02  0.57809633065E+02  0.20000066556E+01 0.  0.
         13    1    3    3    0    0  0.29757371829E+02 -0.26861090860E+02  0.46017666635E+02  0.61029961388E+02  0.10566000000E+00 0. -1.
         13    1    4    4    0    0 -0.15505074223E+01  0.14900512133E+01  0.19937881203E+01  0.29343961882E+01  0.10566000000E+00 0. -1.
        -13    1    4    4    0    0 -0.53144626658E+01  0.57064802211E+01  0.81076167312E+01  0.11249535236E+02  0.10566000000E+00 0.  1.
        -14    1    4    4    0    0 -0.22892401741E+02  0.19664559426E+02  0.31503093319E+02  0.43625701640E+02  0.00000000000E+00 0.  1.
<mgrwt>
<rscale>  0 0.80282037E+02</rscale>
<asrwt>0</asrwt>
<pdfrwt beam="1">  1        1 0.15881673E-01 0.80282037E+02</pdfrwt>
<pdfrwt beam="2">  1       -2 0.24013408E-02 0.80282037E+02</pdfrwt>
<totfact> 0.14638430E+05</totfact>
</mgrwt>
</event>
<event>
 8    1  0.7756875E-014  0.7579681E+02  0.7818608E-02  0.1341421E+00
          1   -1    0    0  501    0  0.00000000000E+00  0.00000000000E+00  0.26785565135E+03  0.26785565139E+03  0.50400000000E-02 0. -1.
         -2   -1    0    0    0  501 -0.00000000000E+00 -0.00000000000E+00 -0.53621760517E+01  0.53621766581E+01  0.25500000000E-02 0.  1.
        -24    2    1    2    0    0  0.00000000000E+00  0.00000000000E+00  0.26249347529E+03  0.27321782805E+03  0.75796813872E+02 0.  0.
         66    2    3    3    0    0  0.20020056686E+02 -0.22841241058E+02  0.21288167128E+03  0.21504681101E+03  0.19999981904E+01 0.  0.
         13    1    3    3    0    0 -0.20020056686E+02  0.22841241058E+02  0.49611804010E+02  0.58171017044E+02  0.10566000000E+00 0. -1.
         13    1    4    4    0    0  0.17773221462E+01 -0.14585681535E+01  0.16659839362E+02  0.16818076783E+02  0.10566000000E+00 0. -1.
        -13    1    4    4    0    0  0.12381858978E+02 -0.15341173178E+02  0.13601024919E+03  0.13743165966E+03  0.10566000000E+00 0.  1.
        -14    1    4    4    0    0  0.58608755624E+01 -0.60414997269E+01  0.60211582728E+02  0.60797074567E+02  0.00000000000E+00 0.  1.
<mgrwt>
<rscale>  0 0.75796814E+02</rscale>
<asrwt>0</asrwt>
<pdfrwt beam="1">  1        1 0.41208561E-01 0.75796814E+02</pdfrwt>
<pdfrwt beam="2">  1       -2 0.82495024E-03 0.75796814E+02</pdfrwt>
<totfact> 0.20347049E+05</totfact>
</mgrwt>
</event>
<event>
 8    1  0.7756875E-014  0.7814852E+02  0.7818608E-02  0.1334389E+00
         -2   -1    0    0    0  501 -0.00000000000E+00  0.00000000000E+00  0.11241574111E+02  0.11241574400E+02  0.25500000000E-02 0.  1.
          1   -1    0    0  501    0  0.00000000000E+00 -0.00000000000E+00 -0.13581707654E+03  0.13581707663E+03  0.50400000000E-02 0. -1.
        -24    2    1    2    0    0  0.00000000000E+00  0.00000000000E+00 -0.12457550243E+03  0.14705865103E+03  0.78148519105E+02 0.  0.
         66    2    3    3    0    0 -0.18681413997E+02 -0.21455199901E+02 -0.11993888884E+02  0.30938232053E+02  0.20000000766E+01 0.  0.
         13    1    3    3    0    0  0.18681413997E+02  0.21455199901E+02 -0.11258161354E+03  0.11612041898E+03  0.10566000000E+00 0. -1.
         13    1    4    4    0    0 -0.38321382264E+01 -0.46732176007E+01 -0.31836657970E+01  0.68316277762E+01  0.10566000000E+00 0. -1.
        -13    1    4    4    0    0 -0.14415366519E+02 -0.15980842772E+02 -0.83421661042E+01  0.23082309827E+02  0.10566000000E+00 0.  1.
        -14    1    4    4    0    0 -0.43390925113E+00 -0.80113952828E+00 -0.46805698249E+00  0.10242944503E+01  0.00000000000E+00 0.  1.
<mgrwt>
<rscale>  0 0.78148519E+02</rscale>
<asrwt>0</asrwt>
<pdfrwt beam="1">  1        1 0.20894934E-01 0.78148519E+02</pdfrwt>
<pdfrwt beam="2">  1       -2 0.17294731E-02 0.78148519E+02</pdfrwt>
<totfact> 0.16506810E+05</totfact>
</mgrwt>
</event>
<event>
 8    1  0.7756875E-014  0.7636442E+02  0.7818608E-02  0.1339697E+00
         -2   -1    0    0    0  501 -0.00000000000E+00  0.00000000000E+00  0.41309786033E+01  0.41309793904E+01  0.25500000000E-02 0.  1.
          1   -1    0    0  501    0  0.00000000000E+00 -0.00000000000E+00 -0.35291422657E+03  0.35291422660E+03  0.50400000000E-02 0. -1.
        -24    2    1    2    0    0  0.00000000000E+00  0.00000000000E+00 -0.34878324796E+03  0.35704520599E+03  0.76364422755E+02 0.  0.
         66    2    3    3    0    0  0.30987939995E+02  0.20864889809E+02 -0.13820980129E+03  0.14318360668E+03  0.19999994869E+01 0.  0.
         13    1    3    3    0    0 -0.30987939995E+02 -0.20864889809E+02 -0.21057344667E+03  0.21386159931E+03  0.10566000000E+00 0. -1.
         13    1    4    4    0    0  0.24427809418E+02  0.17222450486E+02 -0.10892996144E+03  0.11295609030E+03  0.10566000000E+00 0. -1.
        -13    1    4    4    0    0  0.46259762515E+01  0.25090814168E+01 -0.20987554196E+02  0.21637553951E+02  0.10566000000E+00 0.  1.
         14    1    4    4    0    0  0.19341543262E+01  0.11333579063E+01 -0.82922856562E+01  0.85899624275E+01  0.00000000000E+00 0. -1.
<mgrwt>
<rscale>  0 0.76364423E+02</rscale>
<asrwt>0</asrwt>
<pdfrwt beam="1">  1        1 0.54294473E-01 0.76364423E+02</pdfrwt>
<pdfrwt beam="2">  1       -2 0.63553551E-03 0.76364423E+02</pdfrwt>
<totfact> 0.21003900E+05</totfact>
</mgrwt>
</event>
<event>
 8    1  0.7756875E-014  0.8105844E+02  0.7818608E-02  0.1326074E+00
          1   -1    0    0  501    0  0.00000000000E+00  0.00000000000E+00  0.36973089028E+02  0.36973089372E+02  0.50400000000E-02 0. -1.
         -2   -1    0    0    0  501 -0.00000000000E+00 -0.00000000000E+00 -0.44427385637E+02  0.44427385710E+02  0.25500000000E-02 0.  1.
        -24    2    1    2    0    0  0.00000000000E+00  0.00000000000E+00 -0.74542966088E+01  0.81400475082E+02  0.81058440681E+02 0.  0.
         66    2    3    3    0    0 -0.36486316828E+02  0.20689904235E+01 -0.21269671577E+02  0.42331206000E+02  0.20000088348E+01 0.  0.
         13    1    3    3    0    0  0.36486316828E+02 -0.20689904235E+01  0.13815374969E+02  0.39069269082E+02  0.10566000000E+00 0. -1.
         13    1    4    4    0    0 -0.78402693523E+01  0.11960737040E+01 -0.48633423804E+01  0.93039603916E+01  0.10566000000E+00 0.  1.
        -13    1    4    4    0    0 -0.15221622675E+02  0.21334514950E+00 -0.87000157942E+01  0.17534102539E+02  0.10566000000E+00 0. -1.
         14    1    4    4    0    0 -0.13424424801E+02  0.65957157004E+00 -0.77063134028E+01  0.15493143069E+02  0.00000000000E+00 0. -1.
<mgrwt>
<rscale>  0 0.81058441E+02</rscale>
<asrwt>0</asrwt>
<pdfrwt beam="1">  1        1 0.56881676E-02 0.81058441E+02</pdfrwt>
<pdfrwt beam="2">  1       -2 0.68349824E-02 0.81058441E+02</pdfrwt>
<totfact> 0.12076117E+05</totfact>
</mgrwt>
</event>
<event>
 8    1  0.7756875E-014  0.8007952E+02  0.7818608E-02  0.1328826E+00
         -2   -1    0    0    0  501 -0.00000000000E+00  0.00000000000E+00  0.40612652276E+01  0.40612660281E+01  0.25500000000E-02 0.  1.
          1   -1    0    0  501    0  0.00000000000E+00 -0.00000000000E+00 -0.39474949439E+03  0.39474949442E+03  0.50400000000E-02 0. -1.
        -24    2    1    2    0    0 -0.44408920985E-15  0.71054273576E-14 -0.39068822916E+03  0.39881076045E+03  0.80079524505E+02 0.  0.
         66    2    3    3    0    0  0.31468920677E+01  0.38055099233E+02 -0.25503746827E+03  0.25788796739E+03  0.19999997667E+01 0.  0.
         13    1    3    3    0    0 -0.31468920677E+01 -0.38055099233E+02 -0.13565076089E+03  0.14092279306E+03  0.10566000000E+00 0. -1.
         13    1    4    4    0    0 -0.80292861047E-01  0.57426113796E+00 -0.35765482656E+01  0.36247874876E+01  0.10566000000E+00 0.  1.
        -13    1    4    4    0    0  0.18136315842E+01  0.27339382344E+02 -0.18507950786E+03  0.18709667682E+03  0.10566000000E+00 0.  1.
        -14    1    4    4    0    0  0.14135533446E+01  0.10141455751E+02 -0.66381412145E+02  0.67166503082E+02  0.00000000000E+00 0.  1.
<mgrwt>
<rscale>  0 0.80079525E+02</rscale>
<asrwt>0</asrwt>
<pdfrwt beam="1">  1        1 0.60730662E-01 0.80079525E+02</pdfrwt>
<pdfrwt beam="2">  1       -2 0.62481041E-03 0.80079525E+02</pdfrwt>
<totfact> 0.18902861E+05</totfact>
</mgrwt>
</event>
<event>
 8    1  0.7756875E-014  0.7928617E+02  0.7818608E-02  0.1331089E+00
         -2   -1    0    0    0  501 -0.00000000000E+00  0.00000000000E+00  0.49201901794E+02  0.49201901860E+02  0.25500000000E-02 0.  1.
          1   -1    0    0  501    0  0.00000000000E+00 -0.00000000000E+00 -0.31941327114E+02  0.31941327512E+02  0.50400000000E-02 0. -1.
        -24    2    1    2    0    0  0.00000000000E+00  0.88817841970E-15  0.17260574679E+02  0.81143229372E+02  0.79286166729E+02 0.  0.
         66    2    3    3    0    0  0.36875284417E+02 -0.48301488949E+01  0.22610337836E+02  0.43569993298E+02  0.19999999304E+01 0.  0.
         13    1    3    3    0    0 -0.36875284417E+02  0.48301488949E+01 -0.53497631564E+01  0.37573236074E+02  0.10566000000E+00 0. -1.
         13    1    4    4    0    0  0.16561758961E+02 -0.20243335690E+01  0.94836907701E+01  0.19192220844E+02  0.10566000000E+00 0. -1.
        -13    1    4    4    0    0  0.19552663679E+01 -0.61986533539E+00  0.13114200597E+01  0.24368599082E+01  0.10566000000E+00 0.  1.
        -14    1    4    4    0    0  0.18358259089E+02 -0.21859499905E+01  0.11815227006E+02  0.21940912545E+02  0.00000000000E+00 0.  1.
<mgrwt>
<rscale>  0 0.79286167E+02</rscale>
<asrwt>0</asrwt>
<pdfrwt beam="1">  1        1 0.49140503E-02 0.79286167E+02</pdfrwt>
<pdfrwt beam="2">  1       -2 0.75695234E-02 0.79286167E+02</pdfrwt>
<totfact> 0.12545590E+05</totfact>
</mgrwt>
</event>
<event>
 8    1  0.7756875E-014  0.8113416E+02  0.7818608E-02  0.1325863E+00
          1   -1    0    0  501    0  0.00000000000E+00  0.00000000000E+00  0.21277996801E+02  0.21277997398E+02  0.50400000000E-02 0. -1.
         -2   -1    0    0    0  501 -0.00000000000E+00 -0.00000000000E+00 -0.77342249319E+02  0.77342249361E+02  0.25500000000E-02 0.  1.
        -24    2    1    2    0    0 -0.17763568394E-14  0.00000000000E+00 -0.56064252519E+02  0.98620246759E+02  0.81134164569E+02 0.  0.
         66    2    3    3    0    0 -0.91729053798E+01  0.36233117003E+02 -0.47140999276E+02  0.60193477791E+02  0.19999987584E+01 0.  0.
         13    1    3    3    0    0  0.91729053798E+01 -0.36233117003E+02 -0.89232532425E+01  0.38426768968E+02  0.10566000000E+00 0. -1.
         13    1    4    4    0    0  0.82599210360E-03  0.29698862080E+00 -0.63052814428E+00  0.70493453560E+00  0.10566000000E+00 0.  1.
        -13    1    4    4    0    0 -0.14417977615E+01  0.55493754324E+01 -0.72802147250E+01  0.92675260427E+01  0.10566000000E+00 0.  1.
         14    1    4    4    0    0 -0.77319336104E+01  0.30386752949E+02 -0.39230256407E+02  0.50221017213E+02  0.00000000000E+00 0. -1.
<mgrwt>
<rscale>  0 0.81134165E+02</rscale>
<asrwt>0</asrwt>
<pdfrwt beam="1">  1        1 0.32735381E-02 0.81134165E+02</pdfrwt>
<pdfrwt beam="2">  1       -2 0.11898807E-01 0.81134165E+02</pdfrwt>
<totfact> 0.10860642E+05</totfact>
</mgrwt>
</event>
<event>
 8    1  0.7756875E-014  0.8233608E+02  0.7818608E-02  0.1322550E+00
         -2   -1    0    0    0  501 -0.00000000000E+00  0.00000000000E+00  0.97736795301E+01  0.97736798627E+01  0.25500000000E-02 0.  1.
          1   -1    0    0  501    0  0.00000000000E+00 -0.00000000000E+00 -0.17340528031E+03  0.17340528038E+03  0.50400000000E-02 0. -1.
        -24    2    1    2    0    0 -0.44408920985E-15  0.00000000000E+00 -0.16363160078E+03  0.18317896024E+03  0.82336083845E+02 0.  0.
         66    2    3    3    0    0  0.31380737517E+01  0.40442558443E+02 -0.66554241711E+02  0.77967397915E+02  0.20000018841E+01 0.  0.
         13    1    3    3    0    0 -0.31380737517E+01 -0.40442558443E+02 -0.97077359066E+02  0.10521156233E+03  0.10566000000E+00 0. -1.
         13    1    4    4    0    0  0.51243649765E+00  0.68128872335E+01 -0.12172580802E+02  0.13959258971E+02  0.10566000000E+00 0. -1.
        -13    1    4    4    0    0  0.27240956602E+01  0.30040246570E+02 -0.48917743294E+02  0.57469938961E+02  0.10566000000E+00 0.  1.
        -14    1    4    4    0    0 -0.98458406144E-01  0.35894246396E+01 -0.54639176153E+01  0.65381999823E+01  0.00000000000E+00 0.  1.
<mgrwt>
<rscale>  0 0.82336084E+02</rscale>
<asrwt>0</asrwt>
<pdfrwt beam="1">  1        1 0.26677733E-01 0.82336084E+02</pdfrwt>
<pdfrwt beam="2">  1       -2 0.15036432E-02 0.82336084E+02</pdfrwt>
<totfact> 0.15023627E+05</totfact>
</mgrwt>
</event>
<event>
 8    1  0.7756875E-014  0.8044518E+02  0.7818608E-02  0.1327793E+00
         -2   -1    0    0    0  501 -0.00000000000E+00  0.00000000000E+00  0.82090953362E+02  0.82090953402E+02  0.25500000000E-02 0.  1.
          1   -1    0    0  501    0  0.00000000000E+00 -0.00000000000E+00 -0.19708098644E+02  0.19708099289E+02  0.50400000000E-02 0. -1.
        -24    2    1    2    0    0  0.00000000000E+00  0.17763568394E-14  0.62382854718E+02  0.10179905269E+03  0.80445177394E+02 0.  0.
         66    2    3    3    0    0 -0.30916575317E+02  0.10150937574E+02  0.61075601680E+02  0.69232256142E+02  0.20000017363E+01 0.  0.
         13    1    3    3    0    0  0.30916575317E+02 -0.10150937574E+02  0.13072530382E+01  0.32566796549E+02  0.10566000000E+00 0. -1.
         13    1    4    4    0    0 -0.79978269178E+01  0.21238260853E+01  0.14257561789E+02  0.16485299659E+02  0.10566000000E+00 0. -1.
        -13    1    4    4    0    0 -0.10596937208E+02  0.33644389693E+01  0.21850764774E+02  0.24516965820E+02  0.10566000000E+00 0.  1.
        -14    1    4    4    0    0 -0.12321811190E+02  0.46626725190E+01  0.24967275117E+02  0.28229990662E+02  0.00000000000E+00 0.  1.
<mgrwt>
<rscale>  0 0.80445177E+02</rscale>
<asrwt>0</asrwt>
<pdfrwt beam="1">  1        1 0.30320153E-02 0.80445177E+02</pdfrwt>
<pdfrwt beam="2">  1       -2 0.12629377E-01 0.80445177E+02</pdfrwt>
<totfact> 0.10957276E+05</totfact>
</mgrwt>
</event>
<event>
 8    1  0.7756875E-014  0.7935253E+02  0.7818608E-02  0.1330899E+00
         -2   -1    0    0    0  501 -0.00000000000E+00  0.00000000000E+00  0.17034206107E+02  0.17034206298E+02  0.25500000000E-02 0.  1.
          1   -1    0    0  501    0  0.00000000000E+00 -0.00000000000E+00 -0.92414398675E+02  0.92414398813E+02  0.50400000000E-02 0. -1.
        -24    2    1    2    0    0  0.00000000000E+00  0.71054273576E-14 -0.75380192568E+02  0.10944860511E+03  0.79352528183E+02 0.  0.
         66    2    3    3    0    0 -0.88350049222E+01 -0.37433701522E+02 -0.24422664663E+02  0.45604888616E+02  0.19999987135E+01 0.  0.
         13    1    3    3    0    0  0.88350049222E+01  0.37433701522E+02 -0.50957527905E+02  0.63843716495E+02  0.10566000000E+00 0. -1.
         13    1    4    4    0    0 -0.23015750117E+01 -0.83412304251E+01 -0.54656504532E+01  0.10235129284E+02  0.10566000000E+00 0. -1.
        -13    1    4    4    0    0 -0.35993757747E+01 -0.19172899331E+02 -0.11996557326E+02  0.22901618424E+02  0.10566000000E+00 0.  1.
        -14    1    4    4    0    0 -0.29340541359E+01 -0.99195717651E+01 -0.69604568838E+01  0.12468140908E+02  0.00000000000E+00 0.  1.
<mgrwt>
<rscale>  0 0.79352528E+02</rscale>
<asrwt>0</asrwt>
<pdfrwt beam="1">  1        1 0.14217600E-01 0.79352528E+02</pdfrwt>
<pdfrwt beam="2">  1       -2 0.26206472E-02 0.79352528E+02</pdfrwt>
<totfact> 0.14829757E+05</totfact>
</mgrwt>
</event>
<event>
 8    1  0.7756875E-014  0.7901312E+02  0.7818608E-02  0.1331876E+00
         -2   -1    0    0    0  501 -0.00000000000E+00  0.00000000000E+00  0.46662474895E+02  0.46662474965E+02  0.25500000000E-02 0.  1.
          1   -1    0    0  501    0  0.00000000000E+00 -0.00000000000E+00 -0.33448040921E+02  0.33448041301E+02  0.50400000000E-02 0. -1.
        -24    2    1    2    0    0  0.00000000000E+00  0.00000000000E+00  0.13214433974E+02  0.80110516266E+02  0.79013122652E+02 0.  0.
         66    2    3    3    0    0  0.11285259616E+02 -0.20822846137E+02  0.38638376190E+02  0.45363775302E+02  0.19999973012E+01 0.  0.
         13    1    3    3    0    0 -0.11285259616E+02  0.20822846137E+02 -0.25423942215E+02  0.34746740964E+02  0.10566000000E+00 0. -1.
         13    1    4    4    0    0  0.59858226884E+00 -0.76696260164E+00  0.11695273826E+01  0.15249559663E+01  0.10566000000E+00 0. -1.
        -13    1    4    4    0    0  0.68922254837E+01 -0.12095852355E+02  0.23777468773E+02  0.27553431757E+02  0.10566000000E+00 0.  1.
         14    1    4    4    0    0  0.37944518636E+01 -0.79600311800E+01  0.13691380034E+02  0.16285387578E+02  0.00000000000E+00 0. -1.
<mgrwt>
<rscale>  0 0.79013123E+02</rscale>
<asrwt>0</asrwt>
<pdfrwt beam="1">  1        1 0.51458525E-02 0.79013123E+02</pdfrwt>
<pdfrwt beam="2">  1       -2 0.71788423E-02 0.79013123E+02</pdfrwt>
<totfact> 0.12768964E+05</totfact>
</mgrwt>
</event>
<event>
 8    1  0.7756875E-014  0.7752587E+02  0.7818608E-02  0.1336223E+00
         -2   -1    0    0    0  501 -0.00000000000E+00  0.00000000000E+00  0.38484164707E+01  0.38484173155E+01  0.25500000000E-02 0.  1.
          1   -1    0    0  501    0  0.00000000000E+00 -0.00000000000E+00 -0.39043715412E+03  0.39043715416E+03  0.50400000000E-02 0. -1.
        -24    2    1    2    0    0  0.00000000000E+00  0.22204460493E-15 -0.38658873765E+03  0.39428557147E+03  0.77525865301E+02 0.  0.
         66    2    3    3    0    0 -0.33582861241E+02  0.10441274474E+01 -0.29147046488E+03  0.29340744823E+03  0.20000006975E+01 0.  0.
         13    1    3    3    0    0  0.33582861241E+02 -0.10441274474E+01 -0.95118272768E+02  0.10087812325E+03  0.10566000000E+00 0. -1.
         13    1    4    4    0    0 -0.14617665479E+02  0.90797527579E+00 -0.12178692180E+03  0.12266444492E+03  0.10566000000E+00 0. -1.
        -13    1    4    4    0    0 -0.13224312048E+02 -0.30077333298E+00 -0.11629523260E+03  0.11704514165E+03  0.10566000000E+00 0.  1.
         14    1    4    4    0    0 -0.57408837138E+01  0.43692550462E+00 -0.53388310483E+02  0.53697861652E+02  0.00000000000E+00 0. -1.
<mgrwt>
<rscale>  0 0.77525865E+02</rscale>
<asrwt>0</asrwt>
<pdfrwt beam="1">  1        1 0.60067223E-01 0.77525865E+02</pdfrwt>
<pdfrwt beam="2">  1       -2 0.59206445E-03 0.77525865E+02</pdfrwt>
<totfact> 0.20542415E+05</totfact>
</mgrwt>
</event>
<event>
 8    1  0.7756875E-014  0.7932536E+02  0.7818608E-02  0.1330977E+00
          1   -1    0    0  501    0  0.00000000000E+00  0.00000000000E+00  0.17038124762E+03  0.17038124769E+03  0.50400000000E-02 0. -1.
         -2   -1    0    0    0  501 -0.00000000000E+00 -0.00000000000E+00 -0.92329887748E+01  0.92329891269E+01  0.25500000000E-02 0.  1.
        -24    2    1    2    0    0  0.00000000000E+00  0.00000000000E+00  0.16114825884E+03  0.17961423682E+03  0.79325360006E+02 0.  0.
         66    2    3    3    0    0  0.33257252932E+02  0.20771188568E+02  0.93757222085E+02  0.10164597311E+03  0.20000021160E+01 0.  0.
         13    1    3    3    0    0 -0.33257252932E+02 -0.20771188568E+02  0.67391036759E+02  0.77968263715E+02  0.10566000000E+00 0. -1.
         13    1    4    4    0    0  0.13093622917E+02  0.77616099870E+01  0.36227603294E+02  0.39295495354E+02  0.10566000000E+00 0.  1.
        -13    1    4    4    0    0  0.67239541482E+01  0.48165757478E+01  0.18403735586E+02  0.20177205180E+02  0.10566000000E+00 0. -1.
        -14    1    4    4    0    0  0.13439675867E+02  0.81930028329E+01  0.39125883205E+02  0.42173272572E+02  0.00000000000E+00 0.  1.
<mgrwt>
<rscale>  0 0.79325360E+02</rscale>
<asrwt>0</asrwt>
<pdfrwt beam="1">  1        1 0.26212499E-01 0.79325360E+02</pdfrwt>
<pdfrwt beam="2">  1       -2 0.14204599E-02 0.79325360E+02</pdfrwt>
<totfact> 0.16537450E+05</totfact>
</mgrwt>
</event>
<event>
 8    1  0.7756875E-014  0.7956559E+02  0.7818608E-02  0.1330289E+00
          1   -1    0    0  501    0  0.00000000000E+00  0.00000000000E+00  0.20696118848E+02  0.20696119462E+02  0.50400000000E-02 0. -1.
         -2   -1    0    0    0  501 -0.00000000000E+00 -0.00000000000E+00 -0.76471860566E+02  0.76471860609E+02  0.25500000000E-02 0.  1.
        -24    2    1    2    0    0 -0.35527136788E-14  0.88817841970E-15 -0.55775741718E+02  0.97167980071E+02  0.79565589213E+02 0.  0.
         66    2    3    3    0    0 -0.30229327201E+02  0.68806869065E+01 -0.58301828640E+02  0.66062540763E+02  0.19999984924E+01 0.  0.
         13    1    3    3    0    0  0.30229327201E+02 -0.68806869065E+01  0.25260869222E+01  0.31105439308E+02  0.10566000000E+00 0. -1.
         13    1    4    4    0    0 -0.11688800269E+02  0.20974642756E+01 -0.23119158588E+02  0.25991038186E+02  0.10566000000E+00 0.  1.
        -13    1    4    4    0    0 -0.16315428207E+01  0.12549694929E+00 -0.28373513306E+01  0.32771036097E+01  0.10566000000E+00 0. -1.
        -14    1    4    4    0    0 -0.16908984111E+02  0.46577256816E+01 -0.32345318722E+02  0.36794398968E+02  0.00000000000E+00 0.  1.
<mgrwt>
<rscale>  0 0.79565589E+02</rscale>
<asrwt>0</asrwt>
<pdfrwt beam="1">  1        1 0.31840184E-02 0.79565589E+02</pdfrwt>
<pdfrwt beam="2">  1       -2 0.11764901E-01 0.79565589E+02</pdfrwt>
<totfact> 0.11441536E+05</totfact>
</mgrwt>
</event>
<event>
 8    1  0.7756875E-014  0.7900759E+02  0.7818608E-02  0.1331892E+00
         -2   -1    0    0    0  501 -0.00000000000E+00  0.00000000000E+00  0.12239823924E+02  0.12239824189E+02  0.25500000000E-02 0.  1.
          1   -1    0    0  501    0  0.00000000000E+00 -0.00000000000E+00 -0.12749772152E+03  0.12749772161E+03  0.50400000000E-02 0. -1.
        -24    2    1    2    0    0  0.00000000000E+00  0.00000000000E+00 -0.11525789759E+03  0.13973754580E+03  0.79007586662E+02 0.  0.
         66    2    3    3    0    0  0.34141635521E+02  0.47619219125E+01 -0.91696626848E+02  0.97982644063E+02  0.19999964921E+01 0.  0.
         13    1    3    3    0    0 -0.34141635521E+02 -0.47619219125E+01 -0.23561270744E+02  0.41754901741E+02  0.10566000000E+00 0. -1.
         13    1    4    4    0    0  0.52419783820E+01  0.16137721206E+00 -0.14210748907E+02  0.15147967801E+02  0.10566000000E+00 0.  1.
        -13    1    4    4    0    0  0.16498526681E+02  0.26661989382E+01 -0.42749866618E+02  0.45900678201E+02  0.10566000000E+00 0. -1.
         14    1    4    4    0    0  0.12401130458E+02  0.19343457623E+01 -0.34736011323E+02  0.36933998061E+02  0.00000000000E+00 0. -1.
<mgrwt>
<rscale>  0 0.79007587E+02</rscale>
<asrwt>0</asrwt>
<pdfrwt beam="1">  1        1 0.19615033E-01 0.79007587E+02</pdfrwt>
<pdfrwt beam="2">  1       -2 0.18830499E-02 0.79007587E+02</pdfrwt>
<totfact> 0.15851519E+05</totfact>
</mgrwt>
</event>
<event>
 8    1  0.7756875E-014  0.7860165E+02  0.7818608E-02  0.1333067E+00
          1   -1    0    0  501    0  0.00000000000E+00  0.00000000000E+00  0.39977186453E+03  0.39977186457E+03  0.50400000000E-02 0. -1.
         -2   -1    0    0    0  501 -0.00000000000E+00 -0.00000000000E+00 -0.38635903557E+01  0.38635911972E+01  0.25500000000E-02 0.  1.
        -24    2    1    2    0    0 -0.35527136788E-14  0.00000000000E+00  0.39590827418E+03  0.40363545576E+03  0.78601651294E+02 0.  0.
         66    2    3    3    0    0 -0.25658153003E+02 -0.29460749478E+02  0.21879749756E+03  0.22226700499E+03  0.19999989966E+01 0.  0.
         13    1    3    3    0    0  0.25658153003E+02  0.29460749478E+02  0.17711077662E+03  0.18136845077E+03  0.10566000000E+00 0. -1.
         13    1    4    4    0    0 -0.18875647362E+01 -0.17067560537E+01  0.14408766015E+02  0.14632143349E+02  0.10566000000E+00 0. -1.
        -13    1    4    4    0    0 -0.56264313887E+01 -0.57009012593E+01  0.45932334313E+02  0.46625609967E+02  0.10566000000E+00 0.  1.
        -14    1    4    4    0    0 -0.18144156878E+02 -0.22053092165E+02  0.15845639723E+03  0.16100925168E+03  0.00000000000E+00 0.  1.
<mgrwt>
<rscale>  0 0.78601651E+02</rscale>
<asrwt>0</asrwt>
<pdfrwt beam="1">  1        1 0.61503402E-01 0.78601651E+02</pdfrwt>
<pdfrwt beam="2">  1       -2 0.59439821E-03 0.78601651E+02</pdfrwt>
<totfact> 0.19891124E+05</totfact>
</mgrwt>
</event>
<event>
 8    1  0.7756875E-014  0.8166039E+02  0.7818608E-02  0.1324404E+00
         -2   -1    0    0    0  501 -0.00000000000E+00  0.00000000000E+00  0.21920255553E+02  0.21920255702E+02  0.25500000000E-02 0.  1.
          1   -1    0    0  501    0  0.00000000000E+00 -0.00000000000E+00 -0.76053173845E+02  0.76053174012E+02  0.50400000000E-02 0. -1.
        -24    2    1    2    0    0  0.00000000000E+00  0.35527136788E-14 -0.54132918292E+02  0.97973429714E+02  0.81660394850E+02 0.  0.
         66    2    3    3    0    0 -0.36770850612E+01 -0.22142166353E+02  0.13802888034E+02  0.26425673421E+02  0.20000030862E+01 0.  0.
         13    1    3    3    0    0  0.36770850612E+01  0.22142166353E+02 -0.67935806326E+02  0.71547756293E+02  0.10566000000E+00 0. -1.
         13    1    4    4    0    0 -0.53211848238E+00 -0.41016207242E+01  0.21663708136E+01  0.46702001223E+01  0.10566000000E+00 0. -1.
        -13    1    4    4    0    0 -0.12981510872E+01 -0.86353903891E+01  0.46435294314E+01  0.98908388438E+01  0.10566000000E+00 0.  1.
         14    1    4    4    0    0 -0.18468154917E+01 -0.94051552396E+01  0.69929877887E+01  0.11864634455E+02  0.00000000000E+00 0. -1.
<mgrwt>
<rscale>  0 0.81660395E+02</rscale>
<asrwt>0</asrwt>
<pdfrwt beam="1">  1        1 0.11700488E-01 0.81660395E+02</pdfrwt>
<pdfrwt beam="2">  1       -2 0.33723471E-02 0.81660395E+02</pdfrwt>
<totfact> 0.13287428E+05</totfact>
</mgrwt>
</event>
<event>
 8    1  0.7756875E-014  0.7540942E+02  0.7818608E-02  0.1342608E+00
          1   -1    0    0  501    0  0.00000000000E+00  0.00000000000E+00  0.36619351166E+01  0.36619385849E+01  0.50400000000E-02 0. -1.
         -2   -1    0    0    0  501 -0.00000000000E+00 -0.00000000000E+00 -0.38822222221E+03  0.38822222221E+03  0.25500000000E-02 0.  1.
        -24    2    1    2    0    0  0.00000000000E+00  0.00000000000E+00 -0.38456028709E+03  0.39188416080E+03  0.75409423012E+02 0.  0.
         66    2    3    3    0    0 -0.35053869789E+02  0.72680545818E+01 -0.25347233069E+03  0.25599574377E+03  0.20000001039E+01 0.  0.
         13    1    3    3    0    0  0.35053869789E+02 -0.72680545818E+01 -0.13108795640E+03  0.13588841703E+03  0.10566000000E+00 0. -1.
         13    1    4    4    0    0 -0.19760225258E+02  0.42516172488E+01 -0.14345602949E+03  0.14487300063E+03  0.10566000000E+00 0. -1.
        -13    1    4    4    0    0 -0.10901683621E+02  0.22637918926E+01 -0.82489024360E+02  0.83237141730E+02  0.10566000000E+00 0.  1.
         14    1    4    4    0    0 -0.43919609104E+01  0.75264544037E+00 -0.27527276841E+02  0.27885601411E+02  0.00000000000E+00 0. -1.
<mgrwt>
<rscale>  0 0.75409423E+02</rscale>
<asrwt>0</asrwt>
<pdfrwt beam="1">  1        1 0.56337521E-03 0.75409423E+02</pdfrwt>
<pdfrwt beam="2">  1       -2 0.59726463E-01 0.75409423E+02</pdfrwt>
<totfact> 0.70181393E+04</totfact>
</mgrwt>
</event>
<event>
 8    1  0.7756875E-014  0.8043551E+02  0.7818608E-02  0.1327820E+00
          1   -1    0    0  501    0  0.00000000000E+00  0.00000000000E+00  0.21313681537E+03  0.21313681543E+03  0.50400000000E-02 0. -1.
         -2   -1    0    0    0  501 -0.00000000000E+00 -0.00000000000E+00 -0.75888715630E+01  0.75888719914E+01  0.25500000000E-02 0.  1.
        -24    2    1    2    0    0  0.00000000000E+00  0.00000000000E+00  0.20554794380E+03  0.22072568742E+03  0.80435513824E+02 0.  0.
         66    2    3    3    0    0 -0.18949046530E+02 -0.31244645924E+02  0.14876928400E+03  0.15320441939E+03  0.19999986332E+01 0.  0.
         13    1    3    3    0    0  0.18949046530E+02  0.31244645924E+02  0.56778659803E+02  0.67521268030E+02  0.10566000000E+00 0. -1.
         13    1    4    4    0    0 -0.26901944264E+01 -0.55185377121E+01  0.25614351462E+02  0.26340037384E+02  0.10566000000E+00 0. -1.
        -13    1    4    4    0    0 -0.75894527067E+01 -0.12918154259E+02  0.61710113858E+02  0.63502974877E+02  0.10566000000E+00 0.  1.
         14    1    4    4    0    0 -0.86693993970E+01 -0.12807953953E+02  0.61444818680E+02  0.63361407126E+02  0.00000000000E+00 0. -1.
<mgrwt>
<rscale>  0 0.80435514E+02</rscale>
<asrwt>0</asrwt>
<pdfrwt beam="1">  1        1 0.32790283E-01 0.80435514E+02</pdfrwt>
<pdfrwt beam="2">  1       -2 0.11675186E-02 0.80435514E+02</pdfrwt>
<totfact> 0.16640188E+05</totfact>
</mgrwt>
</event>
<event>
 8    1  0.7756875E-014  0.8133719E+02  0.7818608E-02  0.1325299E+00
          1   -1    0    0  501    0  0.00000000000E+00  0.00000000000E+00  0.49960586469E+02  0.49960586723E+02  0.50400000000E-02 0. -1.
         -2   -1    0    0    0  501 -0.00000000000E+00 -0.00000000000E+00 -0.33104784502E+02  0.33104784601E+02  0.25500000000E-02 0.  1.
        -24    2    1    2    0    0  0.00000000000E+00  0.44408920985E-15  0.16855801967E+02  0.83065371324E+02  0.81337186165E+02 0.  0.
         66    2    3    3    0    0 -0.32693615459E+02 -0.31763341619E+01 -0.16012353385E+02  0.36597227497E+02  0.20000022500E+01 0.  0.
         13    1    3    3    0    0  0.32693615459E+02  0.31763341619E+01  0.32868155351E+02  0.46468143827E+02  0.10566000000E+00 0. -1.
         13    1    4    4    0    0 -0.10047288563E+02 -0.35435075559E+00 -0.55396208164E+01  0.11479204448E+02  0.10566000000E+00 0.  1.
        -13    1    4    4    0    0 -0.10591778318E+02 -0.10438769801E+01 -0.47164675769E+01  0.11641807314E+02  0.10566000000E+00 0. -1.
        -14    1    4    4    0    0 -0.12054548578E+02 -0.17781064262E+01 -0.57562649913E+01  0.13476215735E+02  0.00000000000E+00 0.  1.
<mgrwt>
<rscale>  0 0.81337186E+02</rscale>
<asrwt>0</asrwt>
<pdfrwt beam="1">  1        1 0.76862441E-02 0.81337186E+02</pdfrwt>
<pdfrwt beam="2">  1       -2 0.50930438E-02 0.81337186E+02</pdfrwt>
<totfact> 0.12561803E+05</totfact>
</mgrwt>
</event>
<event>
 8    1  0.7756875E-014  0.7909977E+02  0.7818608E-02  0.1331626E+00
          1   -1    0    0  501    0  0.00000000000E+00  0.00000000000E+00  0.17884971720E+03  0.17884971727E+03  0.50400000000E-02 0. -1.
         -2   -1    0    0    0  501 -0.00000000000E+00 -0.00000000000E+00 -0.87458527063E+01  0.87458530781E+01  0.25500000000E-02 0.  1.
        -24    2    1    2    0    0  0.00000000000E+00 -0.17763568394E-14  0.17010386449E+03  0.18759557035E+03  0.79099768008E+02 0.  0.
         66    2    3    3    0    0  0.29312115745E+02 -0.11441560794E+02  0.28381042174E+02  0.42421609278E+02  0.19999839891E+01 0.  0.
         13    1    3    3    0    0 -0.29312115745E+02  0.11441560794E+02  0.14172282232E+03  0.14517396107E+03  0.10566000000E+00 0. -1.
         13    1    4    4    0    0  0.11700177148E+01 -0.56496370842E+00  0.17185675458E+01  0.21570266317E+01  0.10566000000E+00 0. -1.
        -13    1    4    4    0    0  0.10184242553E+02 -0.40205473249E+01  0.97504571834E+01  0.14661724881E+02  0.10566000000E+00 0.  1.
         14    1    4    4    0    0  0.17957855477E+02 -0.68560497607E+01  0.16912017445E+02  0.25602857765E+02  0.00000000000E+00 0. -1.
<mgrwt>
<rscale>  0 0.79099768E+02</rscale>
<asrwt>0</asrwt>
<pdfrwt beam="1">  1        1 0.27515338E-01 0.79099768E+02</pdfrwt>
<pdfrwt beam="2">  1       -2 0.13455160E-02 0.79099768E+02</pdfrwt>
<totfact> 0.16816931E+05</totfact>
</mgrwt>
</event>
<event>
 8    1  0.7756875E-014  0.7480230E+02  0.7818608E-02  0.1344484E+00
         -2   -1    0    0    0  501 -0.00000000000E+00  0.00000000000E+00  0.15497859179E+02  0.15497859389E+02  0.25500000000E-02 0.  1.
          1   -1    0    0  501    0  0.00000000000E+00 -0.00000000000E+00 -0.90260592781E+02  0.90260592922E+02  0.50400000000E-02 0. -1.
        -24    2    1    2    0    0  0.00000000000E+00  0.35527136788E-14 -0.74762733602E+02  0.10575845231E+03  0.74802298759E+02 0.  0.
         66    2    3    3    0    0  0.10670635955E+02 -0.16091244213E+02  0.78359673071E+01  0.20933060075E+02  0.20000021177E+01 0.  0.
         13    1    3    3    0    0 -0.10670635955E+02  0.16091244213E+02 -0.82598700909E+02  0.84825392236E+02  0.10566000000E+00 0. -1.
         13    1    4    4    0    0  0.96002823095E+00 -0.13346681236E+01  0.25275750704E+00  0.16667464106E+01  0.10566000000E+00 0. -1.
        -13    1    4    4    0    0  0.33004551954E+01 -0.55852313541E+01  0.33568862115E+01  0.73053174365E+01  0.10566000000E+00 0.  1.
        -14    1    4    4    0    0  0.64101525288E+01 -0.91713447353E+01  0.42263235886E+01  0.11960996228E+02  0.00000000000E+00 0.  1.
<mgrwt>
<rscale>  0 0.74802299E+02</rscale>
<asrwt>0</asrwt>
<pdfrwt beam="1">  1        1 0.13886245E-01 0.74802299E+02</pdfrwt>
<pdfrwt beam="2">  1       -2 0.23842861E-02 0.74802299E+02</pdfrwt>
<totfact> 0.17322971E+05</totfact>
</mgrwt>
</event>
<event>
 8    1  0.7756875E-014  0.7319768E+02  0.7818608E-02  0.1349545E+00
          1   -1    0    0  501    0  0.00000000000E+00  0.00000000000E+00  0.43337244533E+03  0.43337244536E+03  0.50400000000E-02 0. -1.
         -2   -1    0    0    0  501 -0.00000000000E+00 -0.00000000000E+00 -0.30908168161E+01  0.30908178680E+01  0.25500000000E-02 0.  1.
        -24    2    1    2    0    0  0.00000000000E+00  0.00000000000E+00  0.43028162852E+03  0.43646326323E+03  0.73197679679E+02 0.  0.
         66    2    3    3    0    0  0.32919347884E+02 -0.12664613018E+02  0.27292594969E+03  0.27520292492E+03  0.19999959237E+01 0.  0.
         13    1    3    3    0    0 -0.32919347884E+02  0.12664613018E+02  0.15735567882E+03  0.16126033831E+03  0.10566000000E+00 0. -1.
         13    1    4    4    0    0  0.51855676871E+01 -0.24449215406E+01  0.42558414064E+02  0.42942956643E+02  0.10566000000E+00 0. -1.
        -13    1    4    4    0    0  0.23334247362E+02 -0.89965595208E+01  0.19726968609E+03  0.19884859919E+03  0.10566000000E+00 0.  1.
         14    1    4    4    0    0  0.43995328349E+01 -0.12231319562E+01  0.33097849534E+02  0.33411369094E+02  0.00000000000E+00 0. -1.
<mgrwt>
<rscale>  0 0.73197680E+02</rscale>
<asrwt>0</asrwt>
<pdfrwt beam="1">  1        1 0.66672638E-01 0.73197680E+02</pdfrwt>
<pdfrwt beam="2">  1       -2 0.47551069E-03 0.73197680E+02</pdfrwt>
<totfact> 0.24257417E+05</totfact>
</mgrwt>
</event>
<event>
 8    1  0.7756875E-014  0.7744960E+02  0.7818608E-02  0.1336449E+00
         -2   -1    0    0    0  501 -0.00000000000E+00  0.00000000000E+00  0.37915985918E+01  0.37915994493E+01  0.25500000000E-02 0.  1.
          1   -1    0    0  501    0  0.00000000000E+00 -0.00000000000E+00 -0.39550860746E+03  0.39550860750E+03  0.50400000000E-02 0. -1.
        -24    2    1    2    0    0  0.00000000000E+00  0.00000000000E+00 -0.39171700887E+03  0.39930020695E+03  0.77449597978E+02 0.  0.
         66    2    3    3    0    0 -0.43376026096E+01  0.38048822528E+02 -0.22472982326E+03  0.22797811550E+03  0.19999988498E+01 0.  0.
         13    1    3    3    0    0  0.43376026096E+01 -0.38048822528E+02 -0.16698718562E+03  0.17132209144E+03  0.10566000000E+00 0. -1.
         13    1    4    4    0    0 -0.14049099322E+01  0.16612686184E+02 -0.94868957195E+02  0.96322818260E+02  0.10566000000E+00 0. -1.
        -13    1    4    4    0    0 -0.26123907855E+01  0.20552656258E+02 -0.12475794804E+03  0.12646656882E+03  0.10566000000E+00 0.  1.
         14    1    4    4    0    0 -0.32030189189E+00  0.88348008701E+00 -0.51029180221E+01  0.51887284287E+01  0.00000000000E+00 0. -1.
<mgrwt>
<rscale>  0 0.77449598E+02</rscale>
<asrwt>0</asrwt>
<pdfrwt beam="1">  1        1 0.60847446E-01 0.77449598E+02</pdfrwt>
<pdfrwt beam="2">  1       -2 0.58332324E-03 0.77449598E+02</pdfrwt>
<totfact> 0.20639361E+05</totfact>
</mgrwt>
</event>
<event>
 8    1  0.7756875E-014  0.8021200E+02  0.7818608E-02  0.1328451E+00
          1   -1    0    0  501    0  0.00000000000E+00  0.00000000000E+00  0.14808493368E+02  0.14808494226E+02  0.50400000000E-02 0. -1.
         -2   -1    0    0    0  501 -0.00000000000E+00 -0.00000000000E+00 -0.10861950706E+03  0.10861950709E+03  0.25500000000E-02 0.  1.
        -24    2    1    2    0    0  0.00000000000E+00  0.00000000000E+00 -0.93811013689E+02  0.12342800131E+03  0.80212001713E+02 0.  0.
         66    2    3    3    0    0  0.92479933612E+01  0.38367000876E+02 -0.36170415553E+02  0.53570991250E+02  0.20000011998E+01 0.  0.
         13    1    3    3    0    0 -0.92479933612E+01 -0.38367000876E+02 -0.57640598136E+02  0.69857010063E+02  0.10566000000E+00 0. -1.
         13    1    4    4    0    0  0.25010326105E+01  0.89934785668E+01 -0.76686573220E+01  0.12081278492E+02  0.10566000000E+00 0.  1.
        -13    1    4    4    0    0  0.33497904883E+00  0.15220858875E+01 -0.12679760822E+01  0.20119353351E+01  0.10566000000E+00 0.  1.
        -14    1    4    4    0    0  0.64119817018E+01  0.27851436422E+02 -0.27233782149E+02  0.39477777423E+02  0.00000000000E+00 0.  1.
<mgrwt>
<rscale>  0 0.80212002E+02</rscale>
<asrwt>0</asrwt>
<pdfrwt beam="1">  1        1 0.22782299E-02 0.80212002E+02</pdfrwt>
<pdfrwt beam="2">  1       -2 0.16710693E-01 0.80212002E+02</pdfrwt>
<totfact> 0.10321057E+05</totfact>
</mgrwt>
</event>
<event>
 8    1  0.7756875E-014  0.7630765E+02  0.7818608E-02  0.1339869E+00
         -2   -1    0    0    0  501 -0.00000000000E+00  0.00000000000E+00  0.38160668171E+03  0.38160668172E+03  0.25500000000E-02 0.  1.
          1   -1    0    0  501    0  0.00000000000E+00 -0.00000000000E+00 -0.38146967917E+01  0.38147001211E+01  0.50400000000E-02 0. -1.
        -24    2    1    2    0    0  0.00000000000E+00  0.17763568394E-14  0.37779198492E+03  0.38542138184E+03  0.76307651718E+02 0.  0.
         66    2    3    3    0    0 -0.31648962238E+01  0.15869363040E+02  0.36339856061E+03  0.36376416414E+03  0.20000006531E+01 0.  0.
         13    1    3    3    0    0  0.31648962238E+01 -0.15869363040E+02  0.14393424306E+02  0.21657217704E+02  0.10566000000E+00 0. -1.
         13    1    4    4    0    0 -0.25075432418E+00  0.11641588303E+01  0.33097595607E+02  0.33119180886E+02  0.10566000000E+00 0. -1.
        -13    1    4    4    0    0 -0.12558196493E+01  0.96746494096E+01  0.22314607700E+03  0.22335925942E+03  0.10566000000E+00 0.  1.
         14    1    4    4    0    0 -0.16583222503E+01  0.50305547999E+01  0.10715488801E+03  0.10728572383E+03  0.00000000000E+00 0. -1.
<mgrwt>
<rscale>  0 0.76307652E+02</rscale>
<asrwt>0</asrwt>
<pdfrwt beam="1">  1        1 0.58687653E-03 0.76307652E+02</pdfrwt>
<pdfrwt beam="2">  1       -2 0.58708736E-01 0.76307652E+02</pdfrwt>
<totfact> 0.68835073E+04</totfact>
</mgrwt>
</event>
<event>
 8    1  0.7756875E-014  0.7922397E+02  0.7818608E-02  0.1331268E+00
         -2   -1    0    0    0  501 -0.00000000000E+00  0.00000000000E+00  0.74420645785E+03  0.74420645786E+03  0.25500000000E-02 0.  1.
          1   -1    0    0  501    0  0.00000000000E+00 -0.00000000000E+00 -0.21084299097E+01  0.21084359335E+01  0.50400000000E-02 0. -1.
        -24    2    1    2    0    0  0.00000000000E+00  0.00000000000E+00  0.74209802794E+03  0.74631489379E+03  0.79223971226E+02 0.  0.
         66    2    3    3    0    0  0.50840979313E+01  0.20422176940E+02  0.68713823542E+03  0.68746335753E+03  0.19999997148E+01 0.  0.
         13    1    3    3    0    0 -0.50840979313E+01 -0.20422176940E+02  0.54959792517E+02  0.58851536261E+02  0.10566000000E+00 0. -1.
         13    1    4    4    0    0  0.41268066765E+01  0.15388859371E+02  0.53706411553E+03  0.53730040283E+03  0.10566000000E+00 0. -1.
        -13    1    4    4    0    0  0.94907712530E+00  0.35084795223E+01  0.10318073149E+03  0.10324478045E+03  0.10566000000E+00 0.  1.
         14    1    4    4    0    0  0.82141294962E-02  0.15248380464E+01  0.46893388401E+02  0.46918174243E+02  0.00000000000E+00 0. -1.
<mgrwt>
<rscale>  0 0.79223971E+02</rscale>
<asrwt>0</asrwt>
<pdfrwt beam="1">  1        1 0.32437414E-03 0.79223971E+02</pdfrwt>
<pdfrwt beam="2">  1       -2 0.11449336E+00 0.79223971E+02</pdfrwt>
<totfact> 0.36606518E+04</totfact>
</mgrwt>
</event>
<event>
 8    1  0.7756875E-014  0.7868933E+02  0.7818608E-02  0.1332813E+00
         -2   -1    0    0    0  501 -0.00000000000E+00  0.00000000000E+00  0.53511161168E+01  0.53511167243E+01  0.25500000000E-02 0.  1.
          1   -1    0    0  501    0  0.00000000000E+00 -0.00000000000E+00 -0.28928593198E+03  0.28928593203E+03  0.50400000000E-02 0. -1.
        -24    2    1    2    0    0  0.00000000000E+00  0.00000000000E+00 -0.28393481587E+03  0.29463704875E+03  0.78689331144E+02 0.  0.
         66    2    3    3    0    0 -0.13219700984E+02 -0.34560479205E+02 -0.92270757146E+02  0.99433796252E+02  0.19999989850E+01 0.  0.
         13    1    3    3    0    0  0.13219700984E+02  0.34560479205E+02 -0.19166405872E+03  0.19520325250E+03  0.10566000000E+00 0. -1.
         13    1    4    4    0    0 -0.45570473096E+00 -0.20787973267E+01 -0.54906821631E+01  0.58896366423E+01  0.10566000000E+00 0. -1.
        -13    1    4    4    0    0 -0.26689092394E+01 -0.82193800414E+01 -0.22046939383E+02  0.23680371302E+02  0.10566000000E+00 0.  1.
         14    1    4    4    0    0 -0.10095087013E+02 -0.24262301836E+02 -0.64733135600E+02  0.69863788308E+02  0.00000000000E+00 0. -1.
<mgrwt>
<rscale>  0 0.78689331E+02</rscale>
<asrwt>0</asrwt>
<pdfrwt beam="1">  1        1 0.44505516E-01 0.78689331E+02</pdfrwt>
<pdfrwt beam="2">  1       -2 0.82324891E-03 0.78689331E+02</pdfrwt>
<totfact> 0.18713757E+05</totfact>
</mgrwt>
</event>
<event>
 8    1  0.7756875E-014  0.8044485E+02  0.7818608E-02  0.1327794E+00
          1   -1    0    0  501    0  0.00000000000E+00  0.00000000000E+00  0.96347614833E+02  0.96347614965E+02  0.50400000000E-02 0. -1.
         -2   -1    0    0    0  501 -0.00000000000E+00 -0.00000000000E+00 -0.16791732673E+02  0.16791732866E+02  0.25500000000E-02 0.  1.
        -24    2    1    2    0    0  0.00000000000E+00  0.00000000000E+00  0.79555882161E+02  0.11313934783E+03  0.80444848445E+02 0.  0.
         66    2    3    3    0    0  0.27871817961E+02 -0.42904675066E+01 -0.48585494920E+00  0.28275119846E+02  0.19999998510E+01 0.  0.
         13    1    3    3    0    0 -0.27871817961E+02  0.42904675066E+01  0.80041737110E+02  0.84864227985E+02  0.10566000000E+00 0. -1.
         13    1    4    4    0    0  0.10644058852E+02 -0.17149691250E+01  0.20206657462E+00  0.10783742527E+02  0.10566000000E+00 0.  1.
        -13    1    4    4    0    0  0.94918097117E+01 -0.21327931948E+01 -0.34267914389E+00  0.97350835357E+01  0.10566000000E+00 0. -1.
         14    1    4    4    0    0  0.77359493974E+01 -0.44270518676E+00 -0.34524237993E+00  0.77562937839E+01  0.00000000000E+00 0. -1.
<mgrwt>
<rscale>  0 0.80444848E+02</rscale>
<asrwt>0</asrwt>
<pdfrwt beam="1">  1        1 0.14822710E-01 0.80444848E+02</pdfrwt>
<pdfrwt beam="2">  1       -2 0.25833435E-02 0.80444848E+02</pdfrwt>
<totfact> 0.14390155E+05</totfact>
</mgrwt>
</event>
<event>
 8    1  0.7756875E-014  0.7867718E+02  0.7818608E-02  0.1332848E+00
          1   -1    0    0  501    0  0.00000000000E+00  0.00000000000E+00  0.29238065678E+01  0.29238109117E+01  0.50400000000E-02 0. -1.
         -2   -1    0    0    0  501 -0.00000000000E+00 -0.00000000000E+00 -0.52928381263E+03  0.52928381263E+03  0.25500000000E-02 0.  1.
        -24    2    1    2    0    0 -0.17763568394E-14  0.71054273576E-14 -0.52636000606E+03  0.53220762354E+03  0.78677179542E+02 0.  0.
         66    2    3    3    0    0 -0.10852141456E+02  0.34960461300E+02 -0.36032376040E+03  0.36218395206E+03  0.19999981882E+01 0.  0.
         13    1    3    3    0    0  0.10852141456E+02 -0.34960461300E+02 -0.16603624566E+03  0.17002367148E+03  0.10566000000E+00 0. -1.
         13    1    4    4    0    0 -0.93324911013E+00  0.29238435661E+01 -0.28168374079E+02  0.28335283259E+02  0.10566000000E+00 0.  1.
        -13    1    4    4    0    0 -0.63689887485E+01  0.17712748518E+02 -0.18476618923E+03  0.18572253855E+03  0.10566000000E+00 0.  1.
         14    1    4    4    0    0 -0.35499035971E+01  0.14323869215E+02 -0.14738919709E+03  0.14812613025E+03  0.00000000000E+00 0. -1.
<mgrwt>
<rscale>  0 0.78677180E+02</rscale>
<asrwt>0</asrwt>
<pdfrwt beam="1">  1        1 0.44981715E-03 0.78677180E+02</pdfrwt>
<pdfrwt beam="2">  1       -2 0.81428203E-01 0.78677180E+02</pdfrwt>
<totfact> 0.50317239E+04</totfact>
</mgrwt>
</event>
<event>
 8    1  0.7756875E-014  0.8122846E+02  0.7818608E-02  0.1325601E+00
          1   -1    0    0  501    0  0.00000000000E+00  0.00000000000E+00  0.17216112174E+03  0.17216112181E+03  0.50400000000E-02 0. -1.
         -2   -1    0    0    0  501 -0.00000000000E+00 -0.00000000000E+00 -0.95812309108E+01  0.95812312501E+01  0.25500000000E-02 0.  1.
        -24    2    1    2    0    0  0.71054273576E-14  0.00000000000E+00  0.16257989082E+03  0.18174235306E+03  0.81228455574E+02 0.  0.
         66    2    3    3    0    0  0.33012976249E+02  0.46161142527E+01  0.13315584658E+03  0.13727943980E+03  0.20000005852E+01 0.  0.
         13    1    3    3    0    0 -0.33012976249E+02 -0.46161142527E+01  0.29424044246E+02  0.44462913258E+02  0.10566000000E+00 0. -1.
         13    1    4    4    0    0  0.15480555402E+02  0.23402837653E+01  0.60169674287E+02  0.62173349528E+02  0.10566000000E+00 0. -1.
        -13    1    4    4    0    0  0.13518027847E+02  0.12585654847E+01  0.56102418346E+02  0.57721863902E+02  0.10566000000E+00 0.  1.
        -14    1    4    4    0    0  0.40143929999E+01  0.10172650027E+01  0.16883753945E+02  0.17384226371E+02  0.00000000000E+00 0.  1.
<mgrwt>
<rscale>  0 0.81228456E+02</rscale>
<asrwt>0</asrwt>
<pdfrwt beam="1">  1        1 0.26486326E-01 0.81228456E+02</pdfrwt>
<pdfrwt beam="2">  1       -2 0.14740356E-02 0.81228456E+02</pdfrwt>
<totfact> 0.15555510E+05</totfact>
</mgrwt>
</event>
<event>
 8    1  0.7756875E-014  0.7966701E+02  0.7818608E-02  0.1329999E+00
         -2   -1    0    0    0  501 -0.00000000000E+00  0.00000000000E+00  0.30053426346E+02  0.30053426454E+02  0.25500000000E-02 0.  1.
          1   -1    0    0  501    0  0.00000000000E+00 -0.00000000000E+00 -0.52796248917E+02  0.52796249158E+02  0.50400000000E-02 0. -1.
        -24    2    1    2    0    0  0.00000000000E+00  0.00000000000E+00 -0.22742822571E+02  0.82849675611E+02  0.79667011808E+02 0.  0.
         66    2    3    3    0    0  0.31183957877E+02 -0.15691038463E+02  0.85183525577E+01  0.35989029527E+02  0.19999997728E+01 0.  0.
         13    1    3    3    0    0 -0.31183957877E+02  0.15691038463E+02 -0.31261175129E+02  0.46860646084E+02  0.10566000000E+00 0. -1.
         13    1    4    4    0    0  0.45553492461E+01 -0.24395434838E+01  0.85244024340E+00  0.52383582893E+01  0.10566000000E+00 0. -1.
        -13    1    4    4    0    0  0.19075920086E+02 -0.95725533013E+01  0.61725322239E+01  0.22217916687E+02  0.10566000000E+00 0.  1.
        -14    1    4    4    0    0  0.75526885450E+01 -0.36789416778E+01  0.14933800904E+01  0.85327545506E+01  0.00000000000E+00 0.  1.
<mgrwt>
<rscale>  0 0.79667012E+02</rscale>
<asrwt>0</asrwt>
<pdfrwt beam="1">  1        1 0.81224999E-02 0.79667012E+02</pdfrwt>
<pdfrwt beam="2">  1       -2 0.46236041E-02 0.79667012E+02</pdfrwt>
<totfact> 0.13424372E+05</totfact>
</mgrwt>
</event>
<event>
 8    1  0.7756875E-014  0.8017643E+02  0.7818608E-02  0.1328552E+00
         -2   -1    0    0    0  501 -0.00000000000E+00  0.00000000000E+00  0.11014239320E+02  0.11014239615E+02  0.25500000000E-02 0.  1.
          1   -1    0    0  501    0  0.00000000000E+00 -0.00000000000E+00 -0.14590793390E+03  0.14590793398E+03  0.50400000000E-02 0. -1.
        -24    2    1    2    0    0  0.35527136788E-14  0.00000000000E+00 -0.13489369458E+03  0.15692217360E+03  0.80176428771E+02 0.  0.
         66    2    3    3    0    0  0.31997859018E+02  0.19543240931E+02 -0.95116497482E+02  0.10225922618E+03  0.19999994412E+01 0.  0.
         13    1    3    3    0    0 -0.31997859018E+02 -0.19543240931E+02 -0.39777197094E+02  0.54662947419E+02  0.10566000000E+00 0. -1.
         13    1    4    4    0    0  0.14916757552E+02  0.85968567541E+01 -0.42016224469E+02  0.45406936525E+02  0.10566000000E+00 0. -1.
        -13    1    4    4    0    0  0.11246969782E+02  0.68026971167E+01 -0.33497389164E+02  0.35984125141E+02  0.10566000000E+00 0.  1.
         14    1    4    4    0    0  0.58341316844E+01  0.41436870601E+01 -0.19602883849E+02  0.20868164513E+02  0.00000000000E+00 0. -1.
<mgrwt>
<rscale>  0 0.80176429E+02</rscale>
<asrwt>0</asrwt>
<pdfrwt beam="1">  1        1 0.22447373E-01 0.80176429E+02</pdfrwt>
<pdfrwt beam="2">  1       -2 0.16944985E-02 0.80176429E+02</pdfrwt>
<totfact> 0.15616029E+05</totfact>
</mgrwt>
</event>
<event>
 8    1  0.7756875E-014  0.8079875E+02  0.7818608E-02  0.1326800E+00
         -2   -1    0    0    0  501 -0.00000000000E+00  0.00000000000E+00  0.35320171780E+02  0.35320171872E+02  0.25500000000E-02 0.  1.
          1   -1    0    0  501    0  0.00000000000E+00 -0.00000000000E+00 -0.46208989756E+02  0.46208990031E+02  0.50400000000E-02 0. -1.
        -24    2    1    2    0    0  0.00000000000E+00 -0.22204460493E-15 -0.10888817976E+02  0.81529161902E+02  0.80798749270E+02 0.  0.
         66    2    3    3    0    0 -0.11693049082E+02  0.91616745595E+00  0.33534882337E+02  0.35583073133E+02  0.20000001415E+01 0.  0.
         13    1    3    3    0    0  0.11693049082E+02 -0.91616745595E+00 -0.44423700313E+02  0.45946088769E+02  0.10566000000E+00 0. -1.
         13    1    4    4    0    0 -0.20988036563E+00 -0.15968213360E+00  0.72456010443E+00  0.77826700572E+00  0.10566000000E+00 0. -1.
        -13    1    4    4    0    0 -0.32473079996E+01 -0.49825046115E-01  0.78184579260E+01  0.84668140499E+01  0.10566000000E+00 0.  1.
        -14    1    4    4    0    0 -0.82358607170E+01  0.11256746357E+01  0.24991864307E+02  0.26337992077E+02  0.00000000000E+00 0.  1.
<mgrwt>
<rscale>  0 0.80798749E+02</rscale>
<asrwt>0</asrwt>
<pdfrwt beam="1">  1        1 0.71090754E-02 0.80798749E+02</pdfrwt>
<pdfrwt beam="2">  1       -2 0.54338726E-02 0.80798749E+02</pdfrwt>
<totfact> 0.12638448E+05</totfact>
</mgrwt>
</event>
<event>
 8    1  0.7756875E-014  0.7784164E+02  0.7818608E-02  0.1335291E+00
         -2   -1    0    0    0  501 -0.00000000000E+00  0.00000000000E+00  0.27341474438E+02  0.27341474557E+02  0.25500000000E-02 0.  1.
          1   -1    0    0  501    0  0.00000000000E+00 -0.00000000000E+00 -0.55404122228E+02  0.55404122457E+02  0.50400000000E-02 0. -1.
        -24    2    1    2    0    0  0.00000000000E+00  0.00000000000E+00 -0.28062647790E+02  0.82745597014E+02  0.77841644537E+02 0.  0.
         66    2    3    3    0    0  0.35058864907E+02 -0.16775681846E+02 -0.15644940473E+02  0.41944149380E+02  0.19999987023E+01 0.  0.
         13    1    3    3    0    0 -0.35058864907E+02  0.16775681846E+02 -0.12417707317E+02  0.40801447634E+02  0.10566000000E+00 0. -1.
         13    1    4    4    0    0  0.74536184128E+01 -0.37228368087E+01 -0.27401387600E+01  0.87712864397E+01  0.10566000000E+00 0. -1.
        -13    1    4    4    0    0  0.20067064305E+02 -0.92275843060E+01 -0.88004612057E+01  0.23775926131E+02  0.10566000000E+00 0.  1.
         14    1    4    4    0    0  0.75381821897E+01 -0.38252607312E+01 -0.41043405073E+01  0.93969368087E+01  0.00000000000E+00 0. -1.
<mgrwt>
<rscale>  0 0.77841645E+02</rscale>
<asrwt>0</asrwt>
<pdfrwt beam="1">  1        1 0.85237111E-02 0.77841645E+02</pdfrwt>
<pdfrwt beam="2">  1       -2 0.42063807E-02 0.77841645E+02</pdfrwt>
<totfact> 0.14419394E+05</totfact>
</mgrwt>
</event>
<event>
 8    1  0.7756875E-014  0.8035503E+02  0.7818608E-02  0.1328047E+00
          1   -1    0    0  501    0  0.00000000000E+00  0.00000000000E+00  0.14263909860E+03  0.14263909869E+03  0.50400000000E-02 0. -1.
         -2   -1    0    0    0  501 -0.00000000000E+00 -0.00000000000E+00 -0.11316901555E+02  0.11316901842E+02  0.25500000000E-02 0.  1.
        -24    2    1    2    0    0  0.00000000000E+00 -0.35527136788E-14  0.13132219704E+03  0.15395600053E+03  0.80355028858E+02 0.  0.
         66    2    3    3    0    0  0.29094630650E+02 -0.24742793763E+02  0.41962129587E+02  0.56776083902E+02  0.20000019967E+01 0.  0.
         13    1    3    3    0    0 -0.29094630650E+02  0.24742793763E+02  0.89360067456E+02  0.97179916627E+02  0.10566000000E+00 0. -1.
         13    1    4    4    0    0  0.16731220384E+01 -0.10749467409E+01  0.19110838887E+01  0.27601183881E+01  0.10566000000E+00 0. -1.
        -13    1    4    4    0    0  0.24894107116E+02 -0.21892886337E+02  0.36404943144E+02  0.49237649117E+02  0.10566000000E+00 0.  1.
        -14    1    4    4    0    0  0.25274014953E+01 -0.17749606853E+01  0.36461025544E+01  0.47783163970E+01  0.00000000000E+00 0.  1.
<mgrwt>
<rscale>  0 0.80355029E+02</rscale>
<asrwt>0</asrwt>
<pdfrwt beam="1">  1        1 0.21944478E-01 0.80355029E+02</pdfrwt>
<pdfrwt beam="2">  1       -2 0.17410617E-02 0.80355029E+02</pdfrwt>
<totfact> 0.15459007E+05</totfact>
</mgrwt>
</event>
<event>
 8    1  0.7756875E-014  0.7925673E+02  0.7818608E-02  0.1331174E+00
         -2   -1    0    0    0  501 -0.00000000000E+00  0.00000000000E+00  0.36681151307E+02  0.36681151396E+02  0.25500000000E-02 0.  1.
          1   -1    0    0  501    0  0.00000000000E+00 -0.00000000000E+00 -0.42812376221E+02  0.42812376518E+02  0.50400000000E-02 0. -1.
        -24    2    1    2    0    0 -0.35527136788E-14  0.88817841970E-15 -0.61312249140E+01  0.79493527914E+02  0.79256728807E+02 0.  0.
         66    2    3    3    0    0  0.19739519541E+02 -0.67307414225E+01  0.30699789805E+02  0.37167574633E+02  0.19999995445E+01 0.  0.
         13    1    3    3    0    0 -0.19739519541E+02  0.67307414225E+01 -0.36831014719E+02  0.42325953281E+02  0.10566000000E+00 0. -1.
         13    1    4    4    0    0  0.83817975642E+01 -0.32493031744E+01  0.11893316230E+02  0.14908877775E+02  0.10566000000E+00 0. -1.
        -13    1    4    4    0    0  0.44919666323E+01 -0.15275816045E+01  0.81859886508E+01  0.94621796649E+01  0.10566000000E+00 0.  1.
        -14    1    4    4    0    0  0.68657553449E+01 -0.19538566436E+01  0.10620484924E+02  0.12796517193E+02  0.00000000000E+00 0.  1.
<mgrwt>
<rscale>  0 0.79256729E+02</rscale>
<asrwt>0</asrwt>
<pdfrwt beam="1">  1        1 0.65865195E-02 0.79256729E+02</pdfrwt>
<pdfrwt beam="2">  1       -2 0.56432540E-02 0.79256729E+02</pdfrwt>
<totfact> 0.13177736E+05</totfact>
</mgrwt>
</event>
<event>
 8    1  0.7756875E-014  0.8110332E+02  0.7818608E-02  0.1325949E+00
         -2   -1    0    0    0  501 -0.00000000000E+00  0.00000000000E+00  0.17571972627E+02  0.17571972812E+02  0.25500000000E-02 0.  1.
          1   -1    0    0  501    0  0.00000000000E+00 -0.00000000000E+00 -0.93582950976E+02  0.93582951112E+02  0.50400000000E-02 0. -1.
        -24    2    1    2    0    0  0.17763568394E-14  0.35527136788E-14 -0.76010978349E+02  0.11115492392E+03  0.81103318570E+02 0.  0.
         66    2    3    3    0    0 -0.97070889012E+01 -0.27918626142E+02 -0.28499455178E-01  0.29625631498E+02  0.19999922096E+01 0.  0.
         13    1    3    3    0    0  0.97070889012E+01  0.27918626142E+02 -0.75982478894E+02  0.81529292426E+02  0.10566000000E+00 0. -1.
         13    1    4    4    0    0 -0.27708593409E+01 -0.10186702171E+02  0.56563973647E+00  0.10572496156E+02  0.10566000000E+00 0. -1.
        -13    1    4    4    0    0 -0.30955659492E+01 -0.79874626951E+01 -0.10313916104E+00  0.85676070506E+01  0.10566000000E+00 0.  1.
         14    1    4    4    0    0 -0.38406636112E+01 -0.97444612756E+01 -0.49100003060E+00  0.10485528292E+02  0.00000000000E+00 0. -1.
<mgrwt>
<rscale>  0 0.81103319E+02</rscale>
<asrwt>0</asrwt>
<pdfrwt beam="1">  1        1 0.14397377E-01 0.81103319E+02</pdfrwt>
<pdfrwt beam="2">  1       -2 0.27033805E-02 0.81103319E+02</pdfrwt>
<totfact> 0.14007291E+05</totfact>
</mgrwt>
</event>
<event>
 8    1  0.7756875E-014  0.7851208E+02  0.7818608E-02  0.1333328E+00
         -2   -1    0    0    0  501 -0.00000000000E+00  0.00000000000E+00  0.67648564595E+01  0.67648569402E+01  0.25500000000E-02 0.  1.
          1   -1    0    0  501    0  0.00000000000E+00 -0.00000000000E+00 -0.22780032696E+03  0.22780032702E+03  0.50400000000E-02 0. -1.
        -24    2    1    2    0    0 -0.35527136788E-14 -0.71054273576E-14 -0.22103547050E+03  0.23456518396E+03  0.78512077446E+02 0.  0.
         66    2    3    3    0    0 -0.16227368622E+02 -0.29398150698E+02 -0.49987226711E+02  0.60251984156E+02  0.20000009138E+01 0.  0.
         13    1    3    3    0    0  0.16227368622E+02  0.29398150698E+02 -0.17104824379E+03  0.17431319980E+03  0.10566000000E+00 0. -1.
         13    1    4    4    0    0 -0.22775794969E+01 -0.41015725782E+01 -0.69272710764E+01  0.83671090934E+01  0.10566000000E+00 0. -1.
        -13    1    4    4    0    0 -0.59799855901E+00 -0.15292184362E+01 -0.18696702080E+01  0.24905706222E+01  0.10566000000E+00 0. -1.
        -14    1    4    4    0    0 -0.13351790566E+02 -0.23767359684E+02 -0.41190285427E+02  0.49394304441E+02  0.00000000000E+00 0.  1.
<mgrwt>
<rscale>  0 0.78512077E+02</rscale>
<asrwt>0</asrwt>
<pdfrwt beam="1">  1        1 0.35046198E-01 0.78512077E+02</pdfrwt>
<pdfrwt beam="2">  1       -2 0.10407474E-02 0.78512077E+02</pdfrwt>
<totfact> 0.17973143E+05</totfact>
</mgrwt>
</event>
<event>
 8    1  0.7756875E-014  0.7953193E+02  0.7818608E-02  0.1330385E+00
          1   -1    0    0  501    0  0.00000000000E+00  0.00000000000E+00  0.35606411961E+03  0.35606411965E+03  0.50400000000E-02 0. -1.
         -2   -1    0    0    0  501 -0.00000000000E+00 -0.00000000000E+00 -0.44411430509E+01  0.44411437830E+01  0.25500000000E-02 0.  1.
        -24    2    1    2    0    0  0.00000000000E+00  0.00000000000E+00  0.35162297656E+03  0.36050526343E+03  0.79531926392E+02 0.  0.
         66    2    3    3    0    0  0.39571426501E+02  0.15484106396E+01  0.16086712424E+03  0.16568200576E+03  0.20000001149E+01 0.  0.
         13    1    3    3    0    0 -0.39571426501E+02 -0.15484106396E+01  0.19075585232E+03  0.19482325767E+03  0.10566000000E+00 0. -1.
         13    1    4    4    0    0  0.85270398502E+00  0.20848077779E-01  0.41395189610E+01  0.42278032112E+01  0.10566000000E+00 0. -1.
        -13    1    4    4    0    0  0.38664267680E+02  0.15803194252E+01  0.15624226324E+03  0.16096297397E+03  0.10566000000E+00 0.  1.
        -14    1    4    4    0    0  0.54454835385E-01 -0.52756863334E-01  0.48534203844E+00  0.49122857206E+00  0.00000000000E+00 0.  1.
<mgrwt>
<rscale>  0 0.79531926E+02</rscale>
<asrwt>0</asrwt>
<pdfrwt beam="1">  1        1 0.54779108E-01 0.79531926E+02</pdfrwt>
<pdfrwt beam="2">  1       -2 0.68325268E-03 0.79531926E+02</pdfrwt>
<totfact> 0.18909539E+05</totfact>
</mgrwt>
</event>
<event>
 8    1  0.7756875E-014  0.7783163E+02  0.7818608E-02  0.1335320E+00
         -2   -1    0    0    0  501 -0.00000000000E+00  0.00000000000E+00  0.22334485270E+02  0.22334485415E+02  0.25500000000E-02 0.  1.
          1   -1    0    0  501    0  0.00000000000E+00 -0.00000000000E+00 -0.67807283877E+02  0.67807284064E+02  0.50400000000E-02 0. -1.
        -24    2    1    2    0    0  0.35527136788E-14  0.00000000000E+00 -0.45472798607E+02  0.90141769480E+02  0.77831633619E+02 0.  0.
         66    2    3    3    0    0  0.30558464762E+02  0.54362252518E+01  0.43868422331E+01  0.31410455325E+02  0.20000013324E+01 0.  0.
         13    1    3    3    0    0 -0.30558464762E+02 -0.54362252518E+01 -0.49859640840E+02  0.58731314155E+02  0.10566000000E+00 0. -1.
         13    1    4    4    0    0  0.18393133867E+01  0.47617746581E+00  0.55655080740E+00  0.19826072607E+01  0.10566000000E+00 0. -1.
        -13    1    4    4    0    0  0.37508878962E+01  0.10113219627E+01  0.21688497645E+00  0.38923174653E+01  0.10566000000E+00 0.  1.
        -14    1    4    4    0    0  0.24968263479E+02  0.39487258232E+01  0.36134064492E+01  0.25535530599E+02  0.00000000000E+00 0.  1.
<mgrwt>
<rscale>  0 0.77831634E+02</rscale>
<asrwt>0</asrwt>
<pdfrwt beam="1">  1        1 0.10431890E-01 0.77831634E+02</pdfrwt>
<pdfrwt beam="2">  1       -2 0.34360747E-02 0.77831634E+02</pdfrwt>
<totfact> 0.14878654E+05</totfact>
</mgrwt>
</event>
<event>
 8    1  0.7756875E-014  0.7270947E+02  0.7818608E-02  0.1351114E+00
         -2   -1    0    0    0  501 -0.00000000000E+00  0.00000000000E+00  0.19425592144E+03  0.19425592146E+03  0.25500000000E-02 0.  1.
          1   -1    0    0  501    0  0.00000000000E+00 -0.00000000000E+00 -0.68037388000E+01  0.68037406667E+01  0.50400000000E-02 0. -1.
        -24    2    1    2    0    0  0.00000000000E+00 -0.35527136788E-14  0.18745218264E+03  0.20105966213E+03  0.72709469513E+02 0.  0.
         66    2    3    3    0    0 -0.84392407961E+01  0.26606906020E+02  0.15808590403E+03  0.16054376751E+03  0.19999998519E+01 0.  0.
         13    1    3    3    0    0  0.84392407961E+01 -0.26606906020E+02  0.29366278615E+02  0.40515894621E+02  0.10566000000E+00 0. -1.
         13    1    4    4    0    0 -0.23171556193E+01  0.10381134297E+02  0.59669961098E+02  0.60610663921E+02  0.10566000000E+00 0. -1.
        -13    1    4    4    0    0 -0.34149529022E+01  0.90765963589E+01  0.56145483572E+02  0.56976951431E+02  0.10566000000E+00 0.  1.
         14    1    4    4    0    0 -0.27071322746E+01  0.71491753644E+01  0.42270459359E+02  0.42956152155E+02  0.00000000000E+00 0. -1.
<mgrwt>
<rscale>  0 0.72709470E+02</rscale>
<asrwt>0</asrwt>
<pdfrwt beam="1">  1        1 0.10467294E-02 0.72709470E+02</pdfrwt>
<pdfrwt beam="2">  1       -2 0.29885520E-01 0.72709470E+02</pdfrwt>
<totfact> 0.11003033E+05</totfact>
</mgrwt>
</event>
<event>
 8    1  0.7756875E-014  0.7943027E+02  0.7818608E-02  0.1330676E+00
         -2   -1    0    0    0  501 -0.00000000000E+00  0.00000000000E+00  0.19179248823E+03  0.19179248825E+03  0.25500000000E-02 0.  1.
          1   -1    0    0  501    0  0.00000000000E+00 -0.00000000000E+00 -0.82239487711E+01  0.82239503154E+01  0.50400000000E-02 0. -1.
        -24    2    1    2    0    0 -0.71054273576E-14 -0.17763568394E-14  0.18356853946E+03  0.20001643856E+03  0.79430265114E+02 0.  0.
         66    2    3    3    0    0  0.36642238495E+02  0.11562943454E+02  0.11688879438E+03  0.12305830143E+03  0.19999988714E+01 0.  0.
         13    1    3    3    0    0 -0.36642238495E+02 -0.11562943454E+02  0.66679745075E+02  0.76958137131E+02  0.10566000000E+00 0. -1.
         13    1    4    4    0    0  0.90493078502E+01  0.32846986309E+01  0.28908208887E+02  0.30469245523E+02  0.10566000000E+00 0.  1.
        -13    1    4    4    0    0  0.10435655241E+02  0.37193726641E+01  0.32355633215E+02  0.34199923948E+02  0.10566000000E+00 0.  1.
        -14    1    4    4    0    0  0.17157275404E+02  0.45588721595E+01  0.55624952281E+02  0.58389131959E+02  0.00000000000E+00 0.  1.
<mgrwt>
<rscale>  0 0.79430265E+02</rscale>
<asrwt>0</asrwt>
<pdfrwt beam="1">  1        1 0.12652231E-02 0.79430265E+02</pdfrwt>
<pdfrwt beam="2">  1       -2 0.29506535E-01 0.79430265E+02</pdfrwt>
<totfact> 0.88121404E+04</totfact>
</mgrwt>
</event>
<event>
 8    1  0.7756875E-014  0.8393435E+02  0.7818608E-02  0.1318243E+00
          1   -1    0    0  501    0  0.00000000000E+00  0.00000000000E+00  0.31508168554E+02  0.31508168957E+02  0.50400000000E-02 0. -1.
         -2   -1    0    0    0  501 -0.00000000000E+00 -0.00000000000E+00 -0.55898003846E+02  0.55898003904E+02  0.25500000000E-02 0.  1.
        -24    2    1    2    0    0  0.00000000000E+00  0.00000000000E+00 -0.24389835292E+02  0.87406172861E+02  0.83934349278E+02 0.  0.
         66    2    3    3    0    0 -0.80865572771E+01  0.23292288479E+02 -0.47536373207E+02  0.53587590800E+02  0.19999997302E+01 0.  0.
         13    1    3    3    0    0  0.80865572771E+01 -0.23292288479E+02  0.23146537914E+02  0.33818582061E+02  0.10566000000E+00 0. -1.
         13    1    4    4    0    0 -0.31169971065E+01  0.63675279008E+01 -0.13667403238E+02  0.15397082771E+02  0.10566000000E+00 0. -1.
        -13    1    4    4    0    0 -0.33205055256E+01  0.10460579912E+02 -0.21007457116E+02  0.23701770135E+02  0.10566000000E+00 0.  1.
         14    1    4    4    0    0 -0.16490546450E+01  0.64641806662E+01 -0.12861512853E+02  0.14488737894E+02  0.00000000000E+00 0. -1.
<mgrwt>
<rscale>  0 0.83934349E+02</rscale>
<asrwt>0</asrwt>
<pdfrwt beam="1">  1        1 0.48474106E-02 0.83934349E+02</pdfrwt>
<pdfrwt beam="2">  1       -2 0.85996929E-02 0.83934349E+02</pdfrwt>
<totfact> 0.10624831E+05</totfact>
</mgrwt>
</event>
<event>
 8    1  0.7756875E-014  0.8027145E+02  0.7818608E-02  0.1328283E+00
          1   -1    0    0  501    0  0.00000000000E+00  0.00000000000E+00  0.12263885400E+02  0.12263886436E+02  0.50400000000E-02 0. -1.
         -2   -1    0    0    0  501 -0.00000000000E+00 -0.00000000000E+00 -0.13135123761E+03  0.13135123763E+03  0.25500000000E-02 0.  1.
        -24    2    1    2    0    0  0.00000000000E+00  0.00000000000E+00 -0.11908735221E+03  0.14361512407E+03  0.80271454487E+02 0.  0.
         66    2    3    3    0    0 -0.68732869716E+01  0.36322151265E+02 -0.87431705914E+02  0.94946532013E+02  0.19999990141E+01 0.  0.
         13    1    3    3    0    0  0.68732869716E+01 -0.36322151265E+02 -0.31655646294E+02  0.48668592055E+02  0.10566000000E+00 0. -1.
         13    1    4    4    0    0 -0.13906846646E+01  0.64827888042E+01 -0.13962251375E+02  0.15456913728E+02  0.10566000000E+00 0. -1.
        -13    1    4    4    0    0 -0.41824983903E+01  0.21944980105E+02 -0.53497574083E+02  0.57974796605E+02  0.10566000000E+00 0.  1.
        -14    1    4    4    0    0 -0.13001039167E+01  0.78943823558E+01 -0.19971880456E+02  0.21514821680E+02  0.00000000000E+00 0.  1.
<mgrwt>
<rscale>  0 0.80271454E+02</rscale>
<asrwt>0</asrwt>
<pdfrwt beam="1">  1        1 0.18867518E-02 0.80271454E+02</pdfrwt>
<pdfrwt beam="2">  1       -2 0.20207882E-01 0.80271454E+02</pdfrwt>
<totfact> 0.97675184E+04</totfact>
</mgrwt>
</event>
<event>
 8    1  0.7756875E-014  0.8532723E+02  0.7818608E-02  0.1314579E+00
         -2   -1    0    0    0  501 -0.00000000000E+00  0.00000000000E+00  0.45441107358E+02  0.45441107429E+02  0.25500000000E-02 0.  1.
          1   -1    0    0  501    0  0.00000000000E+00 -0.00000000000E+00 -0.40055887660E+02  0.40055887978E+02  0.50400000000E-02 0. -1.
        -24    2    1    2    0    0 -0.17763568394E-14  0.00000000000E+00  0.53852196974E+01  0.85496995407E+02  0.85327226794E+02 0.  0.
         66    2    3    3    0    0  0.11685332869E+02 -0.38013665686E+02 -0.12718101231E+02  0.41801146911E+02  0.20000002508E+01 0.  0.
         13    1    3    3    0    0 -0.11685332869E+02  0.38013665686E+02  0.18103320929E+02  0.43695848496E+02  0.10566000000E+00 0. -1.
         13    1    4    4    0    0  0.20477863520E+01 -0.67761119925E+01 -0.29837562524E+01  0.76826485073E+01  0.10566000000E+00 0. -1.
        -13    1    4    4    0    0  0.47230359094E+01 -0.14728652823E+02 -0.49764730781E+01  0.16248591647E+02  0.10566000000E+00 0.  1.
         14    1    4    4    0    0  0.49145106075E+01 -0.16508900871E+02 -0.47578719007E+01  0.17869906757E+02  0.00000000000E+00 0. -1.
<mgrwt>
<rscale>  0 0.85327227E+02</rscale>
<asrwt>0</asrwt>
<pdfrwt beam="1">  1        1 0.61624443E-02 0.85327227E+02</pdfrwt>
<pdfrwt beam="2">  1       -2 0.69909396E-02 0.85327227E+02</pdfrwt>
<totfact> 0.10578927E+05</totfact>
</mgrwt>
</event>
<event>
 8    1  0.7756875E-014  0.7709936E+02  0.7818608E-02  0.1337491E+00
         -2   -1    0    0    0  501 -0.00000000000E+00  0.00000000000E+00  0.33127151818E+02  0.33127151916E+02  0.25500000000E-02 0.  1.
          1   -1    0    0  501    0  0.00000000000E+00 -0.00000000000E+00 -0.44859810270E+02  0.44859810553E+02  0.50400000000E-02 0. -1.
        -24    2    1    2    0    0  0.00000000000E+00  0.00000000000E+00 -0.11732658452E+02  0.77986962470E+02  0.77099358239E+02 0.  0.
         66    2    3    3    0    0  0.29725906322E+02  0.46333837263E+01  0.18468647845E+02  0.35358007316E+02  0.19999941676E+01 0.  0.
         13    1    3    3    0    0 -0.29725906322E+02 -0.46333837263E+01 -0.30201306297E+02  0.42628955154E+02  0.10566000000E+00 0. -1.
         13    1    4    4    0    0  0.13665106294E+02  0.29460570887E+01  0.81282557062E+01  0.16170778808E+02  0.10566000000E+00 0. -1.
        -13    1    4    4    0    0  0.23909870291E+01  0.34189596022E+00  0.13230387644E+01  0.27559585318E+01  0.10566000000E+00 0. -1.
        -14    1    4    4    0    0  0.13669812999E+02  0.13454306774E+01  0.90173533746E+01  0.16431269976E+02  0.00000000000E+00 0.  1.
<mgrwt>
<rscale>  0 0.77099358E+02</rscale>
<asrwt>0</asrwt>
<pdfrwt beam="1">  1        1 0.69015093E-02 0.77099358E+02</pdfrwt>
<pdfrwt beam="2">  1       -2 0.50964849E-02 0.77099358E+02</pdfrwt>
<totfact> 0.14336605E+05</totfact>
</mgrwt>
</event>
<event>
 8    1  0.7756875E-014  0.7919495E+02  0.7818608E-02  0.1331352E+00
         -2   -1    0    0    0  501 -0.00000000000E+00  0.00000000000E+00  0.10234542216E+03  0.10234542219E+03  0.25500000000E-02 0.  1.
          1   -1    0    0  501    0  0.00000000000E+00 -0.00000000000E+00 -0.15320273106E+02  0.15320273935E+02  0.50400000000E-02 0. -1.
        -24    2    1    2    0    0 -0.71054273576E-14 -0.35527136788E-14  0.87025149050E+02  0.11766569612E+03  0.79194946031E+02 0.  0.
         66    2    3    3    0    0  0.29064798430E+02  0.25491585817E+02  0.56092299454E+02  0.68153719759E+02  0.20000009466E+01 0.  0.
         13    1    3    3    0    0 -0.29064798430E+02 -0.25491585817E+02  0.30932849596E+02  0.49511976363E+02  0.10566000000E+00 0. -1.
         13    1    4    4    0    0  0.24111094481E+01  0.27482141554E+01  0.54204882256E+01  0.65390355905E+01  0.10566000000E+00 0. -1.
        -13    1    4    4    0    0  0.45487984214E+01  0.35155673850E+01  0.78955014054E+01  0.97673377947E+01  0.10566000000E+00 0.  1.
        -14    1    4    4    0    0  0.22104890560E+02  0.19227804276E+02  0.42776309823E+02  0.51847346374E+02  0.00000000000E+00 0.  1.
<mgrwt>
<rscale>  0 0.79194946E+02</rscale>
<asrwt>0</asrwt>
<pdfrwt beam="1">  1        1 0.23569651E-02 0.79194946E+02</pdfrwt>
<pdfrwt beam="2">  1       -2 0.15745450E-01 0.79194946E+02</pdfrwt>
<totfact> 0.10828174E+05</totfact>
</mgrwt>
</event>
<event>
 8    1  0.7756875E-014  0.7933430E+02  0.7818608E-02  0.1330951E+00
         -2   -1    0    0    0  501 -0.00000000000E+00  0.00000000000E+00  0.50811027767E+02  0.50811027831E+02  0.25500000000E-02 0.  1.
          1   -1    0    0  501    0  0.00000000000E+00 -0.00000000000E+00 -0.30967345719E+02  0.30967346129E+02  0.50400000000E-02 0. -1.
        -24    2    1    2    0    0  0.00000000000E+00  0.11102230246E-15  0.19843682048E+02  0.81778373960E+02  0.79334297314E+02 0.  0.
         66    2    3    3    0    0 -0.20231027257E+02  0.56397068657E+00  0.45064375535E+02  0.49440979649E+02  0.19999998652E+01 0.  0.
         13    1    3    3    0    0  0.20231027257E+02 -0.56397068657E+00 -0.25220693487E+02  0.32337394311E+02  0.10566000000E+00 0. -1.
         13    1    4    4    0    0 -0.49024039815E+01 -0.31750107343E+00  0.12296339332E+02  0.13241808665E+02  0.10566000000E+00 0. -1.
        -13    1    4    4    0    0 -0.22227920666E+01 -0.17279427198E+00  0.45161531232E+01  0.50376051353E+01  0.10566000000E+00 0.  1.
        -14    1    4    4    0    0 -0.13105831209E+02  0.10542660320E+01  0.28251883080E+02  0.31161565848E+02  0.00000000000E+00 0.  1.
<mgrwt>
<rscale>  0 0.79334297E+02</rscale>
<asrwt>0</asrwt>
<pdfrwt beam="1">  1        1 0.47642072E-02 0.79334297E+02</pdfrwt>
<pdfrwt beam="2">  1       -2 0.78170811E-02 0.79334297E+02</pdfrwt>
<totfact> 0.12457225E+05</totfact>
</mgrwt>
</event>
<event>
 8    1  0.7756875E-014  0.8039072E+02  0.7818608E-02  0.1327946E+00
          1   -1    0    0  501    0  0.00000000000E+00  0.00000000000E+00  0.96385319186E+02  0.96385319318E+02  0.50400000000E-02 0. -1.
         -2   -1    0    0    0  501 -0.00000000000E+00 -0.00000000000E+00 -0.16762584305E+02  0.16762584499E+02  0.25500000000E-02 0.  1.
        -24    2    1    2    0    0  0.00000000000E+00  0.00000000000E+00  0.79622734881E+02  0.11314790382E+03  0.80390722277E+02 0.  0.
         66    2    3    3    0    0  0.10031996815E+02  0.12508600470E+02 -0.12003399088E+02  0.20129273232E+02  0.20000013401E+01 0.  0.
         13    1    3    3    0    0 -0.10031996815E+02 -0.12508600470E+02  0.91626133969E+02  0.93018630585E+02  0.10566000000E+00 0. -1.
         13    1    4    4    0    0  0.51536349316E+01  0.53490879178E+01 -0.48012224759E+01  0.88450887988E+01  0.10566000000E+00 0. -1.
        -13    1    4    4    0    0  0.51337176678E+00  0.86891367413E+00 -0.63602442644E+00  0.11976028769E+01  0.10566000000E+00 0.  1.
         14    1    4    4    0    0  0.43649901165E+01  0.62905988782E+01 -0.65661521855E+01  0.10086581556E+02  0.00000000000E+00 0. -1.
<mgrwt>
<rscale>  0 0.80390722E+02</rscale>
<asrwt>0</asrwt>
<pdfrwt beam="1">  1        1 0.14828511E-01 0.80390722E+02</pdfrwt>
<pdfrwt beam="2">  1       -2 0.25788591E-02 0.80390722E+02</pdfrwt>
<totfact> 0.14417348E+05</totfact>
</mgrwt>
</event>
<event>
 8    1  0.7756875E-014  0.7986521E+02  0.7818608E-02  0.1329434E+00
         -2   -1    0    0    0  501 -0.00000000000E+00  0.00000000000E+00  0.22582535654E+02  0.22582535798E+02  0.25500000000E-02 0.  1.
          1   -1    0    0  501    0  0.00000000000E+00 -0.00000000000E+00 -0.70612667661E+02  0.70612667841E+02  0.50400000000E-02 0. -1.
        -24    2    1    2    0    0  0.17763568394E-14  0.00000000000E+00 -0.48030132007E+02  0.93195203639E+02  0.79865213958E+02 0.  0.
         66    2    3    3    0    0  0.12979940246E+02  0.31700974286E+02 -0.47921115278E+02  0.58939493631E+02  0.20000001383E+01 0.  0.
         13    1    3    3    0    0 -0.12979940246E+02 -0.31700974286E+02 -0.10901672936E+00  0.34255710008E+02  0.10566000000E+00 0. -1.
         13    1    4    4    0    0  0.17231154788E+01  0.33273167480E+01 -0.53751814248E+01  0.65531597783E+01  0.10566000000E+00 0.  1.
        -13    1    4    4    0    0  0.21893050158E+01  0.67269493479E+01 -0.10670843118E+02  0.12803240248E+02  0.10566000000E+00 0. -1.
        -14    1    4    4    0    0  0.90675197509E+01  0.21646708190E+02 -0.31875090735E+02  0.39583093604E+02  0.00000000000E+00 0.  1.
<mgrwt>
<rscale>  0 0.79865214E+02</rscale>
<asrwt>0</asrwt>
<pdfrwt beam="1">  1        1 0.10863487E-01 0.79865214E+02</pdfrwt>
<pdfrwt beam="2">  1       -2 0.34742363E-02 0.79865214E+02</pdfrwt>
<totfact> 0.13954031E+05</totfact>
</mgrwt>
</event>
<event>
 8    1  0.7756875E-014  0.7939857E+02  0.7818608E-02  0.1330767E+00
          1   -1    0    0  501    0  0.00000000000E+00  0.00000000000E+00  0.20334439033E+02  0.20334439658E+02  0.50400000000E-02 0. -1.
         -2   -1    0    0    0  501 -0.00000000000E+00 -0.00000000000E+00 -0.77505606112E+02  0.77505606154E+02  0.25500000000E-02 0.  1.
        -24    2    1    2    0    0  0.35527136788E-14 -0.44408920985E-15 -0.57171167079E+02  0.97840045812E+02  0.79398565600E+02 0.  0.
         66    2    3    3    0    0  0.25248339306E+02 -0.29165927482E+01 -0.66143131332E+02  0.70886521783E+02  0.19999992925E+01 0.  0.
         13    1    3    3    0    0 -0.25248339306E+02  0.29165927482E+01  0.89719642529E+01  0.26953524029E+02  0.10566000000E+00 0. -1.
         13    1    4    4    0    0  0.12957971809E+02 -0.15701984500E+01 -0.31921815954E+02  0.34487505772E+02  0.10566000000E+00 0. -1.
        -13    1    4    4    0    0  0.10275777785E+02 -0.97955188869E+00 -0.29451710370E+02  0.31208420959E+02  0.10566000000E+00 0.  1.
        -14    1    4    4    0    0  0.20145897121E+01 -0.36684240947E+00 -0.47696050079E+01  0.51905950519E+01  0.00000000000E+00 0.  1.
<mgrwt>
<rscale>  0 0.79398566E+02</rscale>
<asrwt>0</asrwt>
<pdfrwt beam="1">  1        1 0.31283753E-02 0.79398566E+02</pdfrwt>
<pdfrwt beam="2">  1       -2 0.11923939E-01 0.79398566E+02</pdfrwt>
<totfact> 0.11470360E+05</totfact>
</mgrwt>
</event>
<event>
 8    1  0.7756875E-014  0.8019299E+02  0.7818608E-02  0.1328505E+00
          1   -1    0    0  501    0  0.00000000000E+00  0.00000000000E+00  0.89300439946E+02  0.89300440088E+02  0.50400000000E-02 0. -1.
         -2   -1    0    0    0  501 -0.00000000000E+00 -0.00000000000E+00 -0.18003595089E+02  0.18003595269E+02  0.25500000000E-02 0.  1.
        -24    2    1    2    0    0  0.00000000000E+00  0.00000000000E+00  0.71296844857E+02  0.10730403536E+03  0.80192991698E+02 0.  0.
         66    2    3    3    0    0  0.32588538969E+02 -0.74892474749E+01  0.61229871438E+01  0.34052792411E+02  0.19999998846E+01 0.  0.
         13    1    3    3    0    0 -0.32588538969E+02  0.74892474749E+01  0.65173857713E+02  0.73251242946E+02  0.10566000000E+00 0. -1.
         13    1    4    4    0    0  0.28697921869E+01 -0.10334690358E+01  0.89363949264E+00  0.31801762565E+01  0.10566000000E+00 0. -1.
        -13    1    4    4    0    0  0.18590461480E+02 -0.38228978339E+01  0.36693626922E+01  0.19331197389E+02  0.10566000000E+00 0.  1.
        -14    1    4    4    0    0  0.11128285302E+02 -0.26328806052E+01  0.15599849590E+01  0.11541418765E+02  0.00000000000E+00 0.  1.
<mgrwt>
<rscale>  0 0.80192992E+02</rscale>
<asrwt>0</asrwt>
<pdfrwt beam="1">  1        1 0.13738529E-01 0.80192992E+02</pdfrwt>
<pdfrwt beam="2">  1       -2 0.27697838E-02 0.80192992E+02</pdfrwt>
<totfact> 0.14331210E+05</totfact>
</mgrwt>
</event>
<event>
 8    1  0.7756875E-014  0.7961882E+02  0.7818608E-02  0.1330137E+00
         -2   -1    0    0    0  501 -0.00000000000E+00  0.00000000000E+00  0.36598976029E+02  0.36598976117E+02  0.25500000000E-02 0.  1.
          1   -1    0    0  501    0  0.00000000000E+00 -0.00000000000E+00 -0.43301462353E+02  0.43301462646E+02  0.50400000000E-02 0. -1.
        -24    2    1    2    0    0  0.00000000000E+00  0.00000000000E+00 -0.67024863243E+01  0.79900438763E+02  0.79618821843E+02 0.  0.
         66    2    3    3    0    0  0.32790668213E+02  0.16296765702E+02  0.12257109442E+02  0.38665866742E+02  0.20000062107E+01 0.  0.
         13    1    3    3    0    0 -0.32790668213E+02 -0.16296765702E+02 -0.18959595767E+02  0.41234572022E+02  0.10566000000E+00 0. -1.
         13    1    4    4    0    0  0.51140526439E+00  0.10104947570E+00  0.70368004967E-01  0.53652775577E+00  0.10566000000E+00 0. -1.
        -13    1    4    4    0    0  0.43021663849E+01  0.19579541601E+01  0.18976377490E+01  0.50945473948E+01  0.10566000000E+00 0.  1.
        -14    1    4    4    0    0  0.27977096563E+02  0.14237762066E+02  0.10289103688E+02  0.33034791591E+02  0.00000000000E+00 0.  1.
<mgrwt>
<rscale>  0 0.79618822E+02</rscale>
<asrwt>0</asrwt>
<pdfrwt beam="1">  1        1 0.66617635E-02 0.79618822E+02</pdfrwt>
<pdfrwt beam="2">  1       -2 0.56306117E-02 0.79618822E+02</pdfrwt>
<totfact> 0.13034054E+05</totfact>
</mgrwt>
</event>
<event>
 8    1  0.7756875E-014  0.7847534E+02  0.7818608E-02  0.1333435E+00
         -2   -1    0    0    0  501 -0.00000000000E+00  0.00000000000E+00  0.19913182216E+02  0.19913182379E+02  0.25500000000E-02 0.  1.
          1   -1    0    0  501    0  0.00000000000E+00 -0.00000000000E+00 -0.77315357687E+02  0.77315357851E+02  0.50400000000E-02 0. -1.
        -24    2    1    2    0    0 -0.35527136788E-14  0.00000000000E+00 -0.57402175471E+02  0.97228540230E+02  0.78475341901E+02 0.  0.
         66    2    3    3    0    0  0.17014575481E+02  0.26656879876E+02  0.47741577072E-02  0.31687300898E+02  0.19999979631E+01 0.  0.
         13    1    3    3    0    0 -0.17014575481E+02 -0.26656879876E+02 -0.57406949628E+02  0.65541239332E+02  0.10566000000E+00 0. -1.
         13    1    4    4    0    0  0.25722194732E+01  0.52174842569E+01 -0.38619465126E-01  0.58181707167E+01  0.10566000000E+00 0. -1.
        -13    1    4    4    0    0  0.72406788593E+01  0.98743617439E+01  0.21226912166E-01  0.12245083291E+02  0.10566000000E+00 0.  1.
         14    1    4    4    0    0  0.72016771489E+01  0.11565033875E+02  0.22166710668E-01  0.13624046890E+02  0.00000000000E+00 0. -1.
<mgrwt>
<rscale>  0 0.78475342E+02</rscale>
<asrwt>0</asrwt>
<pdfrwt beam="1">  1        1 0.11894670E-01 0.78475342E+02</pdfrwt>
<pdfrwt beam="2">  1       -2 0.30635665E-02 0.78475342E+02</pdfrwt>
<totfact> 0.14850107E+05</totfact>
</mgrwt>
</event>
<event>
 8    1  0.7756875E-014  0.7963989E+02  0.7818608E-02  0.1330076E+00
          1   -1    0    0  501    0  0.00000000000E+00  0.00000000000E+00  0.77115993084E+02  0.77115993248E+02  0.50400000000E-02 0. -1.
         -2   -1    0    0    0  501 -0.00000000000E+00 -0.00000000000E+00 -0.20561595579E+02  0.20561595737E+02  0.25500000000E-02 0.  1.
        -24    2    1    2    0    0  0.00000000000E+00 -0.35527136788E-14  0.56554397505E+02  0.97677588985E+02  0.79639886444E+02 0.  0.
         66    2    3    3    0    0  0.26775900039E+02 -0.28927221865E+02  0.35000414809E+02  0.52751891196E+02  0.20000000521E+01 0.  0.
         13    1    3    3    0    0 -0.26775900039E+02  0.28927221865E+02  0.21553982696E+02  0.44925697789E+02  0.10566000000E+00 0. -1.
         13    1    4    4    0    0  0.58051636377E+01 -0.66290186373E+01  0.68373163170E+01  0.11153648345E+02  0.10566000000E+00 0. -1.
        -13    1    4    4    0    0  0.12105183239E+02 -0.13229233281E+02  0.16545256004E+02  0.24398867489E+02  0.10566000000E+00 0.  1.
         14    1    4    4    0    0  0.88655531622E+01 -0.90689699469E+01  0.11617842488E+02  0.17199375362E+02  0.00000000000E+00 0. -1.
<mgrwt>
<rscale>  0 0.79639886E+02</rscale>
<asrwt>0</asrwt>
<pdfrwt beam="1">  1        1 0.11863999E-01 0.79639886E+02</pdfrwt>
<pdfrwt beam="2">  1       -2 0.31633224E-02 0.79639886E+02</pdfrwt>
<totfact> 0.14260415E+05</totfact>
</mgrwt>
</event>
<event>
 8    1  0.8859849E-014  0.7548288E+02  0.7818608E-02  0.1342382E+00
          1   -1    0    0  501    0  0.00000000000E+00  0.00000000000E+00  0.57522156445E+02  0.57522156666E+02  0.50400000000E-02 0. -1.
         -2   -1    0    0    0  501 -0.00000000000E+00 -0.00000000000E+00 -0.24762914375E+02  0.24762914506E+02  0.25500000000E-02 0.  1.
        -24    2    1    2    0    0  0.00000000000E+00 -0.88817841970E-15  0.32759242070E+02  0.82285071172E+02  0.75482878832E+02 0.  0.
         66    2    3    3    0    0 -0.95013422194E+01 -0.60231361123E+01 -0.22850922255E+02  0.25548352789E+02  0.20000024243E+01 0.  0.
         13    1    3    3    0    0  0.95013422194E+01  0.60231361123E+01  0.55610164325E+02  0.56736718383E+02  0.10566000000E+00 0. -1.
         13    1    4    4    0    0 -0.16876357106E+01 -0.44696441549E+00 -0.37239198507E+01  0.41141991408E+01  0.10566000000E+00 0. -1.
        -13    1    4    4    0    0 -0.49907032936E+01 -0.29780315506E+01 -0.12257278894E+02  0.13565686168E+02  0.10566000000E+00 0.  1.
         14    1    4    4    0    0 -0.28230032152E+01 -0.25981401463E+01 -0.68697235107E+01  0.78684674802E+01  0.00000000000E+00 0. -1.
<mgrwt>
<rscale>  0 0.75482879E+02</rscale>
<asrwt>0</asrwt>
<pdfrwt beam="1">  1        1 0.88495625E-02 0.75482879E+02</pdfrwt>
<pdfrwt beam="2">  1       -2 0.38096792E-02 0.75482879E+02</pdfrwt>
<totfact> 0.15779507E+05</totfact>
</mgrwt>
</event>
<event>
 8    1  0.7756875E-014  0.8134880E+02  0.7818608E-02  0.1325267E+00
          1   -1    0    0  501    0  0.00000000000E+00  0.00000000000E+00  0.17862259440E+02  0.17862260151E+02  0.50400000000E-02 0. -1.
         -2   -1    0    0    0  501 -0.00000000000E+00 -0.00000000000E+00 -0.92620246869E+02  0.92620246904E+02  0.25500000000E-02 0.  1.
        -24    2    1    2    0    0 -0.88817841970E-15  0.35527136788E-14 -0.74757987429E+02  0.11048250706E+03  0.81348802577E+02 0.  0.
         66    2    3    3    0    0 -0.70550120292E+01 -0.26646976189E+02 -0.77976929597E+02  0.82729898395E+02  0.20000011027E+01 0.  0.
         13    1    3    3    0    0  0.70550120292E+01  0.26646976189E+02  0.32189421672E+01  0.27752608660E+02  0.10566000000E+00 0. -1.
         13    1    4    4    0    0 -0.80204814526E+00 -0.34126871275E+01 -0.11725330736E+02  0.12238637978E+02  0.10566000000E+00 0.  1.
        -13    1    4    4    0    0 -0.17047156687E+01 -0.49505393494E+01 -0.14414247955E+02  0.15336088273E+02  0.10566000000E+00 0. -1.
        -14    1    4    4    0    0 -0.45482482152E+01 -0.18283749712E+02 -0.51837350905E+02  0.55155172144E+02  0.00000000000E+00 0.  1.
<mgrwt>
<rscale>  0 0.81348803E+02</rscale>
<asrwt>0</asrwt>
<pdfrwt beam="1">  1        1 0.27480400E-02 0.81348803E+02</pdfrwt>
<pdfrwt beam="2">  1       -2 0.14249268E-01 0.81348803E+02</pdfrwt>
<totfact> 0.10359414E+05</totfact>
</mgrwt>
</event>
<event>
 8    1  0.7756875E-014  0.7968775E+02  0.7818608E-02  0.1329940E+00
          1   -1    0    0  501    0  0.00000000000E+00  0.00000000000E+00  0.26514785768E+02  0.26514786247E+02  0.50400000000E-02 0. -1.
         -2   -1    0    0    0  501 -0.00000000000E+00 -0.00000000000E+00 -0.59873557104E+02  0.59873557158E+02  0.25500000000E-02 0.  1.
        -24    2    1    2    0    0  0.00000000000E+00  0.00000000000E+00 -0.33358771336E+02  0.86388343405E+02  0.79687754713E+02 0.  0.
         66    2    3    3    0    0  0.98838222165E+01  0.14390367386E+02 -0.55486753791E+02  0.58202684167E+02  0.19999957274E+01 0.  0.
         13    1    3    3    0    0 -0.98838222165E+01 -0.14390367386E+02  0.22127982455E+02  0.28185659238E+02  0.10566000000E+00 0. -1.
         13    1    4    4    0    0  0.32570581972E+01  0.58536546393E+01 -0.20332417348E+02  0.21407757005E+02  0.10566000000E+00 0. -1.
        -13    1    4    4    0    0  0.32969620098E+01  0.48654942940E+01 -0.20424955155E+02  0.21254010218E+02  0.10566000000E+00 0.  1.
        -14    1    4    4    0    0  0.33298020095E+01  0.36712184523E+01 -0.14729381288E+02  0.15540916945E+02  0.00000000000E+00 0.  1.
<mgrwt>
<rscale>  0 0.79687755E+02</rscale>
<asrwt>0</asrwt>
<pdfrwt beam="1">  1        1 0.40791979E-02 0.79687755E+02</pdfrwt>
<pdfrwt beam="2">  1       -2 0.92113164E-02 0.79687755E+02</pdfrwt>
<totfact> 0.11961315E+05</totfact>
</mgrwt>
</event>
<event>
 8    1  0.7756875E-014  0.8128555E+02  0.7818608E-02  0.1325442E+00
         -2   -1    0    0    0  501 -0.00000000000E+00  0.00000000000E+00  0.10634634823E+02  0.10634635129E+02  0.25500000000E-02 0.  1.
          1   -1    0    0  501    0  0.00000000000E+00 -0.00000000000E+00 -0.15532600264E+03  0.15532600272E+03  0.50400000000E-02 0. -1.
        -24    2    1    2    0    0  0.00000000000E+00  0.00000000000E+00 -0.14469136782E+03  0.16596063785E+03  0.81285554651E+02 0.  0.
         66    2    3    3    0    0  0.28099307143E+02  0.42850058301E+01 -0.13148483348E+02  0.31381761516E+02  0.20000011584E+01 0.  0.
         13    1    3    3    0    0 -0.28099307143E+02 -0.42850058301E+01 -0.13154288447E+03  0.13457887634E+03  0.10566000000E+00 0. -1.
         13    1    4    4    0    0  0.14337024439E+02  0.22539190952E+01 -0.76247114099E+01  0.16394444461E+02  0.10566000000E+00 0. -1.
        -13    1    4    4    0    0  0.67788908470E+01  0.12373936665E+01 -0.24214287927E+01  0.73047235153E+01  0.10566000000E+00 0.  1.
         14    1    4    4    0    0  0.69833918566E+01  0.79369306840E+00 -0.31023431451E+01  0.76825935399E+01  0.00000000000E+00 0. -1.
<mgrwt>
<rscale>  0 0.81285555E+02</rscale>
<asrwt>0</asrwt>
<pdfrwt beam="1">  1        1 0.23896307E-01 0.81285555E+02</pdfrwt>
<pdfrwt beam="2">  1       -2 0.16360978E-02 0.81285555E+02</pdfrwt>
<totfact> 0.15228016E+05</totfact>
</mgrwt>
</event>
<event>
 8    1  0.7756875E-014  0.8018481E+02  0.7818608E-02  0.1328528E+00
         -2   -1    0    0    0  501 -0.00000000000E+00  0.00000000000E+00  0.93308079926E+02  0.93308079961E+02  0.25500000000E-02 0.  1.
          1   -1    0    0  501    0  0.00000000000E+00 -0.00000000000E+00 -0.17226815698E+02  0.17226816436E+02  0.50400000000E-02 0. -1.
        -24    2    1    2    0    0  0.00000000000E+00  0.00000000000E+00  0.76081264228E+02  0.11053489640E+03  0.80184814989E+02 0.  0.
         66    2    3    3    0    0 -0.25953638782E+02  0.84082131804E+01  0.78515838749E+02  0.83144611037E+02  0.19999988102E+01 0.  0.
         13    1    3    3    0    0  0.25953638782E+02 -0.84082131804E+01 -0.24345745206E+01  0.27390285359E+02  0.10566000000E+00 0. -1.
         13    1    4    4    0    0 -0.21520297750E+02  0.68656381601E+01  0.67105842592E+02  0.70805829397E+02  0.10566000000E+00 0. -1.
        -13    1    4    4    0    0 -0.25469889525E+01  0.90375467185E+00  0.66417341812E+01  0.71713124461E+01  0.10566000000E+00 0.  1.
         14    1    4    4    0    0 -0.18863520801E+01  0.63882034840E+00  0.47682619756E+01  0.51674691944E+01  0.00000000000E+00 0. -1.
<mgrwt>
<rscale>  0 0.80184815E+02</rscale>
<asrwt>0</asrwt>
<pdfrwt beam="1">  1        1 0.26502794E-02 0.80184815E+02</pdfrwt>
<pdfrwt beam="2">  1       -2 0.14355089E-01 0.80184815E+02</pdfrwt>
<totfact> 0.10729398E+05</totfact>
</mgrwt>
</event>
<event>
 8    1  0.7756875E-014  0.7655904E+02  0.7818608E-02  0.1339110E+00
         -2   -1    0    0    0  501 -0.00000000000E+00  0.00000000000E+00  0.96213795003E+01  0.96213798382E+01  0.25500000000E-02 0.  1.
          1   -1    0    0  501    0  0.00000000000E+00 -0.00000000000E+00 -0.15229847539E+03  0.15229847548E+03  0.50400000000E-02 0. -1.
        -24    2    1    2    0    0  0.00000000000E+00  0.00000000000E+00 -0.14267709589E+03  0.16191985532E+03  0.76559035082E+02 0.  0.
         66    2    3    3    0    0  0.19543377453E+02 -0.16066159724E+02 -0.10703695283E+02  0.27543314494E+02  0.19999975122E+01 0.  0.
         13    1    3    3    0    0 -0.19543377453E+02  0.16066159724E+02 -0.13197340061E+03  0.13437654082E+03  0.10566000000E+00 0. -1.
         13    1    4    4    0    0  0.10503149964E+02 -0.98579774514E+01 -0.60039236514E+01  0.15606221254E+02  0.10566000000E+00 0. -1.
        -13    1    4    4    0    0  0.41868342543E+01 -0.30808114644E+01 -0.22169954832E+01  0.56521865999E+01  0.10566000000E+00 0.  1.
        -14    1    4    4    0    0  0.48533932346E+01 -0.31273708080E+01 -0.24827761486E+01  0.62849066393E+01  0.00000000000E+00 0.  1.
<mgrwt>
<rscale>  0 0.76559035E+02</rscale>
<asrwt>0</asrwt>
<pdfrwt beam="1">  1        1 0.23430533E-01 0.76559035E+02</pdfrwt>
<pdfrwt beam="2">  1       -2 0.14802124E-02 0.76559035E+02</pdfrwt>
<totfact> 0.17800378E+05</totfact>
</mgrwt>
</event>
<event>
 8    1  0.9562893E-014  0.8136647E+02  0.7818608E-02  0.1325218E+00
          1   -1    0    0  501    0  0.00000000000E+00  0.00000000000E+00  0.39806596121E+02  0.39806596440E+02  0.50400000000E-02 0. -1.
         -2   -1    0    0    0  501 -0.00000000000E+00 -0.00000000000E+00 -0.41579181174E+02  0.41579181252E+02  0.25500000000E-02 0.  1.
        -24    2    1    2    0    0  0.00000000000E+00  0.00000000000E+00 -0.17725850523E+01  0.81385777692E+02  0.81366471920E+02 0.  0.
         66    2    3    3    0    0 -0.90364121079E+01 -0.27619747905E+02 -0.29329703552E+02  0.41336893037E+02  0.19999993545E+01 0.  0.
         13    1    3    3    0    0  0.90364121079E+01  0.27619747905E+02  0.27557118499E+02  0.40048884655E+02  0.10566000000E+00 0. -1.
         13    1    4    4    0    0 -0.34916719582E+01 -0.10762962225E+02 -0.10615835370E+02  0.15515806571E+02  0.10566000000E+00 0.  1.
        -13    1    4    4    0    0 -0.49242391537E+01 -0.13557551468E+02 -0.14845871752E+02  0.20699430068E+02  0.10566000000E+00 0. -1.
         14    1    4    4    0    0 -0.62050099591E+00 -0.32992342124E+01 -0.38679964302E+01  0.51216563979E+01  0.00000000000E+00 0. -1.
<mgrwt>
<rscale>  0 0.81366472E+02</rscale>
<asrwt>0</asrwt>
<pdfrwt beam="1">  1        1 0.61240917E-02 0.81366472E+02</pdfrwt>
<pdfrwt beam="2">  1       -2 0.63967971E-02 0.81366472E+02</pdfrwt>
<totfact> 0.12095182E+05</totfact>
</mgrwt>
</event>
<event>
 8    1  0.7756875E-014  0.7954290E+02  0.7818608E-02  0.1330354E+00
         -2   -1    0    0    0  501 -0.00000000000E+00  0.00000000000E+00  0.64529785214E+01  0.64529790252E+01  0.25500000000E-02 0.  1.
          1   -1    0    0  501    0  0.00000000000E+00 -0.00000000000E+00 -0.24512216546E+03  0.24512216551E+03  0.50400000000E-02 0. -1.
        -24    2    1    2    0    0  0.00000000000E+00  0.00000000000E+00 -0.23866918694E+03  0.25157514454E+03  0.79542897577E+02 0.  0.
         66    2    3    3    0    0  0.19609347704E+01  0.38237265579E+02 -0.15315359870E+03  0.15787956972E+03  0.19999992068E+01 0.  0.
         13    1    3    3    0    0 -0.19609347704E+01 -0.38237265579E+02 -0.85515588244E+02  0.93695574820E+02  0.10566000000E+00 0. -1.
         13    1    4    4    0    0  0.10918762519E+01  0.22968767057E+02 -0.89764183708E+02  0.92662701745E+02  0.10566000000E+00 0. -1.
        -13    1    4    4    0    0 -0.82462350698E-01  0.71898490089E+01 -0.28927614107E+02  0.29808031649E+02  0.10566000000E+00 0.  1.
         14    1    4    4    0    0  0.95152086925E+00  0.80786495129E+01 -0.34461800883E+02  0.35408836327E+02  0.00000000000E+00 0. -1.
<mgrwt>
<rscale>  0 0.79542898E+02</rscale>
<asrwt>0</asrwt>
<pdfrwt beam="1">  1        1 0.37711095E-01 0.79542898E+02</pdfrwt>
<pdfrwt beam="2">  1       -2 0.99276616E-03 0.79542898E+02</pdfrwt>
<totfact> 0.17613418E+05</totfact>
</mgrwt>
</event>
<event>
 8    1  0.7756875E-014  0.7872452E+02  0.7818608E-02  0.1332711E+00
          1   -1    0    0  501    0  0.00000000000E+00  0.00000000000E+00  0.22909618907E+02  0.22909619461E+02  0.50400000000E-02 0. -1.
         -2   -1    0    0    0  501 -0.00000000000E+00 -0.00000000000E+00 -0.67630438742E+02  0.67630438790E+02  0.25500000000E-02 0.  1.
        -24    2    1    2    0    0  0.00000000000E+00  0.44408920985E-15 -0.44720819835E+02  0.90540058251E+02  0.78724522364E+02 0.  0.
         66    2    3    3    0    0 -0.14875214538E+02 -0.19700958337E+01 -0.64194811840E+02  0.65955493707E+02  0.19999994414E+01 0.  0.
         13    1    3    3    0    0  0.14875214538E+02  0.19700958337E+01  0.19473992006E+02  0.24584564544E+02  0.10566000000E+00 0. -1.
         13    1    4    4    0    0 -0.25317745271E+01  0.28606984903E+00 -0.11838692609E+02  0.12110223984E+02  0.10566000000E+00 0. -1.
        -13    1    4    4    0    0 -0.37030384703E+01 -0.36827516604E+00 -0.16439697199E+02  0.16855946385E+02  0.10566000000E+00 0.  1.
         14    1    4    4    0    0 -0.86404015406E+01 -0.18878905167E+01 -0.35916422033E+02  0.36989323338E+02  0.00000000000E+00 0. -1.
<mgrwt>
<rscale>  0 0.78724522E+02</rscale>
<asrwt>0</asrwt>
<pdfrwt beam="1">  1        1 0.35245568E-02 0.78724522E+02</pdfrwt>
<pdfrwt beam="2">  1       -2 0.10404683E-01 0.78724522E+02</pdfrwt>
<totfact> 0.12051790E+05</totfact>
</mgrwt>
</event>
<event>
 8    1  0.7756875E-014  0.7906857E+02  0.7818608E-02  0.1331716E+00
         -2   -1    0    0    0  501 -0.00000000000E+00  0.00000000000E+00  0.10519442587E+02  0.10519442896E+02  0.25500000000E-02 0.  1.
          1   -1    0    0  501    0  0.00000000000E+00 -0.00000000000E+00 -0.14857818568E+03  0.14857818577E+03  0.50400000000E-02 0. -1.
        -24    2    1    2    0    0  0.00000000000E+00  0.00000000000E+00 -0.13805874310E+03  0.15909762866E+03  0.79068570882E+02 0.  0.
         66    2    3    3    0    0  0.33797031886E+02 -0.18301525643E+02 -0.50657089498E+02  0.63618597349E+02  0.20000017689E+01 0.  0.
         13    1    3    3    0    0 -0.33797031886E+02  0.18301525643E+02 -0.87401653598E+02  0.95479031315E+02  0.10566000000E+00 0. -1.
         13    1    4    4    0    0  0.11549719174E+02 -0.56680326988E+01 -0.15706369547E+02  0.20303295694E+02  0.10566000000E+00 0. -1.
        -13    1    4    4    0    0  0.11780205879E+02 -0.66363581204E+01 -0.18225015125E+02  0.22693101154E+02  0.10566000000E+00 0.  1.
         14    1    4    4    0    0  0.10467106833E+02 -0.59971348241E+01 -0.16725704826E+02  0.20622200500E+02  0.00000000000E+00 0. -1.
<mgrwt>
<rscale>  0 0.79068571E+02</rscale>
<asrwt>0</asrwt>
<pdfrwt beam="1">  1        1 0.22858181E-01 0.79068571E+02</pdfrwt>
<pdfrwt beam="2">  1       -2 0.16183759E-02 0.79068571E+02</pdfrwt>
<totfact> 0.16261515E+05</totfact>
</mgrwt>
</event>
<event>
 8    1  0.7756875E-014  0.7880685E+02  0.7818608E-02  0.1332472E+00
          1   -1    0    0  501    0  0.00000000000E+00  0.00000000000E+00  0.70129938584E+02  0.70129938765E+02  0.50400000000E-02 0. -1.
         -2   -1    0    0    0  501 -0.00000000000E+00 -0.00000000000E+00 -0.22139331832E+02  0.22139331979E+02  0.25500000000E-02 0.  1.
        -24    2    1    2    0    0  0.00000000000E+00  0.00000000000E+00  0.47990606752E+02  0.92269270743E+02  0.78806852412E+02 0.  0.
         66    2    3    3    0    0  0.21883787029E+02  0.31005222983E+02  0.11708601077E+02  0.39765755749E+02  0.20000010391E+01 0.  0.
         13    1    3    3    0    0 -0.21883787029E+02 -0.31005222983E+02  0.36282005674E+02  0.52503514994E+02  0.10566000000E+00 0. -1.
         13    1    4    4    0    0  0.18713563696E+01  0.22116631246E+01  0.10671345944E+01  0.30892343253E+01  0.10566000000E+00 0.  1.
        -13    1    4    4    0    0  0.17832216779E+02  0.26370652829E+02  0.98365460991E+01  0.33319185000E+02  0.10566000000E+00 0.  1.
        -14    1    4    4    0    0  0.21802138802E+01  0.24229070299E+01  0.80492038399E+00  0.33573364239E+01  0.00000000000E+00 0.  1.
<mgrwt>
<rscale>  0 0.78806852E+02</rscale>
<asrwt>0</asrwt>
<pdfrwt beam="1">  1        1 0.10789221E-01 0.78806852E+02</pdfrwt>
<pdfrwt beam="2">  1       -2 0.34060511E-02 0.78806852E+02</pdfrwt>
<totfact> 0.14456764E+05</totfact>
</mgrwt>
</event>
<event>
 8    1  0.7756875E-014  0.8136218E+02  0.7818608E-02  0.1325230E+00
         -2   -1    0    0    0  501 -0.00000000000E+00  0.00000000000E+00  0.93544807456E+02  0.93544807491E+02  0.25500000000E-02 0.  1.
          1   -1    0    0  501    0  0.00000000000E+00 -0.00000000000E+00 -0.17691531957E+02  0.17691532675E+02  0.50400000000E-02 0. -1.
        -24    2    1    2    0    0  0.00000000000E+00  0.00000000000E+00  0.75853275499E+02  0.11123634017E+03  0.81362177759E+02 0.  0.
         66    2    3    3    0    0  0.26641975583E+02 -0.17260049508E+02  0.72677939797E+02  0.79333392139E+02  0.20000007712E+01 0.  0.
         13    1    3    3    0    0 -0.26641975583E+02  0.17260049508E+02  0.31753357013E+01  0.31902948027E+02  0.10566000000E+00 0. -1.
         13    1    4    4    0    0  0.13015657985E+02 -0.80592201346E+01  0.34835365048E+02  0.38050915942E+02  0.10566000000E+00 0. -1.
        -13    1    4    4    0    0  0.12536111056E+02 -0.85733368694E+01  0.33966470948E+02  0.37207371557E+02  0.10566000000E+00 0.  1.
         14    1    4    4    0    0  0.10902065413E+01 -0.62749250436E+00  0.38761038012E+01  0.40751046395E+01  0.00000000000E+00 0. -1.
<mgrwt>
<rscale>  0 0.81362178E+02</rscale>
<asrwt>0</asrwt>
<pdfrwt beam="1">  1        1 0.27217742E-02 0.81362178E+02</pdfrwt>
<pdfrwt beam="2">  1       -2 0.14391509E-01 0.81362178E+02</pdfrwt>
<totfact> 0.10330590E+05</totfact>
</mgrwt>
</event>
<event>
 8    1  0.7756875E-014  0.7746695E+02  0.7818608E-02  0.1336398E+00
         -2   -1    0    0    0  501 -0.00000000000E+00  0.00000000000E+00  0.15359326775E+03  0.15359326777E+03  0.25500000000E-02 0.  1.
          1   -1    0    0  501    0  0.00000000000E+00 -0.00000000000E+00 -0.97678882075E+01  0.97678895078E+01  0.50400000000E-02 0. -1.
        -24    2    1    2    0    0  0.00000000000E+00  0.00000000000E+00  0.14382537954E+03  0.16336115728E+03  0.77466947190E+02 0.  0.
         66    2    3    3    0    0 -0.90836042653E+01  0.29809575494E+02  0.12037786792E+03  0.12436218777E+03  0.20000009384E+01 0.  0.
         13    1    3    3    0    0  0.90836042653E+01 -0.29809575494E+02  0.23447511621E+02  0.38998969510E+02  0.10566000000E+00 0. -1.
         13    1    4    4    0    0 -0.67839558238E+01  0.22694642280E+02  0.93878553317E+02  0.96820776602E+02  0.10566000000E+00 0. -1.
        -13    1    4    4    0    0 -0.54215380888E+00  0.10788495980E+01  0.46886276085E+01  0.48427512939E+01  0.10566000000E+00 0.  1.
        -14    1    4    4    0    0 -0.17574946327E+01  0.60360836165E+01  0.21810686995E+02  0.22698659872E+02  0.00000000000E+00 0.  1.
<mgrwt>
<rscale>  0 0.77466947E+02</rscale>
<asrwt>0</asrwt>
<pdfrwt beam="1">  1        1 0.15027521E-02 0.77466947E+02</pdfrwt>
<pdfrwt beam="2">  1       -2 0.23629733E-01 0.77466947E+02</pdfrwt>
<totfact> 0.10186176E+05</totfact>
</mgrwt>
</event>
<event>
 8    1  0.7756875E-014  0.8710900E+02  0.7818608E-02  0.1310008E+00
          1   -1    0    0  501    0  0.00000000000E+00  0.00000000000E+00  0.19125649677E+02  0.19125650341E+02  0.50400000000E-02 0. -1.
         -2   -1    0    0    0  501 -0.00000000000E+00 -0.00000000000E+00 -0.99185879646E+02  0.99185879678E+02  0.25500000000E-02 0.  1.
        -24    2    1    2    0    0  0.00000000000E+00 -0.35527136788E-14 -0.80060229969E+02  0.11831153002E+03  0.87108999034E+02 0.  0.
         66    2    3    3    0    0 -0.14456745347E+02  0.26182920122E+02 -0.83010834109E+02  0.88257245450E+02  0.20000006889E+01 0.  0.
         13    1    3    3    0    0  0.14456745347E+02 -0.26182920122E+02  0.29506041399E+01  0.30054284569E+02  0.10566000000E+00 0. -1.
         13    1    4    4    0    0 -0.69096157302E+00  0.15414478098E+01 -0.36352073192E+01  0.40099109136E+01  0.10566000000E+00 0. -1.
        -13    1    4    4    0    0 -0.82601156542E+01  0.15309981196E+02 -0.49434403090E+02  0.52406072241E+02  0.10566000000E+00 0.  1.
         14    1    4    4    0    0 -0.55056681202E+01  0.93314911161E+01 -0.29941223700E+02  0.31841262295E+02  0.00000000000E+00 0. -1.
<mgrwt>
<rscale>  0 0.87108999E+02</rscale>
<asrwt>0</asrwt>
<pdfrwt beam="1">  1        1 0.29424078E-02 0.87108999E+02</pdfrwt>
<pdfrwt beam="2">  1       -2 0.15259366E-01 0.87108999E+02</pdfrwt>
<totfact> 0.85496130E+04</totfact>
</mgrwt>
</event>
<event>
 8    1  0.7756875E-014  0.7884479E+02  0.7818608E-02  0.1332362E+00
          1   -1    0    0  501    0  0.00000000000E+00  0.00000000000E+00  0.81585327915E+01  0.81585343482E+01  0.50400000000E-02 0. -1.
         -2   -1    0    0    0  501 -0.00000000000E+00 -0.00000000000E+00 -0.19049075947E+03  0.19049075949E+03  0.25500000000E-02 0.  1.
        -24    2    1    2    0    0 -0.17763568394E-14  0.00000000000E+00 -0.18233222668E+03  0.19864929383E+03  0.78844790923E+02 0.  0.
         66    2    3    3    0    0 -0.11352432412E+02 -0.37112513183E+02 -0.10829483060E+03  0.11505645001E+03  0.19999995034E+01 0.  0.
         13    1    3    3    0    0  0.11352432412E+02  0.37112513183E+02 -0.74037396077E+02  0.83592843823E+02  0.10566000000E+00 0. -1.
         13    1    4    4    0    0 -0.11880797174E+01 -0.44704734920E+01 -0.12663870574E+02  0.13482635077E+02  0.10566000000E+00 0. -1.
        -13    1    4    4    0    0 -0.92193218795E+01 -0.30868411151E+02 -0.89469607300E+02  0.95092988687E+02  0.10566000000E+00 0.  1.
         14    1    4    4    0    0 -0.94503081494E+00 -0.17736285401E+01 -0.61613527258E+01  0.64808262476E+01  0.00000000000E+00 0. -1.
<mgrwt>
<rscale>  0 0.78844791E+02</rscale>
<asrwt>0</asrwt>
<pdfrwt beam="1">  1        1 0.12551592E-02 0.78844791E+02</pdfrwt>
<pdfrwt beam="2">  1       -2 0.29306267E-01 0.78844791E+02</pdfrwt>
<totfact> 0.90057889E+04</totfact>
</mgrwt>
</event>
<event>
 8    1  0.7756875E-014  0.8074322E+02  0.7818608E-02  0.1326955E+00
         -2   -1    0    0    0  501 -0.00000000000E+00  0.00000000000E+00  0.50651804351E+01  0.50651810770E+01  0.25500000000E-02 0.  1.
          1   -1    0    0  501    0  0.00000000000E+00 -0.00000000000E+00 -0.32177863082E+03  0.32177863086E+03  0.50400000000E-02 0. -1.
        -24    2    1    2    0    0 -0.71054273576E-14  0.17763568394E-14 -0.31671345039E+03  0.32684381194E+03  0.80743221056E+02 0.  0.
         66    2    3    3    0    0 -0.35435042859E+02  0.14619934501E+02 -0.10749499801E+03  0.11414271480E+03  0.19999990707E+01 0.  0.
         13    1    3    3    0    0  0.35435042859E+02 -0.14619934501E+02 -0.20921845238E+03  0.21270109714E+03  0.10566000000E+00 0. -1.
         13    1    4    4    0    0 -0.29356066342E+01  0.15489589599E+01 -0.96869036120E+01  0.10240328403E+02  0.10566000000E+00 0. -1.
        -13    1    4    4    0    0 -0.24346650814E+02  0.98280775708E+01 -0.75170205603E+02  0.79623623938E+02  0.10566000000E+00 0.  1.
        -14    1    4    4    0    0 -0.81527854104E+01  0.32428979701E+01 -0.22637888797E+02  0.24278762456E+02  0.00000000000E+00 0.  1.
<mgrwt>
<rscale>  0 0.80743221E+02</rscale>
<asrwt>0</asrwt>
<pdfrwt beam="1">  1        1 0.49504389E-01 0.80743221E+02</pdfrwt>
<pdfrwt beam="2">  1       -2 0.77925883E-03 0.80743221E+02</pdfrwt>
<totfact> 0.17841044E+05</totfact>
</mgrwt>
</event>
<event>
 8    1  0.7756875E-014  0.8207611E+02  0.7818608E-02  0.1323261E+00
         -2   -1    0    0    0  501 -0.00000000000E+00  0.00000000000E+00  0.13198671400E+03  0.13198671403E+03  0.25500000000E-02 0.  1.
          1   -1    0    0  501    0  0.00000000000E+00 -0.00000000000E+00 -0.12759781934E+02  0.12759782929E+02  0.50400000000E-02 0. -1.
        -24    2    1    2    0    0  0.71054273576E-14  0.88817841970E-15  0.11922693207E+03  0.14474649696E+03  0.82076105236E+02 0.  0.
         66    2    3    3    0    0  0.29534229868E+02  0.40037624631E+01  0.10933673140E+03  0.11334382062E+03  0.19999982335E+01 0.  0.
         13    1    3    3    0    0 -0.29534229868E+02 -0.40037624631E+01  0.98902006747E+01  0.31402676337E+02  0.10566000000E+00 0. -1.
         13    1    4    4    0    0  0.95216684655E+00  0.32524295062E+00  0.45679407372E+01  0.46786377606E+01  0.10566000000E+00 0. -1.
        -13    1    4    4    0    0  0.16488771219E+02  0.23509505239E+01  0.62326895332E+02  0.64514026308E+02  0.10566000000E+00 0.  1.
         14    1    4    4    0    0  0.12093291802E+02  0.13275689885E+01  0.42441895326E+02  0.44151156552E+02  0.00000000000E+00 0. -1.
<mgrwt>
<rscale>  0 0.82076105E+02</rscale>
<asrwt>0</asrwt>
<pdfrwt beam="1">  1        1 0.19630434E-02 0.82076105E+02</pdfrwt>
<pdfrwt beam="2">  1       -2 0.20305649E-01 0.82076105E+02</pdfrwt>
<totfact> 0.92113833E+04</totfact>
</mgrwt>
</event>
<event>
 8    1  0.7756875E-014  0.7767704E+02  0.7818608E-02  0.1335776E+00
         -2   -1    0    0    0  501 -0.00000000000E+00  0.00000000000E+00  0.16897869506E+01  0.16897888746E+01  0.25500000000E-02 0.  1.
          1   -1    0    0  501    0  0.00000000000E+00 -0.00000000000E+00 -0.89267462990E+03  0.89267462991E+03  0.50400000000E-02 0. -1.
        -24    2    1    2    0    0  0.00000000000E+00  0.35527136788E-14 -0.89098484295E+03  0.89436441879E+03  0.77677044420E+02 0.  0.
         66    2    3    3    0    0 -0.22693772672E+02  0.19142123299E+02 -0.73363347912E+03  0.73423668520E+03  0.19999999084E+01 0.  0.
         13    1    3    3    0    0  0.22693772672E+02 -0.19142123299E+02 -0.15735136383E+03  0.16012773359E+03  0.10566000000E+00 0. -1.
         13    1    4    4    0    0 -0.93433599483E+01  0.74359340930E+01 -0.27910142185E+03  0.27935677249E+03  0.10566000000E+00 0. -1.
        -13    1    4    4    0    0 -0.70403451721E+01  0.67259925840E+01 -0.25657524045E+03  0.25675994745E+03  0.10566000000E+00 0.  1.
        -14    1    4    4    0    0 -0.63100675517E+01  0.49801966222E+01 -0.19795681681E+03  0.19811996526E+03  0.00000000000E+00 0.  1.
<mgrwt>
<rscale>  0 0.77677044E+02</rscale>
<asrwt>0</asrwt>
<pdfrwt beam="1">  1        1 0.13733418E+00 0.77677044E+02</pdfrwt>
<pdfrwt beam="2">  1       -2 0.25996808E-03 0.77677044E+02</pdfrwt>
<totfact> 0.21196389E+05</totfact>
</mgrwt>
</event>
<event>
 8    1  0.7756875E-014  0.8368056E+02  0.7818608E-02  0.1318920E+00
         -2   -1    0    0    0  501 -0.00000000000E+00  0.00000000000E+00  0.59647120262E+02  0.59647120316E+02  0.25500000000E-02 0.  1.
          1   -1    0    0  501    0  0.00000000000E+00 -0.00000000000E+00 -0.29349432981E+02  0.29349433414E+02  0.50400000000E-02 0. -1.
        -24    2    1    2    0    0  0.00000000000E+00  0.00000000000E+00  0.30297687280E+02  0.88996553731E+02  0.83680563582E+02 0.  0.
         66    2    3    3    0    0  0.36233765654E+02 -0.17007963222E+02  0.28027803093E+02  0.48905156590E+02  0.20000021190E+01 0.  0.
         13    1    3    3    0    0 -0.36233765654E+02  0.17007963222E+02  0.22698841871E+01  0.40091397140E+02  0.10566000000E+00 0. -1.
         13    1    4    4    0    0  0.11742804647E+02 -0.51007256167E+01  0.93868416460E+01  0.15875604648E+02  0.10566000000E+00 0. -1.
        -13    1    4    4    0    0  0.94976715691E+01 -0.53334126314E+01  0.76546247798E+01  0.13313733514E+02  0.10566000000E+00 0.  1.
        -14    1    4    4    0    0  0.14993289437E+02 -0.65738249740E+01  0.10986336667E+02  0.19715818429E+02  0.00000000000E+00 0.  1.
<mgrwt>
<rscale>  0 0.83680564E+02</rscale>
<asrwt>0</asrwt>
<pdfrwt beam="1">  1        1 0.45152975E-02 0.83680564E+02</pdfrwt>
<pdfrwt beam="2">  1       -2 0.91764800E-02 0.83680564E+02</pdfrwt>
<totfact> 0.10577334E+05</totfact>
</mgrwt>
</event>
<event>
 8    1  0.7756875E-014  0.7934058E+02  0.7818608E-02  0.1330933E+00
          1   -1    0    0  501    0  0.00000000000E+00  0.00000000000E+00  0.52794823679E+02  0.52794823919E+02  0.50400000000E-02 0. -1.
         -2   -1    0    0    0  501 -0.00000000000E+00 -0.00000000000E+00 -0.29808451971E+02  0.29808452080E+02  0.25500000000E-02 0.  1.
        -24    2    1    2    0    0 -0.35527136788E-14  0.17763568394E-14  0.22986371708E+02  0.82603275999E+02  0.79340581808E+02 0.  0.
         66    2    3    3    0    0 -0.15909960620E+02  0.12940012682E+02 -0.23823462494E+02  0.31498065725E+02  0.20000010220E+01 0.  0.
         13    1    3    3    0    0  0.15909960620E+02 -0.12940012682E+02  0.46809834202E+02  0.51105210274E+02  0.10566000000E+00 0. -1.
         13    1    4    4    0    0 -0.95542160604E+01  0.76568112821E+01 -0.13662118172E+02  0.18345965238E+02  0.10566000000E+00 0. -1.
        -13    1    4    4    0    0 -0.18742202441E+01  0.19152158322E+01 -0.25633640548E+01  0.37098183945E+01  0.10566000000E+00 0.  1.
         14    1    4    4    0    0 -0.44815243156E+01  0.33679855680E+01 -0.75979802675E+01  0.94422820930E+01  0.00000000000E+00 0. -1.
<mgrwt>
<rscale>  0 0.79340582E+02</rscale>
<asrwt>0</asrwt>
<pdfrwt beam="1">  1        1 0.81222805E-02 0.79340582E+02</pdfrwt>
<pdfrwt beam="2">  1       -2 0.45859158E-02 0.79340582E+02</pdfrwt>
<totfact> 0.13577919E+05</totfact>
</mgrwt>
</event>
<event>
 8    1  0.7756875E-014  0.7970575E+02  0.7818608E-02  0.1329889E+00
          1   -1    0    0  501    0  0.00000000000E+00  0.00000000000E+00  0.62829135269E+02  0.62829135471E+02  0.50400000000E-02 0. -1.
         -2   -1    0    0    0  501 -0.00000000000E+00 -0.00000000000E+00 -0.25278902212E+02  0.25278902341E+02  0.25500000000E-02 0.  1.
        -24    2    1    2    0    0 -0.88817841970E-15  0.00000000000E+00  0.37550233057E+02  0.88108037812E+02  0.79705748378E+02 0.  0.
         66    2    3    3    0    0  0.50784946909E+01 -0.24520410331E+02 -0.15448983361E+02  0.29490892401E+02  0.20000041557E+01 0.  0.
         13    1    3    3    0    0 -0.50784946909E+01  0.24520410331E+02  0.52999216418E+02  0.58617145411E+02  0.10566000000E+00 0. -1.
         13    1    4    4    0    0  0.23090094139E+01 -0.76330170481E+01 -0.45487175571E+01  0.91813108639E+01  0.10566000000E+00 0. -1.
        -13    1    4    4    0    0  0.19322632519E+01 -0.93023679852E+01 -0.62628872295E+01  0.11379921436E+02  0.10566000000E+00 0.  1.
         14    1    4    4    0    0  0.83722202522E+00 -0.75850252978E+01 -0.46373785742E+01  0.89296601014E+01  0.00000000000E+00 0. -1.
<mgrwt>
<rscale>  0 0.79705748E+02</rscale>
<asrwt>0</asrwt>
<pdfrwt beam="1">  1        1 0.96660208E-02 0.79705748E+02</pdfrwt>
<pdfrwt beam="2">  1       -2 0.38890619E-02 0.79705748E+02</pdfrwt>
<totfact> 0.13775434E+05</totfact>
</mgrwt>
</event>
<event>
 8    1  0.7756875E-014  0.7963836E+02  0.7818608E-02  0.1330081E+00
          1   -1    0    0  501    0  0.00000000000E+00  0.00000000000E+00  0.53568069279E+02  0.53568069516E+02  0.50400000000E-02 0. -1.
         -2   -1    0    0    0  501 -0.00000000000E+00 -0.00000000000E+00 -0.29599111686E+02  0.29599111796E+02  0.25500000000E-02 0.  1.
        -24    2    1    2    0    0  0.00000000000E+00  0.22204460493E-15  0.23968957592E+02  0.83167181312E+02  0.79638364620E+02 0.  0.
         66    2    3    3    0    0  0.33318241421E+02  0.14267535151E+01 -0.10682307270E+02  0.35074955770E+02  0.19999991602E+01 0.  0.
         13    1    3    3    0    0 -0.33318241421E+02 -0.14267535151E+01  0.34651264863E+02  0.48092225542E+02  0.10566000000E+00 0. -1.
         13    1    4    4    0    0  0.55871066170E+01  0.49672562725E+00 -0.17552610513E+01  0.58783162634E+01  0.10566000000E+00 0.  1.
        -13    1    4    4    0    0  0.55351915507E+01  0.76618198819E+00 -0.14415766023E+01  0.57718876876E+01  0.10566000000E+00 0. -1.
        -14    1    4    4    0    0  0.22195943253E+02  0.16384589970E+00 -0.74854696167E+01  0.23424751819E+02  0.00000000000E+00 0.  1.
<mgrwt>
<rscale>  0 0.79638365E+02</rscale>
<asrwt>0</asrwt>
<pdfrwt beam="1">  1        1 0.82412415E-02 0.79638365E+02</pdfrwt>
<pdfrwt beam="2">  1       -2 0.45537095E-02 0.79638365E+02</pdfrwt>
<totfact> 0.13468243E+05</totfact>
</mgrwt>
</event>
<event>
 8    1  0.7756875E-014  0.7931336E+02  0.7818608E-02  0.1331011E+00
          1   -1    0    0  501    0  0.00000000000E+00  0.00000000000E+00  0.41883293789E+01  0.41883324113E+01  0.50400000000E-02 0. -1.
         -2   -1    0    0    0  501 -0.00000000000E+00 -0.00000000000E+00 -0.37548420622E+03  0.37548420623E+03  0.25500000000E-02 0.  1.
        -24    2    1    2    0    0 -0.17763568394E-14 -0.33306690739E-15 -0.37129587684E+03  0.37967253864E+03  0.79313355988E+02 0.  0.
         66    2    3    3    0    0  0.10950769146E+02  0.84477398773E+00 -0.36804983835E+03  0.36821911479E+03  0.19999991341E+01 0.  0.
         13    1    3    3    0    0 -0.10950769146E+02 -0.84477398773E+00 -0.32460384866E+01  0.11453423849E+02  0.10566000000E+00 0. -1.
         13    1    4    4    0    0  0.82888487252E+01  0.77111471960E+00 -0.25856594990E+03  0.25869994442E+03  0.10566000000E+00 0. -1.
        -13    1    4    4    0    0  0.20804490675E+01 -0.21504657843E+00 -0.90364363947E+02  0.90388627320E+02  0.10566000000E+00 0.  1.
        -14    1    4    4    0    0  0.58147135319E+00  0.28870584655E+00 -0.19119524511E+02  0.19130543054E+02  0.00000000000E+00 0.  1.
<mgrwt>
<rscale>  0 0.79313356E+02</rscale>
<asrwt>0</asrwt>
<pdfrwt beam="1">  1        1 0.64435890E-03 0.79313356E+02</pdfrwt>
<pdfrwt beam="2">  1       -2 0.57766774E-01 0.79313356E+02</pdfrwt>
<totfact> 0.62955287E+04</totfact>
</mgrwt>
</event>
<event>
 8    1  0.7756875E-014  0.8324739E+02  0.7818608E-02  0.1320080E+00
          1   -1    0    0  501    0  0.00000000000E+00  0.00000000000E+00  0.90697788217E+02  0.90697788357E+02  0.50400000000E-02 0. -1.
         -2   -1    0    0    0  501 -0.00000000000E+00 -0.00000000000E+00 -0.19102251761E+02  0.19102251931E+02  0.25500000000E-02 0.  1.
        -24    2    1    2    0    0  0.35527136788E-14  0.00000000000E+00  0.71595536457E+02  0.10980004029E+03  0.83247390390E+02 0.  0.
         66    2    3    3    0    0  0.24459304109E+02  0.27435677326E+02  0.10122219588E+02  0.38176344498E+02  0.20000004950E+01 0.  0.
         13    1    3    3    0    0 -0.24459304109E+02 -0.27435677326E+02  0.61473316868E+02  0.71623695790E+02  0.10566000000E+00 0. -1.
         13    1    4    4    0    0  0.15761220565E+01  0.20490765752E+01  0.52172467960E+00  0.26393628445E+01  0.10566000000E+00 0. -1.
        -13    1    4    4    0    0  0.16120049836E+02  0.18551274867E+02  0.63100471367E+01  0.25373877607E+02  0.10566000000E+00 0.  1.
         14    1    4    4    0    0  0.67631322166E+01  0.68353258837E+01  0.32904477721E+01  0.10163104046E+02  0.00000000000E+00 0. -1.
<mgrwt>
<rscale>  0 0.83247390E+02</rscale>
<asrwt>0</asrwt>
<pdfrwt beam="1">  1        1 0.13953506E-01 0.83247390E+02</pdfrwt>
<pdfrwt beam="2">  1       -2 0.29388080E-02 0.83247390E+02</pdfrwt>
<totfact> 0.12979263E+05</totfact>
</mgrwt>
</event>
<event>
 8    1  0.7756875E-014  0.7813064E+02  0.7818608E-02  0.1334442E+00
         -2   -1    0    0    0  501 -0.00000000000E+00  0.00000000000E+00  0.14304168855E+02  0.14304169082E+02  0.25500000000E-02 0.  1.
          1   -1    0    0  501    0  0.00000000000E+00 -0.00000000000E+00 -0.10668912183E+03  0.10668912195E+03  0.50400000000E-02 0. -1.
        -24    2    1    2    0    0  0.00000000000E+00  0.00000000000E+00 -0.92384952975E+02  0.12099329103E+03  0.78130640201E+02 0.  0.
         66    2    3    3    0    0 -0.38658336534E+02  0.24886966828E+01 -0.38726127637E+02  0.54812166112E+02  0.19999993355E+01 0.  0.
         13    1    3    3    0    0  0.38658336534E+02 -0.24886966828E+01 -0.53658825338E+02  0.66181124918E+02  0.10566000000E+00 0. -1.
         13    1    4    4    0    0 -0.78325776479E+01  0.43154254363E+00 -0.68420291674E+01  0.10409612324E+02  0.10566000000E+00 0. -1.
        -13    1    4    4    0    0 -0.11523789181E+02  0.11098787211E+01 -0.11881998629E+02  0.16589834337E+02  0.10566000000E+00 0.  1.
        -14    1    4    4    0    0 -0.19301969705E+02  0.94727541803E+00 -0.20002099840E+02  0.27812719450E+02  0.00000000000E+00 0.  1.
<mgrwt>
<rscale>  0 0.78130640E+02</rscale>
<asrwt>0</asrwt>
<pdfrwt beam="1">  1        1 0.16413711E-01 0.78130640E+02</pdfrwt>
<pdfrwt beam="2">  1       -2 0.22006414E-02 0.78130640E+02</pdfrwt>
<totfact> 0.15838303E+05</totfact>
</mgrwt>
</event>
<event>
 8    1  0.7756875E-014  0.8143865E+02  0.7818608E-02  0.1325018E+00
          1   -1    0    0  501    0  0.00000000000E+00  0.00000000000E+00  0.37270189673E+02  0.37270190014E+02  0.50400000000E-02 0. -1.
         -2   -1    0    0    0  501 -0.00000000000E+00 -0.00000000000E+00 -0.44487661445E+02  0.44487661518E+02  0.25500000000E-02 0.  1.
        -24    2    1    2    0    0 -0.35527136788E-14  0.00000000000E+00 -0.72174717715E+01  0.81757851532E+02  0.81438654141E+02 0.  0.
         66    2    3    3    0    0  0.21154823950E+02 -0.33007748685E+02 -0.14563321080E+02  0.41870375857E+02  0.20000009856E+01 0.  0.
         13    1    3    3    0    0 -0.21154823950E+02  0.33007748685E+02  0.73458493080E+01  0.39887475675E+02  0.10566000000E+00 0. -1.
         13    1    4    4    0    0  0.84970099171E+01 -0.14713610264E+02 -0.67275935726E+01  0.18274604889E+02  0.10566000000E+00 0. -1.
        -13    1    4    4    0    0  0.11990302857E+02 -0.17312863354E+02 -0.72539684759E+01  0.22274061660E+02  0.10566000000E+00 0.  1.
        -14    1    4    4    0    0  0.66751117543E+00 -0.98127506707E+00 -0.58175903094E+00  0.13217093087E+01  0.00000000000E+00 0.  1.
<mgrwt>
<rscale>  0 0.81438654E+02</rscale>
<asrwt>0</asrwt>
<pdfrwt beam="1">  1        1 0.57338754E-02 0.81438654E+02</pdfrwt>
<pdfrwt beam="2">  1       -2 0.68442556E-02 0.81438654E+02</pdfrwt>
<totfact> 0.11932760E+05</totfact>
</mgrwt>
</event>
<event>
 8    1  0.7756875E-014  0.8010106E+02  0.7818608E-02  0.1328765E+00
         -2   -1    0    0    0  501 -0.00000000000E+00  0.00000000000E+00  0.17554250278E+02  0.17554250464E+02  0.25500000000E-02 0.  1.
          1   -1    0    0  501    0  0.00000000000E+00 -0.00000000000E+00 -0.91376444967E+02  0.91376445105E+02  0.50400000000E-02 0. -1.
        -24    2    1    2    0    0  0.00000000000E+00  0.00000000000E+00 -0.73822194688E+02  0.10893069557E+03  0.80101061220E+02 0.  0.
         66    2    3    3    0    0 -0.70283703310E+01 -0.14001315174E+02  0.13154538791E+02  0.20554238598E+02  0.20000043572E+01 0.  0.
         13    1    3    3    0    0  0.70283703310E+01  0.14001315174E+02 -0.86976733479E+02  0.88376456971E+02  0.10566000000E+00 0. -1.
         13    1    4    4    0    0 -0.31053197138E+01 -0.50703725126E+01  0.56487889932E+01  0.82019308134E+01  0.10566000000E+00 0. -1.
        -13    1    4    4    0    0 -0.29490213436E+01 -0.56999281906E+01  0.52630569907E+01  0.83004121094E+01  0.10566000000E+00 0.  1.
        -14    1    4    4    0    0 -0.97402927361E+00 -0.32310144706E+01  0.22426928069E+01  0.40518956750E+01  0.00000000000E+00 0.  1.
<mgrwt>
<rscale>  0 0.80101061E+02</rscale>
<asrwt>0</asrwt>
<pdfrwt beam="1">  1        1 0.14057914E-01 0.80101061E+02</pdfrwt>
<pdfrwt beam="2">  1       -2 0.27006540E-02 0.80101061E+02</pdfrwt>
<totfact> 0.14430441E+05</totfact>
</mgrwt>
</event>
<event>
 8    1  0.7756875E-014  0.8026088E+02  0.7818608E-02  0.1328313E+00
         -2   -1    0    0    0  501 -0.00000000000E+00  0.00000000000E+00  0.16892563139E+02  0.16892563331E+02  0.25500000000E-02 0.  1.
          1   -1    0    0  501    0  0.00000000000E+00 -0.00000000000E+00 -0.95334980076E+02  0.95334980209E+02  0.50400000000E-02 0. -1.
        -24    2    1    2    0    0 -0.35527136788E-14  0.35527136788E-14 -0.78442416937E+02  0.11222754354E+03  0.80260879351E+02 0.  0.
         66    2    3    3    0    0  0.30617255906E+02 -0.10449620684E+02 -0.61018359781E+01  0.32982469566E+02  0.19999911761E+01 0.  0.
         13    1    3    3    0    0 -0.30617255906E+02  0.10449620684E+02 -0.72340580959E+02  0.79245073974E+02  0.10566000000E+00 0. -1.
         13    1    4    4    0    0  0.12565752357E+02 -0.40391227338E+01 -0.18150877537E+01  0.13323601328E+02  0.10566000000E+00 0. -1.
        -13    1    4    4    0    0  0.17760009524E+02 -0.61604351646E+01 -0.42516587317E+01  0.19273211090E+02  0.10566000000E+00 0.  1.
         14    1    4    4    0    0  0.29149402552E+00 -0.25006278569E+00 -0.35089492727E-01  0.38565714852E+00  0.00000000000E+00 0. -1.
<mgrwt>
<rscale>  0 0.80260879E+02</rscale>
<asrwt>0</asrwt>
<pdfrwt beam="1">  1        1 0.14666920E-01 0.80260879E+02</pdfrwt>
<pdfrwt beam="2">  1       -2 0.25988559E-02 0.80260879E+02</pdfrwt>
<totfact> 0.14454109E+05</totfact>
</mgrwt>
</event>
<event>
 8    1  0.7756875E-014  0.7947899E+02  0.7818608E-02  0.1330537E+00
          1   -1    0    0  501    0  0.00000000000E+00  0.00000000000E+00  0.59924070759E+02  0.59924070971E+02  0.50400000000E-02 0. -1.
         -2   -1    0    0    0  501 -0.00000000000E+00 -0.00000000000E+00 -0.26353810669E+02  0.26353810792E+02  0.25500000000E-02 0.  1.
        -24    2    1    2    0    0  0.00000000000E+00  0.00000000000E+00  0.33570260090E+02  0.86277881763E+02  0.79478994199E+02 0.  0.
         66    2    3    3    0    0  0.23126440815E+02  0.15951593684E+02 -0.13675703951E+02  0.31309910288E+02  0.19999994549E+01 0.  0.
         13    1    3    3    0    0 -0.23126440815E+02 -0.15951593684E+02  0.47245964041E+02  0.54967971475E+02  0.10566000000E+00 0. -1.
         13    1    4    4    0    0  0.49871324229E+01  0.31890006999E+01 -0.37424155228E+01  0.70041454331E+01  0.10566000000E+00 0. -1.
        -13    1    4    4    0    0  0.16377578568E+02  0.11615956457E+02 -0.90936561410E+01  0.22042261005E+02  0.10566000000E+00 0.  1.
         14    1    4    4    0    0  0.17617298243E+01  0.11466365272E+01 -0.83963228757E+00  0.22635038497E+01  0.00000000000E+00 0. -1.
<mgrwt>
<rscale>  0 0.79478994E+02</rscale>
<asrwt>0</asrwt>
<pdfrwt beam="1">  1        1 0.92190878E-02 0.79478994E+02</pdfrwt>
<pdfrwt beam="2">  1       -2 0.40544324E-02 0.79478994E+02</pdfrwt>
<totfact> 0.13781652E+05</totfact>
</mgrwt>
</event>
<event>
 8    1  0.7756875E-014  0.7947525E+02  0.7818608E-02  0.1330547E+00
         -2   -1    0    0    0  501 -0.00000000000E+00  0.00000000000E+00  0.68283317101E+01  0.68283321862E+01  0.25500000000E-02 0.  1.
          1   -1    0    0  501    0  0.00000000000E+00 -0.00000000000E+00 -0.23125398745E+03  0.23125398750E+03  0.50400000000E-02 0. -1.
        -24    2    1    2    0    0  0.00000000000E+00  0.00000000000E+00 -0.22442565574E+03  0.23808231969E+03  0.79475253980E+02 0.  0.
         66    2    3    3    0    0  0.73898938494E+00 -0.36157617966E+02 -0.16143059153E+03  0.16544411541E+03  0.19999999711E+01 0.  0.
         13    1    3    3    0    0 -0.73898938494E+00  0.36157617966E+02 -0.62995064208E+02  0.72638204279E+02  0.10566000000E+00 0. -1.
         13    1    4    4    0    0  0.19282083934E+00 -0.10421630838E+02 -0.47258145491E+02  0.48394122045E+02  0.10566000000E+00 0.  1.
        -13    1    4    4    0    0  0.53158963139E+00 -0.11490387294E+02 -0.54489256965E+02  0.55690231427E+02  0.10566000000E+00 0. -1.
        -14    1    4    4    0    0  0.14578914209E-01 -0.14245599833E+02 -0.59683189075E+02  0.61359761940E+02  0.00000000000E+00 0.  1.
<mgrwt>
<rscale>  0 0.79475254E+02</rscale>
<asrwt>0</asrwt>
<pdfrwt beam="1">  1        1 0.35577531E-01 0.79475254E+02</pdfrwt>
<pdfrwt beam="2">  1       -2 0.10505128E-02 0.79475254E+02</pdfrwt>
<totfact> 0.17453895E+05</totfact>
</mgrwt>
</event>
<event>
 8    1  0.7756875E-014  0.7922818E+02  0.7818608E-02  0.1331256E+00
          1   -1    0    0  501    0  0.00000000000E+00  0.00000000000E+00  0.34447332778E+02  0.34447333146E+02  0.50400000000E-02 0. -1.
         -2   -1    0    0    0  501 -0.00000000000E+00 -0.00000000000E+00 -0.45555804860E+02  0.45555804932E+02  0.25500000000E-02 0.  1.
        -24    2    1    2    0    0  0.00000000000E+00  0.35527136788E-14 -0.11108472083E+02  0.80003138078E+02  0.79228176492E+02 0.  0.
         66    2    3    3    0    0 -0.75983730402E+01  0.31613463667E+02 -0.28364627184E+02  0.43193731524E+02  0.20000024538E+01 0.  0.
         13    1    3    3    0    0  0.75983730402E+01 -0.31613463667E+02  0.17256155101E+02  0.36809406553E+02  0.10566000000E+00 0. -1.
         13    1    4    4    0    0 -0.26894408028E+01  0.85798001757E+01 -0.78683304590E+01  0.11948550169E+02  0.10566000000E+00 0. -1.
        -13    1    4    4    0    0 -0.16548209432E+01  0.53823633112E+01 -0.47078644980E+01  0.73405326330E+01  0.10566000000E+00 0.  1.
        -14    1    4    4    0    0 -0.32541112942E+01  0.17651300181E+02 -0.15788432227E+02  0.23904648723E+02  0.00000000000E+00 0.  1.
<mgrwt>
<rscale>  0 0.79228176E+02</rscale>
<asrwt>0</asrwt>
<pdfrwt beam="1">  1        1 0.52995897E-02 0.79228176E+02</pdfrwt>
<pdfrwt beam="2">  1       -2 0.70085854E-02 0.79228176E+02</pdfrwt>
<totfact> 0.12733354E+05</totfact>
</mgrwt>
</event>
<event>
 8    1  0.7756875E-014  0.7972857E+02  0.7818608E-02  0.1329823E+00
         -2   -1    0    0    0  501 -0.00000000000E+00  0.00000000000E+00  0.76991561489E+02  0.76991561531E+02  0.25500000000E-02 0.  1.
          1   -1    0    0  501    0  0.00000000000E+00 -0.00000000000E+00 -0.20640717525E+02  0.20640718141E+02  0.50400000000E-02 0. -1.
        -24    2    1    2    0    0  0.00000000000E+00  0.00000000000E+00  0.56350843964E+02  0.97632279672E+02  0.79728567142E+02 0.  0.
         66    2    3    3    0    0 -0.18717721754E+02 -0.10946681567E+02  0.69119248155E+02  0.72468292416E+02  0.19999987874E+01 0.  0.
         13    1    3    3    0    0  0.18717721754E+02  0.10946681567E+02 -0.12768404191E+02  0.25163987256E+02  0.10566000000E+00 0. -1.
         13    1    4    4    0    0 -0.68413666335E+01 -0.44289451188E+01  0.25025301536E+02  0.26319132456E+02  0.10566000000E+00 0. -1.
        -13    1    4    4    0    0 -0.11264123228E+02 -0.65008150036E+01  0.42180754136E+02  0.44140324549E+02  0.10566000000E+00 0.  1.
        -14    1    4    4    0    0 -0.61223189252E+00 -0.16921444800E-01  0.19131924835E+01  0.20088354100E+01  0.00000000000E+00 0.  1.
<mgrwt>
<rscale>  0 0.79728567E+02</rscale>
<asrwt>0</asrwt>
<pdfrwt beam="1">  1        1 0.31754950E-02 0.79728567E+02</pdfrwt>
<pdfrwt beam="2">  1       -2 0.11844856E-01 0.79728567E+02</pdfrwt>
<totfact> 0.11365858E+05</totfact>
</mgrwt>
</event>
<event>
 8    1  0.7756875E-014  0.8969917E+02  0.7818608E-02  0.1303582E+00
          1   -1    0    0  501    0  0.00000000000E+00  0.00000000000E+00  0.24133155819E+02  0.24133156345E+02  0.50400000000E-02 0. -1.
         -2   -1    0    0    0  501 -0.00000000000E+00 -0.00000000000E+00 -0.83349440721E+02  0.83349440760E+02  0.25500000000E-02 0.  1.
        -24    2    1    2    0    0  0.00000000000E+00  0.35527136788E-14 -0.59216284903E+02  0.10748259710E+03  0.89699165452E+02 0.  0.
         66    2    3    3    0    0 -0.12203249623E+01  0.24432917025E+02 -0.74633633196E+02  0.78566123949E+02  0.20000002604E+01 0.  0.
         13    1    3    3    0    0  0.12203249623E+01 -0.24432917025E+02  0.15417348293E+02  0.28916473156E+02  0.10566000000E+00 0. -1.
         13    1    4    4    0    0 -0.73986380738E-01  0.27521648873E+01 -0.99740733576E+01  0.10347617548E+02  0.10566000000E+00 0. -1.
        -13    1    4    4    0    0 -0.38704269644E+00  0.11223699894E+02 -0.35255752339E+02  0.37001357791E+02  0.10566000000E+00 0.  1.
         14    1    4    4    0    0 -0.75929588515E+00  0.10457052244E+02 -0.29403807499E+02  0.31217148610E+02  0.00000000000E+00 0. -1.
<mgrwt>
<rscale>  0 0.89699165E+02</rscale>
<asrwt>0</asrwt>
<pdfrwt beam="1">  1        1 0.37127933E-02 0.89699165E+02</pdfrwt>
<pdfrwt beam="2">  1       -2 0.12822991E-01 0.89699165E+02</pdfrwt>
<totfact> 0.82686935E+04</totfact>
</mgrwt>
</event>
<event>
 8    1  0.7756875E-014  0.8144510E+02  0.7818608E-02  0.1325000E+00
          1   -1    0    0  501    0  0.00000000000E+00  0.00000000000E+00  0.86215994439E+01  0.86216009171E+01  0.50400000000E-02 0. -1.
         -2   -1    0    0    0  501 -0.00000000000E+00 -0.00000000000E+00 -0.19234549688E+03  0.19234549689E+03  0.25500000000E-02 0.  1.
        -24    2    1    2    0    0  0.35527136788E-14  0.71054273576E-14 -0.18372389743E+03  0.20096709781E+03  0.81445097548E+02 0.  0.
         66    2    3    3    0    0  0.19004297931E+02  0.35956836168E+02 -0.88204754406E+02  0.97150070037E+02  0.20000003341E+01 0.  0.
         13    1    3    3    0    0 -0.19004297931E+02 -0.35956836168E+02 -0.95519143027E+02  0.10381702777E+03  0.10566000000E+00 0. -1.
         13    1    4    4    0    0  0.55025123418E+01  0.90687990500E+01 -0.22060944146E+02  0.24478912944E+02  0.10566000000E+00 0. -1.
        -13    1    4    4    0    0  0.35565485050E+01  0.65901396296E+01 -0.15716585388E+02  0.17409801777E+02  0.10566000000E+00 0.  1.
         14    1    4    4    0    0  0.99452370844E+01  0.20297897489E+02 -0.50427224872E+02  0.55261355316E+02  0.00000000000E+00 0. -1.
<mgrwt>
<rscale>  0 0.81445098E+02</rscale>
<asrwt>0</asrwt>
<pdfrwt beam="1">  1        1 0.13264002E-02 0.81445098E+02</pdfrwt>
<pdfrwt beam="2">  1       -2 0.29591612E-01 0.81445098E+02</pdfrwt>
<totfact> 0.82513481E+04</totfact>
</mgrwt>
</event>
<event>
 8    1  0.7756875E-014  0.7656377E+02  0.7818608E-02  0.1339096E+00
         -2   -1    0    0    0  501 -0.00000000000E+00  0.00000000000E+00  0.71098941732E+01  0.71098946305E+01  0.25500000000E-02 0.  1.
          1   -1    0    0  501    0  0.00000000000E+00 -0.00000000000E+00 -0.20612158755E+03  0.20612158761E+03  0.50400000000E-02 0. -1.
        -24    2    1    2    0    0 -0.35527136788E-14 -0.35527136788E-14 -0.19901169338E+03  0.21323148224E+03  0.76563770273E+02 0.  0.
         66    2    3    3    0    0  0.19267906501E+02  0.29700246282E+02 -0.59201265859E+02  0.69008309149E+02  0.20000005574E+01 0.  0.
         13    1    3    3    0    0 -0.19267906501E+02 -0.29700246282E+02 -0.13981042752E+03  0.14422317309E+03  0.10566000000E+00 0. -1.
         13    1    4    4    0    0  0.11781166647E+02  0.19003970944E+02 -0.37660743192E+02  0.43798282398E+02  0.10566000000E+00 0. -1.
        -13    1    4    4    0    0  0.62387576895E+01  0.90929824717E+01 -0.17448372696E+02  0.20641252421E+02  0.10566000000E+00 0.  1.
         14    1    4    4    0    0  0.12479821635E+01  0.16032928670E+01 -0.40921499701E+01  0.45687743297E+01  0.00000000000E+00 0. -1.
<mgrwt>
<rscale>  0 0.76563770E+02</rscale>
<asrwt>0</asrwt>
<pdfrwt beam="1">  1        1 0.31711009E-01 0.76563770E+02</pdfrwt>
<pdfrwt beam="2">  1       -2 0.10938301E-02 0.76563770E+02</pdfrwt>
<totfact> 0.18838748E+05</totfact>
</mgrwt>
</event>
<event>
 8    1  0.7756875E-014  0.7925628E+02  0.7818608E-02  0.1331175E+00
         -2   -1    0    0    0  501 -0.00000000000E+00  0.00000000000E+00  0.27181723634E+02  0.27181723754E+02  0.25500000000E-02 0.  1.
          1   -1    0    0  501    0  0.00000000000E+00 -0.00000000000E+00 -0.57773731414E+02  0.57773731634E+02  0.50400000000E-02 0. -1.
        -24    2    1    2    0    0 -0.17763568394E-14  0.00000000000E+00 -0.30592007780E+02  0.84955455388E+02  0.79256283411E+02 0.  0.
         66    2    3    3    0    0 -0.14731534680E+02  0.15647011877E+02  0.20350942318E+02  0.29664927959E+02  0.20000007101E+01 0.  0.
         13    1    3    3    0    0  0.14731534680E+02 -0.15647011877E+02 -0.50942950098E+02  0.55290527429E+02  0.10566000000E+00 0. -1.
         13    1    4    4    0    0 -0.42889536461E+00  0.92630523971E+00  0.82879965740E+00  0.13191154379E+01  0.10566000000E+00 0. -1.
        -13    1    4    4    0    0 -0.10458182788E+02  0.10283626867E+02  0.14395203237E+02  0.20551389467E+02  0.10566000000E+00 0.  1.
        -14    1    4    4    0    0 -0.38444565282E+01  0.44370797699E+01  0.51269394234E+01  0.77944230533E+01  0.00000000000E+00 0.  1.
<mgrwt>
<rscale>  0 0.79256283E+02</rscale>
<asrwt>0</asrwt>
<pdfrwt beam="1">  1        1 0.88882664E-02 0.79256283E+02</pdfrwt>
<pdfrwt beam="2">  1       -2 0.41818037E-02 0.79256283E+02</pdfrwt>
<totfact> 0.13809951E+05</totfact>
</mgrwt>
</event>
<event>
 8    1  0.7756875E-014  0.7954188E+02  0.7818608E-02  0.1330357E+00
          1   -1    0    0  501    0  0.00000000000E+00  0.00000000000E+00  0.20805514059E+02  0.20805514669E+02  0.50400000000E-02 0. -1.
         -2   -1    0    0    0  501 -0.00000000000E+00 -0.00000000000E+00 -0.76024444039E+02  0.76024444082E+02  0.25500000000E-02 0.  1.
        -24    2    1    2    0    0  0.00000000000E+00  0.00000000000E+00 -0.55218929980E+02  0.96829958751E+02  0.79541880061E+02 0.  0.
         66    2    3    3    0    0 -0.11853744322E+02 -0.16804353665E+02 -0.69031391844E+02  0.72057134460E+02  0.20000025421E+01 0.  0.
         13    1    3    3    0    0  0.11853744322E+02  0.16804353665E+02  0.13812461864E+02  0.24772824290E+02  0.10566000000E+00 0. -1.
         13    1    4    4    0    0 -0.46472847625E+01 -0.61231823983E+01 -0.23090647919E+02  0.24336799373E+02  0.10566000000E+00 0. -1.
        -13    1    4    4    0    0 -0.69582272425E+01 -0.10406483392E+02 -0.44086657453E+02  0.45829644908E+02  0.10566000000E+00 0.  1.
         14    1    4    4    0    0 -0.24823231693E+00 -0.27468787482E+00 -0.18540864713E+01  0.18906901794E+01  0.00000000000E+00 0. -1.
<mgrwt>
<rscale>  0 0.79541880E+02</rscale>
<asrwt>0</asrwt>
<pdfrwt beam="1">  1        1 0.32008484E-02 0.79541880E+02</pdfrwt>
<pdfrwt beam="2">  1       -2 0.11696068E-01 0.79541880E+02</pdfrwt>
<totfact> 0.11464331E+05</totfact>
</mgrwt>
</event>
<event>
 8    1  0.7756875E-014  0.8184349E+02  0.7818608E-02  0.1323900E+00
          1   -1    0    0  501    0  0.00000000000E+00  0.00000000000E+00  0.43082890877E+03  0.43082890880E+03  0.50400000000E-02 0. -1.
         -2   -1    0    0    0  501 -0.00000000000E+00 -0.00000000000E+00 -0.38869002307E+01  0.38869010672E+01  0.25500000000E-02 0.  1.
        -24    2    1    2    0    0  0.71054273576E-14  0.00000000000E+00  0.42694200854E+03  0.43471580987E+03  0.81843489005E+02 0.  0.
         66    2    3    3    0    0  0.40407971507E+02  0.48545246473E+01  0.19221056291E+03  0.19648224107E+03  0.19999976162E+01 0.  0.
         13    1    3    3    0    0 -0.40407971507E+02 -0.48545246473E+01  0.23473144563E+03  0.23823356880E+03  0.10566000000E+00 0. -1.
         13    1    4    4    0    0  0.29851831374E+00 -0.82719700842E-01  0.14341955507E+01  0.14710664995E+01  0.10566000000E+00 0.  1.
        -13    1    4    4    0    0  0.30616877197E+01  0.51925856696E+00  0.15195677001E+02  0.15510103955E+02  0.10566000000E+00 0. -1.
        -14    1    4    4    0    0  0.37047765473E+02  0.44179857812E+01  0.17558069036E+03  0.17950107062E+03  0.00000000000E+00 0.  1.
<mgrwt>
<rscale>  0 0.81843489E+02</rscale>
<asrwt>0</asrwt>
<pdfrwt beam="1">  1        1 0.66281336E-01 0.81843489E+02</pdfrwt>
<pdfrwt beam="2">  1       -2 0.59798503E-03 0.81843489E+02</pdfrwt>
<totfact> 0.18100449E+05</totfact>
</mgrwt>
</event>
<event>
 8    1  0.7756875E-014  0.7881933E+02  0.7818608E-02  0.1332436E+00
          1   -1    0    0  501    0  0.00000000000E+00  0.00000000000E+00  0.15033893515E+03  0.15033893524E+03  0.50400000000E-02 0. -1.
         -2   -1    0    0    0  501 -0.00000000000E+00 -0.00000000000E+00 -0.10330801973E+02  0.10330802287E+02  0.25500000000E-02 0.  1.
        -24    2    1    2    0    0  0.00000000000E+00  0.35527136788E-14  0.14000813318E+03  0.16066973752E+03  0.78819332652E+02 0.  0.
         66    2    3    3    0    0  0.28412335919E+02 -0.23076606254E+02  0.40415846576E+02  0.54564010518E+02  0.20000001947E+01 0.  0.
         13    1    3    3    0    0 -0.28412335919E+02  0.23076606254E+02  0.99592286604E+02  0.10610572701E+03  0.10566000000E+00 0. -1.
         13    1    4    4    0    0  0.33385065771E+01 -0.32968978790E+01  0.54859960123E+01  0.72195898826E+01  0.10566000000E+00 0. -1.
        -13    1    4    4    0    0  0.10288210889E+02 -0.82441030867E+01  0.13561571253E+02  0.18914013267E+02  0.10566000000E+00 0.  1.
        -14    1    4    4    0    0  0.14785618454E+02 -0.11535605288E+02  0.21368279311E+02  0.28430407368E+02  0.00000000000E+00 0.  1.
<mgrwt>
<rscale>  0 0.78819333E+02</rscale>
<asrwt>0</asrwt>
<pdfrwt beam="1">  1        1 0.23129068E-01 0.78819333E+02</pdfrwt>
<pdfrwt beam="2">  1       -2 0.15893541E-02 0.78819333E+02</pdfrwt>
<totfact> 0.16434573E+05</totfact>
</mgrwt>
</event>
<event>
 8    1  0.7756875E-014  0.8036810E+02  0.7818608E-02  0.1328010E+00
         -2   -1    0    0    0  501 -0.00000000000E+00  0.00000000000E+00  0.12535307463E+03  0.12535307465E+03  0.25500000000E-02 0.  1.
          1   -1    0    0  501    0  0.00000000000E+00 -0.00000000000E+00 -0.12881677053E+02  0.12881678039E+02  0.50400000000E-02 0. -1.
        -24    2    1    2    0    0  0.35527136788E-14  0.00000000000E+00  0.11247139757E+03  0.13823475269E+03  0.80368100510E+02 0.  0.
         66    2    3    3    0    0 -0.26773100020E+02 -0.16008292165E+02  0.99773291766E+02  0.10455512446E+03  0.19999995852E+01 0.  0.
         13    1    3    3    0    0  0.26773100020E+02  0.16008292165E+02  0.12698105807E+02  0.33679628232E+02  0.10566000000E+00 0. -1.
         13    1    4    4    0    0 -0.74746855066E+01 -0.47775245849E+01  0.30688952444E+02  0.31945557292E+02  0.10566000000E+00 0. -1.
        -13    1    4    4    0    0 -0.12055487346E+02 -0.65149335199E+01  0.41778842988E+02  0.43968875575E+02  0.10566000000E+00 0.  1.
         14    1    4    4    0    0 -0.72429271669E+01 -0.47158340599E+01  0.27305496334E+02  0.28640691592E+02  0.00000000000E+00 0. -1.
<mgrwt>
<rscale>  0 0.80368101E+02</rscale>
<asrwt>0</asrwt>
<pdfrwt beam="1">  1        1 0.19817964E-02 0.80368101E+02</pdfrwt>
<pdfrwt beam="2">  1       -2 0.19285090E-01 0.80368101E+02</pdfrwt>
<totfact> 0.98723888E+04</totfact>
</mgrwt>
</event>
<event>
 8    1  0.7756875E-014  0.8004249E+02  0.7818608E-02  0.1328931E+00
          1   -1    0    0  501    0  0.00000000000E+00  0.00000000000E+00  0.23672874554E+02  0.23672875090E+02  0.50400000000E-02 0. -1.
         -2   -1    0    0    0  501 -0.00000000000E+00 -0.00000000000E+00 -0.67659723491E+02  0.67659723539E+02  0.25500000000E-02 0.  1.
        -24    2    1    2    0    0 -0.35527136788E-14  0.00000000000E+00 -0.43986848937E+02  0.91332598629E+02  0.80042493045E+02 0.  0.
         66    2    3    3    0    0 -0.23544560046E+02  0.23387509267E+02 -0.47480264275E+02  0.57962896619E+02  0.19999978479E+01 0.  0.
         13    1    3    3    0    0  0.23544560046E+02 -0.23387509267E+02  0.34934153379E+01  0.33369702010E+02  0.10566000000E+00 0. -1.
         13    1    4    4    0    0 -0.25881082500E+01  0.29082740274E+01 -0.54681936432E+01  0.67133201836E+01  0.10566000000E+00 0. -1.
        -13    1    4    4    0    0 -0.57503324957E+01  0.60073028526E+01 -0.13196573033E+02  0.15598548497E+02  0.10566000000E+00 0.  1.
        -14    1    4    4    0    0 -0.15206119300E+02  0.14471932387E+02 -0.28815497600E+02  0.35651027939E+02  0.00000000000E+00 0.  1.
<mgrwt>
<rscale>  0 0.80042493E+02</rscale>
<asrwt>0</asrwt>
<pdfrwt beam="1">  1        1 0.36419808E-02 0.80042493E+02</pdfrwt>
<pdfrwt beam="2">  1       -2 0.10409188E-01 0.80042493E+02</pdfrwt>
<totfact> 0.11553627E+05</totfact>
</mgrwt>
</event>
<event>
 8    1  0.7756875E-014  0.7960323E+02  0.7818608E-02  0.1330181E+00
         -2   -1    0    0    0  501 -0.00000000000E+00  0.00000000000E+00  0.12275969566E+03  0.12275969568E+03  0.25500000000E-02 0.  1.
          1   -1    0    0  501    0  0.00000000000E+00 -0.00000000000E+00 -0.12904629637E+02  0.12904630621E+02  0.50400000000E-02 0. -1.
        -24    2    1    2    0    0  0.00000000000E+00  0.00000000000E+00  0.10985506602E+03  0.13566432631E+03  0.79603227959E+02 0.  0.
         66    2    3    3    0    0  0.22922221778E+02 -0.30277219663E+02  0.75128963016E+02  0.84205102878E+02  0.19999962806E+01 0.  0.
         13    1    3    3    0    0 -0.22922221778E+02  0.30277219663E+02  0.34726103004E+02  0.51459223427E+02  0.10566000000E+00 0. -1.
         13    1    4    4    0    0  0.91068627505E+01 -0.11294132344E+02  0.27401161108E+02  0.31005276465E+02  0.10566000000E+00 0. -1.
        -13    1    4    4    0    0  0.49689988787E+01 -0.62923851690E+01  0.15482069260E+02  0.17435328892E+02  0.10566000000E+00 0.  1.
         14    1    4    4    0    0  0.88463601489E+01 -0.12690702151E+02  0.32245732647E+02  0.35764497521E+02  0.00000000000E+00 0. -1.
<mgrwt>
<rscale>  0 0.79603228E+02</rscale>
<asrwt>0</asrwt>
<pdfrwt beam="1">  1        1 0.19853277E-02 0.79603228E+02</pdfrwt>
<pdfrwt beam="2">  1       -2 0.18886108E-01 0.79603228E+02</pdfrwt>
<totfact> 0.10178828E+05</totfact>
</mgrwt>
</event>
<event>
 8    1  0.7756875E-014  0.8206152E+02  0.7818608E-02  0.1323301E+00
         -2   -1    0    0    0  501 -0.00000000000E+00  0.00000000000E+00  0.87596521964E+01  0.87596525675E+01  0.25500000000E-02 0.  1.
          1   -1    0    0  501    0  0.00000000000E+00 -0.00000000000E+00 -0.19219064334E+03  0.19219064340E+03  0.50400000000E-02 0. -1.
        -24    2    1    2    0    0  0.00000000000E+00  0.00000000000E+00 -0.18343099114E+03  0.20095029597E+03  0.82061519239E+02 0.  0.
         66    2    3    3    0    0  0.52073473817E+01 -0.28005267146E+02 -0.19536867816E+02  0.34599142445E+02  0.19999998031E+01 0.  0.
         13    1    3    3    0    0 -0.52073473817E+01  0.28005267146E+02 -0.16389412333E+03  0.16635115353E+03  0.10566000000E+00 0. -1.
         13    1    4    4    0    0  0.91974807769E+00 -0.65733973775E+01 -0.40395348955E+01  0.77707461557E+01  0.10566000000E+00 0. -1.
        -13    1    4    4    0    0  0.35768429048E+01 -0.19716025365E+02 -0.14328659588E+02  0.24634064037E+02  0.10566000000E+00 0.  1.
        -14    1    4    4    0    0  0.71075639921E+00 -0.17158444040E+01 -0.11686733326E+01  0.21943322529E+01  0.00000000000E+00 0.  1.
<mgrwt>
<rscale>  0 0.82061519E+02</rscale>
<asrwt>0</asrwt>
<pdfrwt beam="1">  1        1 0.29567788E-01 0.82061519E+02</pdfrwt>
<pdfrwt beam="2">  1       -2 0.13476390E-02 0.82061519E+02</pdfrwt>
<totfact> 0.15462702E+05</totfact>
</mgrwt>
</event>
<event>
 8    1  0.7756875E-014  0.8208429E+02  0.7818608E-02  0.1323238E+00
         -2   -1    0    0    0  501 -0.00000000000E+00  0.00000000000E+00  0.35377207884E+02  0.35377207975E+02  0.25500000000E-02 0.  1.
          1   -1    0    0  501    0  0.00000000000E+00 -0.00000000000E+00 -0.47614201866E+02  0.47614202133E+02  0.50400000000E-02 0. -1.
        -24    2    1    2    0    0 -0.71054273576E-14  0.17763568394E-14 -0.12236993982E+02  0.82991410108E+02  0.82084286742E+02 0.  0.
         66    2    3    3    0    0  0.37564132609E+02 -0.11402512554E+02  0.58992400291E+01  0.39747734278E+02  0.19999990326E+01 0.  0.
         13    1    3    3    0    0 -0.37564132609E+02  0.11402512554E+02 -0.18136234012E+02  0.43243675830E+02  0.10566000000E+00 0. -1.
         13    1    4    4    0    0  0.21787694073E+02 -0.66688624244E+01  0.32083166887E+01  0.23010471509E+02  0.10566000000E+00 0. -1.
        -13    1    4    4    0    0  0.11175985302E+02 -0.27517042890E+01  0.18971165601E+01  0.11665536389E+02  0.10566000000E+00 0.  1.
         14    1    4    4    0    0  0.46004532334E+01 -0.19819458402E+01  0.79380678031E+00  0.50717263797E+01  0.00000000000E+00 0. -1.
<mgrwt>
<rscale>  0 0.82084287E+02</rscale>
<asrwt>0</asrwt>
<pdfrwt beam="1">  1        1 0.73252619E-02 0.82084287E+02</pdfrwt>
<pdfrwt beam="2">  1       -2 0.54426474E-02 0.82084287E+02</pdfrwt>
<totfact> 0.12150452E+05</totfact>
</mgrwt>
</event>
<event>
 8    1  0.7756875E-014  0.8001032E+02  0.7818608E-02  0.1329022E+00
          1   -1    0    0  501    0  0.00000000000E+00  0.00000000000E+00  0.30830542426E+02  0.30830542838E+02  0.50400000000E-02 0. -1.
         -2   -1    0    0    0  501 -0.00000000000E+00 -0.00000000000E+00 -0.51909981243E+02  0.51909981306E+02  0.25500000000E-02 0.  1.
        -24    2    1    2    0    0 -0.35527136788E-14 -0.35527136788E-14 -0.21079438817E+02  0.82740524144E+02  0.80010321801E+02 0.  0.
         66    2    3    3    0    0 -0.20333132088E+02 -0.24431442932E+02 -0.35624066191E+02  0.47784995058E+02  0.19999991232E+01 0.  0.
         13    1    3    3    0    0  0.20333132088E+02  0.24431442932E+02  0.14544627374E+02  0.34955529086E+02  0.10566000000E+00 0. -1.
         13    1    4    4    0    0 -0.17781397881E+01 -0.26935947280E+01 -0.33222979346E+01  0.46331480946E+01  0.10566000000E+00 0. -1.
        -13    1    4    4    0    0 -0.13546218871E+02 -0.16339821936E+02 -0.23200978493E+02  0.31444974061E+02  0.10566000000E+00 0.  1.
         14    1    4    4    0    0 -0.50087734283E+01 -0.53980262675E+01 -0.91007897629E+01  0.11706872902E+02  0.00000000000E+00 0. -1.
<mgrwt>
<rscale>  0 0.80010322E+02</rscale>
<asrwt>0</asrwt>
<pdfrwt beam="1">  1        1 0.47431604E-02 0.80010322E+02</pdfrwt>
<pdfrwt beam="2">  1       -2 0.79861510E-02 0.80010322E+02</pdfrwt>
<totfact> 0.12148643E+05</totfact>
</mgrwt>
</event>
<event>
 8    1  0.7756875E-014  0.8039076E+02  0.7818608E-02  0.1327946E+00
          1   -1    0    0  501    0  0.00000000000E+00  0.00000000000E+00  0.31980161549E+01  0.31980201264E+01  0.50400000000E-02 0. -1.
         -2   -1    0    0    0  501 -0.00000000000E+00 -0.00000000000E+00 -0.50520929346E+03  0.50520929347E+03  0.25500000000E-02 0.  1.
        -24    2    1    2    0    0  0.35527136788E-14 -0.88817841970E-15 -0.50201127731E+03  0.50840731360E+03  0.80390758009E+02 0.  0.
         66    2    3    3    0    0 -0.18131268964E+02  0.64758665937E+01 -0.47412643437E+03  0.47452139628E+03  0.20000000499E+01 0.  0.
         13    1    3    3    0    0  0.18131268964E+02 -0.64758665937E+01 -0.27884842938E+02  0.33885917312E+02  0.10566000000E+00 0. -1.
         13    1    4    4    0    0 -0.26280785621E+01  0.41967789819E+00 -0.55472972591E+02  0.55536877645E+02  0.10566000000E+00 0. -1.
        -13    1    4    4    0    0 -0.11106498995E+02  0.40894601054E+01 -0.29710191842E+03  0.29733758440E+03  0.10566000000E+00 0.  1.
         14    1    4    4    0    0 -0.43966914061E+01  0.19667285901E+01 -0.12155154336E+03  0.12164693424E+03  0.00000000000E+00 0. -1.
<mgrwt>
<rscale>  0 0.80390758E+02</rscale>
<asrwt>0</asrwt>
<pdfrwt beam="1">  1        1 0.49200319E-03 0.80390758E+02</pdfrwt>
<pdfrwt beam="2">  1       -2 0.77724443E-01 0.80390758E+02</pdfrwt>
<totfact> 0.49362248E+04</totfact>
</mgrwt>
</event>
<event>
 8    1  0.7756875E-014  0.8059004E+02  0.7818608E-02  0.1327385E+00
          1   -1    0    0  501    0  0.00000000000E+00  0.00000000000E+00  0.76646542315E+02  0.76646542481E+02  0.50400000000E-02 0. -1.
         -2   -1    0    0    0  501 -0.00000000000E+00 -0.00000000000E+00 -0.21184106129E+02  0.21184106282E+02  0.25500000000E-02 0.  1.
        -24    2    1    2    0    0  0.00000000000E+00  0.35527136788E-14  0.55462436187E+02  0.97830648763E+02  0.80590036665E+02 0.  0.
         66    2    3    3    0    0 -0.17358482362E+02 -0.18291002445E+02 -0.10366166985E+02  0.27337430366E+02  0.20000001828E+01 0.  0.
         13    1    3    3    0    0  0.17358482362E+02  0.18291002445E+02  0.65828603172E+02  0.70493218396E+02  0.10566000000E+00 0. -1.
         13    1    4    4    0    0 -0.34205680304E+01 -0.28843103871E+01 -0.13133977819E+01  0.46643016443E+01  0.10566000000E+00 0. -1.
        -13    1    4    4    0    0 -0.91706992601E+01 -0.96479886506E+01 -0.57767715004E+01  0.14510949760E+02  0.10566000000E+00 0.  1.
         14    1    4    4    0    0 -0.47672150710E+01 -0.57587034072E+01 -0.32759977027E+01  0.81621789624E+01  0.00000000000E+00 0. -1.
<mgrwt>
<rscale>  0 0.80590037E+02</rscale>
<asrwt>0</asrwt>
<pdfrwt beam="1">  1        1 0.11791776E-01 0.80590037E+02</pdfrwt>
<pdfrwt beam="2">  1       -2 0.32590933E-02 0.80590037E+02</pdfrwt>
<totfact> 0.13792827E+05</totfact>
</mgrwt>
</event>
<event>
 8    1  0.7756875E-014  0.7876742E+02  0.7818608E-02  0.1332586E+00
          1   -1    0    0  501    0  0.00000000000E+00  0.00000000000E+00  0.24387310001E+03  0.24387310007E+03  0.50400000000E-02 0. -1.
         -2   -1    0    0    0  501 -0.00000000000E+00 -0.00000000000E+00 -0.63601791668E+01  0.63601796780E+01  0.25500000000E-02 0.  1.
        -24    2    1    2    0    0 -0.35527136788E-14  0.35527136788E-14  0.23751292085E+03  0.25023327974E+03  0.78767421705E+02 0.  0.
         66    2    3    3    0    0 -0.22334516190E+02  0.29279269601E+02  0.74702369147E+02  0.83309964564E+02  0.19999994142E+01 0.  0.
         13    1    3    3    0    0  0.22334516190E+02 -0.29279269601E+02  0.16281055170E+03  0.16692331518E+03  0.10566000000E+00 0. -1.
         13    1    4    4    0    0 -0.19884864309E+01  0.21656377458E+01  0.58568588673E+01  0.65542371760E+01  0.10566000000E+00 0. -1.
        -13    1    4    4    0    0 -0.98488348588E+01  0.14460235098E+02  0.35699878510E+02  0.39756640160E+02  0.10566000000E+00 0.  1.
        -14    1    4    4    0    0 -0.10497194901E+02  0.12653396756E+02  0.33145631770E+02  0.36999087227E+02  0.00000000000E+00 0.  1.
<mgrwt>
<rscale>  0 0.78767422E+02</rscale>
<asrwt>0</asrwt>
<pdfrwt beam="1">  1        1 0.37518944E-01 0.78767422E+02</pdfrwt>
<pdfrwt beam="2">  1       -2 0.97848899E-03 0.78767422E+02</pdfrwt>
<totfact> 0.18057349E+05</totfact>
</mgrwt>
</event>
<event>
 8    1  0.7756875E-014  0.8066595E+02  0.7818608E-02  0.1327172E+00
          1   -1    0    0  501    0  0.00000000000E+00  0.00000000000E+00  0.26055345976E+02  0.26055346464E+02  0.50400000000E-02 0. -1.
         -2   -1    0    0    0  501 -0.00000000000E+00 -0.00000000000E+00 -0.62434362731E+02  0.62434362783E+02  0.25500000000E-02 0.  1.
        -24    2    1    2    0    0  0.00000000000E+00  0.00000000000E+00 -0.36379016755E+02  0.88489709247E+02  0.80665951817E+02 0.  0.
         66    2    3    3    0    0 -0.21454817167E+02  0.34123751197E+02 -0.18273411827E+02  0.44301886612E+02  0.20000005366E+01 0.  0.
         13    1    3    3    0    0  0.21454817167E+02 -0.34123751197E+02 -0.18105604928E+02  0.44187822635E+02  0.10566000000E+00 0. -1.
         13    1    4    4    0    0 -0.19500264768E+01  0.33337948698E+01 -0.12733590272E+01  0.40680952228E+01  0.10566000000E+00 0. -1.
        -13    1    4    4    0    0 -0.17859103430E+02  0.27830577864E+02 -0.15122661048E+02  0.36361995006E+02  0.10566000000E+00 0.  1.
        -14    1    4    4    0    0 -0.16456872602E+01  0.29593784630E+01 -0.18773917510E+01  0.38717963831E+01  0.00000000000E+00 0.  1.
<mgrwt>
<rscale>  0 0.80665952E+02</rscale>
<asrwt>0</asrwt>
<pdfrwt beam="1">  1        1 0.40085148E-02 0.80665952E+02</pdfrwt>
<pdfrwt beam="2">  1       -2 0.96052866E-02 0.80665952E+02</pdfrwt>
<totfact> 0.11506549E+05</totfact>
</mgrwt>
</event>
<event>
 8    1  0.7756875E-014  0.8069770E+02  0.7818608E-02  0.1327083E+00
          1   -1    0    0  501    0  0.00000000000E+00  0.00000000000E+00  0.78134864589E+02  0.78134864751E+02  0.50400000000E-02 0. -1.
         -2   -1    0    0    0  501 -0.00000000000E+00 -0.00000000000E+00 -0.20836150602E+02  0.20836150759E+02  0.25500000000E-02 0.  1.
        -24    2    1    2    0    0  0.35527136788E-14  0.00000000000E+00  0.57298713986E+02  0.98971015510E+02  0.80697703106E+02 0.  0.
         66    2    3    3    0    0 -0.28003600606E+02  0.52728071195E+01 -0.63247572243E+01  0.29257592163E+02  0.20000008584E+01 0.  0.
         13    1    3    3    0    0  0.28003600606E+02 -0.52728071195E+01  0.63623471211E+02  0.69713423347E+02  0.10566000000E+00 0. -1.
         13    1    4    4    0    0 -0.89866174560E+01  0.24282275703E+01 -0.19044087006E+01  0.95022901960E+01  0.10566000000E+00 0. -1.
        -13    1    4    4    0    0 -0.79971477548E+01  0.15542913134E+01 -0.22140352699E+01  0.84429443863E+01  0.10566000000E+00 0.  1.
         14    1    4    4    0    0 -0.11019835395E+02  0.12902882358E+01 -0.22063132538E+01  0.11312357581E+02  0.00000000000E+00 0. -1.
<mgrwt>
<rscale>  0 0.80697703E+02</rscale>
<asrwt>0</asrwt>
<pdfrwt beam="1">  1        1 0.12020748E-01 0.80697703E+02</pdfrwt>
<pdfrwt beam="2">  1       -2 0.32055617E-02 0.80697703E+02</pdfrwt>
<totfact> 0.13785295E+05</totfact>
</mgrwt>
</event>
<event>
 8    1  0.7756875E-014  0.8043320E+02  0.7818608E-02  0.1327827E+00
         -2   -1    0    0    0  501 -0.00000000000E+00  0.00000000000E+00  0.28740023653E+02  0.28740023766E+02  0.25500000000E-02 0.  1.
          1   -1    0    0  501    0  0.00000000000E+00 -0.00000000000E+00 -0.56276045051E+02  0.56276045277E+02  0.50400000000E-02 0. -1.
        -24    2    1    2    0    0  0.71054273576E-14  0.00000000000E+00 -0.27536021398E+02  0.85016069043E+02  0.80433199122E+02 0.  0.
         66    2    3    3    0    0 -0.32455352392E+02 -0.68204198025E+01  0.10221818631E+02  0.34761380974E+02  0.20000014675E+01 0.  0.
         13    1    3    3    0    0  0.32455352392E+02  0.68204198025E+01 -0.37757840030E+02  0.50254688069E+02  0.10566000000E+00 0. -1.
         13    1    4    4    0    0 -0.10273623152E+02 -0.17846549930E+01  0.38809399531E+01  0.11126777839E+02  0.10566000000E+00 0. -1.
        -13    1    4    4    0    0 -0.10071619049E+02 -0.27785441879E+01  0.30234439319E+01  0.10877049017E+02  0.10566000000E+00 0.  1.
        -14    1    4    4    0    0 -0.12110110192E+02 -0.22572206216E+01  0.33174347464E+01  0.12757554118E+02  0.00000000000E+00 0.  1.
<mgrwt>
<rscale>  0 0.80433199E+02</rscale>
<asrwt>0</asrwt>
<pdfrwt beam="1">  1        1 0.86578531E-02 0.80433199E+02</pdfrwt>
<pdfrwt beam="2">  1       -2 0.44215421E-02 0.80433199E+02</pdfrwt>
<totfact> 0.13204601E+05</totfact>
</mgrwt>
</event>
<event>
 8    1  0.7756875E-014  0.8019816E+02  0.7818608E-02  0.1328490E+00
          1   -1    0    0  501    0  0.00000000000E+00  0.00000000000E+00  0.26535533572E+03  0.26535533576E+03  0.50400000000E-02 0. -1.
         -2   -1    0    0    0  501 -0.00000000000E+00 -0.00000000000E+00 -0.60595581236E+01  0.60595586602E+01  0.25500000000E-02 0.  1.
        -24    2    1    2    0    0  0.00000000000E+00 -0.71054273576E-14  0.25929577759E+03  0.27141489442E+03  0.80198158570E+02 0.  0.
         66    2    3    3    0    0 -0.23774902195E+02 -0.32214132818E+02  0.13552609788E+03  0.14133053292E+03  0.20000003726E+01 0.  0.
         13    1    3    3    0    0  0.23774902195E+02  0.32214132818E+02  0.12376967971E+03  0.13008436150E+03  0.10566000000E+00 0. -1.
         13    1    4    4    0    0 -0.59606571944E+01 -0.73979179906E+01  0.32852103102E+02  0.34198398604E+02  0.10566000000E+00 0. -1.
        -13    1    4    4    0    0 -0.48178499884E+01 -0.68922353873E+01  0.30559846287E+02  0.31695898099E+02  0.10566000000E+00 0.  1.
         14    1    4    4    0    0 -0.12996395012E+02 -0.17923979440E+02  0.72114148493E+02  0.75436236221E+02  0.00000000000E+00 0. -1.
<mgrwt>
<rscale>  0 0.80198159E+02</rscale>
<asrwt>0</asrwt>
<pdfrwt beam="1">  1        1 0.40823903E-01 0.80198159E+02</pdfrwt>
<pdfrwt beam="2">  1       -2 0.93223963E-03 0.80198159E+02</pdfrwt>
<totfact> 0.17504294E+05</totfact>
</mgrwt>
</event>
<event>
 8    1  0.7756875E-014  0.7761009E+02  0.7818608E-02  0.1335974E+00
          1   -1    0    0  501    0  0.00000000000E+00  0.00000000000E+00  0.10136044109E+02  0.10136045362E+02  0.50400000000E-02 0. -1.
         -2   -1    0    0    0  501 -0.00000000000E+00 -0.00000000000E+00 -0.14856204387E+03  0.14856204390E+03  0.25500000000E-02 0.  1.
        -24    2    1    2    0    0  0.71054273576E-14 -0.71054273576E-14 -0.13842599977E+03  0.15869808926E+03  0.77610090344E+02 0.  0.
         66    2    3    3    0    0  0.25040229631E+02 -0.29124418643E+02 -0.58326875910E+02  0.69866081132E+02  0.19999945045E+01 0.  0.
         13    1    3    3    0    0 -0.25040229631E+02  0.29124418643E+02 -0.80099123855E+02  0.88832008126E+02  0.10566000000E+00 0. -1.
         13    1    4    4    0    0  0.84081168961E+01 -0.10107483642E+02 -0.20525347717E+02  0.24375371141E+02  0.10566000000E+00 0. -1.
        -13    1    4    4    0    0  0.47829385241E+00 -0.27015807409E+00 -0.90375698744E+00  0.10628692874E+01  0.10566000000E+00 0.  1.
        -14    1    4    4    0    0  0.16153818883E+02 -0.18746776928E+02 -0.36897771205E+02  0.44427840703E+02  0.00000000000E+00 0.  1.
<mgrwt>
<rscale>  0 0.77610090E+02</rscale>
<asrwt>0</asrwt>
<pdfrwt beam="1">  1        1 0.15593916E-02 0.77610090E+02</pdfrwt>
<pdfrwt beam="2">  1       -2 0.22855698E-01 0.77610090E+02</pdfrwt>
<totfact> 0.10249830E+05</totfact>
</mgrwt>
</event>
<event>
 8    1  0.7756875E-014  0.7994040E+02  0.7818608E-02  0.1329221E+00
         -2   -1    0    0    0  501 -0.00000000000E+00  0.00000000000E+00  0.28108721135E+02  0.28108721251E+02  0.25500000000E-02 0.  1.
          1   -1    0    0  501    0  0.00000000000E+00 -0.00000000000E+00 -0.56837059173E+02  0.56837059397E+02  0.50400000000E-02 0. -1.
        -24    2    1    2    0    0  0.00000000000E+00  0.00000000000E+00 -0.28728338038E+02  0.84945780648E+02  0.79940404323E+02 0.  0.
         66    2    3    3    0    0 -0.29526811585E+02 -0.23088647255E+02  0.30070717531E+00  0.37536763947E+02  0.19999970874E+01 0.  0.
         13    1    3    3    0    0  0.29526811585E+02  0.23088647255E+02 -0.29029045213E+02  0.47409016700E+02  0.10566000000E+00 0. -1.
         13    1    4    4    0    0 -0.14653487700E+02 -0.10967881613E+02 -0.49216320654E+00  0.18310448315E+02  0.10566000000E+00 0.  1.
        -13    1    4    4    0    0 -0.76112641857E+01 -0.59003462838E+01  0.80190085903E+00  0.96643488036E+01  0.10566000000E+00 0.  1.
        -14    1    4    4    0    0 -0.72620596993E+01 -0.62204193586E+01 -0.90304771801E-02  0.95619668281E+01  0.00000000000E+00 0.  1.
<mgrwt>
<rscale>  0 0.79940404E+02</rscale>
<asrwt>0</asrwt>
<pdfrwt beam="1">  1        1 0.87441630E-02 0.79940404E+02</pdfrwt>
<pdfrwt beam="2">  1       -2 0.43244187E-02 0.79940404E+02</pdfrwt>
<totfact> 0.13451862E+05</totfact>
</mgrwt>
</event>
<event>
 8    1  0.7756875E-014  0.8284431E+02  0.7818608E-02  0.1321168E+00
         -2   -1    0    0    0  501 -0.00000000000E+00  0.00000000000E+00  0.28875503097E+03  0.28875503098E+03  0.25500000000E-02 0.  1.
          1   -1    0    0  501    0  0.00000000000E+00 -0.00000000000E+00 -0.59420421320E+01  0.59420442694E+01  0.50400000000E-02 0. -1.
        -24    2    1    2    0    0  0.00000000000E+00  0.35527136788E-14  0.28281298884E+03  0.29469707525E+03  0.82844308832E+02 0.  0.
         66    2    3    3    0    0 -0.31074346428E+02 -0.26829250741E+02  0.16043450390E+03  0.16561598275E+03  0.19999998944E+01 0.  0.
         13    1    3    3    0    0  0.31074346428E+02  0.26829250741E+02  0.12237848494E+03  0.12908109250E+03  0.10566000000E+00 0. -1.
         13    1    4    4    0    0 -0.94242415792E+01 -0.89060278991E+01  0.51673643422E+02  0.53275794230E+02  0.10566000000E+00 0. -1.
        -13    1    4    4    0    0 -0.10278452646E+02 -0.87197967925E+01  0.54429877829E+02  0.56074095707E+02  0.10566000000E+00 0.  1.
         14    1    4    4    0    0 -0.11371652203E+02 -0.92034260491E+01  0.54330982646E+02  0.56266092810E+02  0.00000000000E+00 0. -1.
<mgrwt>
<rscale>  0 0.82844309E+02</rscale>
<asrwt>0</asrwt>
<pdfrwt beam="1">  1        1 0.91416038E-03 0.82844309E+02</pdfrwt>
<pdfrwt beam="2">  1       -2 0.44423856E-01 0.82844309E+02</pdfrwt>
<totfact> 0.65527733E+04</totfact>
</mgrwt>
</event>
<event>
 8    1  0.7756875E-014  0.8006043E+02  0.7818608E-02  0.1328880E+00
          1   -1    0    0  501    0  0.00000000000E+00  0.00000000000E+00  0.18133794469E+02  0.18133795170E+02  0.50400000000E-02 0. -1.
         -2   -1    0    0    0  501 -0.00000000000E+00 -0.00000000000E+00 -0.88366400523E+02  0.88366400559E+02  0.25500000000E-02 0.  1.
        -24    2    1    2    0    0  0.88817841970E-15 -0.71054273576E-14 -0.70232606053E+02  0.10650019573E+03  0.80060431783E+02 0.  0.
         66    2    3    3    0    0 -0.41969933289E+01  0.37204439925E+02 -0.53886066055E+02  0.65646730306E+02  0.19999954255E+01 0.  0.
         13    1    3    3    0    0  0.41969933289E+01 -0.37204439925E+02 -0.16346539998E+02  0.40853465423E+02  0.10566000000E+00 0. -1.
         13    1    4    4    0    0 -0.31276033002E+01  0.24214856886E+02 -0.33688875674E+02  0.41606402207E+02  0.10566000000E+00 0. -1.
        -13    1    4    4    0    0 -0.56509502422E+00  0.68109483353E+01 -0.10276520118E+02  0.12342057340E+02  0.10566000000E+00 0.  1.
         14    1    4    4    0    0 -0.50429500457E+00  0.61786347041E+01 -0.99206702632E+01  0.11698270758E+02  0.00000000000E+00 0. -1.
<mgrwt>
<rscale>  0 0.80060432E+02</rscale>
<asrwt>0</asrwt>
<pdfrwt beam="1">  1        1 0.27898147E-02 0.80060432E+02</pdfrwt>
<pdfrwt beam="2">  1       -2 0.13594831E-01 0.80060432E+02</pdfrwt>
<totfact> 0.10909982E+05</totfact>
</mgrwt>
</event>
<event>
 8    1  0.7756875E-014  0.8510455E+02  0.7818608E-02  0.1315159E+00
          1   -1    0    0  501    0  0.00000000000E+00  0.00000000000E+00  0.53357714753E+02  0.53357714991E+02  0.50400000000E-02 0. -1.
         -2   -1    0    0    0  501 -0.00000000000E+00 -0.00000000000E+00 -0.33935037865E+02  0.33935037961E+02  0.25500000000E-02 0.  1.
        -24    2    1    2    0    0  0.00000000000E+00 -0.22204460493E-15  0.19422676888E+02  0.87292752953E+02  0.85104549470E+02 0.  0.
         66    2    3    3    0    0  0.28868523109E+02  0.19921525749E+01 -0.22250835971E+02  0.36557625709E+02  0.19999994316E+01 0.  0.
         13    1    3    3    0    0 -0.28868523109E+02 -0.19921525749E+01  0.41673512859E+02  0.50735127243E+02  0.10566000000E+00 0. -1.
         13    1    4    4    0    0  0.58664883349E+01  0.11329782126E+01 -0.48093328512E+01  0.76707347447E+01  0.10566000000E+00 0. -1.
        -13    1    4    4    0    0  0.13319717531E+02  0.78218063401E+00 -0.99511242466E+01  0.16645201094E+02  0.10566000000E+00 0.  1.
         14    1    4    4    0    0  0.96823172426E+01  0.76993728251E-01 -0.74903788733E+01  0.12241689871E+02  0.00000000000E+00 0. -1.
<mgrwt>
<rscale>  0 0.85104549E+02</rscale>
<asrwt>0</asrwt>
<pdfrwt beam="1">  1        1 0.82088793E-02 0.85104549E+02</pdfrwt>
<pdfrwt beam="2">  1       -2 0.52207751E-02 0.85104549E+02</pdfrwt>
<totfact> 0.11187311E+05</totfact>
</mgrwt>
</event>
<event>
 8    1  0.7756875E-014  0.7884027E+02  0.7818608E-02  0.1332375E+00
          1   -1    0    0  501    0  0.00000000000E+00  0.00000000000E+00  0.17170176390E+01  0.17170250360E+01  0.50400000000E-02 0. -1.
         -2   -1    0    0    0  501 -0.00000000000E+00 -0.00000000000E+00 -0.90502487548E+03  0.90502487548E+03  0.25500000000E-02 0.  1.
        -24    2    1    2    0    0  0.00000000000E+00  0.00000000000E+00 -0.90330785784E+03  0.90674190052E+03  0.78840269663E+02 0.  0.
         66    2    3    3    0    0 -0.28207893686E+02  0.15340639084E+02 -0.71443921243E+03  0.71516320426E+03  0.20000022147E+01 0.  0.
         13    1    3    3    0    0  0.28207893686E+02 -0.15340639084E+02 -0.18886864541E+03  0.19157869625E+03  0.10566000000E+00 0. -1.
         13    1    4    4    0    0 -0.64735709907E+01  0.38087862610E+01 -0.15182538063E+03  0.15201108953E+03  0.10566000000E+00 0. -1.
        -13    1    4    4    0    0 -0.19005851641E+02  0.10312465877E+02 -0.49069889058E+03  0.49117510292E+03  0.10566000000E+00 0.  1.
        -14    1    4    4    0    0 -0.27284710547E+01  0.12193869456E+01 -0.71914941218E+02  0.71977011811E+02  0.00000000000E+00 0.  1.
<mgrwt>
<rscale>  0 0.78840270E+02</rscale>
<asrwt>0</asrwt>
<pdfrwt beam="1">  1        1 0.26415785E-03 0.78840270E+02</pdfrwt>
<pdfrwt beam="2">  1       -2 0.13923422E+00 0.78840270E+02</pdfrwt>
<totfact> 0.30306204E+04</totfact>
</mgrwt>
</event>
<event>
 8    1  0.7756875E-014  0.7982835E+02  0.7818608E-02  0.1329539E+00
         -2   -1    0    0    0  501 -0.00000000000E+00  0.00000000000E+00  0.43340169389E+03  0.43340169390E+03  0.25500000000E-02 0.  1.
          1   -1    0    0  501    0  0.00000000000E+00 -0.00000000000E+00 -0.36758984708E+01  0.36759019260E+01  0.50400000000E-02 0. -1.
        -24    2    1    2    0    0  0.00000000000E+00  0.00000000000E+00  0.42972579542E+03  0.43707759583E+03  0.79828350366E+02 0.  0.
         66    2    3    3    0    0  0.25397887329E+02 -0.14848485883E+02  0.36248375802E+03  0.36368118603E+03  0.20000064682E+01 0.  0.
         13    1    3    3    0    0 -0.25397887329E+02  0.14848485883E+02  0.67242037402E+02  0.73396409802E+02  0.10566000000E+00 0. -1.
         13    1    4    4    0    0  0.10290121133E+02 -0.63953437899E+01  0.14340520857E+03  0.14391612843E+03  0.10566000000E+00 0. -1.
        -13    1    4    4    0    0  0.10476956839E+02 -0.54354153719E+01  0.14344269007E+03  0.14392750558E+03  0.10566000000E+00 0.  1.
        -14    1    4    4    0    0  0.46308093572E+01 -0.30177267213E+01  0.75635859387E+02  0.75837552012E+02  0.00000000000E+00 0.  1.
<mgrwt>
<rscale>  0 0.79828350E+02</rscale>
<asrwt>0</asrwt>
<pdfrwt beam="1">  1        1 0.56552333E-03 0.79828350E+02</pdfrwt>
<pdfrwt beam="2">  1       -2 0.66677157E-01 0.79828350E+02</pdfrwt>
<totfact> 0.56264427E+04</totfact>
</mgrwt>
</event>
<event>
 8    1  0.7756875E-014  0.7959279E+02  0.7818608E-02  0.1330211E+00
         -2   -1    0    0    0  501 -0.00000000000E+00  0.00000000000E+00  0.89070162878E+01  0.89070166528E+01  0.25500000000E-02 0.  1.
          1   -1    0    0  501    0  0.00000000000E+00 -0.00000000000E+00 -0.17780961398E+03  0.17780961405E+03  0.50400000000E-02 0. -1.
        -24    2    1    2    0    0  0.00000000000E+00  0.00000000000E+00 -0.16890259769E+03  0.18671663071E+03  0.79592792855E+02 0.  0.
         66    2    3    3    0    0  0.37782566481E+02 -0.97551027586E+01 -0.66475535380E+02  0.77108243171E+02  0.20000002744E+01 0.  0.
         13    1    3    3    0    0 -0.37782566481E+02  0.97551027586E+01 -0.10242706231E+03  0.10960838753E+03  0.10566000000E+00 0. -1.
         13    1    4    4    0    0  0.12320763797E+02 -0.40301911915E+01 -0.21600576059E+02  0.25192056520E+02  0.10566000000E+00 0. -1.
        -13    1    4    4    0    0  0.93015577035E+01 -0.23015740888E+01 -0.16945736319E+02  0.19467546390E+02  0.10566000000E+00 0.  1.
         14    1    4    4    0    0  0.16160244981E+02 -0.34233374783E+01 -0.27929223001E+02  0.32448640261E+02  0.00000000000E+00 0. -1.
<mgrwt>
<rscale>  0 0.79592793E+02</rscale>
<asrwt>0</asrwt>
<pdfrwt beam="1">  1        1 0.27355323E-01 0.79592793E+02</pdfrwt>
<pdfrwt beam="2">  1       -2 0.13703104E-02 0.79592793E+02</pdfrwt>
<totfact> 0.16522981E+05</totfact>
</mgrwt>
</event>
<event>
 8    1  0.7756875E-014  0.7939658E+02  0.7818608E-02  0.1330773E+00
          1   -1    0    0  501    0  0.00000000000E+00  0.00000000000E+00  0.12269261838E+03  0.12269261849E+03  0.50400000000E-02 0. -1.
         -2   -1    0    0    0  501 -0.00000000000E+00 -0.00000000000E+00 -0.12844734879E+02  0.12844735132E+02  0.25500000000E-02 0.  1.
        -24    2    1    2    0    0 -0.44408920985E-15 -0.35527136788E-14  0.10984788350E+03  0.13553735362E+03  0.79396578740E+02 0.  0.
         66    2    3    3    0    0 -0.21344255791E+01 -0.31837249072E+02  0.14713887887E+02  0.35194668350E+02  0.19999956212E+01 0.  0.
         13    1    3    3    0    0  0.21344255791E+01  0.31837249072E+02  0.95133995617E+02  0.10034268527E+03  0.10566000000E+00 0. -1.
         13    1    4    4    0    0 -0.13347695214E+01 -0.16883110170E+02  0.82730408289E+01  0.18848750284E+02  0.10566000000E+00 0.  1.
        -13    1    4    4    0    0  0.69156184732E-01 -0.66638368550E+01  0.33094631225E+01  0.74414524391E+01  0.10566000000E+00 0. -1.
         14    1    4    4    0    0 -0.86881224237E+00 -0.82903020469E+01  0.31313839359E+01  0.89044656266E+01  0.00000000000E+00 0. -1.
<mgrwt>
<rscale>  0 0.79396579E+02</rscale>
<asrwt>0</asrwt>
<pdfrwt beam="1">  1        1 0.18875787E-01 0.79396579E+02</pdfrwt>
<pdfrwt beam="2">  1       -2 0.19761132E-02 0.79396579E+02</pdfrwt>
<totfact> 0.15538361E+05</totfact>
</mgrwt>
</event>
<event>
 8    1  0.7756875E-014  0.7989956E+02  0.7818608E-02  0.1329337E+00
         -2   -1    0    0    0  501 -0.00000000000E+00  0.00000000000E+00  0.12198521965E+02  0.12198522231E+02  0.25500000000E-02 0.  1.
          1   -1    0    0  501    0  0.00000000000E+00 -0.00000000000E+00 -0.13083428142E+03  0.13083428152E+03  0.50400000000E-02 0. -1.
        -24    2    1    2    0    0  0.00000000000E+00  0.00000000000E+00 -0.11863575946E+03  0.14303280375E+03  0.79899558989E+02 0.  0.
         66    2    3    3    0    0 -0.26915592556E+02  0.29454328327E+02 -0.56840205812E+02  0.69475287518E+02  0.19999997757E+01 0.  0.
         13    1    3    3    0    0  0.26915592556E+02 -0.29454328327E+02 -0.61795553644E+02  0.73557516231E+02  0.10566000000E+00 0. -1.
         13    1    4    4    0    0 -0.12180666645E+02  0.13323858635E+02 -0.24656156190E+02  0.30558649364E+02  0.10566000000E+00 0. -1.
        -13    1    4    4    0    0 -0.12302436000E+02  0.12794327302E+02 -0.26205107890E+02  0.31650649065E+02  0.10566000000E+00 0.  1.
        -14    1    4    4    0    0 -0.24324899106E+01  0.33361423895E+01 -0.59789417317E+01  0.72659890888E+01  0.00000000000E+00 0.  1.
<mgrwt>
<rscale>  0 0.79899559E+02</rscale>
<asrwt>0</asrwt>
<pdfrwt beam="1">  1        1 0.20128350E-01 0.79899559E+02</pdfrwt>
<pdfrwt beam="2">  1       -2 0.18766958E-02 0.79899559E+02</pdfrwt>
<totfact> 0.15452670E+05</totfact>
</mgrwt>
</event>
<event>
 8    1  0.7756875E-014  0.7776895E+02  0.7818608E-02  0.1335505E+00
         -2   -1    0    0    0  501 -0.00000000000E+00  0.00000000000E+00  0.11551809038E+03  0.11551809041E+03  0.25500000000E-02 0.  1.
          1   -1    0    0  501    0  0.00000000000E+00 -0.00000000000E+00 -0.13088878478E+02  0.13088879448E+02  0.50400000000E-02 0. -1.
        -24    2    1    2    0    0 -0.35527136788E-14  0.35527136788E-14  0.10242921190E+03  0.12860696986E+03  0.77768947818E+02 0.  0.
         66    2    3    3    0    0  0.23051862362E+02 -0.26995014002E+02  0.77389401912E+02  0.85165947911E+02  0.20000039798E+01 0.  0.
         13    1    3    3    0    0 -0.23051862362E+02  0.26995014002E+02  0.25039809992E+02  0.43441021947E+02  0.10566000000E+00 0. -1.
         13    1    4    4    0    0  0.10045120703E+02 -0.11788905530E+02  0.32245232675E+02  0.35772181061E+02  0.10566000000E+00 0. -1.
        -13    1    4    4    0    0  0.32405337750E+01 -0.31342829585E+01  0.96439034238E+01  0.10646164854E+02  0.10566000000E+00 0.  1.
        -14    1    4    4    0    0  0.97662078838E+01 -0.12071825514E+02  0.35500265813E+02  0.38747601996E+02  0.00000000000E+00 0.  1.
<mgrwt>
<rscale>  0 0.77768948E+02</rscale>
<asrwt>0</asrwt>
<pdfrwt beam="1">  1        1 0.20136737E-02 0.77768948E+02</pdfrwt>
<pdfrwt beam="2">  1       -2 0.17772014E-01 0.77768948E+02</pdfrwt>
<totfact> 0.10990345E+05</totfact>
</mgrwt>
</event>
<event>
 8    1  0.7756875E-014  0.7938771E+02  0.7818608E-02  0.1330798E+00
         -2   -1    0    0    0  501 -0.00000000000E+00  0.00000000000E+00  0.77000943184E+02  0.77000943226E+02  0.25500000000E-02 0.  1.
          1   -1    0    0  501    0  0.00000000000E+00 -0.00000000000E+00 -0.20462111737E+02  0.20462112358E+02  0.50400000000E-02 0. -1.
        -24    2    1    2    0    0  0.00000000000E+00 -0.44408920985E-15  0.56538831447E+02  0.97463055583E+02  0.79387705234E+02 0.  0.
         66    2    3    3    0    0  0.20211872388E+02  0.36681521261E+01  0.69949462082E+02  0.72930805309E+02  0.19999980376E+01 0.  0.
         13    1    3    3    0    0 -0.20211872388E+02 -0.36681521261E+01 -0.13410630635E+02  0.24532250274E+02  0.10566000000E+00 0. -1.
         13    1    4    4    0    0  0.26597233516E+00  0.81885572239E-01  0.13611813739E+01  0.13933503861E+01  0.10566000000E+00 0. -1.
        -13    1    4    4    0    0  0.64379045858E+01  0.10360367145E+01  0.24718651991E+02  0.25564485283E+02  0.10566000000E+00 0.  1.
        -14    1    4    4    0    0  0.13507995467E+02  0.25502298394E+01  0.43869628717E+02  0.45972969640E+02  0.00000000000E+00 0.  1.
<mgrwt>
<rscale>  0 0.79387705E+02</rscale>
<asrwt>0</asrwt>
<pdfrwt beam="1">  1        1 0.31480172E-02 0.79387705E+02</pdfrwt>
<pdfrwt beam="2">  1       -2 0.11846299E-01 0.79387705E+02</pdfrwt>
<totfact> 0.11490209E+05</totfact>
</mgrwt>
</event>
<event>
 8    1  0.7756875E-014  0.8561637E+02  0.7818608E-02  0.1313828E+00
          1   -1    0    0  501    0  0.00000000000E+00  0.00000000000E+00  0.37476652248E+02  0.37476652587E+02  0.50400000000E-02 0. -1.
         -2   -1    0    0    0  501 -0.00000000000E+00 -0.00000000000E+00 -0.48898199460E+02  0.48898199526E+02  0.25500000000E-02 0.  1.
        -24    2    1    2    0    0  0.00000000000E+00  0.00000000000E+00 -0.11421547212E+02  0.86374852114E+02  0.85616373066E+02 0.  0.
         66    2    3    3    0    0  0.26112873786E+02 -0.29420988949E+01 -0.39776848133E+02  0.47715152456E+02  0.20000007998E+01 0.  0.
         13    1    3    3    0    0 -0.26112873786E+02  0.29420988949E+01  0.28355300921E+02  0.38659699658E+02  0.10566000000E+00 0. -1.
         13    1    4    4    0    0  0.52285087669E+00 -0.96610423627E-01 -0.11449568991E+01  0.12668058058E+01  0.10566000000E+00 0. -1.
        -13    1    4    4    0    0  0.18972890704E+02 -0.18741723424E+01 -0.27520602288E+02  0.33479513407E+02  0.10566000000E+00 0.  1.
        -14    1    4    4    0    0  0.66171322061E+01 -0.97131612885E+00 -0.11111288945E+02  0.12968833243E+02  0.00000000000E+00 0.  1.
<mgrwt>
<rscale>  0 0.85616373E+02</rscale>
<asrwt>0</asrwt>
<pdfrwt beam="1">  1        1 0.57656388E-02 0.85616373E+02</pdfrwt>
<pdfrwt beam="2">  1       -2 0.75227999E-02 0.85616373E+02</pdfrwt>
<totfact> 0.10354849E+05</totfact>
</mgrwt>
</event>
<event>
 8    1  0.7756875E-014  0.7983777E+02  0.7818608E-02  0.1329512E+00
          1   -1    0    0  501    0  0.00000000000E+00  0.00000000000E+00  0.96126123819E+02  0.96126123951E+02  0.50400000000E-02 0. -1.
         -2   -1    0    0    0  501 -0.00000000000E+00 -0.00000000000E+00 -0.16577360211E+02  0.16577360408E+02  0.25500000000E-02 0.  1.
        -24    2    1    2    0    0  0.00000000000E+00  0.00000000000E+00  0.79548763608E+02  0.11270348436E+03  0.79837770479E+02 0.  0.
         66    2    3    3    0    0  0.23309033779E+02  0.46084714612E+01 -0.54390427883E+01  0.24456742408E+02  0.19999994623E+01 0.  0.
         13    1    3    3    0    0 -0.23309033779E+02 -0.46084714612E+01  0.84987806396E+02  0.88246741951E+02  0.10566000000E+00 0. -1.
         13    1    4    4    0    0  0.65888256536E+01  0.18647904944E+01 -0.13662027879E+01  0.69833903782E+01  0.10566000000E+00 0. -1.
        -13    1    4    4    0    0  0.48527811451E+01  0.13776027410E+01 -0.12781189659E+01  0.52050001230E+01  0.10566000000E+00 0.  1.
         14    1    4    4    0    0  0.11867426980E+02  0.13660782258E+01 -0.27947210346E+01  0.12268351907E+02  0.00000000000E+00 0. -1.
<mgrwt>
<rscale>  0 0.79837770E+02</rscale>
<asrwt>0</asrwt>
<pdfrwt beam="1">  1        1 0.14788635E-01 0.79837770E+02</pdfrwt>
<pdfrwt beam="2">  1       -2 0.25503630E-02 0.79837770E+02</pdfrwt>
<totfact> 0.14682594E+05</totfact>
</mgrwt>
</event>
<event>
 8    1  0.7756875E-014  0.8134343E+02  0.7818608E-02  0.1325282E+00
         -2   -1    0    0    0  501 -0.00000000000E+00  0.00000000000E+00  0.18142531543E+02  0.18142531723E+02  0.25500000000E-02 0.  1.
          1   -1    0    0  501    0  0.00000000000E+00 -0.00000000000E+00 -0.91177364764E+02  0.91177364904E+02  0.50400000000E-02 0. -1.
        -24    2    1    2    0    0  0.00000000000E+00  0.00000000000E+00 -0.73034833221E+02  0.10931989663E+03  0.81343425885E+02 0.  0.
         66    2    3    3    0    0 -0.12585080748E+02  0.25652882215E+02  0.23122128221E+01  0.28736752391E+02  0.19999966121E+01 0.  0.
         13    1    3    3    0    0  0.12585080748E+02 -0.25652882215E+02 -0.75347046043E+02  0.80583144235E+02  0.10566000000E+00 0. -1.
         13    1    4    4    0    0 -0.52843196582E+01  0.90964173624E+01  0.53889069913E+00  0.10534249394E+02  0.10566000000E+00 0. -1.
        -13    1    4    4    0    0 -0.11949270478E+01  0.30683318036E+01  0.61580582906E+00  0.33515506205E+01  0.10566000000E+00 0.  1.
         14    1    4    4    0    0 -0.61058340421E+01  0.13488133049E+02  0.11575162939E+01  0.14850952376E+02  0.00000000000E+00 0. -1.
<mgrwt>
<rscale>  0 0.81343426E+02</rscale>
<asrwt>0</asrwt>
<pdfrwt beam="1">  1        1 0.14027287E-01 0.81343426E+02</pdfrwt>
<pdfrwt beam="2">  1       -2 0.27911588E-02 0.81343426E+02</pdfrwt>
<totfact> 0.13835072E+05</totfact>
</mgrwt>
</event>
<event>
 8    1  0.7756875E-014  0.7475794E+02  0.7818608E-02  0.1344622E+00
         -2   -1    0    0    0  501 -0.00000000000E+00  0.00000000000E+00  0.64159045971E+02  0.64159046022E+02  0.25500000000E-02 0.  1.
          1   -1    0    0  501    0  0.00000000000E+00 -0.00000000000E+00 -0.21776932678E+02  0.21776933262E+02  0.50400000000E-02 0. -1.
        -24    2    1    2    0    0  0.00000000000E+00  0.00000000000E+00  0.42382113293E+02  0.85935979283E+02  0.74757936089E+02 0.  0.
         66    2    3    3    0    0 -0.31298743223E+01  0.25318541272E+02  0.52568530089E+02  0.58466015748E+02  0.19999990761E+01 0.  0.
         13    1    3    3    0    0  0.31298743223E+01 -0.25318541272E+02 -0.10186416797E+02  0.27469963535E+02  0.10566000000E+00 0. -1.
         13    1    4    4    0    0 -0.88882818478E+00  0.63140993927E+01  0.14214024265E+02  0.15579073032E+02  0.10566000000E+00 0. -1.
        -13    1    4    4    0    0 -0.12250166043E+01  0.96153942775E+01  0.17855615190E+02  0.20317249584E+02  0.10566000000E+00 0.  1.
        -14    1    4    4    0    0 -0.10160295332E+01  0.93890476019E+01  0.20498890634E+02  0.22569693133E+02  0.00000000000E+00 0.  1.
<mgrwt>
<rscale>  0 0.74757936E+02</rscale>
<asrwt>0</asrwt>
<pdfrwt beam="1">  1        1 0.33502974E-02 0.74757936E+02</pdfrwt>
<pdfrwt beam="2">  1       -2 0.98706223E-02 0.74757936E+02</pdfrwt>
<totfact> 0.13877461E+05</totfact>
</mgrwt>
</event>
<event>
 8    1  0.7756875E-014  0.7913831E+02  0.7818608E-02  0.1331515E+00
         -2   -1    0    0    0  501 -0.00000000000E+00  0.00000000000E+00  0.35475867524E+03  0.35475867525E+03  0.25500000000E-02 0.  1.
          1   -1    0    0  501    0  0.00000000000E+00 -0.00000000000E+00 -0.44134721485E+01  0.44134750263E+01  0.50400000000E-02 0. -1.
        -24    2    1    2    0    0 -0.35527136788E-14 -0.71054273576E-14  0.35034520309E+03  0.35917215027E+03  0.79138310598E+02 0.  0.
         66    2    3    3    0    0 -0.27126848720E+02 -0.21316603866E+02  0.26299068709E+03  0.26525151276E+03  0.20000005595E+01 0.  0.
         13    1    3    3    0    0  0.27126848720E+02  0.21316603866E+02  0.87354515998E+02  0.93920637514E+02  0.10566000000E+00 0. -1.
         13    1    4    4    0    0 -0.34725686476E+01 -0.23256316582E+01  0.35426966748E+02  0.35672796815E+02  0.10566000000E+00 0. -1.
        -13    1    4    4    0    0 -0.20514113088E+02 -0.16522969458E+02  0.19504942310E+03  0.19682003448E+03  0.10566000000E+00 0.  1.
         14    1    4    4    0    0 -0.31401669848E+01 -0.24680027491E+01  0.32514297241E+02  0.32758681465E+02  0.00000000000E+00 0. -1.
<mgrwt>
<rscale>  0 0.79138311E+02</rscale>
<asrwt>0</asrwt>
<pdfrwt beam="1">  1        1 0.67899592E-03 0.79138311E+02</pdfrwt>
<pdfrwt beam="2">  1       -2 0.54578259E-01 0.79138311E+02</pdfrwt>
<totfact> 0.65597508E+04</totfact>
</mgrwt>
</event>
<event>
 8    1  0.7756875E-014  0.7935325E+02  0.7818608E-02  0.1330897E+00
          1   -1    0    0  501    0  0.00000000000E+00  0.00000000000E+00  0.51092316019E+02  0.51092316267E+02  0.50400000000E-02 0. -1.
         -2   -1    0    0    0  501 -0.00000000000E+00 -0.00000000000E+00 -0.30811570560E+02  0.30811570666E+02  0.25500000000E-02 0.  1.
        -24    2    1    2    0    0  0.00000000000E+00  0.17763568394E-14  0.20280745458E+02  0.81903886933E+02  0.79353248569E+02 0.  0.
         66    2    3    3    0    0 -0.30110612845E+02  0.15714102198E+02 -0.10971752775E+02  0.35748585789E+02  0.20000033016E+01 0.  0.
         13    1    3    3    0    0  0.30110612845E+02 -0.15714102198E+02  0.31252498234E+02  0.46155301144E+02  0.10566000000E+00 0. -1.
         13    1    4    4    0    0 -0.19465353520E+02  0.96545773811E+01 -0.66750532232E+01  0.22730559862E+02  0.10566000000E+00 0. -1.
        -13    1    4    4    0    0 -0.51827213192E+01  0.28957969614E+01 -0.15708114947E+01  0.61420560972E+01  0.10566000000E+00 0.  1.
         14    1    4    4    0    0 -0.54625380054E+01  0.31637278558E+01 -0.27258880574E+01  0.68759698303E+01  0.00000000000E+00 0. -1.
<mgrwt>
<rscale>  0 0.79353249E+02</rscale>
<asrwt>0</asrwt>
<pdfrwt beam="1">  1        1 0.78603563E-02 0.79353249E+02</pdfrwt>
<pdfrwt beam="2">  1       -2 0.47402417E-02 0.79353249E+02</pdfrwt>
<totfact> 0.13502797E+05</totfact>
</mgrwt>
</event>
<event>
 8    1  0.7756875E-014  0.7814517E+02  0.7818608E-02  0.1334399E+00
         -2   -1    0    0    0  501 -0.00000000000E+00  0.00000000000E+00  0.11694300904E+03  0.11694300907E+03  0.25500000000E-02 0.  1.
          1   -1    0    0  501    0  0.00000000000E+00 -0.00000000000E+00 -0.13054792475E+02  0.13054793447E+02  0.50400000000E-02 0. -1.
        -24    2    1    2    0    0  0.00000000000E+00  0.00000000000E+00  0.10388821657E+03  0.12999780252E+03  0.78145166951E+02 0.  0.
         66    2    3    3    0    0  0.47789558622E+01  0.37730185506E+02  0.66694188588E+02  0.76801823357E+02  0.19999905220E+01 0.  0.
         13    1    3    3    0    0 -0.47789558622E+01 -0.37730185506E+02  0.37194027980E+02  0.53195979161E+02  0.10566000000E+00 0. -1.
         13    1    4    4    0    0  0.18573202086E+01  0.18961508833E+02  0.33209587994E+02  0.38286764741E+02  0.10566000000E+00 0. -1.
        -13    1    4    4    0    0  0.61901145782E+00  0.57135513073E+01  0.11083570127E+02  0.12485372822E+02  0.10566000000E+00 0.  1.
        -14    1    4    4    0    0  0.23026241958E+01  0.13055125366E+02  0.22401030467E+02  0.26029685793E+02  0.00000000000E+00 0.  1.
<mgrwt>
<rscale>  0 0.78145167E+02</rscale>
<asrwt>0</asrwt>
<pdfrwt beam="1">  1        1 0.20084297E-02 0.78145167E+02</pdfrwt>
<pdfrwt beam="2">  1       -2 0.17991232E-01 0.78145167E+02</pdfrwt>
<totfact> 0.10818962E+05</totfact>
</mgrwt>
</event>
<event>
 8    1  0.7756875E-014  0.7973384E+02  0.7818608E-02  0.1329808E+00
         -2   -1    0    0    0  501 -0.00000000000E+00  0.00000000000E+00  0.13898098519E+03  0.13898098522E+03  0.25500000000E-02 0.  1.
          1   -1    0    0  501    0  0.00000000000E+00 -0.00000000000E+00 -0.11435889277E+02  0.11435890387E+02  0.50400000000E-02 0. -1.
        -24    2    1    2    0    0  0.00000000000E+00  0.00000000000E+00  0.12754509592E+03  0.15041687560E+03  0.79733838326E+02 0.  0.
         66    2    3    3    0    0  0.14201573387E+02 -0.45735974570E+01  0.13350451424E+03  0.13435050355E+03  0.20000003546E+01 0.  0.
         13    1    3    3    0    0 -0.14201573387E+02  0.45735974570E+01 -0.59594183193E+01  0.16066372058E+02  0.10566000000E+00 0. -1.
         13    1    4    4    0    0  0.22833522798E+01 -0.37473376523E+00  0.22359335812E+02  0.22478994306E+02  0.10566000000E+00 0. -1.
        -13    1    4    4    0    0  0.11417958602E+02 -0.36632388513E+01  0.10526029662E+03  0.10594116436E+03  0.10566000000E+00 0.  1.
        -14    1    4    4    0    0  0.50026250485E+00 -0.53562484045E+00  0.58848818079E+01  0.59303448834E+01  0.00000000000E+00 0.  1.
<mgrwt>
<rscale>  0 0.79733838E+02</rscale>
<asrwt>0</asrwt>
<pdfrwt beam="1">  1        1 0.17593677E-02 0.79733838E+02</pdfrwt>
<pdfrwt beam="2">  1       -2 0.21381690E-01 0.79733838E+02</pdfrwt>
<totfact> 0.97678771E+04</totfact>
</mgrwt>
</event>
<event>
 8    1  0.7756875E-014  0.7775759E+02  0.7818608E-02  0.1335538E+00
         -2   -1    0    0    0  501 -0.00000000000E+00  0.00000000000E+00  0.36376968254E+02  0.36376968344E+02  0.25500000000E-02 0.  1.
          1   -1    0    0  501    0  0.00000000000E+00 -0.00000000000E+00 -0.41552687044E+02  0.41552687350E+02  0.50400000000E-02 0. -1.
        -24    2    1    2    0    0  0.00000000000E+00 -0.17763568394E-14 -0.51757187897E+01  0.77929655693E+02  0.77757592372E+02 0.  0.
         66    2    3    3    0    0  0.12526691322E+02 -0.12224165372E+02  0.32174473664E+02  0.36681670835E+02  0.20000012839E+01 0.  0.
         13    1    3    3    0    0 -0.12526691322E+02  0.12224165372E+02 -0.37350192454E+02  0.41247984859E+02  0.10566000000E+00 0. -1.
         13    1    4    4    0    0  0.29453467404E+01 -0.21253373674E+01  0.70174780462E+01  0.79024229520E+01  0.10566000000E+00 0. -1.
        -13    1    4    4    0    0  0.24389690594E+01 -0.33965628223E+01  0.75654639912E+01  0.86448029773E+01  0.10566000000E+00 0.  1.
        -14    1    4    4    0    0  0.71423755221E+01 -0.67022651821E+01  0.17591531627E+02  0.20134444905E+02  0.00000000000E+00 0.  1.
<mgrwt>
<rscale>  0 0.77757592E+02</rscale>
<asrwt>0</asrwt>
<pdfrwt beam="1">  1        1 0.63927211E-02 0.77757592E+02</pdfrwt>
<pdfrwt beam="2">  1       -2 0.55964567E-02 0.77757592E+02</pdfrwt>
<totfact> 0.13835861E+05</totfact>
</mgrwt>
</event>
<event>
 8    1  0.7756875E-014  0.7844169E+02  0.7818608E-02  0.1333533E+00
         -2   -1    0    0    0  501 -0.00000000000E+00  0.00000000000E+00  0.14855118085E+03  0.14855118087E+03  0.25500000000E-02 0.  1.
          1   -1    0    0  501    0  0.00000000000E+00 -0.00000000000E+00 -0.10355181493E+02  0.10355182720E+02  0.50400000000E-02 0. -1.
        -24    2    1    2    0    0 -0.35527136788E-14  0.00000000000E+00  0.13819599936E+03  0.15890636359E+03  0.78441686314E+02 0.  0.
         66    2    3    3    0    0 -0.26540763313E+02  0.16866913898E+02  0.11653781912E+03  0.12072269120E+03  0.19999963453E+01 0.  0.
         13    1    3    3    0    0  0.26540763313E+02 -0.16866913898E+02  0.21658180240E+02  0.38183672388E+02  0.10566000000E+00 0. -1.
         13    1    4    4    0    0 -0.12709507085E+02  0.85414390986E+01  0.59694640790E+02  0.61627502427E+02  0.10566000000E+00 0. -1.
        -13    1    4    4    0    0 -0.17720553728E+01  0.13031368880E+01  0.80196647160E+01  0.83165216398E+01  0.10566000000E+00 0.  1.
         14    1    4    4    0    0 -0.12059200855E+02  0.70223379114E+01  0.48823513611E+02  0.50778667138E+02  0.00000000000E+00 0. -1.
<mgrwt>
<rscale>  0 0.78441686E+02</rscale>
<asrwt>0</asrwt>
<pdfrwt beam="1">  1        1 0.15931049E-02 0.78441686E+02</pdfrwt>
<pdfrwt beam="2">  1       -2 0.22854028E-01 0.78441686E+02</pdfrwt>
<totfact> 0.99731389E+04</totfact>
</mgrwt>
</event>
<event>
 8    1  0.7756875E-014  0.7773904E+02  0.7818608E-02  0.1335593E+00
          1   -1    0    0  501    0  0.00000000000E+00  0.00000000000E+00  0.51025645155E+01  0.51025670046E+01  0.50400000000E-02 0. -1.
         -2   -1    0    0    0  501 -0.00000000000E+00 -0.00000000000E+00 -0.29609407074E+03  0.29609407075E+03  0.25500000000E-02 0.  1.
        -24    2    1    2    0    0 -0.22204460493E-15  0.00000000000E+00 -0.29099150623E+03  0.30119663776E+03  0.77739037172E+02 0.  0.
         66    2    3    3    0    0  0.19780535234E+01 -0.31149083045E+02 -0.23517948394E+03  0.23725001106E+03  0.20000028721E+01 0.  0.
         13    1    3    3    0    0 -0.19780535234E+01  0.31149083045E+02 -0.55812022290E+02  0.63946626701E+02  0.10566000000E+00 0. -1.
         13    1    4    4    0    0  0.93513935185E+00 -0.18770629690E+02 -0.14753350515E+03  0.14872577897E+03  0.10566000000E+00 0. -1.
        -13    1    4    4    0    0  0.17679874688E+00 -0.50056336437E+01 -0.34050335360E+02  0.34416916308E+02  0.10566000000E+00 0.  1.
         14    1    4    4    0    0  0.86611542470E+00 -0.73728197114E+01 -0.53595643425E+02  0.54107315777E+02  0.00000000000E+00 0. -1.
<mgrwt>
<rscale>  0 0.77739037E+02</rscale>
<asrwt>0</asrwt>
<pdfrwt beam="1">  1        1 0.78501035E-03 0.77739037E+02</pdfrwt>
<pdfrwt beam="2">  1       -2 0.45552921E-01 0.77739037E+02</pdfrwt>
<totfact> 0.76205092E+04</totfact>
</mgrwt>
</event>
<event>
 8    1  0.7756875E-014  0.8084149E+02  0.7818608E-02  0.1326680E+00
         -2   -1    0    0    0  501 -0.00000000000E+00  0.00000000000E+00  0.10606548535E+02  0.10606548842E+02  0.25500000000E-02 0.  1.
          1   -1    0    0  501    0  0.00000000000E+00 -0.00000000000E+00 -0.15404036214E+03  0.15404036222E+03  0.50400000000E-02 0. -1.
        -24    2    1    2    0    0 -0.71054273576E-14  0.71054273576E-14 -0.14343381360E+03  0.16464691106E+03  0.80841489580E+02 0.  0.
         66    2    3    3    0    0 -0.26254878677E+02  0.30586553656E+02 -0.77139824580E+02  0.87059798320E+02  0.20000071339E+01 0.  0.
         13    1    3    3    0    0  0.26254878677E+02 -0.30586553656E+02 -0.66293989021E+02  0.77587112740E+02  0.10566000000E+00 0. -1.
         13    1    4    4    0    0 -0.20064016835E+01  0.25681620335E+01 -0.58099391471E+01  0.66624065377E+01  0.10566000000E+00 0. -1.
        -13    1    4    4    0    0 -0.23719587415E+02  0.27714121279E+02 -0.70273931785E+02  0.79177825165E+02  0.10566000000E+00 0.  1.
         14    1    4    4    0    0 -0.52888957761E+00  0.30427034388E+00 -0.10559536480E+01  0.12195666174E+01  0.00000000000E+00 0. -1.
<mgrwt>
<rscale>  0 0.80841490E+02</rscale>
<asrwt>0</asrwt>
<pdfrwt beam="1">  1        1 0.23698516E-01 0.80841490E+02</pdfrwt>
<pdfrwt beam="2">  1       -2 0.16317768E-02 0.80841490E+02</pdfrwt>
<totfact> 0.15428811E+05</totfact>
</mgrwt>
</event>
<event>
 8    1  0.7756875E-014  0.8133160E+02  0.7818608E-02  0.1325314E+00
         -2   -1    0    0    0  501 -0.00000000000E+00  0.00000000000E+00  0.12283527502E+03  0.12283527505E+03  0.25500000000E-02 0.  1.
          1   -1    0    0  501    0  0.00000000000E+00 -0.00000000000E+00 -0.13462803176E+02  0.13462804119E+02  0.50400000000E-02 0. -1.
        -24    2    1    2    0    0 -0.41633363423E-16  0.00000000000E+00  0.10937247185E+03  0.13629807917E+03  0.81331597716E+02 0.  0.
         66    2    3    3    0    0  0.76651850334E-01 -0.37767259786E+02  0.79875140928E+02  0.88376523656E+02  0.20000020307E+01 0.  0.
         13    1    3    3    0    0 -0.76651850334E-01  0.37767259786E+02  0.29497330918E+02  0.47921555511E+02  0.10566000000E+00 0. -1.
         13    1    4    4    0    0 -0.22675664178E+00 -0.15813075202E+02  0.34193863492E+02  0.37674079026E+02  0.10566000000E+00 0. -1.
        -13    1    4    4    0    0  0.45410453803E+00 -0.20906481871E+02  0.43985822307E+02  0.48703705436E+02  0.10566000000E+00 0.  1.
         14    1    4    4    0    0 -0.15069604591E+00 -0.10477027126E+01  0.16954551291E+01  0.19987391944E+01  0.00000000000E+00 0. -1.
<mgrwt>
<rscale>  0 0.81331598E+02</rscale>
<asrwt>0</asrwt>
<pdfrwt beam="1">  1        1 0.20712005E-02 0.81331598E+02</pdfrwt>
<pdfrwt beam="2">  1       -2 0.18897735E-01 0.81331598E+02</pdfrwt>
<totfact> 0.96308059E+04</totfact>
</mgrwt>
</event>
<event>
 8    1  0.7756875E-014  0.7823241E+02  0.7818608E-02  0.1334144E+00
         -2   -1    0    0    0  501 -0.00000000000E+00  0.00000000000E+00  0.89571753939E+03  0.89571753939E+03  0.25500000000E-02 0.  1.
          1   -1    0    0  501    0  0.00000000000E+00 -0.00000000000E+00 -0.17082106238E+01  0.17082180589E+01  0.50400000000E-02 0. -1.
        -24    2    1    2    0    0  0.00000000000E+00  0.00000000000E+00  0.89400932876E+03  0.89742575745E+03  0.78232411558E+02 0.  0.
         66    2    3    3    0    0  0.20334074467E+02  0.11375085371E+02  0.80735627834E+03  0.80769488504E+03  0.19999983878E+01 0.  0.
         13    1    3    3    0    0 -0.20334074467E+02 -0.11375085371E+02  0.86653050422E+02  0.89730872408E+02  0.10566000000E+00 0. -1.
         13    1    4    4    0    0  0.11830051535E+02  0.66827951394E+01  0.45417939239E+03  0.45438259375E+03  0.10566000000E+00 0. -1.
        -13    1    4    4    0    0  0.68646799392E+01  0.38317809323E+01  0.30063704038E+03  0.30073983372E+03  0.10566000000E+00 0.  1.
         14    1    4    4    0    0  0.16393429931E+01  0.86050929982E+00  0.52539845577E+02  0.52572457570E+02  0.00000000000E+00 0. -1.
<mgrwt>
<rscale>  0 0.78232412E+02</rscale>
<asrwt>0</asrwt>
<pdfrwt beam="1">  1        1 0.26280263E-03 0.78232412E+02</pdfrwt>
<pdfrwt beam="2">  1       -2 0.13780247E+00 0.78232412E+02</pdfrwt>
<totfact> 0.31267885E+04</totfact>
</mgrwt>
</event>
<event>
 8    1  0.7756875E-014  0.7973507E+02  0.7818608E-02  0.1329805E+00
         -2   -1    0    0    0  501 -0.00000000000E+00  0.00000000000E+00  0.36627084422E+02  0.36627084511E+02  0.25500000000E-02 0.  1.
          1   -1    0    0  501    0  0.00000000000E+00 -0.00000000000E+00 -0.43394668328E+02  0.43394668621E+02  0.50400000000E-02 0. -1.
        -24    2    1    2    0    0  0.88817841970E-15  0.35527136788E-14 -0.67675839064E+01  0.80021753132E+02  0.79735066203E+02 0.  0.
         66    2    3    3    0    0  0.78914435898E+01  0.22787236052E+02  0.28443764903E+02  0.37344086164E+02  0.20000001814E+01 0.  0.
         13    1    3    3    0    0 -0.78914435898E+01 -0.22787236052E+02 -0.35211348809E+02  0.42677666968E+02  0.10566000000E+00 0. -1.
         13    1    4    4    0    0  0.30115495277E+01  0.69449129705E+01  0.97242763896E+01  0.12323715433E+02  0.10566000000E+00 0.  1.
        -13    1    4    4    0    0  0.24093713639E+01  0.63753255173E+01  0.78161677257E+01  0.10370799765E+02  0.10566000000E+00 0. -1.
        -14    1    4    4    0    0  0.24705226982E+01  0.94669975646E+01  0.10903320787E+02  0.14649570966E+02  0.00000000000E+00 0.  1.
<mgrwt>
<rscale>  0 0.79735066E+02</rscale>
<asrwt>0</asrwt>
<pdfrwt beam="1">  1        1 0.66761029E-02 0.79735066E+02</pdfrwt>
<pdfrwt beam="2">  1       -2 0.56349361E-02 0.79735066E+02</pdfrwt>
<totfact> 0.12985332E+05</totfact>
</mgrwt>
</event>
<event>
 8    1  0.7756875E-014  0.7937120E+02  0.7818608E-02  0.1330845E+00
          1   -1    0    0  501    0  0.00000000000E+00  0.00000000000E+00  0.65107505240E+02  0.65107505435E+02  0.50400000000E-02 0. -1.
         -2   -1    0    0    0  501 -0.00000000000E+00 -0.00000000000E+00 -0.24189942149E+02  0.24189942284E+02  0.25500000000E-02 0.  1.
        -24    2    1    2    0    0  0.00000000000E+00 -0.88817841970E-15  0.40917563091E+02  0.89297447719E+02  0.79371198806E+02 0.  0.
         66    2    3    3    0    0  0.19939190125E+02  0.48562511726E+01 -0.17710580128E+02  0.27181227458E+02  0.19999998420E+01 0.  0.
         13    1    3    3    0    0 -0.19939190125E+02 -0.48562511726E+01  0.58628143218E+02  0.62116220261E+02  0.10566000000E+00 0. -1.
         13    1    4    4    0    0  0.45784935354E+01  0.84923631643E+00 -0.33226649073E+01  0.57214571131E+01  0.10566000000E+00 0. -1.
        -13    1    4    4    0    0  0.98826222568E+01  0.31644111925E+01 -0.95429236295E+01  0.14098165707E+02  0.10566000000E+00 0.  1.
        -14    1    4    4    0    0  0.54780743325E+01  0.84260366369E+00 -0.48449915908E+01  0.73616046377E+01  0.00000000000E+00 0.  1.
<mgrwt>
<rscale>  0 0.79371199E+02</rscale>
<asrwt>0</asrwt>
<pdfrwt beam="1">  1        1 0.10016539E-01 0.79371199E+02</pdfrwt>
<pdfrwt beam="2">  1       -2 0.37215296E-02 0.79371199E+02</pdfrwt>
<totfact> 0.14013290E+05</totfact>
</mgrwt>
</event>
<event>
 8    1  0.7756875E-014  0.8055996E+02  0.7818608E-02  0.1327470E+00
         -2   -1    0    0    0  501 -0.00000000000E+00  0.00000000000E+00  0.49397392837E+02  0.49397392903E+02  0.25500000000E-02 0.  1.
          1   -1    0    0  501    0  0.00000000000E+00 -0.00000000000E+00 -0.32845396788E+02  0.32845397175E+02  0.50400000000E-02 0. -1.
        -24    2    1    2    0    0 -0.35527136788E-14 -0.17763568394E-14  0.16551996048E+02  0.82242790078E+02  0.80559964912E+02 0.  0.
         66    2    3    3    0    0  0.19194567467E+02  0.93078556794E+01  0.43132217290E+02  0.48160728478E+02  0.20000004094E+01 0.  0.
         13    1    3    3    0    0 -0.19194567467E+02 -0.93078556794E+01 -0.26580221241E+02  0.34082061600E+02  0.10566000000E+00 0. -1.
         13    1    4    4    0    0  0.85033931835E+00  0.18937898743E+00  0.13941128508E+01  0.16473178302E+01  0.10566000000E+00 0. -1.
        -13    1    4    4    0    0  0.35615150553E+01  0.15426604934E+01  0.68850396104E+01  0.79043738120E+01  0.10566000000E+00 0. -1.
        -14    1    4    4    0    0  0.14782713094E+02  0.75758161985E+01  0.34853064828E+02  0.38609036836E+02  0.00000000000E+00 0.  1.
<mgrwt>
<rscale>  0 0.80559965E+02</rscale>
<asrwt>0</asrwt>
<pdfrwt beam="1">  1        1 0.50531380E-02 0.80559965E+02</pdfrwt>
<pdfrwt beam="2">  1       -2 0.75995989E-02 0.80559965E+02</pdfrwt>
<totfact> 0.12044801E+05</totfact>
</mgrwt>
</event>
<event>
 8    1  0.7756875E-014  0.7982883E+02  0.7818608E-02  0.1329538E+00
          1   -1    0    0  501    0  0.00000000000E+00  0.00000000000E+00  0.15358962259E+03  0.15358962267E+03  0.50400000000E-02 0. -1.
         -2   -1    0    0    0  501 -0.00000000000E+00 -0.00000000000E+00 -0.10372838310E+02  0.10372838624E+02  0.25500000000E-02 0.  1.
        -24    2    1    2    0    0  0.00000000000E+00  0.00000000000E+00  0.14321678428E+03  0.16396246129E+03  0.79828825713E+02 0.  0.
         66    2    3    3    0    0 -0.27438836852E+02 -0.76265137719E+01  0.14286449779E+02  0.31924225173E+02  0.20000063738E+01 0.  0.
         13    1    3    3    0    0  0.27438836852E+02  0.76265137719E+01  0.12893033450E+03  0.13203823612E+03  0.10566000000E+00 0. -1.
         13    1    4    4    0    0 -0.16260874615E+02 -0.54868258953E+01  0.87613549777E+01  0.19268985617E+02  0.10566000000E+00 0. -1.
        -13    1    4    4    0    0 -0.56103499511E+01 -0.96747910629E+00  0.26563483358E+01  0.62832629192E+01  0.10566000000E+00 0.  1.
         14    1    4    4    0    0 -0.55676122860E+01 -0.11722087703E+01  0.28687464658E+01  0.63719766363E+01  0.00000000000E+00 0. -1.
<mgrwt>
<rscale>  0 0.79828826E+02</rscale>
<asrwt>0</asrwt>
<pdfrwt beam="1">  1        1 0.23629172E-01 0.79828826E+02</pdfrwt>
<pdfrwt beam="2">  1       -2 0.15958214E-02 0.79828826E+02</pdfrwt>
<totfact> 0.15948614E+05</totfact>
</mgrwt>
</event>
<event>
 8    1  0.7756875E-014  0.8035354E+02  0.7818608E-02  0.1328051E+00
         -2   -1    0    0    0  501 -0.00000000000E+00  0.00000000000E+00  0.11441358797E+02  0.11441359081E+02  0.25500000000E-02 0.  1.
          1   -1    0    0  501    0  0.00000000000E+00 -0.00000000000E+00 -0.14108225496E+03  0.14108225505E+03  0.50400000000E-02 0. -1.
        -24    2    1    2    0    0  0.00000000000E+00  0.00000000000E+00 -0.12964089617E+03  0.15252361414E+03  0.80353537010E+02 0.  0.
         66    2    3    3    0    0  0.40141612766E+02 -0.42340441779E+00 -0.63342660217E+02  0.75018803956E+02  0.19999992173E+01 0.  0.
         13    1    3    3    0    0 -0.40141612766E+02  0.42340441779E+00 -0.66298235951E+02  0.77504810180E+02  0.10566000000E+00 0. -1.
         13    1    4    4    0    0  0.35340166957E+01 -0.45795229707E+00 -0.56747078213E+01  0.67016764473E+01  0.10566000000E+00 0. -1.
        -13    1    4    4    0    0  0.21753910770E+02 -0.54745867395E+00 -0.34632168253E+02  0.40901474139E+02  0.10566000000E+00 0.  1.
        -14    1    4    4    0    0  0.14853685300E+02  0.58200655322E+00 -0.23035784142E+02  0.27415653370E+02  0.00000000000E+00 0.  1.
<mgrwt>
<rscale>  0 0.80353537E+02</rscale>
<asrwt>0</asrwt>
<pdfrwt beam="1">  1        1 0.21704961E-01 0.80353537E+02</pdfrwt>
<pdfrwt beam="2">  1       -2 0.17602092E-02 0.80353537E+02</pdfrwt>
<totfact> 0.15428810E+05</totfact>
</mgrwt>
</event>
<event>
 8    1  0.7756875E-014  0.7968029E+02  0.7818608E-02  0.1329961E+00
          1   -1    0    0  501    0  0.00000000000E+00  0.00000000000E+00  0.26661569589E+03  0.26661569594E+03  0.50400000000E-02 0. -1.
         -2   -1    0    0    0  501 -0.00000000000E+00 -0.00000000000E+00 -0.59532767521E+01  0.59532772983E+01  0.25500000000E-02 0.  1.
        -24    2    1    2    0    0 -0.35527136788E-14  0.00000000000E+00  0.26066241914E+03  0.27256897324E+03  0.79680288781E+02 0.  0.
         66    2    3    3    0    0 -0.19312883798E+02 -0.34694620381E+02  0.12042347845E+03  0.12681686926E+03  0.20000007818E+01 0.  0.
         13    1    3    3    0    0  0.19312883798E+02  0.34694620381E+02  0.14023894069E+03  0.14575210398E+03  0.10566000000E+00 0. -1.
         13    1    4    4    0    0 -0.64564584139E+01 -0.11693170714E+02  0.40947410514E+02  0.43071077168E+02  0.10566000000E+00 0. -1.
        -13    1    4    4    0    0 -0.58829179018E+01 -0.12126462497E+02  0.40095988931E+02  0.42300819237E+02  0.10566000000E+00 0.  1.
         14    1    4    4    0    0 -0.69735074824E+01 -0.10874987170E+02  0.39380079008E+02  0.41444972858E+02  0.00000000000E+00 0. -1.
<mgrwt>
<rscale>  0 0.79680289E+02</rscale>
<asrwt>0</asrwt>
<pdfrwt beam="1">  1        1 0.41017785E-01 0.79680289E+02</pdfrwt>
<pdfrwt beam="2">  1       -2 0.91588909E-03 0.79680289E+02</pdfrwt>
<totfact> 0.17822831E+05</totfact>
</mgrwt>
</event>
<event>
 8    1  0.7756875E-014  0.8071013E+02  0.7818608E-02  0.1327048E+00
          1   -1    0    0  501    0  0.00000000000E+00  0.00000000000E+00  0.49505024156E+02  0.49505024413E+02  0.50400000000E-02 0. -1.
         -2   -1    0    0    0  501 -0.00000000000E+00 -0.00000000000E+00 -0.32896285402E+02  0.32896285500E+02  0.25500000000E-02 0.  1.
        -24    2    1    2    0    0  0.00000000000E+00  0.00000000000E+00  0.16608738754E+02  0.82401309913E+02  0.80710133641E+02 0.  0.
         66    2    3    3    0    0  0.16479762039E+02  0.23625116754E+02 -0.20509624583E+02  0.35417134286E+02  0.20000004932E+01 0.  0.
         13    1    3    3    0    0 -0.16479762039E+02 -0.23625116754E+02  0.37118363338E+02  0.46984175627E+02  0.10566000000E+00 0. -1.
         13    1    4    4    0    0  0.27324583152E+01  0.40090729977E+01 -0.28023749773E+01  0.56038793968E+01  0.10566000000E+00 0.  1.
        -13    1    4    4    0    0  0.60434632964E+01  0.93461203511E+01 -0.87747100438E+01  0.14173218217E+02  0.10566000000E+00 0.  1.
         14    1    4    4    0    0  0.77038404270E+01  0.10269923405E+02 -0.89325395624E+01  0.15640036672E+02  0.00000000000E+00 0. -1.
<mgrwt>
<rscale>  0 0.80710134E+02</rscale>
<asrwt>0</asrwt>
<pdfrwt beam="1">  1        1 0.76161575E-02 0.80710134E+02</pdfrwt>
<pdfrwt beam="2">  1       -2 0.50609670E-02 0.80710134E+02</pdfrwt>
<totfact> 0.12817139E+05</totfact>
</mgrwt>
</event>
<event>
 8    1  0.7756875E-014  0.8013887E+02  0.7818608E-02  0.1328658E+00
          1   -1    0    0  501    0  0.00000000000E+00  0.00000000000E+00  0.65473943814E+02  0.65473944008E+02  0.50400000000E-02 0. -1.
         -2   -1    0    0    0  501 -0.00000000000E+00 -0.00000000000E+00 -0.24522115616E+02  0.24522115748E+02  0.25500000000E-02 0.  1.
        -24    2    1    2    0    0  0.00000000000E+00  0.00000000000E+00  0.40951828199E+02  0.89996059757E+02  0.80138870337E+02 0.  0.
         66    2    3    3    0    0 -0.32516093022E+02  0.18066940573E+02  0.38377350814E+01  0.37449150057E+02  0.19999955946E+01 0.  0.
         13    1    3    3    0    0  0.32516093022E+02 -0.18066940573E+02  0.37114093117E+02  0.52546909700E+02  0.10566000000E+00 0. -1.
         13    1    4    4    0    0 -0.92321121232E+01  0.46616593620E+01  0.15411672874E+01  0.10457022660E+02  0.10566000000E+00 0. -1.
        -13    1    4    4    0    0 -0.14897964337E+02  0.80318550052E+01  0.11098467341E+01  0.16961808866E+02  0.10566000000E+00 0.  1.
         14    1    4    4    0    0 -0.83860165618E+01  0.53734262057E+01  0.11867210600E+01  0.10030318531E+02  0.00000000000E+00 0. -1.
<mgrwt>
<rscale>  0 0.80138870E+02</rscale>
<asrwt>0</asrwt>
<pdfrwt beam="1">  1        1 0.10072914E-01 0.80138870E+02</pdfrwt>
<pdfrwt beam="2">  1       -2 0.37726332E-02 0.80138870E+02</pdfrwt>
<totfact> 0.13659933E+05</totfact>
</mgrwt>
</event>
<event>
 8    1  0.7756875E-014  0.7918923E+02  0.7818608E-02  0.1331368E+00
          1   -1    0    0  501    0  0.00000000000E+00  0.00000000000E+00  0.78650254087E+01  0.78650270236E+01  0.50400000000E-02 0. -1.
         -2   -1    0    0    0  501 -0.00000000000E+00 -0.00000000000E+00 -0.19932974624E+03  0.19932974626E+03  0.25500000000E-02 0.  1.
        -24    2    1    2    0    0  0.17763568394E-14  0.71054273576E-14 -0.19146472083E+03  0.20719477328E+03  0.79189233810E+02 0.  0.
         66    2    3    3    0    0  0.13548209679E+02 -0.37177502704E+02 -0.95558626449E+02  0.10344646825E+03  0.20000029588E+01 0.  0.
         13    1    3    3    0    0 -0.13548209679E+02  0.37177502704E+02 -0.95906094381E+02  0.10374830503E+03  0.10566000000E+00 0. -1.
         13    1    4    4    0    0  0.73748097765E+01 -0.18113696439E+02 -0.46137299362E+02  0.50111429578E+02  0.10566000000E+00 0. -1.
        -13    1    4    4    0    0  0.54399201516E+01 -0.16312380558E+02 -0.41778182225E+02  0.45178691490E+02  0.10566000000E+00 0.  1.
         14    1    4    4    0    0  0.73347975119E+00 -0.27514257072E+01 -0.76431448628E+01  0.81563471825E+01  0.00000000000E+00 0. -1.
<mgrwt>
<rscale>  0 0.79189234E+02</rscale>
<asrwt>0</asrwt>
<pdfrwt beam="1">  1        1 0.12100042E-02 0.79189234E+02</pdfrwt>
<pdfrwt beam="2">  1       -2 0.30666111E-01 0.79189234E+02</pdfrwt>
<totfact> 0.87459274E+04</totfact>
</mgrwt>
</event>
<event>
 8    1  0.7756875E-014  0.7951493E+02  0.7818608E-02  0.1330434E+00
         -2   -1    0    0    0  501 -0.00000000000E+00  0.00000000000E+00  0.14814844922E+03  0.14814844924E+03  0.25500000000E-02 0.  1.
          1   -1    0    0  501    0  0.00000000000E+00 -0.00000000000E+00 -0.10669405783E+02  0.10669406973E+02  0.50400000000E-02 0. -1.
        -24    2    1    2    0    0 -0.35527136788E-14 -0.44408920985E-15  0.13747904344E+03  0.15881785622E+03  0.79514929846E+02 0.  0.
         66    2    3    3    0    0 -0.22411038777E+02 -0.30041786249E+01  0.13403707982E+03  0.13594564544E+03  0.19999996669E+01 0.  0.
         13    1    3    3    0    0  0.22411038777E+02  0.30041786249E+01  0.34419636187E+01  0.22872210778E+02  0.10566000000E+00 0. -1.
         13    1    4    4    0    0 -0.91613741081E+01 -0.10320625019E+01  0.57412188821E+02  0.58147798907E+02  0.10566000000E+00 0. -1.
        -13    1    4    4    0    0 -0.64702496118E+01 -0.93112332655E+00  0.41126778500E+02  0.41643177046E+02  0.10566000000E+00 0.  1.
        -14    1    4    4    0    0 -0.67794150576E+01 -0.10409927965E+01  0.35498112498E+02  0.36154669483E+02  0.00000000000E+00 0.  1.
<mgrwt>
<rscale>  0 0.79514930E+02</rscale>
<asrwt>0</asrwt>
<pdfrwt beam="1">  1        1 0.16414471E-02 0.79514930E+02</pdfrwt>
<pdfrwt beam="2">  1       -2 0.22792070E-01 0.79514930E+02</pdfrwt>
<totfact> 0.96391638E+04</totfact>
</mgrwt>
</event>
<event>
 8    1  0.7756875E-014  0.8090700E+02  0.7818608E-02  0.1326497E+00
          1   -1    0    0  501    0  0.00000000000E+00  0.00000000000E+00  0.35282537002E+01  0.35282572999E+01  0.50400000000E-02 0. -1.
         -2   -1    0    0    0  501 -0.00000000000E+00 -0.00000000000E+00 -0.46382287084E+03  0.46382287085E+03  0.25500000000E-02 0.  1.
        -24    2    1    2    0    0  0.17763568394E-14  0.00000000000E+00 -0.46029461714E+03  0.46735112815E+03  0.80906998537E+02 0.  0.
         66    2    3    3    0    0 -0.10129995954E+02 -0.17288342736E+02 -0.43311872114E+03  0.43358658905E+03  0.19999988861E+01 0.  0.
         13    1    3    3    0    0  0.10129995954E+02  0.17288342736E+02 -0.27175896003E+02  0.33764539093E+02  0.10566000000E+00 0. -1.
         13    1    4    4    0    0 -0.48219120106E+01 -0.84032220548E+01 -0.22585836636E+03  0.22606609165E+03  0.10566000000E+00 0. -1.
        -13    1    4    4    0    0 -0.21418237953E+01 -0.30504085059E+01 -0.68420273007E+02  0.68521801812E+02  0.10566000000E+00 0.  1.
        -14    1    4    4    0    0 -0.31662601484E+01 -0.58347121748E+01 -0.13884008177E+03  0.13899869559E+03  0.00000000000E+00 0.  1.
<mgrwt>
<rscale>  0 0.80906999E+02</rscale>
<asrwt>0</asrwt>
<pdfrwt beam="1">  1        1 0.54280891E-03 0.80906999E+02</pdfrwt>
<pdfrwt beam="2">  1       -2 0.71357317E-01 0.80906999E+02</pdfrwt>
<totfact> 0.51772725E+04</totfact>
</mgrwt>
</event>
<event>
 8    1  0.7756875E-014  0.7934243E+02  0.7818608E-02  0.1330928E+00
         -2   -1    0    0    0  501 -0.00000000000E+00  0.00000000000E+00  0.12909244771E+02  0.12909245023E+02  0.25500000000E-02 0.  1.
          1   -1    0    0  501    0  0.00000000000E+00 -0.00000000000E+00 -0.12191304248E+03  0.12191304258E+03  0.50400000000E-02 0. -1.
        -24    2    1    2    0    0  0.00000000000E+00 -0.17763568394E-14 -0.10900379771E+03  0.13482228761E+03  0.79342430770E+02 0.  0.
         66    2    3    3    0    0 -0.36843634030E+02  0.11273767667E+02 -0.38664242993E+02  0.54621194549E+02  0.20000004535E+01 0.  0.
         13    1    3    3    0    0  0.36843634030E+02 -0.11273767667E+02 -0.70339554715E+02  0.80201093057E+02  0.10566000000E+00 0. -1.
         13    1    4    4    0    0 -0.15345462886E+02  0.44130657512E+01 -0.17103885863E+02  0.23398984084E+02  0.10566000000E+00 0. -1.
        -13    1    4    4    0    0 -0.19875802527E+02  0.63653654361E+01 -0.19617311925E+02  0.28642896055E+02  0.10566000000E+00 0.  1.
         14    1    4    4    0    0 -0.16223686169E+01  0.49533647954E+00 -0.19430452048E+01  0.25793144099E+01  0.00000000000E+00 0. -1.
<mgrwt>
<rscale>  0 0.79342431E+02</rscale>
<asrwt>0</asrwt>
<pdfrwt beam="1">  1        1 0.18755852E-01 0.79342431E+02</pdfrwt>
<pdfrwt beam="2">  1       -2 0.19860378E-02 0.79342431E+02</pdfrwt>
<totfact> 0.15549396E+05</totfact>
</mgrwt>
</event>
<event>
 8    1  0.7756875E-014  0.8020685E+02  0.7818608E-02  0.1328465E+00
          1   -1    0    0  501    0  0.00000000000E+00  0.00000000000E+00  0.25434296897E+03  0.25434296902E+03  0.50400000000E-02 0. -1.
         -2   -1    0    0    0  501 -0.00000000000E+00 -0.00000000000E+00 -0.63232909830E+01  0.63232914972E+01  0.25500000000E-02 0.  1.
        -24    2    1    2    0    0  0.35527136788E-14 -0.35527136788E-14  0.24801967798E+03  0.26066626051E+03  0.80206849477E+02 0.  0.
         66    2    3    3    0    0 -0.25694196370E+02  0.21620193240E+02  0.52984247603E+02  0.62761094461E+02  0.20000002481E+01 0.  0.
         13    1    3    3    0    0  0.25694196370E+02 -0.21620193240E+02  0.19503543038E+03  0.19790516605E+03  0.10566000000E+00 0. -1.
         13    1    4    4    0    0 -0.33615628636E+01  0.21779940717E+01  0.67844510723E+01  0.78793212557E+01  0.10566000000E+00 0. -1.
        -13    1    4    4    0    0 -0.22567592170E+01  0.19857787924E+01  0.42298188548E+01  0.51902611838E+01  0.10566000000E+00 0.  1.
         14    1    4    4    0    0 -0.20075874289E+02  0.17456420375E+02  0.41969977676E+02  0.49691512021E+02  0.00000000000E+00 0. -1.
<mgrwt>
<rscale>  0 0.80206849E+02</rscale>
<asrwt>0</asrwt>
<pdfrwt beam="1">  1        1 0.39129693E-01 0.80206849E+02</pdfrwt>
<pdfrwt beam="2">  1       -2 0.97281392E-03 0.80206849E+02</pdfrwt>
<totfact> 0.17354849E+05</totfact>
</mgrwt>
</event>
<event>
 8    1  0.7756875E-014  0.7643288E+02  0.7818608E-02  0.1339490E+00
         -2   -1    0    0    0  501 -0.00000000000E+00  0.00000000000E+00  0.52522819142E+02  0.52522819204E+02  0.25500000000E-02 0.  1.
          1   -1    0    0  501    0  0.00000000000E+00 -0.00000000000E+00 -0.27806891250E+02  0.27806891706E+02  0.50400000000E-02 0. -1.
        -24    2    1    2    0    0  0.00000000000E+00  0.00000000000E+00  0.24715927892E+02  0.80329710910E+02  0.76432881428E+02 0.  0.
         66    2    3    3    0    0 -0.18176599506E+02  0.29681777373E+02  0.28887075034E+02  0.45275377225E+02  0.20000002950E+01 0.  0.
         13    1    3    3    0    0  0.18176599506E+02 -0.29681777373E+02 -0.41711471419E+01  0.35054333686E+02  0.10566000000E+00 0. -1.
         13    1    4    4    0    0 -0.85425271724E+01  0.14495002128E+02  0.14749862538E+02  0.22375197565E+02  0.10566000000E+00 0. -1.
        -13    1    4    4    0    0 -0.68847209132E+01  0.11654807080E+02  0.10796694371E+02  0.17315128746E+02  0.10566000000E+00 0.  1.
         14    1    4    4    0    0 -0.27493514206E+01  0.35319681658E+01  0.33405181254E+01  0.55850509133E+01  0.00000000000E+00 0. -1.
<mgrwt>
<rscale>  0 0.76432881E+02</rscale>
<asrwt>0</asrwt>
<pdfrwt beam="1">  1        1 0.42779834E-02 0.76432881E+02</pdfrwt>
<pdfrwt beam="2">  1       -2 0.80804336E-02 0.76432881E+02</pdfrwt>
<totfact> 0.13603712E+05</totfact>
</mgrwt>
</event>
<event>
 8    1  0.7756875E-014  0.7919796E+02  0.7818608E-02  0.1331343E+00
         -2   -1    0    0    0  501 -0.00000000000E+00  0.00000000000E+00  0.14035750695E+03  0.14035750697E+03  0.25500000000E-02 0.  1.
          1   -1    0    0  501    0  0.00000000000E+00 -0.00000000000E+00 -0.11172035041E+02  0.11172036177E+02  0.50400000000E-02 0. -1.
        -24    2    1    2    0    0  0.00000000000E+00  0.00000000000E+00  0.12918547191E+03  0.15152954315E+03  0.79197956381E+02 0.  0.
         66    2    3    3    0    0  0.37846836313E+02  0.96822752574E+01  0.52541409419E+02  0.65503657790E+02  0.20000017602E+01 0.  0.
         13    1    3    3    0    0 -0.37846836313E+02 -0.96822752574E+01  0.76644062488E+02  0.86025885359E+02  0.10566000000E+00 0. -1.
         13    1    4    4    0    0  0.82382802827E+01  0.26002055260E+01  0.10929304514E+02  0.13931661494E+02  0.10566000000E+00 0.  1.
        -13    1    4    4    0    0  0.90487190607E+01  0.18429963332E+01  0.11938327289E+02  0.15093401691E+02  0.10566000000E+00 0. -1.
        -14    1    4    4    0    0  0.20559836969E+02  0.52390733983E+01  0.29673777617E+02  0.36478594605E+02  0.00000000000E+00 0.  1.
<mgrwt>
<rscale>  0 0.79197956E+02</rscale>
<asrwt>0</asrwt>
<pdfrwt beam="1">  1        1 0.17187747E-02 0.79197956E+02</pdfrwt>
<pdfrwt beam="2">  1       -2 0.21593463E-01 0.79197956E+02</pdfrwt>
<totfact> 0.99081468E+04</totfact>
</mgrwt>
</event>
<event>
 8    1  0.7756875E-014  0.7712155E+02  0.7818608E-02  0.1337424E+00
         -2   -1    0    0    0  501 -0.00000000000E+00  0.00000000000E+00  0.50163997955E+03  0.50163997956E+03  0.25500000000E-02 0.  1.
          1   -1    0    0  501    0  0.00000000000E+00 -0.00000000000E+00 -0.29641419318E+01  0.29641462166E+01  0.50400000000E-02 0. -1.
        -24    2    1    2    0    0 -0.35527136788E-14 -0.17763568394E-14  0.49867583762E+03  0.50460412577E+03  0.77121545129E+02 0.  0.
         66    2    3    3    0    0  0.21458468412E+02  0.10868153571E+02  0.44648507630E+03  0.44713701031E+03  0.20000005864E+01 0.  0.
         13    1    3    3    0    0 -0.21458468412E+02 -0.10868153571E+02  0.52190761324E+02  0.57467115468E+02  0.10566000000E+00 0. -1.
         13    1    4    4    0    0  0.84473254348E+01  0.45216419298E+01  0.17697159597E+03  0.17723080854E+03  0.10566000000E+00 0. -1.
        -13    1    4    4    0    0  0.99523713298E+01  0.55351448075E+01  0.20919110177E+03  0.20950087291E+03  0.10566000000E+00 0.  1.
         14    1    4    4    0    0  0.30587716471E+01  0.81136683376E+00  0.60322378551E+02  0.60405328855E+02  0.00000000000E+00 0. -1.
<mgrwt>
<rscale>  0 0.77121545E+02</rscale>
<asrwt>0</asrwt>
<pdfrwt beam="1">  1        1 0.45602259E-03 0.77121545E+02</pdfrwt>
<pdfrwt beam="2">  1       -2 0.77175310E-01 0.77121545E+02</pdfrwt>
<totfact> 0.55243985E+04</totfact>
</mgrwt>
</event>
<event>
 8    1  0.7756875E-014  0.7869170E+02  0.7818608E-02  0.1332806E+00
          1   -1    0    0  501    0  0.00000000000E+00  0.00000000000E+00  0.10413269352E+02  0.10413270572E+02  0.50400000000E-02 0. -1.
         -2   -1    0    0    0  501 -0.00000000000E+00 -0.00000000000E+00 -0.14866566943E+03  0.14866566945E+03  0.25500000000E-02 0.  1.
        -24    2    1    2    0    0 -0.88817841970E-15  0.17763568394E-14 -0.13825240008E+03  0.15907894003E+03  0.78691696080E+02 0.  0.
         66    2    3    3    0    0  0.59406698685E+01 -0.13123364258E+02 -0.14313217361E+03  0.14386915365E+03  0.20000001321E+01 0.  0.
         13    1    3    3    0    0 -0.59406698685E+01  0.13123364258E+02  0.48797735316E+01  0.15209786379E+02  0.10566000000E+00 0. -1.
         13    1    4    4    0    0  0.27559131956E+00 -0.19238985546E+01 -0.22036544173E+02  0.22122336661E+02  0.10566000000E+00 0. -1.
        -13    1    4    4    0    0  0.41341784998E+01 -0.79449093175E+01 -0.89551153762E+02  0.89997962866E+02  0.10566000000E+00 0.  1.
         14    1    4    4    0    0  0.15309000491E+01 -0.32545563861E+01 -0.31544475676E+02  0.31748854120E+02  0.00000000000E+00 0. -1.
<mgrwt>
<rscale>  0 0.78691696E+02</rscale>
<asrwt>0</asrwt>
<pdfrwt beam="1">  1        1 0.16020417E-02 0.78691696E+02</pdfrwt>
<pdfrwt beam="2">  1       -2 0.22871640E-01 0.78691696E+02</pdfrwt>
<totfact> 0.98894005E+04</totfact>
</mgrwt>
</event>
<event>
 8    1  0.7756875E-014  0.7626155E+02  0.7818608E-02  0.1340008E+00
          1   -1    0    0  501    0  0.00000000000E+00  0.00000000000E+00  0.71349006991E+02  0.71349007169E+02  0.50400000000E-02 0. -1.
         -2   -1    0    0    0  501 -0.00000000000E+00 -0.00000000000E+00 -0.20378084515E+02  0.20378084675E+02  0.25500000000E-02 0.  1.
        -24    2    1    2    0    0  0.35527136788E-14  0.00000000000E+00  0.50970922475E+02  0.91727091844E+02  0.76261552830E+02 0.  0.
         66    2    3    3    0    0  0.31240521575E+02 -0.44530094213E+00 -0.73298080799E+00  0.31316221465E+02  0.19999961883E+01 0.  0.
         13    1    3    3    0    0 -0.31240521575E+02  0.44530094213E+00  0.51703903283E+02  0.60410870379E+02  0.10566000000E+00 0. -1.
         13    1    4    4    0    0  0.12860781732E+02  0.36040172762E+00  0.11616919746E+00  0.12866788857E+02  0.10566000000E+00 0. -1.
        -13    1    4    4    0    0  0.56348715663E+01 -0.39542313833E+00 -0.73604082937E+00  0.56974605891E+01  0.10566000000E+00 0.  1.
        -14    1    4    4    0    0  0.12744868276E+02 -0.41027953142E+00 -0.11310917608E+00  0.12751972018E+02  0.00000000000E+00 0.  1.
<mgrwt>
<rscale>  0 0.76261553E+02</rscale>
<asrwt>0</asrwt>
<pdfrwt beam="1">  1        1 0.10976770E-01 0.76261553E+02</pdfrwt>
<pdfrwt beam="2">  1       -2 0.31350900E-02 0.76261553E+02</pdfrwt>
<totfact> 0.15851664E+05</totfact>
</mgrwt>
</event>
<event>
 8    1  0.7756875E-014  0.8284998E+02  0.7818608E-02  0.1321153E+00
          1   -1    0    0  501    0  0.00000000000E+00  0.00000000000E+00  0.12602185112E+02  0.12602186120E+02  0.50400000000E-02 0. -1.
         -2   -1    0    0    0  501 -0.00000000000E+00 -0.00000000000E+00 -0.13616923119E+03  0.13616923121E+03  0.25500000000E-02 0.  1.
        -24    2    1    2    0    0  0.00000000000E+00  0.00000000000E+00 -0.12356704607E+03  0.14877141733E+03  0.82849983337E+02 0.  0.
         66    2    3    3    0    0 -0.12828927953E+02 -0.37588786746E+02 -0.40837962060E+02  0.57002082652E+02  0.20000000030E+01 0.  0.
         13    1    3    3    0    0  0.12828927953E+02  0.37588786746E+02 -0.82729084013E+02  0.91769334677E+02  0.10566000000E+00 0. -1.
         13    1    4    4    0    0 -0.23217536007E+01 -0.50083258532E+01 -0.61346542228E+01  0.82534243865E+01  0.10566000000E+00 0. -1.
        -13    1    4    4    0    0 -0.36248572328E+01 -0.11182567178E+02 -0.12213707975E+02  0.16952145149E+02  0.10566000000E+00 0.  1.
         14    1    4    4    0    0 -0.68823171194E+01 -0.21397893715E+02 -0.22489599863E+02  0.31796513116E+02  0.00000000000E+00 0. -1.
<mgrwt>
<rscale>  0 0.82849983E+02</rscale>
<asrwt>0</asrwt>
<pdfrwt beam="1">  1        1 0.19387979E-02 0.82849983E+02</pdfrwt>
<pdfrwt beam="2">  1       -2 0.20949112E-01 0.82849983E+02</pdfrwt>
<totfact> 0.89064905E+04</totfact>
</mgrwt>
</event>
<event>
 8    1  0.7756875E-014  0.7794850E+02  0.7818608E-02  0.1334976E+00
          1   -1    0    0  501    0  0.00000000000E+00  0.00000000000E+00  0.73923397123E+02  0.73923397295E+02  0.50400000000E-02 0. -1.
         -2   -1    0    0    0  501 -0.00000000000E+00 -0.00000000000E+00 -0.20548194177E+02  0.20548194335E+02  0.25500000000E-02 0.  1.
        -24    2    1    2    0    0  0.00000000000E+00  0.00000000000E+00  0.53375202947E+02  0.94471591630E+02  0.77948504382E+02 0.  0.
         66    2    3    3    0    0 -0.13844720598E+02 -0.24538665495E+02 -0.58869636338E+01  0.28852707576E+02  0.20000002339E+01 0.  0.
         13    1    3    3    0    0  0.13844720598E+02  0.24538665495E+02  0.59262166580E+02  0.65618884054E+02  0.10566000000E+00 0. -1.
         13    1    4    4    0    0 -0.69384620526E+01 -0.13512110821E+02 -0.31731315629E+01  0.15517709961E+02  0.10566000000E+00 0.  1.
        -13    1    4    4    0    0 -0.18868772343E+00 -0.12229345362E+00 -0.43844457123E-01  0.25227984025E+00  0.10566000000E+00 0.  1.
        -14    1    4    4    0    0 -0.67175708215E+01 -0.10904261220E+02 -0.26699876137E+01  0.13082717774E+02  0.00000000000E+00 0.  1.
<mgrwt>
<rscale>  0 0.77948504E+02</rscale>
<asrwt>0</asrwt>
<pdfrwt beam="1">  1        1 0.11372831E-01 0.77948504E+02</pdfrwt>
<pdfrwt beam="2">  1       -2 0.31612606E-02 0.77948504E+02</pdfrwt>
<totfact> 0.15018341E+05</totfact>
</mgrwt>
</event>
<event>
 8    1  0.7756875E-014  0.7834377E+02  0.7818608E-02  0.1333818E+00
          1   -1    0    0  501    0  0.00000000000E+00  0.00000000000E+00  0.99360505452E+01  0.99360518234E+01  0.50400000000E-02 0. -1.
         -2   -1    0    0    0  501 -0.00000000000E+00 -0.00000000000E+00 -0.15443122324E+03  0.15443122326E+03  0.25500000000E-02 0.  1.
        -24    2    1    2    0    0  0.35527136788E-14  0.35527136788E-14 -0.14449517269E+03  0.16436727508E+03  0.78343769289E+02 0.  0.
         66    2    3    3    0    0  0.26901260289E+02 -0.18820826426E+02 -0.11702386070E+03  0.12155856733E+03  0.20000015133E+01 0.  0.
         13    1    3    3    0    0 -0.26901260289E+02  0.18820826426E+02 -0.27471311989E+02  0.42808707747E+02  0.10566000000E+00 0. -1.
         13    1    4    4    0    0  0.27583915665E+01 -0.24167140892E+01 -0.14411338997E+02  0.14871014987E+02  0.10566000000E+00 0. -1.
        -13    1    4    4    0    0  0.61348485471E+01 -0.45986171581E+01 -0.26173266024E+02  0.27273332486E+02  0.10566000000E+00 0.  1.
        -14    1    4    4    0    0  0.18008020176E+02 -0.11805495179E+02 -0.76439255681E+02  0.79414219861E+02  0.00000000000E+00 0.  1.
<mgrwt>
<rscale>  0 0.78343769E+02</rscale>
<asrwt>0</asrwt>
<pdfrwt beam="1">  1        1 0.15286234E-02 0.78343769E+02</pdfrwt>
<pdfrwt beam="2">  1       -2 0.23758648E-01 0.78343769E+02</pdfrwt>
<totfact> 0.98777246E+04</totfact>
</mgrwt>
</event>
<event>
 8    1  0.7756875E-014  0.7955895E+02  0.7818608E-02  0.1330308E+00
         -2   -1    0    0    0  501 -0.00000000000E+00  0.00000000000E+00  0.12019591715E+03  0.12019591718E+03  0.25500000000E-02 0.  1.
          1   -1    0    0  501    0  0.00000000000E+00 -0.00000000000E+00 -0.13165227307E+02  0.13165228271E+02  0.50400000000E-02 0. -1.
        -24    2    1    2    0    0 -0.35527136788E-14  0.00000000000E+00  0.10703068984E+03  0.13336114545E+03  0.79558950137E+02 0.  0.
         66    2    3    3    0    0  0.27095380002E+02 -0.87880083065E+01  0.10003345638E+03  0.10402923198E+03  0.20000010234E+01 0.  0.
         13    1    3    3    0    0 -0.27095380002E+02  0.87880083065E+01  0.69972334649E+01  0.29331913467E+02  0.10566000000E+00 0. -1.
         13    1    4    4    0    0  0.10647338096E+02 -0.38424970003E+01  0.38961828106E+02  0.40572968897E+02  0.10566000000E+00 0. -1.
        -13    1    4    4    0    0  0.13713108332E+02 -0.35961779525E+01  0.49637915643E+02  0.51622821207E+02  0.10566000000E+00 0.  1.
         14    1    4    4    0    0  0.27349335749E+01 -0.13493333537E+01  0.11433712629E+02  0.11833441876E+02  0.00000000000E+00 0. -1.
<mgrwt>
<rscale>  0 0.79558950E+02</rscale>
<asrwt>0</asrwt>
<pdfrwt beam="1">  1        1 0.20254198E-02 0.79558950E+02</pdfrwt>
<pdfrwt beam="2">  1       -2 0.18491679E-01 0.79558950E+02</pdfrwt>
<totfact> 0.10254386E+05</totfact>
</mgrwt>
</event>
<event>
 8    1  0.7756875E-014  0.7963625E+02  0.7818608E-02  0.1330087E+00
          1   -1    0    0  501    0  0.00000000000E+00  0.00000000000E+00  0.53311803190E+02  0.53311803428E+02  0.50400000000E-02 0. -1.
         -2   -1    0    0    0  501 -0.00000000000E+00 -0.00000000000E+00 -0.29739813535E+02  0.29739813644E+02  0.25500000000E-02 0.  1.
        -24    2    1    2    0    0  0.17763568394E-14  0.00000000000E+00  0.23571989655E+02  0.83051617072E+02  0.79636250552E+02 0.  0.
         66    2    3    3    0    0  0.11674890422E+02 -0.16676368723E+02 -0.23864696753E+02  0.31431323373E+02  0.19999994288E+01 0.  0.
         13    1    3    3    0    0 -0.11674890422E+02  0.16676368723E+02  0.47436686408E+02  0.51620293699E+02  0.10566000000E+00 0. -1.
         13    1    4    4    0    0  0.55861098957E+01 -0.69408875089E+01 -0.95642456680E+01  0.13071591426E+02  0.10566000000E+00 0. -1.
        -13    1    4    4    0    0  0.12248056122E+01 -0.16254729234E+01 -0.29586335030E+01  0.35926295736E+01  0.10566000000E+00 0.  1.
        -14    1    4    4    0    0  0.48639749144E+01 -0.81100082910E+01 -0.11341817582E+02  0.14767102374E+02  0.00000000000E+00 0.  1.
<mgrwt>
<rscale>  0 0.79636251E+02</rscale>
<asrwt>0</asrwt>
<pdfrwt beam="1">  1        1 0.82018158E-02 0.79636251E+02</pdfrwt>
<pdfrwt beam="2">  1       -2 0.45753560E-02 0.79636251E+02</pdfrwt>
<totfact> 0.13459155E+05</totfact>
</mgrwt>
</event>
<event>
 8    1  0.7756875E-014  0.8150900E+02  0.7818608E-02  0.1324823E+00
          1   -1    0    0  501    0  0.00000000000E+00  0.00000000000E+00  0.17708296688E+03  0.17708296695E+03  0.50400000000E-02 0. -1.
         -2   -1    0    0    0  501 -0.00000000000E+00 -0.00000000000E+00 -0.93793841438E+01  0.93793844904E+01  0.25500000000E-02 0.  1.
        -24    2    1    2    0    0  0.35527136788E-14  0.00000000000E+00  0.16770358273E+03  0.18646235144E+03  0.81508998538E+02 0.  0.
         66    2    3    3    0    0  0.19047727189E+02 -0.32567121523E+02  0.48796835683E+02  0.61713567984E+02  0.19999963305E+01 0.  0.
         13    1    3    3    0    0 -0.19047727189E+02  0.32567121523E+02  0.11890674705E+03  0.12474878345E+03  0.10566000000E+00 0. -1.
         13    1    4    4    0    0  0.26807633812E+01 -0.52713871936E+01  0.84347185772E+01  0.10301924906E+02  0.10566000000E+00 0. -1.
        -13    1    4    4    0    0  0.48810653841E+01 -0.90329737620E+01  0.13280383293E+02  0.16786874597E+02  0.10566000000E+00 0.  1.
        -14    1    4    4    0    0  0.11485898424E+02 -0.18262760567E+02  0.27081733812E+02  0.34624768482E+02  0.00000000000E+00 0.  1.
<mgrwt>
<rscale>  0 0.81508999E+02</rscale>
<asrwt>0</asrwt>
<pdfrwt beam="1">  1        1 0.27243531E-01 0.81508999E+02</pdfrwt>
<pdfrwt beam="2">  1       -2 0.14429823E-02 0.81508999E+02</pdfrwt>
<totfact> 0.15496192E+05</totfact>
</mgrwt>
</event>
<event>
 8    1  0.7756875E-014  0.8099922E+02  0.7818608E-02  0.1326239E+00
         -2   -1    0    0    0  501 -0.00000000000E+00  0.00000000000E+00  0.93060795778E+02  0.93060795813E+02  0.25500000000E-02 0.  1.
          1   -1    0    0  501    0  0.00000000000E+00 -0.00000000000E+00 -0.17625232775E+02  0.17625233496E+02  0.50400000000E-02 0. -1.
        -24    2    1    2    0    0  0.71054273576E-14  0.35527136788E-14  0.75435563003E+02  0.11068602931E+03  0.80999215543E+02 0.  0.
         66    2    3    3    0    0 -0.29998971732E+02  0.19246420910E+02  0.63949535558E+02  0.73238692777E+02  0.19999996976E+01 0.  0.
         13    1    3    3    0    0  0.29998971732E+02 -0.19246420910E+02  0.11486027444E+02  0.37447336531E+02  0.10566000000E+00 0. -1.
         13    1    4    4    0    0 -0.36083475176E+01  0.28974628497E+01  0.90654141257E+01  0.10178819189E+02  0.10566000000E+00 0. -1.
        -13    1    4    4    0    0 -0.76114444488E+01  0.49724699904E+01  0.15605591531E+02  0.18061151554E+02  0.10566000000E+00 0.  1.
         14    1    4    4    0    0 -0.18779179765E+02  0.11376488070E+02  0.39278529901E+02  0.44998722034E+02  0.00000000000E+00 0. -1.
<mgrwt>
<rscale>  0 0.80999216E+02</rscale>
<asrwt>0</asrwt>
<pdfrwt beam="1">  1        1 0.27115743E-02 0.80999216E+02</pdfrwt>
<pdfrwt beam="2">  1       -2 0.14317046E-01 0.80999216E+02</pdfrwt>
<totfact> 0.10462329E+05</totfact>
</mgrwt>
</event>
<event>
 8    1  0.7756875E-014  0.8505958E+02  0.7818608E-02  0.1315277E+00
         -2   -1    0    0    0  501 -0.00000000000E+00  0.00000000000E+00  0.20053253407E+03  0.20053253408E+03  0.25500000000E-02 0.  1.
          1   -1    0    0  501    0  0.00000000000E+00 -0.00000000000E+00 -0.90198964347E+01  0.90198978428E+01  0.50400000000E-02 0. -1.
        -24    2    1    2    0    0  0.00000000000E+00  0.35527136788E-14  0.19151263763E+03  0.20955243192E+03  0.85059575317E+02 0.  0.
         66    2    3    3    0    0  0.27680241450E+02 -0.19365003810E+02  0.15936695994E+03  0.16292030890E+03  0.19999982462E+01 0.  0.
         13    1    3    3    0    0 -0.27680241450E+02  0.19365003810E+02  0.32145677690E+02  0.46632123022E+02  0.10566000000E+00 0. -1.
         13    1    4    4    0    0  0.51838481760E+01 -0.27982128571E+01  0.27027039469E+02  0.27661784172E+02  0.10566000000E+00 0. -1.
        -13    1    4    4    0    0  0.56878104346E+01 -0.45180433905E+01  0.34920362542E+02  0.35668007902E+02  0.10566000000E+00 0.  1.
         14    1    4    4    0    0  0.16808582840E+02 -0.12048747563E+02  0.97419557929E+02  0.99590516828E+02  0.00000000000E+00 0. -1.
<mgrwt>
<rscale>  0 0.85059575E+02</rscale>
<asrwt>0</asrwt>
<pdfrwt beam="1">  1        1 0.13876764E-02 0.85059575E+02</pdfrwt>
<pdfrwt beam="2">  1       -2 0.30851160E-01 0.85059575E+02</pdfrwt>
<totfact> 0.72528600E+04</totfact>
</mgrwt>
</event>
<event>
 8    1  0.7756875E-014  0.7901030E+02  0.7818608E-02  0.1331884E+00
         -2   -1    0    0    0  501 -0.00000000000E+00  0.00000000000E+00  0.83944458455E+01  0.83944462328E+01  0.25500000000E-02 0.  1.
          1   -1    0    0  501    0  0.00000000000E+00 -0.00000000000E+00 -0.18591540091E+03  0.18591540098E+03  0.50400000000E-02 0. -1.
        -24    2    1    2    0    0  0.00000000000E+00 -0.33306690739E-15 -0.17752095507E+03  0.19430984721E+03  0.79010298293E+02 0.  0.
         66    2    3    3    0    0 -0.38823937844E+02  0.96073459450E+00 -0.10628179171E+03  0.11317261334E+03  0.20000001562E+01 0.  0.
         13    1    3    3    0    0  0.38823937844E+02 -0.96073459450E+00 -0.71239163356E+02  0.81137233872E+02  0.10566000000E+00 0. -1.
         13    1    4    4    0    0 -0.66605359191E+00  0.57097483082E-01 -0.21304364575E+01  0.22353547918E+01  0.10566000000E+00 0.  1.
        -13    1    4    4    0    0 -0.23961634287E+02 -0.14301472981E+00 -0.64287540505E+02  0.68608158401E+02  0.10566000000E+00 0.  1.
        -14    1    4    4    0    0 -0.14196249965E+02  0.10466518412E+01 -0.39863814750E+02  0.42329100150E+02  0.00000000000E+00 0.  1.
<mgrwt>
<rscale>  0 0.79010298E+02</rscale>
<asrwt>0</asrwt>
<pdfrwt beam="1">  1        1 0.28602366E-01 0.79010298E+02</pdfrwt>
<pdfrwt beam="2">  1       -2 0.12914534E-02 0.79010298E+02</pdfrwt>
<totfact> 0.16993056E+05</totfact>
</mgrwt>
</event>
<event>
 8    1  0.7756875E-014  0.8041938E+02  0.7818608E-02  0.1327865E+00
         -2   -1    0    0    0  501 -0.00000000000E+00  0.00000000000E+00  0.13407914853E+02  0.13407915095E+02  0.25500000000E-02 0.  1.
          1   -1    0    0  501    0  0.00000000000E+00 -0.00000000000E+00 -0.12058691267E+03  0.12058691277E+03  0.50400000000E-02 0. -1.
        -24    2    1    2    0    0 -0.35527136788E-14  0.71054273576E-14 -0.10717899781E+03  0.13399482787E+03  0.80419377783E+02 0.  0.
         66    2    3    3    0    0  0.29426976306E+02 -0.23597553275E+02 -0.30533634304E+02  0.48570508341E+02  0.20000003988E+01 0.  0.
         13    1    3    3    0    0 -0.29426976306E+02  0.23597553275E+02 -0.76645363511E+02  0.85424319528E+02  0.10566000000E+00 0. -1.
         13    1    4    4    0    0  0.11900015115E+02 -0.93531489950E+01 -0.12809984879E+02  0.19829236811E+02  0.10566000000E+00 0. -1.
        -13    1    4    4    0    0  0.15480590603E+02 -0.12386320761E+02 -0.16063205870E+02  0.25516805722E+02  0.10566000000E+00 0.  1.
         14    1    4    4    0    0  0.20463705877E+01 -0.18580835183E+01 -0.16604435552E+01  0.32244658074E+01  0.00000000000E+00 0. -1.
<mgrwt>
<rscale>  0 0.80419378E+02</rscale>
<asrwt>0</asrwt>
<pdfrwt beam="1">  1        1 0.18551832E-01 0.80419378E+02</pdfrwt>
<pdfrwt beam="2">  1       -2 0.20627562E-02 0.80419378E+02</pdfrwt>
<totfact> 0.14967504E+05</totfact>
</mgrwt>
</event>
<event>
 8    1  0.7756875E-014  0.7621608E+02  0.7818608E-02  0.1340146E+00
         -2   -1    0    0    0  501 -0.00000000000E+00  0.00000000000E+00  0.79681521471E+01  0.79681525551E+01  0.25500000000E-02 0.  1.
          1   -1    0    0  501    0  0.00000000000E+00 -0.00000000000E+00 -0.18225337534E+03  0.18225337541E+03  0.50400000000E-02 0. -1.
        -24    2    1    2    0    0  0.00000000000E+00  0.00000000000E+00 -0.17428522319E+03  0.19022152796E+03  0.76216078866E+02 0.  0.
         66    2    3    3    0    0 -0.37404753852E+02  0.42978389295E+01 -0.72945503230E+02  0.82113540117E+02  0.19999997265E+01 0.  0.
         13    1    3    3    0    0  0.37404753852E+02 -0.42978389295E+01 -0.10133971996E+03  0.10810798785E+03  0.10566000000E+00 0. -1.
         13    1    4    4    0    0 -0.10445413518E+02  0.16070914591E+01 -0.19910587494E+02  0.22541784865E+02  0.10566000000E+00 0. -1.
        -13    1    4    4    0    0 -0.80420320871E+01  0.35903529938E+00 -0.14724524661E+02  0.16781715555E+02  0.10566000000E+00 0.  1.
        -14    1    4    4    0    0 -0.18917308247E+02  0.23317121711E+01 -0.38310391075E+02  0.42790039697E+02  0.00000000000E+00 0.  1.
<mgrwt>
<rscale>  0 0.76216079E+02</rscale>
<asrwt>0</asrwt>
<pdfrwt beam="1">  1        1 0.28038978E-01 0.76216079E+02</pdfrwt>
<pdfrwt beam="2">  1       -2 0.12258697E-02 0.76216079E+02</pdfrwt>
<totfact> 0.18623845E+05</totfact>
</mgrwt>
</event>
<event>
 8    1  0.7756875E-014  0.7962628E+02  0.7818608E-02  0.1330115E+00
         -2   -1    0    0    0  501 -0.00000000000E+00  0.00000000000E+00  0.33910891951E+01  0.33910901539E+01  0.25500000000E-02 0.  1.
          1   -1    0    0  501    0  0.00000000000E+00 -0.00000000000E+00 -0.46742682013E+03  0.46742682016E+03  0.50400000000E-02 0. -1.
        -24    2    1    2    0    0 -0.35527136788E-14  0.00000000000E+00 -0.46403573093E+03  0.47081791031E+03  0.79626283885E+02 0.  0.
         66    2    3    3    0    0  0.19833976858E+02  0.34406993302E+02 -0.24646938543E+03  0.24965653555E+03  0.19999905447E+01 0.  0.
         13    1    3    3    0    0 -0.19833976858E+02 -0.34406993302E+02 -0.21756634550E+03  0.22116137476E+03  0.10566000000E+00 0. -1.
         13    1    4    4    0    0  0.66069468516E+00  0.14030925683E+01 -0.89999385523E+01  0.91331946329E+01  0.10566000000E+00 0.  1.
        -13    1    4    4    0    0  0.17769462999E+02  0.29786334854E+02 -0.21731866492E+03  0.22006906381E+03  0.10566000000E+00 0. -1.
         14    1    4    4    0    0  0.14038191735E+01  0.32175658796E+01 -0.20150781953E+02  0.20454277102E+02  0.00000000000E+00 0. -1.
<mgrwt>
<rscale>  0 0.79626284E+02</rscale>
<asrwt>0</asrwt>
<pdfrwt beam="1">  1        1 0.71911768E-01 0.79626284E+02</pdfrwt>
<pdfrwt beam="2">  1       -2 0.52170648E-03 0.79626284E+02</pdfrwt>
<totfact> 0.19682361E+05</totfact>
</mgrwt>
</event>
<event>
 8    1  0.7756875E-014  0.7964887E+02  0.7818608E-02  0.1330051E+00
          1   -1    0    0  501    0  0.00000000000E+00  0.00000000000E+00  0.17354337056E+02  0.17354337788E+02  0.50400000000E-02 0. -1.
         -2   -1    0    0    0  501 -0.00000000000E+00 -0.00000000000E+00 -0.91388432331E+02  0.91388432366E+02  0.25500000000E-02 0.  1.
        -24    2    1    2    0    0  0.00000000000E+00  0.00000000000E+00 -0.74034095275E+02  0.10874277015E+03  0.79648871917E+02 0.  0.
         66    2    3    3    0    0  0.11878722918E+02 -0.74052672200E+01 -0.87905615825E+02  0.89035606807E+02  0.19999862803E+01 0.  0.
         13    1    3    3    0    0 -0.11878722918E+02  0.74052672200E+01  0.13871520551E+02  0.19707163347E+02  0.10566000000E+00 0. -1.
         13    1    4    4    0    0  0.61362308277E+00 -0.10563190042E+00 -0.49297101810E+01  0.49699997877E+01  0.10566000000E+00 0. -1.
        -13    1    4    4    0    0  0.68776040763E+01 -0.45268198595E+01 -0.54880428170E+02  0.55494739355E+02  0.10566000000E+00 0.  1.
        -14    1    4    4    0    0  0.43874957589E+01 -0.27728154600E+01 -0.28095477474E+02  0.28570867664E+02  0.00000000000E+00 0.  1.
<mgrwt>
<rscale>  0 0.79648872E+02</rscale>
<asrwt>0</asrwt>
<pdfrwt beam="1">  1        1 0.26698981E-02 0.79648872E+02</pdfrwt>
<pdfrwt beam="2">  1       -2 0.14059759E-01 0.79648872E+02</pdfrwt>
<totfact> 0.10968579E+05</totfact>
</mgrwt>
</event>
<event>
 8    1  0.7756875E-014  0.7922894E+02  0.7818608E-02  0.1331254E+00
          1   -1    0    0  501    0  0.00000000000E+00  0.00000000000E+00  0.19135113002E+02  0.19135113665E+02  0.50400000000E-02 0. -1.
         -2   -1    0    0    0  501 -0.00000000000E+00 -0.00000000000E+00 -0.82011857186E+02  0.82011857225E+02  0.25500000000E-02 0.  1.
        -24    2    1    2    0    0 -0.35527136788E-14  0.17763568394E-14 -0.62876744184E+02  0.10114697089E+03  0.79228938912E+02 0.  0.
         66    2    3    3    0    0  0.16417332730E+02  0.13553484521E+02 -0.74069803698E+02  0.77094496965E+02  0.19999714575E+01 0.  0.
         13    1    3    3    0    0 -0.16417332730E+02 -0.13553484521E+02  0.11193059514E+02  0.24052473925E+02  0.10566000000E+00 0. -1.
         13    1    4    4    0    0  0.25327759399E+01  0.26586318268E+01 -0.13195508678E+02  0.13697295005E+02  0.10566000000E+00 0. -1.
        -13    1    4    4    0    0  0.31616057726E+01  0.32165712990E+01 -0.14770001372E+02  0.15443645507E+02  0.10566000000E+00 0.  1.
        -14    1    4    4    0    0  0.10722951017E+02  0.76782813947E+01 -0.46104293648E+02  0.47953556453E+02  0.00000000000E+00 0.  1.
<mgrwt>
<rscale>  0 0.79228939E+02</rscale>
<asrwt>0</asrwt>
<pdfrwt beam="1">  1        1 0.29438636E-02 0.79228939E+02</pdfrwt>
<pdfrwt beam="2">  1       -2 0.12617209E-01 0.79228939E+02</pdfrwt>
<totfact> 0.11393656E+05</totfact>
</mgrwt>
</event>
<event>
 8    1  0.7756875E-014  0.8794921E+02  0.7818608E-02  0.1307895E+00
          1   -1    0    0  501    0  0.00000000000E+00  0.00000000000E+00  0.18634409362E+02  0.18634410043E+02  0.50400000000E-02 0. -1.
         -2   -1    0    0    0  501 -0.00000000000E+00 -0.00000000000E+00 -0.10377392323E+03  0.10377392326E+03  0.25500000000E-02 0.  1.
        -24    2    1    2    0    0  0.00000000000E+00  0.00000000000E+00 -0.85139513865E+02  0.12240833330E+03  0.87949208299E+02 0.  0.
         66    2    3    3    0    0  0.32790578627E+02  0.25082520653E+02 -0.63580135407E+02  0.75833953514E+02  0.19999995546E+01 0.  0.
         13    1    3    3    0    0 -0.32790578627E+02 -0.25082520653E+02 -0.21559378457E+02  0.46574379786E+02  0.10566000000E+00 0. -1.
         13    1    4    4    0    0  0.17784232706E+01  0.14271759365E+01 -0.42565644863E+01  0.48300233690E+01  0.10566000000E+00 0.  1.
        -13    1    4    4    0    0  0.14730182774E+02  0.10856523628E+02 -0.28504935566E+02  0.33873070506E+02  0.10566000000E+00 0.  1.
         14    1    4    4    0    0  0.16281972583E+02  0.12798821088E+02 -0.30818635355E+02  0.37130859640E+02  0.00000000000E+00 0. -1.
<mgrwt>
<rscale>  0 0.87949208E+02</rscale>
<asrwt>0</asrwt>
<pdfrwt beam="1">  1        1 0.28668323E-02 0.87949208E+02</pdfrwt>
<pdfrwt beam="2">  1       -2 0.15965219E-01 0.87949208E+02</pdfrwt>
<totfact> 0.82457724E+04</totfact>
</mgrwt>
</event>
<event>
 8    1  0.7756875E-014  0.7926636E+02  0.7818608E-02  0.1331146E+00
         -2   -1    0    0    0  501 -0.00000000000E+00  0.00000000000E+00  0.29285731497E+03  0.29285731498E+03  0.25500000000E-02 0.  1.
          1   -1    0    0  501    0  0.00000000000E+00 -0.00000000000E+00 -0.53636651286E+01  0.53636674966E+01  0.50400000000E-02 0. -1.
        -24    2    1    2    0    0  0.00000000000E+00  0.35527136788E-14  0.28749364984E+03  0.29822098248E+03  0.79266359137E+02 0.  0.
         66    2    3    3    0    0 -0.13660256010E+02  0.16367627285E+02  0.26942571472E+03  0.27027526258E+03  0.19999979881E+01 0.  0.
         13    1    3    3    0    0  0.13660256010E+02 -0.16367627285E+02  0.18067935124E+02  0.27945719902E+02  0.10566000000E+00 0. -1.
         13    1    4    4    0    0 -0.38531677928E+01  0.50262904877E+01  0.71500266435E+02  0.71780288119E+02  0.10566000000E+00 0. -1.
        -13    1    4    4    0    0 -0.59702413685E+01  0.64801240365E+01  0.12135060806E+03  0.12167011560E+03  0.10566000000E+00 0.  1.
        -14    1    4    4    0    0 -0.38368468483E+01  0.48612127605E+01  0.76574840223E+02  0.76824858857E+02  0.00000000000E+00 0.  1.
<mgrwt>
<rscale>  0 0.79266359E+02</rscale>
<asrwt>0</asrwt>
<pdfrwt beam="1">  1        1 0.82517921E-03 0.79266359E+02</pdfrwt>
<pdfrwt beam="2">  1       -2 0.45054984E-01 0.79266359E+02</pdfrwt>
<totfact> 0.72902899E+04</totfact>
</mgrwt>
</event>
<event>
 8    1  0.7756875E-014  0.7983263E+02  0.7818608E-02  0.1329527E+00
          1   -1    0    0  501    0  0.00000000000E+00  0.00000000000E+00  0.21192787499E+02  0.21192788098E+02  0.50400000000E-02 0. -1.
         -2   -1    0    0    0  501 -0.00000000000E+00 -0.00000000000E+00 -0.75181806029E+02  0.75181806072E+02  0.25500000000E-02 0.  1.
        -24    2    1    2    0    0  0.00000000000E+00  0.00000000000E+00 -0.53989018530E+02  0.96374594171E+02  0.79832626662E+02 0.  0.
         66    2    3    3    0    0 -0.30267134291E+02  0.91672953925E+01 -0.56363407570E+02  0.64660439439E+02  0.19999981444E+01 0.  0.
         13    1    3    3    0    0  0.30267134291E+02 -0.91672953925E+01  0.23743890400E+01  0.31714154731E+02  0.10566000000E+00 0. -1.
         13    1    4    4    0    0 -0.92164674339E+01  0.21138266323E+01 -0.17880291237E+02  0.20226900745E+02  0.10566000000E+00 0. -1.
        -13    1    4    4    0    0 -0.10648391715E+02  0.37328421550E+01 -0.20179862898E+02  0.23120562002E+02  0.10566000000E+00 0.  1.
         14    1    4    4    0    0 -0.10402275141E+02  0.33206266052E+01 -0.18303253436E+02  0.21312976693E+02  0.00000000000E+00 0. -1.
<mgrwt>
<rscale>  0 0.79832627E+02</rscale>
<asrwt>0</asrwt>
<pdfrwt beam="1">  1        1 0.32604289E-02 0.79832627E+02</pdfrwt>
<pdfrwt beam="2">  1       -2 0.11566432E-01 0.79832627E+02</pdfrwt>
<totfact> 0.11384876E+05</totfact>
</mgrwt>
</event>
<event>
 8    1  0.7756875E-014  0.7767599E+02  0.7818608E-02  0.1335779E+00
          1   -1    0    0  501    0  0.00000000000E+00  0.00000000000E+00  0.17842720879E+01  0.17842792061E+01  0.50400000000E-02 0. -1.
         -2   -1    0    0    0  501 -0.00000000000E+00 -0.00000000000E+00 -0.84537948645E+03  0.84537948645E+03  0.25500000000E-02 0.  1.
        -24    2    1    2    0    0  0.00000000000E+00  0.00000000000E+00 -0.84359521436E+03  0.84716376566E+03  0.77675994699E+02 0.  0.
         66    2    3    3    0    0 -0.14908049802E+01 -0.17943912358E+02 -0.79706854507E+03  0.79727440197E+03  0.20000004066E+01 0.  0.
         13    1    3    3    0    0  0.14908049802E+01  0.17943912358E+02 -0.46526669289E+02  0.49889363690E+02  0.10566000000E+00 0. -1.
         13    1    4    4    0    0  0.20130971958E+00 -0.70468250158E+01 -0.33532991053E+03  0.33540402253E+03  0.10566000000E+00 0. -1.
        -13    1    4    4    0    0 -0.13008417142E+01 -0.77529387676E+01 -0.32715694653E+03  0.32725140042E+03  0.10566000000E+00 0.  1.
        -14    1    4    4    0    0 -0.39127298553E+00 -0.31441485749E+01 -0.13458168801E+03  0.13461897902E+03  0.00000000000E+00 0.  1.
<mgrwt>
<rscale>  0 0.77675995E+02</rscale>
<asrwt>0</asrwt>
<pdfrwt beam="1">  1        1 0.27450462E-03 0.77675995E+02</pdfrwt>
<pdfrwt beam="2">  1       -2 0.13005806E+00 0.77675995E+02</pdfrwt>
<totfact> 0.33866238E+04</totfact>
</mgrwt>
</event>
<event>
 8    1  0.7756875E-014  0.7957968E+02  0.7818608E-02  0.1330248E+00
          1   -1    0    0  501    0  0.00000000000E+00  0.00000000000E+00  0.29380359828E+02  0.29380360260E+02  0.50400000000E-02 0. -1.
         -2   -1    0    0    0  501 -0.00000000000E+00 -0.00000000000E+00 -0.53887400157E+02  0.53887400217E+02  0.25500000000E-02 0.  1.
        -24    2    1    2    0    0 -0.44408920985E-15  0.71054273576E-14 -0.24507040329E+02  0.83267760477E+02  0.79579676484E+02 0.  0.
         66    2    3    3    0    0 -0.32226431589E+01  0.37165000650E+02  0.21465718468E+01  0.37419653556E+02  0.19999998156E+01 0.  0.
         13    1    3    3    0    0  0.32226431589E+01 -0.37165000650E+02 -0.26653612176E+02  0.45848106922E+02  0.10566000000E+00 0. -1.
         13    1    4    4    0    0 -0.34096697002E+00  0.85019151397E+01  0.88637928047E+00  0.85554457384E+01  0.10566000000E+00 0. -1.
        -13    1    4    4    0    0 -0.24750407646E+01  0.26504338065E+02  0.14499250170E+01  0.26659317501E+02  0.10566000000E+00 0.  1.
         14    1    4    4    0    0 -0.40663542428E+00  0.21587474456E+01 -0.18973245068E+00  0.22048903159E+01  0.00000000000E+00 0. -1.
<mgrwt>
<rscale>  0 0.79579676E+02</rscale>
<asrwt>0</asrwt>
<pdfrwt beam="1">  1        1 0.45200554E-02 0.79579676E+02</pdfrwt>
<pdfrwt beam="2">  1       -2 0.82903693E-02 0.79579676E+02</pdfrwt>
<totfact> 0.12234032E+05</totfact>
</mgrwt>
</event>
<event>
 8    1  0.7756875E-014  0.7966965E+02  0.7818608E-02  0.1329992E+00
         -2   -1    0    0    0  501 -0.00000000000E+00  0.00000000000E+00  0.16581714974E+03  0.16581714976E+03  0.25500000000E-02 0.  1.
          1   -1    0    0  501    0  0.00000000000E+00 -0.00000000000E+00 -0.95696557859E+01  0.95696571131E+01  0.50400000000E-02 0. -1.
        -24    2    1    2    0    0  0.17763568394E-14  0.11102230246E-15  0.15624749396E+03  0.17538680687E+03  0.79669647032E+02 0.  0.
         66    2    3    3    0    0  0.12104795091E+02  0.55037434436E+00  0.16165243804E+03  0.16211828922E+03  0.19999997794E+01 0.  0.
         13    1    3    3    0    0 -0.12104795091E+02 -0.55037434436E+00 -0.54049440860E+01  0.13268517653E+02  0.10566000000E+00 0. -1.
         13    1    4    4    0    0  0.22865930926E+01  0.64574358962E+00  0.30646640556E+02  0.30738790382E+02  0.10566000000E+00 0. -1.
        -13    1    4    4    0    0  0.19215198666E+01  0.44075884818E+00  0.28959912337E+02  0.29027128580E+02  0.10566000000E+00 0.  1.
         14    1    4    4    0    0  0.78966821313E+01 -0.53612809343E+00  0.10204588515E+03  0.10235237026E+03  0.00000000000E+00 0. -1.
<mgrwt>
<rscale>  0 0.79669647E+02</rscale>
<asrwt>0</asrwt>
<pdfrwt beam="1">  1        1 0.14722549E-02 0.79669647E+02</pdfrwt>
<pdfrwt beam="2">  1       -2 0.25510329E-01 0.79669647E+02</pdfrwt>
<totfact> 0.92316072E+04</totfact>
</mgrwt>
</event>
<event>
 8    1  0.7756875E-014  0.7976046E+02  0.7818608E-02  0.1329733E+00
          1   -1    0    0  501    0  0.00000000000E+00  0.00000000000E+00  0.20722392798E+03  0.20722392804E+03  0.50400000000E-02 0. -1.
         -2   -1    0    0    0  501 -0.00000000000E+00 -0.00000000000E+00 -0.76749475542E+01  0.76749479779E+01  0.25500000000E-02 0.  1.
        -24    2    1    2    0    0 -0.35527136788E-14 -0.35527136788E-14  0.19954898042E+03  0.21489887602E+03  0.79760462168E+02 0.  0.
         66    2    3    3    0    0  0.31521271663E+02 -0.21449428316E+02  0.68559988593E+02  0.78473820814E+02  0.19999937333E+01 0.  0.
         13    1    3    3    0    0 -0.31521271663E+02  0.21449428316E+02  0.13098899183E+03  0.13642505520E+03  0.10566000000E+00 0. -1.
         13    1    4    4    0    0  0.66170309882E+01 -0.46695109286E+01  0.13850269697E+02  0.16044642911E+02  0.10566000000E+00 0. -1.
        -13    1    4    4    0    0  0.16874920278E+02 -0.10830251737E+02  0.35281769270E+02  0.40581666969E+02  0.10566000000E+00 0.  1.
         14    1    4    4    0    0  0.80293203962E+01 -0.59496656506E+01  0.19427949626E+02  0.21847510935E+02  0.00000000000E+00 0. -1.
<mgrwt>
<rscale>  0 0.79760462E+02</rscale>
<asrwt>0</asrwt>
<pdfrwt beam="1">  1        1 0.31880604E-01 0.79760462E+02</pdfrwt>
<pdfrwt beam="2">  1       -2 0.11807612E-02 0.79760462E+02</pdfrwt>
<totfact> 0.16923392E+05</totfact>
</mgrwt>
</event>
<event>
 8    1  0.7756875E-014  0.7680800E+02  0.7818608E-02  0.1338362E+00
         -2   -1    0    0    0  501 -0.00000000000E+00  0.00000000000E+00  0.56047936775E+01  0.56047942576E+01  0.25500000000E-02 0.  1.
          1   -1    0    0  501    0  0.00000000000E+00 -0.00000000000E+00 -0.26314387201E+03  0.26314387206E+03  0.50400000000E-02 0. -1.
        -24    2    1    2    0    0 -0.17763568394E-14 -0.35527136788E-14 -0.25753907834E+03  0.26874866632E+03  0.76807999442E+02 0.  0.
         66    2    3    3    0    0  0.14177079930E+02  0.30812948656E+02 -0.66027499456E+02  0.74256703994E+02  0.20000008372E+01 0.  0.
         13    1    3    3    0    0 -0.14177079930E+02 -0.30812948656E+02 -0.19151157888E+03  0.19449196233E+03  0.10566000000E+00 0. -1.
         13    1    4    4    0    0  0.10495054917E+02  0.24258464447E+02 -0.51879978178E+02  0.58225102618E+02  0.10566000000E+00 0. -1.
        -13    1    4    4    0    0  0.32400851452E+01  0.60349317646E+01 -0.13065692532E+02  0.14752695975E+02  0.10566000000E+00 0.  1.
         14    1    4    4    0    0  0.44193986771E+00  0.51955244419E+00 -0.10818287459E+01  0.12789054009E+01  0.00000000000E+00 0. -1.
<mgrwt>
<rscale>  0 0.76807999E+02</rscale>
<asrwt>0</asrwt>
<pdfrwt beam="1">  1        1 0.40483663E-01 0.76807999E+02</pdfrwt>
<pdfrwt beam="2">  1       -2 0.86227620E-03 0.76807999E+02</pdfrwt>
<totfact> 0.19583311E+05</totfact>
</mgrwt>
</event>
<event>
 8    1  0.7756875E-014  0.7539532E+02  0.7818608E-02  0.1342651E+00
         -2   -1    0    0    0  501 -0.00000000000E+00  0.00000000000E+00  0.64660352168E+01  0.64660357197E+01  0.25500000000E-02 0.  1.
          1   -1    0    0  501    0  0.00000000000E+00 -0.00000000000E+00 -0.21978130942E+03  0.21978130948E+03  0.50400000000E-02 0. -1.
        -24    2    1    2    0    0  0.00000000000E+00  0.17763568394E-14 -0.21331527420E+03  0.22624734520E+03  0.75395324792E+02 0.  0.
         66    2    3    3    0    0  0.35149769876E+02 -0.11757773230E+02 -0.86522645270E+02  0.94148391873E+02  0.19999984995E+01 0.  0.
         13    1    3    3    0    0 -0.35149769876E+02  0.11757773230E+02 -0.12679262893E+03  0.13209895332E+03  0.10566000000E+00 0. -1.
         13    1    4    4    0    0  0.17181424996E+02 -0.56680642252E+01 -0.42167691910E+02  0.45885223351E+02  0.10566000000E+00 0.  1.
        -13    1    4    4    0    0  0.10732249235E+02 -0.31047381150E+01 -0.24850687779E+02  0.27246805676E+02  0.10566000000E+00 0. -1.
         14    1    4    4    0    0  0.72360956454E+01 -0.29849708897E+01 -0.19504265581E+02  0.21016362846E+02  0.00000000000E+00 0. -1.
<mgrwt>
<rscale>  0 0.75395325E+02</rscale>
<asrwt>0</asrwt>
<pdfrwt beam="1">  1        1 0.33812504E-01 0.75395325E+02</pdfrwt>
<pdfrwt beam="2">  1       -2 0.99477486E-03 0.75395325E+02</pdfrwt>
<totfact> 0.19862015E+05</totfact>
</mgrwt>
</event>
<event>
 8    1  0.7756875E-014  0.8039614E+02  0.7818608E-02  0.1327931E+00
          1   -1    0    0  501    0  0.00000000000E+00  0.00000000000E+00  0.21774242319E+03  0.21774242325E+03  0.50400000000E-02 0. -1.
         -2   -1    0    0    0  501 -0.00000000000E+00 -0.00000000000E+00 -0.74210836989E+01  0.74210841370E+01  0.25500000000E-02 0.  1.
        -24    2    1    2    0    0 -0.22204460493E-15  0.00000000000E+00  0.21032133949E+03  0.22516350739E+03  0.80396139291E+02 0.  0.
         66    2    3    3    0    0 -0.18610440762E+01  0.40005267494E+02  0.96371301035E+02  0.10438061398E+03  0.19999996081E+01 0.  0.
         13    1    3    3    0    0  0.18610440762E+01 -0.40005267494E+02  0.11395003846E+03  0.12078289341E+03  0.10566000000E+00 0. -1.
         13    1    4    4    0    0 -0.90033745985E+00  0.24224707343E+02  0.58275776130E+02  0.63116751350E+02  0.10566000000E+00 0.  1.
        -13    1    4    4    0    0  0.20664143604E-01  0.47394711853E+01  0.12632932774E+02  0.13493152657E+02  0.10566000000E+00 0. -1.
        -14    1    4    4    0    0 -0.98137075992E+00  0.11041088966E+02  0.25462592131E+02  0.27770709968E+02  0.00000000000E+00 0.  1.
<mgrwt>
<rscale>  0 0.80396139E+02</rscale>
<asrwt>0</asrwt>
<pdfrwt beam="1">  1        1 0.33498833E-01 0.80396139E+02</pdfrwt>
<pdfrwt beam="2">  1       -2 0.11417053E-02 0.80396139E+02</pdfrwt>
<totfact> 0.16731520E+05</totfact>
</mgrwt>
</event>
<event>
 8    1  0.7756875E-014  0.8047290E+02  0.7818608E-02  0.1327715E+00
         -2   -1    0    0    0  501 -0.00000000000E+00  0.00000000000E+00  0.69165328545E+01  0.69165333246E+01  0.25500000000E-02 0.  1.
          1   -1    0    0  501    0  0.00000000000E+00 -0.00000000000E+00 -0.23407271872E+03  0.23407271877E+03  0.50400000000E-02 0. -1.
        -24    2    1    2    0    0  0.17763568394E-14 -0.35527136788E-14 -0.22715618586E+03  0.24098925210E+03  0.80472895127E+02 0.  0.
         66    2    3    3    0    0  0.15093847474E+02  0.29045636822E+02 -0.43705280384E+02  0.54640871006E+02  0.20000002218E+01 0.  0.
         13    1    3    3    0    0 -0.15093847474E+02 -0.29045636822E+02 -0.18345090548E+03  0.18634838109E+03  0.10566000000E+00 0. -1.
         13    1    4    4    0    0  0.14740669173E+01  0.25660556127E+01 -0.33011649969E+01  0.44346780105E+01  0.10566000000E+00 0. -1.
        -13    1    4    4    0    0  0.63821630850E+01  0.11154913893E+02 -0.17117112421E+02  0.21404924930E+02  0.10566000000E+00 0.  1.
         14    1    4    4    0    0  0.72376174719E+01  0.15324667316E+02 -0.23287002966E+02  0.28801268065E+02  0.00000000000E+00 0. -1.
<mgrwt>
<rscale>  0 0.80472895E+02</rscale>
<asrwt>0</asrwt>
<pdfrwt beam="1">  1        1 0.36011182E-01 0.80472895E+02</pdfrwt>
<pdfrwt beam="2">  1       -2 0.10640822E-02 0.80472895E+02</pdfrwt>
<totfact> 0.16926876E+05</totfact>
</mgrwt>
</event>
<event>
 8    1  0.7756875E-014  0.7852101E+02  0.7818608E-02  0.1333302E+00
         -2   -1    0    0    0  501 -0.00000000000E+00  0.00000000000E+00  0.29524977836E+02  0.29524977946E+02  0.25500000000E-02 0.  1.
          1   -1    0    0  501    0  0.00000000000E+00 -0.00000000000E+00 -0.52206205106E+02  0.52206205349E+02  0.50400000000E-02 0. -1.
        -24    2    1    2    0    0  0.00000000000E+00  0.00000000000E+00 -0.22681227270E+02  0.81731183295E+02  0.78521005166E+02 0.  0.
         66    2    3    3    0    0 -0.19966557968E+02  0.24398423155E+01  0.23715533415E+02  0.31161559669E+02  0.20000020546E+01 0.  0.
         13    1    3    3    0    0  0.19966557968E+02 -0.24398423155E+01 -0.46396760685E+02  0.50569623626E+02  0.10566000000E+00 0. -1.
         13    1    4    4    0    0 -0.10522795064E+01 -0.84423627614E-01  0.10275041119E+01  0.14769388085E+01  0.10566000000E+00 0.  1.
        -13    1    4    4    0    0 -0.16172283945E+02  0.26922620079E+01  0.19411303913E+02  0.25408678170E+02  0.10566000000E+00 0.  1.
        -14    1    4    4    0    0 -0.27419945175E+01 -0.16799606480E+00  0.32767253902E+01  0.42759426907E+01  0.00000000000E+00 0.  1.
<mgrwt>
<rscale>  0 0.78521005E+02</rscale>
<asrwt>0</asrwt>
<pdfrwt beam="1">  1        1 0.80317239E-02 0.78521005E+02</pdfrwt>
<pdfrwt beam="2">  1       -2 0.45423043E-02 0.78521005E+02</pdfrwt>
<totfact> 0.13949638E+05</totfact>
</mgrwt>
</event>
<event>
 8    1  0.7756875E-014  0.7828474E+02  0.7818608E-02  0.1333991E+00
          1   -1    0    0  501    0  0.00000000000E+00  0.00000000000E+00  0.31935564414E+02  0.31935564812E+02  0.50400000000E-02 0. -1.
         -2   -1    0    0    0  501 -0.00000000000E+00 -0.00000000000E+00 -0.47975508133E+02  0.47975508201E+02  0.25500000000E-02 0.  1.
        -24    2    1    2    0    0 -0.71054273576E-14  0.44408920985E-15 -0.16039943719E+02  0.79911073013E+02  0.78284735393E+02 0.  0.
         66    2    3    3    0    0  0.37677770160E+02 -0.29766834692E+01 -0.18316554859E+02  0.42047249500E+02  0.19999999750E+01 0.  0.
         13    1    3    3    0    0 -0.37677770160E+02  0.29766834692E+01  0.22766111408E+01  0.37863823513E+02  0.10566000000E+00 0. -1.
         13    1    4    4    0    0  0.27662946302E+02 -0.23035490961E+01 -0.13629487664E+02  0.30924408394E+02  0.10566000000E+00 0.  1.
        -13    1    4    4    0    0  0.82498701874E+01 -0.80037197937E+00 -0.41714523474E+01  0.92797161668E+01  0.10566000000E+00 0. -1.
         14    1    4    4    0    0  0.17649536708E+01  0.12723760629E+00 -0.51561484842E+00  0.18431249389E+01  0.00000000000E+00 0. -1.
<mgrwt>
<rscale>  0 0.78284735E+02</rscale>
<asrwt>0</asrwt>
<pdfrwt beam="1">  1        1 0.49131638E-02 0.78284735E+02</pdfrwt>
<pdfrwt beam="2">  1       -2 0.73808474E-02 0.78284735E+02</pdfrwt>
<totfact> 0.13008266E+05</totfact>
</mgrwt>
</event>
<event>
 8    1  0.7756875E-014  0.8899648E+02  0.7818608E-02  0.1305300E+00
         -2   -1    0    0    0  501 -0.00000000000E+00  0.00000000000E+00  0.27976293671E+02  0.27976293787E+02  0.25500000000E-02 0.  1.
          1   -1    0    0  501    0  0.00000000000E+00 -0.00000000000E+00 -0.70777541434E+02  0.70777541613E+02  0.50400000000E-02 0. -1.
        -24    2    1    2    0    0  0.17763568394E-14  0.00000000000E+00 -0.42801247763E+02  0.98753835400E+02  0.88996478561E+02 0.  0.
         66    2    3    3    0    0 -0.10805428881E+02 -0.79027360705E+01  0.25651854137E+02  0.29003933217E+02  0.19999976747E+01 0.  0.
         13    1    3    3    0    0  0.10805428881E+02  0.79027360705E+01 -0.68453101900E+02  0.69749902183E+02  0.10566000000E+00 0. -1.
         13    1    4    4    0    0 -0.70719782680E+01 -0.42175946002E+01  0.15740204468E+02  0.17764182547E+02  0.10566000000E+00 0. -1.
        -13    1    4    4    0    0 -0.11641379637E+01 -0.70509262373E+00  0.26032248548E+01  0.29394415264E+01  0.10566000000E+00 0.  1.
        -14    1    4    4    0    0 -0.25693126493E+01 -0.29800488466E+01  0.73084248146E+01  0.83003091442E+01  0.00000000000E+00 0.  1.
<mgrwt>
<rscale>  0 0.88996479E+02</rscale>
<asrwt>0</asrwt>
<pdfrwt beam="1">  1        1 0.10888853E-01 0.88996479E+02</pdfrwt>
<pdfrwt beam="2">  1       -2 0.43040452E-02 0.88996479E+02</pdfrwt>
<totfact> 0.10355080E+05</totfact>
</mgrwt>
</event>
<event>
 8    1  0.7756875E-014  0.7888377E+02  0.7818608E-02  0.1332249E+00
          1   -1    0    0  501    0  0.00000000000E+00  0.00000000000E+00  0.19774316231E+03  0.19774316237E+03  0.50400000000E-02 0. -1.
         -2   -1    0    0    0  501 -0.00000000000E+00 -0.00000000000E+00 -0.78670843466E+01  0.78670847599E+01  0.25500000000E-02 0.  1.
        -24    2    1    2    0    0  0.88817841970E-15 -0.71054273576E-14  0.18987607796E+03  0.20561024713E+03  0.78883767302E+02 0.  0.
         66    2    3    3    0    0 -0.42074103949E+01  0.30132095607E+02  0.29679674907E+02  0.42550306609E+02  0.20000005030E+01 0.  0.
         13    1    3    3    0    0  0.42074103949E+01 -0.30132095607E+02  0.16019640305E+03  0.16305994052E+03  0.10566000000E+00 0. -1.
         13    1    4    4    0    0 -0.38202940001E+00  0.36092353131E+01  0.40819986168E+01  0.54631861355E+01  0.10566000000E+00 0. -1.
        -13    1    4    4    0    0 -0.31028169354E+01  0.19705697815E+02  0.19834260889E+02  0.28130962806E+02  0.10566000000E+00 0.  1.
         14    1    4    4    0    0 -0.72256405942E+00  0.68171624790E+01  0.57634154006E+01  0.89561576675E+01  0.00000000000E+00 0. -1.
<mgrwt>
<rscale>  0 0.78883767E+02</rscale>
<asrwt>0</asrwt>
<pdfrwt beam="1">  1        1 0.30422021E-01 0.78883767E+02</pdfrwt>
<pdfrwt beam="2">  1       -2 0.12103209E-02 0.78883767E+02</pdfrwt>
<totfact> 0.17269296E+05</totfact>
</mgrwt>
</event>
<event>
 8    1  0.8975899E-014  0.8075762E+02  0.7818608E-02  0.1326915E+00
         -2   -1    0    0    0  501 -0.00000000000E+00  0.00000000000E+00  0.25655238810E+02  0.25655238937E+02  0.25500000000E-02 0.  1.
          1   -1    0    0  501    0  0.00000000000E+00 -0.00000000000E+00 -0.63552249155E+02  0.63552249355E+02  0.50400000000E-02 0. -1.
        -24    2    1    2    0    0 -0.35527136788E-14 -0.35527136788E-14 -0.37897010345E+02  0.89207488292E+02  0.80757616200E+02 0.  0.
         66    2    3    3    0    0  0.26153327719E+02  0.20936273861E+02  0.58909226192E+01  0.34073847461E+02  0.19999993931E+01 0.  0.
         13    1    3    3    0    0 -0.26153327719E+02 -0.20936273861E+02 -0.43787932964E+02  0.55133640831E+02  0.10566000000E+00 0. -1.
         13    1    4    4    0    0  0.57024694831E+01  0.46186094633E+01  0.18764476750E+01  0.75750862367E+01  0.10566000000E+00 0. -1.
        -13    1    4    4    0    0  0.14048924092E+02  0.11567529157E+02  0.32959124277E+01  0.18494707397E+02  0.10566000000E+00 0.  1.
         14    1    4    4    0    0  0.64019341436E+01  0.47501352403E+01  0.71856251649E+00  0.80040538273E+01  0.00000000000E+00 0. -1.
<mgrwt>
<rscale>  0 0.80757616E+02</rscale>
<asrwt>0</asrwt>
<pdfrwt beam="1">  1        1 0.97772691E-02 0.80757616E+02</pdfrwt>
<pdfrwt beam="2">  1       -2 0.39469599E-02 0.80757616E+02</pdfrwt>
<totfact> 0.13311341E+05</totfact>
</mgrwt>
</event>
<event>
 8    1  0.7756875E-014  0.7829593E+02  0.7818608E-02  0.1333958E+00
          1   -1    0    0  501    0  0.00000000000E+00  0.00000000000E+00  0.43499617457E+01  0.43499646654E+01  0.50400000000E-02 0. -1.
         -2   -1    0    0    0  501 -0.00000000000E+00 -0.00000000000E+00 -0.35231635525E+03  0.35231635526E+03  0.25500000000E-02 0.  1.
        -24    2    1    2    0    0  0.00000000000E+00  0.00000000000E+00 -0.34796639351E+03  0.35666631993E+03  0.78295930675E+02 0.  0.
         66    2    3    3    0    0 -0.13143446385E+02 -0.30734789318E+02 -0.26669256395E+03  0.26878672052E+03  0.20000009281E+01 0.  0.
         13    1    3    3    0    0  0.13143446385E+02  0.30734789318E+02 -0.81273829555E+02  0.87879599406E+02  0.10566000000E+00 0. -1.
         13    1    4    4    0    0 -0.10859113648E+01 -0.27172342474E+01 -0.24115699407E+02  0.24292811435E+02  0.10566000000E+00 0. -1.
        -13    1    4    4    0    0 -0.11949042943E+02 -0.27631935314E+02 -0.23733067185E+03  0.23923244438E+03  0.10566000000E+00 0.  1.
         14    1    4    4    0    0 -0.10849207643E+00 -0.38561975694E+00 -0.52461926921E+01  0.52614647096E+01  0.00000000000E+00 0. -1.
<mgrwt>
<rscale>  0 0.78295931E+02</rscale>
<asrwt>0</asrwt>
<pdfrwt beam="1">  1        1 0.66922539E-03 0.78295931E+02</pdfrwt>
<pdfrwt beam="2">  1       -2 0.54202494E-01 0.78295931E+02</pdfrwt>
<totfact> 0.67719513E+04</totfact>
</mgrwt>
</event>
<event>
 8    1  0.7756875E-014  0.8029902E+02  0.7818608E-02  0.1328205E+00
          1   -1    0    0  501    0  0.00000000000E+00  0.00000000000E+00  0.13017862110E+01  0.13017959674E+01  0.50400000000E-02 0. -1.
         -2   -1    0    0    0  501 -0.00000000000E+00 -0.00000000000E+00 -0.12382808903E+04  0.12382808903E+04  0.25500000000E-02 0.  1.
        -24    2    1    2    0    0  0.00000000000E+00  0.00000000000E+00 -0.12369791041E+04  0.12395826862E+04  0.80299017101E+02 0.  0.
         66    2    3    3    0    0 -0.20547194415E+02  0.10035245087E+01 -0.11506755263E+04  0.11508611390E+04  0.20000006847E+01 0.  0.
         13    1    3    3    0    0  0.20547194415E+02 -0.10035245087E+01 -0.86303577731E+02  0.88721547287E+02  0.10566000000E+00 0. -1.
         13    1    4    4    0    0 -0.53117649849E+01 -0.26964988345E+00 -0.26737790962E+03  0.26743082335E+03  0.10566000000E+00 0. -1.
        -13    1    4    4    0    0 -0.11439150160E+02  0.13109321037E+01 -0.66750413072E+03  0.66760343647E+03  0.10566000000E+00 0.  1.
        -14    1    4    4    0    0 -0.37962792699E+01 -0.37757711524E-01 -0.21579348599E+03  0.21582687914E+03  0.00000000000E+00 0.  1.
<mgrwt>
<rscale>  0 0.80299017E+02</rscale>
<asrwt>0</asrwt>
<pdfrwt beam="1">  1        1 0.20027654E-03 0.80299017E+02</pdfrwt>
<pdfrwt beam="2">  1       -2 0.19050381E+00 0.80299017E+02</pdfrwt>
<totfact> 0.19703944E+04</totfact>
</mgrwt>
</event>
<event>
 8    1  0.7756875E-014  0.7811872E+02  0.7818608E-02  0.1334477E+00
          1   -1    0    0  501    0  0.00000000000E+00  0.00000000000E+00  0.22045068730E+02  0.22045069306E+02  0.50400000000E-02 0. -1.
         -2   -1    0    0    0  501 -0.00000000000E+00 -0.00000000000E+00 -0.69205215065E+02  0.69205215112E+02  0.25500000000E-02 0.  1.
        -24    2    1    2    0    0  0.00000000000E+00  0.00000000000E+00 -0.47160146336E+02  0.91250284418E+02  0.78118723773E+02 0.  0.
         66    2    3    3    0    0  0.33136268522E+02  0.52565304538E+01 -0.46898530462E+02  0.57698488477E+02  0.20000022526E+01 0.  0.
         13    1    3    3    0    0 -0.33136268522E+02 -0.52565304538E+01 -0.26161587366E+00  0.33551795941E+02  0.10566000000E+00 0. -1.
         13    1    4    4    0    0  0.89638060351E+00  0.22127402778E+00 -0.16809355812E+01  0.19207209182E+01  0.10566000000E+00 0.  1.
        -13    1    4    4    0    0  0.87144886988E+01  0.12877650994E+01 -0.11236390484E+02  0.14278245248E+02  0.10566000000E+00 0.  1.
        -14    1    4    4    0    0  0.23525399220E+02  0.37474913266E+01 -0.33981204397E+02  0.41499522310E+02  0.00000000000E+00 0.  1.
<mgrwt>
<rscale>  0 0.78118724E+02</rscale>
<asrwt>0</asrwt>
<pdfrwt beam="1">  1        1 0.33915491E-02 0.78118724E+02</pdfrwt>
<pdfrwt beam="2">  1       -2 0.10646956E-01 0.78118724E+02</pdfrwt>
<totfact> 0.12234686E+05</totfact>
</mgrwt>
</event>
<event>
 8    1  0.7756875E-014  0.7961086E+02  0.7818608E-02  0.1330159E+00
          1   -1    0    0  501    0  0.00000000000E+00  0.00000000000E+00  0.27723369118E+02  0.27723369576E+02  0.50400000000E-02 0. -1.
         -2   -1    0    0    0  501 -0.00000000000E+00 -0.00000000000E+00 -0.57152943512E+02  0.57152943569E+02  0.25500000000E-02 0.  1.
        -24    2    1    2    0    0  0.88817841970E-15 -0.71054273576E-14 -0.29429574394E+02  0.84876313145E+02  0.79610857828E+02 0.  0.
         66    2    3    3    0    0 -0.38878351659E+01  0.39552345030E+02 -0.12888565562E+02  0.41828439831E+02  0.19999991867E+01 0.  0.
         13    1    3    3    0    0  0.38878351659E+01 -0.39552345030E+02 -0.16541008832E+02  0.43047873315E+02  0.10566000000E+00 0. -1.
         13    1    4    4    0    0 -0.31236825060E-01  0.80121136609E+00 -0.47936082114E+00  0.94014159829E+00  0.10566000000E+00 0. -1.
        -13    1    4    4    0    0 -0.39379270707E+01  0.38094684893E+02 -0.12171916642E+02  0.40185557175E+02  0.10566000000E+00 0.  1.
        -14    1    4    4    0    0  0.81328729764E-01  0.65644877138E+00 -0.23728809807E+00  0.70274105701E+00  0.00000000000E+00 0.  1.
<mgrwt>
<rscale>  0 0.79610858E+02</rscale>
<asrwt>0</asrwt>
<pdfrwt beam="1">  1        1 0.42651338E-02 0.79610858E+02</pdfrwt>
<pdfrwt beam="2">  1       -2 0.87927606E-02 0.79610858E+02</pdfrwt>
<totfact> 0.12093563E+05</totfact>
</mgrwt>
</event>
<event>
 8    1  0.7756875E-014  0.8482272E+02  0.7818608E-02  0.1315897E+00
         -2   -1    0    0    0  501 -0.00000000000E+00  0.00000000000E+00  0.43843049492E+03  0.43843049492E+03  0.25500000000E-02 0.  1.
          1   -1    0    0  501    0  0.00000000000E+00 -0.00000000000E+00 -0.41026405268E+01  0.41026436225E+01  0.50400000000E-02 0. -1.
        -24    2    1    2    0    0  0.00000000000E+00  0.00000000000E+00  0.43432785439E+03  0.44253313854E+03  0.84822718731E+02 0.  0.
         66    2    3    3    0    0  0.26395622709E+02  0.63238540385E+01  0.38714239954E+03  0.38809787110E+03  0.20000014470E+01 0.  0.
         13    1    3    3    0    0 -0.26395622709E+02 -0.63238540385E+01  0.47185454849E+02  0.54435267442E+02  0.10566000000E+00 0. -1.
         13    1    4    4    0    0  0.65266375077E+01  0.14559376240E+01  0.88221967587E+02  0.88475100907E+02  0.10566000000E+00 0. -1.
        -13    1    4    4    0    0  0.11438322088E+02  0.23025965082E+01  0.17721734843E+03  0.17760106113E+03  0.10566000000E+00 0.  1.
         14    1    4    4    0    0  0.84306631130E+01  0.25653199063E+01  0.12170308352E+03  0.12202170907E+03  0.00000000000E+00 0. -1.
<mgrwt>
<rscale>  0 0.84822719E+02</rscale>
<asrwt>0</asrwt>
<pdfrwt beam="1">  1        1 0.63117585E-03 0.84822719E+02</pdfrwt>
<pdfrwt beam="2">  1       -2 0.67450830E-01 0.84822719E+02</pdfrwt>
<totfact> 0.47694666E+04</totfact>
</mgrwt>
</event>
<event>
 8    1  0.7756875E-014  0.8044219E+02  0.7818608E-02  0.1327801E+00
         -2   -1    0    0    0  501 -0.00000000000E+00  0.00000000000E+00  0.25264403053E+02  0.25264403182E+02  0.25500000000E-02 0.  1.
          1   -1    0    0  501    0  0.00000000000E+00 -0.00000000000E+00 -0.64032251154E+02  0.64032251353E+02  0.50400000000E-02 0. -1.
        -24    2    1    2    0    0 -0.35527136788E-14  0.00000000000E+00 -0.38767848101E+02  0.89296654534E+02  0.80442193311E+02 0.  0.
         66    2    3    3    0    0  0.29478552312E+02  0.20338214412E+02  0.86419883965E+00  0.35880006187E+02  0.19999981252E+01 0.  0.
         13    1    3    3    0    0 -0.29478552312E+02 -0.20338214412E+02 -0.39632046941E+02  0.53416648347E+02  0.10566000000E+00 0. -1.
         13    1    4    4    0    0  0.51524741562E+01  0.43101515413E+01 -0.28567655775E+00  0.67244458040E+01  0.10566000000E+00 0. -1.
        -13    1    4    4    0    0  0.14906194348E+02  0.98892335237E+01  0.61374783793E+00  0.17899145792E+02  0.10566000000E+00 0.  1.
         14    1    4    4    0    0  0.94198838079E+01  0.61388293468E+01  0.53612755947E+00  0.11256414592E+02  0.00000000000E+00 0. -1.
<mgrwt>
<rscale>  0 0.80442193E+02</rscale>
<asrwt>0</asrwt>
<pdfrwt beam="1">  1        1 0.98511155E-02 0.80442193E+02</pdfrwt>
<pdfrwt beam="2">  1       -2 0.38868313E-02 0.80442193E+02</pdfrwt>
<totfact> 0.13471474E+05</totfact>
</mgrwt>
</event>
<event>
 8    1  0.7756875E-014  0.7935920E+02  0.7818608E-02  0.1330880E+00
          1   -1    0    0  501    0  0.00000000000E+00  0.00000000000E+00  0.58197573053E+01  0.58197594876E+01  0.50400000000E-02 0. -1.
         -2   -1    0    0    0  501 -0.00000000000E+00 -0.00000000000E+00 -0.27053881526E+03  0.27053881528E+03  0.25500000000E-02 0.  1.
        -24    2    1    2    0    0  0.00000000000E+00  0.35527136788E-14 -0.26471905796E+03  0.27635857476E+03  0.79359197317E+02 0.  0.
         66    2    3    3    0    0 -0.33269000503E+02  0.18764397578E+02 -0.16954931319E+03  0.17380994974E+03  0.20000036025E+01 0.  0.
         13    1    3    3    0    0  0.33269000503E+02 -0.18764397578E+02 -0.95169744773E+02  0.10254862503E+03  0.10566000000E+00 0. -1.
         13    1    4    4    0    0 -0.38419996840E+01  0.27686892317E+01 -0.20175556272E+02  0.20724160696E+02  0.10566000000E+00 0. -1.
        -13    1    4    4    0    0 -0.45505834064E+01  0.21411961699E+01 -0.23137750639E+02  0.23678243158E+02  0.10566000000E+00 0.  1.
        -14    1    4    4    0    0 -0.24876417413E+02  0.13854512176E+02 -0.12623600628E+03  0.12940754588E+03  0.00000000000E+00 0.  1.
<mgrwt>
<rscale>  0 0.79359197E+02</rscale>
<asrwt>0</asrwt>
<pdfrwt beam="1">  1        1 0.89534766E-03 0.79359197E+02</pdfrwt>
<pdfrwt beam="2">  1       -2 0.41621346E-01 0.79359197E+02</pdfrwt>
<totfact> 0.75739945E+04</totfact>
</mgrwt>
</event>
<event>
 8    1  0.7756875E-014  0.7927846E+02  0.7818608E-02  0.1331112E+00
          1   -1    0    0  501    0  0.00000000000E+00  0.00000000000E+00  0.15842142300E+03  0.15842142308E+03  0.50400000000E-02 0. -1.
         -2   -1    0    0    0  501 -0.00000000000E+00 -0.00000000000E+00 -0.99182824995E+01  0.99182828273E+01  0.25500000000E-02 0.  1.
        -24    2    1    2    0    0 -0.35527136788E-14 -0.17763568394E-14  0.14850314050E+03  0.16833970591E+03  0.79278457645E+02 0.  0.
         66    2    3    3    0    0 -0.28825437870E+02  0.12008817380E+02  0.22540641382E+02  0.38564207790E+02  0.20000113423E+01 0.  0.
         13    1    3    3    0    0  0.28825437870E+02 -0.12008817380E+02  0.12596249912E+03  0.12977549812E+03  0.10566000000E+00 0. -1.
         13    1    4    4    0    0 -0.82620581817E+01  0.30549294061E+01  0.58092173049E+01  0.10552363186E+02  0.10566000000E+00 0.  1.
        -13    1    4    4    0    0 -0.70001699441E+01  0.23870493010E+01  0.54994171818E+01  0.92171110977E+01  0.10566000000E+00 0.  1.
        -14    1    4    4    0    0 -0.13563209744E+02  0.65668386730E+01  0.11232006895E+02  0.18794733507E+02  0.00000000000E+00 0.  1.
<mgrwt>
<rscale>  0 0.79278458E+02</rscale>
<asrwt>0</asrwt>
<pdfrwt beam="1">  1        1 0.24372527E-01 0.79278458E+02</pdfrwt>
<pdfrwt beam="2">  1       -2 0.15258896E-02 0.79278458E+02</pdfrwt>
<totfact> 0.16339369E+05</totfact>
</mgrwt>
</event>
<event>
 8    1  0.1063250E-013  0.7523481E+02  0.7818608E-02  0.1343145E+00
          1   -1    0    0  501    0  0.00000000000E+00  0.00000000000E+00  0.13094482249E+03  0.13094482258E+03  0.50400000000E-02 0. -1.
         -2   -1    0    0    0  501 -0.00000000000E+00 -0.00000000000E+00 -0.10806605163E+02  0.10806605464E+02  0.25500000000E-02 0.  1.
        -24    2    1    2    0    0  0.00000000000E+00  0.35527136788E-14  0.12013821732E+03  0.14175142805E+03  0.75234806385E+02 0.  0.
         66    2    3    3    0    0  0.18023788345E+01 -0.24326966888E+02  0.62238112682E+01  0.25254419681E+02  0.19999998170E+01 0.  0.
         13    1    3    3    0    0 -0.18023788345E+01  0.24326966888E+02  0.11391440605E+03  0.11649700837E+03  0.10566000000E+00 0. -1.
         13    1    4    4    0    0  0.88089668789E+00 -0.11870373201E+02  0.30997722808E+01  0.12300467110E+02  0.10566000000E+00 0. -1.
        -13    1    4    4    0    0  0.45765456471E+00 -0.10381995867E+02  0.21364872750E+01  0.10609949472E+02  0.10566000000E+00 0.  1.
         14    1    4    4    0    0  0.46382758192E+00 -0.20745978202E+01  0.98755171238E+00  0.23440030986E+01  0.00000000000E+00 0. -1.
<mgrwt>
<rscale>  0 0.75234806E+02</rscale>
<asrwt>0</asrwt>
<pdfrwt beam="1">  1        1 0.20145358E-01 0.75234806E+02</pdfrwt>
<pdfrwt beam="2">  1       -2 0.16625546E-02 0.75234806E+02</pdfrwt>
<totfact> 0.18148713E+05</totfact>
</mgrwt>
</event>
<event>
 8    1  0.7756875E-014  0.8130632E+02  0.7818608E-02  0.1325385E+00
         -2   -1    0    0    0  501 -0.00000000000E+00  0.00000000000E+00  0.26143639134E+03  0.26143639135E+03  0.25500000000E-02 0.  1.
          1   -1    0    0  501    0  0.00000000000E+00 -0.00000000000E+00 -0.63215339799E+01  0.63215359891E+01  0.50400000000E-02 0. -1.
        -24    2    1    2    0    0  0.35527136788E-14  0.17763568394E-14  0.25511485736E+03  0.26775792734E+03  0.81306317149E+02 0.  0.
         66    2    3    3    0    0 -0.25547049025E+02 -0.15781289781E+02  0.21776063986E+03  0.21983038255E+03  0.19999992571E+01 0.  0.
         13    1    3    3    0    0  0.25547049025E+02  0.15781289781E+02  0.37354217500E+02  0.47927544795E+02  0.10566000000E+00 0. -1.
         13    1    4    4    0    0 -0.18595879860E+02 -0.11366522209E+02  0.15232432905E+03  0.15387565421E+03  0.10566000000E+00 0.  1.
        -13    1    4    4    0    0 -0.41330292134E+01 -0.28703266281E+01  0.41204816013E+02  0.41511067586E+02  0.10566000000E+00 0. -1.
        -14    1    4    4    0    0 -0.28181399515E+01 -0.15444409435E+01  0.24231494800E+02  0.24443660750E+02  0.00000000000E+00 0.  1.
<mgrwt>
<rscale>  0 0.81306317E+02</rscale>
<asrwt>0</asrwt>
<pdfrwt beam="1">  1        1 0.97254382E-03 0.81306317E+02</pdfrwt>
<pdfrwt beam="2">  1       -2 0.40220984E-01 0.81306317E+02</pdfrwt>
<totfact> 0.72367703E+04</totfact>
</mgrwt>
</event>
<event>
 8    1  0.7756875E-014  0.7339695E+02  0.7818608E-02  0.1348908E+00
          1   -1    0    0  501    0  0.00000000000E+00  0.00000000000E+00  0.38768462278E+01  0.38768495038E+01  0.50400000000E-02 0. -1.
         -2   -1    0    0    0  501 -0.00000000000E+00 -0.00000000000E+00 -0.34738997444E+03  0.34738997444E+03  0.25500000000E-02 0.  1.
        -24    2    1    2    0    0  0.00000000000E+00  0.17763568394E-14 -0.34351312821E+03  0.35126682395E+03  0.73396950590E+02 0.  0.
         66    2    3    3    0    0  0.86830596563E+01 -0.13863822289E+02 -0.32895678921E+03  0.32936935235E+03  0.20000013585E+01 0.  0.
         13    1    3    3    0    0 -0.86830596563E+01  0.13863822289E+02 -0.14556338998E+02  0.21897471601E+02  0.10566000000E+00 0. -1.
         13    1    4    4    0    0  0.16099068501E+01 -0.15247056855E+01 -0.38881536480E+02  0.38944852940E+02  0.10566000000E+00 0. -1.
        -13    1    4    4    0    0  0.57392561173E+01 -0.94709648045E+01 -0.22683483217E+03  0.22710502083E+03  0.10566000000E+00 0.  1.
        -14    1    4    4    0    0  0.13338966889E+01 -0.28681517989E+01 -0.63240420561E+02  0.63319478582E+02  0.00000000000E+00 0.  1.
<mgrwt>
<rscale>  0 0.73396951E+02</rscale>
<asrwt>0</asrwt>
<pdfrwt beam="1">  1        1 0.59643841E-03 0.73396951E+02</pdfrwt>
<pdfrwt beam="2">  1       -2 0.53444587E-01 0.73396951E+02</pdfrwt>
<totfact> 0.80647114E+04</totfact>
</mgrwt>
</event>
<event>
 8    1  0.7756875E-014  0.7880563E+02  0.7818608E-02  0.1332475E+00
         -2   -1    0    0    0  501 -0.00000000000E+00  0.00000000000E+00  0.49626141771E+02  0.49626141836E+02  0.25500000000E-02 0.  1.
          1   -1    0    0  501    0  0.00000000000E+00 -0.00000000000E+00 -0.31285565993E+02  0.31285566399E+02  0.50400000000E-02 0. -1.
        -24    2    1    2    0    0 -0.22204460493E-15 -0.35527136788E-14  0.18340575778E+02  0.80911708235E+02  0.78805633109E+02 0.  0.
         66    2    3    3    0    0  0.13270100097E+01 -0.23528345267E+02  0.41566591785E+02  0.47823901264E+02  0.19999982331E+01 0.  0.
         13    1    3    3    0    0 -0.13270100097E+01  0.23528345267E+02 -0.23226016007E+02  0.33087806971E+02  0.10566000000E+00 0. -1.
         13    1    4    4    0    0 -0.18298699679E+00 -0.58066189433E+01  0.10197646916E+02  0.11736842610E+02  0.10566000000E+00 0. -1.
        -13    1    4    4    0    0  0.59597693929E-01 -0.85594557430E+01  0.14707758680E+02  0.17017554581E+02  0.10566000000E+00 0.  1.
         14    1    4    4    0    0  0.14503993125E+01 -0.91622705805E+01  0.16661186189E+02  0.19069504073E+02  0.00000000000E+00 0. -1.
<mgrwt>
<rscale>  0 0.78805633E+02</rscale>
<asrwt>0</asrwt>
<pdfrwt beam="1">  1        1 0.48131641E-02 0.78805633E+02</pdfrwt>
<pdfrwt beam="2">  1       -2 0.76347910E-02 0.78805633E+02</pdfrwt>
<totfact> 0.12720022E+05</totfact>
</mgrwt>
</event>
<event>
 8    1  0.7756875E-014  0.7859205E+02  0.7818608E-02  0.1333095E+00
          1   -1    0    0  501    0  0.00000000000E+00  0.00000000000E+00  0.50447494711E+02  0.50447494963E+02  0.50400000000E-02 0. -1.
         -2   -1    0    0    0  501 -0.00000000000E+00 -0.00000000000E+00 -0.30609597375E+02  0.30609597482E+02  0.25500000000E-02 0.  1.
        -24    2    1    2    0    0  0.00000000000E+00  0.88817841970E-15  0.19837897336E+02  0.81057092444E+02  0.78592048356E+02 0.  0.
         66    2    3    3    0    0  0.19939586426E+02  0.44236201461E+01 -0.24667943737E+02  0.32088361854E+02  0.19999990588E+01 0.  0.
         13    1    3    3    0    0 -0.19939586426E+02 -0.44236201461E+01  0.44505841072E+02  0.48968730590E+02  0.10566000000E+00 0. -1.
         13    1    4    4    0    0  0.23730342726E+01  0.22283029678E+00 -0.36372280600E+01  0.43498893085E+01  0.10566000000E+00 0. -1.
        -13    1    4    4    0    0  0.88474249247E+01  0.24280888795E+01 -0.10128978009E+02  0.13666744417E+02  0.10566000000E+00 0.  1.
        -14    1    4    4    0    0  0.87191272288E+01  0.17727009698E+01 -0.10901737667E+02  0.14071728129E+02  0.00000000000E+00 0.  1.
<mgrwt>
<rscale>  0 0.78592048E+02</rscale>
<asrwt>0</asrwt>
<pdfrwt beam="1">  1        1 0.77611530E-02 0.78592048E+02</pdfrwt>
<pdfrwt beam="2">  1       -2 0.47091689E-02 0.78592048E+02</pdfrwt>
<totfact> 0.13841296E+05</totfact>
</mgrwt>
</event>
<event>
 8    1  0.7756875E-014  0.8019744E+02  0.7818608E-02  0.1328492E+00
          1   -1    0    0  501    0  0.00000000000E+00  0.00000000000E+00  0.94248538342E+02  0.94248538477E+02  0.50400000000E-02 0. -1.
         -2   -1    0    0    0  501 -0.00000000000E+00 -0.00000000000E+00 -0.17060287553E+02  0.17060287744E+02  0.25500000000E-02 0.  1.
        -24    2    1    2    0    0  0.44408920985E-15 -0.71054273576E-14  0.77188250789E+02  0.11130882622E+03  0.80197435962E+02 0.  0.
         66    2    3    3    0    0 -0.27603557855E+01  0.37428001065E+02  0.19116348910E+02  0.42165267015E+02  0.20000297632E+01 0.  0.
         13    1    3    3    0    0  0.27603557855E+01 -0.37428001065E+02  0.58071901879E+02  0.69143559206E+02  0.10566000000E+00 0. -1.
         13    1    4    4    0    0 -0.21264417147E+01  0.29493237241E+02  0.14292028580E+02  0.32842747180E+02  0.10566000000E+00 0. -1.
        -13    1    4    4    0    0 -0.63835341094E+00  0.78663629897E+01  0.48303986494E+01  0.92537061176E+01  0.10566000000E+00 0.  1.
        -14    1    4    4    0    0  0.44393401539E-02  0.68400833466E-01 -0.60783198044E-02  0.68813717611E-01  0.00000000000E+00 0.  1.
<mgrwt>
<rscale>  0 0.80197436E+02</rscale>
<asrwt>0</asrwt>
<pdfrwt beam="1">  1        1 0.14499775E-01 0.80197436E+02</pdfrwt>
<pdfrwt beam="2">  1       -2 0.26246596E-02 0.80197436E+02</pdfrwt>
<totfact> 0.14457472E+05</totfact>
</mgrwt>
</event>
<event>
 8    1  0.7756875E-014  0.7931172E+02  0.7818608E-02  0.1331016E+00
          1   -1    0    0  501    0  0.00000000000E+00  0.00000000000E+00  0.27557995871E+02  0.27557996332E+02  0.50400000000E-02 0. -1.
         -2   -1    0    0    0  501 -0.00000000000E+00 -0.00000000000E+00 -0.57064638509E+02  0.57064638566E+02  0.25500000000E-02 0.  1.
        -24    2    1    2    0    0  0.88817841970E-15  0.00000000000E+00 -0.29506642637E+02  0.84622634898E+02  0.79311716520E+02 0.  0.
         66    2    3    3    0    0 -0.79972371301E+01  0.18681937740E+02 -0.51064682299E+02  0.54996112363E+02  0.19999993291E+01 0.  0.
         13    1    3    3    0    0  0.79972371301E+01 -0.18681937740E+02  0.21558039662E+02  0.29626522535E+02  0.10566000000E+00 0. -1.
         13    1    4    4    0    0 -0.52632890073E+01  0.10696788222E+02 -0.29569015947E+02  0.31881991116E+02  0.10566000000E+00 0. -1.
        -13    1    4    4    0    0 -0.11360562104E+01  0.29820733896E+01 -0.69199339884E+01  0.76210259056E+01  0.10566000000E+00 0.  1.
         14    1    4    4    0    0 -0.15978919124E+01  0.50030761284E+01 -0.14575732364E+02  0.15493095341E+02  0.00000000000E+00 0. -1.
<mgrwt>
<rscale>  0 0.79311717E+02</rscale>
<asrwt>0</asrwt>
<pdfrwt beam="1">  1        1 0.42396917E-02 0.79311717E+02</pdfrwt>
<pdfrwt beam="2">  1       -2 0.87791751E-02 0.79311717E+02</pdfrwt>
<totfact> 0.12212511E+05</totfact>
</mgrwt>
</event>
<event>
 8    1  0.7756875E-014  0.7804523E+02  0.7818608E-02  0.1334692E+00
         -2   -1    0    0    0  501 -0.00000000000E+00  0.00000000000E+00  0.21269309814E+02  0.21269309967E+02  0.25500000000E-02 0.  1.
          1   -1    0    0  501    0  0.00000000000E+00 -0.00000000000E+00 -0.71594450078E+02  0.71594450256E+02  0.50400000000E-02 0. -1.
        -24    2    1    2    0    0  0.00000000000E+00  0.44408920985E-15 -0.50325140264E+02  0.92863760223E+02  0.78045231886E+02 0.  0.
         66    2    3    3    0    0  0.18930570620E+02  0.39292597079E+01  0.15117967972E+02  0.24624349575E+02  0.20000126291E+01 0.  0.
         13    1    3    3    0    0 -0.18930570620E+02 -0.39292597079E+01 -0.65443108236E+02  0.68239410648E+02  0.10566000000E+00 0. -1.
         13    1    4    4    0    0  0.14939628108E+02  0.24664380073E+01  0.12071287345E+02  0.19364992814E+02  0.10566000000E+00 0.  1.
        -13    1    4    4    0    0  0.96346443453E+00  0.37954432050E+00  0.48557049720E+00  0.11485905934E+01  0.10566000000E+00 0. -1.
        -14    1    4    4    0    0  0.30274780773E+01  0.10832773801E+01  0.25611101299E+01  0.41107661681E+01  0.00000000000E+00 0.  1.
<mgrwt>
<rscale>  0 0.78045232E+02</rscale>
<asrwt>0</asrwt>
<pdfrwt beam="1">  1        1 0.11014531E-01 0.78045232E+02</pdfrwt>
<pdfrwt beam="2">  1       -2 0.32722016E-02 0.78045232E+02</pdfrwt>
<totfact> 0.14893013E+05</totfact>
</mgrwt>
</event>
<event>
 8    1  0.7756875E-014  0.8225000E+02  0.7818608E-02  0.1322785E+00
          1   -1    0    0  501    0  0.00000000000E+00  0.00000000000E+00  0.27174618156E+02  0.27174618623E+02  0.50400000000E-02 0. -1.
         -2   -1    0    0    0  501 -0.00000000000E+00 -0.00000000000E+00 -0.62236963389E+02  0.62236963442E+02  0.25500000000E-02 0.  1.
        -24    2    1    2    0    0  0.88817841970E-15 -0.71054273576E-14 -0.35062345234E+02  0.89411582065E+02  0.82250002760E+02 0.  0.
         66    2    3    3    0    0 -0.50343504191E+01  0.37233375983E+02 -0.35653290332E+02  0.51834603056E+02  0.19999978018E+01 0.  0.
         13    1    3    3    0    0  0.50343504191E+01 -0.37233375983E+02  0.59094509876E+00  0.37576979008E+02  0.10566000000E+00 0. -1.
         13    1    4    4    0    0 -0.47867500572E-01  0.28299450283E+01 -0.27149938803E+01  0.39234214617E+01  0.10566000000E+00 0.  1.
        -13    1    4    4    0    0 -0.19237550908E+01  0.94251527367E+01 -0.86658541626E+01  0.12947684355E+02  0.10566000000E+00 0. -1.
        -14    1    4    4    0    0 -0.30627278276E+01  0.24978278218E+02 -0.24272442289E+02  0.34963497239E+02  0.00000000000E+00 0.  1.
<mgrwt>
<rscale>  0 0.82250003E+02</rscale>
<asrwt>0</asrwt>
<pdfrwt beam="1">  1        1 0.41807105E-02 0.82250003E+02</pdfrwt>
<pdfrwt beam="2">  1       -2 0.95749174E-02 0.82250003E+02</pdfrwt>
<totfact> 0.10960178E+05</totfact>
</mgrwt>
</event>
<event>
 8    1  0.7756875E-014  0.7984973E+02  0.7818608E-02  0.1329478E+00
         -2   -1    0    0    0  501 -0.00000000000E+00  0.00000000000E+00  0.35380276487E+02  0.35380276578E+02  0.25500000000E-02 0.  1.
          1   -1    0    0  501    0  0.00000000000E+00 -0.00000000000E+00 -0.45053203052E+02  0.45053203334E+02  0.50400000000E-02 0. -1.
        -24    2    1    2    0    0  0.00000000000E+00  0.35527136788E-14 -0.96729265655E+01  0.80433479912E+02  0.79849728756E+02 0.  0.
         66    2    3    3    0    0 -0.87916000213E+01  0.27478911370E+02  0.22922968205E+02  0.36903187920E+02  0.20000015890E+01 0.  0.
         13    1    3    3    0    0  0.87916000213E+01 -0.27478911370E+02 -0.32595894771E+02  0.43530291992E+02  0.10566000000E+00 0. -1.
         13    1    4    4    0    0 -0.32700187944E+01  0.12827570495E+02  0.10275683162E+02  0.16758293952E+02  0.10566000000E+00 0. -1.
        -13    1    4    4    0    0 -0.45496594079E+01  0.12830967747E+02  0.11098103656E+02  0.17564515446E+02  0.10566000000E+00 0.  1.
         14    1    4    4    0    0 -0.97192181911E+00  0.18203731281E+01  0.15491813872E+01  0.25803785223E+01  0.00000000000E+00 0. -1.
<mgrwt>
<rscale>  0 0.79849729E+02</rscale>
<asrwt>0</asrwt>
<pdfrwt beam="1">  1        1 0.69312621E-02 0.79849729E+02</pdfrwt>
<pdfrwt beam="2">  1       -2 0.54431194E-02 0.79849729E+02</pdfrwt>
<totfact> 0.13010541E+05</totfact>
</mgrwt>
</event>
<event>
 8    1  0.7756875E-014  0.8121555E+02  0.7818608E-02  0.1325637E+00
         -2   -1    0    0    0  501 -0.00000000000E+00  0.00000000000E+00  0.29281952273E+02  0.29281952384E+02  0.25500000000E-02 0.  1.
          1   -1    0    0  501    0  0.00000000000E+00 -0.00000000000E+00 -0.56314262649E+02  0.56314262875E+02  0.50400000000E-02 0. -1.
        -24    2    1    2    0    0  0.88817841970E-15  0.35527136788E-14 -0.27032310376E+02  0.85596215258E+02  0.81215554313E+02 0.  0.
         66    2    3    3    0    0 -0.63509231465E+01 -0.31440773089E+02  0.12678930318E+02  0.34548686045E+02  0.19999990523E+01 0.  0.
         13    1    3    3    0    0  0.63509231465E+01  0.31440773089E+02 -0.39711240694E+02  0.51047529213E+02  0.10566000000E+00 0. -1.
         13    1    4    4    0    0 -0.76895159363E+00 -0.24542313993E+01  0.11396483024E+01  0.28150489522E+01  0.10566000000E+00 0. -1.
        -13    1    4    4    0    0 -0.99172694242E+00 -0.58814166770E+01  0.16842292830E+01  0.61985786089E+01  0.10566000000E+00 0.  1.
        -14    1    4    4    0    0 -0.45902446104E+01 -0.23105125013E+02  0.98550527325E+01  0.25535058484E+02  0.00000000000E+00 0.  1.
<mgrwt>
<rscale>  0 0.81215554E+02</rscale>
<asrwt>0</asrwt>
<pdfrwt beam="1">  1        1 0.86637328E-02 0.81215554E+02</pdfrwt>
<pdfrwt beam="2">  1       -2 0.45049158E-02 0.81215554E+02</pdfrwt>
<totfact> 0.12856659E+05</totfact>
</mgrwt>
</event>
<event>
 8    1  0.7756875E-014  0.7979026E+02  0.7818608E-02  0.1329648E+00
         -2   -1    0    0    0  501 -0.00000000000E+00  0.00000000000E+00  0.92968483716E+01  0.92968487213E+01  0.25500000000E-02 0.  1.
          1   -1    0    0  501    0  0.00000000000E+00 -0.00000000000E+00 -0.17120010870E+03  0.17120010878E+03  0.50400000000E-02 0. -1.
        -24    2    1    2    0    0 -0.71054273576E-14  0.00000000000E+00 -0.16190326033E+03  0.18049695750E+03  0.79790262314E+02 0.  0.
         66    2    3    3    0    0 -0.32938810370E+02 -0.92157609138E+01 -0.34657617612E+02  0.48734442978E+02  0.19999989820E+01 0.  0.
         13    1    3    3    0    0  0.32938810370E+02  0.92157609138E+01 -0.12724564272E+03  0.13176251452E+03  0.10566000000E+00 0. -1.
         13    1    4    4    0    0 -0.11873217049E+02 -0.33389339066E+01 -0.12463610798E+02  0.17534951408E+02  0.10566000000E+00 0.  1.
        -13    1    4    4    0    0 -0.41294030445E+01 -0.14912664296E+01 -0.37097932529E+01  0.57488759843E+01  0.10566000000E+00 0. -1.
         14    1    4    4    0    0 -0.16936190277E+02 -0.43855605776E+01 -0.18484213562E+02  0.25450615585E+02  0.00000000000E+00 0. -1.
<mgrwt>
<rscale>  0 0.79790262E+02</rscale>
<asrwt>0</asrwt>
<pdfrwt beam="1">  1        1 0.26338476E-01 0.79790262E+02</pdfrwt>
<pdfrwt beam="2">  1       -2 0.14302845E-02 0.79790262E+02</pdfrwt>
<totfact> 0.16296891E+05</totfact>
</mgrwt>
</event>
<event>
 8    1  0.7756875E-014  0.8193388E+02  0.7818608E-02  0.1323651E+00
         -2   -1    0    0    0  501 -0.00000000000E+00  0.00000000000E+00  0.57022878298E+03  0.57022878299E+03  0.25500000000E-02 0.  1.
          1   -1    0    0  501    0  0.00000000000E+00 -0.00000000000E+00 -0.29431854480E+01  0.29431897633E+01  0.50400000000E-02 0. -1.
        -24    2    1    2    0    0  0.00000000000E+00  0.00000000000E+00  0.56728559754E+03  0.57317197275E+03  0.81933882965E+02 0.  0.
         66    2    3    3    0    0  0.48759854495E+01  0.13737268792E+02  0.55145804560E+03  0.55165429741E+03  0.20000006024E+01 0.  0.
         13    1    3    3    0    0 -0.48759854495E+01 -0.13737268792E+02  0.15827551935E+02  0.21517675345E+02  0.10566000000E+00 0. -1.
         13    1    4    4    0    0  0.18236566993E+01  0.38591276189E+01  0.14638840597E+03  0.14645065775E+03  0.10566000000E+00 0. -1.
        -13    1    4    4    0    0  0.13241514980E+01  0.61176485061E+01  0.23103637799E+03  0.23112117627E+03  0.10566000000E+00 0.  1.
         14    1    4    4    0    0  0.17281772522E+01  0.37604926671E+01  0.17403326165E+03  0.17408246339E+03  0.00000000000E+00 0. -1.
<mgrwt>
<rscale>  0 0.81933883E+02</rscale>
<asrwt>0</asrwt>
<pdfrwt beam="1">  1        1 0.45279822E-03 0.81933883E+02</pdfrwt>
<pdfrwt beam="2">  1       -2 0.87727480E-01 0.81933883E+02</pdfrwt>
<totfact> 0.42654053E+04</totfact>
</mgrwt>
</event>
<event>
 8    1  0.7756875E-014  0.7902233E+02  0.7818608E-02  0.1331849E+00
         -2   -1    0    0    0  501 -0.00000000000E+00  0.00000000000E+00  0.44741737314E+03  0.44741737315E+03  0.25500000000E-02 0.  1.
          1   -1    0    0  501    0  0.00000000000E+00 -0.00000000000E+00 -0.34892057259E+01  0.34892093659E+01  0.50400000000E-02 0. -1.
        -24    2    1    2    0    0  0.88817841970E-15  0.00000000000E+00  0.44392816741E+03  0.45090658251E+03  0.79022328047E+02 0.  0.
         66    2    3    3    0    0  0.45957180205E+01 -0.18013338599E+02  0.42088066793E+03  0.42129578401E+03  0.19999983055E+01 0.  0.
         13    1    3    3    0    0 -0.45957180205E+01  0.18013338599E+02  0.23047499478E+02  0.29610798500E+02  0.10566000000E+00 0. -1.
         13    1    4    4    0    0  0.71604306532E+00 -0.29829316406E+01  0.58455459596E+02  0.58535993366E+02  0.10566000000E+00 0. -1.
        -13    1    4    4    0    0  0.28282231948E+01 -0.10027108170E+02  0.22977446396E+03  0.23001055888E+03  0.10566000000E+00 0.  1.
         14    1    4    4    0    0  0.10514517604E+01 -0.50032987875E+01  0.13265074438E+03  0.13274923177E+03  0.00000000000E+00 0. -1.
<mgrwt>
<rscale>  0 0.79022328E+02</rscale>
<asrwt>0</asrwt>
<pdfrwt beam="1">  1        1 0.53680141E-03 0.79022328E+02</pdfrwt>
<pdfrwt beam="2">  1       -2 0.68833410E-01 0.79022328E+02</pdfrwt>
<totfact> 0.56473906E+04</totfact>
</mgrwt>
</event>
<event>
 8    1  0.7756875E-014  0.8001001E+02  0.7818608E-02  0.1329023E+00
         -2   -1    0    0    0  501 -0.00000000000E+00  0.00000000000E+00  0.31812239785E+03  0.31812239786E+03  0.25500000000E-02 0.  1.
          1   -1    0    0  501    0  0.00000000000E+00 -0.00000000000E+00 -0.50307678751E+01  0.50307703997E+01  0.50400000000E-02 0. -1.
        -24    2    1    2    0    0  0.35527136788E-14  0.00000000000E+00  0.31309162997E+03  0.32315316826E+03  0.80010008099E+02 0.  0.
         66    2    3    3    0    0  0.23941670818E+02 -0.28551653695E+02  0.21517199868E+03  0.21838358352E+03  0.20000008099E+01 0.  0.
         13    1    3    3    0    0 -0.23941670818E+02  0.28551653695E+02  0.97919631289E+02  0.10476958474E+03  0.10566000000E+00 0. -1.
         13    1    4    4    0    0  0.40669665868E+01 -0.49848794237E+01  0.39751400579E+02  0.40268775150E+02  0.10566000000E+00 0. -1.
        -13    1    4    4    0    0  0.15193161201E+01 -0.24193436368E+01  0.16746210818E+02  0.16988475090E+02  0.10566000000E+00 0.  1.
        -14    1    4    4    0    0  0.18355388111E+02 -0.21147430634E+02  0.15867438729E+03  0.16112633328E+03  0.00000000000E+00 0.  1.
<mgrwt>
<rscale>  0 0.80010008E+02</rscale>
<asrwt>0</asrwt>
<pdfrwt beam="1">  1        1 0.77396417E-03 0.80010008E+02</pdfrwt>
<pdfrwt beam="2">  1       -2 0.48941928E-01 0.80010008E+02</pdfrwt>
<totfact> 0.67995876E+04</totfact>
</mgrwt>
</event>
<event>
 8    1  0.7756875E-014  0.7948383E+02  0.7818608E-02  0.1330523E+00
         -2   -1    0    0    0  501 -0.00000000000E+00  0.00000000000E+00  0.52315804565E+01  0.52315810780E+01  0.25500000000E-02 0.  1.
          1   -1    0    0  501    0  0.00000000000E+00 -0.00000000000E+00 -0.30190108199E+03  0.30190108203E+03  0.50400000000E-02 0. -1.
        -24    2    1    2    0    0  0.00000000000E+00  0.00000000000E+00 -0.29666950153E+03  0.30713266311E+03  0.79483832375E+02 0.  0.
         66    2    3    3    0    0 -0.10644509583E+02 -0.35497747070E+02 -0.93235551773E+02  0.10035070377E+03  0.20000001082E+01 0.  0.
         13    1    3    3    0    0  0.10644509583E+02  0.35497747070E+02 -0.20343394976E+03  0.20678195934E+03  0.10566000000E+00 0. -1.
         13    1    4    4    0    0 -0.47674546365E+01 -0.13668934144E+02 -0.35757822095E+02  0.38577213344E+02  0.10566000000E+00 0. -1.
        -13    1    4    4    0    0 -0.44922445134E+01 -0.15847748418E+02 -0.43050487780E+02  0.46094327773E+02  0.10566000000E+00 0.  1.
         14    1    4    4    0    0 -0.13848104330E+01 -0.59810645076E+01 -0.14427241898E+02  0.15679162648E+02  0.00000000000E+00 0. -1.
<mgrwt>
<rscale>  0 0.79483832E+02</rscale>
<asrwt>0</asrwt>
<pdfrwt beam="1">  1        1 0.46446307E-01 0.79483832E+02</pdfrwt>
<pdfrwt beam="2">  1       -2 0.80485882E-03 0.79483832E+02</pdfrwt>
<totfact> 0.18374059E+05</totfact>
</mgrwt>
</event>
<event>
 8    1  0.7756875E-014  0.8411799E+02  0.7818608E-02  0.1317755E+00
         -2   -1    0    0    0  501 -0.00000000000E+00  0.00000000000E+00  0.69038974564E+02  0.69038974611E+02  0.25500000000E-02 0.  1.
          1   -1    0    0  501    0  0.00000000000E+00 -0.00000000000E+00 -0.25622612167E+02  0.25622612663E+02  0.50400000000E-02 0. -1.
        -24    2    1    2    0    0 -0.35527136788E-14  0.00000000000E+00  0.43416362396E+02  0.94661587274E+02  0.84117986076E+02 0.  0.
         66    2    3    3    0    0  0.21938751770E+02 -0.17686809187E+02  0.56819970341E+02  0.63455819884E+02  0.19999997770E+01 0.  0.
         13    1    3    3    0    0 -0.21938751770E+02  0.17686809187E+02 -0.13403607945E+02  0.31205767390E+02  0.10566000000E+00 0. -1.
         13    1    4    4    0    0  0.64381898620E+01 -0.47544502852E+01  0.14686662567E+02  0.16726156390E+02  0.10566000000E+00 0. -1.
        -13    1    4    4    0    0  0.13755398581E+02 -0.11852189120E+02  0.37811980321E+02  0.41945707729E+02  0.10566000000E+00 0.  1.
        -14    1    4    4    0    0  0.17451633263E+01 -0.10801697827E+01  0.43213274530E+01  0.47839557639E+01  0.00000000000E+00 0.  1.
<mgrwt>
<rscale>  0 0.84117986E+02</rscale>
<asrwt>0</asrwt>
<pdfrwt beam="1">  1        1 0.39419404E-02 0.84117986E+02</pdfrwt>
<pdfrwt beam="2">  1       -2 0.10621381E-01 0.84117986E+02</pdfrwt>
<totfact> 0.10143447E+05</totfact>
</mgrwt>
</event>
<event>
 8    1  0.8079166E-014  0.7958973E+02  0.7818608E-02  0.1330220E+00
         -2   -1    0    0    0  501 -0.00000000000E+00  0.00000000000E+00  0.10201320614E+02  0.10201320932E+02  0.25500000000E-02 0.  1.
          1   -1    0    0  501    0  0.00000000000E+00 -0.00000000000E+00 -0.15523787131E+03  0.15523787139E+03  0.50400000000E-02 0. -1.
        -24    2    1    2    0    0  0.35527136788E-14  0.35527136788E-14 -0.14503655070E+03  0.16543919233E+03  0.79589731241E+02 0.  0.
         66    2    3    3    0    0  0.19008383409E+02 -0.19895632594E+02 -0.12878390293E+02  0.30446802311E+02  0.19999995693E+01 0.  0.
         13    1    3    3    0    0 -0.19008383409E+02  0.19895632594E+02 -0.13215816040E+03  0.13499239001E+03  0.10566000000E+00 0. -1.
         13    1    4    4    0    0  0.52669486985E+00 -0.91784853958E+00 -0.45248614848E+00  0.11557513477E+01  0.10566000000E+00 0. -1.
        -13    1    4    4    0    0  0.13594711858E+02 -0.14408500021E+02 -0.87362542403E+01  0.21650735913E+02  0.10566000000E+00 0.  1.
         14    1    4    4    0    0  0.48869766810E+01 -0.45692840335E+01 -0.36896499046E+01  0.76403150510E+01  0.00000000000E+00 0. -1.
<mgrwt>
<rscale>  0 0.79589731E+02</rscale>
<asrwt>0</asrwt>
<pdfrwt beam="1">  1        1 0.23882748E-01 0.79589731E+02</pdfrwt>
<pdfrwt beam="2">  1       -2 0.15694341E-02 0.79589731E+02</pdfrwt>
<totfact> 0.16108653E+05</totfact>
</mgrwt>
</event>
<event>
 8    1  0.7756875E-014  0.7946689E+02  0.7818608E-02  0.1330571E+00
          1   -1    0    0  501    0  0.00000000000E+00  0.00000000000E+00  0.22724559085E+02  0.22724559643E+02  0.50400000000E-02 0. -1.
         -2   -1    0    0    0  501 -0.00000000000E+00 -0.00000000000E+00 -0.69473148035E+02  0.69473148082E+02  0.25500000000E-02 0.  1.
        -24    2    1    2    0    0 -0.71054273576E-14 -0.44408920985E-15 -0.46748588950E+02  0.92197707725E+02  0.79466890847E+02 0.  0.
         66    2    3    3    0    0  0.36155294713E+02  0.37725333926E+01 -0.41927065741E+02  0.55527616450E+02  0.20000007423E+01 0.  0.
         13    1    3    3    0    0 -0.36155294713E+02 -0.37725333926E+01 -0.48215232089E+01  0.36670091275E+02  0.10566000000E+00 0. -1.
         13    1    4    4    0    0  0.39205865597E+01  0.12970138254E+00 -0.52028834080E+01  0.65168229387E+01  0.10566000000E+00 0. -1.
        -13    1    4    4    0    0  0.29519413274E+02  0.33793824293E+01 -0.34042757949E+02  0.45185578656E+02  0.10566000000E+00 0.  1.
        -14    1    4    4    0    0  0.27152948800E+01  0.26344958077E+00 -0.26814243843E+01  0.38252148561E+01  0.00000000000E+00 0.  1.
<mgrwt>
<rscale>  0 0.79466891E+02</rscale>
<asrwt>0</asrwt>
<pdfrwt beam="1">  1        1 0.34960861E-02 0.79466891E+02</pdfrwt>
<pdfrwt beam="2">  1       -2 0.10688177E-01 0.79466891E+02</pdfrwt>
<totfact> 0.11705619E+05</totfact>
</mgrwt>
</event>
<event>
 8    1  0.7756875E-014  0.7837935E+02  0.7818608E-02  0.1333715E+00
         -2   -1    0    0    0  501 -0.00000000000E+00  0.00000000000E+00  0.19214176593E+03  0.19214176595E+03  0.25500000000E-02 0.  1.
          1   -1    0    0  501    0  0.00000000000E+00 -0.00000000000E+00 -0.79932158912E+01  0.79932174802E+01  0.50400000000E-02 0. -1.
        -24    2    1    2    0    0  0.00000000000E+00  0.00000000000E+00  0.18414855004E+03  0.20013498343E+03  0.78379353850E+02 0.  0.
         66    2    3    3    0    0 -0.55741172475E+01  0.14383519159E+02  0.18405235229E+03  0.18470848595E+03  0.19999978950E+01 0.  0.
         13    1    3    3    0    0  0.55741172475E+01 -0.14383519159E+02  0.96197751452E-01  0.15426497481E+02  0.10566000000E+00 0. -1.
         13    1    4    4    0    0 -0.19388719876E+01  0.54643863274E+01  0.77039896536E+02  0.77257851154E+02  0.10566000000E+00 0. -1.
        -13    1    4    4    0    0 -0.90572733334E+00  0.35191541480E+01  0.42297074645E+02  0.42453014917E+02  0.10566000000E+00 0.  1.
         14    1    4    4    0    0 -0.27295179265E+01  0.53999786836E+01  0.64715381105E+02  0.64997619876E+02  0.00000000000E+00 0. -1.
<mgrwt>
<rscale>  0 0.78379354E+02</rscale>
<asrwt>0</asrwt>
<pdfrwt beam="1">  1        1 0.12297258E-02 0.78379354E+02</pdfrwt>
<pdfrwt beam="2">  1       -2 0.29560267E-01 0.78379354E+02</pdfrwt>
<totfact> 0.91132756E+04</totfact>
</mgrwt>
</event>
<event>
 8    1  0.7756875E-014  0.8137487E+02  0.7818608E-02  0.1325194E+00
         -2   -1    0    0    0  501 -0.00000000000E+00  0.00000000000E+00  0.27284796362E+01  0.27284808278E+01  0.25500000000E-02 0.  1.
          1   -1    0    0  501    0  0.00000000000E+00 -0.00000000000E+00 -0.60673599365E+03  0.60673599367E+03  0.50400000000E-02 0. -1.
        -24    2    1    2    0    0  0.71054273576E-14  0.71054273576E-14 -0.60400751401E+03  0.60946447450E+03  0.81374865228E+02 0.  0.
         66    2    3    3    0    0 -0.28158795105E+02 -0.26854913855E+02 -0.39060030514E+03  0.39253879114E+03  0.20000073671E+01 0.  0.
         13    1    3    3    0    0  0.28158795105E+02  0.26854913855E+02 -0.21340720887E+03  0.21692568336E+03  0.10566000000E+00 0. -1.
         13    1    4    4    0    0 -0.11083501511E+02 -0.10796662544E+02 -0.15871580767E+03  0.15946827489E+03  0.10566000000E+00 0. -1.
        -13    1    4    4    0    0 -0.78056176352E+01 -0.81880057077E+01 -0.10838604288E+03  0.10897484370E+03  0.10566000000E+00 0.  1.
        -14    1    4    4    0    0 -0.92696759598E+01 -0.78702456032E+01 -0.12349845459E+03  0.12409567255E+03  0.00000000000E+00 0.  1.
<mgrwt>
<rscale>  0 0.81374865E+02</rscale>
<asrwt>0</asrwt>
<pdfrwt beam="1">  1        1 0.93343892E-01 0.81374865E+02</pdfrwt>
<pdfrwt beam="2">  1       -2 0.41976667E-03 0.81374865E+02</pdfrwt>
<totfact> 0.19078091E+05</totfact>
</mgrwt>
</event>
<event>
 8    1  0.7756875E-014  0.7769975E+02  0.7818608E-02  0.1335709E+00
          1   -1    0    0  501    0  0.00000000000E+00  0.00000000000E+00  0.25309730674E+03  0.25309730679E+03  0.50400000000E-02 0. -1.
         -2   -1    0    0    0  501 -0.00000000000E+00 -0.00000000000E+00 -0.59633700493E+01  0.59633705945E+01  0.25500000000E-02 0.  1.
        -24    2    1    2    0    0  0.00000000000E+00  0.71054273576E-14  0.24713393669E+03  0.25906067739E+03  0.77699754844E+02 0.  0.
         66    2    3    3    0    0 -0.15925435660E+02  0.32978157500E+02  0.16662257811E+03  0.17061143546E+03  0.19999999411E+01 0.  0.
         13    1    3    3    0    0  0.15925435660E+02 -0.32978157500E+02  0.80511358584E+02  0.88449241930E+02  0.10566000000E+00 0. -1.
         13    1    4    4    0    0 -0.70443160133E+01  0.14851473152E+02  0.78555389260E+02  0.80256769114E+02  0.10566000000E+00 0. -1.
        -13    1    4    4    0    0 -0.11606440428E+01  0.29620423734E+01  0.13368634735E+02  0.13742355996E+02  0.10566000000E+00 0.  1.
         14    1    4    4    0    0 -0.77204756041E+01  0.15164641974E+02  0.74698554116E+02  0.76612310347E+02  0.00000000000E+00 0. -1.
<mgrwt>
<rscale>  0 0.77699755E+02</rscale>
<asrwt>0</asrwt>
<pdfrwt beam="1">  1        1 0.38938047E-01 0.77699755E+02</pdfrwt>
<pdfrwt beam="2">  1       -2 0.91744159E-03 0.77699755E+02</pdfrwt>
<totfact> 0.18854386E+05</totfact>
</mgrwt>
</event>
<event>
 8    1  0.7756875E-014  0.7817698E+02  0.7818608E-02  0.1334306E+00
         -2   -1    0    0    0  501 -0.00000000000E+00  0.00000000000E+00  0.33901146711E+02  0.33901146807E+02  0.25500000000E-02 0.  1.
          1   -1    0    0  501    0  0.00000000000E+00 -0.00000000000E+00 -0.45069563873E+02  0.45069564155E+02  0.50400000000E-02 0. -1.
        -24    2    1    2    0    0  0.00000000000E+00 -0.35527136788E-14 -0.11168417161E+02  0.78970710962E+02  0.78176976457E+02 0.  0.
         66    2    3    3    0    0  0.23560624901E+01 -0.27261638802E+02  0.22572724503E+02  0.35528521958E+02  0.20000001019E+01 0.  0.
         13    1    3    3    0    0 -0.23560624901E+01  0.27261638802E+02 -0.33741141664E+02  0.43442189004E+02  0.10566000000E+00 0. -1.
         13    1    4    4    0    0 -0.27134474708E+00 -0.62067746609E+01  0.52722911552E+01  0.81489813918E+01  0.10566000000E+00 0. -1.
        -13    1    4    4    0    0  0.36510753316E+00 -0.36672865406E+01  0.29932104051E+01  0.47489753260E+01  0.10566000000E+00 0.  1.
        -14    1    4    4    0    0  0.22622997041E+01 -0.17387577600E+02  0.14307222943E+02  0.22630565240E+02  0.00000000000E+00 0.  1.
<mgrwt>
<rscale>  0 0.78176976E+02</rscale>
<asrwt>0</asrwt>
<pdfrwt beam="1">  1        1 0.69337791E-02 0.78176976E+02</pdfrwt>
<pdfrwt beam="2">  1       -2 0.52155610E-02 0.78176976E+02</pdfrwt>
<totfact> 0.13803324E+05</totfact>
</mgrwt>
</event>
<event>
 8    1  0.7756875E-014  0.7807856E+02  0.7818608E-02  0.1334594E+00
         -2   -1    0    0    0  501 -0.00000000000E+00  0.00000000000E+00  0.61879367761E+01  0.61879373015E+01  0.25500000000E-02 0.  1.
          1   -1    0    0  501    0  0.00000000000E+00 -0.00000000000E+00 -0.24629618038E+03  0.24629618043E+03  0.50400000000E-02 0. -1.
        -24    2    1    2    0    0 -0.71054273576E-14 -0.35527136788E-14 -0.24010824360E+03  0.25248411773E+03  0.78078556985E+02 0.  0.
         66    2    3    3    0    0  0.35339281965E+02  0.13824147360E+02 -0.14943103170E+03  0.15418691624E+03  0.20000005928E+01 0.  0.
         13    1    3    3    0    0 -0.35339281965E+02 -0.13824147360E+02 -0.90677211897E+02  0.98297201494E+02  0.10566000000E+00 0. -1.
         13    1    4    4    0    0  0.37571333825E+01  0.18058724899E+01 -0.17348834176E+02  0.17842938043E+02  0.10566000000E+00 0. -1.
        -13    1    4    4    0    0  0.61973932475E+01  0.17627734989E+01 -0.25451648291E+02  0.26254763724E+02  0.10566000000E+00 0.  1.
        -14    1    4    4    0    0  0.25384755335E+02  0.10255501371E+02 -0.10663054924E+03  0.11008921447E+03  0.00000000000E+00 0.  1.
<mgrwt>
<rscale>  0 0.78078557E+02</rscale>
<asrwt>0</asrwt>
<pdfrwt beam="1">  1        1 0.37891713E-01 0.78078557E+02</pdfrwt>
<pdfrwt beam="2">  1       -2 0.95199050E-03 0.78078557E+02</pdfrwt>
<totfact> 0.18516371E+05</totfact>
</mgrwt>
</event>
<event>
 8    1  0.7756875E-014  0.7901423E+02  0.7818608E-02  0.1331872E+00
         -2   -1    0    0    0  501 -0.00000000000E+00  0.00000000000E+00  0.37828638469E+03  0.37828638470E+03  0.25500000000E-02 0.  1.
          1   -1    0    0  501    0  0.00000000000E+00 -0.00000000000E+00 -0.41260046805E+01  0.41260077587E+01  0.50400000000E-02 0. -1.
        -24    2    1    2    0    0 -0.35527136788E-14 -0.35527136788E-14  0.37416038001E+03  0.38241239246E+03  0.79014226163E+02 0.  0.
         66    2    3    3    0    0 -0.29807288973E+02 -0.18322974585E+02  0.27572970084E+03  0.27794796962E+03  0.20000038555E+01 0.  0.
         13    1    3    3    0    0  0.29807288973E+02  0.18322974585E+02  0.98430679173E+02  0.10446442284E+03  0.10566000000E+00 0. -1.
         13    1    4    4    0    0 -0.22991877763E+02 -0.13769839774E+02  0.20849566967E+03  0.21021106147E+03  0.10566000000E+00 0.  1.
        -13    1    4    4    0    0 -0.55966515336E+01 -0.33424977972E+01  0.52770367771E+02  0.53171587137E+02  0.10566000000E+00 0.  1.
        -14    1    4    4    0    0 -0.12187596764E+01 -0.12106370136E+01  0.14463663402E+02  0.14565321011E+02  0.00000000000E+00 0.  1.
<mgrwt>
<rscale>  0 0.79014226E+02</rscale>
<asrwt>0</asrwt>
<pdfrwt beam="1">  1        1 0.63477020E-03 0.79014226E+02</pdfrwt>
<pdfrwt beam="2">  1       -2 0.58197904E-01 0.79014226E+02</pdfrwt>
<totfact> 0.63272303E+04</totfact>
</mgrwt>
</event>
<event>
 8    1  0.7756875E-014  0.8021315E+02  0.7818608E-02  0.1328448E+00
         -2   -1    0    0    0  501 -0.00000000000E+00  0.00000000000E+00  0.16500243287E+03  0.16500243289E+03  0.25500000000E-02 0.  1.
          1   -1    0    0  501    0  0.00000000000E+00 -0.00000000000E+00 -0.97485679870E+01  0.97485692898E+01  0.50400000000E-02 0. -1.
        -24    2    1    2    0    0  0.00000000000E+00  0.22204460493E-15  0.15525386488E+03  0.17475100218E+03  0.80213154792E+02 0.  0.
         66    2    3    3    0    0 -0.36270013612E+02  0.86232199414E+00  0.11479257862E+03  0.12040595331E+03  0.19999999015E+01 0.  0.
         13    1    3    3    0    0  0.36270013612E+02 -0.86232199414E+00  0.40461286265E+02  0.54345048871E+02  0.10566000000E+00 0. -1.
         13    1    4    4    0    0 -0.19522584095E+02 -0.20265415975E+00  0.59727573255E+02  0.62837620335E+02  0.10566000000E+00 0. -1.
        -13    1    4    4    0    0 -0.15784306252E+02  0.11296234864E+01  0.52061681143E+02  0.54413694788E+02  0.10566000000E+00 0.  1.
         14    1    4    4    0    0 -0.96312326462E+00 -0.64647332473E-01  0.30033242220E+01  0.31546381857E+01  0.00000000000E+00 0. -1.
<mgrwt>
<rscale>  0 0.80213155E+02</rscale>
<asrwt>0</asrwt>
<pdfrwt beam="1">  1        1 0.14997799E-02 0.80213155E+02</pdfrwt>
<pdfrwt beam="2">  1       -2 0.25384988E-01 0.80213155E+02</pdfrwt>
<totfact> 0.90870954E+04</totfact>
</mgrwt>
</event>
<event>
 8    1  0.7756875E-014  0.8129092E+02  0.7818608E-02  0.1325427E+00
          1   -1    0    0  501    0  0.00000000000E+00  0.00000000000E+00  0.39947971359E+01  0.39948003152E+01  0.50400000000E-02 0. -1.
         -2   -1    0    0    0  501 -0.00000000000E+00 -0.00000000000E+00 -0.41355107790E+03  0.41355107791E+03  0.25500000000E-02 0.  1.
        -24    2    1    2    0    0  0.00000000000E+00  0.00000000000E+00 -0.40955628076E+03  0.41754587822E+03  0.81290917745E+02 0.  0.
         66    2    3    3    0    0 -0.27550312844E+02 -0.29276022546E+02 -0.23482701196E+03  0.23825161235E+03  0.20000019182E+01 0.  0.
         13    1    3    3    0    0  0.27550312844E+02  0.29276022546E+02 -0.17472926881E+03  0.17929426587E+03  0.10566000000E+00 0. -1.
         13    1    4    4    0    0 -0.14278334816E+01 -0.15894389786E+01 -0.11770572132E+02  0.11963384014E+02  0.10566000000E+00 0. -1.
        -13    1    4    4    0    0 -0.10933028715E+02 -0.11569485414E+02 -0.98583361324E+02  0.99860274401E+02  0.10566000000E+00 0.  1.
        -14    1    4    4    0    0 -0.15189450648E+02 -0.16117098153E+02 -0.12447307850E+03  0.12642795393E+03  0.00000000000E+00 0.  1.
<mgrwt>
<rscale>  0 0.81290918E+02</rscale>
<asrwt>0</asrwt>
<pdfrwt beam="1">  1        1 0.61458475E-03 0.81290918E+02</pdfrwt>
<pdfrwt beam="2">  1       -2 0.63623209E-01 0.81290918E+02</pdfrwt>
<totfact> 0.55445538E+04</totfact>
</mgrwt>
</event>
<event>
 8    1  0.7756875E-014  0.7930683E+02  0.7818608E-02  0.1331030E+00
          1   -1    0    0  501    0  0.00000000000E+00  0.00000000000E+00  0.66487786578E+01  0.66487805681E+01  0.50400000000E-02 0. -1.
         -2   -1    0    0    0  501 -0.00000000000E+00 -0.00000000000E+00 -0.23649349718E+03  0.23649349719E+03  0.25500000000E-02 0.  1.
        -24    2    1    2    0    0  0.00000000000E+00  0.00000000000E+00 -0.22984471852E+03  0.24314227776E+03  0.79306825700E+02 0.  0.
         66    2    3    3    0    0  0.18840189465E+02  0.26077116879E+02 -0.18593618952E+03  0.18870939388E+03  0.20000010608E+01 0.  0.
         13    1    3    3    0    0 -0.18840189465E+02 -0.26077116879E+02 -0.43908529005E+02  0.54432883877E+02  0.10566000000E+00 0. -1.
         13    1    4    4    0    0  0.23208990534E+01  0.28943588135E+01 -0.20770149022E+02  0.21099150215E+02  0.10566000000E+00 0.  1.
        -13    1    4    4    0    0  0.12945392171E+02  0.17402562019E+02 -0.12216263849E+03  0.12407317902E+03  0.10566000000E+00 0.  1.
         14    1    4    4    0    0  0.35738982407E+01  0.57801960463E+01 -0.43003402000E+02  0.43537064652E+02  0.00000000000E+00 0. -1.
<mgrwt>
<rscale>  0 0.79306826E+02</rscale>
<asrwt>0</asrwt>
<pdfrwt beam="1">  1        1 0.10228894E-02 0.79306826E+02</pdfrwt>
<pdfrwt beam="2">  1       -2 0.36383609E-01 0.79306826E+02</pdfrwt>
<totfact> 0.80940782E+04</totfact>
</mgrwt>
</event>
<event>
 8    1  0.7756875E-014  0.7874196E+02  0.7818608E-02  0.1332660E+00
          1   -1    0    0  501    0  0.00000000000E+00  0.00000000000E+00  0.16777521928E+03  0.16777521935E+03  0.50400000000E-02 0. -1.
         -2   -1    0    0    0  501 -0.00000000000E+00 -0.00000000000E+00 -0.92389928399E+01  0.92389931918E+01  0.25500000000E-02 0.  1.
        -24    2    1    2    0    0 -0.88817841970E-15 -0.35527136788E-14  0.15853622644E+03  0.17701421255E+03  0.78741960541E+02 0.  0.
         66    2    3    3    0    0  0.68683539323E+01  0.25473291965E+02  0.13701061704E+02  0.29795670925E+02  0.20000061985E+01 0.  0.
         13    1    3    3    0    0 -0.68683539323E+01 -0.25473291965E+02  0.14483516473E+03  0.14721854162E+03  0.10566000000E+00 0. -1.
         13    1    4    4    0    0  0.10267332883E+01  0.43526943590E+01  0.18240199464E+01  0.48309773575E+01  0.10566000000E+00 0. -1.
        -13    1    4    4    0    0  0.40286282729E+01  0.15109233457E+02  0.77653497837E+01  0.17459398693E+02  0.10566000000E+00 0.  1.
        -14    1    4    4    0    0  0.18129923711E+01  0.60113641488E+01  0.41116919739E+01  0.75052948746E+01  0.00000000000E+00 0.  1.
<mgrwt>
<rscale>  0 0.78741961E+02</rscale>
<asrwt>0</asrwt>
<pdfrwt beam="1">  1        1 0.25811573E-01 0.78741961E+02</pdfrwt>
<pdfrwt beam="2">  1       -2 0.14213835E-02 0.78741961E+02</pdfrwt>
<totfact> 0.16816699E+05</totfact>
</mgrwt>
</event>
<event>
 8    1  0.7756875E-014  0.7932907E+02  0.7818608E-02  0.1330966E+00
         -2   -1    0    0    0  501 -0.00000000000E+00  0.00000000000E+00  0.59593814820E+03  0.59593814820E+03  0.25500000000E-02 0.  1.
          1   -1    0    0  501    0  0.00000000000E+00 -0.00000000000E+00 -0.26399955391E+01  0.26400003500E+01  0.50400000000E-02 0. -1.
        -24    2    1    2    0    0  0.00000000000E+00  0.17763568394E-14  0.59329815266E+03  0.59857814855E+03  0.79329073972E+02 0.  0.
         66    2    3    3    0    0 -0.20980692780E+02  0.12081794346E+02  0.53366405903E+03  0.53421670427E+03  0.19999973620E+01 0.  0.
         13    1    3    3    0    0  0.20980692780E+02 -0.12081794346E+02  0.59634093628E+02  0.64361444289E+02  0.10566000000E+00 0. -1.
         13    1    4    4    0    0 -0.27674190329E+01  0.19850284064E+01  0.70625959845E+02  0.70708106423E+02  0.10566000000E+00 0. -1.
        -13    1    4    4    0    0 -0.10707807795E+02  0.65707761456E+01  0.26815131226E+03  0.26844546872E+03  0.10566000000E+00 0.  1.
         14    1    4    4    0    0 -0.75054659518E+01  0.35259897936E+01  0.19488678693E+03  0.19506312912E+03  0.00000000000E+00 0. -1.
<mgrwt>
<rscale>  0 0.79329074E+02</rscale>
<asrwt>0</asrwt>
<pdfrwt beam="1">  1        1 0.40615308E-03 0.79329074E+02</pdfrwt>
<pdfrwt beam="2">  1       -2 0.91682893E-01 0.79329074E+02</pdfrwt>
<totfact> 0.44680832E+04</totfact>
</mgrwt>
</event>
<event>
 8    1  0.7756875E-014  0.7722185E+02  0.7818608E-02  0.1337126E+00
          1   -1    0    0  501    0  0.00000000000E+00  0.00000000000E+00  0.59700484646E+02  0.59700484859E+02  0.50400000000E-02 0. -1.
         -2   -1    0    0    0  501 -0.00000000000E+00 -0.00000000000E+00 -0.24971377501E+02  0.24971377631E+02  0.25500000000E-02 0.  1.
        -24    2    1    2    0    0  0.00000000000E+00  0.35527136788E-14  0.34729107145E+02  0.84671862490E+02  0.77221845448E+02 0.  0.
         66    2    3    3    0    0  0.17245082949E+02  0.20986688992E+02 -0.12671350515E+02  0.30039925391E+02  0.19999982081E+01 0.  0.
         13    1    3    3    0    0 -0.17245082949E+02 -0.20986688992E+02  0.47400457660E+02  0.54631937099E+02  0.10566000000E+00 0. -1.
         13    1    4    4    0    0  0.58620118130E+01  0.63215533064E+01 -0.41807875997E+01  0.95820335885E+01  0.10566000000E+00 0. -1.
        -13    1    4    4    0    0  0.91399031743E+01  0.12368195012E+02 -0.74017455834E+01  0.17067720399E+02  0.10566000000E+00 0.  1.
         14    1    4    4    0    0  0.22431679617E+01  0.22969406732E+01 -0.10888173322E+01  0.33901714033E+01  0.00000000000E+00 0. -1.
<mgrwt>
<rscale>  0 0.77221845E+02</rscale>
<asrwt>0</asrwt>
<pdfrwt beam="1">  1        1 0.91846899E-02 0.77221845E+02</pdfrwt>
<pdfrwt beam="2">  1       -2 0.38417504E-02 0.77221845E+02</pdfrwt>
<totfact> 0.14908398E+05</totfact>
</mgrwt>
</event>
<event>
 8    1  0.7756875E-014  0.7383382E+02  0.7818608E-02  0.1347521E+00
          1   -1    0    0  501    0  0.00000000000E+00  0.00000000000E+00  0.79092928874E+02  0.79092929035E+02  0.50400000000E-02 0. -1.
         -2   -1    0    0    0  501 -0.00000000000E+00 -0.00000000000E+00 -0.17231099578E+02  0.17231099767E+02  0.25500000000E-02 0.  1.
        -24    2    1    2    0    0  0.00000000000E+00  0.00000000000E+00  0.61861829296E+02  0.96324028802E+02  0.73833817460E+02 0.  0.
         66    2    3    3    0    0 -0.13363339912E+02  0.30016853936E+02  0.90741392973E+01  0.34145722671E+02  0.19999997370E+01 0.  0.
         13    1    3    3    0    0  0.13363339912E+02 -0.30016853936E+02  0.52787689999E+02  0.62178306130E+02  0.10566000000E+00 0. -1.
         13    1    4    4    0    0 -0.71258256215E+01  0.15162382648E+02  0.44055389519E+01  0.17323255348E+02  0.10566000000E+00 0. -1.
        -13    1    4    4    0    0 -0.32477361567E+01  0.87325788113E+01  0.21796155872E+01  0.95690966649E+01  0.10566000000E+00 0.  1.
         14    1    4    4    0    0 -0.29897781343E+01  0.61218924761E+01  0.24889847582E+01  0.72533706583E+01  0.00000000000E+00 0. -1.
<mgrwt>
<rscale>  0 0.73833817E+02</rscale>
<asrwt>0</asrwt>
<pdfrwt beam="1">  1        1 0.12168143E-01 0.73833817E+02</pdfrwt>
<pdfrwt beam="2">  1       -2 0.26509384E-02 0.73833817E+02</pdfrwt>
<totfact> 0.17574405E+05</totfact>
</mgrwt>
</event>
<event>
 8    1  0.7756875E-014  0.7952557E+02  0.7818608E-02  0.1330403E+00
          1   -1    0    0  501    0  0.00000000000E+00  0.00000000000E+00  0.60658145229E+02  0.60658145439E+02  0.50400000000E-02 0. -1.
         -2   -1    0    0    0  501 -0.00000000000E+00 -0.00000000000E+00 -0.26065402425E+02  0.26065402550E+02  0.25500000000E-02 0.  1.
        -24    2    1    2    0    0  0.35527136788E-14  0.17763568394E-14  0.34592742804E+02  0.86723547989E+02  0.79525567719E+02 0.  0.
         66    2    3    3    0    0 -0.26380414670E+02 -0.95690189041E+01  0.47988888098E+02  0.55627563140E+02  0.19999997558E+01 0.  0.
         13    1    3    3    0    0  0.26380414670E+02  0.95690189041E+01 -0.13396145294E+02  0.31095984849E+02  0.10566000000E+00 0. -1.
         13    1    4    4    0    0 -0.11711827812E+02 -0.43047769142E+01  0.21489176645E+02  0.24849424378E+02  0.10566000000E+00 0.  1.
        -13    1    4    4    0    0 -0.12160265210E+02 -0.44762139731E+01  0.23022194145E+02  0.26418575450E+02  0.10566000000E+00 0. -1.
         14    1    4    4    0    0 -0.25083216491E+01 -0.78802801669E+00  0.34775173072E+01  0.43595633121E+01  0.00000000000E+00 0. -1.
<mgrwt>
<rscale>  0 0.79525568E+02</rscale>
<asrwt>0</asrwt>
<pdfrwt beam="1">  1        1 0.93320224E-02 0.79525568E+02</pdfrwt>
<pdfrwt beam="2">  1       -2 0.40100619E-02 0.79525568E+02</pdfrwt>
<totfact> 0.13785566E+05</totfact>
</mgrwt>
</event>
<event>
 8    1  0.7756875E-014  0.7930038E+02  0.7818608E-02  0.1331049E+00
         -2   -1    0    0    0  501 -0.00000000000E+00  0.00000000000E+00  0.81374958424E+02  0.81374958464E+02  0.25500000000E-02 0.  1.
          1   -1    0    0  501    0  0.00000000000E+00 -0.00000000000E+00 -0.19319674203E+02  0.19319674861E+02  0.50400000000E-02 0. -1.
        -24    2    1    2    0    0  0.00000000000E+00  0.00000000000E+00  0.62055284221E+02  0.10069463333E+03  0.79300383862E+02 0.  0.
         66    2    3    3    0    0 -0.36833531453E+02 -0.81246262737E+01  0.15630294914E+02  0.40878169140E+02  0.20000004461E+01 0.  0.
         13    1    3    3    0    0  0.36833531453E+02  0.81246262737E+01  0.46424989307E+02  0.59816464185E+02  0.10566000000E+00 0. -1.
         13    1    4    4    0    0 -0.20938315090E+02 -0.38548602784E+01  0.81385693445E+01  0.22792991502E+02  0.10566000000E+00 0. -1.
        -13    1    4    4    0    0 -0.36434450743E+01 -0.98327713179E+00  0.17647853565E+01  0.41673921483E+01  0.10566000000E+00 0.  1.
         14    1    4    4    0    0 -0.12251771288E+02 -0.32864888634E+01  0.57269402133E+01  0.13917785490E+02  0.00000000000E+00 0. -1.
<mgrwt>
<rscale>  0 0.79300384E+02</rscale>
<asrwt>0</asrwt>
<pdfrwt beam="1">  1        1 0.29722577E-02 0.79300384E+02</pdfrwt>
<pdfrwt beam="2">  1       -2 0.12519224E-01 0.79300384E+02</pdfrwt>
<totfact> 0.11386859E+05</totfact>
</mgrwt>
</event>
<event>
 8    1  0.7756875E-014  0.7764908E+02  0.7818608E-02  0.1335859E+00
          1   -1    0    0  501    0  0.00000000000E+00  0.00000000000E+00  0.60817139323E+02  0.60817139532E+02  0.50400000000E-02 0. -1.
         -2   -1    0    0    0  501 -0.00000000000E+00 -0.00000000000E+00 -0.24784870319E+02  0.24784870450E+02  0.25500000000E-02 0.  1.
        -24    2    1    2    0    0 -0.17763568394E-14  0.00000000000E+00  0.36032269004E+02  0.85602009982E+02  0.77649080506E+02 0.  0.
         66    2    3    3    0    0 -0.15058746425E+02  0.29030509671E+02 -0.49859984346E+01  0.33142065612E+02  0.19999992471E+01 0.  0.
         13    1    3    3    0    0  0.15058746425E+02 -0.29030509671E+02  0.41018267439E+02  0.52459944370E+02  0.10566000000E+00 0. -1.
         13    1    4    4    0    0 -0.64218598177E+01  0.12354988660E+02 -0.30918049621E+01  0.14263816119E+02  0.10566000000E+00 0. -1.
        -13    1    4    4    0    0 -0.37375637346E+01  0.68724321795E+01 -0.81027706313E+00  0.78655845102E+01  0.10566000000E+00 0.  1.
         14    1    4    4    0    0 -0.48993228724E+01  0.98030888312E+01 -0.10839164094E+01  0.11012664983E+02  0.00000000000E+00 0. -1.
<mgrwt>
<rscale>  0 0.77649081E+02</rscale>
<asrwt>0</asrwt>
<pdfrwt beam="1">  1        1 0.93564830E-02 0.77649081E+02</pdfrwt>
<pdfrwt beam="2">  1       -2 0.38130570E-02 0.77649081E+02</pdfrwt>
<totfact> 0.14726147E+05</totfact>
</mgrwt>
</event>
<event>
 8    1  0.7756875E-014  0.8309504E+02  0.7818608E-02  0.1320491E+00
          1   -1    0    0  501    0  0.00000000000E+00  0.00000000000E+00  0.11243289359E+03  0.11243289371E+03  0.50400000000E-02 0. -1.
         -2   -1    0    0    0  501 -0.00000000000E+00 -0.00000000000E+00 -0.15353125348E+02  0.15353125559E+02  0.25500000000E-02 0.  1.
        -24    2    1    2    0    0 -0.71054273576E-14  0.00000000000E+00  0.97079768247E+02  0.12778601927E+03  0.83095037861E+02 0.  0.
         66    2    3    3    0    0  0.37292427224E+02  0.70800940314E+01  0.22682159801E+02  0.44264356411E+02  0.20000038705E+01 0.  0.
         13    1    3    3    0    0 -0.37292427224E+02 -0.70800940314E+01  0.74397608445E+02  0.83521662856E+02  0.10566000000E+00 0. -1.
         13    1    4    4    0    0  0.88959660845E+01  0.16828571019E+01  0.49811396414E+01  0.10334076483E+02  0.10566000000E+00 0. -1.
        -13    1    4    4    0    0  0.14454492350E+02  0.30865107275E+01  0.82236033509E+01  0.16914423244E+02  0.10566000000E+00 0.  1.
         14    1    4    4    0    0  0.13941968789E+02  0.23107262020E+01  0.94774168090E+01  0.17015856683E+02  0.00000000000E+00 0. -1.
<mgrwt>
<rscale>  0 0.83095038E+02</rscale>
<asrwt>0</asrwt>
<pdfrwt beam="1">  1        1 0.17297369E-01 0.83095038E+02</pdfrwt>
<pdfrwt beam="2">  1       -2 0.23620192E-02 0.83095038E+02</pdfrwt>
<totfact> 0.13535064E+05</totfact>
</mgrwt>
</event>
<event>
 8    1  0.7756875E-014  0.7940553E+02  0.7818608E-02  0.1330747E+00
          1   -1    0    0  501    0  0.00000000000E+00  0.00000000000E+00  0.76535807369E+01  0.76535823963E+01  0.50400000000E-02 0. -1.
         -2   -1    0    0    0  501 -0.00000000000E+00 -0.00000000000E+00 -0.20595710679E+03  0.20595710680E+03  0.25500000000E-02 0.  1.
        -24    2    1    2    0    0  0.00000000000E+00 -0.35527136788E-14 -0.19830352605E+03  0.21361068920E+03  0.79405529380E+02 0.  0.
         66    2    3    3    0    0 -0.17629492434E+02  0.24681979853E+02 -0.16802622260E+03  0.17075365475E+03  0.19999997370E+01 0.  0.
         13    1    3    3    0    0  0.17629492434E+02 -0.24681979853E+02 -0.30277303453E+02  0.42857034444E+02  0.10566000000E+00 0. -1.
         13    1    4    4    0    0 -0.13221143430E+01  0.25647116845E+01 -0.17419058494E+02  0.17656740786E+02  0.10566000000E+00 0.  1.
        -13    1    4    4    0    0 -0.22535993067E+01  0.34668532003E+01 -0.21282782570E+02  0.21681000413E+02  0.10566000000E+00 0.  1.
         14    1    4    4    0    0 -0.14053778784E+02  0.18650414968E+02 -0.12932438153E+03  0.13141591355E+03  0.00000000000E+00 0. -1.
<mgrwt>
<rscale>  0 0.79405529E+02</rscale>
<asrwt>0</asrwt>
<pdfrwt beam="1">  1        1 0.11774742E-02 0.79405529E+02</pdfrwt>
<pdfrwt beam="2">  1       -2 0.31685705E-01 0.79405529E+02</pdfrwt>
<totfact> 0.85691302E+04</totfact>
</mgrwt>
</event>
<event>
 8    1  0.7756875E-014  0.8268362E+02  0.7818608E-02  0.1321604E+00
         -2   -1    0    0    0  501 -0.00000000000E+00  0.00000000000E+00  0.37474990173E+02  0.37474990260E+02  0.25500000000E-02 0.  1.
          1   -1    0    0  501    0  0.00000000000E+00 -0.00000000000E+00 -0.45607621553E+02  0.45607621832E+02  0.50400000000E-02 0. -1.
        -24    2    1    2    0    0  0.35527136788E-14  0.00000000000E+00 -0.81326313804E+01  0.83082612091E+02  0.82683618322E+02 0.  0.
         66    2    3    3    0    0  0.13046676592E+02 -0.93356160451E+01  0.34190903048E+02  0.37820462036E+02  0.20000000844E+01 0.  0.
         13    1    3    3    0    0 -0.13046676592E+02  0.93356160451E+01 -0.42323534429E+02  0.45262150055E+02  0.10566000000E+00 0. -1.
         13    1    4    4    0    0  0.17131475926E+01 -0.10918598177E+01  0.44531960358E+01  0.48958300118E+01  0.10566000000E+00 0. -1.
        -13    1    4    4    0    0  0.27581923028E+01 -0.11151122374E+01  0.59856307041E+01  0.66850608855E+01  0.10566000000E+00 0.  1.
        -14    1    4    4    0    0  0.85753366968E+01 -0.71286439899E+01  0.23752076308E+02  0.26239571139E+02  0.00000000000E+00 0.  1.
<mgrwt>
<rscale>  0 0.82683618E+02</rscale>
<asrwt>0</asrwt>
<pdfrwt beam="1">  1        1 0.70165572E-02 0.82683618E+02</pdfrwt>
<pdfrwt beam="2">  1       -2 0.57653831E-02 0.82683618E+02</pdfrwt>
<totfact> 0.11821649E+05</totfact>
</mgrwt>
</event>
<event>
 8    1  0.7756875E-014  0.7233388E+02  0.7818608E-02  0.1352332E+00
          1   -1    0    0  501    0  0.00000000000E+00  0.00000000000E+00  0.22317353290E+01  0.22317410200E+01  0.50400000000E-02 0. -1.
         -2   -1    0    0    0  501 -0.00000000000E+00 -0.00000000000E+00 -0.58611151868E+03  0.58611151869E+03  0.25500000000E-02 0.  1.
        -24    2    1    2    0    0  0.00000000000E+00 -0.71054273576E-14 -0.58387978335E+03  0.58834325971E+03  0.72333877505E+02 0.  0.
         66    2    3    3    0    0 -0.33165426034E+01  0.33262541813E+02 -0.40387794946E+03  0.40526385750E+03  0.19999988525E+01 0.  0.
         13    1    3    3    0    0  0.33165426034E+01 -0.33262541813E+02 -0.18000183389E+03  0.18307940221E+03  0.10566000000E+00 0. -1.
         13    1    4    4    0    0 -0.15090890290E+00  0.23374279582E+00 -0.39841805621E+01  0.39952807134E+01  0.10566000000E+00 0.  1.
        -13    1    4    4    0    0 -0.95030975139E+00  0.11232453839E+02 -0.13958670710E+03  0.14004117634E+03  0.10566000000E+00 0.  1.
         14    1    4    4    0    0 -0.22153239491E+01  0.21796345178E+02 -0.26030706180E+03  0.26122740045E+03  0.00000000000E+00 0. -1.
<mgrwt>
<rscale>  0 0.72333878E+02</rscale>
<asrwt>0</asrwt>
<pdfrwt beam="1">  1        1 0.34334480E-03 0.72333878E+02</pdfrwt>
<pdfrwt beam="2">  1       -2 0.90170880E-01 0.72333878E+02</pdfrwt>
<totfact> 0.57443567E+04</totfact>
</mgrwt>
</event>
<event>
 8    1  0.7756875E-014  0.8034262E+02  0.7818608E-02  0.1328082E+00
         -2   -1    0    0    0  501 -0.00000000000E+00  0.00000000000E+00  0.84514086966E+02  0.84514087005E+02  0.25500000000E-02 0.  1.
          1   -1    0    0  501    0  0.00000000000E+00 -0.00000000000E+00 -0.19094259924E+02  0.19094260589E+02  0.50400000000E-02 0. -1.
        -24    2    1    2    0    0  0.35527136788E-14  0.35527136788E-14  0.65419827042E+02  0.10360834759E+03  0.80342615846E+02 0.  0.
         66    2    3    3    0    0 -0.30782478936E+02 -0.17759606974E+02  0.86468912484E+01  0.36629678960E+02  0.20000007824E+01 0.  0.
         13    1    3    3    0    0  0.30782478936E+02  0.17759606974E+02  0.56772935794E+02  0.66978668634E+02  0.10566000000E+00 0. -1.
         13    1    4    4    0    0 -0.67953505213E+01 -0.35700217838E+01  0.24455690399E+01  0.80569110835E+01  0.10566000000E+00 0. -1.
        -13    1    4    4    0    0 -0.99550937258E+01 -0.58940047578E+01  0.31264648750E+01  0.11984537114E+02  0.10566000000E+00 0.  1.
        -14    1    4    4    0    0 -0.14032034689E+02 -0.82955804321E+01  0.30748573336E+01  0.16588230763E+02  0.00000000000E+00 0.  1.
<mgrwt>
<rscale>  0 0.80342616E+02</rscale>
<asrwt>0</asrwt>
<pdfrwt beam="1">  1        1 0.29375785E-02 0.80342616E+02</pdfrwt>
<pdfrwt beam="2">  1       -2 0.13002167E-01 0.80342616E+02</pdfrwt>
<totfact> 0.10922367E+05</totfact>
</mgrwt>
</event>
<event>
 8    1  0.7756875E-014  0.7971405E+02  0.7818608E-02  0.1329865E+00
         -2   -1    0    0    0  501 -0.00000000000E+00  0.00000000000E+00  0.15056067428E+03  0.15056067430E+03  0.25500000000E-02 0.  1.
          1   -1    0    0  501    0  0.00000000000E+00 -0.00000000000E+00 -0.10551110341E+02  0.10551111545E+02  0.50400000000E-02 0. -1.
        -24    2    1    2    0    0  0.00000000000E+00  0.00000000000E+00  0.14000956394E+03  0.16111178585E+03  0.79714048601E+02 0.  0.
         66    2    3    3    0    0  0.15342237466E+02 -0.99720418620E+01  0.14155621333E+03  0.14274798565E+03  0.20000008526E+01 0.  0.
         13    1    3    3    0    0 -0.15342237466E+02  0.99720418620E+01 -0.15466493961E+01  0.18363800199E+02  0.10566000000E+00 0. -1.
         13    1    4    4    0    0  0.18738716510E+01 -0.15428993076E+01  0.15593328383E+02  0.15781476082E+02  0.10566000000E+00 0. -1.
        -13    1    4    4    0    0  0.24123579458E+01 -0.13073530972E+01  0.18735854645E+02  0.18935998952E+02  0.10566000000E+00 0.  1.
         14    1    4    4    0    0  0.11056007869E+02 -0.71217894572E+01  0.10722703031E+03  0.10803051061E+03  0.00000000000E+00 0. -1.
<mgrwt>
<rscale>  0 0.79714049E+02</rscale>
<asrwt>0</asrwt>
<pdfrwt beam="1">  1        1 0.16232479E-02 0.79714049E+02</pdfrwt>
<pdfrwt beam="2">  1       -2 0.23163180E-01 0.79714049E+02</pdfrwt>
<totfact> 0.95268175E+04</totfact>
</mgrwt>
</event>
<event>
 8    1  0.7756875E-014  0.7439569E+02  0.7818608E-02  0.1345753E+00
         -2   -1    0    0    0  501 -0.00000000000E+00  0.00000000000E+00  0.34605051439E+03  0.34605051440E+03  0.25500000000E-02 0.  1.
          1   -1    0    0  501    0  0.00000000000E+00 -0.00000000000E+00 -0.39984888673E+01  0.39984920437E+01  0.50400000000E-02 0. -1.
        -24    2    1    2    0    0  0.00000000000E+00  0.00000000000E+00  0.34205202552E+03  0.35004900644E+03  0.74395690384E+02 0.  0.
         66    2    3    3    0    0  0.19164363950E+02 -0.17798985081E+02  0.29542425516E+03  0.29658652569E+03  0.19999916489E+01 0.  0.
         13    1    3    3    0    0 -0.19164363950E+02  0.17798985081E+02  0.46627770358E+02  0.53462480752E+02  0.10566000000E+00 0. -1.
         13    1    4    4    0    0  0.16654006985E+02 -0.15776562463E+02  0.26405732775E+03  0.26505195600E+03  0.10566000000E+00 0. -1.
        -13    1    4    4    0    0  0.16847505135E+01 -0.15680918121E+01  0.22600365012E+02  0.22717503361E+02  0.10566000000E+00 0.  1.
         14    1    4    4    0    0  0.82560645154E+00 -0.45433080657E+00  0.87665623979E+01  0.88170663358E+01  0.00000000000E+00 0. -1.
<mgrwt>
<rscale>  0 0.74395690E+02</rscale>
<asrwt>0</asrwt>
<pdfrwt beam="1">  1        1 0.61515200E-03 0.74395690E+02</pdfrwt>
<pdfrwt beam="2">  1       -2 0.53238574E-01 0.74395690E+02</pdfrwt>
<totfact> 0.78080916E+04</totfact>
</mgrwt>
</event>
<event>
 8    1  0.7756875E-014  0.8153086E+02  0.7818608E-02  0.1324762E+00
         -2   -1    0    0    0  501 -0.00000000000E+00  0.00000000000E+00  0.13916693882E+02  0.13916694116E+02  0.25500000000E-02 0.  1.
          1   -1    0    0  501    0  0.00000000000E+00 -0.00000000000E+00 -0.11941199781E+03  0.11941199792E+03  0.50400000000E-02 0. -1.
        -24    2    1    2    0    0  0.00000000000E+00  0.00000000000E+00 -0.10549530393E+03  0.13332869203E+03  0.81530858995E+02 0.  0.
         66    2    3    3    0    0  0.30917272098E+02  0.90550940374E+01 -0.11996524057E+02  0.34435287585E+02  0.19999999030E+01 0.  0.
         13    1    3    3    0    0 -0.30917272098E+02 -0.90550940374E+01 -0.93498779872E+02  0.98893404450E+02  0.10566000000E+00 0. -1.
         13    1    4    4    0    0  0.56766592640E+00  0.41394585973E+00 -0.30206705693E+00  0.77201316133E+00  0.10566000000E+00 0. -1.
        -13    1    4    4    0    0  0.24487619373E+02  0.69233159112E+01 -0.90860311507E+01  0.27021157116E+02  0.10566000000E+00 0.  1.
        -14    1    4    4    0    0  0.58619867980E+01  0.17178322665E+01 -0.26084258497E+01  0.66421173077E+01  0.00000000000E+00 0.  1.
<mgrwt>
<rscale>  0 0.81530859E+02</rscale>
<asrwt>0</asrwt>
<pdfrwt beam="1">  1        1 0.18371076E-01 0.81530859E+02</pdfrwt>
<pdfrwt beam="2">  1       -2 0.21410299E-02 0.81530859E+02</pdfrwt>
<totfact> 0.14399661E+05</totfact>
</mgrwt>
</event>
<event>
 8    1  0.7756875E-014  0.7534914E+02  0.7818608E-02  0.1342793E+00
          1   -1    0    0  501    0  0.00000000000E+00  0.00000000000E+00  0.78080990002E+02  0.78080990164E+02  0.50400000000E-02 0. -1.
         -2   -1    0    0    0  501 -0.00000000000E+00 -0.00000000000E+00 -0.18178215910E+02  0.18178216088E+02  0.25500000000E-02 0.  1.
        -24    2    1    2    0    0  0.71054273576E-14  0.00000000000E+00  0.59902774092E+02  0.96259206253E+02  0.75349136986E+02 0.  0.
         66    2    3    3    0    0  0.32109337779E+02  0.78086290537E+01  0.69282068927E+01  0.33822837089E+02  0.19999994276E+01 0.  0.
         13    1    3    3    0    0 -0.32109337779E+02 -0.78086290537E+01  0.52974567199E+02  0.62436369163E+02  0.10566000000E+00 0. -1.
         13    1    4    4    0    0  0.59353044250E+01  0.84048522898E+00  0.13159368936E+01  0.61381681291E+01  0.10566000000E+00 0. -1.
        -13    1    4    4    0    0  0.73315027571E+01  0.14680754378E+01  0.17386237663E+01  0.76772491691E+01  0.10566000000E+00 0.  1.
         14    1    4    4    0    0  0.18842530597E+02  0.55000683868E+01  0.38736462329E+01  0.20007419791E+02  0.00000000000E+00 0. -1.
<mgrwt>
<rscale>  0 0.75349137E+02</rscale>
<asrwt>0</asrwt>
<pdfrwt beam="1">  1        1 0.12012460E-01 0.75349137E+02</pdfrwt>
<pdfrwt beam="2">  1       -2 0.27966486E-02 0.75349137E+02</pdfrwt>
<totfact> 0.16605971E+05</totfact>
</mgrwt>
</event>
<event>
 8    1  0.7756875E-014  0.7687103E+02  0.7818608E-02  0.1338173E+00
         -2   -1    0    0    0  501 -0.00000000000E+00  0.00000000000E+00  0.66748690717E+02  0.66748690766E+02  0.25500000000E-02 0.  1.
          1   -1    0    0  501    0  0.00000000000E+00 -0.00000000000E+00 -0.22132098710E+02  0.22132099284E+02  0.50400000000E-02 0. -1.
        -24    2    1    2    0    0  0.00000000000E+00  0.00000000000E+00  0.44616592007E+02  0.88880790050E+02  0.76871025475E+02 0.  0.
         66    2    3    3    0    0  0.35689888505E+02 -0.33521709376E+01  0.63741094384E+01  0.36464153105E+02  0.19999997585E+01 0.  0.
         13    1    3    3    0    0 -0.35689888505E+02  0.33521709376E+01  0.38242482568E+02  0.52416636944E+02  0.10566000000E+00 0. -1.
         13    1    4    4    0    0  0.26061878298E+02 -0.25661993384E+01  0.39658932843E+01  0.26486720315E+02  0.10566000000E+00 0. -1.
        -13    1    4    4    0    0  0.79414098165E+01 -0.89159231824E+00  0.19479870899E+01  0.82259798488E+01  0.10566000000E+00 0.  1.
         14    1    4    4    0    0  0.16866003906E+01  0.10562071907E+00  0.46022906422E+00  0.17514529413E+01  0.00000000000E+00 0. -1.
<mgrwt>
<rscale>  0 0.76871025E+02</rscale>
<asrwt>0</asrwt>
<pdfrwt beam="1">  1        1 0.34049383E-02 0.76871025E+02</pdfrwt>
<pdfrwt beam="2">  1       -2 0.10269029E-01 0.76871025E+02</pdfrwt>
<totfact> 0.12835159E+05</totfact>
</mgrwt>
</event>
<event>
 8    1  0.7756875E-014  0.7640063E+02  0.7818608E-02  0.1339588E+00
         -2   -1    0    0    0  501 -0.00000000000E+00  0.00000000000E+00  0.28391338933E+03  0.28391338934E+03  0.25500000000E-02 0.  1.
          1   -1    0    0  501    0  0.00000000000E+00 -0.00000000000E+00 -0.51398204065E+01  0.51398228776E+01  0.50400000000E-02 0. -1.
        -24    2    1    2    0    0  0.00000000000E+00  0.35527136788E-14  0.27877356893E+03  0.28905321222E+03  0.76400633268E+02 0.  0.
         66    2    3    3    0    0 -0.24985135561E+02 -0.26605100600E+02  0.97153568237E+02  0.10380223600E+03  0.20000000827E+01 0.  0.
         13    1    3    3    0    0  0.24985135561E+02  0.26605100600E+02  0.18162000069E+03  0.18525097622E+03  0.10566000000E+00 0. -1.
         13    1    4    4    0    0 -0.30420188395E+01 -0.28448657942E+01  0.12281728423E+02  0.12969161773E+02  0.10566000000E+00 0. -1.
        -13    1    4    4    0    0 -0.92666783076E+01 -0.94317934327E+01  0.35804394537E+02  0.38167995578E+02  0.10566000000E+00 0.  1.
         14    1    4    4    0    0 -0.12676438414E+02 -0.14328441373E+02  0.49067445278E+02  0.52665078649E+02  0.00000000000E+00 0. -1.
<mgrwt>
<rscale>  0 0.76400633E+02</rscale>
<asrwt>0</asrwt>
<pdfrwt beam="1">  1        1 0.79074155E-03 0.76400633E+02</pdfrwt>
<pdfrwt beam="2">  1       -2 0.43678996E-01 0.76400633E+02</pdfrwt>
<totfact> 0.81488739E+04</totfact>
</mgrwt>
</event>
<event>
 8    1  0.7756875E-014  0.7949555E+02  0.7818608E-02  0.1330489E+00
         -2   -1    0    0    0  501 -0.00000000000E+00  0.00000000000E+00  0.96668401407E+02  0.96668401440E+02  0.25500000000E-02 0.  1.
          1   -1    0    0  501    0  0.00000000000E+00 -0.00000000000E+00 -0.16343351609E+02  0.16343352386E+02  0.50400000000E-02 0. -1.
        -24    2    1    2    0    0  0.22204460493E-15  0.00000000000E+00  0.80325049798E+02  0.11301175383E+03  0.79495552566E+02 0.  0.
         66    2    3    3    0    0 -0.79747313117E+00 -0.28156274585E+02  0.80004888179E+02  0.84842170418E+02  0.19999966863E+01 0.  0.
         13    1    3    3    0    0  0.79747313117E+00  0.28156274585E+02  0.32016161885E+00  0.28169583408E+02  0.10566000000E+00 0. -1.
         13    1    4    4    0    0 -0.57316736487E+00 -0.80576260062E+01  0.23365371551E+02  0.24722572872E+02  0.10566000000E+00 0. -1.
        -13    1    4    4    0    0 -0.57225242349E+00 -0.18854600184E+02  0.52781832986E+02  0.56051373564E+02  0.10566000000E+00 0.  1.
        -14    1    4    4    0    0  0.34794665719E+00 -0.12440483945E+01  0.38576836423E+01  0.40682239821E+01  0.00000000000E+00 0.  1.
<mgrwt>
<rscale>  0 0.79495553E+02</rscale>
<asrwt>0</asrwt>
<pdfrwt beam="1">  1        1 0.25143618E-02 0.79495553E+02</pdfrwt>
<pdfrwt beam="2">  1       -2 0.14872062E-01 0.79495553E+02</pdfrwt>
<totfact> 0.10876027E+05</totfact>
</mgrwt>
</event>
<event>
 8    1  0.7756875E-014  0.7960575E+02  0.7818608E-02  0.1330174E+00
          1   -1    0    0  501    0  0.00000000000E+00  0.00000000000E+00  0.15740198494E+02  0.15740199301E+02  0.50400000000E-02 0. -1.
         -2   -1    0    0    0  501 -0.00000000000E+00 -0.00000000000E+00 -0.10065114261E+03  0.10065114264E+03  0.25500000000E-02 0.  1.
        -24    2    1    2    0    0  0.00000000000E+00  0.88817841970E-15 -0.84910944111E+02  0.11639134194E+03  0.79605753865E+02 0.  0.
         66    2    3    3    0    0 -0.21878435485E+02  0.37797639113E+01 -0.90738299983E+02  0.93436564768E+02  0.19999993223E+01 0.  0.
         13    1    3    3    0    0  0.21878435485E+02 -0.37797639113E+01  0.58273558719E+01  0.22954777171E+02  0.10566000000E+00 0. -1.
         13    1    4    4    0    0 -0.57512392496E+01  0.49148804309E+00 -0.20735557451E+02  0.21524237972E+02  0.10566000000E+00 0. -1.
        -13    1    4    4    0    0 -0.13671793000E+02  0.28434319046E+01 -0.58990789028E+02  0.60621179327E+02  0.10566000000E+00 0.  1.
         14    1    4    4    0    0 -0.24554032354E+01  0.44484396354E+00 -0.11011953504E+02  0.11291147469E+02  0.00000000000E+00 0. -1.
<mgrwt>
<rscale>  0 0.79605754E+02</rscale>
<asrwt>0</asrwt>
<pdfrwt beam="1">  1        1 0.24215691E-02 0.79605754E+02</pdfrwt>
<pdfrwt beam="2">  1       -2 0.15484791E-01 0.79605754E+02</pdfrwt>
<totfact> 0.10730484E+05</totfact>
</mgrwt>
</event>
<event>
 8    1  0.7756875E-014  0.7982235E+02  0.7818608E-02  0.1329556E+00
         -2   -1    0    0    0  501 -0.00000000000E+00  0.00000000000E+00  0.52379410373E+01  0.52379416580E+01  0.25500000000E-02 0.  1.
          1   -1    0    0  501    0  0.00000000000E+00 -0.00000000000E+00 -0.30410840335E+03  0.30410840339E+03  0.50400000000E-02 0. -1.
        -24    2    1    2    0    0  0.00000000000E+00 -0.71054273576E-14 -0.29887046231E+03  0.30934634505E+03  0.79822352462E+02 0.  0.
         66    2    3    3    0    0  0.60631092307E+01 -0.38144637158E+02 -0.11094486324E+03  0.11749271181E+03  0.20000027816E+01 0.  0.
         13    1    3    3    0    0 -0.60631092307E+01  0.38144637158E+02 -0.18792559907E+03  0.19185363324E+03  0.10566000000E+00 0. -1.
         13    1    4    4    0    0  0.33919485021E+00 -0.18580454558E+01 -0.63876671708E+01  0.66618947743E+01  0.10566000000E+00 0. -1.
        -13    1    4    4    0    0  0.18301950966E+01 -0.14119056310E+02 -0.42067810268E+02  0.44411813631E+02  0.10566000000E+00 0.  1.
        -14    1    4    4    0    0  0.38937192839E+01 -0.22167535392E+02 -0.62489385805E+02  0.66419003407E+02  0.00000000000E+00 0.  1.
<mgrwt>
<rscale>  0 0.79822352E+02</rscale>
<asrwt>0</asrwt>
<pdfrwt beam="1">  1        1 0.46785895E-01 0.79822352E+02</pdfrwt>
<pdfrwt beam="2">  1       -2 0.80583737E-03 0.79822352E+02</pdfrwt>
<totfact> 0.18194577E+05</totfact>
</mgrwt>
</event>
<event>
 8    1  0.7756875E-014  0.7928824E+02  0.7818608E-02  0.1331084E+00
          1   -1    0    0  501    0  0.00000000000E+00  0.00000000000E+00  0.14308209010E+03  0.14308209019E+03  0.50400000000E-02 0. -1.
         -2   -1    0    0    0  501 -0.00000000000E+00 -0.00000000000E+00 -0.10984296675E+02  0.10984296971E+02  0.25500000000E-02 0.  1.
        -24    2    1    2    0    0  0.00000000000E+00  0.00000000000E+00  0.13209779342E+03  0.15406638716E+03  0.79288237618E+02 0.  0.
         66    2    3    3    0    0 -0.33071094081E+02  0.68874393030E+01  0.25866992554E+02  0.42593842102E+02  0.19999993441E+01 0.  0.
         13    1    3    3    0    0  0.33071094081E+02 -0.68874393030E+01  0.10623080087E+03  0.11147254506E+03  0.10566000000E+00 0. -1.
         13    1    4    4    0    0 -0.95351377778E+01  0.16936845591E+01  0.76871416155E+01  0.12364899113E+02  0.10566000000E+00 0. -1.
        -13    1    4    4    0    0 -0.13616580580E+01  0.57195127012E+00  0.83464390381E+00  0.16997162717E+01  0.10566000000E+00 0.  1.
        -14    1    4    4    0    0 -0.22174298245E+02  0.46218034738E+01  0.17345207034E+02  0.28529226717E+02  0.00000000000E+00 0.  1.
<mgrwt>
<rscale>  0 0.79288238E+02</rscale>
<asrwt>0</asrwt>
<pdfrwt beam="1">  1        1 0.22012629E-01 0.79288238E+02</pdfrwt>
<pdfrwt beam="2">  1       -2 0.16898919E-02 0.79288238E+02</pdfrwt>
<totfact> 0.16030652E+05</totfact>
</mgrwt>
</event>
<event>
 8    1  0.7756875E-014  0.7444517E+02  0.7818608E-02  0.1345598E+00
          1   -1    0    0  501    0  0.00000000000E+00  0.00000000000E+00  0.71857411047E+02  0.71857411224E+02  0.50400000000E-02 0. -1.
         -2   -1    0    0    0  501 -0.00000000000E+00 -0.00000000000E+00 -0.19281532158E+02  0.19281532326E+02  0.25500000000E-02 0.  1.
        -24    2    1    2    0    0  0.00000000000E+00  0.35527136788E-14  0.52575878889E+02  0.91138943550E+02  0.74445174393E+02 0.  0.
         66    2    3    3    0    0  0.31290823332E+01  0.25570916323E+02 -0.65396635147E+01  0.26653895395E+02  0.20000057455E+01 0.  0.
         13    1    3    3    0    0 -0.31290823332E+01 -0.25570916323E+02  0.59115542404E+02  0.64485048155E+02  0.10566000000E+00 0. -1.
         13    1    4    4    0    0 -0.71712968046E-01  0.19108312438E+01 -0.34912420522E+00  0.19466562456E+01  0.10566000000E+00 0. -1.
        -13    1    4    4    0    0  0.18767807099E+01  0.11068925008E+02 -0.22809359037E+01  0.11456755182E+02  0.10566000000E+00 0.  1.
        -14    1    4    4    0    0  0.13240145914E+01  0.12591160071E+02 -0.39096034058E+01  0.13250483968E+02  0.00000000000E+00 0.  1.
<mgrwt>
<rscale>  0 0.74445174E+02</rscale>
<asrwt>0</asrwt>
<pdfrwt beam="1">  1        1 0.11054986E-01 0.74445174E+02</pdfrwt>
<pdfrwt beam="2">  1       -2 0.29663896E-02 0.74445174E+02</pdfrwt>
<totfact> 0.16939486E+05</totfact>
</mgrwt>
</event>
<event>
 8    1  0.7756875E-014  0.8230797E+02  0.7818608E-02  0.1322626E+00
          1   -1    0    0  501    0  0.00000000000E+00  0.00000000000E+00  0.49738313348E+02  0.49738313603E+02  0.50400000000E-02 0. -1.
         -2   -1    0    0    0  501 -0.00000000000E+00 -0.00000000000E+00 -0.34051223802E+02  0.34051223897E+02  0.25500000000E-02 0.  1.
        -24    2    1    2    0    0  0.00000000000E+00  0.00000000000E+00  0.15687089546E+02  0.83789537501E+02  0.82307969336E+02 0.  0.
         66    2    3    3    0    0 -0.24992705436E+02 -0.44142098651E+01 -0.25099914522E+02  0.35750892239E+02  0.20000032931E+01 0.  0.
         13    1    3    3    0    0  0.24992705436E+02  0.44142098651E+01  0.40787004067E+02  0.48038645261E+02  0.10566000000E+00 0. -1.
         13    1    4    4    0    0 -0.11089849239E+01 -0.33903378411E+00 -0.16036453032E+01  0.19818258658E+01  0.10566000000E+00 0. -1.
        -13    1    4    4    0    0 -0.10492403654E+02 -0.14390789512E+01 -0.10855578667E+02  0.15166286128E+02  0.10566000000E+00 0.  1.
         14    1    4    4    0    0 -0.13391316857E+02 -0.26360971297E+01 -0.12640690551E+02  0.18602780245E+02  0.00000000000E+00 0. -1.
<mgrwt>
<rscale>  0 0.82307969E+02</rscale>
<asrwt>0</asrwt>
<pdfrwt beam="1">  1        1 0.76520482E-02 0.82307969E+02</pdfrwt>
<pdfrwt beam="2">  1       -2 0.52386498E-02 0.82307969E+02</pdfrwt>
<totfact> 0.12143663E+05</totfact>
</mgrwt>
</event>
<event>
 8    1  0.7756875E-014  0.7944225E+02  0.7818608E-02  0.1330642E+00
         -2   -1    0    0    0  501 -0.00000000000E+00  0.00000000000E+00  0.60084708965E+03  0.60084708966E+03  0.25500000000E-02 0.  1.
          1   -1    0    0  501    0  0.00000000000E+00 -0.00000000000E+00 -0.26259033437E+01  0.26259081805E+01  0.50400000000E-02 0. -1.
        -24    2    1    2    0    0  0.88817841970E-15  0.00000000000E+00  0.59822118631E+03  0.60347299784E+03  0.79442251802E+02 0.  0.
         66    2    3    3    0    0 -0.55178050842E+01  0.21549705140E+02  0.54904904866E+03  0.54950313357E+03  0.19999999041E+01 0.  0.
         13    1    3    3    0    0  0.55178050842E+01 -0.21549705140E+02  0.49172137646E+02  0.53969864269E+02  0.10566000000E+00 0. -1.
         13    1    4    4    0    0 -0.36076769458E+01  0.15539053428E+02  0.39970679153E+03  0.40002500906E+03  0.10566000000E+00 0. -1.
        -13    1    4    4    0    0 -0.13087014632E+01  0.44754676100E+01  0.11861483061E+03  0.11870649399E+03  0.10566000000E+00 0.  1.
         14    1    4    4    0    0 -0.60142667525E+00  0.15351841022E+01  0.30727426525E+02  0.30771630525E+02  0.00000000000E+00 0. -1.
<mgrwt>
<rscale>  0 0.79442252E+02</rscale>
<asrwt>0</asrwt>
<pdfrwt beam="1">  1        1 0.40398477E-03 0.79442252E+02</pdfrwt>
<pdfrwt beam="2">  1       -2 0.92438183E-01 0.79442252E+02</pdfrwt>
<totfact> 0.44205915E+04</totfact>
</mgrwt>
</event>
<event>
 8    1  0.7756875E-014  0.7904200E+02  0.7818608E-02  0.1331792E+00
          1   -1    0    0  501    0  0.00000000000E+00  0.00000000000E+00  0.33215878357E+02  0.33215878740E+02  0.50400000000E-02 0. -1.
         -2   -1    0    0    0  501 -0.00000000000E+00 -0.00000000000E+00 -0.47022972600E+02  0.47022972669E+02  0.25500000000E-02 0.  1.
        -24    2    1    2    0    0 -0.17763568394E-14  0.00000000000E+00 -0.13807094243E+02  0.80238851409E+02  0.79041997849E+02 0.  0.
         66    2    3    3    0    0 -0.89692010035E+01  0.38367026175E+02 -0.41410365991E+01  0.39668922909E+02  0.19999991190E+01 0.  0.
         13    1    3    3    0    0  0.89692010035E+01 -0.38367026175E+02 -0.96660576438E+01  0.40569928501E+02  0.10566000000E+00 0. -1.
         13    1    4    4    0    0 -0.36174865709E+01  0.13153537339E+02 -0.19018043036E+01  0.13774243256E+02  0.10566000000E+00 0. -1.
        -13    1    4    4    0    0 -0.24072459674E+01  0.13830160144E+02 -0.13433018230E+01  0.14102616303E+02  0.10566000000E+00 0.  1.
        -14    1    4    4    0    0 -0.29444684652E+01  0.11383328691E+02 -0.89593047251E+00  0.11792063350E+02  0.00000000000E+00 0.  1.
<mgrwt>
<rscale>  0 0.79041998E+02</rscale>
<asrwt>0</asrwt>
<pdfrwt beam="1">  1        1 0.51101352E-02 0.79041998E+02</pdfrwt>
<pdfrwt beam="2">  1       -2 0.72343035E-02 0.79041998E+02</pdfrwt>
<totfact> 0.12740760E+05</totfact>
</mgrwt>
</event>
<event>
 8    1  0.7756875E-014  0.7800546E+02  0.7818608E-02  0.1334809E+00
         -2   -1    0    0    0  501 -0.00000000000E+00  0.00000000000E+00  0.89946219907E+02  0.89946219944E+02  0.25500000000E-02 0.  1.
          1   -1    0    0  501    0  0.00000000000E+00 -0.00000000000E+00 -0.16912473365E+02  0.16912474116E+02  0.50400000000E-02 0. -1.
        -24    2    1    2    0    0  0.00000000000E+00  0.00000000000E+00  0.73033746542E+02  0.10685869406E+03  0.78005463669E+02 0.  0.
         66    2    3    3    0    0 -0.22989308624E+02  0.16858961797E+02  0.72951871003E+02  0.78349909948E+02  0.20000005418E+01 0.  0.
         13    1    3    3    0    0  0.22989308624E+02 -0.16858961797E+02  0.81875538691E-01  0.28508784111E+02  0.10566000000E+00 0. -1.
         13    1    4    4    0    0 -0.96346075657E+01  0.76325498710E+01  0.33365168597E+02  0.35557377856E+02  0.10566000000E+00 0. -1.
        -13    1    4    4    0    0 -0.11962593622E+02  0.79830699463E+01  0.35268042420E+02  0.38087780614E+02  0.10566000000E+00 0.  1.
         14    1    4    4    0    0 -0.13921074368E+01  0.12433419794E+01  0.43186599858E+01  0.47047514776E+01  0.00000000000E+00 0. -1.
<mgrwt>
<rscale>  0 0.78005464E+02</rscale>
<asrwt>0</asrwt>
<pdfrwt beam="1">  1        1 0.26019191E-02 0.78005464E+02</pdfrwt>
<pdfrwt beam="2">  1       -2 0.13837880E-01 0.78005464E+02</pdfrwt>
<totfact> 0.11611253E+05</totfact>
</mgrwt>
</event>
<event>
 8    1  0.7756875E-014  0.7885262E+02  0.7818608E-02  0.1332339E+00
         -2   -1    0    0    0  501 -0.00000000000E+00  0.00000000000E+00  0.23956940657E+02  0.23956940793E+02  0.25500000000E-02 0.  1.
          1   -1    0    0  501    0  0.00000000000E+00 -0.00000000000E+00 -0.64884494188E+02  0.64884494384E+02  0.50400000000E-02 0. -1.
        -24    2    1    2    0    0  0.00000000000E+00  0.44408920985E-15 -0.40927553531E+02  0.88841435176E+02  0.78852621809E+02 0.  0.
         66    2    3    3    0    0  0.20734021546E+02 -0.38171498212E+01  0.17025682207E+02  0.27172488544E+02  0.19999992014E+01 0.  0.
         13    1    3    3    0    0 -0.20734021546E+02  0.38171498212E+01 -0.57953235738E+02  0.61668946633E+02  0.10566000000E+00 0. -1.
         13    1    4    4    0    0  0.53667037071E-01  0.23301117066E-01  0.78545823037E-01  0.14407142271E+00  0.10566000000E+00 0.  1.
        -13    1    4    4    0    0  0.17873623616E+02 -0.34414379971E+01  0.15036914498E+02  0.23609952950E+02  0.10566000000E+00 0.  1.
        -14    1    4    4    0    0  0.28067308929E+01 -0.39901294126E+00  0.19102218867E+01  0.34184641711E+01  0.00000000000E+00 0.  1.
<mgrwt>
<rscale>  0 0.78852622E+02</rscale>
<asrwt>0</asrwt>
<pdfrwt beam="1">  1        1 0.99822298E-02 0.78852622E+02</pdfrwt>
<pdfrwt beam="2">  1       -2 0.36856832E-02 0.78852622E+02</pdfrwt>
<totfact> 0.14259802E+05</totfact>
</mgrwt>
</event>
<event>
 8    1  0.7756875E-014  0.7228197E+02  0.7818608E-02  0.1352501E+00
          1   -1    0    0  501    0  0.00000000000E+00  0.00000000000E+00  0.32221435670E+02  0.32221436064E+02  0.50400000000E-02 0. -1.
         -2   -1    0    0    0  501 -0.00000000000E+00 -0.00000000000E+00 -0.40537322657E+02  0.40537322737E+02  0.25500000000E-02 0.  1.
        -24    2    1    2    0    0 -0.35527136788E-14  0.17763568394E-14 -0.83158869869E+01  0.72758758801E+02  0.72281968747E+02 0.  0.
         66    2    3    3    0    0 -0.17882971428E+02  0.67866727175E+01 -0.34994959277E+02  0.39931275560E+02  0.19999998592E+01 0.  0.
         13    1    3    3    0    0  0.17882971428E+02 -0.67866727175E+01  0.26679072290E+02  0.32827483241E+02  0.10566000000E+00 0. -1.
         13    1    4    4    0    0 -0.15747698837E+01  0.10425499283E+01 -0.30107115768E+01  0.35556094799E+01  0.10566000000E+00 0.  1.
        -13    1    4    4    0    0 -0.19081389869E+01  0.31607373615E+00 -0.35533062164E+01  0.40469798743E+01  0.10566000000E+00 0. -1.
        -14    1    4    4    0    0 -0.14400062557E+02  0.54280490530E+01 -0.28430941484E+02  0.32328686206E+02  0.00000000000E+00 0.  1.
<mgrwt>
<rscale>  0 0.72281969E+02</rscale>
<asrwt>0</asrwt>
<pdfrwt beam="1">  1        1 0.49571440E-02 0.72281969E+02</pdfrwt>
<pdfrwt beam="2">  1       -2 0.62365112E-02 0.72281969E+02</pdfrwt>
<totfact> 0.16314300E+05</totfact>
</mgrwt>
</event>
<event>
 8    1  0.7756875E-014  0.7908857E+02  0.7818608E-02  0.1331658E+00
          1   -1    0    0  501    0  0.00000000000E+00  0.00000000000E+00  0.73906519556E+02  0.73906519728E+02  0.50400000000E-02 0. -1.
         -2   -1    0    0    0  501 -0.00000000000E+00 -0.00000000000E+00 -0.21158492140E+02  0.21158492294E+02  0.25500000000E-02 0.  1.
        -24    2    1    2    0    0  0.35527136788E-14  0.00000000000E+00  0.52748027416E+02  0.95065012021E+02  0.79088571326E+02 0.  0.
         66    2    3    3    0    0 -0.19027304391E+02  0.30997839647E+02  0.78144300984E+01  0.37255465170E+02  0.19999980285E+01 0.  0.
         13    1    3    3    0    0  0.19027304391E+02 -0.30997839647E+02  0.44933597318E+02  0.57809546851E+02  0.10566000000E+00 0. -1.
         13    1    4    4    0    0 -0.11193448129E+01  0.22585863681E+01  0.20010441848E+00  0.25308794926E+01  0.10566000000E+00 0. -1.
        -13    1    4    4    0    0 -0.61512720057E+01  0.10664501334E+02  0.30752435281E+01  0.12690075759E+02  0.10566000000E+00 0.  1.
        -14    1    4    4    0    0 -0.11756687572E+02  0.18074751946E+02  0.45390821518E+01  0.22034509918E+02  0.00000000000E+00 0.  1.
<mgrwt>
<rscale>  0 0.79088571E+02</rscale>
<asrwt>0</asrwt>
<pdfrwt beam="1">  1        1 0.11370234E-01 0.79088571E+02</pdfrwt>
<pdfrwt beam="2">  1       -2 0.32551527E-02 0.79088571E+02</pdfrwt>
<totfact> 0.14435265E+05</totfact>
</mgrwt>
</event>
<event>
 8    1  0.7756875E-014  0.7860891E+02  0.7818608E-02  0.1333046E+00
         -2   -1    0    0    0  501 -0.00000000000E+00  0.00000000000E+00  0.17022621551E+02  0.17022621742E+02  0.25500000000E-02 0.  1.
          1   -1    0    0  501    0  0.00000000000E+00 -0.00000000000E+00 -0.90752184871E+02  0.90752185011E+02  0.50400000000E-02 0. -1.
        -24    2    1    2    0    0  0.00000000000E+00  0.00000000000E+00 -0.73729563320E+02  0.10777480675E+03  0.78608908296E+02 0.  0.
         66    2    3    3    0    0 -0.38293395275E+02 -0.87345801225E+01 -0.37433828501E+02  0.54295198100E+02  0.20000022349E+01 0.  0.
         13    1    3    3    0    0  0.38293395275E+02  0.87345801225E+01 -0.36295734819E+02  0.53479608653E+02  0.10566000000E+00 0. -1.
         13    1    4    4    0    0 -0.74500634361E+00 -0.36306085842E+00 -0.78734396228E+00  0.11480079222E+01  0.10566000000E+00 0. -1.
        -13    1    4    4    0    0 -0.24880152045E+02 -0.54529333467E+01 -0.25092901387E+02  0.35755017997E+02  0.10566000000E+00 0.  1.
        -14    1    4    4    0    0 -0.12668236886E+02 -0.29185859174E+01 -0.11553583151E+02  0.17392172182E+02  0.00000000000E+00 0.  1.
<mgrwt>
<rscale>  0 0.78608908E+02</rscale>
<asrwt>0</asrwt>
<pdfrwt beam="1">  1        1 0.13961874E-01 0.78608908E+02</pdfrwt>
<pdfrwt beam="2">  1       -2 0.26188649E-02 0.78608908E+02</pdfrwt>
<totfact> 0.15167185E+05</totfact>
</mgrwt>
</event>
<event>
 8    1  0.7756875E-014  0.7948867E+02  0.7818608E-02  0.1330509E+00
         -2   -1    0    0    0  501 -0.00000000000E+00  0.00000000000E+00  0.33079300553E+02  0.33079300651E+02  0.25500000000E-02 0.  1.
          1   -1    0    0  501    0  0.00000000000E+00 -0.00000000000E+00 -0.47752289781E+02  0.47752290047E+02  0.50400000000E-02 0. -1.
        -24    2    1    2    0    0  0.00000000000E+00  0.00000000000E+00 -0.14672989228E+02  0.80831590699E+02  0.79488674929E+02 0.  0.
         66    2    3    3    0    0  0.19165797730E+02 -0.11286862267E+02  0.26122061355E+02  0.34366890348E+02  0.20000000745E+01 0.  0.
         13    1    3    3    0    0 -0.19165797730E+02  0.11286862267E+02 -0.40795050584E+02  0.46464700350E+02  0.10566000000E+00 0. -1.
         13    1    4    4    0    0  0.11675416414E+02 -0.74954964721E+01  0.15280101942E+02  0.20639537184E+02  0.10566000000E+00 0. -1.
        -13    1    4    4    0    0  0.75009070067E+01 -0.37959652396E+01  0.10833486436E+02  0.13713079538E+02  0.10566000000E+00 0.  1.
         14    1    4    4    0    0 -0.10525690317E-01  0.45994446269E-02  0.84729773420E-02  0.14273625768E-01  0.00000000000E+00 0. -1.
<mgrwt>
<rscale>  0 0.79488675E+02</rscale>
<asrwt>0</asrwt>
<pdfrwt beam="1">  1        1 0.73465062E-02 0.79488675E+02</pdfrwt>
<pdfrwt beam="2">  1       -2 0.50891231E-02 0.79488675E+02</pdfrwt>
<totfact> 0.13297628E+05</totfact>
</mgrwt>
</event>
<event>
 8    1  0.7756875E-014  0.7737252E+02  0.7818608E-02  0.1336678E+00
          1   -1    0    0  501    0  0.00000000000E+00  0.00000000000E+00  0.65552872828E+02  0.65552873022E+02  0.50400000000E-02 0. -1.
         -2   -1    0    0    0  501 -0.00000000000E+00 -0.00000000000E+00 -0.22830834023E+02  0.22830834165E+02  0.25500000000E-02 0.  1.
        -24    2    1    2    0    0 -0.88817841970E-15  0.00000000000E+00  0.42722038805E+02  0.88383707187E+02  0.77372521585E+02 0.  0.
         66    2    3    3    0    0 -0.45817097172E+01 -0.32495176317E+02 -0.19708412526E+01  0.32936495898E+02  0.19999997473E+01 0.  0.
         13    1    3    3    0    0  0.45817097172E+01  0.32495176317E+02  0.44692880058E+02  0.55447211289E+02  0.10566000000E+00 0. -1.
         13    1    4    4    0    0 -0.32756405871E-01 -0.19236913317E+01 -0.39217284437E+00  0.19663735396E+01  0.10566000000E+00 0. -1.
        -13    1    4    4    0    0 -0.26930961581E+00 -0.12872973868E+01 -0.26483830104E+00  0.13457212165E+01  0.10566000000E+00 0.  1.
        -14    1    4    4    0    0 -0.42796436955E+01 -0.29284187599E+02 -0.13138301072E+01  0.29624401142E+02  0.00000000000E+00 0.  1.
<mgrwt>
<rscale>  0 0.77372522E+02</rscale>
<asrwt>0</asrwt>
<pdfrwt beam="1">  1        1 0.10085057E-01 0.77372522E+02</pdfrwt>
<pdfrwt beam="2">  1       -2 0.35124361E-02 0.77372522E+02</pdfrwt>
<totfact> 0.15042444E+05</totfact>
</mgrwt>
</event>
<event>
 8    1  0.7756875E-014  0.8268719E+02  0.7818608E-02  0.1321594E+00
         -2   -1    0    0    0  501 -0.00000000000E+00  0.00000000000E+00  0.31952892837E+03  0.31952892838E+03  0.25500000000E-02 0.  1.
          1   -1    0    0  501    0  0.00000000000E+00 -0.00000000000E+00 -0.53494132270E+01  0.53494156013E+01  0.50400000000E-02 0. -1.
        -24    2    1    2    0    0 -0.17763568394E-14  0.71054273576E-14  0.31417951515E+03  0.32487834399E+03  0.82687185541E+02 0.  0.
         66    2    3    3    0    0 -0.13746373165E+02  0.38262775391E+02  0.18612964026E+03  0.19052885802E+03  0.20000000993E+01 0.  0.
         13    1    3    3    0    0  0.13746373165E+02 -0.38262775391E+02  0.12804987489E+03  0.13434948597E+03  0.10566000000E+00 0. -1.
         13    1    4    4    0    0 -0.14847462995E+01  0.62362173382E+01  0.29501268277E+02  0.30189913419E+02  0.10566000000E+00 0. -1.
        -13    1    4    4    0    0 -0.81828478616E+01  0.21080788364E+02  0.10356597135E+03  0.10600603862E+03  0.10566000000E+00 0.  1.
         14    1    4    4    0    0 -0.40787790037E+01  0.10945769688E+02  0.53062400627E+02  0.54332905983E+02  0.00000000000E+00 0. -1.
<mgrwt>
<rscale>  0 0.82687186E+02</rscale>
<asrwt>0</asrwt>
<pdfrwt beam="1">  1        1 0.82298687E-03 0.82687186E+02</pdfrwt>
<pdfrwt beam="2">  1       -2 0.49158295E-01 0.82687186E+02</pdfrwt>
<totfact> 0.62289699E+04</totfact>
</mgrwt>
</event>
<event>
 8    1  0.7756875E-014  0.8040889E+02  0.7818608E-02  0.1327895E+00
         -2   -1    0    0    0  501 -0.00000000000E+00  0.00000000000E+00  0.37649054506E+02  0.37649054592E+02  0.25500000000E-02 0.  1.
          1   -1    0    0  501    0  0.00000000000E+00 -0.00000000000E+00 -0.42933280007E+02  0.42933280303E+02  0.50400000000E-02 0. -1.
        -24    2    1    2    0    0  0.00000000000E+00 -0.17763568394E-14 -0.52842255017E+01  0.80582334895E+02  0.80408890417E+02 0.  0.
         66    2    3    3    0    0 -0.35090751326E+02 -0.12878155679E+02  0.12125234245E+02  0.39347541637E+02  0.20000012647E+01 0.  0.
         13    1    3    3    0    0  0.35090751326E+02  0.12878155679E+02 -0.17409459747E+02  0.41234793258E+02  0.10566000000E+00 0. -1.
         13    1    4    4    0    0 -0.96746053937E+00 -0.53411580801E+00  0.41648036709E+00  0.11856979056E+01  0.10566000000E+00 0. -1.
        -13    1    4    4    0    0 -0.14062461173E+02 -0.43978753422E+01  0.43239232458E+01  0.15355832704E+02  0.10566000000E+00 0.  1.
        -14    1    4    4    0    0 -0.20060829614E+02 -0.79461645285E+01  0.73848306320E+01  0.22806011027E+02  0.00000000000E+00 0.  1.
<mgrwt>
<rscale>  0 0.80408890E+02</rscale>
<asrwt>0</asrwt>
<pdfrwt beam="1">  1        1 0.66051200E-02 0.80408890E+02</pdfrwt>
<pdfrwt beam="2">  1       -2 0.57921623E-02 0.80408890E+02</pdfrwt>
<totfact> 0.12660745E+05</totfact>
</mgrwt>
</event>
<event>
 8    1  0.7756875E-014  0.7993579E+02  0.7818608E-02  0.1329234E+00
          1   -1    0    0  501    0  0.00000000000E+00  0.00000000000E+00  0.23299144402E+03  0.23299144408E+03  0.50400000000E-02 0. -1.
         -2   -1    0    0    0  501 -0.00000000000E+00 -0.00000000000E+00 -0.68561849542E+01  0.68561854285E+01  0.25500000000E-02 0.  1.
        -24    2    1    2    0    0  0.00000000000E+00  0.00000000000E+00  0.22613525907E+03  0.23984762950E+03  0.79935786638E+02 0.  0.
         66    2    3    3    0    0  0.19175059664E+02 -0.35009605051E+02  0.10881897260E+03  0.11592637389E+03  0.20000015714E+01 0.  0.
         13    1    3    3    0    0 -0.19175059664E+02  0.35009605051E+02  0.11731628647E+03  0.12392125562E+03  0.10566000000E+00 0. -1.
         13    1    4    4    0    0  0.67872762118E+01 -0.12124334895E+02  0.37674425672E+02  0.40155200520E+02  0.10566000000E+00 0.  1.
        -13    1    4    4    0    0  0.52431160271E+01 -0.84743648119E+01  0.28707038463E+02  0.30387667663E+02  0.10566000000E+00 0.  1.
        -14    1    4    4    0    0  0.71446674255E+01 -0.14410905344E+02  0.42437508464E+02  0.45383505705E+02  0.00000000000E+00 0.  1.
<mgrwt>
<rscale>  0 0.79935787E+02</rscale>
<asrwt>0</asrwt>
<pdfrwt beam="1">  1        1 0.35844833E-01 0.79935787E+02</pdfrwt>
<pdfrwt beam="2">  1       -2 0.10547979E-02 0.79935787E+02</pdfrwt>
<totfact> 0.17214146E+05</totfact>
</mgrwt>
</event>
<event>
 8    1  0.1581352E-013  0.8101517E+02  0.7818608E-02  0.1326195E+00
          1   -1    0    0  501    0  0.00000000000E+00  0.00000000000E+00  0.82851673153E+02  0.82851673307E+02  0.50400000000E-02 0. -1.
         -2   -1    0    0    0  501 -0.00000000000E+00 -0.00000000000E+00 -0.19804845356E+02  0.19804845520E+02  0.25500000000E-02 0.  1.
        -24    2    1    2    0    0  0.00000000000E+00  0.00000000000E+00  0.63046827798E+02  0.10265651883E+03  0.81015173654E+02 0.  0.
         66    2    3    3    0    0  0.17791610770E+02 -0.13708819693E+01 -0.14502093285E+02  0.23080975747E+02  0.20000001592E+01 0.  0.
         13    1    3    3    0    0 -0.17791610770E+02  0.13708819693E+01  0.77548921083E+02  0.79575543079E+02  0.10566000000E+00 0. -1.
         13    1    4    4    0    0  0.43613526639E+01 -0.63136390148E-01 -0.33134178414E+01  0.54786207288E+01  0.10566000000E+00 0. -1.
        -13    1    4    4    0    0  0.97544360133E+01 -0.29955069843E+00 -0.76366750888E+01  0.12392284818E+02  0.10566000000E+00 0.  1.
         14    1    4    4    0    0  0.36758220925E+01 -0.10081948807E+01 -0.35520003552E+01  0.52100702007E+01  0.00000000000E+00 0. -1.
<mgrwt>
<rscale>  0 0.81015174E+02</rscale>
<asrwt>0</asrwt>
<pdfrwt beam="1">  1        1 0.12746412E-01 0.81015174E+02</pdfrwt>
<pdfrwt beam="2">  1       -2 0.30468992E-02 0.81015174E+02</pdfrwt>
<totfact> 0.13768875E+05</totfact>
</mgrwt>
</event>
<event>
 8    1  0.7756875E-014  0.8107587E+02  0.7818608E-02  0.1326026E+00
         -2   -1    0    0    0  501 -0.00000000000E+00  0.00000000000E+00  0.79259854149E+02  0.79259854190E+02  0.25500000000E-02 0.  1.
          1   -1    0    0  501    0  0.00000000000E+00 -0.00000000000E+00 -0.20733374089E+02  0.20733374702E+02  0.50400000000E-02 0. -1.
        -24    2    1    2    0    0  0.00000000000E+00  0.17763568394E-14  0.58526480060E+02  0.99993228891E+02  0.81075871601E+02 0.  0.
         66    2    3    3    0    0 -0.33962240529E+02 -0.10397705639E+02  0.53315831359E+02  0.64094648304E+02  0.20000008525E+01 0.  0.
         13    1    3    3    0    0  0.33962240529E+02  0.10397705639E+02  0.52106487008E+01  0.35898580588E+02  0.10566000000E+00 0. -1.
         13    1    4    4    0    0 -0.65377660115E+00 -0.39870982526E-01  0.11132155887E+01  0.12959268968E+01  0.10566000000E+00 0. -1.
        -13    1    4    4    0    0 -0.30783233783E+02 -0.92329714820E+01  0.47765817752E+02  0.57571171206E+02  0.10566000000E+00 0.  1.
        -14    1    4    4    0    0 -0.25252301443E+01 -0.11248631747E+01  0.44367980185E+01  0.52275502007E+01  0.00000000000E+00 0.  1.
<mgrwt>
<rscale>  0 0.81075872E+02</rscale>
<asrwt>0</asrwt>
<pdfrwt beam="1">  1        1 0.31897499E-02 0.81075872E+02</pdfrwt>
<pdfrwt beam="2">  1       -2 0.12193824E-01 0.81075872E+02</pdfrwt>
<totfact> 0.10823615E+05</totfact>
</mgrwt>
</event>
<event>
 8    1  0.7756875E-014  0.8251408E+02  0.7818608E-02  0.1322065E+00
          1   -1    0    0  501    0  0.00000000000E+00  0.00000000000E+00  0.57875813294E+03  0.57875813296E+03  0.50400000000E-02 0. -1.
         -2   -1    0    0    0  501 -0.00000000000E+00 -0.00000000000E+00 -0.29410263384E+01  0.29410274439E+01  0.25500000000E-02 0.  1.
        -24    2    1    2    0    0  0.71054273576E-14  0.00000000000E+00  0.57581710660E+03  0.58169916041E+03  0.82514077355E+02 0.  0.
         66    2    3    3    0    0  0.39994819092E+02  0.41204372646E+01  0.35252497441E+03  0.35481603846E+03  0.20000034998E+01 0.  0.
         13    1    3    3    0    0 -0.39994819092E+02 -0.41204372646E+01  0.22329213220E+03  0.22688312194E+03  0.10566000000E+00 0. -1.
         13    1    4    4    0    0  0.17231982087E+01  0.46551997007E+00  0.14035213698E+02  0.14148657480E+02  0.10566000000E+00 0. -1.
        -13    1    4    4    0    0  0.36759628724E+02  0.36656307399E+01  0.32597640274E+03  0.32806300228E+03  0.10566000000E+00 0.  1.
         14    1    4    4    0    0  0.15119921593E+01 -0.10713445358E-01  0.12513357965E+02  0.12604378708E+02  0.00000000000E+00 0. -1.
<mgrwt>
<rscale>  0 0.82514077E+02</rscale>
<asrwt>0</asrwt>
<pdfrwt beam="1">  1        1 0.89039680E-01 0.82514077E+02</pdfrwt>
<pdfrwt beam="2">  1       -2 0.45246584E-03 0.82514077E+02</pdfrwt>
<totfact> 0.18338544E+05</totfact>
</mgrwt>
</event>
<event>
 8    1  0.7756875E-014  0.7934590E+02  0.7818608E-02  0.1330918E+00
         -2   -1    0    0    0  501 -0.00000000000E+00  0.00000000000E+00  0.12160170203E+02  0.12160170471E+02  0.25500000000E-02 0.  1.
          1   -1    0    0  501    0  0.00000000000E+00 -0.00000000000E+00 -0.12943428172E+03  0.12943428182E+03  0.50400000000E-02 0. -1.
        -24    2    1    2    0    0  0.00000000000E+00 -0.44408920985E-15 -0.11727411152E+03  0.14159445229E+03  0.79345898993E+02 0.  0.
         66    2    3    3    0    0 -0.38755625718E+02 -0.34138468950E+01 -0.72298079206E+02  0.82125910001E+02  0.19999903056E+01 0.  0.
         13    1    3    3    0    0  0.38755625718E+02  0.34138468950E+01 -0.44976032314E+02  0.59468542291E+02  0.10566000000E+00 0. -1.
         13    1    4    4    0    0 -0.55834063850E+01 -0.43721216967E+00 -0.95709358492E+01  0.11089614890E+02  0.10566000000E+00 0. -1.
        -13    1    4    4    0    0 -0.16303542214E+02 -0.85567156366E+00 -0.29826418050E+02  0.34002412271E+02  0.10566000000E+00 0.  1.
         14    1    4    4    0    0 -0.16868677119E+02 -0.21209631617E+01 -0.32900725307E+02  0.37033882840E+02  0.00000000000E+00 0. -1.
<mgrwt>
<rscale>  0 0.79345899E+02</rscale>
<asrwt>0</asrwt>
<pdfrwt beam="1">  1        1 0.19912966E-01 0.79345899E+02</pdfrwt>
<pdfrwt beam="2">  1       -2 0.18707955E-02 0.79345899E+02</pdfrwt>
<totfact> 0.15713125E+05</totfact>
</mgrwt>
</event>
<event>
 8    1  0.7756875E-014  0.8249259E+02  0.7818608E-02  0.1322123E+00
         -2   -1    0    0    0  501 -0.00000000000E+00  0.00000000000E+00  0.90552483396E+02  0.90552483432E+02  0.25500000000E-02 0.  1.
          1   -1    0    0  501    0  0.00000000000E+00 -0.00000000000E+00 -0.18787523375E+02  0.18787524051E+02  0.50400000000E-02 0. -1.
        -24    2    1    2    0    0  0.00000000000E+00 -0.17763568394E-14  0.71764960020E+02  0.10934000748E+03  0.82492592090E+02 0.  0.
         66    2    3    3    0    0 -0.30731276233E+02 -0.11596187940E+02  0.68916832951E+02  0.76370234880E+02  0.19999994964E+01 0.  0.
         13    1    3    3    0    0  0.30731276233E+02  0.11596187940E+02  0.28481270694E+01  0.32969772603E+02  0.10566000000E+00 0. -1.
         13    1    4    4    0    0 -0.48271171828E+01 -0.17827452310E+01  0.11463856055E+02  0.12566240509E+02  0.10566000000E+00 0. -1.
        -13    1    4    4    0    0 -0.14030050810E+02 -0.59871659053E+01  0.32832933014E+02  0.36203606666E+02  0.10566000000E+00 0.  1.
         14    1    4    4    0    0 -0.11874108240E+02 -0.38262768033E+01  0.24620043882E+02  0.27600387705E+02  0.00000000000E+00 0. -1.
<mgrwt>
<rscale>  0 0.82492592E+02</rscale>
<asrwt>0</asrwt>
<pdfrwt beam="1">  1        1 0.28903882E-02 0.82492592E+02</pdfrwt>
<pdfrwt beam="2">  1       -2 0.13931151E-01 0.82492592E+02</pdfrwt>
<totfact> 0.10049489E+05</totfact>
</mgrwt>
</event>
<event>
 8    1  0.7756875E-014  0.7871559E+02  0.7818608E-02  0.1332736E+00
         -2   -1    0    0    0  501 -0.00000000000E+00  0.00000000000E+00  0.17108316834E+03  0.17108316836E+03  0.25500000000E-02 0.  1.
          1   -1    0    0  501    0  0.00000000000E+00 -0.00000000000E+00 -0.90542869211E+01  0.90542883238E+01  0.50400000000E-02 0. -1.
        -24    2    1    2    0    0  0.35527136788E-14 -0.35527136788E-14  0.16202888142E+03  0.18013745668E+03  0.78715594936E+02 0.  0.
         66    2    3    3    0    0  0.17338788624E+02  0.25573432394E+02  0.13676589713E+03  0.14022676169E+03  0.20000103211E+01 0.  0.
         13    1    3    3    0    0 -0.17338788624E+02 -0.25573432394E+02  0.25262984283E+02  0.39910694986E+02  0.10566000000E+00 0. -1.
         13    1    4    4    0    0  0.10214231734E+02  0.13884223774E+02  0.73696054844E+02  0.75685017430E+02  0.10566000000E+00 0.  1.
        -13    1    4    4    0    0  0.22994393267E+01  0.32537930677E+01  0.17904989333E+02  0.18343238470E+02  0.10566000000E+00 0. -1.
         14    1    4    4    0    0  0.48251175632E+01  0.84354155518E+01  0.45164852955E+02  0.46198505793E+02  0.00000000000E+00 0. -1.
<mgrwt>
<rscale>  0 0.78715595E+02</rscale>
<asrwt>0</asrwt>
<pdfrwt beam="1">  1        1 0.13929674E-02 0.78715595E+02</pdfrwt>
<pdfrwt beam="2">  1       -2 0.26320487E-01 0.78715595E+02</pdfrwt>
<totfact> 0.94168370E+04</totfact>
</mgrwt>
</event>
<event>
 8    1  0.7756875E-014  0.8028084E+02  0.7818608E-02  0.1328256E+00
         -2   -1    0    0    0  501 -0.00000000000E+00  0.00000000000E+00  0.11265181636E+02  0.11265181925E+02  0.25500000000E-02 0.  1.
          1   -1    0    0  501    0  0.00000000000E+00 -0.00000000000E+00 -0.14302951500E+03  0.14302951509E+03  0.50400000000E-02 0. -1.
        -24    2    1    2    0    0 -0.71054273576E-14  0.00000000000E+00 -0.13176433336E+03  0.15429469701E+03  0.80280844413E+02 0.  0.
         66    2    3    3    0    0  0.29867483642E+02 -0.26656670980E+02 -0.70861921279E+02  0.81412877273E+02  0.20000029547E+01 0.  0.
         13    1    3    3    0    0 -0.29867483642E+02  0.26656670980E+02 -0.60902412083E+02  0.72881819738E+02  0.10566000000E+00 0. -1.
         13    1    4    4    0    0  0.38385477874E+01 -0.26487569671E+01 -0.80053872129E+01  0.92654061460E+01  0.10566000000E+00 0. -1.
        -13    1    4    4    0    0  0.16966507952E+02 -0.15249610494E+02 -0.40669894861E+02  0.46631154010E+02  0.10566000000E+00 0.  1.
        -14    1    4    4    0    0  0.90624279017E+01 -0.87583035184E+01 -0.22186639205E+02  0.25516317117E+02  0.00000000000E+00 0.  1.
<mgrwt>
<rscale>  0 0.80280844E+02</rscale>
<asrwt>0</asrwt>
<pdfrwt beam="1">  1        1 0.22004540E-01 0.80280844E+02</pdfrwt>
<pdfrwt beam="2">  1       -2 0.17331050E-02 0.80280844E+02</pdfrwt>
<totfact> 0.15505021E+05</totfact>
</mgrwt>
</event>
<event>
 8    1  0.7756875E-014  0.7950405E+02  0.7818608E-02  0.1330465E+00
         -2   -1    0    0    0  501 -0.00000000000E+00  0.00000000000E+00  0.13900412233E+03  0.13900412235E+03  0.25500000000E-02 0.  1.
          1   -1    0    0  501    0  0.00000000000E+00 -0.00000000000E+00 -0.11368175947E+02  0.11368177064E+02  0.50400000000E-02 0. -1.
        -24    2    1    2    0    0  0.00000000000E+00  0.00000000000E+00  0.12763594638E+03  0.15037229942E+03  0.79504047841E+02 0.  0.
         66    2    3    3    0    0  0.28660557225E+02 -0.28368517640E+01  0.11561237930E+03  0.11916248369E+03  0.20000007098E+01 0.  0.
         13    1    3    3    0    0 -0.28660557225E+02  0.28368517640E+01  0.12023567080E+02  0.31209815727E+02  0.10566000000E+00 0. -1.
         13    1    4    4    0    0  0.10282182430E+01  0.15794670136E+00  0.41343351877E+01  0.42645130315E+01  0.10566000000E+00 0. -1.
        -13    1    4    4    0    0  0.13938435470E+02 -0.11808659715E+01  0.53807270473E+02  0.55595934631E+02  0.10566000000E+00 0.  1.
         14    1    4    4    0    0  0.13693903512E+02 -0.18139324939E+01  0.57670773640E+02  0.59302036026E+02  0.00000000000E+00 0. -1.
<mgrwt>
<rscale>  0 0.79504048E+02</rscale>
<asrwt>0</asrwt>
<pdfrwt beam="1">  1        1 0.17489503E-02 0.79504048E+02</pdfrwt>
<pdfrwt beam="2">  1       -2 0.21385249E-01 0.79504048E+02</pdfrwt>
<totfact> 0.98401113E+04</totfact>
</mgrwt>
</event>
<event>
 8    1  0.7756875E-014  0.8283957E+02  0.7818608E-02  0.1321181E+00
         -2   -1    0    0    0  501 -0.00000000000E+00  0.00000000000E+00  0.10867289441E+03  0.10867289444E+03  0.25500000000E-02 0.  1.
          1   -1    0    0  501    0  0.00000000000E+00 -0.00000000000E+00 -0.15786810652E+02  0.15786811456E+02  0.50400000000E-02 0. -1.
        -24    2    1    2    0    0  0.00000000000E+00  0.00000000000E+00  0.92886083756E+02  0.12445970589E+03  0.82839566849E+02 0.  0.
         66    2    3    3    0    0 -0.14976416691E+02 -0.22733988205E+02  0.93322045211E+02  0.97232357455E+02  0.19999843311E+01 0.  0.
         13    1    3    3    0    0  0.14976416691E+02  0.22733988205E+02 -0.43596145478E+00  0.27227348439E+02  0.10566000000E+00 0. -1.
         13    1    4    4    0    0 -0.11903796800E+01 -0.26413320902E+01  0.10821025519E+02  0.11202651307E+02  0.10566000000E+00 0. -1.
        -13    1    4    4    0    0 -0.77693279992E+01 -0.11894673374E+02  0.46881974278E+02  0.48987512577E+02  0.10566000000E+00 0.  1.
        -14    1    4    4    0    0 -0.60167090114E+01 -0.81979827409E+01  0.35619045414E+02  0.37042193571E+02  0.00000000000E+00 0.  1.
<mgrwt>
<rscale>  0 0.82839567E+02</rscale>
<asrwt>0</asrwt>
<pdfrwt beam="1">  1        1 0.24287402E-02 0.82839567E+02</pdfrwt>
<pdfrwt beam="2">  1       -2 0.16718907E-01 0.82839567E+02</pdfrwt>
<totfact> 0.95008267E+04</totfact>
</mgrwt>
</event>
<event>
 8    1  0.7756875E-014  0.7825947E+02  0.7818608E-02  0.1334065E+00
          1   -1    0    0  501    0  0.00000000000E+00  0.00000000000E+00  0.42142564380E+02  0.42142564682E+02  0.50400000000E-02 0. -1.
         -2   -1    0    0    0  501 -0.00000000000E+00 -0.00000000000E+00 -0.36332292012E+02  0.36332292101E+02  0.25500000000E-02 0.  1.
        -24    2    1    2    0    0  0.00000000000E+00  0.35527136788E-14  0.58102723687E+01  0.78474856783E+02  0.78259465128E+02 0.  0.
         66    2    3    3    0    0 -0.16289455031E+02 -0.26292669992E+02 -0.21085382694E+02  0.37486586926E+02  0.19999988801E+01 0.  0.
         13    1    3    3    0    0  0.16289455031E+02  0.26292669992E+02  0.26895655063E+02  0.40988269856E+02  0.10566000000E+00 0. -1.
         13    1    4    4    0    0 -0.41256929411E+01 -0.58764294514E+01 -0.42792584023E+01  0.83592452920E+01  0.10566000000E+00 0. -1.
        -13    1    4    4    0    0 -0.97512451361E+01 -0.15601457378E+02 -0.12724899902E+02  0.22370214473E+02  0.10566000000E+00 0.  1.
         14    1    4    4    0    0 -0.24125169538E+01 -0.48147831630E+01 -0.40812243892E+01  0.67571271613E+01  0.00000000000E+00 0. -1.
<mgrwt>
<rscale>  0 0.78259465E+02</rscale>
<asrwt>0</asrwt>
<pdfrwt beam="1">  1        1 0.64834715E-02 0.78259465E+02</pdfrwt>
<pdfrwt beam="2">  1       -2 0.55895834E-02 0.78259465E+02</pdfrwt>
<totfact> 0.13619207E+05</totfact>
</mgrwt>
</event>
<event>
 8    1  0.7756875E-014  0.7956339E+02  0.7818608E-02  0.1330295E+00
          1   -1    0    0  501    0  0.00000000000E+00  0.00000000000E+00  0.10568010822E+02  0.10568012024E+02  0.50400000000E-02 0. -1.
         -2   -1    0    0    0  501 -0.00000000000E+00 -0.00000000000E+00 -0.14975224489E+03  0.14975224491E+03  0.25500000000E-02 0.  1.
        -24    2    1    2    0    0 -0.35527136788E-14 -0.71054273576E-14 -0.13918423407E+03  0.16032025693E+03  0.79563394665E+02 0.  0.
         66    2    3    3    0    0 -0.16034698279E+02  0.35649541541E+02 -0.84246751874E+02  0.92895191308E+02  0.20000014598E+01 0.  0.
         13    1    3    3    0    0  0.16034698279E+02 -0.35649541541E+02 -0.54937482192E+02  0.67425065625E+02  0.10566000000E+00 0. -1.
         13    1    4    4    0    0 -0.91728609749E+00  0.29485328444E+01 -0.64356221455E+01  0.71388833969E+01  0.10566000000E+00 0. -1.
        -13    1    4    4    0    0 -0.97086149277E+01  0.21952614120E+02 -0.50728968725E+02  0.56121421066E+02  0.10566000000E+00 0.  1.
         14    1    4    4    0    0 -0.54087972539E+01  0.10748394576E+02 -0.27082161003E+02  0.29634886845E+02  0.00000000000E+00 0. -1.
<mgrwt>
<rscale>  0 0.79563395E+02</rscale>
<asrwt>0</asrwt>
<pdfrwt beam="1">  1        1 0.16258480E-02 0.79563395E+02</pdfrwt>
<pdfrwt beam="2">  1       -2 0.23038805E-01 0.79563395E+02</pdfrwt>
<totfact> 0.95902595E+04</totfact>
</mgrwt>
</event>
<event>
 8    1  0.7756875E-014  0.8349655E+02  0.7818608E-02  0.1319412E+00
         -2   -1    0    0    0  501 -0.00000000000E+00  0.00000000000E+00  0.53769203123E+01  0.53769209169E+01  0.25500000000E-02 0.  1.
          1   -1    0    0  501    0  0.00000000000E+00 -0.00000000000E+00 -0.32414805236E+03  0.32414805239E+03  0.50400000000E-02 0. -1.
        -24    2    1    2    0    0  0.00000000000E+00  0.00000000000E+00 -0.31877113204E+03  0.32952497331E+03  0.83496547305E+02 0.  0.
         66    2    3    3    0    0  0.40418880572E+02  0.34104963109E+01 -0.19806362887E+03  0.20218436754E+03  0.20000011847E+01 0.  0.
         13    1    3    3    0    0 -0.40418880572E+02 -0.34104963109E+01 -0.12070750317E+03  0.12734060577E+03  0.10566000000E+00 0. -1.
         13    1    4    4    0    0  0.53412676585E+01  0.90863571298E+00 -0.27675320259E+02  0.28200873649E+02  0.10566000000E+00 0. -1.
        -13    1    4    4    0    0  0.24422060684E+02  0.12626914819E+01 -0.11720597044E+03  0.11973003846E+03  0.10566000000E+00 0.  1.
        -14    1    4    4    0    0  0.10655552229E+02  0.12391691160E+01 -0.53182338171E+02  0.54253455436E+02  0.00000000000E+00 0.  1.
<mgrwt>
<rscale>  0 0.83496547E+02</rscale>
<asrwt>0</asrwt>
<pdfrwt beam="1">  1        1 0.49868916E-01 0.83496547E+02</pdfrwt>
<pdfrwt beam="2">  1       -2 0.82721881E-03 0.83496547E+02</pdfrwt>
<totfact> 0.16351556E+05</totfact>
</mgrwt>
</event>
<event>
 8    1  0.7756875E-014  0.8089261E+02  0.7818608E-02  0.1326537E+00
         -2   -1    0    0    0  501 -0.00000000000E+00  0.00000000000E+00  0.30678146514E+02  0.30678146620E+02  0.25500000000E-02 0.  1.
          1   -1    0    0  501    0  0.00000000000E+00 -0.00000000000E+00 -0.53324726561E+02  0.53324726800E+02  0.50400000000E-02 0. -1.
        -24    2    1    2    0    0  0.00000000000E+00  0.00000000000E+00 -0.22646580048E+02  0.84002873419E+02  0.80892614959E+02 0.  0.
         66    2    3    3    0    0 -0.37056306534E+02 -0.95614013428E+01  0.21819660769E+01  0.38384257523E+02  0.20000000051E+01 0.  0.
         13    1    3    3    0    0  0.37056306534E+02  0.95614013428E+01 -0.24828546125E+02  0.45618615896E+02  0.10566000000E+00 0. -1.
         13    1    4    4    0    0 -0.61919170592E+01 -0.21719580707E+01  0.49009362866E+00  0.65809265708E+01  0.10566000000E+00 0. -1.
        -13    1    4    4    0    0 -0.24323540614E+02 -0.61143197936E+01  0.95397328828E+00  0.25098620751E+02  0.10566000000E+00 0.  1.
        -14    1    4    4    0    0 -0.65408488615E+01 -0.12751234784E+01  0.73789916000E+00  0.67047102014E+01  0.00000000000E+00 0.  1.
<mgrwt>
<rscale>  0 0.80892615E+02</rscale>
<asrwt>0</asrwt>
<pdfrwt beam="1">  1        1 0.82038041E-02 0.80892615E+02</pdfrwt>
<pdfrwt beam="2">  1       -2 0.47197149E-02 0.80892615E+02</pdfrwt>
<totfact> 0.12887728E+05</totfact>
</mgrwt>
</event>
<event>
 8    1  0.7756875E-014  0.7769211E+02  0.7818608E-02  0.1335731E+00
         -2   -1    0    0    0  501 -0.00000000000E+00  0.00000000000E+00  0.34716987494E+03  0.34716987494E+03  0.25500000000E-02 0.  1.
          1   -1    0    0  501    0  0.00000000000E+00 -0.00000000000E+00 -0.43466202904E+01  0.43466232124E+01  0.50400000000E-02 0. -1.
        -24    2    1    2    0    0  0.00000000000E+00  0.35527136788E-14  0.34282325464E+03  0.35151649816E+03  0.77692113830E+02 0.  0.
         66    2    3    3    0    0 -0.12885409678E+02  0.17706569300E+02  0.31655233010E+03  0.31731519673E+03  0.20000009371E+01 0.  0.
         13    1    3    3    0    0  0.12885409678E+02 -0.17706569300E+02  0.26270924544E+02  0.34201301428E+02  0.10566000000E+00 0. -1.
         13    1    4    4    0    0 -0.40244568981E+01  0.48949650949E+01  0.10109871096E+03  0.10129717399E+03  0.10566000000E+00 0. -1.
        -13    1    4    4    0    0 -0.69873467668E+01  0.10524544472E+02  0.17069369036E+03  0.17116055662E+03  0.10566000000E+00 0.  1.
        -14    1    4    4    0    0 -0.18736060136E+01  0.22870597331E+01  0.44759928787E+02  0.44857466120E+02  0.00000000000E+00 0.  1.
<mgrwt>
<rscale>  0 0.77692114E+02</rscale>
<asrwt>0</asrwt>
<pdfrwt beam="1">  1        1 0.66871079E-03 0.77692114E+02</pdfrwt>
<pdfrwt beam="2">  1       -2 0.53410770E-01 0.77692114E+02</pdfrwt>
<totfact> 0.69703742E+04</totfact>
</mgrwt>
</event>
<event>
 8    1  0.7756875E-014  0.7994272E+02  0.7818608E-02  0.1329214E+00
         -2   -1    0    0    0  501 -0.00000000000E+00  0.00000000000E+00  0.48153686641E+01  0.48153693393E+01  0.25500000000E-02 0.  1.
          1   -1    0    0  501    0  0.00000000000E+00 -0.00000000000E+00 -0.33179377227E+03  0.33179377231E+03  0.50400000000E-02 0. -1.
        -24    2    1    2    0    0  0.00000000000E+00  0.71054273576E-14 -0.32697840361E+03  0.33660914165E+03  0.79942715841E+02 0.  0.
         66    2    3    3    0    0  0.35915938502E+01 -0.37869246385E+02 -0.11224138989E+03  0.11852893716E+03  0.19999925878E+01 0.  0.
         13    1    3    3    0    0 -0.35915938502E+01  0.37869246385E+02 -0.21473701372E+03  0.21808020449E+03  0.10566000000E+00 0. -1.
         13    1    4    4    0    0  0.85655587744E-01 -0.73541208344E+01 -0.21087962169E+02  0.22333914628E+02  0.10566000000E+00 0.  1.
        -13    1    4    4    0    0  0.32404484043E+01 -0.24997233521E+02 -0.75224419141E+02  0.79335279597E+02  0.10566000000E+00 0. -1.
         14    1    4    4    0    0  0.26548985811E+00 -0.55178920302E+01 -0.15929008583E+02  0.16859742932E+02  0.00000000000E+00 0. -1.
<mgrwt>
<rscale>  0 0.79942716E+02</rscale>
<asrwt>0</asrwt>
<pdfrwt beam="1">  1        1 0.51045178E-01 0.79942716E+02</pdfrwt>
<pdfrwt beam="2">  1       -2 0.74082626E-03 0.79942716E+02</pdfrwt>
<totfact> 0.18419514E+05</totfact>
</mgrwt>
</event>
<event>
 8    1  0.7756875E-014  0.8611546E+02  0.7818608E-02  0.1312541E+00
         -2   -1    0    0    0  501 -0.00000000000E+00  0.00000000000E+00  0.10275257845E+02  0.10275258162E+02  0.25500000000E-02 0.  1.
          1   -1    0    0  501    0  0.00000000000E+00 -0.00000000000E+00 -0.18043033591E+03  0.18043033598E+03  0.50400000000E-02 0. -1.
        -24    2    1    2    0    0  0.35527136788E-14  0.71054273576E-14 -0.17015507807E+03  0.19070559414E+03  0.86115463454E+02 0.  0.
         66    2    3    3    0    0  0.19563907075E+02  0.38314309809E+02 -0.82666842441E+02  0.93212336258E+02  0.19999988503E+01 0.  0.
         13    1    3    3    0    0 -0.19563907075E+02 -0.38314309809E+02 -0.87488235625E+02  0.97493257884E+02  0.10566000000E+00 0. -1.
         13    1    4    4    0    0  0.16561560700E+01  0.29010743673E+01 -0.58468289586E+01  0.67346609655E+01  0.10566000000E+00 0. -1.
        -13    1    4    4    0    0  0.12713938257E+01  0.32436216092E+01 -0.73138498400E+01  0.81019187185E+01  0.10566000000E+00 0.  1.
        -14    1    4    4    0    0  0.16636357180E+02  0.32169613833E+02 -0.69506163642E+02  0.78375756574E+02  0.00000000000E+00 0.  1.
<mgrwt>
<rscale>  0 0.86115463E+02</rscale>
<asrwt>0</asrwt>
<pdfrwt beam="1">  1        1 0.27758511E-01 0.86115463E+02</pdfrwt>
<pdfrwt beam="2">  1       -2 0.15808091E-02 0.86115463E+02</pdfrwt>
<totfact> 0.13425335E+05</totfact>
</mgrwt>
</event>
<event>
 8    1  0.7756875E-014  0.7765505E+02  0.7818608E-02  0.1335841E+00
         -2   -1    0    0    0  501 -0.00000000000E+00  0.00000000000E+00  0.15803372157E+03  0.15803372159E+03  0.25500000000E-02 0.  1.
          1   -1    0    0  501    0  0.00000000000E+00 -0.00000000000E+00 -0.95395878480E+01  0.95395891793E+01  0.50400000000E-02 0. -1.
        -24    2    1    2    0    0  0.00000000000E+00  0.00000000000E+00  0.14849413372E+03  0.16757331077E+03  0.77655049627E+02 0.  0.
         66    2    3    3    0    0 -0.42100004283E+01 -0.36704733210E+02  0.99884605596E+02  0.10651711590E+03  0.20000001067E+01 0.  0.
         13    1    3    3    0    0  0.42100004283E+01  0.36704733210E+02  0.48609528128E+02  0.61056194874E+02  0.10566000000E+00 0. -1.
         13    1    4    4    0    0 -0.79838544817E+00 -0.81350946132E+01  0.20720225486E+02  0.22274561543E+02  0.10566000000E+00 0.  1.
        -13    1    4    4    0    0 -0.26160548492E+00 -0.66115039976E+01  0.17477881833E+02  0.18688711564E+02  0.10566000000E+00 0. -1.
        -14    1    4    4    0    0 -0.31500094952E+01 -0.21958134600E+02  0.61686498278E+02  0.65553842791E+02  0.00000000000E+00 0.  1.
<mgrwt>
<rscale>  0 0.77655050E+02</rscale>
<asrwt>0</asrwt>
<pdfrwt beam="1">  1        1 0.14676292E-02 0.77655050E+02</pdfrwt>
<pdfrwt beam="2">  1       -2 0.24312877E-01 0.77655050E+02</pdfrwt>
<totfact> 0.10026164E+05</totfact>
</mgrwt>
</event>
<event>
 8    1  0.7756875E-014  0.7958751E+02  0.7818608E-02  0.1330226E+00
         -2   -1    0    0    0  501 -0.00000000000E+00  0.00000000000E+00  0.81246595311E+02  0.81246595351E+02  0.25500000000E-02 0.  1.
          1   -1    0    0  501    0  0.00000000000E+00 -0.00000000000E+00 -0.19490573164E+02  0.19490573816E+02  0.50400000000E-02 0. -1.
        -24    2    1    2    0    0  0.17763568394E-14  0.00000000000E+00  0.61756022147E+02  0.10073716917E+03  0.79587505177E+02 0.  0.
         66    2    3    3    0    0  0.83099697068E+01 -0.20123398450E+02  0.73020796257E+02  0.76223641034E+02  0.20000011911E+01 0.  0.
         13    1    3    3    0    0 -0.83099697068E+01  0.20123398450E+02 -0.11264774111E+02  0.24513528132E+02  0.10566000000E+00 0. -1.
         13    1    4    4    0    0  0.57858886551E+01 -0.13317172750E+02  0.50377764043E+02  0.52428559694E+02  0.10566000000E+00 0. -1.
        -13    1    4    4    0    0  0.24902136080E+01 -0.66487596187E+01  0.21535344479E+02  0.22675744622E+02  0.10566000000E+00 0.  1.
         14    1    4    4    0    0  0.33867443793E-01 -0.15746608056E+00  0.11076877353E+01  0.11193367184E+01  0.00000000000E+00 0. -1.
<mgrwt>
<rscale>  0 0.79587505E+02</rscale>
<asrwt>0</asrwt>
<pdfrwt beam="1">  1        1 0.29985498E-02 0.79587505E+02</pdfrwt>
<pdfrwt beam="2">  1       -2 0.12499476E-01 0.79587505E+02</pdfrwt>
<totfact> 0.11286328E+05</totfact>
</mgrwt>
</event>
<event>
 8    1  0.7756875E-014  0.8155581E+02  0.7818608E-02  0.1324693E+00
          1   -1    0    0  501    0  0.00000000000E+00  0.00000000000E+00  0.43168739199E+02  0.43168739493E+02  0.50400000000E-02 0. -1.
         -2   -1    0    0    0  501 -0.00000000000E+00 -0.00000000000E+00 -0.38519481969E+02  0.38519482054E+02  0.25500000000E-02 0.  1.
        -24    2    1    2    0    0  0.00000000000E+00  0.00000000000E+00  0.46492572299E+01  0.81688221547E+02  0.81555808786E+02 0.  0.
         66    2    3    3    0    0 -0.39410777688E+02  0.98636216053E+01  0.55455956231E+01  0.41051846023E+02  0.20000004698E+01 0.  0.
         13    1    3    3    0    0  0.39410777688E+02 -0.98636216053E+01 -0.89633839320E+00  0.40636375524E+02  0.10566000000E+00 0. -1.
         13    1    4    4    0    0 -0.20440439304E+02  0.49059502477E+01  0.37645190352E+01  0.21355623952E+02  0.10566000000E+00 0.  1.
        -13    1    4    4    0    0 -0.11412448052E+02  0.32554633552E+01  0.11168258728E+01  0.11920590433E+02  0.10566000000E+00 0. -1.
        -14    1    4    4    0    0 -0.75578903322E+01  0.17022080024E+01  0.66425071519E+00  0.77756316379E+01  0.00000000000E+00 0.  1.
<mgrwt>
<rscale>  0 0.81555809E+02</rscale>
<asrwt>0</asrwt>
<pdfrwt beam="1">  1        1 0.66413445E-02 0.81555809E+02</pdfrwt>
<pdfrwt beam="2">  1       -2 0.59260742E-02 0.81555809E+02</pdfrwt>
<totfact> 0.12177384E+05</totfact>
</mgrwt>
</event>
<event>
 8    1  0.7756875E-014  0.8289179E+02  0.7818608E-02  0.1321040E+00
          1   -1    0    0  501    0  0.00000000000E+00  0.00000000000E+00  0.10724386943E+03  0.10724386955E+03  0.50400000000E-02 0. -1.
         -2   -1    0    0    0  501 -0.00000000000E+00 -0.00000000000E+00 -0.16017344931E+02  0.16017345134E+02  0.25500000000E-02 0.  1.
        -24    2    1    2    0    0 -0.35527136788E-14  0.27755575616E-16  0.91226524500E+02  0.12326121468E+03  0.82891786524E+02 0.  0.
         66    2    3    3    0    0 -0.19033945196E+02  0.13567374207E+00 -0.90663465607E+01  0.21178010254E+02  0.20000003236E+01 0.  0.
         13    1    3    3    0    0  0.19033945196E+02 -0.13567374207E+00  0.10029287106E+03  0.10208320443E+03  0.10566000000E+00 0. -1.
         13    1    4    4    0    0 -0.55030004777E+01  0.47139857308E+00 -0.22428338841E+01  0.59621052272E+01  0.10566000000E+00 0. -1.
        -13    1    4    4    0    0 -0.90685815477E+01 -0.71638003709E+00 -0.41425017107E+01  0.99961920802E+01  0.10566000000E+00 0.  1.
         14    1    4    4    0    0 -0.44623631702E+01  0.38065520608E+00 -0.26810109658E+01  0.52197129469E+01  0.00000000000E+00 0. -1.
<mgrwt>
<rscale>  0 0.82891787E+02</rscale>
<asrwt>0</asrwt>
<pdfrwt beam="1">  1        1 0.16499057E-01 0.82891787E+02</pdfrwt>
<pdfrwt beam="2">  1       -2 0.24642069E-02 0.82891787E+02</pdfrwt>
<totfact> 0.13513086E+05</totfact>
</mgrwt>
</event>
<event>
 8    1  0.7756875E-014  0.8067984E+02  0.7818608E-02  0.1327133E+00
         -2   -1    0    0    0  501 -0.00000000000E+00  0.00000000000E+00  0.22443694666E+02  0.22443694811E+02  0.25500000000E-02 0.  1.
          1   -1    0    0  501    0  0.00000000000E+00 -0.00000000000E+00 -0.72506293986E+02  0.72506294161E+02  0.50400000000E-02 0. -1.
        -24    2    1    2    0    0  0.00000000000E+00  0.00000000000E+00 -0.50062599320E+02  0.94949988972E+02  0.80679839831E+02 0.  0.
         66    2    3    3    0    0  0.21493147393E+02 -0.17966510168E+02  0.90736357510E+01  0.29514094122E+02  0.20000034067E+01 0.  0.
         13    1    3    3    0    0 -0.21493147393E+02  0.17966510168E+02 -0.59136235071E+02  0.65435894850E+02  0.10566000000E+00 0. -1.
         13    1    4    4    0    0  0.60470017010E+00 -0.72606783817E+00  0.62313714661E+00  0.11367940625E+01  0.10566000000E+00 0.  1.
        -13    1    4    4    0    0  0.81936215662E+01 -0.66091207154E+01  0.30493822513E+01  0.10960191930E+02  0.10566000000E+00 0. -1.
        -14    1    4    4    0    0  0.12694825657E+02 -0.10631321614E+02  0.54011163530E+01  0.17417108129E+02  0.00000000000E+00 0.  1.
<mgrwt>
<rscale>  0 0.80679840E+02</rscale>
<asrwt>0</asrwt>
<pdfrwt beam="1">  1        1 0.11154814E-01 0.80679840E+02</pdfrwt>
<pdfrwt beam="2">  1       -2 0.34528762E-02 0.80679840E+02</pdfrwt>
<totfact> 0.13629009E+05</totfact>
</mgrwt>
</event>
<event>
 8    1  0.7756875E-014  0.8145702E+02  0.7818608E-02  0.1324967E+00
          1   -1    0    0  501    0  0.00000000000E+00  0.00000000000E+00  0.21117774342E+02  0.21117774944E+02  0.50400000000E-02 0. -1.
         -2   -1    0    0    0  501 -0.00000000000E+00 -0.00000000000E+00 -0.78550489550E+02  0.78550489592E+02  0.25500000000E-02 0.  1.
        -24    2    1    2    0    0 -0.71054273576E-14  0.44408920985E-15 -0.57432715208E+02  0.99668264536E+02  0.81457020443E+02 0.  0.
         66    2    3    3    0    0  0.27735716576E+02 -0.37750677733E+01 -0.64891794514E+02  0.70699831047E+02  0.20000010609E+01 0.  0.
         13    1    3    3    0    0 -0.27735716576E+02  0.37750677733E+01  0.74590793058E+01  0.28968433488E+02  0.10566000000E+00 0. -1.
         13    1    4    4    0    0  0.10691185364E+01 -0.10859842590E+00 -0.27092365531E+01  0.29164935795E+01  0.10566000000E+00 0.  1.
        -13    1    4    4    0    0  0.16469547871E+02 -0.27076870200E+01 -0.40447819268E+02  0.43756311815E+02  0.10566000000E+00 0.  1.
        -14    1    4    4    0    0  0.10197050168E+02 -0.95878232733E+00 -0.21734738693E+02  0.24027025653E+02  0.00000000000E+00 0.  1.
<mgrwt>
<rscale>  0 0.81457020E+02</rscale>
<asrwt>0</asrwt>
<pdfrwt beam="1">  1        1 0.32488884E-02 0.81457020E+02</pdfrwt>
<pdfrwt beam="2">  1       -2 0.12084691E-01 0.81457020E+02</pdfrwt>
<totfact> 0.10715722E+05</totfact>
</mgrwt>
</event>
<event>
 8    1  0.7756875E-014  0.7829622E+02  0.7818608E-02  0.1333957E+00
          1   -1    0    0  501    0  0.00000000000E+00  0.00000000000E+00  0.54427249172E+03  0.54427249174E+03  0.50400000000E-02 0. -1.
         -2   -1    0    0    0  501 -0.00000000000E+00 -0.00000000000E+00 -0.28158213169E+01  0.28158224716E+01  0.25500000000E-02 0.  1.
        -24    2    1    2    0    0  0.00000000000E+00  0.00000000000E+00  0.54145667040E+03  0.54708831422E+03  0.78296217192E+02 0.  0.
         66    2    3    3    0    0 -0.27247870698E+02  0.16447943939E+02  0.42987216657E+03  0.43105343162E+03  0.20000022579E+01 0.  0.
         13    1    3    3    0    0  0.27247870698E+02 -0.16447943939E+02  0.11158450384E+03  0.11603488259E+03  0.10566000000E+00 0. -1.
         13    1    4    4    0    0 -0.56444656206E+01  0.28779120993E+01  0.91595586836E+02  0.91814514441E+02  0.10566000000E+00 0. -1.
        -13    1    4    4    0    0 -0.65725592022E+01  0.37373431998E+01  0.95654684523E+02  0.95953093248E+02  0.10566000000E+00 0.  1.
        -14    1    4    4    0    0 -0.15030845875E+02  0.98326886395E+01  0.24262189521E+03  0.24328582393E+03  0.00000000000E+00 0.  1.
<mgrwt>
<rscale>  0 0.78296217E+02</rscale>
<asrwt>0</asrwt>
<pdfrwt beam="1">  1        1 0.83734200E-01 0.78296217E+02</pdfrwt>
<pdfrwt beam="2">  1       -2 0.43320352E-03 0.78296217E+02</pdfrwt>
<totfact> 0.20931928E+05</totfact>
</mgrwt>
</event>
<event>
 8    1  0.7756875E-014  0.8515019E+02  0.7818608E-02  0.1315040E+00
          1   -1    0    0  501    0  0.00000000000E+00  0.00000000000E+00  0.12504745792E+03  0.12504745802E+03  0.50400000000E-02 0. -1.
         -2   -1    0    0    0  501 -0.00000000000E+00 -0.00000000000E+00 -0.14495604736E+02  0.14495604961E+02  0.25500000000E-02 0.  1.
        -24    2    1    2    0    0  0.00000000000E+00  0.13877787808E-16  0.11055185318E+03  0.13954306298E+03  0.85150186047E+02 0.  0.
         66    2    3    3    0    0 -0.25389828474E+02  0.91256555314E-01 -0.65248204420E+00  0.25476998549E+02  0.20000011475E+01 0.  0.
         13    1    3    3    0    0  0.25389828474E+02 -0.91256555314E-01  0.11120433522E+03  0.11406606443E+03  0.10566000000E+00 0. -1.
         13    1    4    4    0    0 -0.13138531239E+01 -0.36892267316E+00 -0.68261506742E-02  0.13687675485E+01  0.10566000000E+00 0. -1.
        -13    1    4    4    0    0 -0.11274170529E+02  0.14553422765E+00 -0.77116520671E+00  0.11301945016E+02  0.10566000000E+00 0.  1.
         14    1    4    4    0    0 -0.12801804821E+02  0.31464500083E+00  0.12550931318E+00  0.12806285985E+02  0.00000000000E+00 0. -1.
<mgrwt>
<rscale>  0 0.85150186E+02</rscale>
<asrwt>0</asrwt>
<pdfrwt beam="1">  1        1 0.19238071E-01 0.85150186E+02</pdfrwt>
<pdfrwt beam="2">  1       -2 0.22300930E-02 0.85150186E+02</pdfrwt>
<totfact> 0.12912419E+05</totfact>
</mgrwt>
</event>
<event>
 8    1  0.7756875E-014  0.7793987E+02  0.7818608E-02  0.1335002E+00
          1   -1    0    0  501    0  0.00000000000E+00  0.00000000000E+00  0.10626963246E+03  0.10626963258E+03  0.50400000000E-02 0. -1.
         -2   -1    0    0    0  501 -0.00000000000E+00 -0.00000000000E+00 -0.14290591261E+02  0.14290591489E+02  0.25500000000E-02 0.  1.
        -24    2    1    2    0    0  0.00000000000E+00  0.22204460493E-15  0.91979041198E+02  0.12056022407E+03  0.77939871745E+02 0.  0.
         66    2    3    3    0    0 -0.25266777202E+02  0.18016115671E+01  0.26381080657E+00  0.25411127991E+02  0.19999988134E+01 0.  0.
         13    1    3    3    0    0  0.25266777202E+02 -0.18016115671E+01  0.91715230391E+02  0.95149096077E+02  0.10566000000E+00 0. -1.
         13    1    4    4    0    0 -0.73542368348E+00  0.12221673339E+00 -0.11324703046E+00  0.76142882114E+00  0.10566000000E+00 0. -1.
        -13    1    4    4    0    0 -0.17943338400E+02  0.19760048571E+01  0.27068639198E+00  0.18054152522E+02  0.10566000000E+00 0.  1.
        -14    1    4    4    0    0 -0.65880151186E+01 -0.29661002336E+00  0.10637144505E+00  0.65955466486E+01  0.00000000000E+00 0.  1.
<mgrwt>
<rscale>  0 0.77939872E+02</rscale>
<asrwt>0</asrwt>
<pdfrwt beam="1">  1        1 0.16349174E-01 0.77939872E+02</pdfrwt>
<pdfrwt beam="2">  1       -2 0.21985525E-02 0.77939872E+02</pdfrwt>
<totfact> 0.15932170E+05</totfact>
</mgrwt>
</event>
<event>
 8    1  0.7756875E-014  0.8151987E+02  0.7818608E-02  0.1324793E+00
         -2   -1    0    0    0  501 -0.00000000000E+00  0.00000000000E+00  0.47701796281E+01  0.47701803097E+01  0.25500000000E-02 0.  1.
          1   -1    0    0  501    0  0.00000000000E+00 -0.00000000000E+00 -0.34828289676E+03  0.34828289680E+03  0.50400000000E-02 0. -1.
        -24    2    1    2    0    0  0.00000000000E+00  0.00000000000E+00 -0.34351271713E+03  0.35305307711E+03  0.81519865203E+02 0.  0.
         66    2    3    3    0    0  0.80114999813E+01  0.39043479068E+02 -0.20829805235E+03  0.21208643522E+03  0.20000000346E+01 0.  0.
         13    1    3    3    0    0 -0.80114999813E+01 -0.39043479068E+02 -0.13521466478E+03  0.14096664189E+03  0.10566000000E+00 0. -1.
         13    1    4    4    0    0  0.13256558671E+00  0.45508524157E+00 -0.27392518269E+01  0.27819670772E+01  0.10566000000E+00 0. -1.
        -13    1    4    4    0    0  0.42075566782E+01  0.22110764249E+02 -0.12151538000E+03  0.12358231333E+03  0.10566000000E+00 0.  1.
         14    1    4    4    0    0  0.36713777163E+01  0.16477629577E+02 -0.84043420530E+02  0.85722154809E+02  0.00000000000E+00 0. -1.
<mgrwt>
<rscale>  0 0.81519865E+02</rscale>
<asrwt>0</asrwt>
<pdfrwt beam="1">  1        1 0.53581964E-01 0.81519865E+02</pdfrwt>
<pdfrwt beam="2">  1       -2 0.73387412E-03 0.81519865E+02</pdfrwt>
<totfact> 0.17650219E+05</totfact>
</mgrwt>
</event>
<event>
 8    1  0.7756875E-014  0.7975092E+02  0.7818608E-02  0.1329760E+00
          1   -1    0    0  501    0  0.00000000000E+00  0.00000000000E+00  0.11796843660E+03  0.11796843670E+03  0.50400000000E-02 0. -1.
         -2   -1    0    0    0  501 -0.00000000000E+00 -0.00000000000E+00 -0.13478623809E+02  0.13478624050E+02  0.25500000000E-02 0.  1.
        -24    2    1    2    0    0  0.00000000000E+00  0.00000000000E+00  0.10448981279E+03  0.13144706075E+03  0.79750917264E+02 0.  0.
         66    2    3    3    0    0 -0.30994215417E+02  0.68007168681E+01  0.12543735573E+02  0.34179474075E+02  0.20000016617E+01 0.  0.
         13    1    3    3    0    0  0.30994215417E+02 -0.68007168681E+01  0.91946077214E+02  0.97267586679E+02  0.10566000000E+00 0. -1.
         13    1    4    4    0    0 -0.76207751308E+00  0.33491420659E+00  0.50065499579E+00  0.97711264557E+00  0.10566000000E+00 0. -1.
        -13    1    4    4    0    0 -0.25988004726E+02  0.57555939201E+01  0.99462491815E+01  0.28415528990E+02  0.10566000000E+00 0.  1.
        -14    1    4    4    0    0 -0.42441331786E+01  0.71020874148E+00  0.20968313961E+01  0.47868324389E+01  0.00000000000E+00 0.  1.
<mgrwt>
<rscale>  0 0.79750917E+02</rscale>
<asrwt>0</asrwt>
<pdfrwt beam="1">  1        1 0.18148990E-01 0.79750917E+02</pdfrwt>
<pdfrwt beam="2">  1       -2 0.20736345E-02 0.79750917E+02</pdfrwt>
<totfact> 0.15248496E+05</totfact>
</mgrwt>
</event>
<event>
 8    1  0.7756875E-014  0.8917463E+02  0.7818608E-02  0.1304863E+00
          1   -1    0    0  501    0  0.00000000000E+00  0.00000000000E+00  0.19814606366E+02  0.19814607007E+02  0.50400000000E-02 0. -1.
         -2   -1    0    0    0  501 -0.00000000000E+00 -0.00000000000E+00 -0.10033146937E+03  0.10033146940E+03  0.25500000000E-02 0.  1.
        -24    2    1    2    0    0 -0.17763568394E-14 -0.71054273576E-14 -0.80516863002E+02  0.12014607641E+03  0.89174628950E+02 0.  0.
         66    2    3    3    0    0  0.12796790474E+02  0.42252981356E+02 -0.48468605601E+02  0.65591752597E+02  0.19999999777E+01 0.  0.
         13    1    3    3    0    0 -0.12796790474E+02 -0.42252981356E+02 -0.32048257401E+02  0.54554323810E+02  0.10566000000E+00 0. -1.
         13    1    4    4    0    0  0.21692878377E+01  0.65753503735E+01 -0.67195081145E+01  0.96490411748E+01  0.10566000000E+00 0. -1.
        -13    1    4    4    0    0  0.44769796821E+01  0.16070581439E+02 -0.19168461509E+02  0.25411572472E+02  0.10566000000E+00 0.  1.
        -14    1    4    4    0    0  0.61505229542E+01  0.19607049544E+02 -0.22580635977E+02  0.30531138950E+02  0.00000000000E+00 0.  1.
<mgrwt>
<rscale>  0 0.89174629E+02</rscale>
<asrwt>0</asrwt>
<pdfrwt beam="1">  1        1 0.30484011E-02 0.89174629E+02</pdfrwt>
<pdfrwt beam="2">  1       -2 0.15435610E-01 0.89174629E+02</pdfrwt>
<totfact> 0.80269080E+04</totfact>
</mgrwt>
</event>
<event>
 8    1  0.7756875E-014  0.8055035E+02  0.7818608E-02  0.1327497E+00
          1   -1    0    0  501    0  0.00000000000E+00  0.00000000000E+00  0.37640441426E+02  0.37640441763E+02  0.50400000000E-02 0. -1.
         -2   -1    0    0    0  501 -0.00000000000E+00 -0.00000000000E+00 -0.43094331775E+02  0.43094331851E+02  0.25500000000E-02 0.  1.
        -24    2    1    2    0    0  0.00000000000E+00  0.00000000000E+00 -0.54538903497E+01  0.80734773614E+02  0.80550349164E+02 0.  0.
         66    2    3    3    0    0 -0.24165713893E+02 -0.32092454370E+02 -0.52197426118E+01  0.40560486506E+02  0.19999993060E+01 0.  0.
         13    1    3    3    0    0  0.24165713893E+02  0.32092454370E+02 -0.23414773787E+00  0.40174287108E+02  0.10566000000E+00 0. -1.
         13    1    4    4    0    0 -0.15735190561E+02 -0.20669250417E+02 -0.33905663931E+01  0.26197733476E+02  0.10566000000E+00 0. -1.
        -13    1    4    4    0    0 -0.50015141177E+01 -0.57984362562E+01 -0.97232410534E+00  0.77196881212E+01  0.10566000000E+00 0.  1.
         14    1    4    4    0    0 -0.34290092137E+01 -0.56247676972E+01 -0.85685211341E+00  0.66430649085E+01  0.00000000000E+00 0. -1.
<mgrwt>
<rscale>  0 0.80550349E+02</rscale>
<asrwt>0</asrwt>
<pdfrwt beam="1">  1        1 0.57908372E-02 0.80550349E+02</pdfrwt>
<pdfrwt beam="2">  1       -2 0.66298972E-02 0.80550349E+02</pdfrwt>
<totfact> 0.12330197E+05</totfact>
</mgrwt>
</event>
<event>
 8    1  0.7756875E-014  0.8011456E+02  0.7818608E-02  0.1328727E+00
          1   -1    0    0  501    0  0.00000000000E+00  0.00000000000E+00  0.16113859347E+01  0.16113938166E+01  0.50400000000E-02 0. -1.
         -2   -1    0    0    0  501 -0.00000000000E+00 -0.00000000000E+00 -0.99577737286E+03  0.99577737286E+03  0.25500000000E-02 0.  1.
        -24    2    1    2    0    0  0.35527136788E-14  0.00000000000E+00 -0.99416598693E+03  0.99738876668E+03  0.80114557603E+02 0.  0.
         66    2    3    3    0    0  0.21444180816E+02  0.21413205920E+02 -0.82303759085E+03  0.82359775027E+03  0.20000032287E+01 0.  0.
         13    1    3    3    0    0 -0.21444180816E+02 -0.21413205920E+02 -0.17112839607E+03  0.17379101641E+03  0.10566000000E+00 0. -1.
         13    1    4    4    0    0  0.14358718168E+02  0.14008570460E+02 -0.54270696401E+03  0.54307759370E+03  0.10566000000E+00 0. -1.
        -13    1    4    4    0    0  0.70763876045E+01  0.71692427609E+01 -0.27346962782E+03  0.27365511471E+03  0.10566000000E+00 0.  1.
         14    1    4    4    0    0  0.90750442106E-02  0.23539269883E+00 -0.68609990252E+01  0.68650418573E+01  0.00000000000E+00 0. -1.
<mgrwt>
<rscale>  0 0.80114558E+02</rscale>
<asrwt>0</asrwt>
<pdfrwt beam="1">  1        1 0.24790693E-03 0.80114558E+02</pdfrwt>
<pdfrwt beam="2">  1       -2 0.15319603E+00 0.80114558E+02</pdfrwt>
<totfact> 0.26110202E+04</totfact>
</mgrwt>
</event>
<event>
 8    1  0.7756875E-014  0.8001988E+02  0.7818608E-02  0.1328995E+00
         -2   -1    0    0    0  501 -0.00000000000E+00  0.00000000000E+00  0.50776120388E+02  0.50776120452E+02  0.25500000000E-02 0.  1.
          1   -1    0    0  501    0  0.00000000000E+00 -0.00000000000E+00 -0.31526539286E+02  0.31526539689E+02  0.50400000000E-02 0. -1.
        -24    2    1    2    0    0  0.00000000000E+00  0.00000000000E+00  0.19249581102E+02  0.82302660141E+02  0.80019881865E+02 0.  0.
         66    2    3    3    0    0 -0.50374315518E+01 -0.35426987489E+02 -0.87203850870E+01  0.36884851609E+02  0.20000007498E+01 0.  0.
         13    1    3    3    0    0  0.50374315518E+01  0.35426987489E+02  0.27969966189E+02  0.45417808532E+02  0.10566000000E+00 0. -1.
         13    1    4    4    0    0 -0.13105361854E+01 -0.11158019511E+02 -0.24596279974E+01  0.11501297249E+02  0.10566000000E+00 0.  1.
        -13    1    4    4    0    0 -0.13688875568E+01 -0.53765513954E+01 -0.10934358760E+01  0.56557867800E+01  0.10566000000E+00 0. -1.
        -14    1    4    4    0    0 -0.23580078095E+01 -0.18892416583E+02 -0.51673212136E+01  0.19727767580E+02  0.00000000000E+00 0.  1.
<mgrwt>
<rscale>  0 0.80019882E+02</rscale>
<asrwt>0</asrwt>
<pdfrwt beam="1">  1        1 0.48502370E-02 0.80019882E+02</pdfrwt>
<pdfrwt beam="2">  1       -2 0.78117107E-02 0.80019882E+02</pdfrwt>
<totfact> 0.12191921E+05</totfact>
</mgrwt>
</event>
<event>
 8    1  0.7756875E-014  0.8193414E+02  0.7818608E-02  0.1323651E+00
          1   -1    0    0  501    0  0.00000000000E+00  0.00000000000E+00  0.15265141699E+02  0.15265142531E+02  0.50400000000E-02 0. -1.
         -2   -1    0    0    0  501 -0.00000000000E+00 -0.00000000000E+00 -0.10994334295E+03  0.10994334298E+03  0.25500000000E-02 0.  1.
        -24    2    1    2    0    0 -0.35527136788E-14  0.00000000000E+00 -0.94678201248E+02  0.12520848551E+03  0.81934138500E+02 0.  0.
         66    2    3    3    0    0 -0.18059180514E+02 -0.32013817682E+02 -0.74928275685E+02  0.83482123970E+02  0.20000005377E+01 0.  0.
         13    1    3    3    0    0  0.18059180514E+02  0.32013817682E+02 -0.19749925563E+02  0.41726361538E+02  0.10566000000E+00 0. -1.
         13    1    4    4    0    0 -0.94817916451E+00 -0.16634358021E+01 -0.31959717835E+01  0.37271251753E+01  0.10566000000E+00 0. -1.
        -13    1    4    4    0    0 -0.68821166166E+01 -0.11491762091E+02 -0.28606467222E+02  0.31587422435E+02  0.10566000000E+00 0.  1.
         14    1    4    4    0    0 -0.10228884733E+02 -0.18858619789E+02 -0.43125836679E+02  0.48167576360E+02  0.00000000000E+00 0. -1.
<mgrwt>
<rscale>  0 0.81934139E+02</rscale>
<asrwt>0</asrwt>
<pdfrwt beam="1">  1        1 0.23484835E-02 0.81934139E+02</pdfrwt>
<pdfrwt beam="2">  1       -2 0.16914360E-01 0.81934139E+02</pdfrwt>
<totfact> 0.97426317E+04</totfact>
</mgrwt>
</event>
<event>
 8    1  0.7756875E-014  0.7956413E+02  0.7818608E-02  0.1330293E+00
         -2   -1    0    0    0  501 -0.00000000000E+00  0.00000000000E+00  0.40544323354E+02  0.40544323434E+02  0.25500000000E-02 0.  1.
          1   -1    0    0  501    0  0.00000000000E+00 -0.00000000000E+00 -0.39034141364E+02  0.39034141689E+02  0.50400000000E-02 0. -1.
        -24    2    1    2    0    0 -0.71054273576E-14  0.00000000000E+00  0.15101819900E+01  0.79578465123E+02  0.79564134267E+02 0.  0.
         66    2    3    3    0    0 -0.38723987944E+02 -0.89992489400E+01  0.10279920694E+01  0.39819473751E+02  0.19999995760E+01 0.  0.
         13    1    3    3    0    0  0.38723987944E+02  0.89992489400E+01  0.48218992062E+00  0.39758991372E+02  0.10566000000E+00 0. -1.
         13    1    4    4    0    0 -0.99890223972E+01 -0.15987341018E+01  0.62709579923E-02  0.10116705123E+02  0.10566000000E+00 0. -1.
        -13    1    4    4    0    0 -0.12940170298E+01 -0.19716697901E+00  0.10306397361E+00  0.13172475505E+01  0.10566000000E+00 0. -1.
        -14    1    4    4    0    0 -0.27440948517E+02 -0.72033478592E+01  0.91865713779E+00  0.28385521077E+02  0.00000000000E+00 0.  1.
<mgrwt>
<rscale>  0 0.79564134E+02</rscale>
<asrwt>0</asrwt>
<pdfrwt beam="1">  1        1 0.60052525E-02 0.79564134E+02</pdfrwt>
<pdfrwt beam="2">  1       -2 0.62375882E-02 0.79564134E+02</pdfrwt>
<totfact> 0.12843472E+05</totfact>
</mgrwt>
</event>
<event>
 8    1  0.1394440E-013  0.7403243E+02  0.7818608E-02  0.1346894E+00
         -2   -1    0    0    0  501 -0.00000000000E+00  0.00000000000E+00  0.63611308091E+02  0.63611308142E+02  0.25500000000E-02 0.  1.
          1   -1    0    0  501    0  0.00000000000E+00 -0.00000000000E+00 -0.21540196757E+02  0.21540197346E+02  0.50400000000E-02 0. -1.
        -24    2    1    2    0    0  0.00000000000E+00  0.17763568394E-14  0.42071111335E+02  0.85151505489E+02  0.74032428557E+02 0.  0.
         66    2    3    3    0    0 -0.41361643862E+01  0.13745041448E+02  0.60261468659E+02  0.61979663010E+02  0.20000004184E+01 0.  0.
         13    1    3    3    0    0  0.41361643862E+01 -0.13745041448E+02 -0.18190357324E+02  0.23171842479E+02  0.10566000000E+00 0. -1.
         13    1    4    4    0    0 -0.62885139101E+00  0.25633279583E+01  0.93358625561E+01  0.97023501275E+01  0.10566000000E+00 0. -1.
        -13    1    4    4    0    0 -0.24379452172E+01  0.79611740497E+01  0.33077172029E+02  0.34109153356E+02  0.10566000000E+00 0.  1.
         14    1    4    4    0    0 -0.10693677780E+01  0.32205394404E+01  0.17848434073E+02  0.18168159527E+02  0.00000000000E+00 0. -1.
<mgrwt>
<rscale>  0 0.74032429E+02</rscale>
<asrwt>0</asrwt>
<pdfrwt beam="1">  1        1 0.33138765E-02 0.74032429E+02</pdfrwt>
<pdfrwt beam="2">  1       -2 0.97863551E-02 0.74032429E+02</pdfrwt>
<totfact> 0.14246055E+05</totfact>
</mgrwt>
</event>
<event>
 8    1  0.7756875E-014  0.8196089E+02  0.7818608E-02  0.1323577E+00
         -2   -1    0    0    0  501 -0.00000000000E+00  0.00000000000E+00  0.69830862010E+02  0.69830862056E+02  0.25500000000E-02 0.  1.
          1   -1    0    0  501    0  0.00000000000E+00 -0.00000000000E+00 -0.24049495514E+02  0.24049496042E+02  0.50400000000E-02 0. -1.
        -24    2    1    2    0    0  0.35527136788E-14 -0.17763568394E-14  0.45781366496E+02  0.93880358098E+02  0.81960893836E+02 0.  0.
         66    2    3    3    0    0 -0.25667708567E+02  0.12053506773E+02  0.56753073793E+02  0.63474638017E+02  0.19999994587E+01 0.  0.
         13    1    3    3    0    0  0.25667708567E+02 -0.12053506773E+02 -0.10971707297E+02  0.30405720081E+02  0.10566000000E+00 0. -1.
         13    1    4    4    0    0 -0.17649971932E+01  0.11422452356E+01  0.33447770276E+01  0.39520420886E+01  0.10566000000E+00 0. -1.
        -13    1    4    4    0    0 -0.21704013202E+02  0.98610847510E+01  0.48620423532E+02  0.54150364080E+02  0.10566000000E+00 0.  1.
        -14    1    4    4    0    0 -0.21986981714E+01  0.10501767861E+01  0.47878732337E+01  0.53722318484E+01  0.00000000000E+00 0.  1.
<mgrwt>
<rscale>  0 0.81960894E+02</rscale>
<asrwt>0</asrwt>
<pdfrwt beam="1">  1        1 0.36999225E-02 0.81960894E+02</pdfrwt>
<pdfrwt beam="2">  1       -2 0.10743209E-01 0.81960894E+02</pdfrwt>
<totfact> 0.10810720E+05</totfact>
</mgrwt>
</event>
<event>
 8    1  0.7756875E-014  0.8724386E+02  0.7818608E-02  0.1309667E+00
          1   -1    0    0  501    0  0.00000000000E+00  0.00000000000E+00  0.48520180762E+02  0.48520181024E+02  0.50400000000E-02 0. -1.
         -2   -1    0    0    0  501 -0.00000000000E+00 -0.00000000000E+00 -0.39218174588E+02  0.39218174671E+02  0.25500000000E-02 0.  1.
        -24    2    1    2    0    0  0.00000000000E+00  0.00000000000E+00  0.93020061739E+01  0.87738355695E+02  0.87243863631E+02 0.  0.
         66    2    3    3    0    0 -0.60564530517E+00  0.17654752851E+02 -0.35432371828E+02  0.39642276398E+02  0.20000000425E+01 0.  0.
         13    1    3    3    0    0  0.60564530517E+00 -0.17654752851E+02  0.44734378002E+02  0.48096079297E+02  0.10566000000E+00 0. -1.
         13    1    4    4    0    0 -0.47151360589E+00  0.24480898914E+01 -0.42419440078E+01  0.49214552927E+01  0.10566000000E+00 0. -1.
        -13    1    4    4    0    0 -0.51080557680E-01  0.12753355408E+02 -0.25102998273E+02  0.28157101586E+02  0.10566000000E+00 0.  1.
         14    1    4    4    0    0 -0.83051141605E-01  0.24533075519E+01 -0.60874295472E+01  0.65637195193E+01  0.00000000000E+00 0. -1.
<mgrwt>
<rscale>  0 0.87243864E+02</rscale>
<asrwt>0</asrwt>
<pdfrwt beam="1">  1        1 0.74646432E-02 0.87243864E+02</pdfrwt>
<pdfrwt beam="2">  1       -2 0.60335654E-02 0.87243864E+02</pdfrwt>
<totfact> 0.10266336E+05</totfact>
</mgrwt>
</event>
<event>
 8    1  0.7756875E-014  0.8262295E+02  0.7818608E-02  0.1321768E+00
          1   -1    0    0  501    0  0.00000000000E+00  0.00000000000E+00  0.47128123546E+02  0.47128123815E+02  0.50400000000E-02 0. -1.
         -2   -1    0    0    0  501 -0.00000000000E+00 -0.00000000000E+00 -0.36212732594E+02  0.36212732684E+02  0.25500000000E-02 0.  1.
        -24    2    1    2    0    0  0.00000000000E+00  0.35527136788E-14  0.10915390952E+02  0.83340856499E+02  0.82622954452E+02 0.  0.
         66    2    3    3    0    0  0.24142457668E+02  0.27143279296E+02 -0.14331464879E+02  0.39102516040E+02  0.20000004849E+01 0.  0.
         13    1    3    3    0    0 -0.24142457668E+02 -0.27143279296E+02  0.25246855831E+02  0.44238340459E+02  0.10566000000E+00 0. -1.
         13    1    4    4    0    0  0.26613662990E+01  0.25608294599E+01 -0.14264265144E+01  0.39606280735E+01  0.10566000000E+00 0. -1.
        -13    1    4    4    0    0  0.18326110211E+02  0.20247581349E+02 -0.10383582494E+02  0.29217132224E+02  0.10566000000E+00 0.  1.
         14    1    4    4    0    0  0.31549811576E+01  0.43348684867E+01 -0.25214558708E+01  0.59247557427E+01  0.00000000000E+00 0. -1.
<mgrwt>
<rscale>  0 0.82622954E+02</rscale>
<asrwt>0</asrwt>
<pdfrwt beam="1">  1        1 0.72504805E-02 0.82622954E+02</pdfrwt>
<pdfrwt beam="2">  1       -2 0.55711897E-02 0.82622954E+02</pdfrwt>
<totfact> 0.11909757E+05</totfact>
</mgrwt>
</event>
<event>
 8    1  0.7756875E-014  0.7965037E+02  0.7818608E-02  0.1330047E+00
         -2   -1    0    0    0  501 -0.00000000000E+00  0.00000000000E+00  0.25260743481E+02  0.25260743609E+02  0.25500000000E-02 0.  1.
          1   -1    0    0  501    0  0.00000000000E+00 -0.00000000000E+00 -0.62786963960E+02  0.62786964162E+02  0.50400000000E-02 0. -1.
        -24    2    1    2    0    0 -0.17763568394E-14  0.00000000000E+00 -0.37526220479E+02  0.88047707771E+02  0.79650371125E+02 0.  0.
         66    2    3    3    0    0  0.14936236826E+02  0.34308324016E+02 -0.37847166560E+01  0.37662665233E+02  0.20000012450E+01 0.  0.
         13    1    3    3    0    0 -0.14936236826E+02 -0.34308324016E+02 -0.33741503823E+02  0.50385042538E+02  0.10566000000E+00 0. -1.
         13    1    4    4    0    0  0.50995791324E+01  0.10000581856E+02 -0.15163541482E+01  0.11328187795E+02  0.10566000000E+00 0. -1.
        -13    1    4    4    0    0  0.28510292750E+01  0.61067374591E+01 -0.67062849492E+00  0.67735896639E+01  0.10566000000E+00 0.  1.
         14    1    4    4    0    0  0.69856284184E+01  0.18201004701E+02 -0.15977340129E+01  0.19560887774E+02  0.00000000000E+00 0. -1.
<mgrwt>
<rscale>  0 0.79650371E+02</rscale>
<asrwt>0</asrwt>
<pdfrwt beam="1">  1        1 0.96595329E-02 0.79650371E+02</pdfrwt>
<pdfrwt beam="2">  1       -2 0.38862683E-02 0.79650371E+02</pdfrwt>
<totfact> 0.13800329E+05</totfact>
</mgrwt>
</event>
<event>
 8    1  0.7756875E-014  0.8272027E+02  0.7818608E-02  0.1321504E+00
         -2   -1    0    0    0  501 -0.00000000000E+00  0.00000000000E+00  0.11984584386E+02  0.11984584657E+02  0.25500000000E-02 0.  1.
          1   -1    0    0  501    0  0.00000000000E+00 -0.00000000000E+00 -0.14273842954E+03  0.14273842963E+03  0.50400000000E-02 0. -1.
        -24    2    1    2    0    0  0.17763568394E-14  0.00000000000E+00 -0.13075384516E+03  0.15472301429E+03  0.82720270354E+02 0.  0.
         66    2    3    3    0    0 -0.11530668638E+02  0.39461322312E+02 -0.73460846442E+02  0.84205986958E+02  0.20000004533E+01 0.  0.
         13    1    3    3    0    0  0.11530668638E+02 -0.39461322312E+02 -0.57292998715E+02  0.70517027331E+02  0.10566000000E+00 0. -1.
         13    1    4    4    0    0 -0.28320748911E+01  0.99001000315E+01 -0.19764453670E+02  0.22286260829E+02  0.10566000000E+00 0. -1.
        -13    1    4    4    0    0 -0.29171096868E+00  0.18507154588E+01 -0.32695065809E+01  0.37697586550E+01  0.10566000000E+00 0.  1.
         14    1    4    4    0    0 -0.84068827783E+01  0.27710506821E+02 -0.50426886191E+02  0.58149967474E+02  0.00000000000E+00 0. -1.
<mgrwt>
<rscale>  0 0.82720270E+02</rscale>
<asrwt>0</asrwt>
<pdfrwt beam="1">  1        1 0.21959757E-01 0.82720270E+02</pdfrwt>
<pdfrwt beam="2">  1       -2 0.18437823E-02 0.82720270E+02</pdfrwt>
<totfact> 0.14303897E+05</totfact>
</mgrwt>
</event>
<event>
 8    1  0.7756875E-014  0.7998333E+02  0.7818608E-02  0.1329099E+00
          1   -1    0    0  501    0  0.00000000000E+00  0.00000000000E+00  0.17578614859E+02  0.17578615581E+02  0.50400000000E-02 0. -1.
         -2   -1    0    0    0  501 -0.00000000000E+00 -0.00000000000E+00 -0.90981761950E+02  0.90981761986E+02  0.25500000000E-02 0.  1.
        -24    2    1    2    0    0  0.35527136788E-14  0.00000000000E+00 -0.73403147091E+02  0.10856037757E+03  0.79983333105E+02 0.  0.
         66    2    3    3    0    0  0.29483200356E+02  0.41508809320E+01 -0.72911878181E+02  0.78782173710E+02  0.19999997072E+01 0.  0.
         13    1    3    3    0    0 -0.29483200356E+02 -0.41508809320E+01 -0.49126891007E+00  0.29778203857E+02  0.10566000000E+00 0. -1.
         13    1    4    4    0    0  0.63139289415E+01  0.15808629226E+01 -0.16677346693E+02  0.17902789811E+02  0.10566000000E+00 0. -1.
        -13    1    4    4    0    0  0.91922025033E+01  0.11795776128E+01 -0.21528622164E+02  0.23438872125E+02  0.10566000000E+00 0.  1.
        -14    1    4    4    0    0  0.13977068911E+02  0.13904403966E+01 -0.34705909324E+02  0.37440511774E+02  0.00000000000E+00 0.  1.
<mgrwt>
<rscale>  0 0.79983333E+02</rscale>
<asrwt>0</asrwt>
<pdfrwt beam="1">  1        1 0.27044024E-02 0.79983333E+02</pdfrwt>
<pdfrwt beam="2">  1       -2 0.13997194E-01 0.79983333E+02</pdfrwt>
<totfact> 0.10863118E+05</totfact>
</mgrwt>
</event>
<event>
 8    1  0.7756875E-014  0.7691021E+02  0.7818608E-02  0.1338056E+00
          1   -1    0    0  501    0  0.00000000000E+00  0.00000000000E+00  0.19268833527E+03  0.19268833534E+03  0.50400000000E-02 0. -1.
         -2   -1    0    0    0  501 -0.00000000000E+00 -0.00000000000E+00 -0.76745440677E+01  0.76745444914E+01  0.25500000000E-02 0.  1.
        -24    2    1    2    0    0  0.00000000000E+00  0.00000000000E+00  0.18501379120E+03  0.20036287983E+03  0.76910211791E+02 0.  0.
         66    2    3    3    0    0 -0.28308274948E+02 -0.25803771869E+02  0.10063986415E+03  0.10770132468E+03  0.20000018040E+01 0.  0.
         13    1    3    3    0    0  0.28308274948E+02  0.25803771869E+02  0.84373927048E+02  0.92661555149E+02  0.10566000000E+00 0. -1.
         13    1    4    4    0    0 -0.16601788703E+01 -0.11962244131E+01  0.63262750293E+01  0.66498170283E+01  0.10566000000E+00 0. -1.
        -13    1    4    4    0    0 -0.19690983434E+02 -0.18035073677E+02  0.68447160522E+02  0.73471243754E+02  0.10566000000E+00 0.  1.
        -14    1    4    4    0    0 -0.69571126436E+01 -0.65724737787E+01  0.25866428603E+02  0.27580263896E+02  0.00000000000E+00 0.  1.
<mgrwt>
<rscale>  0 0.76910212E+02</rscale>
<asrwt>0</asrwt>
<pdfrwt beam="1">  1        1 0.29644356E-01 0.76910212E+02</pdfrwt>
<pdfrwt beam="2">  1       -2 0.11806992E-02 0.76910212E+02</pdfrwt>
<totfact> 0.18376176E+05</totfact>
</mgrwt>
</event>
<event>
 8    1  0.7756875E-014  0.7407809E+02  0.7818608E-02  0.1346750E+00
          1   -1    0    0  501    0  0.00000000000E+00  0.00000000000E+00  0.19594046689E+03  0.19594046696E+03  0.50400000000E-02 0. -1.
         -2   -1    0    0    0  501 -0.00000000000E+00 -0.00000000000E+00 -0.70015704123E+01  0.70015708766E+01  0.25500000000E-02 0.  1.
        -24    2    1    2    0    0  0.88817841970E-15  0.00000000000E+00  0.18893889648E+03  0.20294203783E+03  0.74078094718E+02 0.  0.
         66    2    3    3    0    0  0.43411747263E+01  0.34267169938E+02  0.58110974370E+02  0.67631132504E+02  0.20000019924E+01 0.  0.
         13    1    3    3    0    0 -0.43411747263E+01 -0.34267169938E+02  0.13082792211E+03  0.13531090533E+03  0.10566000000E+00 0. -1.
         13    1    4    4    0    0  0.14822724635E+00  0.44828453124E+00  0.90435148075E+00  0.10256441751E+01  0.10566000000E+00 0. -1.
        -13    1    4    4    0    0  0.20078608199E+01  0.10427988165E+02  0.17903258670E+02  0.20816154238E+02  0.10566000000E+00 0.  1.
        -14    1    4    4    0    0  0.21850866600E+01  0.23390897241E+02  0.39303364220E+02  0.45789334090E+02  0.00000000000E+00 0.  1.
<mgrwt>
<rscale>  0 0.74078095E+02</rscale>
<asrwt>0</asrwt>
<pdfrwt beam="1">  1        1 0.30144682E-01 0.74078095E+02</pdfrwt>
<pdfrwt beam="2">  1       -2 0.10771649E-02 0.74078095E+02</pdfrwt>
<totfact> 0.20352256E+05</totfact>
</mgrwt>
</event>
<event>
 8    1  0.7756875E-014  0.8046756E+02  0.7818608E-02  0.1327730E+00
          1   -1    0    0  501    0  0.00000000000E+00  0.00000000000E+00  0.32311623018E+03  0.32311623022E+03  0.50400000000E-02 0. -1.
         -2   -1    0    0    0  501 -0.00000000000E+00 -0.00000000000E+00 -0.50098292219E+01  0.50098298709E+01  0.25500000000E-02 0.  1.
        -24    2    1    2    0    0  0.00000000000E+00  0.17763568394E-14  0.31810640096E+03  0.32812606009E+03  0.80467564769E+02 0.  0.
         66    2    3    3    0    0  0.38741586428E+02  0.10685778344E+02  0.16439850219E+03  0.16925118579E+03  0.19999973759E+01 0.  0.
         13    1    3    3    0    0 -0.38741586428E+02 -0.10685778344E+02  0.15370789877E+03  0.15887487430E+03  0.10566000000E+00 0. -1.
         13    1    4    4    0    0  0.13787413068E+02  0.32061400879E+01  0.55641302884E+02  0.57413742641E+02  0.10566000000E+00 0. -1.
        -13    1    4    4    0    0  0.12001179569E+02  0.39747705280E+01  0.53900123345E+02  0.55362998225E+02  0.10566000000E+00 0.  1.
        -14    1    4    4    0    0  0.12952993791E+02  0.35048677279E+01  0.54857075963E+02  0.56474444921E+02  0.00000000000E+00 0.  1.
<mgrwt>
<rscale>  0 0.80467565E+02</rscale>
<asrwt>0</asrwt>
<pdfrwt beam="1">  1        1 0.49710204E-01 0.80467565E+02</pdfrwt>
<pdfrwt beam="2">  1       -2 0.77074278E-03 0.80467565E+02</pdfrwt>
<totfact> 0.18016473E+05</totfact>
</mgrwt>
</event>
<event>
 8    1  0.7756875E-014  0.7907209E+02  0.7818608E-02  0.1331706E+00
         -2   -1    0    0    0  501 -0.00000000000E+00  0.00000000000E+00  0.37369640870E+02  0.37369640957E+02  0.25500000000E-02 0.  1.
          1   -1    0    0  501    0  0.00000000000E+00 -0.00000000000E+00 -0.41828042397E+02  0.41828042700E+02  0.50400000000E-02 0. -1.
        -24    2    1    2    0    0  0.71054273576E-14  0.35527136788E-14 -0.44584015272E+01  0.79197683657E+02  0.79072092121E+02 0.  0.
         66    2    3    3    0    0 -0.25880728738E+02 -0.28554563576E+02 -0.10957600023E+02  0.40115386307E+02  0.19999998207E+01 0.  0.
         13    1    3    3    0    0  0.25880728738E+02  0.28554563576E+02  0.64991984958E+01  0.39082297350E+02  0.10566000000E+00 0. -1.
         13    1    4    4    0    0 -0.13197452542E+01 -0.11137617915E+01 -0.54035504626E+00  0.18125508202E+01  0.10566000000E+00 0. -1.
        -13    1    4    4    0    0 -0.61002465872E+00 -0.93604437423E+00 -0.49962594508E+00  0.12284540184E+01  0.10566000000E+00 0.  1.
        -14    1    4    4    0    0 -0.23950958825E+02 -0.26504757410E+02 -0.99176190316E+01  0.37074381468E+02  0.00000000000E+00 0.  1.
<mgrwt>
<rscale>  0 0.79072092E+02</rscale>
<asrwt>0</asrwt>
<pdfrwt beam="1">  1        1 0.64350835E-02 0.79072092E+02</pdfrwt>
<pdfrwt beam="2">  1       -2 0.57491756E-02 0.79072092E+02</pdfrwt>
<totfact> 0.13215251E+05</totfact>
</mgrwt>
</event>
<event>
 8    1  0.7756875E-014  0.7889480E+02  0.7818608E-02  0.1332217E+00
          1   -1    0    0  501    0  0.00000000000E+00  0.00000000000E+00  0.14964468420E+02  0.14964469269E+02  0.50400000000E-02 0. -1.
         -2   -1    0    0    0  501 -0.00000000000E+00 -0.00000000000E+00 -0.10398612879E+03  0.10398612882E+03  0.25500000000E-02 0.  1.
        -24    2    1    2    0    0  0.00000000000E+00  0.00000000000E+00 -0.89021660365E+02  0.11895059809E+03  0.78894795587E+02 0.  0.
         66    2    3    3    0    0 -0.29982377170E+02 -0.17890860999E+02 -0.72137742638E+02  0.80167822400E+02  0.19999968383E+01 0.  0.
         13    1    3    3    0    0  0.29982377170E+02  0.17890860999E+02 -0.16883917727E+02  0.38782775686E+02  0.10566000000E+00 0. -1.
         13    1    4    4    0    0 -0.85787201279E+01 -0.51473048833E+01 -0.19105303908E+02  0.21566478341E+02  0.10566000000E+00 0. -1.
        -13    1    4    4    0    0 -0.13563115920E+02 -0.76721193541E+01 -0.32249427779E+02  0.35816983192E+02  0.10566000000E+00 0.  1.
         14    1    4    4    0    0 -0.78405411216E+01 -0.50714367619E+01 -0.20783010951E+02  0.22784360867E+02  0.00000000000E+00 0. -1.
<mgrwt>
<rscale>  0 0.78894796E+02</rscale>
<asrwt>0</asrwt>
<pdfrwt beam="1">  1        1 0.23022261E-02 0.78894796E+02</pdfrwt>
<pdfrwt beam="2">  1       -2 0.15997865E-01 0.78894796E+02</pdfrwt>
<totfact> 0.10890056E+05</totfact>
</mgrwt>
</event>
<event>
 8    1  0.7756875E-014  0.8090065E+02  0.7818608E-02  0.1326515E+00
          1   -1    0    0  501    0  0.00000000000E+00  0.00000000000E+00  0.59869431650E+02  0.59869431862E+02  0.50400000000E-02 0. -1.
         -2   -1    0    0    0  501 -0.00000000000E+00 -0.00000000000E+00 -0.27329954084E+02  0.27329954203E+02  0.25500000000E-02 0.  1.
        -24    2    1    2    0    0 -0.35527136788E-14 -0.17763568394E-14  0.32539477566E+02  0.87199386065E+02  0.80900650986E+02 0.  0.
         66    2    3    3    0    0 -0.25759933396E+02 -0.12638062290E+02 -0.14414300539E+02  0.32172454210E+02  0.19999907182E+01 0.  0.
         13    1    3    3    0    0  0.25759933396E+02  0.12638062290E+02  0.46953778105E+02  0.55026931855E+02  0.10566000000E+00 0. -1.
         13    1    4    4    0    0 -0.34977219471E+01 -0.14553057490E+01 -0.15802646090E+01  0.41061385646E+01  0.10566000000E+00 0. -1.
        -13    1    4    4    0    0 -0.13587363431E+02 -0.75785485088E+01 -0.83444938389E+01  0.17654817585E+02  0.10566000000E+00 0.  1.
        -14    1    4    4    0    0 -0.86748480176E+01 -0.36042080321E+01 -0.44895420912E+01  0.10411498060E+02  0.00000000000E+00 0.  1.
<mgrwt>
<rscale>  0 0.80900651E+02</rscale>
<asrwt>0</asrwt>
<pdfrwt beam="1">  1        1 0.92106817E-02 0.80900651E+02</pdfrwt>
<pdfrwt beam="2">  1       -2 0.42046084E-02 0.80900651E+02</pdfrwt>
<totfact> 0.13122190E+05</totfact>
</mgrwt>
</event>
<event>
 8    1  0.7827959E-014  0.7195839E+02  0.7818608E-02  0.1353557E+00
         -2   -1    0    0    0  501 -0.00000000000E+00  0.00000000000E+00  0.76740368612E+02  0.76740368654E+02  0.25500000000E-02 0.  1.
          1   -1    0    0  501    0  0.00000000000E+00 -0.00000000000E+00 -0.16868595970E+02  0.16868596723E+02  0.50400000000E-02 0. -1.
        -24    2    1    2    0    0  0.00000000000E+00  0.35527136788E-14  0.59871772642E+02  0.93608965377E+02  0.71958385472E+02 0.  0.
         66    2    3    3    0    0 -0.18858312898E+01  0.25526673759E+02  0.62800088206E+02  0.67845548894E+02  0.19999982804E+01 0.  0.
         13    1    3    3    0    0  0.18858312898E+01 -0.25526673759E+02 -0.29283155645E+01  0.25763416484E+02  0.10566000000E+00 0. -1.
         13    1    4    4    0    0 -0.46058084588E+00  0.93510371744E+01  0.22459905081E+02  0.24333362514E+02  0.10566000000E+00 0. -1.
        -13    1    4    4    0    0 -0.13714605766E+01  0.16158469247E+02  0.39919879369E+02  0.43088107007E+02  0.10566000000E+00 0.  1.
         14    1    4    4    0    0 -0.53789867364E-01  0.17167337212E-01  0.42030375610E+00  0.42407937310E+00  0.00000000000E+00 0. -1.
<mgrwt>
<rscale>  0 0.71958385E+02</rscale>
<asrwt>0</asrwt>
<pdfrwt beam="1">  1        1 0.25951687E-02 0.71958385E+02</pdfrwt>
<pdfrwt beam="2">  1       -2 0.11806210E-01 0.71958385E+02</pdfrwt>
<totfact> 0.14755428E+05</totfact>
</mgrwt>
</event>
<event>
 8    1  0.7756875E-014  0.7907175E+02  0.7818608E-02  0.1331707E+00
          1   -1    0    0  501    0  0.00000000000E+00  0.00000000000E+00  0.29947962899E+03  0.29947962903E+03  0.50400000000E-02 0. -1.
         -2   -1    0    0    0  501 -0.00000000000E+00 -0.00000000000E+00 -0.52193374677E+01  0.52193380906E+01  0.25500000000E-02 0.  1.
        -24    2    1    2    0    0  0.71054273576E-14  0.44408920985E-15  0.29426029152E+03  0.30469896712E+03  0.79071748425E+02 0.  0.
         66    2    3    3    0    0 -0.39334476317E+02  0.24713901823E+01  0.15796650443E+03  0.16282114518E+03  0.19999994568E+01 0.  0.
         13    1    3    3    0    0  0.39334476317E+02 -0.24713901823E+01  0.13629378709E+03  0.14187782194E+03  0.10566000000E+00 0. -1.
         13    1    4    4    0    0 -0.34898520786E+02  0.26760213565E+01  0.14049995798E+03  0.14479405098E+03  0.10566000000E+00 0. -1.
        -13    1    4    4    0    0 -0.23506717305E+01 -0.18357423748E-01  0.99465027144E+01  0.10221060359E+02  0.10566000000E+00 0.  1.
         14    1    4    4    0    0 -0.20852838006E+01 -0.18627375042E+00  0.75200437377E+01  0.78060338365E+01  0.00000000000E+00 0. -1.
<mgrwt>
<rscale>  0 0.79071748E+02</rscale>
<asrwt>0</asrwt>
<pdfrwt beam="1">  1        1 0.46073816E-01 0.79071748E+02</pdfrwt>
<pdfrwt beam="2">  1       -2 0.80297457E-03 0.79071748E+02</pdfrwt>
<totfact> 0.18598876E+05</totfact>
</mgrwt>
</event>
<event>
 8    1  0.7756875E-014  0.7869242E+02  0.7818608E-02  0.1332804E+00
         -2   -1    0    0    0  501 -0.00000000000E+00  0.00000000000E+00  0.34471844751E+02  0.34471844845E+02  0.25500000000E-02 0.  1.
          1   -1    0    0  501    0  0.00000000000E+00 -0.00000000000E+00 -0.44909819932E+02  0.44909820215E+02  0.50400000000E-02 0. -1.
        -24    2    1    2    0    0  0.00000000000E+00  0.00000000000E+00 -0.10437975181E+02  0.79381665060E+02  0.78692422900E+02 0.  0.
         66    2    3    3    0    0 -0.33642757609E+02 -0.18645325663E+02 -0.13456941778E+02  0.40799173799E+02  0.19999980100E+01 0.  0.
         13    1    3    3    0    0  0.33642757609E+02  0.18645325663E+02  0.30189665971E+01  0.38582491261E+02  0.10566000000E+00 0. -1.
         13    1    4    4    0    0 -0.24529216126E+02 -0.14139847335E+02 -0.99803039833E+01  0.30020582240E+02  0.10566000000E+00 0. -1.
        -13    1    4    4    0    0 -0.52804251550E+01 -0.30525958012E+01 -0.19493164220E+01  0.64040791291E+01  0.10566000000E+00 0.  1.
         14    1    4    4    0    0 -0.38331163274E+01 -0.14528825269E+01 -0.15273213732E+01  0.43745124292E+01  0.00000000000E+00 0. -1.
<mgrwt>
<rscale>  0 0.78692423E+02</rscale>
<asrwt>0</asrwt>
<pdfrwt beam="1">  1        1 0.69092031E-02 0.78692423E+02</pdfrwt>
<pdfrwt beam="2">  1       -2 0.53033607E-02 0.78692423E+02</pdfrwt>
<totfact> 0.13545243E+05</totfact>
</mgrwt>
</event>
<event>
 8    1  0.7756875E-014  0.7269218E+02  0.7818608E-02  0.1351170E+00
          1   -1    0    0  501    0  0.00000000000E+00  0.00000000000E+00  0.89488111691E+02  0.89488111833E+02  0.50400000000E-02 0. -1.
         -2   -1    0    0    0  501 -0.00000000000E+00 -0.00000000000E+00 -0.14762165263E+02  0.14762165483E+02  0.25500000000E-02 0.  1.
        -24    2    1    2    0    0  0.00000000000E+00  0.00000000000E+00  0.74725946428E+02  0.10425027732E+03  0.72692181498E+02 0.  0.
         66    2    3    3    0    0 -0.20382280440E+02 -0.10180681130E+02 -0.31709664129E+01  0.23089795440E+02  0.20000003123E+01 0.  0.
         13    1    3    3    0    0  0.20382280440E+02  0.10180681130E+02  0.77896912841E+02  0.81160481876E+02  0.10566000000E+00 0. -1.
         13    1    4    4    0    0 -0.11815222064E+02 -0.65995306659E+01 -0.20386445549E+01  0.13686508433E+02  0.10566000000E+00 0. -1.
        -13    1    4    4    0    0 -0.11346995545E+01 -0.80472288418E+00 -0.28766662133E+00  0.14244430912E+01  0.10566000000E+00 0.  1.
        -14    1    4    4    0    0 -0.74323588218E+01 -0.27764275799E+01 -0.84465523665E+00  0.79788439157E+01  0.00000000000E+00 0.  1.
<mgrwt>
<rscale>  0 0.72692181E+02</rscale>
<asrwt>0</asrwt>
<pdfrwt beam="1">  1        1 0.13767401E-01 0.72692181E+02</pdfrwt>
<pdfrwt beam="2">  1       -2 0.22711024E-02 0.72692181E+02</pdfrwt>
<totfact> 0.18676761E+05</totfact>
</mgrwt>
</event>
<event>
 8    1  0.7756875E-014  0.7768416E+02  0.7818608E-02  0.1335755E+00
         -2   -1    0    0    0  501 -0.00000000000E+00  0.00000000000E+00  0.29156031821E+03  0.29156031822E+03  0.25500000000E-02 0.  1.
          1   -1    0    0  501    0  0.00000000000E+00 -0.00000000000E+00 -0.51745959049E+01  0.51745983594E+01  0.50400000000E-02 0. -1.
        -24    2    1    2    0    0  0.69388939039E-17  0.35527136788E-14  0.28638572230E+03  0.29673491658E+03  0.77684160405E+02 0.  0.
         66    2    3    3    0    0 -0.12975929473E-01  0.23140419475E+02  0.26232826293E+03  0.26335450769E+03  0.20000022737E+01 0.  0.
         13    1    3    3    0    0  0.12975929473E-01 -0.23140419475E+02  0.24057459377E+02  0.33380408888E+02  0.10566000000E+00 0. -1.
         13    1    4    4    0    0  0.61789154597E+00  0.37569443775E+01  0.46332744621E+02  0.46489039667E+02  0.10566000000E+00 0. -1.
        -13    1    4    4    0    0 -0.21711378293E+00  0.35604060183E+01  0.42251203536E+02  0.42401639045E+02  0.10566000000E+00 0.  1.
         14    1    4    4    0    0 -0.41375369252E+00  0.15823069079E+02  0.17374431477E+03  0.17446382898E+03  0.00000000000E+00 0. -1.
<mgrwt>
<rscale>  0 0.77684160E+02</rscale>
<asrwt>0</asrwt>
<pdfrwt beam="1">  1        1 0.79609178E-03 0.77684160E+02</pdfrwt>
<pdfrwt beam="2">  1       -2 0.44855438E-01 0.77684160E+02</pdfrwt>
<totfact> 0.76977649E+04</totfact>
</mgrwt>
</event>
<event>
 8    1  0.7756875E-014  0.7841504E+02  0.7818608E-02  0.1333610E+00
          1   -1    0    0  501    0  0.00000000000E+00  0.00000000000E+00  0.16779068210E+03  0.16779068218E+03  0.50400000000E-02 0. -1.
         -2   -1    0    0    0  501 -0.00000000000E+00 -0.00000000000E+00 -0.91615914607E+01  0.91615918156E+01  0.25500000000E-02 0.  1.
        -24    2    1    2    0    0  0.00000000000E+00  0.00000000000E+00  0.15862909064E+03  0.17695227399E+03  0.78415042394E+02 0.  0.
         66    2    3    3    0    0  0.33937509615E+02  0.12158115105E+02  0.44724958085E+02  0.57479528569E+02  0.20000017597E+01 0.  0.
         13    1    3    3    0    0 -0.33937509615E+02 -0.12158115105E+02  0.11390413256E+03  0.11947274542E+03  0.10566000000E+00 0. -1.
         13    1    4    4    0    0  0.20120458121E+01  0.58927712730E+00  0.23705974684E+01  0.31664605280E+01  0.10566000000E+00 0. -1.
        -13    1    4    4    0    0  0.10340587092E+02  0.32039835015E+01  0.12534606751E+02  0.16562632101E+02  0.10566000000E+00 0.  1.
        -14    1    4    4    0    0  0.21584876711E+02  0.83648544763E+01  0.29819753866E+02  0.37750435940E+02  0.00000000000E+00 0.  1.
<mgrwt>
<rscale>  0 0.78415042E+02</rscale>
<asrwt>0</asrwt>
<pdfrwt beam="1">  1        1 0.25813948E-01 0.78415042E+02</pdfrwt>
<pdfrwt beam="2">  1       -2 0.14094758E-02 0.78415042E+02</pdfrwt>
<totfact> 0.17004105E+05</totfact>
</mgrwt>
</event>
<event>
 8    1  0.7756875E-014  0.7816665E+02  0.7818608E-02  0.1334336E+00
          1   -1    0    0  501    0  0.00000000000E+00  0.00000000000E+00  0.10003031962E+02  0.10003033232E+02  0.50400000000E-02 0. -1.
         -2   -1    0    0    0  501 -0.00000000000E+00 -0.00000000000E+00 -0.15270431969E+03  0.15270431971E+03  0.25500000000E-02 0.  1.
        -24    2    1    2    0    0  0.00000000000E+00  0.00000000000E+00 -0.14270128772E+03  0.16270735294E+03  0.78166650065E+02 0.  0.
         66    2    3    3    0    0 -0.20621816169E+02 -0.20335186103E+02 -0.12594489914E+03  0.12924742439E+03  0.19999992909E+01 0.  0.
         13    1    3    3    0    0  0.20621816169E+02  0.20335186103E+02 -0.16756388589E+02  0.33459928549E+02  0.10566000000E+00 0. -1.
         13    1    4    4    0    0 -0.17114040920E+00 -0.77074907495E-01 -0.58308405161E+00  0.62159522832E+00  0.10566000000E+00 0.  1.
        -13    1    4    4    0    0 -0.35726013676E+01 -0.35736949367E+01 -0.23003585309E+02  0.23552300889E+02  0.10566000000E+00 0.  1.
         14    1    4    4    0    0 -0.16878074392E+02 -0.16684416259E+02 -0.10235822977E+03  0.10507352827E+03  0.00000000000E+00 0. -1.
<mgrwt>
<rscale>  0 0.78166650E+02</rscale>
<asrwt>0</asrwt>
<pdfrwt beam="1">  1        1 0.15389282E-02 0.78166650E+02</pdfrwt>
<pdfrwt beam="2">  1       -2 0.23492971E-01 0.78166650E+02</pdfrwt>
<totfact> 0.99727136E+04</totfact>
</mgrwt>
</event>
<event>
 8    1  0.7756875E-014  0.8086499E+02  0.7818608E-02  0.1326614E+00
          1   -1    0    0  501    0  0.00000000000E+00  0.00000000000E+00  0.34506566395E+03  0.34506566398E+03  0.50400000000E-02 0. -1.
         -2   -1    0    0    0  501 -0.00000000000E+00 -0.00000000000E+00 -0.47376104646E+01  0.47376111509E+01  0.25500000000E-02 0.  1.
        -24    2    1    2    0    0  0.00000000000E+00  0.00000000000E+00  0.34032805348E+03  0.34980327514E+03  0.80864994329E+02 0.  0.
         66    2    3    3    0    0  0.25607228650E+02  0.30744676959E+02  0.14586783173E+03  0.15126926211E+03  0.20000011648E+01 0.  0.
         13    1    3    3    0    0 -0.25607228650E+02 -0.30744676959E+02  0.19446022175E+03  0.19853401303E+03  0.10566000000E+00 0. -1.
         13    1    4    4    0    0  0.24041697969E+01  0.29732088149E+01  0.15780741123E+02  0.16237701731E+02  0.10566000000E+00 0. -1.
        -13    1    4    4    0    0  0.22983699785E+02  0.27542601876E+02  0.12851003301E+03  0.13342295575E+03  0.10566000000E+00 0.  1.
        -14    1    4    4    0    0  0.21935906753E+00  0.22886626850E+00  0.15770575980E+01  0.16086046241E+01  0.00000000000E+00 0.  1.
<mgrwt>
<rscale>  0 0.80864994E+02</rscale>
<asrwt>0</asrwt>
<pdfrwt beam="1">  1        1 0.53087034E-01 0.80864994E+02</pdfrwt>
<pdfrwt beam="2">  1       -2 0.72886308E-03 0.80864994E+02</pdfrwt>
<totfact> 0.17999310E+05</totfact>
</mgrwt>
</event>
<event>
 8    1  0.7756875E-014  0.8250671E+02  0.7818608E-02  0.1322085E+00
          1   -1    0    0  501    0  0.00000000000E+00  0.00000000000E+00  0.37059578531E+02  0.37059578873E+02  0.50400000000E-02 0. -1.
         -2   -1    0    0    0  501 -0.00000000000E+00 -0.00000000000E+00 -0.45921715431E+02  0.45921715501E+02  0.25500000000E-02 0.  1.
        -24    2    1    2    0    0 -0.17763568394E-14  0.00000000000E+00 -0.88621368999E+01  0.82981294375E+02  0.82506713337E+02 0.  0.
         66    2    3    3    0    0 -0.12798959888E+02 -0.35338318533E+02 -0.21478842093E+02  0.43335329322E+02  0.19999947098E+01 0.  0.
         13    1    3    3    0    0  0.12798959888E+02  0.35338318533E+02  0.12616705193E+02  0.39645965053E+02  0.10566000000E+00 0. -1.
         13    1    4    4    0    0 -0.91948838446E+01 -0.26858523162E+02 -0.16594436360E+02  0.32883318529E+02  0.10566000000E+00 0.  1.
        -13    1    4    4    0    0 -0.34037429148E+01 -0.80123154201E+01 -0.47832776497E+01  0.99334572698E+01  0.10566000000E+00 0. -1.
         14    1    4    4    0    0 -0.20033312898E+00 -0.46747995085E+00 -0.10112808344E+00  0.51855352305E+00  0.00000000000E+00 0. -1.
<mgrwt>
<rscale>  0 0.82506713E+02</rscale>
<asrwt>0</asrwt>
<pdfrwt beam="1">  1        1 0.57014737E-02 0.82506713E+02</pdfrwt>
<pdfrwt beam="2">  1       -2 0.70648793E-02 0.82506713E+02</pdfrwt>
<totfact> 0.11487489E+05</totfact>
</mgrwt>
</event>
<event>
 8    1  0.7756875E-014  0.7739818E+02  0.7818608E-02  0.1336601E+00
          1   -1    0    0  501    0  0.00000000000E+00  0.00000000000E+00  0.28982922055E+02  0.28982922493E+02  0.50400000000E-02 0. -1.
         -2   -1    0    0    0  501 -0.00000000000E+00 -0.00000000000E+00 -0.51672480103E+02  0.51672480166E+02  0.25500000000E-02 0.  1.
        -24    2    1    2    0    0  0.00000000000E+00 -0.88817841970E-15 -0.22689558048E+02  0.80655402659E+02  0.77398177845E+02 0.  0.
         66    2    3    3    0    0 -0.14187536255E+02  0.46023670823E+01 -0.48535119715E+02  0.50814622010E+02  0.19999991250E+01 0.  0.
         13    1    3    3    0    0  0.14187536255E+02 -0.46023670823E+01  0.25845561668E+02  0.29840780649E+02  0.10566000000E+00 0. -1.
         13    1    4    4    0    0 -0.16057521562E+01  0.27991334132E+00 -0.72586368090E+01  0.74401454170E+01  0.10566000000E+00 0. -1.
        -13    1    4    4    0    0 -0.22943789504E+01  0.58435496588E+00 -0.66921677450E+01  0.70994308685E+01  0.10566000000E+00 0.  1.
         14    1    4    4    0    0 -0.10287405149E+02  0.37380987751E+01 -0.34584315162E+02  0.36275045725E+02  0.00000000000E+00 0. -1.
<mgrwt>
<rscale>  0 0.77398178E+02</rscale>
<asrwt>0</asrwt>
<pdfrwt beam="1">  1        1 0.44589112E-02 0.77398178E+02</pdfrwt>
<pdfrwt beam="2">  1       -2 0.79496123E-02 0.77398178E+02</pdfrwt>
<totfact> 0.13217803E+05</totfact>
</mgrwt>
</event>
<event>
 8    1  0.7756875E-014  0.7939397E+02  0.7818608E-02  0.1330780E+00
         -2   -1    0    0    0  501 -0.00000000000E+00  0.00000000000E+00  0.38296998373E+02  0.38296998458E+02  0.25500000000E-02 0.  1.
          1   -1    0    0  501    0  0.00000000000E+00 -0.00000000000E+00 -0.41148146187E+02  0.41148146495E+02  0.50400000000E-02 0. -1.
        -24    2    1    2    0    0  0.00000000000E+00  0.00000000000E+00 -0.28511478138E+01  0.79445144953E+02  0.79393967105E+02 0.  0.
         66    2    3    3    0    0  0.27729619730E+02  0.16597611256E+02  0.21597767985E+02  0.38921409222E+02  0.20000010310E+01 0.  0.
         13    1    3    3    0    0 -0.27729619730E+02 -0.16597611256E+02 -0.24448915799E+02  0.40523735731E+02  0.10566000000E+00 0. -1.
         13    1    4    4    0    0  0.84111223247E+01  0.44654350458E+01  0.72411886812E+01  0.11963823238E+02  0.10566000000E+00 0. -1.
        -13    1    4    4    0    0  0.69960216786E+01  0.44117922250E+01  0.49690694717E+01  0.96494064799E+01  0.10566000000E+00 0.  1.
         14    1    4    4    0    0  0.12322475727E+02  0.77203839854E+01  0.93875098323E+01  0.17308179505E+02  0.00000000000E+00 0. -1.
<mgrwt>
<rscale>  0 0.79393967E+02</rscale>
<asrwt>0</asrwt>
<pdfrwt beam="1">  1        1 0.63304840E-02 0.79393967E+02</pdfrwt>
<pdfrwt beam="2">  1       -2 0.58918460E-02 0.79393967E+02</pdfrwt>
<totfact> 0.13031376E+05</totfact>
</mgrwt>
</event>
<event>
 8    1  0.7756875E-014  0.7931050E+02  0.7818608E-02  0.1331020E+00
          1   -1    0    0  501    0  0.00000000000E+00  0.00000000000E+00  0.21206051876E+02  0.21206052475E+02  0.50400000000E-02 0. -1.
         -2   -1    0    0    0  501 -0.00000000000E+00 -0.00000000000E+00 -0.74155182558E+02  0.74155182602E+02  0.25500000000E-02 0.  1.
        -24    2    1    2    0    0  0.00000000000E+00  0.00000000000E+00 -0.52949130682E+02  0.95361235077E+02  0.79310495619E+02 0.  0.
         66    2    3    3    0    0  0.27585674012E+02 -0.11120250831E+02 -0.57981376965E+02  0.65195624592E+02  0.20000005043E+01 0.  0.
         13    1    3    3    0    0 -0.27585674012E+02  0.11120250831E+02  0.50322462824E+01  0.30165610485E+02  0.10566000000E+00 0. -1.
         13    1    4    4    0    0  0.10515397864E+02 -0.39364439732E+01 -0.23143256204E+02  0.25723348443E+02  0.10566000000E+00 0. -1.
        -13    1    4    4    0    0  0.12084402694E+02 -0.55526380887E+01 -0.25605720818E+02  0.28853573104E+02  0.10566000000E+00 0.  1.
        -14    1    4    4    0    0  0.49858734537E+01 -0.16311687690E+01 -0.92323999430E+01  0.10618703045E+02  0.00000000000E+00 0.  1.
<mgrwt>
<rscale>  0 0.79310496E+02</rscale>
<asrwt>0</asrwt>
<pdfrwt beam="1">  1        1 0.32624696E-02 0.79310496E+02</pdfrwt>
<pdfrwt beam="2">  1       -2 0.11408489E-01 0.79310496E+02</pdfrwt>
<totfact> 0.11609594E+05</totfact>
</mgrwt>
</event>
<event>
 8    1  0.7756875E-014  0.8106850E+02  0.7818608E-02  0.1326046E+00
         -2   -1    0    0    0  501 -0.00000000000E+00  0.00000000000E+00  0.14295967065E+03  0.14295967067E+03  0.25500000000E-02 0.  1.
          1   -1    0    0  501    0  0.00000000000E+00 -0.00000000000E+00 -0.11492929312E+02  0.11492930417E+02  0.50400000000E-02 0. -1.
        -24    2    1    2    0    0  0.00000000000E+00  0.00000000000E+00  0.13146674134E+03  0.15445260109E+03  0.81068501315E+02 0.  0.
         66    2    3    3    0    0  0.72573707142E+01 -0.38782283486E+02  0.83264468771E+02  0.92161308065E+02  0.20000006008E+01 0.  0.
         13    1    3    3    0    0 -0.72573707142E+01  0.38782283486E+02  0.48202272569E+02  0.62291293027E+02  0.10566000000E+00 0. -1.
         13    1    4    4    0    0  0.56721587297E+01 -0.31058285862E+02  0.65440082261E+02  0.72658145006E+02  0.10566000000E+00 0. -1.
        -13    1    4    4    0    0  0.12048455303E+01 -0.65812489143E+01  0.15576319021E+02  0.16952798244E+02  0.10566000000E+00 0.  1.
         14    1    4    4    0    0  0.38036645420E+00 -0.11427487100E+01  0.22480674897E+01  0.25503648155E+01  0.00000000000E+00 0. -1.
<mgrwt>
<rscale>  0 0.81068501E+02</rscale>
<asrwt>0</asrwt>
<pdfrwt beam="1">  1        1 0.17681431E-02 0.81068501E+02</pdfrwt>
<pdfrwt beam="2">  1       -2 0.21993795E-01 0.81068501E+02</pdfrwt>
<totfact> 0.92767759E+04</totfact>
</mgrwt>
</event>
<event>
 8    1  0.7756875E-014  0.7864363E+02  0.7818608E-02  0.1332945E+00
         -2   -1    0    0    0  501 -0.00000000000E+00  0.00000000000E+00  0.12363301363E+02  0.12363301626E+02  0.25500000000E-02 0.  1.
          1   -1    0    0  501    0  0.00000000000E+00 -0.00000000000E+00 -0.12506408993E+03  0.12506409003E+03  0.50400000000E-02 0. -1.
        -24    2    1    2    0    0  0.00000000000E+00  0.00000000000E+00 -0.11270078856E+03  0.13742739166E+03  0.78643628058E+02 0.  0.
         66    2    3    3    0    0  0.22189358335E+02  0.31706232112E+02 -0.44464514923E+02  0.58980894075E+02  0.20000001243E+01 0.  0.
         13    1    3    3    0    0 -0.22189358335E+02 -0.31706232112E+02 -0.68236273642E+02  0.78446497580E+02  0.10566000000E+00 0. -1.
         13    1    4    4    0    0  0.47471505100E+01  0.66240485663E+01 -0.10311717804E+02  0.13143673211E+02  0.10566000000E+00 0. -1.
        -13    1    4    4    0    0  0.12167697526E+02  0.18381317423E+02 -0.24564121556E+02  0.33005043935E+02  0.10566000000E+00 0.  1.
        -14    1    4    4    0    0  0.52745102993E+01  0.67008661222E+01 -0.95886755630E+01  0.12832176929E+02  0.00000000000E+00 0.  1.
<mgrwt>
<rscale>  0 0.78643628E+02</rscale>
<asrwt>0</asrwt>
<pdfrwt beam="1">  1        1 0.19240628E-01 0.78643628E+02</pdfrwt>
<pdfrwt beam="2">  1       -2 0.19020465E-02 0.78643628E+02</pdfrwt>
<totfact> 0.15994259E+05</totfact>
</mgrwt>
</event>
<event>
 8    1  0.7756875E-014  0.7977771E+02  0.7818608E-02  0.1329683E+00
         -2   -1    0    0    0  501 -0.00000000000E+00  0.00000000000E+00  0.42336615422E+03  0.42336615423E+03  0.25500000000E-02 0.  1.
          1   -1    0    0  501    0  0.00000000000E+00 -0.00000000000E+00 -0.37582599903E+01  0.37582633698E+01  0.50400000000E-02 0. -1.
        -24    2    1    2    0    0  0.00000000000E+00  0.00000000000E+00  0.41960789423E+03  0.42712441760E+03  0.79777711224E+02 0.  0.
         66    2    3    3    0    0  0.38234590828E+02 -0.54680179666E+01  0.26275590039E+03  0.26558698450E+03  0.19999974484E+01 0.  0.
         13    1    3    3    0    0 -0.38234590828E+02  0.54680179666E+01  0.15685199385E+03  0.16153743310E+03  0.10566000000E+00 0. -1.
         13    1    4    4    0    0  0.75669067641E+01 -0.13146892090E+01  0.48258211270E+02  0.48865658746E+02  0.10566000000E+00 0. -1.
        -13    1    4    4    0    0  0.22997145124E+02 -0.26656997005E+01  0.16107405877E+03  0.16272934035E+03  0.10566000000E+00 0.  1.
        -14    1    4    4    0    0  0.76705389400E+01 -0.14876290571E+01  0.53423630347E+02  0.53991985398E+02  0.00000000000E+00 0.  1.
<mgrwt>
<rscale>  0 0.79777711E+02</rscale>
<asrwt>0</asrwt>
<pdfrwt beam="1">  1        1 0.57819463E-03 0.79777711E+02</pdfrwt>
<pdfrwt beam="2">  1       -2 0.65133195E-01 0.79777711E+02</pdfrwt>
<totfact> 0.57280323E+04</totfact>
</mgrwt>
</event>
<event>
 8    1  0.7756875E-014  0.8022379E+02  0.7818608E-02  0.1328418E+00
         -2   -1    0    0    0  501 -0.00000000000E+00  0.00000000000E+00  0.37112837403E+01  0.37112846163E+01  0.25500000000E-02 0.  1.
          1   -1    0    0  501    0  0.00000000000E+00 -0.00000000000E+00 -0.43353296704E+03  0.43353296707E+03  0.50400000000E-02 0. -1.
        -24    2    1    2    0    0  0.00000000000E+00  0.71054273576E-14 -0.42982168330E+03  0.43724425169E+03  0.80223788228E+02 0.  0.
         66    2    3    3    0    0 -0.19081377060E+02 -0.35253064956E+02 -0.21348761792E+03  0.21722762380E+03  0.19999991101E+01 0.  0.
         13    1    3    3    0    0  0.19081377060E+02  0.35253064956E+02 -0.21633406538E+03  0.22001662789E+03  0.10566000000E+00 0. -1.
         13    1    4    4    0    0 -0.14692072365E+02 -0.25811596143E+02 -0.15850129920E+03  0.16125994077E+03  0.10566000000E+00 0.  1.
        -13    1    4    4    0    0 -0.42109451105E+01 -0.88802490865E+01 -0.51047571580E+02  0.51985157602E+02  0.10566000000E+00 0. -1.
        -14    1    4    4    0    0 -0.17835958525E+00 -0.56121972728E+00 -0.39387471403E+01  0.39825254248E+01  0.00000000000E+00 0.  1.
<mgrwt>
<rscale>  0 0.80223788E+02</rscale>
<asrwt>0</asrwt>
<pdfrwt beam="1">  1        1 0.66697340E-01 0.80223788E+02</pdfrwt>
<pdfrwt beam="2">  1       -2 0.57096714E-03 0.80223788E+02</pdfrwt>
<totfact> 0.19094501E+05</totfact>
</mgrwt>
</event>
<event>
 8    1  0.7756875E-014  0.7960590E+02  0.7818608E-02  0.1330174E+00
         -2   -1    0    0    0  501 -0.00000000000E+00  0.00000000000E+00  0.18925875215E+02  0.18925875386E+02  0.25500000000E-02 0.  1.
          1   -1    0    0  501    0  0.00000000000E+00 -0.00000000000E+00 -0.83709467733E+02  0.83709467885E+02  0.50400000000E-02 0. -1.
        -24    2    1    2    0    0  0.00000000000E+00  0.00000000000E+00 -0.64783592518E+02  0.10263534327E+03  0.79605903228E+02 0.  0.
         66    2    3    3    0    0  0.32394805929E+02  0.72439420895E+01 -0.41542486306E+01  0.33513518552E+02  0.19999989816E+01 0.  0.
         13    1    3    3    0    0 -0.32394805929E+02 -0.72439420895E+01 -0.60629343888E+02  0.69121824719E+02  0.10566000000E+00 0. -1.
         13    1    4    4    0    0  0.66268493279E+00  0.19933843356E+00 -0.19055518146E+00  0.72550840383E+00  0.10566000000E+00 0.  1.
        -13    1    4    4    0    0  0.27213397263E+02  0.60566654904E+01 -0.28089784165E+01  0.28020594413E+02  0.10566000000E+00 0.  1.
        -14    1    4    4    0    0  0.45187237327E+01  0.98793816556E+00 -0.11547150326E+01  0.47674157358E+01  0.00000000000E+00 0.  1.
<mgrwt>
<rscale>  0 0.79605903E+02</rscale>
<asrwt>0</asrwt>
<pdfrwt beam="1">  1        1 0.12878379E-01 0.79605903E+02</pdfrwt>
<pdfrwt beam="2">  1       -2 0.29116732E-02 0.79605903E+02</pdfrwt>
<totfact> 0.14466547E+05</totfact>
</mgrwt>
</event>
<event>
 8    1  0.7756875E-014  0.8009492E+02  0.7818608E-02  0.1328782E+00
          1   -1    0    0  501    0  0.00000000000E+00  0.00000000000E+00  0.47366219102E+02  0.47366219370E+02  0.50400000000E-02 0. -1.
         -2   -1    0    0    0  501 -0.00000000000E+00 -0.00000000000E+00 -0.33859551068E+02  0.33859551164E+02  0.25500000000E-02 0.  1.
        -24    2    1    2    0    0  0.00000000000E+00  0.00000000000E+00  0.13506668034E+02  0.81225770534E+02  0.80094916926E+02 0.  0.
         66    2    3    3    0    0  0.36446144423E+02  0.62092486132E+01 -0.87858947266E+01  0.38053490884E+02  0.20000026798E+01 0.  0.
         13    1    3    3    0    0 -0.36446144423E+02 -0.62092486132E+01  0.22292562761E+02  0.43172279649E+02  0.10566000000E+00 0. -1.
         13    1    4    4    0    0  0.12062742527E+02  0.23831271505E+01 -0.29565459302E+01  0.12646793276E+02  0.10566000000E+00 0. -1.
        -13    1    4    4    0    0  0.20834490646E+02  0.35245515722E+01 -0.44973035530E+01  0.21604059052E+02  0.10566000000E+00 0.  1.
         14    1    4    4    0    0  0.35489112498E+01  0.30156989049E+00 -0.13320452434E+01  0.38026385561E+01  0.00000000000E+00 0. -1.
<mgrwt>
<rscale>  0 0.80094917E+02</rscale>
<asrwt>0</asrwt>
<pdfrwt beam="1">  1        1 0.72871106E-02 0.80094917E+02</pdfrwt>
<pdfrwt beam="2">  1       -2 0.52091618E-02 0.80094917E+02</pdfrwt>
<totfact> 0.13002293E+05</totfact>
</mgrwt>
</event>
<event>
 8    1  0.7756875E-014  0.7891436E+02  0.7818608E-02  0.1332161E+00
         -2   -1    0    0    0  501 -0.00000000000E+00  0.00000000000E+00  0.94444642571E+02  0.94444642605E+02  0.25500000000E-02 0.  1.
          1   -1    0    0  501    0  0.00000000000E+00 -0.00000000000E+00 -0.16484462671E+02  0.16484463442E+02  0.50400000000E-02 0. -1.
        -24    2    1    2    0    0  0.35527136788E-14  0.35527136788E-14  0.77960179900E+02  0.11092910605E+03  0.78914364462E+02 0.  0.
         66    2    3    3    0    0 -0.10338928000E+02 -0.24243978196E+02  0.80232772427E+02  0.84474621516E+02  0.19999995216E+01 0.  0.
         13    1    3    3    0    0  0.10338928000E+02  0.24243978196E+02 -0.22725925269E+01  0.26454484531E+02  0.10566000000E+00 0. -1.
         13    1    4    4    0    0 -0.23136703583E+01 -0.50094205740E+01  0.15562462678E+02  0.16512079629E+02  0.10566000000E+00 0. -1.
        -13    1    4    4    0    0 -0.74417821232E+01 -0.17447461995E+02  0.57394084882E+02  0.60447383688E+02  0.10566000000E+00 0.  1.
         14    1    4    4    0    0 -0.58347551855E+00 -0.17870956275E+01  0.72762248658E+01  0.75151581993E+01  0.00000000000E+00 0. -1.
<mgrwt>
<rscale>  0 0.78914364E+02</rscale>
<asrwt>0</asrwt>
<pdfrwt beam="1">  1        1 0.25360712E-02 0.78914364E+02</pdfrwt>
<pdfrwt beam="2">  1       -2 0.14529945E-01 0.78914364E+02</pdfrwt>
<totfact> 0.11144246E+05</totfact>
</mgrwt>
</event>
<event>
 8    1  0.7756875E-014  0.7898534E+02  0.7818608E-02  0.1331956E+00
         -2   -1    0    0    0  501 -0.00000000000E+00  0.00000000000E+00  0.29311761693E+03  0.29311761694E+03  0.25500000000E-02 0.  1.
          1   -1    0    0  501    0  0.00000000000E+00 -0.00000000000E+00 -0.53209714969E+01  0.53209738838E+01  0.50400000000E-02 0. -1.
        -24    2    1    2    0    0  0.00000000000E+00  0.00000000000E+00  0.28779664543E+03  0.29843859082E+03  0.78985336430E+02 0.  0.
         66    2    3    3    0    0  0.16236498591E+02  0.35159009588E+02  0.11524313038E+03  0.12159259409E+03  0.19999987336E+01 0.  0.
         13    1    3    3    0    0 -0.16236498591E+02 -0.35159009588E+02  0.17255351505E+03  0.17684599674E+03  0.10566000000E+00 0. -1.
         13    1    4    4    0    0  0.65350407872E+01  0.15996433686E+02  0.52169182248E+02  0.54956595502E+02  0.10566000000E+00 0. -1.
        -13    1    4    4    0    0  0.95415103713E+00  0.24150926114E+01  0.79115796465E+01  0.83275046119E+01  0.10566000000E+00 0.  1.
         14    1    4    4    0    0  0.87473067663E+01  0.16747483291E+02  0.55162368489E+02  0.58308493974E+02  0.00000000000E+00 0. -1.
<mgrwt>
<rscale>  0 0.78985336E+02</rscale>
<asrwt>0</asrwt>
<pdfrwt beam="1">  1        1 0.81861090E-03 0.78985336E+02</pdfrwt>
<pdfrwt beam="2">  1       -2 0.45095034E-01 0.78985336E+02</pdfrwt>
<totfact> 0.73539428E+04</totfact>
</mgrwt>
</event>
<event>
 8    1  0.7756875E-014  0.7814108E+02  0.7818608E-02  0.1334411E+00
          1   -1    0    0  501    0  0.00000000000E+00  0.00000000000E+00  0.59676410265E+02  0.59676410478E+02  0.50400000000E-02 0. -1.
         -2   -1    0    0    0  501 -0.00000000000E+00 -0.00000000000E+00 -0.25579739291E+02  0.25579739419E+02  0.25500000000E-02 0.  1.
        -24    2    1    2    0    0 -0.17763568394E-14 -0.44408920985E-15  0.34096670974E+02  0.85256149897E+02  0.78141078337E+02 0.  0.
         66    2    3    3    0    0  0.14625063885E+02  0.37921736753E+01 -0.22221948314E+02  0.26946021125E+02  0.19999981892E+01 0.  0.
         13    1    3    3    0    0 -0.14625063885E+02 -0.37921736753E+01  0.56318619288E+02  0.58310128772E+02  0.10566000000E+00 0. -1.
         13    1    4    4    0    0  0.41132139212E+01  0.81508060198E+00 -0.62947575543E+01  0.75642595046E+01  0.10566000000E+00 0.  1.
        -13    1    4    4    0    0  0.57778664104E+01  0.10493030686E+01 -0.75073632931E+01  0.95318647093E+01  0.10566000000E+00 0. -1.
         14    1    4    4    0    0  0.47339835535E+01  0.19277900047E+01 -0.84198274669E+01  0.98498969111E+01  0.00000000000E+00 0. -1.
<mgrwt>
<rscale>  0 0.78141078E+02</rscale>
<asrwt>0</asrwt>
<pdfrwt beam="1">  1        1 0.91809861E-02 0.78141078E+02</pdfrwt>
<pdfrwt beam="2">  1       -2 0.39353446E-02 0.78141078E+02</pdfrwt>
<totfact> 0.14431143E+05</totfact>
</mgrwt>
</event>
<event>
 8    1  0.7756875E-014  0.8019947E+02  0.7818608E-02  0.1328486E+00
         -2   -1    0    0    0  501 -0.00000000000E+00  0.00000000000E+00  0.26634723604E+03  0.26634723605E+03  0.25500000000E-02 0.  1.
          1   -1    0    0  501    0  0.00000000000E+00 -0.00000000000E+00 -0.60371880710E+01  0.60371901747E+01  0.50400000000E-02 0. -1.
        -24    2    1    2    0    0  0.17763568394E-14  0.00000000000E+00  0.26031004797E+03  0.27238442623E+03  0.80199467438E+02 0.  0.
         66    2    3    3    0    0 -0.93963679102E+01 -0.13987833916E+02  0.25372575676E+03  0.25429256943E+03  0.19999991940E+01 0.  0.
         13    1    3    3    0    0  0.93963679102E+01  0.13987833916E+02  0.65842912088E+01  0.18091856796E+02  0.10566000000E+00 0. -1.
         13    1    4    4    0    0 -0.33647399378E+00 -0.77823708553E-01  0.45581511363E+01  0.45724366693E+01  0.10566000000E+00 0. -1.
        -13    1    4    4    0    0 -0.74766430007E+01 -0.11342229916E+02  0.20485034199E+03  0.20530031697E+03  0.10566000000E+00 0.  1.
         14    1    4    4    0    0 -0.15832509157E+01 -0.25677802915E+01  0.44317263635E+02  0.44419815795E+02  0.00000000000E+00 0. -1.
<mgrwt>
<rscale>  0 0.80199467E+02</rscale>
<asrwt>0</asrwt>
<pdfrwt beam="1">  1        1 0.92879824E-03 0.80199467E+02</pdfrwt>
<pdfrwt beam="2">  1       -2 0.40976502E-01 0.80199467E+02</pdfrwt>
<totfact> 0.74288057E+04</totfact>
</mgrwt>
</event>
<event>
 8    1  0.7756875E-014  0.8195081E+02  0.7818608E-02  0.1323605E+00
          1   -1    0    0  501    0  0.00000000000E+00  0.00000000000E+00  0.14050548057E+02  0.14050548961E+02  0.50400000000E-02 0. -1.
         -2   -1    0    0    0  501 -0.00000000000E+00 -0.00000000000E+00 -0.11949595613E+03  0.11949595615E+03  0.25500000000E-02 0.  1.
        -24    2    1    2    0    0  0.00000000000E+00 -0.35527136788E-14 -0.10544540807E+03  0.13354650512E+03  0.81950808084E+02 0.  0.
         66    2    3    3    0    0  0.30451572721E+02 -0.24924544846E+02 -0.71222966335E+02  0.81395590461E+02  0.19999990131E+01 0.  0.
         13    1    3    3    0    0 -0.30451572721E+02  0.24924544846E+02 -0.34222441735E+02  0.52150914654E+02  0.10566000000E+00 0. -1.
         13    1    4    4    0    0  0.58849125097E+00 -0.23218014803E+00 -0.98807110950E+00  0.11779975071E+01  0.10566000000E+00 0. -1.
        -13    1    4    4    0    0  0.15725354660E+02 -0.12602231888E+02 -0.36572600708E+02  0.41757266605E+02  0.10566000000E+00 0.  1.
         14    1    4    4    0    0  0.14137726810E+02 -0.12090132810E+02 -0.33662294517E+02  0.38460326349E+02  0.00000000000E+00 0. -1.
<mgrwt>
<rscale>  0 0.81950808E+02</rscale>
<asrwt>0</asrwt>
<pdfrwt beam="1">  1        1 0.21616229E-02 0.81950808E+02</pdfrwt>
<pdfrwt beam="2">  1       -2 0.18383993E-01 0.81950808E+02</pdfrwt>
<totfact> 0.95188896E+04</totfact>
</mgrwt>
</event>
<event>
 8    1  0.7756875E-014  0.7836979E+02  0.7818608E-02  0.1333742E+00
          1   -1    0    0  501    0  0.00000000000E+00  0.00000000000E+00  0.88279738336E+01  0.88279752723E+01  0.50400000000E-02 0. -1.
         -2   -1    0    0    0  501 -0.00000000000E+00 -0.00000000000E+00 -0.17393073215E+03  0.17393073217E+03  0.25500000000E-02 0.  1.
        -24    2    1    2    0    0  0.00000000000E+00  0.35527136788E-14 -0.16510275831E+03  0.18275870744E+03  0.78369792278E+02 0.  0.
         66    2    3    3    0    0 -0.21024035407E+02 -0.20244211688E+02 -0.14348830992E+03  0.14644020368E+03  0.19999999193E+01 0.  0.
         13    1    3    3    0    0  0.21024035407E+02  0.20244211688E+02 -0.21614448397E+02  0.36318503758E+02  0.10566000000E+00 0. -1.
         13    1    4    4    0    0 -0.32594190250E+00 -0.18422877579E+00 -0.26037362125E+01  0.26326383469E+01  0.10566000000E+00 0. -1.
        -13    1    4    4    0    0 -0.10860655217E+02 -0.11322063022E+02 -0.76672832300E+02  0.78261595433E+02  0.10566000000E+00 0.  1.
        -14    1    4    4    0    0 -0.98374382870E+01 -0.87379198905E+01 -0.64211741404E+02  0.65545969900E+02  0.00000000000E+00 0.  1.
<mgrwt>
<rscale>  0 0.78369792E+02</rscale>
<asrwt>0</asrwt>
<pdfrwt beam="1">  1        1 0.13581501E-02 0.78369792E+02</pdfrwt>
<pdfrwt beam="2">  1       -2 0.26758572E-01 0.78369792E+02</pdfrwt>
<totfact> 0.94672674E+04</totfact>
</mgrwt>
</event>
<event>
 8    1  0.7756875E-014  0.7984249E+02  0.7818608E-02  0.1329499E+00
          1   -1    0    0  501    0  0.00000000000E+00  0.00000000000E+00  0.19283602423E+02  0.19283603081E+02  0.50400000000E-02 0. -1.
         -2   -1    0    0    0  501 -0.00000000000E+00 -0.00000000000E+00 -0.82645654699E+02  0.82645654738E+02  0.25500000000E-02 0.  1.
        -24    2    1    2    0    0  0.35527136788E-14  0.35527136788E-14 -0.63362052276E+02  0.10192925782E+03  0.79842494519E+02 0.  0.
         66    2    3    3    0    0 -0.28573718404E+02 -0.26178968362E+02 -0.19596060040E+02  0.43471845899E+02  0.20000122292E+01 0.  0.
         13    1    3    3    0    0  0.28573718404E+02  0.26178968362E+02 -0.43765992236E+02  0.58457411920E+02  0.10566000000E+00 0. -1.
         13    1    4    4    0    0 -0.70249139218E+01 -0.66987600692E+01 -0.39952448397E+01  0.10497425753E+02  0.10566000000E+00 0. -1.
        -13    1    4    4    0    0 -0.15994945057E+02 -0.14289494453E+02 -0.11520659360E+02  0.24346759029E+02  0.10566000000E+00 0.  1.
         14    1    4    4    0    0 -0.55538594252E+01 -0.51907138399E+01 -0.40801558403E+01  0.86276611178E+01  0.00000000000E+00 0. -1.
<mgrwt>
<rscale>  0 0.79842495E+02</rscale>
<asrwt>0</asrwt>
<pdfrwt beam="1">  1        1 0.29667082E-02 0.79842495E+02</pdfrwt>
<pdfrwt beam="2">  1       -2 0.12714716E-01 0.79842495E+02</pdfrwt>
<totfact> 0.11152912E+05</totfact>
</mgrwt>
</event>
<event>
 8    1  0.7756875E-014  0.7991987E+02  0.7818608E-02  0.1329279E+00
          1   -1    0    0  501    0  0.00000000000E+00  0.00000000000E+00  0.18939275707E+03  0.18939275714E+03  0.50400000000E-02 0. -1.
         -2   -1    0    0    0  501 -0.00000000000E+00 -0.00000000000E+00 -0.84311364542E+01  0.84311368398E+01  0.25500000000E-02 0.  1.
        -24    2    1    2    0    0  0.00000000000E+00 -0.35527136788E-14  0.18096162062E+03  0.19782389398E+03  0.79919865443E+02 0.  0.
         66    2    3    3    0    0 -0.25222568144E+02  0.26717700712E+02  0.51810659885E+02  0.63548075987E+02  0.20000022008E+01 0.  0.
         13    1    3    3    0    0  0.25222568144E+02 -0.26717700712E+02  0.12915096073E+03  0.13427581799E+03  0.10566000000E+00 0. -1.
         13    1    4    4    0    0 -0.16651996762E+01  0.17134848233E+01  0.29487803558E+01  0.37967604380E+01  0.10566000000E+00 0. -1.
        -13    1    4    4    0    0 -0.32683680074E+01  0.39575018791E+01  0.81105617198E+01  0.95987721090E+01  0.10566000000E+00 0.  1.
        -14    1    4    4    0    0 -0.20289000460E+02  0.21046714010E+02  0.40751317809E+02  0.50152543440E+02  0.00000000000E+00 0.  1.
<mgrwt>
<rscale>  0 0.79919865E+02</rscale>
<asrwt>0</asrwt>
<pdfrwt beam="1">  1        1 0.29137346E-01 0.79919865E+02</pdfrwt>
<pdfrwt beam="2">  1       -2 0.12970980E-02 0.79919865E+02</pdfrwt>
<totfact> 0.16543003E+05</totfact>
</mgrwt>
</event>
<event>
 8    1  0.7756875E-014  0.7838132E+02  0.7818608E-02  0.1333709E+00
          1   -1    0    0  501    0  0.00000000000E+00  0.00000000000E+00  0.90617827343E+01  0.90617841359E+01  0.50400000000E-02 0. -1.
         -2   -1    0    0    0  501 -0.00000000000E+00 -0.00000000000E+00 -0.16949286472E+03  0.16949286474E+03  0.25500000000E-02 0.  1.
        -24    2    1    2    0    0  0.00000000000E+00  0.00000000000E+00 -0.16043108198E+03  0.17855464887E+03  0.78381315170E+02 0.  0.
         66    2    3    3    0    0  0.50212845871E+01 -0.37029501746E+02 -0.10698036621E+03  0.11333664922E+03  0.20000006790E+01 0.  0.
         13    1    3    3    0    0 -0.50212845871E+01  0.37029501746E+02 -0.53450715775E+02  0.65217999657E+02  0.10566000000E+00 0. -1.
         13    1    4    4    0    0 -0.10140272807E+00 -0.33766628803E+00 -0.10504853748E+01  0.11130968482E+01  0.10566000000E+00 0. -1.
        -13    1    4    4    0    0  0.49916685951E+01 -0.36221298454E+02 -0.10440981514E+03  0.11062694011E+03  0.10566000000E+00 0.  1.
        -14    1    4    4    0    0  0.13101872016E+00 -0.47053700411E+00 -0.15200656937E+01  0.15966122543E+01  0.00000000000E+00 0.  1.
<mgrwt>
<rscale>  0 0.78381315E+02</rscale>
<asrwt>0</asrwt>
<pdfrwt beam="1">  1        1 0.13941207E-02 0.78381315E+02</pdfrwt>
<pdfrwt beam="2">  1       -2 0.26075823E-01 0.78381315E+02</pdfrwt>
<totfact> 0.95525708E+04</totfact>
</mgrwt>
</event>
<event>
 8    1  0.7756875E-014  0.8022224E+02  0.7818608E-02  0.1328422E+00
         -2   -1    0    0    0  501 -0.00000000000E+00  0.00000000000E+00  0.12019134888E+02  0.12019135158E+02  0.25500000000E-02 0.  1.
          1   -1    0    0  501    0  0.00000000000E+00 -0.00000000000E+00 -0.13386170838E+03  0.13386170847E+03  0.50400000000E-02 0. -1.
        -24    2    1    2    0    0  0.00000000000E+00  0.00000000000E+00 -0.12184257349E+03  0.14588084363E+03  0.80222240206E+02 0.  0.
         66    2    3    3    0    0  0.10034801848E+01  0.33569591282E+02 -0.21161270615E+02  0.39745739428E+02  0.19999993289E+01 0.  0.
         13    1    3    3    0    0 -0.10034801848E+01 -0.33569591282E+02 -0.10068130287E+03  0.10613510420E+03  0.10566000000E+00 0. -1.
         13    1    4    4    0    0  0.12456638706E+01  0.16928735763E+02 -0.10517538407E+02  0.19969064856E+02  0.10566000000E+00 0. -1.
        -13    1    4    4    0    0 -0.13971523637E+00  0.15292212908E+02 -0.10047967829E+02  0.18298746336E+02  0.10566000000E+00 0.  1.
         14    1    4    4    0    0 -0.10246844947E+00  0.13486426115E+01 -0.59576437882E+00  0.14779282363E+01  0.00000000000E+00 0. -1.
<mgrwt>
<rscale>  0 0.80222240E+02</rscale>
<asrwt>0</asrwt>
<pdfrwt beam="1">  1        1 0.20594108E-01 0.80222240E+02</pdfrwt>
<pdfrwt beam="2">  1       -2 0.18490978E-02 0.80222240E+02</pdfrwt>
<totfact> 0.15349578E+05</totfact>
</mgrwt>
</event>
<event>
 8    1  0.7756875E-014  0.7816031E+02  0.7818608E-02  0.1334355E+00
         -2   -1    0    0    0  501 -0.00000000000E+00  0.00000000000E+00  0.11582960422E+02  0.11582960703E+02  0.25500000000E-02 0.  1.
          1   -1    0    0  501    0  0.00000000000E+00 -0.00000000000E+00 -0.13185390955E+03  0.13185390964E+03  0.50400000000E-02 0. -1.
        -24    2    1    2    0    0  0.00000000000E+00  0.00000000000E+00 -0.12027094913E+03  0.14343687035E+03  0.78160313275E+02 0.  0.
         66    2    3    3    0    0 -0.52526951184E+01 -0.27766136459E+02 -0.10703424827E+02  0.30283864709E+02  0.20000047078E+01 0.  0.
         13    1    3    3    0    0  0.52526951184E+01  0.27766136459E+02 -0.10956752430E+03  0.11315300564E+03  0.10566000000E+00 0. -1.
         13    1    4    4    0    0 -0.60519472651E+00 -0.25127353945E+01 -0.72550716760E+00  0.26865636984E+01  0.10566000000E+00 0. -1.
        -13    1    4    4    0    0 -0.43574036967E+01 -0.20906488588E+02 -0.86677464152E+01  0.23047976571E+02  0.10566000000E+00 0.  1.
        -14    1    4    4    0    0 -0.29009669520E+00 -0.43469124756E+01 -0.13101712438E+01  0.45493244390E+01  0.00000000000E+00 0.  1.
<mgrwt>
<rscale>  0 0.78160313E+02</rscale>
<asrwt>0</asrwt>
<pdfrwt beam="1">  1        1 0.20285216E-01 0.78160313E+02</pdfrwt>
<pdfrwt beam="2">  1       -2 0.17819940E-02 0.78160313E+02</pdfrwt>
<totfact> 0.16413166E+05</totfact>
</mgrwt>
</event>
<event>
 8    1  0.7756875E-014  0.8180405E+02  0.7818608E-02  0.1324008E+00
          1   -1    0    0  501    0  0.00000000000E+00  0.00000000000E+00  0.28102880041E+02  0.28102880493E+02  0.50400000000E-02 0. -1.
         -2   -1    0    0    0  501 -0.00000000000E+00 -0.00000000000E+00 -0.59530396349E+02  0.59530396403E+02  0.25500000000E-02 0.  1.
        -24    2    1    2    0    0  0.44408920985E-15  0.71054273576E-14 -0.31427516308E+02  0.87633276896E+02  0.81804049033E+02 0.  0.
         66    2    3    3    0    0 -0.18120144050E+01 -0.36196708326E+02 -0.35977715997E+02  0.51106566517E+02  0.20000007502E+01 0.  0.
         13    1    3    3    0    0  0.18120144050E+01  0.36196708326E+02  0.45501996890E+01  0.36526710379E+02  0.10566000000E+00 0. -1.
         13    1    4    4    0    0 -0.10223131496E+00 -0.35428949928E+01 -0.42460504612E+01  0.55319675276E+01  0.10566000000E+00 0. -1.
        -13    1    4    4    0    0 -0.13642023782E+01 -0.18643698540E+02 -0.18523788714E+02  0.26317113363E+02  0.10566000000E+00 0.  1.
         14    1    4    4    0    0 -0.34558071185E+00 -0.14010114793E+02 -0.13207876821E+02  0.19257485627E+02  0.00000000000E+00 0. -1.
<mgrwt>
<rscale>  0 0.81804049E+02</rscale>
<asrwt>0</asrwt>
<pdfrwt beam="1">  1        1 0.43235201E-02 0.81804049E+02</pdfrwt>
<pdfrwt beam="2">  1       -2 0.91585225E-02 0.81804049E+02</pdfrwt>
<totfact> 0.11206115E+05</totfact>
</mgrwt>
</event>
<event>
 8    1  0.7756875E-014  0.7888856E+02  0.7818608E-02  0.1332235E+00
         -2   -1    0    0    0  501 -0.00000000000E+00  0.00000000000E+00  0.95114365425E+01  0.95114368843E+01  0.25500000000E-02 0.  1.
          1   -1    0    0  501    0  0.00000000000E+00 -0.00000000000E+00 -0.16357688096E+03  0.16357688104E+03  0.50400000000E-02 0. -1.
        -24    2    1    2    0    0  0.00000000000E+00 -0.35527136788E-14 -0.15406544442E+03  0.17308831792E+03  0.78888558344E+02 0.  0.
         66    2    3    3    0    0  0.26253976230E+02 -0.28462239740E+02 -0.93276155299E+02  0.10101391751E+03  0.20000062225E+01 0.  0.
         13    1    3    3    0    0 -0.26253976230E+02  0.28462239740E+02 -0.60789289119E+02  0.72074400410E+02  0.10566000000E+00 0. -1.
         13    1    4    4    0    0  0.55477715431E+01 -0.54080925601E+01 -0.17068079370E+02  0.18744485367E+02  0.10566000000E+00 0. -1.
        -13    1    4    4    0    0  0.59249691609E+01 -0.63164866292E+01 -0.20864442845E+02  0.22590692821E+02  0.10566000000E+00 0.  1.
         14    1    4    4    0    0  0.14781235526E+02 -0.16737660551E+02 -0.55343633084E+02  0.59678739324E+02  0.00000000000E+00 0. -1.
<mgrwt>
<rscale>  0 0.78888558E+02</rscale>
<asrwt>0</asrwt>
<pdfrwt beam="1">  1        1 0.25165672E-01 0.78888558E+02</pdfrwt>
<pdfrwt beam="2">  1       -2 0.14632981E-02 0.78888558E+02</pdfrwt>
<totfact> 0.16654490E+05</totfact>
</mgrwt>
</event>
<event>
 8    1  0.7756875E-014  0.7875251E+02  0.7818608E-02  0.1332629E+00
         -2   -1    0    0    0  501 -0.00000000000E+00  0.00000000000E+00  0.41753062962E+02  0.41753063040E+02  0.25500000000E-02 0.  1.
          1   -1    0    0  501    0  0.00000000000E+00 -0.00000000000E+00 -0.37134746095E+02  0.37134746437E+02  0.50400000000E-02 0. -1.
        -24    2    1    2    0    0  0.00000000000E+00 -0.17763568394E-14  0.46183168669E+01  0.78887809477E+02  0.78752508743E+02 0.  0.
         66    2    3    3    0    0 -0.24592367421E+02  0.15873124591E+02  0.28656853796E+02  0.41011655483E+02  0.19999990752E+01 0.  0.
         13    1    3    3    0    0  0.24592367421E+02 -0.15873124591E+02 -0.24038536929E+02  0.37876153994E+02  0.10566000000E+00 0. -1.
         13    1    4    4    0    0 -0.20853808102E+01  0.16032730004E+01  0.20955898390E+01  0.33648117698E+01  0.10566000000E+00 0. -1.
        -13    1    4    4    0    0 -0.38284544697E+00  0.22714850178E+00  0.29495017506E+00  0.54435899873E+00  0.10566000000E+00 0.  1.
        -14    1    4    4    0    0 -0.22124141164E+02  0.14042703089E+02  0.26266313782E+02  0.37102484714E+02  0.00000000000E+00 0.  1.
<mgrwt>
<rscale>  0 0.78752509E+02</rscale>
<asrwt>0</asrwt>
<pdfrwt beam="1">  1        1 0.57130379E-02 0.78752509E+02</pdfrwt>
<pdfrwt beam="2">  1       -2 0.64235481E-02 0.78752509E+02</pdfrwt>
<totfact> 0.13113604E+05</totfact>
</mgrwt>
</event>
