<event>
 8    1  0.2603554E-024  0.7735849E+02  0.7818608E-02  0.1336719E+00
          2   -1    0    0  501    0  0.00000000000E+00  0.00000000000E+00  0.64783451909E+02  0.64783451959E+02  0.25500000000E-02 0. -1.
         -1   -1    0    0    0  501 -0.00000000000E+00 -0.00000000000E+00 -0.23093611977E+02  0.23093612527E+02  0.50400000000E-02 0.  1.
         24    2    1    2    0    0 -0.71054273576E-14  0.11102230246E-15  0.41689839932E+02  0.87877064486E+02  0.77358488281E+02 0.  0.
         66    2    3    3    0    0 -0.38120935575E+02 -0.95351789954E+00  0.28040104557E+02  0.47374702020E+02  0.20000006143E+01 0.  0.
        -13    1    3    3    0    0  0.38120935575E+02  0.95351789954E+00  0.13649735375E+02  0.40502362466E+02  0.10566000000E+00 0.  1.
         13    1    4    4    0    0 -0.20615830703E+02 -0.46263020539E+00  0.15079878785E+02  0.25546827797E+02  0.10566000000E+00 0. -1.
        -13    1    4    4    0    0 -0.77828448459E+01  0.38083691103E+00  0.61148374646E+01  0.99055596461E+01  0.10566000000E+00 0.  1.
        -14    1    4    4    0    0 -0.97222600258E+01 -0.87172460518E+00  0.68453883069E+01  0.11922314577E+02  0.00000000000E+00 0.  1.
<mgrwt>
<rscale>  0 0.77358488E+02</rscale>
<asrwt>0</asrwt>
<pdfrwt beam="1">  1        2 0.99666848E-02 0.77358488E+02</pdfrwt>
<pdfrwt beam="2">  1       -1 0.35528635E-02 0.77358488E+02</pdfrwt>
<totfact> 0.17356584E+05</totfact>
</mgrwt>
</event>
<event>
 8    1  0.2603554E-024  0.8089684E+02  0.7818608E-02  0.1326525E+00
         -1   -1    0    0    0  501 -0.00000000000E+00  0.00000000000E+00  0.15097659774E+02  0.15097660616E+02  0.50400000000E-02 0.  1.
          2   -1    0    0  501    0  0.00000000000E+00 -0.00000000000E+00 -0.10836609856E+03  0.10836609859E+03  0.25500000000E-02 0. -1.
         24    2    1    2    0    0  0.17763568394E-14 -0.17763568394E-14 -0.93268438788E+02  0.12346375921E+03  0.80896836550E+02 0.  0.
         66    2    3    3    0    0  0.13673251210E+02 -0.12337913430E+02 -0.10158181840E+03  0.10325719218E+03  0.19999998649E+01 0.  0.
        -13    1    3    3    0    0 -0.13673251210E+02  0.12337913430E+02  0.83133796174E+01  0.20206567030E+02  0.10566000000E+00 0.  1.
         13    1    4    4    0    0  0.51384559620E+01 -0.47059654327E+01 -0.37349809137E+02  0.37994331774E+02  0.10566000000E+00 0. -1.
        -13    1    4    4    0    0  0.34352433406E+01 -0.22812246269E+01 -0.20557569160E+02  0.20967348340E+02  0.10566000000E+00 0.  1.
        -14    1    4    4    0    0  0.50995519069E+01 -0.53507233701E+01 -0.43674440108E+02  0.44295512063E+02  0.00000000000E+00 0.  1.
<mgrwt>
<rscale>  0 0.80896837E+02</rscale>
<asrwt>0</asrwt>
<pdfrwt beam="1">  1        2 0.16671707E-01 0.80896837E+02</pdfrwt>
<pdfrwt beam="2">  1       -1 0.23227170E-02 0.80896837E+02</pdfrwt>
<totfact> 0.17602280E+05</totfact>
</mgrwt>
</event>
<event>
 8    1  0.2603554E-024  0.8096544E+02  0.7818608E-02  0.1326334E+00
          2   -1    0    0  501    0  0.00000000000E+00  0.00000000000E+00  0.79273109924E+01  0.79273114026E+01  0.25500000000E-02 0. -1.
         -1   -1    0    0    0  501 -0.00000000000E+00 -0.00000000000E+00 -0.20673475567E+03  0.20673475573E+03  0.50400000000E-02 0.  1.
         24    2    1    2    0    0 -0.35527136788E-14  0.00000000000E+00 -0.19880744468E+03  0.21466206714E+03  0.80965443290E+02 0.  0.
         66    2    3    3    0    0 -0.30701911864E+02  0.20557185221E+02 -0.55767078826E+02  0.66926618838E+02  0.19999929919E+01 0.  0.
        -13    1    3    3    0    0  0.30701911864E+02 -0.20557185221E+02 -0.14304036586E+03  0.14773544830E+03  0.10566000000E+00 0.  1.
         13    1    4    4    0    0 -0.40569288795E+01  0.26849304594E+01 -0.79929254900E+01  0.93576463617E+01  0.10566000000E+00 0. -1.
        -13    1    4    4    0    0 -0.95331603311E+01  0.58461329662E+01 -0.17701011078E+02  0.20937893251E+02  0.10566000000E+00 0.  1.
         14    1    4    4    0    0 -0.17111822654E+02  0.12026121795E+02 -0.30073142257E+02  0.36631079225E+02  0.00000000000E+00 0. -1.
<mgrwt>
<rscale>  0 0.80965443E+02</rscale>
<asrwt>0</asrwt>
<pdfrwt beam="1">  1        2 0.12195865E-02 0.80965443E+02</pdfrwt>
<pdfrwt beam="2">  1       -1 0.31805343E-01 0.80965443E+02</pdfrwt>
<totfact> 0.95632141E+04</totfact>
</mgrwt>
</event>
<event>
 8    1  0.2603554E-024  0.8707168E+02  0.7818608E-02  0.1310102E+00
         -1   -1    0    0    0  501 -0.00000000000E+00  0.00000000000E+00  0.12527856898E+02  0.12527857912E+02  0.50400000000E-02 0.  1.
          2   -1    0    0  501    0  0.00000000000E+00 -0.00000000000E+00 -0.15129239485E+03  0.15129239487E+03  0.25500000000E-02 0. -1.
         24    2    1    2    0    0  0.35527136788E-14 -0.88817841970E-15 -0.13876453795E+03  0.16382025278E+03  0.87071684426E+02 0.  0.
         66    2    3    3    0    0 -0.28226859215E+02  0.46009001483E+01 -0.13111858873E+03  0.13421627388E+03  0.19999998782E+01 0.  0.
        -13    1    3    3    0    0  0.28226859215E+02 -0.46009001483E+01 -0.76459492167E+01  0.29603978901E+02  0.10566000000E+00 0.  1.
         13    1    4    4    0    0 -0.87732870932E+01  0.58564670691E+00 -0.40566007255E+02  0.41508139649E+02  0.10566000000E+00 0. -1.
        -13    1    4    4    0    0 -0.61191395950E+01  0.15712816783E+01 -0.28992399451E+02  0.29672936920E+02  0.10566000000E+00 0.  1.
         14    1    4    4    0    0 -0.13334432527E+02  0.24439717631E+01 -0.61560182027E+02  0.63035197310E+02  0.00000000000E+00 0. -1.
<mgrwt>
<rscale>  0 0.87071684E+02</rscale>
<asrwt>0</asrwt>
<pdfrwt beam="1">  1        2 0.23275752E-01 0.87071684E+02</pdfrwt>
<pdfrwt beam="2">  1       -1 0.19273628E-02 0.87071684E+02</pdfrwt>
<totfact> 0.16026424E+05</totfact>
</mgrwt>
</event>
<event>
 8    1  0.2603554E-024  0.7989429E+02  0.7818608E-02  0.1329352E+00
          2   -1    0    0  501    0  0.00000000000E+00  0.00000000000E+00  0.94197950196E+02  0.94197950231E+02  0.25500000000E-02 0. -1.
         -1   -1    0    0    0  501 -0.00000000000E+00 -0.00000000000E+00 -0.16940648206E+02  0.16940648956E+02  0.50400000000E-02 0.  1.
         24    2    1    2    0    0  0.00000000000E+00  0.00000000000E+00  0.77257301990E+02  0.11113859919E+03  0.79894289649E+02 0.  0.
         66    2    3    3    0    0  0.14360600461E+02  0.21027940428E+02  0.81423819161E+02  0.85336038198E+02  0.19999911034E+01 0.  0.
        -13    1    3    3    0    0 -0.14360600461E+02 -0.21027940428E+02 -0.41665171709E+01  0.25802560989E+02  0.10566000000E+00 0.  1.
         13    1    4    4    0    0  0.77360966465E+01  0.10272108039E+02  0.39520244096E+02  0.41559887540E+02  0.10566000000E+00 0. -1.
        -13    1    4    4    0    0  0.64219100008E+00  0.87679108644E+00  0.29067646790E+01  0.31050953004E+01  0.10566000000E+00 0.  1.
        -14    1    4    4    0    0  0.59823128141E+01  0.98790413017E+01  0.38996810386E+02  0.40671055358E+02  0.00000000000E+00 0.  1.
<mgrwt>
<rscale>  0 0.79894290E+02</rscale>
<asrwt>0</asrwt>
<pdfrwt beam="1">  1        2 0.14491992E-01 0.79894290E+02</pdfrwt>
<pdfrwt beam="2">  1       -1 0.26062537E-02 0.79894290E+02</pdfrwt>
<totfact> 0.17496981E+05</totfact>
</mgrwt>
</event>
<event>
 8    1  0.2603554E-024  0.7844263E+02  0.7818608E-02  0.1333530E+00
         -1   -1    0    0    0  501 -0.00000000000E+00  0.00000000000E+00  0.35487985431E+01  0.35488021220E+01  0.50400000000E-02 0.  1.
          2   -1    0    0  501    0  0.00000000000E+00 -0.00000000000E+00 -0.43347364404E+03  0.43347364404E+03  0.25500000000E-02 0. -1.
         24    2    1    2    0    0 -0.17763568394E-14  0.00000000000E+00 -0.42992484549E+03  0.43702244617E+03  0.78442626679E+02 0.  0.
         66    2    3    3    0    0 -0.13475169692E+02  0.28336786055E+02 -0.34596689102E+03  0.34739263569E+03  0.20000022761E+01 0.  0.
        -13    1    3    3    0    0  0.13475169692E+02 -0.28336786055E+02 -0.83957954474E+02  0.89629810475E+02  0.10566000000E+00 0.  1.
         13    1    4    4    0    0 -0.44211607214E+01  0.11182260018E+02 -0.12917155279E+03  0.12973006905E+03  0.10566000000E+00 0. -1.
        -13    1    4    4    0    0 -0.35945866176E+01  0.62816293189E+01 -0.83488907453E+02  0.83802080831E+02  0.10566000000E+00 0.  1.
        -14    1    4    4    0    0 -0.54594223527E+01  0.10872896718E+02 -0.13330643078E+03  0.13386048581E+03  0.00000000000E+00 0.  1.
<mgrwt>
<rscale>  0 0.78442627E+02</rscale>
<asrwt>0</asrwt>
<pdfrwt beam="1">  1        2 0.66688211E-01 0.78442627E+02</pdfrwt>
<pdfrwt beam="2">  1       -1 0.54596963E-03 0.78442627E+02</pdfrwt>
<totfact> 0.30576426E+05</totfact>
</mgrwt>
</event>
<event>
 8    1  0.2603554E-024  0.8028118E+02  0.7818608E-02  0.1328255E+00
         -1   -1    0    0    0  501 -0.00000000000E+00  0.00000000000E+00  0.62849488946E+02  0.62849489149E+02  0.50400000000E-02 0.  1.
          2   -1    0    0  501    0  0.00000000000E+00 -0.00000000000E+00 -0.25636916162E+02  0.25636916288E+02  0.25500000000E-02 0. -1.
         24    2    1    2    0    0  0.00000000000E+00  0.00000000000E+00  0.37212572785E+02  0.88486405437E+02  0.80281183187E+02 0.  0.
         66    2    3    3    0    0  0.16250750588E+02 -0.26062215117E+02 -0.98254397049E+01  0.32308903405E+02  0.20000056019E+01 0.  0.
        -13    1    3    3    0    0 -0.16250750588E+02  0.26062215117E+02  0.47038012490E+02  0.56177502031E+02  0.10566000000E+00 0.  1.
         13    1    4    4    0    0  0.10278629924E+02 -0.16526053729E+02 -0.70496815702E+01  0.20699513503E+02  0.10566000000E+00 0. -1.
        -13    1    4    4    0    0  0.31708501389E+01 -0.45856528550E+01 -0.15979571571E+01  0.58006149520E+01  0.10566000000E+00 0.  1.
        -14    1    4    4    0    0  0.28012705253E+01 -0.49505085322E+01 -0.11778009776E+01  0.58087749506E+01  0.00000000000E+00 0.  1.
<mgrwt>
<rscale>  0 0.80281183E+02</rscale>
<asrwt>0</asrwt>
<pdfrwt beam="1">  1        2 0.39441410E-02 0.80281183E+02</pdfrwt>
<pdfrwt beam="2">  1       -1 0.96691520E-02 0.80281183E+02</pdfrwt>
<totfact> 0.12916138E+05</totfact>
</mgrwt>
</event>
<event>
 8    1  0.2603554E-024  0.7956432E+02  0.7818608E-02  0.1330292E+00
          2   -1    0    0  501    0  0.00000000000E+00  0.00000000000E+00  0.57708814432E+01  0.57708820066E+01  0.25500000000E-02 0. -1.
         -1   -1    0    0    0  501 -0.00000000000E+00 -0.00000000000E+00 -0.27424236406E+03  0.27424236410E+03  0.50400000000E-02 0.  1.
         24    2    1    2    0    0  0.00000000000E+00  0.17763568394E-14 -0.26847148261E+03  0.28001324611E+03  0.79564320019E+02 0.  0.
         66    2    3    3    0    0 -0.32439896589E+02 -0.11520975002E+02 -0.64327586147E+02  0.72987109151E+02  0.20000017324E+01 0.  0.
        -13    1    3    3    0    0  0.32439896589E+02  0.11520975002E+02 -0.20414389647E+03  0.20702613696E+03  0.10566000000E+00 0.  1.
         13    1    4    4    0    0 -0.86872708121E+01 -0.34478207005E+01 -0.18444356986E+02  0.20677562971E+02  0.10566000000E+00 0.  1.
        -13    1    4    4    0    0 -0.10856935683E+02 -0.42602377033E+01 -0.20608845654E+02  0.23680337011E+02  0.10566000000E+00 0.  1.
         14    1    4    4    0    0 -0.12895690094E+02 -0.38129165980E+01 -0.25274383507E+02  0.28629209169E+02  0.00000000000E+00 0. -1.
<mgrwt>
<rscale>  0 0.79564320E+02</rscale>
<asrwt>0</asrwt>
<pdfrwt beam="1">  1        2 0.88782818E-03 0.79564320E+02</pdfrwt>
<pdfrwt beam="2">  1       -1 0.42191123E-01 0.79564320E+02</pdfrwt>
<totfact> 0.90786992E+04</totfact>
</mgrwt>
</event>
<event>
 8    1  0.2603554E-024  0.7675908E+02  0.7818608E-02  0.1338509E+00
         -1   -1    0    0    0  501 -0.00000000000E+00  0.00000000000E+00  0.94066918145E+01  0.94066931646E+01  0.50400000000E-02 0.  1.
          2   -1    0    0  501    0  0.00000000000E+00 -0.00000000000E+00 -0.15658948300E+03  0.15658948302E+03  0.25500000000E-02 0. -1.
         24    2    1    2    0    0  0.00000000000E+00  0.00000000000E+00 -0.14718279119E+03  0.16599617619E+03  0.76759080812E+02 0.  0.
         66    2    3    3    0    0  0.28527828772E+02  0.23458813856E+01 -0.12884559561E+03  0.13200199905E+03  0.20000173466E+01 0.  0.
        -13    1    3    3    0    0 -0.28527828772E+02 -0.23458813856E+01 -0.18337195573E+02  0.33994177140E+02  0.10566000000E+00 0.  1.
         13    1    4    4    0    0  0.68851284629E+01  0.91336348390E+00 -0.28211092102E+02  0.29053676333E+02  0.10566000000E+00 0. -1.
        -13    1    4    4    0    0  0.41047074966E+01  0.36291943213E+00 -0.17861461273E+02  0.18330938246E+02  0.10566000000E+00 0. -1.
         14    1    4    4    0    0  0.17537992812E+02  0.10695984696E+01 -0.82773042239E+02  0.84617384468E+02  0.00000000000E+00 0. -1.
<mgrwt>
<rscale>  0 0.76759081E+02</rscale>
<asrwt>0</asrwt>
<pdfrwt beam="1">  1        2 0.24090688E-01 0.76759081E+02</pdfrwt>
<pdfrwt beam="2">  1       -1 0.14471836E-02 0.76759081E+02</pdfrwt>
<totfact> 0.22659190E+05</totfact>
</mgrwt>
</event>
<event>
 8    1  0.2603554E-024  0.8078049E+02  0.7818608E-02  0.1326851E+00
         -1   -1    0    0    0  501 -0.00000000000E+00  0.00000000000E+00  0.68311442292E+01  0.68311460885E+01  0.50400000000E-02 0.  1.
          2   -1    0    0  501    0  0.00000000000E+00 -0.00000000000E+00 -0.23881379765E+03  0.23881379766E+03  0.25500000000E-02 0. -1.
         24    2    1    2    0    0  0.00000000000E+00  0.17763568394E-14 -0.23198265342E+03  0.24564494375E+03  0.80780485903E+02 0.  0.
         66    2    3    3    0    0 -0.16395234979E+02  0.14433523468E+02 -0.21928420460E+03  0.22037852145E+03  0.19999990496E+01 0.  0.
        -13    1    3    3    0    0  0.16395234979E+02 -0.14433523468E+02 -0.12698448814E+02  0.25266422304E+02  0.10566000000E+00 0.  1.
         13    1    4    4    0    0 -0.14776028389E+01  0.20763905604E+01 -0.23727632354E+02  0.23864333409E+02  0.10566000000E+00 0. -1.
        -13    1    4    4    0    0 -0.51144391643E+01  0.44039680304E+01 -0.69771262616E+02  0.70097023285E+02  0.10566000000E+00 0.  1.
         14    1    4    4    0    0 -0.98031929757E+01  0.79531648770E+01 -0.12578530963E+03  0.12641716475E+03  0.00000000000E+00 0. -1.
<mgrwt>
<rscale>  0 0.80780486E+02</rscale>
<asrwt>0</asrwt>
<pdfrwt beam="1">  1        2 0.36740578E-01 0.80780486E+02</pdfrwt>
<pdfrwt beam="2">  1       -1 0.10509456E-02 0.80780486E+02</pdfrwt>
<totfact> 0.22888561E+05</totfact>
</mgrwt>
</event>
<event>
 8    1  0.2603554E-024  0.7902464E+02  0.7818608E-02  0.1331842E+00
         -1   -1    0    0    0  501 -0.00000000000E+00  0.00000000000E+00  0.82376985811E+02  0.82376985965E+02  0.50400000000E-02 0.  1.
          2   -1    0    0  501    0  0.00000000000E+00 -0.00000000000E+00 -0.18952180065E+02  0.18952180237E+02  0.25500000000E-02 0. -1.
         24    2    1    2    0    0 -0.35527136788E-14  0.00000000000E+00  0.63424805745E+02  0.10132916620E+03  0.79024641343E+02 0.  0.
         66    2    3    3    0    0  0.20058023320E+02 -0.13141284286E+02 -0.84939861156E+01  0.25517943821E+02  0.20000011270E+01 0.  0.
        -13    1    3    3    0    0 -0.20058023320E+02  0.13141284286E+02  0.71918791861E+02  0.75811222381E+02  0.10566000000E+00 0.  1.
         13    1    4    4    0    0  0.48842331220E+01 -0.33176545436E+01 -0.12952169510E+01  0.60457684248E+01  0.10566000000E+00 0. -1.
        -13    1    4    4    0    0  0.32841363934E+01 -0.24594646649E+01 -0.14913995225E+01  0.43669159437E+01  0.10566000000E+00 0.  1.
         14    1    4    4    0    0  0.11889653805E+02 -0.73641650773E+01 -0.57073696422E+01  0.15105259452E+02  0.00000000000E+00 0. -1.
<mgrwt>
<rscale>  0 0.79024641E+02</rscale>
<asrwt>0</asrwt>
<pdfrwt beam="1">  1        2 0.29157200E-02 0.79024641E+02</pdfrwt>
<pdfrwt beam="2">  1       -1 0.12673383E-01 0.79024641E+02</pdfrwt>
<totfact> 0.12722105E+05</totfact>
</mgrwt>
</event>
<event>
 8    1  0.2603554E-024  0.8146932E+02  0.7818608E-02  0.1324933E+00
          2   -1    0    0  501    0  0.00000000000E+00  0.00000000000E+00  0.10028119737E+03  0.10028119740E+03  0.25500000000E-02 0. -1.
         -1   -1    0    0    0  501 -0.00000000000E+00 -0.00000000000E+00 -0.16546596705E+02  0.16546597473E+02  0.50400000000E-02 0.  1.
         24    2    1    2    0    0  0.00000000000E+00  0.00000000000E+00  0.83734600660E+02  0.11682779487E+03  0.81469321261E+02 0.  0.
         66    2    3    3    0    0  0.37370275361E+02 -0.15004429584E+02  0.33331868872E+02  0.52313324220E+02  0.20000051770E+01 0.  0.
        -13    1    3    3    0    0 -0.37370275361E+02  0.15004429584E+02  0.50402731788E+02  0.64514470651E+02  0.10566000000E+00 0.  1.
         13    1    4    4    0    0  0.24452257917E+02 -0.95311142585E+01  0.20756288714E+02  0.33460271091E+02  0.10566000000E+00 0. -1.
        -13    1    4    4    0    0  0.43896517325E+01 -0.16214920210E+01  0.44849793939E+01  0.64826293204E+01  0.10566000000E+00 0.  1.
         14    1    4    4    0    0  0.85283657117E+01 -0.38518233045E+01  0.80906007638E+01  0.12370423808E+02  0.00000000000E+00 0. -1.
<mgrwt>
<rscale>  0 0.81469321E+02</rscale>
<asrwt>0</asrwt>
<pdfrwt beam="1">  1        2 0.15427877E-01 0.81469321E+02</pdfrwt>
<pdfrwt beam="2">  1       -1 0.25456303E-02 0.81469321E+02</pdfrwt>
<totfact> 0.16894809E+05</totfact>
</mgrwt>
</event>
<event>
 8    1  0.2603554E-024  0.8276821E+02  0.7818608E-02  0.1321374E+00
         -1   -1    0    0    0  501 -0.00000000000E+00  0.00000000000E+00  0.58750228489E+01  0.58750250108E+01  0.50400000000E-02 0.  1.
          2   -1    0    0  501    0  0.00000000000E+00 -0.00000000000E+00 -0.29151273830E+03  0.29151273831E+03  0.25500000000E-02 0. -1.
         24    2    1    2    0    0  0.00000000000E+00  0.00000000000E+00 -0.28563771545E+03  0.29738776332E+03  0.82768214222E+02 0.  0.
         66    2    3    3    0    0 -0.24733545492E+02  0.10669947837E+02 -0.25567034910E+03  0.25709321940E+03  0.19999990759E+01 0.  0.
        -13    1    3    3    0    0  0.24733545492E+02 -0.10669947837E+02 -0.29967366357E+02  0.40294543921E+02  0.10566000000E+00 0.  1.
         13    1    4    4    0    0 -0.13621831706E+02  0.50775548235E+01 -0.13513761694E+03  0.13591733715E+03  0.10566000000E+00 0. -1.
        -13    1    4    4    0    0 -0.36926311031E+01  0.22200753214E+01 -0.43869910734E+02  0.44081112631E+02  0.10566000000E+00 0.  1.
         14    1    4    4    0    0 -0.74190826829E+01  0.33723176917E+01 -0.76662821419E+02  0.77094769617E+02  0.00000000000E+00 0. -1.
<mgrwt>
<rscale>  0 0.82768214E+02</rscale>
<asrwt>0</asrwt>
<pdfrwt beam="1">  1        2 0.44848102E-01 0.82768214E+02</pdfrwt>
<pdfrwt beam="2">  1       -1 0.90385006E-03 0.82768214E+02</pdfrwt>
<totfact> 0.23073725E+05</totfact>
</mgrwt>
</event>
<event>
 8    1  0.2603554E-024  0.7756888E+02  0.7818608E-02  0.1336096E+00
          2   -1    0    0  501    0  0.00000000000E+00  0.00000000000E+00  0.40953964730E+02  0.40953964809E+02  0.25500000000E-02 0. -1.
         -1   -1    0    0    0  501 -0.00000000000E+00 -0.00000000000E+00 -0.36729842489E+02  0.36729842835E+02  0.50400000000E-02 0.  1.
         24    2    1    2    0    0  0.00000000000E+00  0.00000000000E+00  0.42241222405E+01  0.77683807645E+02  0.77568877531E+02 0.  0.
         66    2    3    3    0    0  0.36054198360E+02  0.91129157144E+01  0.13051058475E+02  0.39462394542E+02  0.20000008711E+01 0.  0.
        -13    1    3    3    0    0 -0.36054198360E+02 -0.91129157144E+01 -0.88269362347E+01  0.38221413102E+02  0.10566000000E+00 0.  1.
         13    1    4    4    0    0  0.23496871863E+02  0.61849575059E+01  0.93618524963E+01  0.26038666112E+02  0.10566000000E+00 0. -1.
        -13    1    4    4    0    0  0.74284441248E+00  0.23110541559E+00  0.15215274002E+00  0.79971371513E+00  0.10566000000E+00 0.  1.
         14    1    4    4    0    0  0.11814482084E+02  0.26968527929E+01  0.35370532388E+01  0.12624014715E+02  0.00000000000E+00 0. -1.
<mgrwt>
<rscale>  0 0.77568878E+02</rscale>
<asrwt>0</asrwt>
<pdfrwt beam="1">  1        2 0.63006100E-02 0.77568878E+02</pdfrwt>
<pdfrwt beam="2">  1       -1 0.56507450E-02 0.77568878E+02</pdfrwt>
<totfact> 0.15595799E+05</totfact>
</mgrwt>
</event>
<event>
 8    1  0.2603554E-024  0.8072663E+02  0.7818608E-02  0.1327002E+00
         -1   -1    0    0    0  501 -0.00000000000E+00  0.00000000000E+00  0.20290886579E+02  0.20290887204E+02  0.50400000000E-02 0.  1.
          2   -1    0    0  501    0  0.00000000000E+00 -0.00000000000E+00 -0.80292062480E+02  0.80292062521E+02  0.25500000000E-02 0. -1.
         24    2    1    2    0    0 -0.17763568394E-14  0.00000000000E+00 -0.60001175902E+02  0.10058294973E+03  0.80726629224E+02 0.  0.
         66    2    3    3    0    0  0.80810869456E+01  0.35843854633E+02 -0.50760001924E+02  0.62695005182E+02  0.19999995725E+01 0.  0.
        -13    1    3    3    0    0 -0.80810869456E+01 -0.35843854633E+02 -0.92411739774E+01  0.37887944543E+02  0.10566000000E+00 0.  1.
         13    1    4    4    0    0  0.36441090674E+01  0.18438265246E+02 -0.24693961325E+02  0.31033079869E+02  0.10566000000E+00 0. -1.
        -13    1    4    4    0    0  0.13126878597E+01  0.63255470487E+01 -0.93784560822E+01  0.11388691646E+02  0.10566000000E+00 0.  1.
         14    1    4    4    0    0  0.31242900185E+01  0.11080042338E+02 -0.16687584517E+02  0.20273233668E+02  0.00000000000E+00 0. -1.
<mgrwt>
<rscale>  0 0.80726629E+02</rscale>
<asrwt>0</asrwt>
<pdfrwt beam="1">  1        2 0.12352625E-01 0.80726629E+02</pdfrwt>
<pdfrwt beam="2">  1       -1 0.31216750E-02 0.80726629E+02</pdfrwt>
<totfact> 0.16308689E+05</totfact>
</mgrwt>
</event>
<event>
 8    1  0.2603554E-024  0.6940240E+02  0.7818608E-02  0.1362137E+00
         -1   -1    0    0    0  501 -0.00000000000E+00  0.00000000000E+00  0.28969035239E+02  0.28969035677E+02  0.50400000000E-02 0.  1.
          2   -1    0    0  501    0  0.00000000000E+00 -0.00000000000E+00 -0.41567602085E+02  0.41567602163E+02  0.25500000000E-02 0. -1.
         24    2    1    2    0    0  0.11102230246E-15  0.35527136788E-14 -0.12598566846E+02  0.70536637841E+02  0.69402401913E+02 0.  0.
         66    2    3    3    0    0  0.72715925980E+00  0.21369147240E+02 -0.34045250624E+02  0.40252308173E+02  0.20000022029E+01 0.  0.
        -13    1    3    3    0    0 -0.72715925980E+00 -0.21369147240E+02  0.21446683778E+02  0.30284329668E+02  0.10566000000E+00 0.  1.
         13    1    4    4    0    0  0.13633123682E+00  0.12212023645E+02 -0.20412280693E+02  0.23787065284E+02  0.10566000000E+00 0. -1.
        -13    1    4    4    0    0  0.83629232297E+00  0.56791512046E+01 -0.87403907328E+01  0.10457424991E+02  0.10566000000E+00 0.  1.
         14    1    4    4    0    0 -0.24546429999E+00  0.34779723903E+01 -0.48925791983E+01  0.60078178968E+01  0.00000000000E+00 0. -1.
<mgrwt>
<rscale>  0 0.69402402E+02</rscale>
<asrwt>0</asrwt>
<pdfrwt beam="1">  1        2 0.63950157E-02 0.69402402E+02</pdfrwt>
<pdfrwt beam="2">  1       -1 0.44567747E-02 0.69402402E+02</pdfrwt>
<totfact> 0.21170407E+05</totfact>
</mgrwt>
</event>
<event>
 8    1  0.2603554E-024  0.7971976E+02  0.7818608E-02  0.1329849E+00
         -1   -1    0    0    0  501 -0.00000000000E+00  0.00000000000E+00  0.39901626593E+01  0.39901658423E+01  0.50400000000E-02 0.  1.
          2   -1    0    0  501    0  0.00000000000E+00 -0.00000000000E+00 -0.39818161015E+03  0.39818161016E+03  0.25500000000E-02 0. -1.
         24    2    1    2    0    0  0.00000000000E+00  0.35527136788E-14 -0.39419144749E+03  0.40217177600E+03  0.79719760013E+02 0.  0.
         66    2    3    3    0    0  0.18661496091E+02  0.27542644745E+02 -0.30774085661E+03  0.30954043928E+03  0.20000008906E+01 0.  0.
        -13    1    3    3    0    0 -0.18661496091E+02 -0.27542644745E+02 -0.86450590882E+02  0.92631336727E+02  0.10566000000E+00 0.  1.
         13    1    4    4    0    0  0.71822520760E+01  0.98695918402E+01 -0.11793296870E+03  0.11856302062E+03  0.10566000000E+00 0. -1.
        -13    1    4    4    0    0  0.33690900301E+01  0.58062650600E+01 -0.57030299221E+02  0.57424121020E+02  0.10566000000E+00 0.  1.
         14    1    4    4    0    0  0.81101539850E+01  0.11866787845E+02 -0.13277758869E+03  0.13355329764E+03  0.00000000000E+00 0. -1.
<mgrwt>
<rscale>  0 0.79719760E+02</rscale>
<asrwt>0</asrwt>
<pdfrwt beam="1">  1        2 0.61258678E-01 0.79719760E+02</pdfrwt>
<pdfrwt beam="2">  1       -1 0.61387174E-03 0.79719760E+02</pdfrwt>
<totfact> 0.28468356E+05</totfact>
</mgrwt>
</event>
<event>
 8    1  0.2603554E-024  0.7893502E+02  0.7818608E-02  0.1332101E+00
         -1   -1    0    0    0  501 -0.00000000000E+00  0.00000000000E+00  0.89784591553E+01  0.89784605698E+01  0.50400000000E-02 0.  1.
          2   -1    0    0  501    0  0.00000000000E+00 -0.00000000000E+00 -0.17349124416E+03  0.17349124418E+03  0.25500000000E-02 0. -1.
         24    2    1    2    0    0  0.00000000000E+00  0.44408920985E-15 -0.16451278501E+03  0.18246970475E+03  0.78935015812E+02 0.  0.
         66    2    3    3    0    0  0.38071313068E+02 -0.37040606525E+01 -0.10454585882E+03  0.11134173315E+03  0.19999999927E+01 0.  0.
        -13    1    3    3    0    0 -0.38071313068E+02  0.37040606525E+01 -0.59966926190E+02  0.71127971606E+02  0.10566000000E+00 0.  1.
         13    1    4    4    0    0  0.16519845182E+02 -0.88215330980E+00 -0.43897299519E+02  0.46911273149E+02  0.10566000000E+00 0. -1.
        -13    1    4    4    0    0  0.73675557948E+01 -0.10669712089E+01 -0.21806035621E+02  0.23041997732E+02  0.10566000000E+00 0.  1.
        -14    1    4    4    0    0  0.14183912091E+02 -0.17549361337E+01 -0.38842523679E+02  0.41388462267E+02  0.00000000000E+00 0.  1.
<mgrwt>
<rscale>  0 0.78935016E+02</rscale>
<asrwt>0</asrwt>
<pdfrwt beam="1">  1        2 0.26690958E-01 0.78935016E+02</pdfrwt>
<pdfrwt beam="2">  1       -1 0.13813016E-02 0.78935016E+02</pdfrwt>
<totfact> 0.21769532E+05</totfact>
</mgrwt>
</event>
<event>
 8    1  0.2603554E-024  0.7834676E+02  0.7818608E-02  0.1333810E+00
         -1   -1    0    0    0  501 -0.00000000000E+00  0.00000000000E+00  0.20585332046E+01  0.20585393744E+01  0.50400000000E-02 0.  1.
          2   -1    0    0  501    0  0.00000000000E+00 -0.00000000000E+00 -0.74545868176E+03  0.74545868176E+03  0.25500000000E-02 0. -1.
         24    2    1    2    0    0  0.00000000000E+00  0.00000000000E+00 -0.74340014855E+03  0.74751722114E+03  0.78346761432E+02 0.  0.
         66    2    3    3    0    0 -0.17077300228E+02 -0.28505380487E+02 -0.56941272317E+03  0.57038499297E+03  0.19999993801E+01 0.  0.
        -13    1    3    3    0    0  0.17077300228E+02  0.28505380487E+02 -0.17398742538E+03  0.17713222816E+03  0.10566000000E+00 0.  1.
         13    1    4    4    0    0 -0.58362357672E+00 -0.15583853490E+01 -0.31962060513E+02  0.32005525424E+02  0.10566000000E+00 0. -1.
        -13    1    4    4    0    0 -0.39577912058E+01 -0.67339942149E+01 -0.13998571952E+03  0.14020350788E+03  0.10566000000E+00 0.  1.
         14    1    4    4    0    0 -0.12535885446E+02 -0.20213000923E+02 -0.39746494315E+03  0.39817595967E+03  0.00000000000E+00 0. -1.
<mgrwt>
<rscale>  0 0.78346761E+02</rscale>
<asrwt>0</asrwt>
<pdfrwt beam="1">  1        2 0.11468574E+00 0.78346761E+02</pdfrwt>
<pdfrwt beam="2">  1       -1 0.31669849E-03 0.78346761E+02</pdfrwt>
<totfact> 0.35799908E+05</totfact>
</mgrwt>
</event>
<event>
 8    1  0.2603554E-024  0.8164666E+02  0.7818608E-02  0.1324442E+00
          2   -1    0    0  501    0  0.00000000000E+00  0.00000000000E+00  0.12345877653E+02  0.12345877916E+02  0.25500000000E-02 0. -1.
         -1   -1    0    0    0  501 -0.00000000000E+00 -0.00000000000E+00 -0.13498792823E+03  0.13498792833E+03  0.50400000000E-02 0.  1.
         24    2    1    2    0    0  0.00000000000E+00  0.35527136788E-14 -0.12264205058E+03  0.14733380624E+03  0.81646664914E+02 0.  0.
         66    2    3    3    0    0 -0.20693027086E+02 -0.30848577482E+02 -0.30909612729E+02  0.48365693091E+02  0.20000016158E+01 0.  0.
        -13    1    3    3    0    0  0.20693027086E+02  0.30848577482E+02 -0.91732437853E+02  0.98968113153E+02  0.10566000000E+00 0.  1.
         13    1    4    4    0    0 -0.14666432939E+02 -0.21424116151E+02 -0.21415312564E+02  0.33655962091E+02  0.10566000000E+00 0. -1.
        -13    1    4    4    0    0 -0.15415380751E+01 -0.23142410134E+01 -0.29571764559E+01  0.40605551015E+01  0.10566000000E+00 0.  1.
         14    1    4    4    0    0 -0.44850560723E+01 -0.71102203178E+01 -0.65371237089E+01  0.10649175899E+02  0.00000000000E+00 0. -1.
<mgrwt>
<rscale>  0 0.81646665E+02</rscale>
<asrwt>0</asrwt>
<pdfrwt beam="1">  1        2 0.18993659E-02 0.81646665E+02</pdfrwt>
<pdfrwt beam="2">  1       -1 0.20767373E-01 0.81646665E+02</pdfrwt>
<totfact> 0.10519193E+05</totfact>
</mgrwt>
</event>
<event>
 8    1  0.2603554E-024  0.7966614E+02  0.7818608E-02  0.1330002E+00
         -1   -1    0    0    0  501 -0.00000000000E+00  0.00000000000E+00  0.10580148354E+03  0.10580148366E+03  0.50400000000E-02 0.  1.
          2   -1    0    0  501    0  0.00000000000E+00 -0.00000000000E+00 -0.14996704110E+02  0.14996704326E+02  0.25500000000E-02 0. -1.
         24    2    1    2    0    0  0.00000000000E+00  0.00000000000E+00  0.90804779430E+02  0.12079818799E+03  0.79666142453E+02 0.  0.
         66    2    3    3    0    0 -0.22050622415E+02 -0.13712290777E+02 -0.32059835352E+00  0.26045338385E+02  0.20000002667E+01 0.  0.
        -13    1    3    3    0    0  0.22050622415E+02  0.13712290777E+02  0.91125377784E+02  0.94752849601E+02  0.10566000000E+00 0.  1.
         13    1    4    4    0    0 -0.12107772210E+02 -0.68768311195E+01 -0.50811262501E+00  0.13934069636E+02  0.10566000000E+00 0.  1.
        -13    1    4    4    0    0 -0.52480089100E+01 -0.34086334290E+01  0.58024842645E+00  0.62855573854E+01  0.10566000000E+00 0. -1.
        -14    1    4    4    0    0 -0.46948412946E+01 -0.34268262280E+01 -0.39273415496E+00  0.58257113638E+01  0.00000000000E+00 0.  1.
<mgrwt>
<rscale>  0 0.79666142E+02</rscale>
<asrwt>0</asrwt>
<pdfrwt beam="1">  1        2 0.23071852E-02 0.79666142E+02</pdfrwt>
<pdfrwt beam="2">  1       -1 0.16277152E-01 0.79666142E+02</pdfrwt>
<totfact> 0.11832305E+05</totfact>
</mgrwt>
</event>
<event>
 8    1  0.2603554E-024  0.8041644E+02  0.7818608E-02  0.1327874E+00
         -1   -1    0    0    0  501 -0.00000000000E+00  0.00000000000E+00  0.16007984633E+01  0.16008063973E+01  0.50400000000E-02 0.  1.
          2   -1    0    0  501    0  0.00000000000E+00 -0.00000000000E+00 -0.10099314839E+04  0.10099314839E+04  0.25500000000E-02 0. -1.
         24    2    1    2    0    0  0.35527136788E-14  0.00000000000E+00 -0.10083306855E+04  0.10115322903E+04  0.80416435681E+02 0.  0.
         66    2    3    3    0    0 -0.24900559725E+02  0.15193292528E+02 -0.85211729338E+03  0.85261876339E+03  0.20000000524E+01 0.  0.
        -13    1    3    3    0    0  0.24900559725E+02 -0.15193292528E+02 -0.15621339209E+03  0.15891352694E+03  0.10566000000E+00 0.  1.
         13    1    4    4    0    0 -0.10786934568E+02  0.60198419077E+01 -0.38292966576E+03  0.38312887719E+03  0.10566000000E+00 0. -1.
        -13    1    4    4    0    0 -0.36017977450E+01  0.25919632214E+01 -0.11970101129E+03  0.11978328134E+03  0.10566000000E+00 0.  1.
         14    1    4    4    0    0 -0.10511827411E+02  0.65814873984E+01 -0.34948661632E+03  0.34970660486E+03  0.00000000000E+00 0. -1.
<mgrwt>
<rscale>  0 0.80416436E+02</rscale>
<asrwt>0</asrwt>
<pdfrwt beam="1">  1        2 0.15537357E+00 0.80416436E+02</pdfrwt>
<pdfrwt beam="2">  1       -1 0.24627810E-03 0.80416436E+02</pdfrwt>
<totfact> 0.34772523E+05</totfact>
</mgrwt>
</event>
<event>
 8    1  0.2603554E-024  0.8015535E+02  0.7818608E-02  0.1328611E+00
         -1   -1    0    0    0  501 -0.00000000000E+00  0.00000000000E+00  0.25769634088E+02  0.25769634581E+02  0.50400000000E-02 0.  1.
          2   -1    0    0  501    0  0.00000000000E+00 -0.00000000000E+00 -0.62329943275E+02  0.62329943327E+02  0.25500000000E-02 0. -1.
         24    2    1    2    0    0  0.00000000000E+00  0.00000000000E+00 -0.36560309187E+02  0.88099577908E+02  0.80155345547E+02 0.  0.
         66    2    3    3    0    0 -0.20842101871E+02  0.13515282861E+02 -0.52824546741E+02  0.58407951674E+02  0.19999997971E+01 0.  0.
        -13    1    3    3    0    0  0.20842101871E+02 -0.13515282861E+02  0.16264237554E+02  0.29691626234E+02  0.10566000000E+00 0.  1.
         13    1    4    4    0    0 -0.96893042216E+01  0.67420005876E+01 -0.25170449151E+02  0.27801076647E+02  0.10566000000E+00 0. -1.
        -13    1    4    4    0    0 -0.20923193339E+01  0.73115302860E+00 -0.43197444548E+01  0.48563094152E+01  0.10566000000E+00 0.  1.
        -14    1    4    4    0    0 -0.90604783153E+01  0.60421292443E+01 -0.23334353135E+02  0.25750565612E+02  0.00000000000E+00 0.  1.
<mgrwt>
<rscale>  0 0.80155346E+02</rscale>
<asrwt>0</asrwt>
<pdfrwt beam="1">  1        2 0.95892220E-02 0.80155346E+02</pdfrwt>
<pdfrwt beam="2">  1       -1 0.39645592E-02 0.80155346E+02</pdfrwt>
<totfact> 0.15622114E+05</totfact>
</mgrwt>
</event>
<event>
 8    1  0.2603554E-024  0.8005571E+02  0.7818608E-02  0.1328893E+00
         -1   -1    0    0    0  501 -0.00000000000E+00  0.00000000000E+00  0.64863101303E+02  0.64863101498E+02  0.50400000000E-02 0.  1.
          2   -1    0    0  501    0  0.00000000000E+00 -0.00000000000E+00 -0.24701703411E+02  0.24701703543E+02  0.25500000000E-02 0. -1.
         24    2    1    2    0    0  0.00000000000E+00 -0.35527136788E-14  0.40161397891E+02  0.89564805041E+02  0.80055708238E+02 0.  0.
         66    2    3    3    0    0  0.16418398780E+02 -0.26825203459E+02 -0.75628517148E+01  0.32409135824E+02  0.19999999217E+01 0.  0.
        -13    1    3    3    0    0 -0.16418398780E+02  0.26825203459E+02  0.47724249606E+02  0.57155669217E+02  0.10566000000E+00 0.  1.
         13    1    4    4    0    0  0.88396395863E+01 -0.13017168936E+02 -0.36323776153E+01  0.16149032364E+02  0.10566000000E+00 0. -1.
        -13    1    4    4    0    0  0.50254043489E+00 -0.91247831930E+00 -0.47747660599E+00  0.11507873465E+01  0.10566000000E+00 0.  1.
         14    1    4    4    0    0  0.70762187591E+01 -0.12895556204E+02 -0.34529974934E+01  0.15109316114E+02  0.00000000000E+00 0. -1.
<mgrwt>
<rscale>  0 0.80055708E+02</rscale>
<asrwt>0</asrwt>
<pdfrwt beam="1">  1        2 0.38002622E-02 0.80055708E+02</pdfrwt>
<pdfrwt beam="2">  1       -1 0.99789385E-02 0.80055708E+02</pdfrwt>
<totfact> 0.12924140E+05</totfact>
</mgrwt>
</event>
<event>
 8    1  0.2603554E-024  0.7945342E+02  0.7818608E-02  0.1330610E+00
          2   -1    0    0  501    0  0.00000000000E+00  0.00000000000E+00  0.53024116672E+01  0.53024122803E+01  0.25500000000E-02 0. -1.
         -1   -1    0    0    0  501 -0.00000000000E+00 -0.00000000000E+00 -0.29764027265E+03  0.29764027269E+03  0.50400000000E-02 0.  1.
         24    2    1    2    0    0  0.00000000000E+00  0.44408920985E-15 -0.29233786098E+03  0.30294268497E+03  0.79453416633E+02 0.  0.
         66    2    3    3    0    0  0.36007533489E+02  0.32862039401E+01 -0.83741879192E+02  0.91236198564E+02  0.19999983865E+01 0.  0.
        -13    1    3    3    0    0 -0.36007533489E+02 -0.32862039401E+01 -0.20859598179E+03  0.21170648641E+03  0.10566000000E+00 0.  1.
         13    1    4    4    0    0  0.18672439863E+02  0.23742009880E+01 -0.43878723019E+02  0.47745683978E+02  0.10566000000E+00 0. -1.
        -13    1    4    4    0    0  0.93472225671E+01  0.86709060176E+00 -0.20717624923E+02  0.22745407500E+02  0.10566000000E+00 0.  1.
        -14    1    4    4    0    0  0.79878710592E+01  0.44912350355E-01 -0.19145531250E+02  0.20745107087E+02  0.00000000000E+00 0.  1.
<mgrwt>
<rscale>  0 0.79453417E+02</rscale>
<asrwt>0</asrwt>
<pdfrwt beam="1">  1        2 0.81575592E-03 0.79453417E+02</pdfrwt>
<pdfrwt beam="2">  1       -1 0.45790798E-01 0.79453417E+02</pdfrwt>
<totfact> 0.88245915E+04</totfact>
</mgrwt>
</event>
<event>
 8    1  0.2603554E-024  0.7931494E+02  0.7818608E-02  0.1331007E+00
         -1   -1    0    0    0  501 -0.00000000000E+00  0.00000000000E+00  0.25266198039E+02  0.25266198542E+02  0.50400000000E-02 0.  1.
          2   -1    0    0  501    0  0.00000000000E+00 -0.00000000000E+00 -0.62245805045E+02  0.62245805097E+02  0.25500000000E-02 0. -1.
         24    2    1    2    0    0  0.00000000000E+00 -0.35527136788E-14 -0.36979607006E+02  0.87512003639E+02  0.79314938358E+02 0.  0.
         66    2    3    3    0    0  0.10040327043E+02 -0.28810976882E+02 -0.46410555648E+02  0.55577155709E+02  0.20000012623E+01 0.  0.
        -13    1    3    3    0    0 -0.10040327043E+02  0.28810976882E+02  0.94309486428E+01  0.31934847931E+02  0.10566000000E+00 0.  1.
         13    1    4    4    0    0  0.74972266690E+00 -0.25884869016E+01 -0.36236804498E+01  0.45171420783E+01  0.10566000000E+00 0. -1.
        -13    1    4    4    0    0  0.21695062100E+01 -0.49483488750E+01 -0.74624619997E+01  0.92137080981E+01  0.10566000000E+00 0.  1.
         14    1    4    4    0    0  0.71210981661E+01 -0.21274141105E+02 -0.35324413199E+02  0.41846305532E+02  0.00000000000E+00 0. -1.
<mgrwt>
<rscale>  0 0.79314938E+02</rscale>
<asrwt>0</asrwt>
<pdfrwt beam="1">  1        2 0.95762777E-02 0.79314938E+02</pdfrwt>
<pdfrwt beam="2">  1       -1 0.38871075E-02 0.79314938E+02</pdfrwt>
<totfact> 0.16070712E+05</totfact>
</mgrwt>
</event>
<event>
 8    1  0.2603554E-024  0.8212069E+02  0.7818608E-02  0.1323139E+00
         -1   -1    0    0    0  501 -0.00000000000E+00  0.00000000000E+00  0.30934109040E+01  0.30934150098E+01  0.50400000000E-02 0.  1.
          2   -1    0    0  501    0  0.00000000000E+00 -0.00000000000E+00 -0.54501350478E+03  0.54501350479E+03  0.25500000000E-02 0. -1.
         24    2    1    2    0    0 -0.88817841970E-15  0.35527136788E-14 -0.54192009388E+03  0.54810691980E+03  0.82120687902E+02 0.  0.
         66    2    3    3    0    0  0.38117531899E+01 -0.28454780944E+02 -0.46682309172E+03  0.46770931462E+03  0.20000000218E+01 0.  0.
        -13    1    3    3    0    0 -0.38117531899E+01  0.28454780944E+02 -0.75097002163E+02  0.80397605181E+02  0.10566000000E+00 0.  1.
         13    1    4    4    0    0  0.26928026923E+01 -0.23627660871E+02 -0.38561184555E+03  0.38634443717E+03  0.10566000000E+00 0. -1.
        -13    1    4    4    0    0  0.10267062628E+01 -0.47373630776E+01 -0.80005967697E+02  0.80152746465E+02  0.10566000000E+00 0.  1.
        -14    1    4    4    0    0  0.92244234746E-01 -0.89756995159E-01 -0.12052784740E+01  0.12121309817E+01  0.00000000000E+00 0.  1.
<mgrwt>
<rscale>  0 0.82120688E+02</rscale>
<asrwt>0</asrwt>
<pdfrwt beam="1">  1        2 0.83848155E-01 0.82120688E+02</pdfrwt>
<pdfrwt beam="2">  1       -1 0.47591012E-03 0.82120688E+02</pdfrwt>
<totfact> 0.29214462E+05</totfact>
</mgrwt>
</event>
<event>
 8    1  0.2603554E-024  0.7945304E+02  0.7818608E-02  0.1330611E+00
          2   -1    0    0  501    0  0.00000000000E+00  0.00000000000E+00  0.40921968998E+03  0.40921968999E+03  0.25500000000E-02 0. -1.
         -1   -1    0    0    0  501 -0.00000000000E+00 -0.00000000000E+00 -0.38565981462E+01  0.38566014394E+01  0.50400000000E-02 0.  1.
         24    2    1    2    0    0  0.00000000000E+00  0.71054273576E-14  0.40536309183E+03  0.41307629143E+03  0.79453044739E+02 0.  0.
         66    2    3    3    0    0  0.31317378850E+01  0.35492716531E+02  0.29385162921E+03  0.29601067663E+03  0.19999941336E+01 0.  0.
        -13    1    3    3    0    0 -0.31317378850E+01 -0.35492716531E+02  0.11151146262E+03  0.11706561480E+03  0.10566000000E+00 0.  1.
         13    1    4    4    0    0  0.86910889926E+00  0.13221414808E+02  0.10270923026E+03  0.10356040896E+03  0.10566000000E+00 0. -1.
        -13    1    4    4    0    0  0.13600499547E+01  0.10652281719E+02  0.93723328367E+02  0.94336600987E+02  0.10566000000E+00 0.  1.
         14    1    4    4    0    0  0.90257903109E+00  0.11619020004E+02  0.97419070585E+02  0.98113666675E+02  0.00000000000E+00 0. -1.
<mgrwt>
<rscale>  0 0.79453045E+02</rscale>
<asrwt>0</asrwt>
<pdfrwt beam="1">  1        2 0.62956864E-01 0.79453045E+02</pdfrwt>
<pdfrwt beam="2">  1       -1 0.59332316E-03 0.79453045E+02</pdfrwt>
<totfact> 0.28993480E+05</totfact>
</mgrwt>
</event>
<event>
 8    1  0.2603554E-024  0.8086828E+02  0.7818608E-02  0.1326605E+00
         -1   -1    0    0    0  501 -0.00000000000E+00  0.00000000000E+00  0.31324259930E+02  0.31324260336E+02  0.50400000000E-02 0.  1.
          2   -1    0    0  501    0  0.00000000000E+00 -0.00000000000E+00 -0.52193402020E+02  0.52193402082E+02  0.25500000000E-02 0. -1.
         24    2    1    2    0    0  0.71054273576E-14  0.00000000000E+00 -0.20869142090E+02  0.83517662418E+02  0.80868280829E+02 0.  0.
         66    2    3    3    0    0 -0.36612811163E+02  0.88471627130E+00 -0.28077713799E+02  0.46191326752E+02  0.19999976938E+01 0.  0.
        -13    1    3    3    0    0  0.36612811163E+02 -0.88471627130E+00  0.72085717096E+01  0.37326335666E+02  0.10566000000E+00 0.  1.
         13    1    4    4    0    0 -0.17400914822E+02  0.33541682422E+00 -0.12451065012E+02  0.21399638433E+02  0.10566000000E+00 0. -1.
        -13    1    4    4    0    0 -0.52377898372E+01  0.24452438362E+00 -0.37130682551E+01  0.64259065085E+01  0.10566000000E+00 0.  1.
         14    1    4    4    0    0 -0.13974106503E+02  0.30477506346E+00 -0.11913580532E+02  0.18365781810E+02  0.00000000000E+00 0. -1.
<mgrwt>
<rscale>  0 0.80868281E+02</rscale>
<asrwt>0</asrwt>
<pdfrwt beam="1">  1        2 0.80297542E-02 0.80868281E+02</pdfrwt>
<pdfrwt beam="2">  1       -1 0.48191170E-02 0.80868281E+02</pdfrwt>
<totfact> 0.14645080E+05</totfact>
</mgrwt>
</event>
<event>
 8    1  0.2603554E-024  0.7942314E+02  0.7818608E-02  0.1330696E+00
         -1   -1    0    0    0  501 -0.00000000000E+00  0.00000000000E+00  0.23802444580E+02  0.23802445113E+02  0.50400000000E-02 0.  1.
          2   -1    0    0  501    0  0.00000000000E+00 -0.00000000000E+00 -0.66254064656E+02  0.66254064705E+02  0.25500000000E-02 0. -1.
         24    2    1    2    0    0  0.35527136788E-14  0.35527136788E-14 -0.42451620076E+02  0.90056509818E+02  0.79423138402E+02 0.  0.
         66    2    3    3    0    0  0.27824620351E+02  0.27718209370E+02 -0.27702874491E+02  0.48103616132E+02  0.20000003868E+01 0.  0.
        -13    1    3    3    0    0 -0.27824620351E+02 -0.27718209370E+02 -0.14748745585E+02  0.41952893687E+02  0.10566000000E+00 0.  1.
         13    1    4    4    0    0  0.14200992837E+02  0.13870985409E+02 -0.12924728152E+02  0.23688229052E+02  0.10566000000E+00 0. -1.
        -13    1    4    4    0    0  0.91400720415E+01  0.89033705405E+01 -0.97980150061E+01  0.16087982658E+02  0.10566000000E+00 0.  1.
        -14    1    4    4    0    0  0.44835554726E+01  0.49438534201E+01 -0.49801313328E+01  0.83274044220E+01  0.00000000000E+00 0.  1.
<mgrwt>
<rscale>  0 0.79423138E+02</rscale>
<asrwt>0</asrwt>
<pdfrwt beam="1">  1        2 0.10192933E-01 0.79423138E+02</pdfrwt>
<pdfrwt beam="2">  1       -1 0.36619146E-02 0.79423138E+02</pdfrwt>
<totfact> 0.16248866E+05</totfact>
</mgrwt>
</event>
<event>
 8    1  0.2603554E-024  0.7668004E+02  0.7818608E-02  0.1338746E+00
         -1   -1    0    0    0  501 -0.00000000000E+00  0.00000000000E+00  0.10002360758E+03  0.10002360771E+03  0.50400000000E-02 0.  1.
          2   -1    0    0  501    0  0.00000000000E+00 -0.00000000000E+00 -0.14696102952E+02  0.14696103174E+02  0.25500000000E-02 0. -1.
         24    2    1    2    0    0 -0.71054273576E-14 -0.17763568394E-14  0.85327504632E+02  0.11471971089E+03  0.76680043159E+02 0.  0.
         66    2    3    3    0    0 -0.37433732504E+02 -0.80754110745E+01  0.40887599244E+02  0.56056153645E+02  0.19999990779E+01 0.  0.
        -13    1    3    3    0    0  0.37433732504E+02  0.80754110745E+01  0.44439905388E+02  0.58663557241E+02  0.10566000000E+00 0.  1.
         13    1    4    4    0    0 -0.24708698428E+01 -0.63616584633E+00  0.21770435947E+01  0.33556799032E+01  0.10566000000E+00 0. -1.
        -13    1    4    4    0    0 -0.24400181705E+02 -0.49147234982E+01  0.27524192363E+02  0.37109509611E+02  0.10566000000E+00 0.  1.
         14    1    4    4    0    0 -0.10562680956E+02 -0.25245217300E+01  0.11186363287E+02  0.15590964131E+02  0.00000000000E+00 0. -1.
<mgrwt>
<rscale>  0 0.76680043E+02</rscale>
<asrwt>0</asrwt>
<pdfrwt beam="1">  1        2 0.22609389E-02 0.76680043E+02</pdfrwt>
<pdfrwt beam="2">  1       -1 0.15388247E-01 0.76680043E+02</pdfrwt>
<totfact> 0.13173222E+05</totfact>
</mgrwt>
</event>
<event>
 8    1  0.2603554E-024  0.7850125E+02  0.7818608E-02  0.1333359E+00
         -1   -1    0    0    0  501 -0.00000000000E+00  0.00000000000E+00  0.10396639311E+03  0.10396639324E+03  0.50400000000E-02 0.  1.
          2   -1    0    0  501    0  0.00000000000E+00 -0.00000000000E+00 -0.14818360450E+02  0.14818360670E+02  0.25500000000E-02 0. -1.
         24    2    1    2    0    0  0.00000000000E+00  0.00000000000E+00  0.89148032663E+02  0.11878475391E+03  0.78501248605E+02 0.  0.
         66    2    3    3    0    0  0.25306472760E+02 -0.57454347723E+01  0.94966378849E-01  0.26027612062E+02  0.19999966866E+01 0.  0.
        -13    1    3    3    0    0 -0.25306472760E+02  0.57454347723E+01  0.89053066284E+02  0.92757141843E+02  0.10566000000E+00 0.  1.
         13    1    4    4    0    0  0.36388660783E+01 -0.25755997551E+00  0.22345504957E+00  0.36563341849E+01  0.10566000000E+00 0. -1.
        -13    1    4    4    0    0  0.17808425209E+02 -0.45280413124E+01  0.24517660188E+00  0.18377008520E+02  0.10566000000E+00 0.  1.
        -14    1    4    4    0    0  0.38591814726E+01 -0.95983348433E+00 -0.37366527260E+00  0.39942693565E+01  0.00000000000E+00 0.  1.
<mgrwt>
<rscale>  0 0.78501249E+02</rscale>
<asrwt>0</asrwt>
<pdfrwt beam="1">  1        2 0.22797477E-02 0.78501249E+02</pdfrwt>
<pdfrwt beam="2">  1       -1 0.15994830E-01 0.78501249E+02</pdfrwt>
<totfact> 0.12322281E+05</totfact>
</mgrwt>
</event>
<event>
 8    1  0.2603554E-024  0.8097103E+02  0.7818608E-02  0.1326318E+00
         -1   -1    0    0    0  501 -0.00000000000E+00  0.00000000000E+00  0.26076578530E+03  0.26076578535E+03  0.50400000000E-02 0.  1.
          2   -1    0    0  501    0  0.00000000000E+00 -0.00000000000E+00 -0.62856277203E+01  0.62856282375E+01  0.25500000000E-02 0. -1.
         24    2    1    2    0    0  0.00000000000E+00  0.00000000000E+00  0.25448015758E+03  0.26705141359E+03  0.80971025044E+02 0.  0.
         66    2    3    3    0    0 -0.27653617957E+02 -0.19320272337E+02  0.53637648081E+02  0.63395526622E+02  0.19999986984E+01 0.  0.
        -13    1    3    3    0    0  0.27653617957E+02  0.19320272337E+02  0.20084250950E+03  0.20365588697E+03  0.10566000000E+00 0.  1.
         13    1    4    4    0    0 -0.14288177990E+02 -0.93043896726E+01  0.26165520323E+02  0.31230903209E+02  0.10566000000E+00 0. -1.
        -13    1    4    4    0    0 -0.29137313650E+01 -0.18412173869E+01  0.61571178822E+01  0.70569948692E+01  0.10566000000E+00 0.  1.
        -14    1    4    4    0    0 -0.10451708601E+02 -0.81746652777E+01  0.21315009876E+02  0.25107628544E+02  0.00000000000E+00 0.  1.
<mgrwt>
<rscale>  0 0.80971025E+02</rscale>
<asrwt>0</asrwt>
<pdfrwt beam="1">  1        2 0.96702007E-03 0.80971025E+02</pdfrwt>
<pdfrwt beam="2">  1       -1 0.40117798E-01 0.80971025E+02</pdfrwt>
<totfact> 0.88445546E+04</totfact>
</mgrwt>
</event>
<event>
 8    1  0.2603554E-024  0.7546083E+02  0.7818608E-02  0.1342450E+00
         -1   -1    0    0    0  501 -0.00000000000E+00  0.00000000000E+00  0.24282670673E+03  0.24282670678E+03  0.50400000000E-02 0.  1.
          2   -1    0    0  501    0  0.00000000000E+00 -0.00000000000E+00 -0.58625524200E+01  0.58625529746E+01  0.25500000000E-02 0. -1.
         24    2    1    2    0    0 -0.35527136788E-14  0.00000000000E+00  0.23696415431E+03  0.24868925976E+03  0.75460834150E+02 0.  0.
         66    2    3    3    0    0 -0.15353639718E+02 -0.30157115388E+02  0.63775306791E+02  0.72225172957E+02  0.19999978083E+01 0.  0.
        -13    1    3    3    0    0  0.15353639718E+02  0.30157115388E+02  0.17318884752E+03  0.17646408680E+03  0.10566000000E+00 0.  1.
         13    1    4    4    0    0 -0.89261143854E+01 -0.18611357314E+02  0.39555302164E+02  0.44617162981E+02  0.10566000000E+00 0. -1.
        -13    1    4    4    0    0 -0.10439092668E+01 -0.24135615983E+01  0.42554851755E+01  0.50035331777E+01  0.10566000000E+00 0.  1.
         14    1    4    4    0    0 -0.53836160663E+01 -0.91321964762E+01  0.19964519451E+02  0.22604476798E+02  0.00000000000E+00 0. -1.
<mgrwt>
<rscale>  0 0.75460834E+02</rscale>
<asrwt>0</asrwt>
<pdfrwt beam="1">  1        2 0.90193122E-03 0.75460834E+02</pdfrwt>
<pdfrwt beam="2">  1       -1 0.37357953E-01 0.75460834E+02</pdfrwt>
<totfact> 0.10858873E+05</totfact>
</mgrwt>
</event>
<event>
 8    1  0.2603554E-024  0.7763426E+02  0.7818608E-02  0.1335902E+00
         -1   -1    0    0    0  501 -0.00000000000E+00  0.00000000000E+00  0.65083972255E+01  0.65083991770E+01  0.50400000000E-02 0.  1.
          2   -1    0    0  501    0  0.00000000000E+00 -0.00000000000E+00 -0.23151159798E+03  0.23151159800E+03  0.25500000000E-02 0. -1.
         24    2    1    2    0    0 -0.17763568394E-14  0.71054273576E-14 -0.22500320076E+03  0.23801999717E+03  0.77634262434E+02 0.  0.
         66    2    3    3    0    0  0.14111009824E+02 -0.33486423212E+02 -0.15419843933E+03  0.15843490722E+03  0.19999992257E+01 0.  0.
        -13    1    3    3    0    0 -0.14111009824E+02  0.33486423212E+02 -0.70804761428E+02  0.79585089952E+02  0.10566000000E+00 0.  1.
         13    1    4    4    0    0  0.41161897620E+01 -0.91554300935E+01 -0.43036794078E+02  0.44192100277E+02  0.10566000000E+00 0.  1.
        -13    1    4    4    0    0  0.55785272449E+01 -0.13269370849E+02 -0.64247440537E+02  0.65840268442E+02  0.10566000000E+00 0. -1.
        -14    1    4    4    0    0  0.44162928173E+01 -0.11061622269E+02 -0.46914204713E+02  0.48402538501E+02  0.00000000000E+00 0.  1.
<mgrwt>
<rscale>  0 0.77634262E+02</rscale>
<asrwt>0</asrwt>
<pdfrwt beam="1">  1        2 0.35617163E-01 0.77634262E+02</pdfrwt>
<pdfrwt beam="2">  1       -1 0.10012922E-02 0.77634262E+02</pdfrwt>
<totfact> 0.25129190E+05</totfact>
</mgrwt>
</event>
<event>
 8    1  0.2603554E-024  0.7631558E+02  0.7818608E-02  0.1339845E+00
          2   -1    0    0  501    0  0.00000000000E+00  0.00000000000E+00  0.30359232278E+02  0.30359232385E+02  0.25500000000E-02 0. -1.
         -1   -1    0    0    0  501 -0.00000000000E+00 -0.00000000000E+00 -0.47959612998E+02  0.47959613263E+02  0.50400000000E-02 0.  1.
         24    2    1    2    0    0  0.00000000000E+00 -0.17763568394E-14 -0.17600380720E+02  0.78318845648E+02  0.76315582827E+02 0.  0.
         66    2    3    3    0    0 -0.13964421368E+01  0.15981142173E+02  0.26694683466E+02  0.31208222313E+02  0.20000146991E+01 0.  0.
        -13    1    3    3    0    0  0.13964421368E+01 -0.15981142173E+02 -0.44295064185E+02  0.47110623335E+02  0.10566000000E+00 0.  1.
         13    1    4    4    0    0 -0.24414615654E+00  0.23203109808E+01  0.47365836125E+01  0.52810831037E+01  0.10566000000E+00 0.  1.
        -13    1    4    4    0    0 -0.50448313903E+00  0.10007828469E+02  0.14955819686E+02  0.18002745358E+02  0.10566000000E+00 0. -1.
         14    1    4    4    0    0 -0.64781284117E+00  0.36530027239E+01  0.70022801669E+01  0.79243938516E+01  0.00000000000E+00 0. -1.
<mgrwt>
<rscale>  0 0.76315583E+02</rscale>
<asrwt>0</asrwt>
<pdfrwt beam="1">  1        2 0.46706512E-02 0.76315583E+02</pdfrwt>
<pdfrwt beam="2">  1       -1 0.73784020E-02 0.76315583E+02</pdfrwt>
<totfact> 0.15383059E+05</totfact>
</mgrwt>
</event>
<event>
 8    1  0.2603554E-024  0.7751621E+02  0.7818608E-02  0.1336252E+00
         -1   -1    0    0    0  501 -0.00000000000E+00  0.00000000000E+00  0.18112683484E+01  0.18112753605E+01  0.50400000000E-02 0.  1.
          2   -1    0    0  501    0  0.00000000000E+00 -0.00000000000E+00 -0.82935692062E+03  0.82935692062E+03  0.25500000000E-02 0. -1.
         24    2    1    2    0    0  0.00000000000E+00  0.17763568394E-14 -0.82754565227E+03  0.83116819598E+03  0.77516213932E+02 0.  0.
         66    2    3    3    0    0  0.22278184956E+02 -0.13621250993E+02 -0.72078056026E+03  0.72125617645E+03  0.20000009135E+01 0.  0.
        -13    1    3    3    0    0 -0.22278184956E+02  0.13621250993E+02 -0.10676509201E+03  0.10991201954E+03  0.10566000000E+00 0.  1.
         13    1    4    4    0    0  0.10802835554E+02 -0.57980364926E+01 -0.34790425557E+03  0.34812023884E+03  0.10566000000E+00 0. -1.
        -13    1    4    4    0    0  0.67899795037E+01 -0.46675098257E+01 -0.23271262881E+03  0.23285847256E+03  0.10566000000E+00 0.  1.
        -14    1    4    4    0    0  0.46853698986E+01 -0.31557046747E+01 -0.14016367589E+03  0.14027746505E+03  0.00000000000E+00 0.  1.
<mgrwt>
<rscale>  0 0.77516214E+02</rscale>
<asrwt>0</asrwt>
<pdfrwt beam="1">  1        2 0.12759307E+00 0.77516214E+02</pdfrwt>
<pdfrwt beam="2">  1       -1 0.27865787E-03 0.77516214E+02</pdfrwt>
<totfact> 0.37515027E+05</totfact>
</mgrwt>
</event>
<event>
 8    1  0.2603554E-024  0.8137308E+02  0.7818608E-02  0.1325199E+00
          2   -1    0    0  501    0  0.00000000000E+00  0.00000000000E+00  0.29122788312E+02  0.29122788424E+02  0.25500000000E-02 0. -1.
         -1   -1    0    0    0  501 -0.00000000000E+00 -0.00000000000E+00 -0.56841890674E+02  0.56841890897E+02  0.50400000000E-02 0.  1.
         24    2    1    2    0    0 -0.35527136788E-14  0.35527136788E-14 -0.27719102362E+02  0.85964679321E+02  0.81373075738E+02 0.  0.
         66    2    3    3    0    0 -0.13176649211E+02  0.27129669504E+02  0.14942662077E+02  0.33718336283E+02  0.19999999870E+01 0.  0.
        -13    1    3    3    0    0  0.13176649211E+02 -0.27129669504E+02 -0.42661764439E+02  0.52246343038E+02  0.10566000000E+00 0.  1.
         13    1    4    4    0    0 -0.77828967386E+01  0.17855771570E+02  0.96611163451E+01  0.21742823944E+02  0.10566000000E+00 0. -1.
        -13    1    4    4    0    0 -0.16705078173E+01  0.25944793570E+01  0.17918806075E+01  0.35698626932E+01  0.10566000000E+00 0.  1.
         14    1    4    4    0    0 -0.37232446548E+01  0.66794185764E+01  0.34896651244E+01  0.84056496453E+01  0.00000000000E+00 0. -1.
<mgrwt>
<rscale>  0 0.81373076E+02</rscale>
<asrwt>0</asrwt>
<pdfrwt beam="1">  1        2 0.44804290E-02 0.81373076E+02</pdfrwt>
<pdfrwt beam="2">  1       -1 0.87449063E-02 0.81373076E+02</pdfrwt>
<totfact> 0.12751782E+05</totfact>
</mgrwt>
</event>
<event>
 8    1  0.2603554E-024  0.7802481E+02  0.7818608E-02  0.1334752E+00
          2   -1    0    0  501    0  0.00000000000E+00  0.00000000000E+00  0.58242713287E+03  0.58242713288E+03  0.25500000000E-02 0. -1.
         -1   -1    0    0    0  501 -0.00000000000E+00 -0.00000000000E+00 -0.26131449156E+01  0.26131497759E+01  0.50400000000E-02 0.  1.
         24    2    1    2    0    0 -0.17763568394E-14  0.35527136788E-14  0.57981398796E+03  0.58504028265E+03  0.78024814625E+02 0.  0.
         66    2    3    3    0    0  0.11802632290E+02 -0.11506665828E+02  0.55501107092E+03  0.55525939373E+03  0.19999989421E+01 0.  0.
        -13    1    3    3    0    0 -0.11802632290E+02  0.11506665828E+02  0.24802917039E+02  0.29780888925E+02  0.10566000000E+00 0.  1.
         13    1    4    4    0    0  0.81068631859E+01 -0.82400743903E+01  0.36298427626E+03  0.36316830263E+03  0.10566000000E+00 0. -1.
        -13    1    4    4    0    0  0.76035335082E+00 -0.56115776284E+00  0.45448114098E+02  0.45458060609E+02  0.10566000000E+00 0.  1.
         14    1    4    4    0    0  0.29354157536E+01 -0.27054336750E+01  0.14657868056E+03  0.14663303049E+03  0.00000000000E+00 0. -1.
<mgrwt>
<rscale>  0 0.78024815E+02</rscale>
<asrwt>0</asrwt>
<pdfrwt beam="1">  1        2 0.89604308E-01 0.78024815E+02</pdfrwt>
<pdfrwt beam="2">  1       -1 0.40202207E-03 0.78024815E+02</pdfrwt>
<totfact> 0.34036325E+05</totfact>
</mgrwt>
</event>
<event>
 8    1  0.2603554E-024  0.8049404E+02  0.7818608E-02  0.1327655E+00
          2   -1    0    0  501    0  0.00000000000E+00  0.00000000000E+00  0.17416119978E+02  0.17416120165E+02  0.25500000000E-02 0. -1.
         -1   -1    0    0    0  501 -0.00000000000E+00 -0.00000000000E+00 -0.93007090503E+02  0.93007090640E+02  0.50400000000E-02 0.  1.
         24    2    1    2    0    0  0.00000000000E+00  0.00000000000E+00 -0.75590970525E+02  0.11042321080E+03  0.80494041143E+02 0.  0.
         66    2    3    3    0    0  0.31374544349E+02  0.63278807927E+01 -0.44011428603E+01  0.32369339437E+02  0.19999921628E+01 0.  0.
        -13    1    3    3    0    0 -0.31374544349E+02 -0.63278807927E+01 -0.71189827665E+02  0.78053871368E+02  0.10566000000E+00 0.  1.
         13    1    4    4    0    0  0.12875912665E+02  0.30428367303E+01 -0.25699124282E+01  0.13478263844E+02  0.10566000000E+00 0. -1.
        -13    1    4    4    0    0  0.67894376030E+01  0.15096152833E+01 -0.84151628413E+00  0.70067620882E+01  0.10566000000E+00 0. -1.
         14    1    4    4    0    0  0.11709194081E+02  0.17754287790E+01 -0.98971414789E+00  0.11884313505E+02  0.00000000000E+00 0. -1.
<mgrwt>
<rscale>  0 0.80494041E+02</rscale>
<asrwt>0</asrwt>
<pdfrwt beam="1">  1        2 0.26794031E-02 0.80494041E+02</pdfrwt>
<pdfrwt beam="2">  1       -1 0.14308783E-01 0.80494041E+02</pdfrwt>
<totfact> 0.11853831E+05</totfact>
</mgrwt>
</event>
<event>
 8    1  0.2603554E-024  0.7970982E+02  0.7818608E-02  0.1329877E+00
         -1   -1    0    0    0  501 -0.00000000000E+00  0.00000000000E+00  0.65554982999E+01  0.65555002373E+01  0.50400000000E-02 0.  1.
          2   -1    0    0  501    0  0.00000000000E+00 -0.00000000000E+00 -0.24230249611E+03  0.24230249612E+03  0.25500000000E-02 0. -1.
         24    2    1    2    0    0 -0.17763568394E-14 -0.35527136788E-14 -0.23574699781E+03  0.24885799636E+03  0.79709819822E+02 0.  0.
         66    2    3    3    0    0 -0.14995188993E+02 -0.15604744256E+02 -0.22234003514E+03  0.22339976492E+03  0.20000002395E+01 0.  0.
        -13    1    3    3    0    0  0.14995188993E+02  0.15604744256E+02 -0.13406962663E+02  0.25458231441E+02  0.10566000000E+00 0.  1.
         13    1    4    4    0    0 -0.70171642287E+01 -0.81766984122E+01 -0.10647280910E+03  0.10701667736E+03  0.10566000000E+00 0. -1.
        -13    1    4    4    0    0 -0.34266426460E+01 -0.31069497961E+01 -0.54341805593E+02  0.54538408631E+02  0.10566000000E+00 0. -1.
        -14    1    4    4    0    0 -0.45513821179E+01 -0.43210960472E+01 -0.61525420449E+02  0.61844678927E+02  0.00000000000E+00 0.  1.
<mgrwt>
<rscale>  0 0.79709820E+02</rscale>
<asrwt>0</asrwt>
<pdfrwt beam="1">  1        2 0.37277300E-01 0.79709820E+02</pdfrwt>
<pdfrwt beam="2">  1       -1 0.10085385E-02 0.79709820E+02</pdfrwt>
<totfact> 0.23829500E+05</totfact>
</mgrwt>
</event>
<event>
 8    1  0.2603554E-024  0.7996100E+02  0.7818608E-02  0.1329162E+00
         -1   -1    0    0    0  501 -0.00000000000E+00  0.00000000000E+00  0.18182416786E+02  0.18182417485E+02  0.50400000000E-02 0.  1.
          2   -1    0    0  501    0  0.00000000000E+00 -0.00000000000E+00 -0.87911324170E+02  0.87911324207E+02  0.25500000000E-02 0. -1.
         24    2    1    2    0    0  0.17763568394E-14  0.00000000000E+00 -0.69728907384E+02  0.10609374169E+03  0.79960999876E+02 0.  0.
         66    2    3    3    0    0  0.12801297589E+02 -0.28909466626E+02 -0.67299840518E+02  0.74383459283E+02  0.20000001185E+01 0.  0.
        -13    1    3    3    0    0 -0.12801297589E+02  0.28909466626E+02 -0.24290668653E+01  0.31710282409E+02  0.10566000000E+00 0.  1.
         13    1    4    4    0    0  0.36733040614E+01 -0.66081708479E+01 -0.15568816295E+02  0.17307810074E+02  0.10566000000E+00 0.  1.
        -13    1    4    4    0    0  0.38066325398E+01 -0.86293647899E+01 -0.19382363217E+02  0.21555592218E+02  0.10566000000E+00 0. -1.
        -14    1    4    4    0    0  0.53213609878E+01 -0.13671930989E+02 -0.32348661006E+02  0.35520056991E+02  0.00000000000E+00 0.  1.
<mgrwt>
<rscale>  0 0.79961000E+02</rscale>
<asrwt>0</asrwt>
<pdfrwt beam="1">  1        2 0.13524819E-01 0.79961000E+02</pdfrwt>
<pdfrwt beam="2">  1       -1 0.27972950E-02 0.79961000E+02</pdfrwt>
<totfact> 0.17135232E+05</totfact>
</mgrwt>
</event>
<event>
 8    1  0.2603554E-024  0.8148866E+02  0.7818608E-02  0.1324879E+00
         -1   -1    0    0    0  501 -0.00000000000E+00  0.00000000000E+00  0.20166216852E+01  0.20166279833E+01  0.50400000000E-02 0.  1.
          2   -1    0    0  501    0  0.00000000000E+00 -0.00000000000E+00 -0.82320734317E+03  0.82320734317E+03  0.25500000000E-02 0. -1.
         24    2    1    2    0    0  0.00000000000E+00  0.22204460493E-15 -0.82119072148E+03  0.82522397115E+03  0.81488658841E+02 0.  0.
         66    2    3    3    0    0  0.11614056378E+02 -0.18976039671E+01 -0.80560867153E+03  0.80569710118E+03  0.19999982577E+01 0.  0.
        -13    1    3    3    0    0 -0.11614056378E+02  0.18976039671E+01 -0.15582049946E+02  0.19526869973E+02  0.10566000000E+00 0.  1.
         13    1    4    4    0    0  0.18466452772E+01 -0.29984292377E+00 -0.12744520725E+03  0.12745898171E+03  0.10566000000E+00 0. -1.
        -13    1    4    4    0    0  0.87316438882E+01 -0.92029474281E+00 -0.57100730723E+03  0.57107481525E+03  0.10566000000E+00 0.  1.
        -14    1    4    4    0    0  0.10357672123E+01 -0.67746630057E+00 -0.10715615706E+03  0.10716330422E+03  0.00000000000E+00 0.  1.
<mgrwt>
<rscale>  0 0.81488659E+02</rscale>
<asrwt>0</asrwt>
<pdfrwt beam="1">  1        2 0.12664702E+00 0.81488659E+02</pdfrwt>
<pdfrwt beam="2">  1       -1 0.31025063E-03 0.81488659E+02</pdfrwt>
<totfact> 0.32912674E+05</totfact>
</mgrwt>
</event>
<event>
 8    1  0.2603554E-024  0.8128575E+02  0.7818608E-02  0.1325442E+00
         -1   -1    0    0    0  501 -0.00000000000E+00  0.00000000000E+00  0.24600142161E+02  0.24600142678E+02  0.50400000000E-02 0.  1.
          2   -1    0    0  501    0  0.00000000000E+00 -0.00000000000E+00 -0.67147708482E+02  0.67147708531E+02  0.25500000000E-02 0. -1.
         24    2    1    2    0    0  0.00000000000E+00  0.00000000000E+00 -0.42547566321E+02  0.91747851208E+02  0.81285747838E+02 0.  0.
         66    2    3    3    0    0  0.36283872882E+02  0.58654639173E+01 -0.40801036895E+02  0.54951321109E+02  0.19999954046E+01 0.  0.
        -13    1    3    3    0    0 -0.36283872882E+02 -0.58654639173E+01 -0.17465294253E+01  0.36796530099E+02  0.10566000000E+00 0.  1.
         13    1    4    4    0    0  0.18814362198E+01  0.19662193278E+00 -0.18688374399E+01  0.26612365257E+01  0.10566000000E+00 0. -1.
        -13    1    4    4    0    0  0.91703747618E+01  0.85757326099E+00 -0.97327182892E+01  0.13400305015E+02  0.10566000000E+00 0.  1.
         14    1    4    4    0    0  0.25232061900E+02  0.48112687235E+01 -0.29199481166E+02  0.38889779568E+02  0.00000000000E+00 0. -1.
<mgrwt>
<rscale>  0 0.81285748E+02</rscale>
<asrwt>0</asrwt>
<pdfrwt beam="1">  1        2 0.10330417E-01 0.81285748E+02</pdfrwt>
<pdfrwt beam="2">  1       -1 0.37846373E-02 0.81285748E+02</pdfrwt>
<totfact> 0.15307781E+05</totfact>
</mgrwt>
</event>
<event>
 8    1  0.2603554E-024  0.7875889E+02  0.7818608E-02  0.1332611E+00
          2   -1    0    0  501    0  0.00000000000E+00  0.00000000000E+00  0.11294630479E+03  0.11294630482E+03  0.25500000000E-02 0. -1.
         -1   -1    0    0    0  501 -0.00000000000E+00 -0.00000000000E+00 -0.13729891304E+02  0.13729892229E+02  0.50400000000E-02 0.  1.
         24    2    1    2    0    0  0.00000000000E+00  0.00000000000E+00  0.99216413488E+02  0.12667619705E+03  0.78758886441E+02 0.  0.
         66    2    3    3    0    0  0.64647017167E+00  0.28547508746E+02  0.93196639851E+02  0.97493547787E+02  0.20000003123E+01 0.  0.
        -13    1    3    3    0    0 -0.64647017167E+00 -0.28547508746E+02  0.60197736370E+01  0.29182649262E+02  0.10566000000E+00 0.  1.
         13    1    4    4    0    0 -0.99399825855E-01  0.21416809098E+01  0.71027205865E+01  0.74200054724E+01  0.10566000000E+00 0.  1.
        -13    1    4    4    0    0  0.44716916966E+00  0.21353067783E+02  0.67128088648E+02  0.70443913247E+02  0.10566000000E+00 0. -1.
        -14    1    4    4    0    0  0.29870082786E+00  0.50527600526E+01  0.18965830617E+02  0.19629629067E+02  0.00000000000E+00 0.  1.
<mgrwt>
<rscale>  0 0.78758886E+02</rscale>
<asrwt>0</asrwt>
<pdfrwt beam="1">  1        2 0.17376354E-01 0.78758886E+02</pdfrwt>
<pdfrwt beam="2">  1       -1 0.21122911E-02 0.78758886E+02</pdfrwt>
<totfact> 0.19136532E+05</totfact>
</mgrwt>
</event>
<event>
 8    1  0.2603554E-024  0.7992099E+02  0.7818608E-02  0.1329276E+00
         -1   -1    0    0    0  501 -0.00000000000E+00  0.00000000000E+00  0.47540810449E+01  0.47540837165E+01  0.50400000000E-02 0.  1.
          2   -1    0    0  501    0  0.00000000000E+00 -0.00000000000E+00 -0.33588842863E+03  0.33588842864E+03  0.25500000000E-02 0. -1.
         24    2    1    2    0    0 -0.11102230246E-15  0.00000000000E+00 -0.33113434758E+03  0.34064251235E+03  0.79920992697E+02 0.  0.
         66    2    3    3    0    0 -0.10056643058E+00  0.22594888821E+02 -0.30602048056E+03  0.30686002288E+03  0.20000005804E+01 0.  0.
        -13    1    3    3    0    0  0.10056643058E+00 -0.22594888821E+02 -0.25113867019E+02  0.33782489475E+02  0.10566000000E+00 0.  1.
         13    1    4    4    0    0  0.35800397577E+00  0.12420050069E+02 -0.16445178398E+03  0.16492054520E+03  0.10566000000E+00 0. -1.
        -13    1    4    4    0    0  0.24410125168E+00  0.72848541234E+00 -0.96194972641E+01  0.96507081640E+01  0.10566000000E+00 0. -1.
         14    1    4    4    0    0 -0.70267165804E+00  0.94463533400E+01 -0.13194919932E+03  0.13228876951E+03  0.00000000000E+00 0. -1.
<mgrwt>
<rscale>  0 0.79920993E+02</rscale>
<asrwt>0</asrwt>
<pdfrwt beam="1">  1        2 0.51675124E-01 0.79920993E+02</pdfrwt>
<pdfrwt beam="2">  1       -1 0.73139756E-03 0.79920993E+02</pdfrwt>
<totfact> 0.26624142E+05</totfact>
</mgrwt>
</event>
<event>
 8    1  0.2603554E-024  0.8033657E+02  0.7818608E-02  0.1328099E+00
         -1   -1    0    0    0  501 -0.00000000000E+00  0.00000000000E+00  0.92822830600E+01  0.92822844282E+01  0.50400000000E-02 0.  1.
          2   -1    0    0  501    0  0.00000000000E+00 -0.00000000000E+00 -0.17382479786E+03  0.17382479788E+03  0.25500000000E-02 0. -1.
         24    2    1    2    0    0  0.71054273576E-14  0.00000000000E+00 -0.16454251480E+03  0.18310708231E+03  0.80336569595E+02 0.  0.
         66    2    3    3    0    0  0.33905971164E+02  0.20055365399E+02 -0.64718155508E+02  0.75790977113E+02  0.19999993786E+01 0.  0.
        -13    1    3    3    0    0 -0.33905971164E+02 -0.20055365399E+02 -0.99824359294E+02  0.10731610520E+03  0.10566000000E+00 0.  1.
         13    1    4    4    0    0  0.16529430720E+02  0.98466777279E+01 -0.31371177009E+02  0.36801372980E+02  0.10566000000E+00 0. -1.
        -13    1    4    4    0    0  0.15447092107E+02  0.92719788311E+01 -0.30521433153E+02  0.35442224701E+02  0.10566000000E+00 0.  1.
        -14    1    4    4    0    0  0.19294483369E+01  0.93670884045E+00 -0.28255453458E+01  0.35473794324E+01  0.00000000000E+00 0.  1.
<mgrwt>
<rscale>  0 0.80336570E+02</rscale>
<asrwt>0</asrwt>
<pdfrwt beam="1">  1        2 0.26742274E-01 0.80336570E+02</pdfrwt>
<pdfrwt beam="2">  1       -1 0.14280438E-02 0.80336570E+02</pdfrwt>
<totfact> 0.20792921E+05</totfact>
</mgrwt>
</event>
<event>
 8    1  0.2603554E-024  0.8014552E+02  0.7818608E-02  0.1328639E+00
         -1   -1    0    0    0  501 -0.00000000000E+00  0.00000000000E+00  0.11684843471E+02  0.11684844558E+02  0.50400000000E-02 0.  1.
          2   -1    0    0  501    0  0.00000000000E+00 -0.00000000000E+00 -0.13742811996E+03  0.13742811998E+03  0.25500000000E-02 0. -1.
         24    2    1    2    0    0 -0.35527136788E-14  0.00000000000E+00 -0.12574327648E+03  0.14911296454E+03  0.80145521473E+02 0.  0.
         66    2    3    3    0    0  0.29688194732E+02  0.21617381449E+02 -0.92627980458E+02  0.99662645205E+02  0.19999996412E+01 0.  0.
        -13    1    3    3    0    0 -0.29688194732E+02 -0.21617381449E+02 -0.33115296027E+02  0.49450319333E+02  0.10566000000E+00 0.  1.
         13    1    4    4    0    0  0.13946270224E+02  0.10649119962E+02 -0.43426103378E+02  0.46837376397E+02  0.10566000000E+00 0. -1.
        -13    1    4    4    0    0  0.14519803955E+02  0.98038065126E+01 -0.44169394842E+02  0.47517217235E+02  0.10566000000E+00 0.  1.
         14    1    4    4    0    0  0.12221205523E+01  0.11644549738E+01 -0.50324822382E+01  0.53080515736E+01  0.00000000000E+00 0. -1.
<mgrwt>
<rscale>  0 0.80145521E+02</rscale>
<asrwt>0</asrwt>
<pdfrwt beam="1">  1        2 0.21142787E-01 0.80145521E+02</pdfrwt>
<pdfrwt beam="2">  1       -1 0.17976684E-02 0.80145521E+02</pdfrwt>
<totfact> 0.19386272E+05</totfact>
</mgrwt>
</event>
<event>
 8    1  0.2603554E-024  0.7811092E+02  0.7818608E-02  0.1334499E+00
          2   -1    0    0  501    0  0.00000000000E+00  0.00000000000E+00  0.71368092966E+01  0.71368097521E+01  0.25500000000E-02 0. -1.
         -1   -1    0    0    0  501 -0.00000000000E+00 -0.00000000000E+00 -0.21372702538E+03  0.21372702544E+03  0.50400000000E-02 0.  1.
         24    2    1    2    0    0 -0.71054273576E-14  0.17763568394E-14 -0.20659021609E+03  0.22086383519E+03  0.78110923143E+02 0.  0.
         66    2    3    3    0    0 -0.32578111128E+02  0.14255073275E+02 -0.57876266112E+02  0.67957358812E+02  0.19999997253E+01 0.  0.
        -13    1    3    3    0    0  0.32578111128E+02 -0.14255073275E+02 -0.14871394997E+03  0.15290647638E+03  0.10566000000E+00 0.  1.
         13    1    4    4    0    0 -0.75736367494E+01  0.28414781192E+01 -0.12853602941E+02  0.15187502892E+02  0.10566000000E+00 0. -1.
        -13    1    4    4    0    0 -0.98356938756E+01  0.41799045535E+01 -0.16273536429E+02  0.19469248266E+02  0.10566000000E+00 0.  1.
        -14    1    4    4    0    0 -0.15168780503E+02  0.72336906019E+01 -0.28749126742E+02  0.33300607654E+02  0.00000000000E+00 0.  1.
<mgrwt>
<rscale>  0 0.78110923E+02</rscale>
<asrwt>0</asrwt>
<pdfrwt beam="1">  1        2 0.10979709E-02 0.78110923E+02</pdfrwt>
<pdfrwt beam="2">  1       -1 0.32881076E-01 0.78110923E+02</pdfrwt>
<totfact> 0.10370560E+05</totfact>
</mgrwt>
</event>
<event>
 8    1  0.2603554E-024  0.8194993E+02  0.7818608E-02  0.1323607E+00
          2   -1    0    0  501    0  0.00000000000E+00  0.00000000000E+00  0.24983368502E+03  0.24983368503E+03  0.25500000000E-02 0. -1.
         -1   -1    0    0    0  501 -0.00000000000E+00 -0.00000000000E+00 -0.67202608270E+01  0.67202627169E+01  0.50400000000E-02 0.  1.
         24    2    1    2    0    0  0.35527136788E-14  0.00000000000E+00  0.24311342419E+03  0.25655394775E+03  0.81949930342E+02 0.  0.
         66    2    3    3    0    0  0.27163820795E+02  0.40938723193E+01  0.21670439172E+03  0.21844776569E+03  0.19999986458E+01 0.  0.
        -13    1    3    3    0    0 -0.27163820795E+02 -0.40938723193E+01  0.26409032472E+02  0.38106182056E+02  0.10566000000E+00 0.  1.
         13    1    4    4    0    0  0.16732409067E+02  0.25905863414E+01  0.13826893225E+03  0.13930180703E+03  0.10566000000E+00 0. -1.
        -13    1    4    4    0    0  0.25396115187E+01  0.40142607223E+00  0.16356831610E+02  0.16558015397E+02  0.10566000000E+00 0.  1.
        -14    1    4    4    0    0  0.78918002099E+01  0.11018599057E+01  0.62078627854E+02  0.62587943264E+02  0.00000000000E+00 0.  1.
<mgrwt>
<rscale>  0 0.81949930E+02</rscale>
<asrwt>0</asrwt>
<pdfrwt beam="1">  1        2 0.38435952E-01 0.81949930E+02</pdfrwt>
<pdfrwt beam="2">  1       -1 0.10338864E-02 0.81949930E+02</pdfrwt>
<totfact> 0.22397003E+05</totfact>
</mgrwt>
</event>
<event>
 8    1  0.2603554E-024  0.7019783E+02  0.7818608E-02  0.1359422E+00
          2   -1    0    0  501    0  0.00000000000E+00  0.00000000000E+00  0.83049957775E+02  0.83049957815E+02  0.25500000000E-02 0. -1.
         -1   -1    0    0    0  501 -0.00000000000E+00 -0.00000000000E+00 -0.14833649142E+02  0.14833649999E+02  0.50400000000E-02 0.  1.
         24    2    1    2    0    0  0.17763568394E-14 -0.35527136788E-14  0.68216308633E+02  0.97883607813E+02  0.70197834119E+02 0.  0.
         66    2    3    3    0    0  0.13759227987E+02 -0.16716438736E+02  0.72606286912E+02  0.75792008683E+02  0.20000005746E+01 0.  0.
        -13    1    3    3    0    0 -0.13759227987E+02  0.16716438736E+02 -0.43899782785E+01  0.22091599130E+02  0.10566000000E+00 0.  1.
         13    1    4    4    0    0  0.10091897808E+02 -0.12306719208E+02  0.53040169873E+02  0.55376642397E+02  0.10566000000E+00 0. -1.
        -13    1    4    4    0    0  0.13258380756E+00 -0.41323725786E-02  0.40480909912E+00  0.43889632587E+00  0.10566000000E+00 0.  1.
        -14    1    4    4    0    0  0.35347463716E+01 -0.44055871553E+01  0.19161307940E+02  0.19976469960E+02  0.00000000000E+00 0.  1.
<mgrwt>
<rscale>  0 0.70197834E+02</rscale>
<asrwt>0</asrwt>
<pdfrwt beam="1">  1        2 0.12776916E-01 0.70197834E+02</pdfrwt>
<pdfrwt beam="2">  1       -1 0.22821000E-02 0.70197834E+02</pdfrwt>
<totfact> 0.23892202E+05</totfact>
</mgrwt>
</event>
<event>
 8    1  0.2603554E-024  0.7862250E+02  0.7818608E-02  0.1333007E+00
          2   -1    0    0  501    0  0.00000000000E+00  0.00000000000E+00  0.36215383571E+02  0.36215383661E+02  0.25500000000E-02 0. -1.
         -1   -1    0    0    0  501 -0.00000000000E+00 -0.00000000000E+00 -0.42671760885E+02  0.42671761183E+02  0.50400000000E-02 0.  1.
         24    2    1    2    0    0  0.35527136788E-14  0.00000000000E+00 -0.64563773145E+01  0.78887144844E+02  0.78622495595E+02 0.  0.
         66    2    3    3    0    0  0.20963644425E+02 -0.31070234841E+02  0.85794526842E+01  0.38502479085E+02  0.20000016627E+01 0.  0.
        -13    1    3    3    0    0 -0.20963644425E+02  0.31070234841E+02 -0.15035829999E+02  0.40384665759E+02  0.10566000000E+00 0.  1.
         13    1    4    4    0    0  0.70400759801E+01 -0.11078020928E+02  0.23286850519E+01  0.13331134820E+02  0.10566000000E+00 0.  1.
        -13    1    4    4    0    0  0.89986467731E+01 -0.12266875972E+02  0.41996436925E+01  0.15782904075E+02  0.10566000000E+00 0. -1.
        -14    1    4    4    0    0  0.49249216721E+01 -0.77253379412E+01  0.20511239399E+01  0.93884401898E+01  0.00000000000E+00 0.  1.
<mgrwt>
<rscale>  0 0.78622496E+02</rscale>
<asrwt>0</asrwt>
<pdfrwt beam="1">  1        2 0.55715975E-02 0.78622496E+02</pdfrwt>
<pdfrwt beam="2">  1       -1 0.65648863E-02 0.78622496E+02</pdfrwt>
<totfact> 0.14658997E+05</totfact>
</mgrwt>
</event>
<event>
 8    1  0.2603554E-024  0.8008546E+02  0.7818608E-02  0.1328809E+00
         -1   -1    0    0    0  501 -0.00000000000E+00  0.00000000000E+00  0.12498963633E+01  0.12499065248E+01  0.50400000000E-02 0.  1.
          2   -1    0    0  501    0  0.00000000000E+00 -0.00000000000E+00 -0.12828374619E+04  0.12828374619E+04  0.25500000000E-02 0. -1.
         24    2    1    2    0    0  0.00000000000E+00  0.00000000000E+00 -0.12815875656E+04  0.12840873685E+04  0.80085464452E+02 0.  0.
         66    2    3    3    0    0 -0.17974461726E+02  0.14484928860E+02 -0.11653143302E+04  0.11655446721E+04  0.20000001083E+01 0.  0.
        -13    1    3    3    0    0  0.17974461726E+02 -0.14484928860E+02 -0.11627323538E+03  0.11854269640E+03  0.10566000000E+00 0.  1.
         13    1    4    4    0    0 -0.44290109698E+01  0.26268641257E+01 -0.25080819006E+03  0.25086106896E+03  0.10566000000E+00 0. -1.
        -13    1    4    4    0    0 -0.30560008167E+00  0.27306690604E+00 -0.23013924412E+02  0.23017815662E+02  0.10566000000E+00 0. -1.
         14    1    4    4    0    0 -0.13239850674E+02  0.11584997828E+02 -0.89149221571E+03  0.89166578744E+03  0.00000000000E+00 0. -1.
<mgrwt>
<rscale>  0 0.80085464E+02</rscale>
<asrwt>0</asrwt>
<pdfrwt beam="1">  1        2 0.19735856E+00 0.80085464E+02</pdfrwt>
<pdfrwt beam="2">  1       -1 0.19229356E-03 0.80085464E+02</pdfrwt>
<totfact> 0.34606780E+05</totfact>
</mgrwt>
</event>
<event>
 8    1  0.2603554E-024  0.7957262E+02  0.7818608E-02  0.1330269E+00
         -1   -1    0    0    0  501 -0.00000000000E+00  0.00000000000E+00  0.17604892233E+01  0.17604964376E+01  0.50400000000E-02 0.  1.
          2   -1    0    0  501    0  0.00000000000E+00 -0.00000000000E+00 -0.89915191781E+03  0.89915191781E+03  0.25500000000E-02 0. -1.
         24    2    1    2    0    0  0.00000000000E+00 -0.17763568394E-14 -0.89739142859E+03  0.90091241425E+03  0.79572621241E+02 0.  0.
         66    2    3    3    0    0  0.18122746400E+02 -0.95806670029E+01 -0.83470809436E+03  0.83496217035E+03  0.20000004758E+01 0.  0.
        -13    1    3    3    0    0 -0.18122746400E+02  0.95806670029E+01 -0.62683334225E+02  0.65950243903E+02  0.10566000000E+00 0.  1.
         13    1    4    4    0    0  0.11046016864E+02 -0.63141774576E+01 -0.52100145763E+03  0.52115680303E+03  0.10566000000E+00 0. -1.
        -13    1    4    4    0    0  0.33631063311E+01 -0.13353845621E+01 -0.12555097913E+03  0.12560315784E+03  0.10566000000E+00 0.  1.
        -14    1    4    4    0    0  0.37136232049E+01 -0.19311049832E+01 -0.18815565760E+03  0.18820220947E+03  0.00000000000E+00 0.  1.
<mgrwt>
<rscale>  0 0.79572621E+02</rscale>
<asrwt>0</asrwt>
<pdfrwt beam="1">  1        2 0.13833070E+00 0.79572621E+02</pdfrwt>
<pdfrwt beam="2">  1       -1 0.27084577E-03 0.79572621E+02</pdfrwt>
<totfact> 0.35432207E+05</totfact>
</mgrwt>
</event>
<event>
 8    1  0.2603554E-024  0.7953655E+02  0.7818608E-02  0.1330372E+00
          2   -1    0    0  501    0  0.00000000000E+00  0.00000000000E+00  0.19764754590E+02  0.19764754755E+02  0.25500000000E-02 0. -1.
         -1   -1    0    0    0  501 -0.00000000000E+00 -0.00000000000E+00 -0.80016957044E+02  0.80016957203E+02  0.50400000000E-02 0.  1.
         24    2    1    2    0    0  0.35527136788E-14  0.27755575616E-16 -0.60252202454E+02  0.99781711958E+02  0.79536545944E+02 0.  0.
         66    2    3    3    0    0  0.19784191473E+02 -0.17550164356E+00  0.13096768924E+02  0.23811140028E+02  0.20000000293E+01 0.  0.
        -13    1    3    3    0    0 -0.19784191473E+02  0.17550164356E+00 -0.73348971378E+02  0.75970571930E+02  0.10566000000E+00 0.  1.
         13    1    4    4    0    0  0.95763853959E+01 -0.55123211353E-01  0.67812909846E+01  0.11734873978E+02  0.10566000000E+00 0. -1.
        -13    1    4    4    0    0  0.25910039285E+01 -0.59046125094E+00  0.15182055723E+01  0.30623615139E+01  0.10566000000E+00 0.  1.
        -14    1    4    4    0    0  0.76168021486E+01  0.47008281873E+00  0.47972723673E+01  0.90139045365E+01  0.00000000000E+00 0.  1.
<mgrwt>
<rscale>  0 0.79536546E+02</rscale>
<asrwt>0</asrwt>
<pdfrwt beam="1">  1        2 0.30407315E-02 0.79536546E+02</pdfrwt>
<pdfrwt beam="2">  1       -1 0.12310301E-01 0.79536546E+02</pdfrwt>
<totfact> 0.12594482E+05</totfact>
</mgrwt>
</event>
<event>
 8    1  0.2603554E-024  0.8051936E+02  0.7818608E-02  0.1327584E+00
         -1   -1    0    0    0  501 -0.00000000000E+00  0.00000000000E+00  0.50825414918E+01  0.50825439907E+01  0.50400000000E-02 0.  1.
          2   -1    0    0  501    0  0.00000000000E+00 -0.00000000000E+00 -0.31890371362E+03  0.31890371363E+03  0.25500000000E-02 0. -1.
         24    2    1    2    0    0  0.71054273576E-14  0.00000000000E+00 -0.31382117213E+03  0.32398625762E+03  0.80519358240E+02 0.  0.
         66    2    3    3    0    0 -0.34812799378E+02 -0.19068082572E+01 -0.23780950890E+03  0.24035999961E+03  0.19999927488E+01 0.  0.
        -13    1    3    3    0    0  0.34812799378E+02  0.19068082572E+01 -0.76011663234E+02  0.83626258017E+02  0.10566000000E+00 0.  1.
         13    1    4    4    0    0 -0.13649472241E+02  0.18258553601E-01 -0.93300318335E+02  0.94293525712E+02  0.10566000000E+00 0. -1.
        -13    1    4    4    0    0 -0.33404727240E+01 -0.54640441940E+00 -0.24670210198E+02  0.24901561218E+02  0.10566000000E+00 0.  1.
         14    1    4    4    0    0 -0.17822854413E+02 -0.13786623914E+01 -0.11983898036E+03  0.12116491268E+03  0.00000000000E+00 0. -1.
<mgrwt>
<rscale>  0 0.80519358E+02</rscale>
<asrwt>0</asrwt>
<pdfrwt beam="1">  1        2 0.49062094E-01 0.80519358E+02</pdfrwt>
<pdfrwt beam="2">  1       -1 0.78192990E-03 0.80519358E+02</pdfrwt>
<totfact> 0.25625708E+05</totfact>
</mgrwt>
</event>
<event>
 8    1  0.2603554E-024  0.8416044E+02  0.7818608E-02  0.1317643E+00
          2   -1    0    0  501    0  0.00000000000E+00  0.00000000000E+00  0.79238336468E+03  0.79238336468E+03  0.25500000000E-02 0. -1.
         -1   -1    0    0    0  501 -0.00000000000E+00 -0.00000000000E+00 -0.22347043547E+01  0.22347100382E+01  0.50400000000E-02 0.  1.
         24    2    1    2    0    0  0.00000000000E+00  0.35527136788E-14  0.79014866032E+03  0.79461807472E+03  0.84160437627E+02 0.  0.
         66    2    3    3    0    0 -0.14187392371E+02 -0.27678668428E+02  0.66257364620E+03  0.66330628477E+03  0.19999959915E+01 0.  0.
        -13    1    3    3    0    0  0.14187392371E+02  0.27678668428E+02  0.12757501412E+03  0.13131178995E+03  0.10566000000E+00 0.  1.
         13    1    4    4    0    0 -0.69637295883E+01 -0.14005324554E+02  0.32652458424E+03  0.32689900264E+03  0.10566000000E+00 0. -1.
        -13    1    4    4    0    0 -0.20116295435E+01 -0.50835736542E+01  0.12256581614E+03  0.12268773298E+03  0.10566000000E+00 0.  1.
         14    1    4    4    0    0 -0.52120332392E+01 -0.85897702197E+01  0.21348324582E+03  0.21371954915E+03  0.00000000000E+00 0. -1.
<mgrwt>
<rscale>  0 0.84160438E+02</rscale>
<asrwt>0</asrwt>
<pdfrwt beam="1">  1        2 0.12190519E+00 0.84160438E+02</pdfrwt>
<pdfrwt beam="2">  1       -1 0.34380095E-03 0.84160438E+02</pdfrwt>
<totfact> 0.30064489E+05</totfact>
</mgrwt>
</event>
<event>
 8    1  0.2603554E-024  0.8003972E+02  0.7818608E-02  0.1328939E+00
         -1   -1    0    0    0  501 -0.00000000000E+00  0.00000000000E+00  0.82048678963E+02  0.82048679118E+02  0.50400000000E-02 0.  1.
          2   -1    0    0  501    0  0.00000000000E+00 -0.00000000000E+00 -0.19519987966E+02  0.19519988132E+02  0.25500000000E-02 0. -1.
         24    2    1    2    0    0  0.35527136788E-14  0.44408920985E-15  0.62528690997E+02  0.10156866725E+03  0.80039721196E+02 0.  0.
         66    2    3    3    0    0 -0.22074960036E+02  0.29473637913E+01 -0.10872125117E+02  0.24863505858E+02  0.20000012702E+01 0.  0.
        -13    1    3    3    0    0  0.22074960036E+02 -0.29473637913E+01  0.73400816115E+02  0.76705161392E+02  0.10566000000E+00 0.  1.
         13    1    4    4    0    0 -0.58985264625E+00  0.22437492836E+00 -0.12081818492E+00  0.65117687472E+00  0.10566000000E+00 0.  1.
        -13    1    4    4    0    0 -0.46736815268E+01  0.78155704660E+00 -0.29004548174E+01  0.55567915756E+01  0.10566000000E+00 0.  1.
         14    1    4    4    0    0 -0.16811425863E+02  0.19414318163E+01 -0.78508521150E+01  0.18655537408E+02  0.00000000000E+00 0. -1.
<mgrwt>
<rscale>  0 0.80039721E+02</rscale>
<asrwt>0</asrwt>
<pdfrwt beam="1">  1        2 0.30030752E-02 0.80039721E+02</pdfrwt>
<pdfrwt beam="2">  1       -1 0.12622873E-01 0.80039721E+02</pdfrwt>
<totfact> 0.12337081E+05</totfact>
</mgrwt>
</event>
<event>
 8    1  0.2603554E-024  0.8023011E+02  0.7818608E-02  0.1328400E+00
          2   -1    0    0  501    0  0.00000000000E+00  0.00000000000E+00  0.93087357462E+02  0.93087357497E+02  0.25500000000E-02 0. -1.
         -1   -1    0    0    0  501 -0.00000000000E+00 -0.00000000000E+00 -0.17287178162E+02  0.17287178896E+02  0.50400000000E-02 0.  1.
         24    2    1    2    0    0  0.71054273576E-14 -0.35527136788E-14  0.75800179300E+02  0.11037453639E+03  0.80230113437E+02 0.  0.
         66    2    3    3    0    0 -0.21373838832E+02  0.27404891073E+02  0.65415487645E+02  0.74101653603E+02  0.20000004184E+01 0.  0.
        -13    1    3    3    0    0  0.21373838832E+02 -0.27404891073E+02  0.10384691655E+02  0.36272882791E+02  0.10566000000E+00 0.  1.
         13    1    4    4    0    0 -0.13095244576E+01  0.24063930941E+01  0.53511417000E+01  0.60126087148E+01  0.10566000000E+00 0. -1.
        -13    1    4    4    0    0 -0.13555706782E+01  0.13731094677E+01  0.36767826539E+01  0.41536605776E+01  0.10566000000E+00 0.  1.
         14    1    4    4    0    0 -0.18708743696E+02  0.23625388511E+02  0.56387563291E+02  0.63935384310E+02  0.00000000000E+00 0. -1.
<mgrwt>
<rscale>  0 0.80230113E+02</rscale>
<asrwt>0</asrwt>
<pdfrwt beam="1">  1        2 0.14321132E-01 0.80230113E+02</pdfrwt>
<pdfrwt beam="2">  1       -1 0.26595660E-02 0.80230113E+02</pdfrwt>
<totfact> 0.17245173E+05</totfact>
</mgrwt>
</event>
<event>
 8    1  0.2603554E-024  0.7962842E+02  0.7818608E-02  0.1330109E+00
          2   -1    0    0  501    0  0.00000000000E+00  0.00000000000E+00  0.30160307136E+03  0.30160307137E+03  0.25500000000E-02 0. -1.
         -1   -1    0    0    0  501 -0.00000000000E+00 -0.00000000000E+00 -0.52558187912E+01  0.52558212077E+01  0.50400000000E-02 0.  1.
         24    2    1    2    0    0  0.35527136788E-14  0.71054273576E-14  0.29634725257E+03  0.30685889258E+03  0.79628423628E+02 0.  0.
         66    2    3    3    0    0  0.18395350187E+02  0.35251618871E+02  0.15385257204E+03  0.15892035573E+03  0.20000002118E+01 0.  0.
        -13    1    3    3    0    0 -0.18395350187E+02 -0.35251618871E+02  0.14249468053E+03  0.14793853684E+03  0.10566000000E+00 0.  1.
         13    1    4    4    0    0  0.13004123934E+02  0.23616575828E+02  0.10482245403E+03  0.10823404236E+03  0.10566000000E+00 0. -1.
        -13    1    4    4    0    0  0.19606064991E+00  0.86725975803E+00  0.33594902987E+01  0.34767683801E+01  0.10566000000E+00 0.  1.
        -14    1    4    4    0    0  0.51951656032E+01  0.10767783284E+02  0.45670627719E+02  0.47209544996E+02  0.00000000000E+00 0.  1.
<mgrwt>
<rscale>  0 0.79628424E+02</rscale>
<asrwt>0</asrwt>
<pdfrwt beam="1">  1        2 0.46400484E-01 0.79628424E+02</pdfrwt>
<pdfrwt beam="2">  1       -1 0.80858750E-03 0.79628424E+02</pdfrwt>
<totfact> 0.25857322E+05</totfact>
</mgrwt>
</event>
<event>
 8    1  0.2603554E-024  0.8179221E+02  0.7818608E-02  0.1324041E+00
         -1   -1    0    0    0  501 -0.00000000000E+00  0.00000000000E+00  0.21704126328E+03  0.21704126334E+03  0.50400000000E-02 0.  1.
          2   -1    0    0  501    0  0.00000000000E+00 -0.00000000000E+00 -0.77058673551E+01  0.77058677770E+01  0.25500000000E-02 0. -1.
         24    2    1    2    0    0  0.00000000000E+00 -0.44408920985E-15  0.20933539593E+03  0.22474713112E+03  0.81792205972E+02 0.  0.
         66    2    3    3    0    0  0.39270869789E+02  0.26360201107E+01  0.74462514800E+02  0.84248536663E+02  0.20000008897E+01 0.  0.
        -13    1    3    3    0    0 -0.39270869789E+02 -0.26360201107E+01  0.13487288113E+03  0.14049859446E+03  0.10566000000E+00 0.  1.
         13    1    4    4    0    0  0.10781261176E+02  0.13610329683E+00  0.21746324253E+02  0.24272781036E+02  0.10566000000E+00 0. -1.
        -13    1    4    4    0    0  0.15905790387E+02  0.13145856718E+01  0.29027573905E+02  0.33126024726E+02  0.10566000000E+00 0.  1.
         14    1    4    4    0    0  0.12583818226E+02  0.11853311421E+01  0.23688616641E+02  0.26849730901E+02  0.00000000000E+00 0. -1.
<mgrwt>
<rscale>  0 0.81792206E+02</rscale>
<asrwt>0</asrwt>
<pdfrwt beam="1">  1        2 0.11855182E-02 0.81792206E+02</pdfrwt>
<pdfrwt beam="2">  1       -1 0.33390962E-01 0.81792206E+02</pdfrwt>
<totfact> 0.91768656E+04</totfact>
</mgrwt>
</event>
<event>
 8    1  0.2603554E-024  0.7997595E+02  0.7818608E-02  0.1329120E+00
         -1   -1    0    0    0  501 -0.00000000000E+00  0.00000000000E+00  0.15487045006E+02  0.15487045826E+02  0.50400000000E-02 0.  1.
          2   -1    0    0  501    0  0.00000000000E+00 -0.00000000000E+00 -0.10325004250E+03  0.10325004253E+03  0.25500000000E-02 0. -1.
         24    2    1    2    0    0  0.00000000000E+00  0.44408920985E-15 -0.87762997493E+02  0.11873708836E+03  0.79975949025E+02 0.  0.
         66    2    3    3    0    0 -0.30394173841E+02  0.30642872037E+01 -0.82161193376E+02  0.87679286874E+02  0.19999975244E+01 0.  0.
        -13    1    3    3    0    0  0.30394173841E+02 -0.30642872037E+01 -0.56018041166E+01  0.31057801483E+02  0.10566000000E+00 0.  1.
         13    1    4    4    0    0 -0.16171147876E+02  0.14022651471E+01 -0.41488881666E+02  0.44551215888E+02  0.10566000000E+00 0. -1.
        -13    1    4    4    0    0 -0.41972331312E+01  0.17465138712E+00 -0.11282656049E+02  0.12039799027E+02  0.10566000000E+00 0.  1.
        -14    1    4    4    0    0 -0.10025792834E+02  0.14873706695E+01 -0.29389655662E+02  0.31088271959E+02  0.00000000000E+00 0.  1.
<mgrwt>
<rscale>  0 0.79975949E+02</rscale>
<asrwt>0</asrwt>
<pdfrwt beam="1">  1        2 0.15884622E-01 0.79975949E+02</pdfrwt>
<pdfrwt beam="2">  1       -1 0.23826224E-02 0.79975949E+02</pdfrwt>
<totfact> 0.17900606E+05</totfact>
</mgrwt>
</event>
<event>
 8    1  0.2603554E-024  0.7975105E+02  0.7818608E-02  0.1329759E+00
         -1   -1    0    0    0  501 -0.00000000000E+00  0.00000000000E+00  0.14811342031E+02  0.14811342888E+02  0.50400000000E-02 0.  1.
          2   -1    0    0  501    0  0.00000000000E+00 -0.00000000000E+00 -0.10735404075E+03  0.10735404078E+03  0.25500000000E-02 0. -1.
         24    2    1    2    0    0  0.17763568394E-14 -0.35527136788E-14 -0.92542698715E+02  0.12216538366E+03  0.79751049400E+02 0.  0.
         66    2    3    3    0    0  0.10285706001E+02 -0.26907728005E+02 -0.88480944766E+02  0.93073622228E+02  0.19999984105E+01 0.  0.
        -13    1    3    3    0    0 -0.10285706001E+02  0.26907728005E+02 -0.40617539498E+01  0.29091761437E+02  0.10566000000E+00 0.  1.
         13    1    4    4    0    0  0.11920471786E+01 -0.32541378464E+01 -0.11945600590E+02  0.12438606316E+02  0.10566000000E+00 0. -1.
        -13    1    4    4    0    0  0.16153796562E+01 -0.42954624359E+01 -0.15713063395E+02  0.16369849549E+02  0.10566000000E+00 0. -1.
         14    1    4    4    0    0  0.74782791663E+01 -0.19358127723E+02 -0.60822280781E+02  0.64265166362E+02  0.00000000000E+00 0. -1.
<mgrwt>
<rscale>  0 0.79751049E+02</rscale>
<asrwt>0</asrwt>
<pdfrwt beam="1">  1        2 0.16516006E-01 0.79751049E+02</pdfrwt>
<pdfrwt beam="2">  1       -1 0.22786681E-02 0.79751049E+02</pdfrwt>
<totfact> 0.18237562E+05</totfact>
</mgrwt>
</event>
<event>
 8    1  0.2603554E-024  0.8008499E+02  0.7818608E-02  0.1328810E+00
          2   -1    0    0  501    0  0.00000000000E+00  0.00000000000E+00  0.22268479810E+03  0.22268479812E+03  0.25500000000E-02 0. -1.
         -1   -1    0    0    0  501 -0.00000000000E+00 -0.00000000000E+00 -0.72003170540E+01  0.72003188179E+01  0.50400000000E-02 0.  1.
         24    2    1    2    0    0  0.00000000000E+00  0.00000000000E+00  0.21548448105E+03  0.22988511694E+03  0.80084988703E+02 0.  0.
         66    2    3    3    0    0  0.28422902248E+02 -0.28131768900E+02  0.11200707566E+03  0.11894890831E+03  0.19999992960E+01 0.  0.
        -13    1    3    3    0    0 -0.28422902248E+02  0.28131768900E+02  0.10347740539E+03  0.11093620862E+03  0.10566000000E+00 0.  1.
         13    1    4    4    0    0  0.14339194909E+02 -0.13460717392E+02  0.57116150396E+02  0.60407526215E+02  0.10566000000E+00 0. -1.
        -13    1    4    4    0    0  0.39975245635E+01 -0.40221478430E+01  0.14501646314E+02  0.15571345020E+02  0.10566000000E+00 0.  1.
         14    1    4    4    0    0  0.10086182775E+02 -0.10648903665E+02  0.40389278952E+02  0.42970037078E+02  0.00000000000E+00 0. -1.
<mgrwt>
<rscale>  0 0.80084989E+02</rscale>
<asrwt>0</asrwt>
<pdfrwt beam="1">  1        2 0.34259201E-01 0.80084989E+02</pdfrwt>
<pdfrwt beam="2">  1       -1 0.11077412E-02 0.80084989E+02</pdfrwt>
<totfact> 0.22841167E+05</totfact>
</mgrwt>
</event>
<event>
 8    1  0.2603554E-024  0.8336037E+02  0.7818608E-02  0.1319777E+00
         -1   -1    0    0    0  501 -0.00000000000E+00  0.00000000000E+00  0.33886922639E+01  0.33886960119E+01  0.50400000000E-02 0.  1.
          2   -1    0    0  501    0  0.00000000000E+00 -0.00000000000E+00 -0.51265702240E+03  0.51265702241E+03  0.25500000000E-02 0. -1.
         24    2    1    2    0    0  0.35527136788E-14  0.17763568394E-14 -0.50926833014E+03  0.51604571842E+03  0.83360370790E+02 0.  0.
         66    2    3    3    0    0 -0.22423996137E+02 -0.13983735283E+02 -0.45411691242E+03  0.45488960265E+03  0.20000005984E+01 0.  0.
        -13    1    3    3    0    0  0.22423996137E+02  0.13983735283E+02 -0.55151417721E+02  0.61156115769E+02  0.10566000000E+00 0.  1.
         13    1    4    4    0    0 -0.10822783163E+02 -0.57192857578E+01 -0.21530065598E+03  0.21564838625E+03  0.10566000000E+00 0. -1.
        -13    1    4    4    0    0 -0.32129883274E+01 -0.25509800005E+01 -0.69293383426E+02  0.69414803490E+02  0.10566000000E+00 0.  1.
         14    1    4    4    0    0 -0.83882246463E+01 -0.57134695246E+01 -0.16952287302E+03  0.16982641291E+03  0.00000000000E+00 0. -1.
<mgrwt>
<rscale>  0 0.83360371E+02</rscale>
<asrwt>0</asrwt>
<pdfrwt beam="1">  1        2 0.78870250E-01 0.83360371E+02</pdfrwt>
<pdfrwt beam="2">  1       -1 0.52133797E-03 0.83360371E+02</pdfrwt>
<totfact> 0.27566717E+05</totfact>
</mgrwt>
</event>
<event>
 8    1  0.2603554E-024  0.8114693E+02  0.7818608E-02  0.1325828E+00
          2   -1    0    0  501    0  0.00000000000E+00  0.00000000000E+00  0.73631049483E+03  0.73631049484E+03  0.25500000000E-02 0. -1.
         -1   -1    0    0    0  501 -0.00000000000E+00 -0.00000000000E+00 -0.22357467500E+01  0.22357524307E+01  0.50400000000E-02 0.  1.
         24    2    1    2    0    0  0.00000000000E+00 -0.17763568394E-14  0.73407474808E+03  0.73854624727E+03  0.81146925886E+02 0.  0.
         66    2    3    3    0    0  0.97571338999E+01  0.13681735697E+02  0.70312396328E+03  0.70332759032E+03  0.20000014187E+01 0.  0.
        -13    1    3    3    0    0 -0.97571338999E+01 -0.13681735697E+02  0.30950784800E+02  0.35218656950E+02  0.10566000000E+00 0.  1.
         13    1    4    4    0    0  0.17712786631E+01  0.23260905362E+01  0.12366635233E+03  0.12370095387E+03  0.10566000000E+00 0. -1.
        -13    1    4    4    0    0  0.69236960821E+01  0.88457391552E+01  0.44845388317E+03  0.44859456212E+03  0.10566000000E+00 0.  1.
        -14    1    4    4    0    0  0.10621591547E+01  0.25099060055E+01  0.13100372778E+03  0.13103207433E+03  0.00000000000E+00 0.  1.
<mgrwt>
<rscale>  0 0.81146926E+02</rscale>
<asrwt>0</asrwt>
<pdfrwt beam="1">  1        2 0.11327844E+00 0.81146926E+02</pdfrwt>
<pdfrwt beam="2">  1       -1 0.34396176E-03 0.81146926E+02</pdfrwt>
<totfact> 0.32595260E+05</totfact>
</mgrwt>
</event>
<event>
 8    1  0.2603554E-024  0.8141877E+02  0.7818608E-02  0.1325073E+00
         -1   -1    0    0    0  501 -0.00000000000E+00  0.00000000000E+00  0.33753531905E+01  0.33753569533E+01  0.50400000000E-02 0.  1.
          2   -1    0    0  501    0  0.00000000000E+00 -0.00000000000E+00 -0.49098651636E+03  0.49098651636E+03  0.25500000000E-02 0. -1.
         24    2    1    2    0    0  0.00000000000E+00  0.00000000000E+00 -0.48761116317E+03  0.49436187332E+03  0.81418765311E+02 0.  0.
         66    2    3    3    0    0 -0.53633089725E+01  0.30988270908E+02 -0.40067296400E+03  0.40191026622E+03  0.19999982091E+01 0.  0.
        -13    1    3    3    0    0  0.53633089725E+01 -0.30988270908E+02 -0.86938199162E+02  0.92451607096E+02  0.10566000000E+00 0.  1.
         13    1    4    4    0    0 -0.90951045236E+00  0.76842745619E+01 -0.97289749569E+02  0.97597037967E+02  0.10566000000E+00 0. -1.
        -13    1    4    4    0    0 -0.10643301427E+00  0.25178198746E+01 -0.35693480309E+02  0.35782487973E+02  0.10566000000E+00 0.  1.
        -14    1    4    4    0    0 -0.43473655059E+01  0.20786176472E+02 -0.26768973413E+03  0.26853074028E+03  0.00000000000E+00 0.  1.
<mgrwt>
<rscale>  0 0.81418765E+02</rscale>
<asrwt>0</asrwt>
<pdfrwt beam="1">  1        2 0.75536331E-01 0.81418765E+02</pdfrwt>
<pdfrwt beam="2">  1       -1 0.51928579E-03 0.81418765E+02</pdfrwt>
<totfact> 0.28917323E+05</totfact>
</mgrwt>
</event>
<event>
 8    1  0.2603554E-024  0.8148296E+02  0.7818608E-02  0.1324895E+00
          2   -1    0    0  501    0  0.00000000000E+00  0.00000000000E+00  0.27655755513E+03  0.27655755514E+03  0.25500000000E-02 0. -1.
         -1   -1    0    0    0  501 -0.00000000000E+00 -0.00000000000E+00 -0.60018890118E+01  0.60018911279E+01  0.50400000000E-02 0.  1.
         24    2    1    2    0    0  0.71054273576E-14  0.11102230246E-15  0.27055566612E+03  0.28255944627E+03  0.81482956546E+02 0.  0.
         66    2    3    3    0    0  0.33983611776E+02  0.65569371506E+00  0.21309677287E+03  0.21579979242E+03  0.20000003493E+01 0.  0.
        -13    1    3    3    0    0 -0.33983611776E+02 -0.65569371506E+00  0.57458893251E+02  0.66759653843E+02  0.10566000000E+00 0.  1.
         13    1    4    4    0    0  0.24012478218E+02  0.32095221083E-01  0.15135596720E+03  0.15324894816E+03  0.10566000000E+00 0. -1.
        -13    1    4    4    0    0  0.44890726859E+01  0.45043667834E+00  0.25243838030E+02  0.25644047834E+02  0.10566000000E+00 0.  1.
         14    1    4    4    0    0  0.54820608716E+01  0.17316181564E+00  0.36496967635E+02  0.36906796433E+02  0.00000000000E+00 0. -1.
<mgrwt>
<rscale>  0 0.81482957E+02</rscale>
<asrwt>0</asrwt>
<pdfrwt beam="1">  1        2 0.42547312E-01 0.81482957E+02</pdfrwt>
<pdfrwt beam="2">  1       -1 0.92336780E-03 0.81482957E+02</pdfrwt>
<totfact> 0.23587870E+05</totfact>
</mgrwt>
</event>
<event>
 8    1  0.2603554E-024  0.7732502E+02  0.7818608E-02  0.1336819E+00
         -1   -1    0    0    0  501 -0.00000000000E+00  0.00000000000E+00  0.34197758292E+02  0.34197758663E+02  0.50400000000E-02 0.  1.
          2   -1    0    0  501    0  0.00000000000E+00 -0.00000000000E+00 -0.43710170726E+02  0.43710170801E+02  0.25500000000E-02 0. -1.
         24    2    1    2    0    0  0.17763568394E-14 -0.88817841970E-15 -0.95124124348E+01  0.77907929464E+02  0.77325024947E+02 0.  0.
         66    2    3    3    0    0  0.13592689855E+02 -0.51204369979E+01 -0.40831572546E+02  0.43384299199E+02  0.20000019750E+01 0.  0.
        -13    1    3    3    0    0 -0.13592689855E+02  0.51204369979E+01  0.31319160111E+02  0.34523630264E+02  0.10566000000E+00 0.  1.
         13    1    4    4    0    0  0.28867298235E+01 -0.97629461271E+00 -0.72617430772E+01  0.78759403755E+01  0.10566000000E+00 0. -1.
        -13    1    4    4    0    0  0.13835131202E+01 -0.66000250369E-01 -0.44623194393E+01  0.46735343585E+01  0.10566000000E+00 0.  1.
        -14    1    4    4    0    0  0.93224469116E+01 -0.40781421349E+01 -0.29107510029E+02  0.30834824465E+02  0.00000000000E+00 0.  1.
<mgrwt>
<rscale>  0 0.77325025E+02</rscale>
<asrwt>0</asrwt>
<pdfrwt beam="1">  1        2 0.67246417E-02 0.77325025E+02</pdfrwt>
<pdfrwt beam="2">  1       -1 0.52611936E-02 0.77325025E+02</pdfrwt>
<totfact> 0.15941960E+05</totfact>
</mgrwt>
</event>
<event>
 8    1  0.2603554E-024  0.7845375E+02  0.7818608E-02  0.1333498E+00
         -1   -1    0    0    0  501 -0.00000000000E+00  0.00000000000E+00  0.12109768027E+01  0.12109872907E+01  0.50400000000E-02 0.  1.
          2   -1    0    0  501    0  0.00000000000E+00 -0.00000000000E+00 -0.12706610209E+04  0.12706610209E+04  0.25500000000E-02 0. -1.
         24    2    1    2    0    0  0.11102230246E-15  0.00000000000E+00 -0.12694500441E+04  0.12718720082E+04  0.78453749223E+02 0.  0.
         66    2    3    3    0    0  0.83832837906E+00  0.15599415791E+02 -0.12180151878E+04  0.12181170068E+04  0.19999998264E+01 0.  0.
        -13    1    3    3    0    0 -0.83832837906E+00 -0.15599415791E+02 -0.51434856314E+02  0.53755001400E+02  0.10566000000E+00 0.  1.
         13    1    4    4    0    0 -0.11811469768E+00  0.57517667865E+01 -0.39403190221E+03  0.39407391172E+03  0.10566000000E+00 0.  1.
        -13    1    4    4    0    0  0.84438959301E+00  0.78270198816E+01 -0.62757139730E+03  0.62762078129E+03  0.10566000000E+00 0. -1.
         14    1    4    4    0    0  0.11205348373E+00  0.20206291231E+01 -0.19641188831E+03  0.19642231382E+03  0.00000000000E+00 0. -1.
<mgrwt>
<rscale>  0 0.78453749E+02</rscale>
<asrwt>0</asrwt>
<pdfrwt beam="1">  1        2 0.19548524E+00 0.78453749E+02</pdfrwt>
<pdfrwt beam="2">  1       -1 0.18630595E-03 0.78453749E+02</pdfrwt>
<totfact> 0.36565714E+05</totfact>
</mgrwt>
</event>
<event>
 8    1  0.2603554E-024  0.7981298E+02  0.7818608E-02  0.1329583E+00
         -1   -1    0    0    0  501 -0.00000000000E+00  0.00000000000E+00  0.13758204061E+02  0.13758204984E+02  0.50400000000E-02 0.  1.
          2   -1    0    0  501    0  0.00000000000E+00 -0.00000000000E+00 -0.11575113854E+03  0.11575113857E+03  0.25500000000E-02 0. -1.
         24    2    1    2    0    0  0.00000000000E+00 -0.35527136788E-14 -0.10199293448E+03  0.12950934356E+03  0.79812977541E+02 0.  0.
         66    2    3    3    0    0 -0.11312520300E+02  0.27445469714E+02 -0.94244079339E+02  0.98829010387E+02  0.19999700551E+01 0.  0.
        -13    1    3    3    0    0  0.11312520300E+02 -0.27445469714E+02 -0.77488551447E+01  0.30680333170E+02  0.10566000000E+00 0.  1.
         13    1    4    4    0    0 -0.38065738841E+01  0.75201389195E+01 -0.28411713273E+02  0.29635774146E+02  0.10566000000E+00 0. -1.
        -13    1    4    4    0    0 -0.34173283846E+00  0.81979366795E+00 -0.25181441151E+01  0.26722755866E+01  0.10566000000E+00 0. -1.
         14    1    4    4    0    0 -0.71642135771E+01  0.19105537126E+02 -0.63314221951E+02  0.66520960654E+02  0.00000000000E+00 0. -1.
<mgrwt>
<rscale>  0 0.79812978E+02</rscale>
<asrwt>0</asrwt>
<pdfrwt beam="1">  1        2 0.17807867E-01 0.79812978E+02</pdfrwt>
<pdfrwt beam="2">  1       -1 0.21166469E-02 0.79812978E+02</pdfrwt>
<totfact> 0.18603259E+05</totfact>
</mgrwt>
</event>
<event>
 8    1  0.2603554E-024  0.7842687E+02  0.7818608E-02  0.1333576E+00
          2   -1    0    0  501    0  0.00000000000E+00  0.00000000000E+00  0.68221963007E+03  0.68221963008E+03  0.25500000000E-02 0. -1.
         -1   -1    0    0    0  501 -0.00000000000E+00 -0.00000000000E+00 -0.22539541017E+01  0.22539597366E+01  0.50400000000E-02 0.  1.
         24    2    1    2    0    0  0.00000000000E+00  0.00000000000E+00  0.67996567597E+03  0.68447358982E+03  0.78426874567E+02 0.  0.
         66    2    3    3    0    0 -0.97431690523E+01  0.26079661462E+02  0.58090159991E+03  0.58157178996E+03  0.20000009264E+01 0.  0.
        -13    1    3    3    0    0  0.97431690523E+01 -0.26079661462E+02  0.99064076058E+02  0.10290179986E+03  0.10566000000E+00 0.  1.
         13    1    4    4    0    0 -0.18625469169E+00  0.40858634118E+00  0.67468106745E+01  0.67625625263E+01  0.10566000000E+00 0.  1.
        -13    1    4    4    0    0 -0.20682448630E+01  0.69152811437E+01  0.14553344179E+03  0.14571236253E+03  0.10566000000E+00 0. -1.
         14    1    4    4    0    0 -0.74886694976E+01  0.18755793978E+02  0.42862134745E+03  0.42909686490E+03  0.00000000000E+00 0. -1.
<mgrwt>
<rscale>  0 0.78426875E+02</rscale>
<asrwt>0</asrwt>
<pdfrwt beam="1">  1        2 0.10495692E+00 0.78426875E+02</pdfrwt>
<pdfrwt beam="2">  1       -1 0.34676243E-03 0.78426875E+02</pdfrwt>
<totfact> 0.35011541E+05</totfact>
</mgrwt>
</event>
<event>
 8    1  0.2603554E-024  0.7579989E+02  0.7818608E-02  0.1341412E+00
          2   -1    0    0  501    0  0.00000000000E+00  0.00000000000E+00  0.82931538482E+03  0.82931538483E+03  0.25500000000E-02 0. -1.
         -1   -1    0    0    0  501 -0.00000000000E+00 -0.00000000000E+00 -0.17320342995E+01  0.17320416324E+01  0.50400000000E-02 0.  1.
         24    2    1    2    0    0  0.00000000000E+00  0.88817841970E-15  0.82758335052E+03  0.83104742646E+03  0.75799887606E+02 0.  0.
         66    2    3    3    0    0 -0.13810456486E+02 -0.63308066138E+01  0.79444090788E+03  0.79458867594E+03  0.20000010827E+01 0.  0.
        -13    1    3    3    0    0  0.13810456486E+02  0.63308066138E+01  0.33142442643E+02  0.36458750515E+02  0.10566000000E+00 0.  1.
         13    1    4    4    0    0 -0.42406586398E+01 -0.13525857655E+01  0.25478843307E+03  0.25482733265E+03  0.10566000000E+00 0. -1.
        -13    1    4    4    0    0 -0.29494979735E+01 -0.17271354672E+01  0.14882676525E+03  0.14886604634E+03  0.10566000000E+00 0.  1.
         14    1    4    4    0    0 -0.66202998726E+01 -0.32510853812E+01  0.39082570957E+03  0.39089529696E+03  0.00000000000E+00 0. -1.
<mgrwt>
<rscale>  0 0.75799888E+02</rscale>
<asrwt>0</asrwt>
<pdfrwt beam="1">  1        2 0.12758717E+00 0.75799888E+02</pdfrwt>
<pdfrwt beam="2">  1       -1 0.26646699E-03 0.75799888E+02</pdfrwt>
<totfact> 0.39751001E+05</totfact>
</mgrwt>
</event>
<event>
 8    1  0.2603554E-024  0.8033655E+02  0.7818608E-02  0.1328099E+00
          2   -1    0    0  501    0  0.00000000000E+00  0.00000000000E+00  0.20947775980E+03  0.20947775982E+03  0.25500000000E-02 0. -1.
         -1   -1    0    0    0  501 -0.00000000000E+00 -0.00000000000E+00 -0.77024419846E+01  0.77024436335E+01  0.50400000000E-02 0.  1.
         24    2    1    2    0    0 -0.71054273576E-14 -0.17763568394E-14  0.20177531782E+03  0.21718020345E+03  0.80336553889E+02 0.  0.
         66    2    3    3    0    0  0.32982900976E+02  0.10636323526E+02  0.15572146944E+03  0.15954365906E+03  0.19999916642E+01 0.  0.
        -13    1    3    3    0    0 -0.32982900976E+02 -0.10636323526E+02  0.46053848378E+02  0.57636544391E+02  0.10566000000E+00 0.  1.
         13    1    4    4    0    0  0.11287346641E+02  0.31968757216E+01  0.49618908970E+02  0.50986973827E+02  0.10566000000E+00 0. -1.
        -13    1    4    4    0    0  0.18802119395E+02  0.63797693170E+01  0.93156397400E+02  0.95248867137E+02  0.10566000000E+00 0.  1.
         14    1    4    4    0    0  0.28934349407E+01  0.10596784875E+01  0.12946163069E+02  0.13307818096E+02  0.00000000000E+00 0. -1.
<mgrwt>
<rscale>  0 0.80336554E+02</rscale>
<asrwt>0</asrwt>
<pdfrwt beam="1">  1        2 0.32227345E-01 0.80336554E+02</pdfrwt>
<pdfrwt beam="2">  1       -1 0.11849913E-02 0.80336554E+02</pdfrwt>
<totfact> 0.22170812E+05</totfact>
</mgrwt>
</event>
<event>
 8    1  0.2603554E-024  0.7439095E+02  0.7818608E-02  0.1345768E+00
         -1   -1    0    0    0  501 -0.00000000000E+00  0.00000000000E+00  0.39136921477E+02  0.39136921801E+02  0.50400000000E-02 0.  1.
          2   -1    0    0  501    0  0.00000000000E+00 -0.00000000000E+00 -0.35350333928E+02  0.35350334020E+02  0.25500000000E-02 0. -1.
         24    2    1    2    0    0  0.44408920985E-15 -0.35527136788E-14  0.37865875489E+01  0.74487255821E+02  0.74390947261E+02 0.  0.
         66    2    3    3    0    0  0.27280067839E+01 -0.19562834589E+02 -0.29631844942E+02  0.35667810792E+02  0.19999934651E+01 0.  0.
        -13    1    3    3    0    0 -0.27280067839E+01  0.19562834589E+02  0.33418432491E+02  0.38819445029E+02  0.10566000000E+00 0.  1.
         13    1    4    4    0    0  0.19243144474E+01 -0.12278241831E+02 -0.20015117039E+02  0.23560014488E+02  0.10566000000E+00 0. -1.
        -13    1    4    4    0    0  0.71411516664E+00 -0.39242561674E+01 -0.54370892435E+01  0.67440974501E+01  0.10566000000E+00 0.  1.
         14    1    4    4    0    0  0.89577169850E-01 -0.33603365913E+01 -0.41796386590E+01  0.53636988540E+01  0.00000000000E+00 0. -1.
<mgrwt>
<rscale>  0 0.74390947E+02</rscale>
<asrwt>0</asrwt>
<pdfrwt beam="1">  1        2 0.54385129E-02 0.74390947E+02</pdfrwt>
<pdfrwt beam="2">  1       -1 0.60210649E-02 0.74390947E+02</pdfrwt>
<totfact> 0.16994115E+05</totfact>
</mgrwt>
</event>
<event>
 8    1  0.2603554E-024  0.8025416E+02  0.7818608E-02  0.1328332E+00
         -1   -1    0    0    0  501 -0.00000000000E+00  0.00000000000E+00  0.36693992461E+02  0.36693992807E+02  0.50400000000E-02 0.  1.
          2   -1    0    0  501    0  0.00000000000E+00 -0.00000000000E+00 -0.43881365519E+02  0.43881365593E+02  0.25500000000E-02 0. -1.
         24    2    1    2    0    0  0.00000000000E+00  0.17763568394E-14 -0.71873730582E+01  0.80575358400E+02  0.80254159081E+02 0.  0.
         66    2    3    3    0    0  0.11683520796E+02 -0.90818328423E+01 -0.41016966654E+02  0.43650611782E+02  0.20000023755E+01 0.  0.
        -13    1    3    3    0    0 -0.11683520796E+02  0.90818328423E+01  0.33829593595E+02  0.36924746618E+02  0.10566000000E+00 0.  1.
         13    1    4    4    0    0  0.71507124114E+01 -0.62431944267E+01 -0.25561580949E+02  0.27267485203E+02  0.10566000000E+00 0. -1.
        -13    1    4    4    0    0  0.18415772830E+01 -0.11242814587E+01 -0.76914708821E+01  0.79890740423E+01  0.10566000000E+00 0.  1.
        -14    1    4    4    0    0  0.26912311016E+01 -0.17143569569E+01 -0.77639148226E+01  0.83940525367E+01  0.00000000000E+00 0.  1.
<mgrwt>
<rscale>  0 0.80254159E+02</rscale>
<asrwt>0</asrwt>
<pdfrwt beam="1">  1        2 0.67509793E-02 0.80254159E+02</pdfrwt>
<pdfrwt beam="2">  1       -1 0.56452297E-02 0.80254159E+02</pdfrwt>
<totfact> 0.14405591E+05</totfact>
</mgrwt>
</event>
<event>
 8    1  0.2603554E-024  0.8336068E+02  0.7818608E-02  0.1319776E+00
          2   -1    0    0  501    0  0.00000000000E+00  0.00000000000E+00  0.73821212810E+02  0.73821212854E+02  0.25500000000E-02 0. -1.
         -1   -1    0    0    0  501 -0.00000000000E+00 -0.00000000000E+00 -0.23533218385E+02  0.23533218925E+02  0.50400000000E-02 0.  1.
         24    2    1    2    0    0  0.00000000000E+00  0.71054273576E-14  0.50287994425E+02  0.97354431779E+02  0.83360680202E+02 0.  0.
         66    2    3    3    0    0  0.73847085933E+01  0.36070144575E+02  0.47914114037E+02  0.60459503634E+02  0.20000012495E+01 0.  0.
        -13    1    3    3    0    0 -0.73847085933E+01 -0.36070144575E+02  0.23738803873E+01  0.36894928145E+02  0.10566000000E+00 0.  1.
         13    1    4    4    0    0  0.49308860722E+01  0.22600319234E+02  0.31065746303E+02  0.38732154914E+02  0.10566000000E+00 0. -1.
        -13    1    4    4    0    0  0.10384135778E+01  0.40778831283E+01  0.55920391546E+01  0.69992499248E+01  0.10566000000E+00 0.  1.
        -14    1    4    4    0    0  0.14154089433E+01  0.93919422132E+01  0.11256328580E+02  0.14728098795E+02  0.00000000000E+00 0.  1.
<mgrwt>
<rscale>  0 0.83360680E+02</rscale>
<asrwt>0</asrwt>
<pdfrwt beam="1">  1        2 0.11357109E-01 0.83360680E+02</pdfrwt>
<pdfrwt beam="2">  1       -1 0.36204953E-02 0.83360680E+02</pdfrwt>
<totfact> 0.14633528E+05</totfact>
</mgrwt>
</event>
<event>
 8    1  0.2603554E-024  0.7377481E+02  0.7818608E-02  0.1347708E+00
         -1   -1    0    0    0  501 -0.00000000000E+00  0.00000000000E+00  0.71111576951E+02  0.71111577130E+02  0.50400000000E-02 0.  1.
          2   -1    0    0  501    0  0.00000000000E+00 -0.00000000000E+00 -0.19134446700E+02  0.19134446870E+02  0.25500000000E-02 0. -1.
         24    2    1    2    0    0 -0.44408920985E-15  0.35527136788E-14  0.51977130251E+02  0.90246024000E+02  0.73774811275E+02 0.  0.
         66    2    3    3    0    0  0.38805135618E+01  0.21353255447E+02 -0.10437753252E+02  0.24165400891E+02  0.20000008972E+01 0.  0.
        -13    1    3    3    0    0 -0.38805135618E+01 -0.21353255447E+02  0.62414883503E+02  0.66080623109E+02  0.10566000000E+00 0.  1.
         13    1    4    4    0    0  0.28197039261E+01  0.11779938493E+02 -0.55826462754E+01  0.13337720367E+02  0.10566000000E+00 0. -1.
        -13    1    4    4    0    0  0.28497098800E+00  0.11396017694E+01 -0.32728559795E+00  0.12240018608E+01  0.10566000000E+00 0.  1.
         14    1    4    4    0    0  0.77583864772E+00  0.84337151842E+01 -0.45278213790E+01  0.96036786627E+01  0.00000000000E+00 0. -1.
<mgrwt>
<rscale>  0 0.73774811E+02</rscale>
<asrwt>0</asrwt>
<pdfrwt beam="1">  1        2 0.29437611E-02 0.73774811E+02</pdfrwt>
<pdfrwt beam="2">  1       -1 0.10940242E-01 0.73774811E+02</pdfrwt>
<totfact> 0.15507447E+05</totfact>
</mgrwt>
</event>
<event>
 8    1  0.2603554E-024  0.8063410E+02  0.7818608E-02  0.1327262E+00
          2   -1    0    0  501    0  0.00000000000E+00  0.00000000000E+00  0.30938650561E+02  0.30938650666E+02  0.25500000000E-02 0. -1.
         -1   -1    0    0    0  501 -0.00000000000E+00 -0.00000000000E+00 -0.52538314210E+02  0.52538314452E+02  0.50400000000E-02 0.  1.
         24    2    1    2    0    0  0.00000000000E+00  0.35527136788E-14 -0.21599663649E+02  0.83476965118E+02  0.80634100947E+02 0.  0.
         66    2    3    3    0    0  0.29602942039E+02 -0.27291026507E+02 -0.12385107006E+02  0.42172564343E+02  0.20000006347E+01 0.  0.
        -13    1    3    3    0    0 -0.29602942039E+02  0.27291026507E+02 -0.92145566433E+01  0.41304400775E+02  0.10566000000E+00 0.  1.
         13    1    4    4    0    0  0.82037544438E+01 -0.75027864814E+01 -0.36667091714E+01  0.11706806232E+02  0.10566000000E+00 0. -1.
        -13    1    4    4    0    0  0.49508675321E+01 -0.55033340543E+01 -0.23981561286E+01  0.77820364871E+01  0.10566000000E+00 0.  1.
         14    1    4    4    0    0  0.16448320063E+02 -0.14284905972E+02 -0.63202417060E+01  0.22683721624E+02  0.00000000000E+00 0. -1.
<mgrwt>
<rscale>  0 0.80634101E+02</rscale>
<asrwt>0</asrwt>
<pdfrwt beam="1">  1        2 0.47597924E-02 0.80634101E+02</pdfrwt>
<pdfrwt beam="2">  1       -1 0.80828176E-02 0.80634101E+02</pdfrwt>
<totfact> 0.13241388E+05</totfact>
</mgrwt>
</event>
<event>
 8    1  0.2603554E-024  0.7835543E+02  0.7818608E-02  0.1333784E+00
         -1   -1    0    0    0  501 -0.00000000000E+00  0.00000000000E+00  0.31662229978E+02  0.31662230379E+02  0.50400000000E-02 0.  1.
          2   -1    0    0  501    0  0.00000000000E+00 -0.00000000000E+00 -0.48477104092E+02  0.48477104159E+02  0.25500000000E-02 0. -1.
         24    2    1    2    0    0  0.00000000000E+00  0.00000000000E+00 -0.16814874114E+02  0.80139334538E+02  0.78355427054E+02 0.  0.
         66    2    3    3    0    0 -0.29260781271E+02  0.71688859272E+01 -0.33988248882E+02  0.45461932517E+02  0.20000000229E+01 0.  0.
        -13    1    3    3    0    0  0.29260781271E+02 -0.71688859272E+01  0.17173374768E+02  0.34677402022E+02  0.10566000000E+00 0.  1.
         13    1    4    4    0    0 -0.16565546713E+02  0.36853376830E+01 -0.19222600406E+02  0.25642125148E+02  0.10566000000E+00 0. -1.
        -13    1    4    4    0    0 -0.49397275888E+01  0.12345554844E+01 -0.48571060621E+01  0.70375904421E+01  0.10566000000E+00 0.  1.
         14    1    4    4    0    0 -0.77555069695E+01  0.22489927598E+01 -0.99085424136E+01  0.12782216926E+02  0.00000000000E+00 0. -1.
<mgrwt>
<rscale>  0 0.78355427E+02</rscale>
<asrwt>0</asrwt>
<pdfrwt beam="1">  1        2 0.74580160E-02 0.78355427E+02</pdfrwt>
<pdfrwt beam="2">  1       -1 0.48711124E-02 0.78355427E+02</pdfrwt>
<totfact> 0.15711956E+05</totfact>
</mgrwt>
</event>
<event>
 8    1  0.2603554E-024  0.7812795E+02  0.7818608E-02  0.1334450E+00
          2   -1    0    0  501    0  0.00000000000E+00  0.00000000000E+00  0.15252181770E+03  0.15252181772E+03  0.25500000000E-02 0. -1.
         -1   -1    0    0    0  501 -0.00000000000E+00 -0.00000000000E+00 -0.10005086614E+02  0.10005087884E+02  0.50400000000E-02 0.  1.
         24    2    1    2    0    0 -0.35527136788E-14  0.00000000000E+00  0.14251673109E+03  0.16252690561E+03  0.78127948944E+02 0.  0.
         66    2    3    3    0    0 -0.31286945475E+02 -0.18037071242E+02  0.10214484879E+03  0.10835948975E+03  0.19999971307E+01 0.  0.
        -13    1    3    3    0    0  0.31286945475E+02  0.18037071242E+02  0.40371882295E+02  0.54167415854E+02  0.10566000000E+00 0.  1.
         13    1    4    4    0    0 -0.40592535765E+01 -0.24658463461E+01  0.13597009758E+02  0.14403047462E+02  0.10566000000E+00 0. -1.
        -13    1    4    4    0    0 -0.14856102990E+02 -0.92391043463E+01  0.51203998523E+02  0.54110308389E+02  0.10566000000E+00 0.  1.
        -14    1    4    4    0    0 -0.12371588908E+02 -0.63321205500E+01  0.37343840513E+02  0.39846133904E+02  0.00000000000E+00 0.  1.
<mgrwt>
<rscale>  0 0.78127949E+02</rscale>
<asrwt>0</asrwt>
<pdfrwt beam="1">  1        2 0.23464895E-01 0.78127949E+02</pdfrwt>
<pdfrwt beam="2">  1       -1 0.15392442E-02 0.78127949E+02</pdfrwt>
<totfact> 0.21441882E+05</totfact>
</mgrwt>
</event>
<event>
 8    1  0.2603554E-024  0.7983163E+02  0.7818608E-02  0.1329530E+00
          2   -1    0    0  501    0  0.00000000000E+00  0.00000000000E+00  0.94526673906E+03  0.94526673907E+03  0.25500000000E-02 0. -1.
         -1   -1    0    0    0  501 -0.00000000000E+00 -0.00000000000E+00 -0.16855229938E+01  0.16855305290E+01  0.50400000000E-02 0.  1.
         24    2    1    2    0    0  0.71054273576E-14  0.00000000000E+00  0.94358121607E+03  0.94695226960E+03  0.79831632660E+02 0.  0.
         66    2    3    3    0    0 -0.29657248412E+02 -0.10095169822E+02  0.76500500949E+03  0.76564882904E+03  0.20000069703E+01 0.  0.
        -13    1    3    3    0    0  0.29657248412E+02  0.10095169822E+02  0.17857620658E+03  0.18130344055E+03  0.10566000000E+00 0.  1.
         13    1    4    4    0    0 -0.23877021828E+00 -0.51906200216E-02  0.56875513008E+01  0.56935438872E+01  0.10566000000E+00 0.  1.
        -13    1    4    4    0    0 -0.13570729545E+02 -0.53526792599E+01  0.35515363289E+03  0.35545313333E+03  0.10566000000E+00 0.  1.
         14    1    4    4    0    0 -0.15847748649E+02 -0.47372999419E+01  0.40416382531E+03  0.40450215183E+03  0.00000000000E+00 0. -1.
<mgrwt>
<rscale>  0 0.79831633E+02</rscale>
<asrwt>0</asrwt>
<pdfrwt beam="1">  1        2 0.14542533E+00 0.79831633E+02</pdfrwt>
<pdfrwt beam="2">  1       -1 0.25931239E-03 0.79831633E+02</pdfrwt>
<totfact> 0.35302660E+05</totfact>
</mgrwt>
</event>
<event>
 8    1  0.2603554E-024  0.7904211E+02  0.7818608E-02  0.1331792E+00
          2   -1    0    0  501    0  0.00000000000E+00  0.00000000000E+00  0.31087798772E+01  0.31087809231E+01  0.25500000000E-02 0. -1.
         -1   -1    0    0    0  501 -0.00000000000E+00 -0.00000000000E+00 -0.50242010612E+03  0.50242010614E+03  0.50400000000E-02 0.  1.
         24    2    1    2    0    0  0.00000000000E+00  0.00000000000E+00 -0.49931132624E+03  0.50552888707E+03  0.79042109955E+02 0.  0.
         66    2    3    3    0    0  0.37144183358E+02  0.55437448381E+01 -0.32801146630E+03  0.33016048443E+03  0.19999973183E+01 0.  0.
        -13    1    3    3    0    0 -0.37144183358E+02 -0.55437448381E+01 -0.17129985994E+03  0.17536840264E+03  0.10566000000E+00 0.  1.
         13    1    4    4    0    0  0.29422760309E+02  0.43861456855E+01 -0.26638828131E+03  0.26804414689E+03  0.10566000000E+00 0. -1.
        -13    1    4    4    0    0  0.58732867948E+01  0.89927926744E+00 -0.46161431997E+02  0.46542380354E+02  0.10566000000E+00 0.  1.
         14    1    4    4    0    0  0.18481362539E+01  0.25831988520E+00 -0.15461752998E+02  0.15573957189E+02  0.00000000000E+00 0. -1.
<mgrwt>
<rscale>  0 0.79042110E+02</rscale>
<asrwt>0</asrwt>
<pdfrwt beam="1">  1        2 0.47827431E-03 0.79042110E+02</pdfrwt>
<pdfrwt beam="2">  1       -1 0.77295337E-01 0.79042110E+02</pdfrwt>
<totfact> 0.68689811E+04</totfact>
</mgrwt>
</event>
<event>
 8    1  0.2603554E-024  0.8013936E+02  0.7818608E-02  0.1328656E+00
          2   -1    0    0  501    0  0.00000000000E+00  0.00000000000E+00  0.17685252695E+03  0.17685252697E+03  0.25500000000E-02 0. -1.
         -1   -1    0    0    0  501 -0.00000000000E+00 -0.00000000000E+00 -0.90786322864E+01  0.90786336854E+01  0.50400000000E-02 0.  1.
         24    2    1    2    0    0  0.35527136788E-14  0.17763568394E-14  0.16777389466E+03  0.18593116065E+03  0.80139358441E+02 0.  0.
         66    2    3    3    0    0 -0.16658086644E+02 -0.14234647838E+02  0.16170412112E+03  0.16319417834E+03  0.20000016278E+01 0.  0.
        -13    1    3    3    0    0  0.16658086644E+02  0.14234647838E+02  0.60697735372E+01  0.22736982309E+02  0.10566000000E+00 0.  1.
         13    1    4    4    0    0 -0.49844910187E+01 -0.44227243868E+01  0.47452382855E+02  0.47918111861E+02  0.10566000000E+00 0. -1.
        -13    1    4    4    0    0 -0.11046233233E+02 -0.87186077810E+01  0.10486982002E+03  0.10580984692E+03  0.10566000000E+00 0.  1.
        -14    1    4    4    0    0 -0.62736239165E+00 -0.10933156706E+01  0.93819182483E+01  0.94662195593E+01  0.00000000000E+00 0.  1.
<mgrwt>
<rscale>  0 0.80139358E+02</rscale>
<asrwt>0</asrwt>
<pdfrwt beam="1">  1        2 0.27208080E-01 0.80139358E+02</pdfrwt>
<pdfrwt beam="2">  1       -1 0.13967128E-02 0.80139358E+02</pdfrwt>
<totfact> 0.21050509E+05</totfact>
</mgrwt>
</event>
<event>
 8    1  0.2603554E-024  0.8013208E+02  0.7818608E-02  0.1328677E+00
         -1   -1    0    0    0  501 -0.00000000000E+00  0.00000000000E+00  0.17838467081E+02  0.17838467793E+02  0.50400000000E-02 0.  1.
          2   -1    0    0  501    0  0.00000000000E+00 -0.00000000000E+00 -0.89990215596E+02  0.89990215632E+02  0.25500000000E-02 0. -1.
         24    2    1    2    0    0  0.00000000000E+00  0.88817841970E-15 -0.72151748515E+02  0.10782868342E+03  0.80132079440E+02 0.  0.
         66    2    3    3    0    0  0.38604424180E+02 -0.43780517022E+01 -0.49131781722E+02  0.62668978619E+02  0.20000007289E+01 0.  0.
        -13    1    3    3    0    0 -0.38604424180E+02  0.43780517022E+01 -0.23019966793E+02  0.45159704806E+02  0.10566000000E+00 0.  1.
         13    1    4    4    0    0  0.24140069870E+02 -0.30513978681E+01 -0.30211892976E+02  0.38792056448E+02  0.10566000000E+00 0. -1.
        -13    1    4    4    0    0  0.23538874661E+01 -0.57908861511E+00 -0.29171710761E+01  0.37943617316E+01  0.10566000000E+00 0.  1.
         14    1    4    4    0    0  0.12110466844E+02 -0.74756521900E+00 -0.16002717670E+02  0.20082560439E+02  0.00000000000E+00 0. -1.
<mgrwt>
<rscale>  0 0.80132079E+02</rscale>
<asrwt>0</asrwt>
<pdfrwt beam="1">  1        2 0.13844648E-01 0.80132079E+02</pdfrwt>
<pdfrwt beam="2">  1       -1 0.27443797E-02 0.80132079E+02</pdfrwt>
<totfact> 0.17144056E+05</totfact>
</mgrwt>
</event>
<event>
 8    1  0.2603554E-024  0.7798743E+02  0.7818608E-02  0.1334862E+00
          2   -1    0    0  501    0  0.00000000000E+00  0.00000000000E+00  0.90884923839E+02  0.90884923875E+02  0.25500000000E-02 0. -1.
         -1   -1    0    0    0  501 -0.00000000000E+00 -0.00000000000E+00 -0.16730054940E+02  0.16730055700E+02  0.50400000000E-02 0.  1.
         24    2    1    2    0    0  0.00000000000E+00 -0.17763568394E-14  0.74154868898E+02  0.10761497957E+03  0.77987430060E+02 0.  0.
         66    2    3    3    0    0  0.19736436143E+02  0.11214067859E+02  0.80808327135E+02  0.83959918802E+02  0.20000003232E+01 0.  0.
        -13    1    3    3    0    0 -0.19736436143E+02 -0.11214067859E+02 -0.66534582370E+01  0.23655060772E+02  0.10566000000E+00 0.  1.
         13    1    4    4    0    0  0.40208325437E+01  0.25011373538E+01  0.16190959887E+02  0.16869532552E+02  0.10566000000E+00 0. -1.
        -13    1    4    4    0    0  0.65133126107E+01  0.27524483883E+01  0.26529051913E+02  0.27455436123E+02  0.10566000000E+00 0.  1.
        -14    1    4    4    0    0  0.92022909889E+01  0.59604821165E+01  0.38088315335E+02  0.39634950127E+02  0.00000000000E+00 0.  1.
<mgrwt>
<rscale>  0 0.77987430E+02</rscale>
<asrwt>0</asrwt>
<pdfrwt beam="1">  1        2 0.13982296E-01 0.77987430E+02</pdfrwt>
<pdfrwt beam="2">  1       -1 0.25738546E-02 0.77987430E+02</pdfrwt>
<totfact> 0.18487079E+05</totfact>
</mgrwt>
</event>
<event>
 8    1  0.2603554E-024  0.7996150E+02  0.7818608E-02  0.1329161E+00
         -1   -1    0    0    0  501 -0.00000000000E+00  0.00000000000E+00  0.43458027458E+01  0.43458056683E+01  0.50400000000E-02 0.  1.
          2   -1    0    0  501    0  0.00000000000E+00 -0.00000000000E+00 -0.36781689685E+03  0.36781689686E+03  0.25500000000E-02 0. -1.
         24    2    1    2    0    0  0.00000000000E+00  0.00000000000E+00 -0.36347109411E+03  0.37216270253E+03  0.79961496378E+02 0.  0.
         66    2    3    3    0    0  0.97488828381E+01 -0.31955081735E+01 -0.36157883461E+03  0.36172987937E+03  0.20000004728E+01 0.  0.
        -13    1    3    3    0    0 -0.97488828381E+01  0.31955081735E+01 -0.18922594985E+01  0.10432823162E+02  0.10566000000E+00 0.  1.
         13    1    4    4    0    0  0.52622504365E+01 -0.14162126548E+01 -0.21015942836E+03  0.21023009639E+03  0.10566000000E+00 0.  1.
        -13    1    4    4    0    0  0.35015357262E+01 -0.18209589702E+01 -0.12172545665E+03  0.12178946836E+03  0.10566000000E+00 0. -1.
        -14    1    4    4    0    0  0.98509667533E+00  0.41663451531E-01 -0.29693949601E+02  0.29710314610E+02  0.00000000000E+00 0.  1.
<mgrwt>
<rscale>  0 0.79961496E+02</rscale>
<asrwt>0</asrwt>
<pdfrwt beam="1">  1        2 0.56587191E-01 0.79961496E+02</pdfrwt>
<pdfrwt beam="2">  1       -1 0.66858555E-03 0.79961496E+02</pdfrwt>
<totfact> 0.27464242E+05</totfact>
</mgrwt>
</event>
<event>
 8    1  0.2603554E-024  0.7776040E+02  0.7818608E-02  0.1335530E+00
         -1   -1    0    0    0  501 -0.00000000000E+00  0.00000000000E+00  0.48335839579E+01  0.48335865855E+01  0.50400000000E-02 0.  1.
          2   -1    0    0  501    0  0.00000000000E+00 -0.00000000000E+00 -0.31274303641E+03  0.31274303642E+03  0.25500000000E-02 0. -1.
         24    2    1    2    0    0  0.00000000000E+00  0.00000000000E+00 -0.30790945245E+03  0.31757662301E+03  0.77760404902E+02 0.  0.
         66    2    3    3    0    0  0.14754861287E+02  0.25569735039E+02 -0.25722563679E+03  0.25892189075E+03  0.20000019051E+01 0.  0.
        -13    1    3    3    0    0 -0.14754861287E+02 -0.25569735039E+02 -0.50683815665E+02  0.58654732255E+02  0.10566000000E+00 0.  1.
         13    1    4    4    0    0  0.44583810225E+00  0.61636557195E+00 -0.53303090971E+01  0.53853539566E+01  0.10566000000E+00 0.  1.
        -13    1    4    4    0    0  0.30766715271E+01  0.51492066211E+01 -0.47675383715E+02  0.48051364319E+02  0.10566000000E+00 0.  1.
         14    1    4    4    0    0  0.11232351658E+02  0.19804162846E+02 -0.20421994398E+03  0.20548517248E+03  0.00000000000E+00 0. -1.
<mgrwt>
<rscale>  0 0.77760405E+02</rscale>
<asrwt>0</asrwt>
<pdfrwt beam="1">  1        2 0.48114298E-01 0.77760405E+02</pdfrwt>
<pdfrwt beam="2">  1       -1 0.74362875E-03 0.77760405E+02</pdfrwt>
<totfact> 0.27877126E+05</totfact>
</mgrwt>
</event>
<event>
 8    1  0.2603554E-024  0.8391286E+02  0.7818608E-02  0.1318300E+00
          2   -1    0    0  501    0  0.00000000000E+00  0.00000000000E+00  0.65392733143E+02  0.65392733192E+02  0.25500000000E-02 0. -1.
         -1   -1    0    0    0  501 -0.00000000000E+00 -0.00000000000E+00 -0.26919534817E+02  0.26919535289E+02  0.50400000000E-02 0.  1.
         24    2    1    2    0    0  0.00000000000E+00 -0.71054273576E-14  0.38473198325E+02  0.92312268481E+02  0.83912859103E+02 0.  0.
         66    2    3    3    0    0 -0.22836105141E+01 -0.41331024600E+02  0.26616378926E+02  0.49253427324E+02  0.20000011479E+01 0.  0.
        -13    1    3    3    0    0  0.22836105141E+01  0.41331024600E+02  0.11856819399E+02  0.43058841157E+02  0.10566000000E+00 0.  1.
         13    1    4    4    0    0 -0.15128651605E+01 -0.15008196523E+02  0.93409820312E+01  0.17742599393E+02  0.10566000000E+00 0. -1.
        -13    1    4    4    0    0  0.14693780231E+00 -0.25560143411E+01  0.18876483825E+01  0.31826373468E+01  0.10566000000E+00 0.  1.
         14    1    4    4    0    0 -0.91768315590E+00 -0.23766813736E+02  0.15387748512E+02  0.28328190585E+02  0.00000000000E+00 0. -1.
<mgrwt>
<rscale>  0 0.83912859E+02</rscale>
<asrwt>0</asrwt>
<pdfrwt beam="1">  1        2 0.10060420E-01 0.83912859E+02</pdfrwt>
<pdfrwt beam="2">  1       -1 0.41414670E-02 0.83912859E+02</pdfrwt>
<totfact> 0.13947916E+05</totfact>
</mgrwt>
</event>
<event>
 8    1  0.2603554E-024  0.7892436E+02  0.7818608E-02  0.1332132E+00
          2   -1    0    0  501    0  0.00000000000E+00  0.00000000000E+00  0.28660438163E+03  0.28660438164E+03  0.25500000000E-02 0. -1.
         -1   -1    0    0    0  501 -0.00000000000E+00 -0.00000000000E+00 -0.54334948912E+01  0.54334972287E+01  0.50400000000E-02 0.  1.
         24    2    1    2    0    0  0.00000000000E+00  0.00000000000E+00  0.28117088674E+03  0.29203787887E+03  0.78924363447E+02 0.  0.
         66    2    3    3    0    0  0.11682578391E+02 -0.42103506780E+01  0.27917706633E+03  0.27946027280E+03  0.20000042991E+01 0.  0.
        -13    1    3    3    0    0 -0.11682578391E+02  0.42103506780E+01  0.19938204118E+01  0.12577606075E+02  0.10566000000E+00 0.  1.
         13    1    4    4    0    0  0.56788640031E+01 -0.13131204314E+01  0.11788352537E+03  0.11802758364E+03  0.10566000000E+00 0. -1.
        -13    1    4    4    0    0  0.27606451351E+01 -0.10604638416E+01  0.76779873158E+02  0.76836878069E+02  0.10566000000E+00 0.  1.
         14    1    4    4    0    0  0.32430692531E+01 -0.18367664049E+01  0.84513667799E+02  0.84595811089E+02  0.00000000000E+00 0. -1.
<mgrwt>
<rscale>  0 0.78924363E+02</rscale>
<asrwt>0</asrwt>
<pdfrwt beam="1">  1        2 0.44092991E-01 0.78924363E+02</pdfrwt>
<pdfrwt beam="2">  1       -1 0.83592231E-03 0.78924363E+02</pdfrwt>
<totfact> 0.25982010E+05</totfact>
</mgrwt>
</event>
<event>
 8    1  0.2603554E-024  0.8754280E+02  0.7818608E-02  0.1308914E+00
         -1   -1    0    0    0  501 -0.00000000000E+00  0.00000000000E+00  0.33747650760E+01  0.33747688394E+01  0.50400000000E-02 0.  1.
          2   -1    0    0  501    0  0.00000000000E+00 -0.00000000000E+00 -0.56772374404E+03  0.56772374405E+03  0.25500000000E-02 0. -1.
         24    2    1    2    0    0  0.17763568394E-14  0.00000000000E+00 -0.56434897897E+03  0.57109851289E+03  0.87542797316E+02 0.  0.
         66    2    3    3    0    0  0.12904113823E+02 -0.34747387905E+02 -0.43392192233E+03  0.43550675287E+03  0.19999976434E+01 0.  0.
        -13    1    3    3    0    0 -0.12904113823E+02  0.34747387905E+02 -0.13042705664E+03  0.13559176002E+03  0.10566000000E+00 0.  1.
         13    1    4    4    0    0  0.27114368531E+01 -0.70395912910E+01 -0.89471212616E+02  0.89788734184E+02  0.10566000000E+00 0. -1.
        -13    1    4    4    0    0  0.71023322892E+01 -0.16874879444E+02 -0.21431918309E+03  0.21509980959E+03  0.10566000000E+00 0.  1.
        -14    1    4    4    0    0  0.30903446806E+01 -0.10832917170E+02 -0.13013152663E+03  0.13061820910E+03  0.00000000000E+00 0.  1.
<mgrwt>
<rscale>  0 0.87542797E+02</rscale>
<asrwt>0</asrwt>
<pdfrwt beam="1">  1        2 0.87342039E-01 0.87542797E+02</pdfrwt>
<pdfrwt beam="2">  1       -1 0.51919537E-03 0.87542797E+02</pdfrwt>
<totfact> 0.25014081E+05</totfact>
</mgrwt>
</event>
<event>
 8    1  0.2603554E-024  0.8108022E+02  0.7818608E-02  0.1326014E+00
          2   -1    0    0  501    0  0.00000000000E+00  0.00000000000E+00  0.68454238113E+03  0.68454238114E+03  0.25500000000E-02 0. -1.
         -1   -1    0    0    0  501 -0.00000000000E+00 -0.00000000000E+00 -0.24008722905E+01  0.24008775805E+01  0.50400000000E-02 0.  1.
         24    2    1    2    0    0 -0.17763568394E-14 -0.35527136788E-14  0.68214150884E+03  0.68694325872E+03  0.81080223313E+02 0.  0.
         66    2    3    3    0    0 -0.13823726346E+02 -0.25116522037E+02  0.58382501236E+03  0.58453193252E+03  0.19999968102E+01 0.  0.
        -13    1    3    3    0    0  0.13823726346E+02  0.25116522037E+02  0.98316496479E+02  0.10241132620E+03  0.10566000000E+00 0.  1.
         13    1    4    4    0    0 -0.13500198373E+01 -0.21275063762E+01  0.60065356839E+02  0.60118275867E+02  0.10566000000E+00 0. -1.
        -13    1    4    4    0    0 -0.22548881070E+01 -0.43905469017E+01  0.10801780510E+03  0.10813056370E+03  0.10566000000E+00 0.  1.
         14    1    4    4    0    0 -0.10218818402E+02 -0.18598468759E+02  0.41574185042E+03  0.41628309296E+03  0.00000000000E+00 0. -1.
<mgrwt>
<rscale>  0 0.81080223E+02</rscale>
<asrwt>0</asrwt>
<pdfrwt beam="1">  1        2 0.10531436E+00 0.81080223E+02</pdfrwt>
<pdfrwt beam="2">  1       -1 0.36936484E-03 0.81080223E+02</pdfrwt>
<totfact> 0.32137023E+05</totfact>
</mgrwt>
</event>
<event>
 8    1  0.2603554E-024  0.8201158E+02  0.7818608E-02  0.1323438E+00
         -1   -1    0    0    0  501 -0.00000000000E+00  0.00000000000E+00  0.28634054542E+01  0.28634098898E+01  0.50400000000E-02 0.  1.
          2   -1    0    0  501    0  0.00000000000E+00 -0.00000000000E+00 -0.58722852577E+03  0.58722852577E+03  0.25500000000E-02 0. -1.
         24    2    1    2    0    0  0.35527136788E-14 -0.35527136788E-14 -0.58436512031E+03  0.59009193566E+03  0.82011576594E+02 0.  0.
         66    2    3    3    0    0  0.24577318184E+02 -0.22243348653E+02 -0.46573821008E+03  0.46692064792E+03  0.19999995668E+01 0.  0.
        -13    1    3    3    0    0 -0.24577318184E+02  0.22243348653E+02 -0.11862691024E+03  0.12317128774E+03  0.10566000000E+00 0.  1.
         13    1    4    4    0    0  0.80827072493E+01 -0.75680752044E+01 -0.14766476500E+03  0.14807937028E+03  0.10566000000E+00 0. -1.
        -13    1    4    4    0    0  0.12958687115E+02 -0.11703196954E+02 -0.25842107627E+03  0.25901033997E+03  0.10566000000E+00 0.  1.
         14    1    4    4    0    0  0.35359238192E+01 -0.29720764948E+01 -0.59652368815E+02  0.59830937659E+02  0.00000000000E+00 0. -1.
<mgrwt>
<rscale>  0 0.82011577E+02</rscale>
<asrwt>0</asrwt>
<pdfrwt beam="1">  1        2 0.90342755E-01 0.82011577E+02</pdfrwt>
<pdfrwt beam="2">  1       -1 0.44052473E-03 0.82011577E+02</pdfrwt>
<totfact> 0.29966224E+05</totfact>
</mgrwt>
</event>
<event>
 8    1  0.2603554E-024  0.8346353E+02  0.7818608E-02  0.1319500E+00
          2   -1    0    0  501    0  0.00000000000E+00  0.00000000000E+00  0.51021273101E+03  0.51021273101E+03  0.25500000000E-02 0. -1.
         -1   -1    0    0    0  501 -0.00000000000E+00 -0.00000000000E+00 -0.34133591933E+01  0.34133629142E+01  0.50400000000E-02 0.  1.
         24    2    1    2    0    0  0.00000000000E+00  0.11102230246E-15  0.50679937181E+03  0.51362609393E+03  0.83463531513E+02 0.  0.
         66    2    3    3    0    0  0.12105272497E+02 -0.97095116982E+00  0.49908879164E+03  0.49924052550E+03  0.19999975614E+01 0.  0.
        -13    1    3    3    0    0 -0.12105272497E+02  0.97095116982E+00  0.77105801737E+01  0.14385568430E+02  0.10566000000E+00 0.  1.
         13    1    4    4    0    0  0.43416816141E+01 -0.12651686863E+00  0.15649680332E+03  0.15655710402E+03  0.10566000000E+00 0. -1.
        -13    1    4    4    0    0  0.61415824491E+01 -0.20570850161E+00  0.27788131597E+03  0.27794927286E+03  0.10566000000E+00 0.  1.
        -14    1    4    4    0    0  0.16220084337E+01 -0.63872579959E+00  0.64710672346E+02  0.64734148619E+02  0.00000000000E+00 0.  1.
<mgrwt>
<rscale>  0 0.83463532E+02</rscale>
<asrwt>0</asrwt>
<pdfrwt beam="1">  1        2 0.78494276E-01 0.83463532E+02</pdfrwt>
<pdfrwt beam="2">  1       -1 0.52513240E-03 0.83463532E+02</pdfrwt>
<totfact> 0.27436280E+05</totfact>
</mgrwt>
</event>
<event>
 8    1  0.2603554E-024  0.7934242E+02  0.7818608E-02  0.1330928E+00
         -1   -1    0    0    0  501 -0.00000000000E+00  0.00000000000E+00  0.10499649691E+02  0.10499650901E+02  0.50400000000E-02 0.  1.
          2   -1    0    0  501    0  0.00000000000E+00 -0.00000000000E+00 -0.14989118693E+03  0.14989118695E+03  0.25500000000E-02 0. -1.
         24    2    1    2    0    0 -0.35527136788E-14 -0.35527136788E-14 -0.13939153723E+03  0.16039083785E+03  0.79342423792E+02 0.  0.
         66    2    3    3    0    0  0.28066165868E+02  0.18616075464E+02 -0.11202422436E+03  0.11699442198E+03  0.19999996552E+01 0.  0.
        -13    1    3    3    0    0 -0.28066165868E+02 -0.18616075464E+02 -0.27367312871E+02  0.43396415866E+02  0.10566000000E+00 0.  1.
         13    1    4    4    0    0  0.81779979733E+01  0.53523255336E+01 -0.32612748377E+02  0.34045991838E+02  0.10566000000E+00 0. -1.
        -13    1    4    4    0    0  0.50312975993E+01  0.31542974614E+01 -0.17404003040E+02  0.18389508799E+02  0.10566000000E+00 0.  1.
        -14    1    4    4    0    0  0.14856870295E+02  0.10109452469E+02 -0.62007472947E+02  0.64558921346E+02  0.00000000000E+00 0.  1.
<mgrwt>
<rscale>  0 0.79342424E+02</rscale>
<asrwt>0</asrwt>
<pdfrwt beam="1">  1        2 0.23060181E-01 0.79342424E+02</pdfrwt>
<pdfrwt beam="2">  1       -1 0.16153309E-02 0.79342424E+02</pdfrwt>
<totfact> 0.20468546E+05</totfact>
</mgrwt>
</event>
<event>
 8    1  0.2603554E-024  0.7984529E+02  0.7818608E-02  0.1329491E+00
         -1   -1    0    0    0  501 -0.00000000000E+00  0.00000000000E+00  0.53580832781E+01  0.53580856485E+01  0.50400000000E-02 0.  1.
          2   -1    0    0  501    0  0.00000000000E+00 -0.00000000000E+00 -0.29746035494E+03  0.29746035495E+03  0.25500000000E-02 0. -1.
         24    2    1    2    0    0  0.00000000000E+00  0.00000000000E+00 -0.29210227166E+03  0.30281844060E+03  0.79845293268E+02 0.  0.
         66    2    3    3    0    0 -0.25171902373E+02  0.45538722876E+00 -0.26352718531E+03  0.26473460189E+03  0.19999986280E+01 0.  0.
        -13    1    3    3    0    0  0.25171902373E+02 -0.45538722876E+00 -0.28575086347E+02  0.38083838704E+02  0.10566000000E+00 0.  1.
         13    1    4    4    0    0 -0.79505454337E+01  0.56097111175E+00 -0.81096972033E+02  0.81487765329E+02  0.10566000000E+00 0. -1.
        -13    1    4    4    0    0 -0.15834021976E+02 -0.32432141015E+00 -0.16387067063E+03  0.16463422880E+03  0.10566000000E+00 0.  1.
        -14    1    4    4    0    0 -0.13873349630E+01  0.21873752716E+00 -0.18559542648E+02  0.18612607762E+02  0.00000000000E+00 0.  1.
<mgrwt>
<rscale>  0 0.79845293E+02</rscale>
<asrwt>0</asrwt>
<pdfrwt beam="1">  1        2 0.45763119E-01 0.79845293E+02</pdfrwt>
<pdfrwt beam="2">  1       -1 0.82432092E-03 0.79845293E+02</pdfrwt>
<totfact> 0.25545443E+05</totfact>
</mgrwt>
</event>
<event>
 8    1  0.2603554E-024  0.8291230E+02  0.7818608E-02  0.1320984E+00
          2   -1    0    0  501    0  0.00000000000E+00  0.00000000000E+00  0.65754314444E+02  0.65754314494E+02  0.25500000000E-02 0. -1.
         -1   -1    0    0    0  501 -0.00000000000E+00 -0.00000000000E+00 -0.26136875003E+02  0.26136875489E+02  0.50400000000E-02 0.  1.
         24    2    1    2    0    0  0.88817841970E-15  0.71054273576E-14  0.39617439441E+02  0.91891189983E+02  0.82912298777E+02 0.  0.
         66    2    3    3    0    0  0.54006497060E+01  0.40555461453E+02  0.12578477750E+02  0.42850094111E+02  0.19999979741E+01 0.  0.
        -13    1    3    3    0    0 -0.54006497060E+01 -0.40555461453E+02  0.27038961691E+02  0.49041095872E+02  0.10566000000E+00 0.  1.
         13    1    4    4    0    0  0.22494385940E+01  0.13923294011E+02  0.42052554863E+01  0.14717792900E+02  0.10566000000E+00 0. -1.
        -13    1    4    4    0    0  0.26243441365E+01  0.21292112308E+02  0.60931554944E+01  0.22301994005E+02  0.10566000000E+00 0.  1.
        -14    1    4    4    0    0  0.52686697561E+00  0.53400551336E+01  0.22800667694E+01  0.58303072057E+01  0.00000000000E+00 0.  1.
<mgrwt>
<rscale>  0 0.82912299E+02</rscale>
<asrwt>0</asrwt>
<pdfrwt beam="1">  1        2 0.10116048E-01 0.82912299E+02</pdfrwt>
<pdfrwt beam="2">  1       -1 0.40210577E-02 0.82912299E+02</pdfrwt>
<totfact> 0.14431097E+05</totfact>
</mgrwt>
</event>
<event>
 8    1  0.2603554E-024  0.7881637E+02  0.7818608E-02  0.1332444E+00
         -1   -1    0    0    0  501 -0.00000000000E+00  0.00000000000E+00  0.72997777900E+01  0.72997795299E+01  0.50400000000E-02 0.  1.
          2   -1    0    0  501    0  0.00000000000E+00 -0.00000000000E+00 -0.21274684946E+03  0.21274684947E+03  0.25500000000E-02 0. -1.
         24    2    1    2    0    0 -0.35527136788E-14 -0.88817841970E-15 -0.20544707167E+03  0.22004662900E+03  0.78816366820E+02 0.  0.
         66    2    3    3    0    0 -0.16561690780E+02 -0.69331826692E+01 -0.20065077195E+03  0.20146238088E+03  0.19999998938E+01 0.  0.
        -13    1    3    3    0    0  0.16561690780E+02  0.69331826692E+01 -0.47962997135E+01  0.18584248125E+02  0.10566000000E+00 0.  1.
         13    1    4    4    0    0 -0.11688559100E+02 -0.49336762752E+01 -0.13959985756E+03  0.14017522952E+03  0.10566000000E+00 0. -1.
        -13    1    4    4    0    0 -0.37549772497E+01 -0.15022270550E+01 -0.51397334666E+02  0.51556315958E+02  0.10566000000E+00 0.  1.
        -14    1    4    4    0    0 -0.11181544298E+01 -0.49727933910E+00 -0.96535797247E+01  0.97308353994E+01  0.00000000000E+00 0.  1.
<mgrwt>
<rscale>  0 0.78816367E+02</rscale>
<asrwt>0</asrwt>
<pdfrwt beam="1">  1        2 0.32730280E-01 0.78816367E+02</pdfrwt>
<pdfrwt beam="2">  1       -1 0.11230430E-02 0.78816367E+02</pdfrwt>
<totfact> 0.23442182E+05</totfact>
</mgrwt>
</event>
<event>
 8    1  0.2603554E-024  0.7839316E+02  0.7818608E-02  0.1333674E+00
         -1   -1    0    0    0  501 -0.00000000000E+00  0.00000000000E+00  0.94959454588E+01  0.94959467963E+01  0.50400000000E-02 0.  1.
          2   -1    0    0  501    0  0.00000000000E+00 -0.00000000000E+00 -0.16179237922E+03  0.16179237924E+03  0.25500000000E-02 0. -1.
         24    2    1    2    0    0  0.00000000000E+00  0.00000000000E+00 -0.15229643376E+03  0.17128832603E+03  0.78393155951E+02 0.  0.
         66    2    3    3    0    0  0.27236917102E+00  0.34677176472E+02 -0.11599723844E+03  0.12108649840E+03  0.20000039690E+01 0.  0.
        -13    1    3    3    0    0 -0.27236917102E+00 -0.34677176472E+02 -0.36299195319E+02  0.50201827635E+02  0.10566000000E+00 0.  1.
         13    1    4    4    0    0  0.28438836914E+00  0.30186071901E+02 -0.99831124337E+02  0.10429546665E+03  0.10566000000E+00 0. -1.
        -13    1    4    4    0    0 -0.16438093212E+00  0.57992255490E+00 -0.26377940250E+01  0.27078501832E+01  0.10566000000E+00 0.  1.
         14    1    4    4    0    0  0.15236173401E+00  0.39111820161E+01 -0.13528320079E+02  0.14083181566E+02  0.00000000000E+00 0. -1.
<mgrwt>
<rscale>  0 0.78393156E+02</rscale>
<asrwt>0</asrwt>
<pdfrwt beam="1">  1        2 0.24891133E-01 0.78393156E+02</pdfrwt>
<pdfrwt beam="2">  1       -1 0.14609149E-02 0.78393156E+02</pdfrwt>
<totfact> 0.21662464E+05</totfact>
</mgrwt>
</event>
<event>
 8    1  0.2603554E-024  0.8271680E+02  0.7818608E-02  0.1321514E+00
         -1   -1    0    0    0  501 -0.00000000000E+00  0.00000000000E+00  0.13132795351E+02  0.13132796318E+02  0.50400000000E-02 0.  1.
          2   -1    0    0  501    0  0.00000000000E+00 -0.00000000000E+00 -0.13024775778E+03  0.13024775780E+03  0.25500000000E-02 0. -1.
         24    2    1    2    0    0  0.00000000000E+00  0.00000000000E+00 -0.11711496243E+03  0.14338055412E+03  0.82716799234E+02 0.  0.
         66    2    3    3    0    0  0.11856212183E+02 -0.25320695307E+02 -0.11136205507E+03  0.11483559860E+03  0.20000050474E+01 0.  0.
        -13    1    3    3    0    0 -0.11856212183E+02  0.25320695307E+02 -0.57529073596E+01  0.28544955514E+02  0.10566000000E+00 0.  1.
         13    1    4    4    0    0  0.10586344703E+02 -0.22195505609E+02 -0.97901250428E+02  0.10094244480E+03  0.10566000000E+00 0. -1.
        -13    1    4    4    0    0  0.45308696961E+00 -0.18660993768E+01 -0.69118452506E+01  0.71744256558E+01  0.10566000000E+00 0.  1.
         14    1    4    4    0    0  0.81678051079E+00 -0.12590903210E+01 -0.65489593874E+01  0.67187281458E+01  0.00000000000E+00 0. -1.
<mgrwt>
<rscale>  0 0.82716799E+02</rscale>
<asrwt>0</asrwt>
<pdfrwt beam="1">  1        2 0.20038116E-01 0.82716799E+02</pdfrwt>
<pdfrwt beam="2">  1       -1 0.20204302E-02 0.82716799E+02</pdfrwt>
<totfact> 0.17525508E+05</totfact>
</mgrwt>
</event>
<event>
 8    1  0.2603554E-024  0.8068410E+02  0.7818608E-02  0.1327121E+00
          2   -1    0    0  501    0  0.00000000000E+00  0.00000000000E+00  0.57978407052E+03  0.57978407052E+03  0.25500000000E-02 0. -1.
         -1   -1    0    0    0  501 -0.00000000000E+00 -0.00000000000E+00 -0.28070445914E+01  0.28070491161E+01  0.50400000000E-02 0.  1.
         24    2    1    2    0    0  0.88817841970E-15 -0.71054273576E-14  0.57697702593E+03  0.58259111964E+03  0.80684101507E+02 0.  0.
         66    2    3    3    0    0  0.65358304901E+01 -0.25136319073E+02  0.51132871429E+03  0.51199180235E+03  0.20000003006E+01 0.  0.
        -13    1    3    3    0    0 -0.65358304901E+01  0.25136319073E+02  0.65648311636E+02  0.70599317287E+02  0.10566000000E+00 0.  1.
         13    1    4    4    0    0  0.31555909811E+01 -0.11080025283E+02  0.20991419973E+03  0.21023012897E+03  0.10566000000E+00 0. -1.
        -13    1    4    4    0    0  0.12621065429E+00 -0.10158653601E+01  0.22450121485E+02  0.22473696409E+02  0.10566000000E+00 0.  1.
         14    1    4    4    0    0  0.32540288548E+01 -0.13040428431E+02  0.27896439307E+03  0.27928797697E+03  0.00000000000E+00 0. -1.
<mgrwt>
<rscale>  0 0.80684102E+02</rscale>
<asrwt>0</asrwt>
<pdfrwt beam="1">  1        2 0.89197659E-01 0.80684102E+02</pdfrwt>
<pdfrwt beam="2">  1       -1 0.43185283E-03 0.80684102E+02</pdfrwt>
<totfact> 0.31154668E+05</totfact>
</mgrwt>
</event>
<event>
 8    1  0.2603554E-024  0.7871626E+02  0.7818608E-02  0.1332734E+00
          2   -1    0    0  501    0  0.00000000000E+00  0.00000000000E+00  0.83598348510E+02  0.83598348549E+02  0.25500000000E-02 0. -1.
         -1   -1    0    0    0  501 -0.00000000000E+00 -0.00000000000E+00 -0.18529818541E+02  0.18529819226E+02  0.50400000000E-02 0.  1.
         24    2    1    2    0    0  0.17763568394E-14  0.00000000000E+00  0.65068529969E+02  0.10212816777E+03  0.78716256648E+02 0.  0.
         66    2    3    3    0    0  0.10732500603E+02  0.16839772150E+02  0.76520245012E+02  0.79108232138E+02  0.20000000087E+01 0.  0.
        -13    1    3    3    0    0 -0.10732500603E+02 -0.16839772150E+02 -0.11451715043E+02  0.23019935637E+02  0.10566000000E+00 0.  1.
         13    1    4    4    0    0  0.19705529704E+01  0.41194674261E+01  0.16388456528E+02  0.17013105604E+02  0.10566000000E+00 0.  1.
        -13    1    4    4    0    0  0.20135558766E+01  0.35481201939E+01  0.14422518811E+02  0.14988788379E+02  0.10566000000E+00 0.  1.
         14    1    4    4    0    0  0.67483917558E+01  0.91721845301E+01  0.45709269674E+02  0.47106338156E+02  0.00000000000E+00 0. -1.
<mgrwt>
<rscale>  0 0.78716257E+02</rscale>
<asrwt>0</asrwt>
<pdfrwt beam="1">  1        2 0.12861284E-01 0.78716257E+02</pdfrwt>
<pdfrwt beam="2">  1       -1 0.28507414E-02 0.78716257E+02</pdfrwt>
<totfact> 0.17637941E+05</totfact>
</mgrwt>
</event>
<event>
 8    1  0.2603554E-024  0.7852576E+02  0.7818608E-02  0.1333288E+00
          2   -1    0    0  501    0  0.00000000000E+00  0.00000000000E+00  0.11723297738E+03  0.11723297741E+03  0.25500000000E-02 0. -1.
         -1   -1    0    0    0  501 -0.00000000000E+00 -0.00000000000E+00 -0.13149660129E+02  0.13149661095E+02  0.50400000000E-02 0.  1.
         24    2    1    2    0    0  0.00000000000E+00 -0.35527136788E-14  0.10408331725E+03  0.13038263850E+03  0.78525763244E+02 0.  0.
         66    2    3    3    0    0  0.75042521176E+01 -0.25776341118E+02  0.99587606017E+02  0.10316212887E+03  0.19999996826E+01 0.  0.
        -13    1    3    3    0    0 -0.75042521176E+01  0.25776341118E+02  0.44957112321E+01  0.27220509635E+02  0.10566000000E+00 0.  1.
         13    1    4    4    0    0  0.36168985138E+01 -0.15092322973E+02  0.55808699376E+02  0.57926524647E+02  0.10566000000E+00 0. -1.
        -13    1    4    4    0    0  0.13452950958E+01 -0.32096566780E+01  0.12517209979E+02  0.12992437207E+02  0.10566000000E+00 0.  1.
         14    1    4    4    0    0  0.25420585080E+01 -0.74743614672E+01  0.31261696663E+02  0.32243167013E+02  0.00000000000E+00 0. -1.
<mgrwt>
<rscale>  0 0.78525763E+02</rscale>
<asrwt>0</asrwt>
<pdfrwt beam="1">  1        2 0.18035842E-01 0.78525763E+02</pdfrwt>
<pdfrwt beam="2">  1       -1 0.20230248E-02 0.78525763E+02</pdfrwt>
<totfact> 0.19500368E+05</totfact>
</mgrwt>
</event>
<event>
 8    1  0.2603554E-024  0.7978160E+02  0.7818608E-02  0.1329672E+00
          2   -1    0    0  501    0  0.00000000000E+00  0.00000000000E+00  0.33273854310E+03  0.33273854311E+03  0.25500000000E-02 0. -1.
         -1   -1    0    0    0  501 -0.00000000000E+00 -0.00000000000E+00 -0.47823604910E+01  0.47823631468E+01  0.50400000000E-02 0.  1.
         24    2    1    2    0    0  0.00000000000E+00  0.00000000000E+00  0.32795618261E+03  0.33752090626E+03  0.79781604702E+02 0.  0.
         66    2    3    3    0    0 -0.94391968757E+01  0.13079330401E+02  0.31831387330E+03  0.31872855105E+03  0.19999990955E+01 0.  0.
        -13    1    3    3    0    0  0.94391968757E+01 -0.13079330401E+02  0.96423093060E+01  0.18792355206E+02  0.10566000000E+00 0.  1.
         13    1    4    4    0    0 -0.13504093545E+01  0.22580856103E+01  0.50926184111E+02  0.50994214850E+02  0.10566000000E+00 0.  1.
        -13    1    4    4    0    0 -0.27005745501E+01  0.30772221541E+01  0.67493719688E+02  0.67617865690E+02  0.10566000000E+00 0. -1.
         14    1    4    4    0    0 -0.53882129712E+01  0.77440226365E+01  0.19989396950E+03  0.20011647051E+03  0.00000000000E+00 0. -1.
<mgrwt>
<rscale>  0 0.79781605E+02</rscale>
<asrwt>0</asrwt>
<pdfrwt beam="1">  1        2 0.51190545E-01 0.79781605E+02</pdfrwt>
<pdfrwt beam="2">  1       -1 0.73574797E-03 0.79781605E+02</pdfrwt>
<totfact> 0.26655724E+05</totfact>
</mgrwt>
</event>
<event>
 8    1  0.2603554E-024  0.7999088E+02  0.7818608E-02  0.1329077E+00
         -1   -1    0    0    0  501 -0.00000000000E+00  0.00000000000E+00  0.18713985292E+02  0.18713985970E+02  0.50400000000E-02 0.  1.
          2   -1    0    0  501    0  0.00000000000E+00 -0.00000000000E+00 -0.85478066166E+02  0.85478066204E+02  0.25500000000E-02 0. -1.
         24    2    1    2    0    0  0.35527136788E-14 -0.35527136788E-14 -0.66764080874E+02  0.10419205217E+03  0.79990882239E+02 0.  0.
         66    2    3    3    0    0  0.19582882988E+02 -0.21429041125E+02 -0.69191847831E+02  0.75061341128E+02  0.20000039937E+01 0.  0.
        -13    1    3    3    0    0 -0.19582882988E+02  0.21429041125E+02  0.24277669571E+01  0.29130711046E+02  0.10566000000E+00 0.  1.
         13    1    4    4    0    0  0.39845992334E+01 -0.39122927288E+01 -0.11773884057E+02  0.13031445632E+02  0.10566000000E+00 0. -1.
        -13    1    4    4    0    0  0.93476154268E+01 -0.11070612907E+02 -0.35024676212E+02  0.37903502372E+02  0.10566000000E+00 0.  1.
        -14    1    4    4    0    0  0.62506683278E+01 -0.64461354883E+01 -0.22393287563E+02  0.24126393123E+02  0.00000000000E+00 0.  1.
<mgrwt>
<rscale>  0 0.79990882E+02</rscale>
<asrwt>0</asrwt>
<pdfrwt beam="1">  1        2 0.13150472E-01 0.79990882E+02</pdfrwt>
<pdfrwt beam="2">  1       -1 0.28790748E-02 0.79990882E+02</pdfrwt>
<totfact> 0.16991127E+05</totfact>
</mgrwt>
</event>
<event>
 8    1  0.2603554E-024  0.8068371E+02  0.7818608E-02  0.1327122E+00
          2   -1    0    0  501    0  0.00000000000E+00  0.00000000000E+00  0.65347765266E+03  0.65347765267E+03  0.25500000000E-02 0. -1.
         -1   -1    0    0    0  501 -0.00000000000E+00 -0.00000000000E+00 -0.24904652708E+01  0.24904703705E+01  0.50400000000E-02 0.  1.
         24    2    1    2    0    0 -0.88817841970E-15  0.35527136788E-14  0.65098718739E+03  0.65596812304E+03  0.80683705256E+02 0.  0.
         66    2    3    3    0    0  0.60231213312E+01  0.23992394704E+02  0.58452557365E+03  0.58505218506E+03  0.19999993324E+01 0.  0.
        -13    1    3    3    0    0 -0.60231213312E+01 -0.23992394704E+02  0.66461613737E+02  0.70915937974E+02  0.10566000000E+00 0.  1.
         13    1    4    4    0    0  0.42108738586E+01  0.13642168349E+02  0.34093619763E+03  0.34123502492E+03  0.10566000000E+00 0. -1.
        -13    1    4    4    0    0  0.78277032240E+00  0.32840634183E+01  0.85079280918E+02  0.85146303546E+02  0.10566000000E+00 0. -1.
        -14    1    4    4    0    0  0.10294771503E+01  0.70661629366E+01  0.15851009511E+03  0.15867085660E+03  0.00000000000E+00 0.  1.
<mgrwt>
<rscale>  0 0.80683705E+02</rscale>
<asrwt>0</asrwt>
<pdfrwt beam="1">  1        2 0.10053507E+00 0.80683705E+02</pdfrwt>
<pdfrwt beam="2">  1       -1 0.38314871E-03 0.80683705E+02</pdfrwt>
<totfact> 0.32181358E+05</totfact>
</mgrwt>
</event>
<event>
 8    1  0.2603554E-024  0.7982775E+02  0.7818608E-02  0.1329541E+00
          2   -1    0    0  501    0  0.00000000000E+00  0.00000000000E+00  0.64002584831E+02  0.64002584881E+02  0.25500000000E-02 0. -1.
         -1   -1    0    0    0  501 -0.00000000000E+00 -0.00000000000E+00 -0.24891455084E+02  0.24891455594E+02  0.50400000000E-02 0.  1.
         24    2    1    2    0    0 -0.35527136788E-14  0.17763568394E-14  0.39111129747E+02  0.88894040476E+02  0.79827751828E+02 0.  0.
         66    2    3    3    0    0  0.19498582770E+02 -0.89820564069E+01  0.57005075821E+02  0.60946293921E+02  0.20000015206E+01 0.  0.
        -13    1    3    3    0    0 -0.19498582770E+02  0.89820564069E+01 -0.17893946074E+02  0.27947746554E+02  0.10566000000E+00 0.  1.
         13    1    4    4    0    0  0.93915185151E+01 -0.40804765713E+01  0.24764502952E+02  0.26798184259E+02  0.10566000000E+00 0. -1.
        -13    1    4    4    0    0  0.61355717714E+01 -0.33287633004E+01  0.20173549249E+02  0.21347345488E+02  0.10566000000E+00 0.  1.
        -14    1    4    4    0    0  0.39714924837E+01 -0.15728165352E+01  0.12067023620E+02  0.12800764174E+02  0.00000000000E+00 0.  1.
<mgrwt>
<rscale>  0 0.79827752E+02</rscale>
<asrwt>0</asrwt>
<pdfrwt beam="1">  1        2 0.98465515E-02 0.79827752E+02</pdfrwt>
<pdfrwt beam="2">  1       -1 0.38294547E-02 0.79827752E+02</pdfrwt>
<totfact> 0.15895528E+05</totfact>
</mgrwt>
</event>
<event>
 8    1  0.2603554E-024  0.8397558E+02  0.7818608E-02  0.1318133E+00
         -1   -1    0    0    0  501 -0.00000000000E+00  0.00000000000E+00  0.90421055192E+01  0.90421069239E+01  0.50400000000E-02 0.  1.
          2   -1    0    0  501    0  0.00000000000E+00 -0.00000000000E+00 -0.19497385982E+03  0.19497385983E+03  0.25500000000E-02 0. -1.
         24    2    1    2    0    0  0.00000000000E+00 -0.35527136788E-14 -0.18593175430E+03  0.20401596676E+03  0.83975576424E+02 0.  0.
         66    2    3    3    0    0 -0.19890948001E+02  0.30820717860E+02 -0.14253450355E+03  0.14719256490E+03  0.19999997046E+01 0.  0.
        -13    1    3    3    0    0  0.19890948001E+02 -0.30820717860E+02 -0.43397250751E+02  0.56823401857E+02  0.10566000000E+00 0.  1.
         13    1    4    4    0    0 -0.11999704783E+02  0.18739013049E+02 -0.87091297935E+02  0.89889092024E+02  0.10566000000E+00 0. -1.
        -13    1    4    4    0    0 -0.20125735596E+01  0.25936831202E+01 -0.10984050728E+02  0.11464649096E+02  0.10566000000E+00 0.  1.
        -14    1    4    4    0    0 -0.58786696582E+01  0.94880216916E+01 -0.44459154883E+02  0.45838823779E+02  0.00000000000E+00 0.  1.
<mgrwt>
<rscale>  0 0.83975576E+02</rscale>
<asrwt>0</asrwt>
<pdfrwt beam="1">  1        2 0.29995975E-01 0.83975576E+02</pdfrwt>
<pdfrwt beam="2">  1       -1 0.13910934E-02 0.83975576E+02</pdfrwt>
<totfact> 0.19231091E+05</totfact>
</mgrwt>
</event>
<event>
 8    1  0.2603554E-024  0.8020065E+02  0.7818608E-02  0.1328483E+00
          2   -1    0    0  501    0  0.00000000000E+00  0.00000000000E+00  0.59959605172E+03  0.59959605173E+03  0.25500000000E-02 0. -1.
         -1   -1    0    0    0  501 -0.00000000000E+00 -0.00000000000E+00 -0.26818633767E+01  0.26818681125E+01  0.50400000000E-02 0.  1.
         24    2    1    2    0    0  0.71054273576E-14  0.00000000000E+00  0.59691418835E+03  0.60227791984E+03  0.80200651361E+02 0.  0.
         66    2    3    3    0    0 -0.34884090660E+02  0.17820284613E+02  0.36217249361E+03  0.36429023794E+03  0.20000014541E+01 0.  0.
        -13    1    3    3    0    0  0.34884090660E+02 -0.17820284613E+02  0.23474169474E+03  0.23798768190E+03  0.10566000000E+00 0.  1.
         13    1    4    4    0    0 -0.19486946382E+02  0.10145239381E+02  0.20513974883E+03  0.20631285631E+03  0.10566000000E+00 0. -1.
        -13    1    4    4    0    0 -0.12129666193E+02  0.64049474165E+01  0.12134116353E+03  0.12211405031E+03  0.10566000000E+00 0.  1.
         14    1    4    4    0    0 -0.32674780854E+01  0.12700978151E+01  0.35691581244E+02  0.35863331318E+02  0.00000000000E+00 0. -1.
<mgrwt>
<rscale>  0 0.80200651E+02</rscale>
<asrwt>0</asrwt>
<pdfrwt beam="1">  1        2 0.92245758E-01 0.80200651E+02</pdfrwt>
<pdfrwt beam="2">  1       -1 0.41259379E-03 0.80200651E+02</pdfrwt>
<totfact> 0.31948556E+05</totfact>
</mgrwt>
</event>
<event>
 8    1  0.2603554E-024  0.8052930E+02  0.7818608E-02  0.1327556E+00
         -1   -1    0    0    0  501 -0.00000000000E+00  0.00000000000E+00  0.25769021821E+02  0.25769022314E+02  0.50400000000E-02 0.  1.
          2   -1    0    0  501    0  0.00000000000E+00 -0.00000000000E+00 -0.62914383973E+02  0.62914384025E+02  0.25500000000E-02 0. -1.
         24    2    1    2    0    0  0.17763568394E-14  0.00000000000E+00 -0.37145362152E+02  0.88683406338E+02  0.80529302930E+02 0.  0.
         66    2    3    3    0    0 -0.11575868211E+02 -0.36644814155E+02 -0.31725284749E+02  0.49873207519E+02  0.20000016404E+01 0.  0.
        -13    1    3    3    0    0  0.11575868211E+02  0.36644814155E+02 -0.54200774031E+01  0.38810198819E+02  0.10566000000E+00 0.  1.
         13    1    4    4    0    0 -0.46536864811E+01 -0.14696147642E+02 -0.11860691916E+02  0.19450468635E+02  0.10566000000E+00 0. -1.
        -13    1    4    4    0    0 -0.41139864698E+00 -0.21563889501E+01 -0.16560485275E+01  0.27518944224E+01  0.10566000000E+00 0.  1.
         14    1    4    4    0    0 -0.65107830827E+01 -0.19792277563E+02 -0.18208544306E+02  0.27670844461E+02  0.00000000000E+00 0. -1.
<mgrwt>
<rscale>  0 0.80529303E+02</rscale>
<asrwt>0</asrwt>
<pdfrwt beam="1">  1        2 0.96791359E-02 0.80529303E+02</pdfrwt>
<pdfrwt beam="2">  1       -1 0.39644650E-02 0.80529303E+02</pdfrwt>
<totfact> 0.15459551E+05</totfact>
</mgrwt>
</event>
<event>
 8    1  0.2603554E-024  0.7794005E+02  0.7818608E-02  0.1335001E+00
         -1   -1    0    0    0  501 -0.00000000000E+00  0.00000000000E+00  0.28789183076E+01  0.28789227192E+01  0.50400000000E-02 0.  1.
          2   -1    0    0  501    0  0.00000000000E+00 -0.00000000000E+00 -0.52751120709E+03  0.52751120710E+03  0.25500000000E-02 0. -1.
         24    2    1    2    0    0  0.00000000000E+00  0.00000000000E+00 -0.52463228878E+03  0.53039012982E+03  0.77940049862E+02 0.  0.
         66    2    3    3    0    0 -0.70099172050E+01 -0.28144078077E+02 -0.43934645897E+03  0.44030732346E+03  0.20000032688E+01 0.  0.
        -13    1    3    3    0    0  0.70099172050E+01  0.28144078077E+02 -0.85285829812E+02  0.90082806355E+02  0.10566000000E+00 0.  1.
         13    1    4    4    0    0 -0.44008272996E+01 -0.19732532649E+02 -0.31543614712E+03  0.31608339754E+03  0.10566000000E+00 0. -1.
        -13    1    4    4    0    0 -0.22289492143E+01 -0.73520134332E+01 -0.11016549500E+03  0.11043309182E+03  0.10566000000E+00 0.  1.
         14    1    4    4    0    0 -0.38014069117E+00 -0.10595319948E+01 -0.13744816849E+02  0.13790834101E+02  0.00000000000E+00 0. -1.
<mgrwt>
<rscale>  0 0.77940050E+02</rscale>
<asrwt>0</asrwt>
<pdfrwt beam="1">  1        2 0.81155494E-01 0.77940050E+02</pdfrwt>
<pdfrwt beam="2">  1       -1 0.44291127E-03 0.77940050E+02</pdfrwt>
<totfact> 0.33141654E+05</totfact>
</mgrwt>
</event>
<event>
 8    1  0.2603554E-024  0.7890678E+02  0.7818608E-02  0.1332183E+00
          2   -1    0    0  501    0  0.00000000000E+00  0.00000000000E+00  0.12379080499E+02  0.12379080761E+02  0.25500000000E-02 0. -1.
         -1   -1    0    0    0  501 -0.00000000000E+00 -0.00000000000E+00 -0.12574198332E+03  0.12574198342E+03  0.50400000000E-02 0.  1.
         24    2    1    2    0    0  0.35527136788E-14  0.17763568394E-14 -0.11336290282E+03  0.13812106418E+03  0.78906784467E+02 0.  0.
         66    2    3    3    0    0  0.18341589011E+02  0.14169393692E+02 -0.88526277060E+00  0.23280233985E+02  0.19999997910E+01 0.  0.
        -13    1    3    3    0    0 -0.18341589011E+02 -0.14169393692E+02 -0.11247764005E+03  0.11484083020E+03  0.10566000000E+00 0.  1.
         13    1    4    4    0    0  0.25670478155E+01  0.20148789140E+01 -0.55672212614E+00  0.33121858473E+01  0.10566000000E+00 0.  1.
        -13    1    4    4    0    0  0.19198685433E+00  0.18514123354E+00 -0.13755387780E+00  0.31815300327E+00  0.10566000000E+00 0.  1.
         14    1    4    4    0    0  0.15582554341E+02  0.11969373544E+02 -0.19098676666E+00  0.19649895134E+02  0.00000000000E+00 0. -1.
<mgrwt>
<rscale>  0 0.78906784E+02</rscale>
<asrwt>0</asrwt>
<pdfrwt beam="1">  1        2 0.19044740E-02 0.78906784E+02</pdfrwt>
<pdfrwt beam="2">  1       -1 0.19344920E-01 0.78906784E+02</pdfrwt>
<totfact> 0.11658171E+05</totfact>
</mgrwt>
</event>
<event>
 8    1  0.2603554E-024  0.8238233E+02  0.7818608E-02  0.1322424E+00
         -1   -1    0    0    0  501 -0.00000000000E+00  0.00000000000E+00  0.13456924898E+01  0.13457019279E+01  0.50400000000E-02 0.  1.
          2   -1    0    0  501    0  0.00000000000E+00 -0.00000000000E+00 -0.12608422614E+04  0.12608422614E+04  0.25500000000E-02 0. -1.
         24    2    1    2    0    0  0.00000000000E+00  0.00000000000E+00 -0.12594965689E+04  0.12621879633E+04  0.82382326259E+02 0.  0.
         66    2    3    3    0    0 -0.25484883338E+02 -0.15098752763E+01 -0.11249088403E+04  0.11252002746E+04  0.20000037238E+01 0.  0.
        -13    1    3    3    0    0  0.25484883338E+02  0.15098752763E+01 -0.13458772861E+03  0.13698768871E+03  0.10566000000E+00 0.  1.
         13    1    4    4    0    0 -0.82767955030E+01 -0.19943226086E+00 -0.35349395662E+03  0.35359091285E+03  0.10566000000E+00 0. -1.
        -13    1    4    4    0    0 -0.10763587913E+02 -0.15357115603E+01 -0.47946818917E+03  0.47959146034E+03  0.10566000000E+00 0.  1.
        -14    1    4    4    0    0 -0.64444999224E+01  0.22526854485E+00 -0.29194669451E+03  0.29201790144E+03  0.00000000000E+00 0.  1.
<mgrwt>
<rscale>  0 0.82382326E+02</rscale>
<asrwt>0</asrwt>
<pdfrwt beam="1">  1        2 0.19397479E+00 0.82382326E+02</pdfrwt>
<pdfrwt beam="2">  1       -1 0.20703135E-03 0.82382326E+02</pdfrwt>
<totfact> 0.32247599E+05</totfact>
</mgrwt>
</event>
<event>
 8    1  0.2603554E-024  0.8039477E+02  0.7818608E-02  0.1327935E+00
          2   -1    0    0  501    0  0.00000000000E+00  0.00000000000E+00  0.42042840090E+03  0.42042840091E+03  0.25500000000E-02 0. -1.
         -1   -1    0    0    0  501 -0.00000000000E+00 -0.00000000000E+00 -0.38432917295E+01  0.38432950341E+01  0.50400000000E-02 0.  1.
         24    2    1    2    0    0  0.35527136788E-14  0.88817841970E-15  0.41658510918E+03  0.42427169595E+03  0.80394768454E+02 0.  0.
         66    2    3    3    0    0 -0.28587196102E+02  0.40557330360E+01  0.35582357387E+03  0.35699872895E+03  0.20000002439E+01 0.  0.
        -13    1    3    3    0    0  0.28587196102E+02 -0.40557330360E+01  0.60761535305E+02  0.67272966994E+02  0.10566000000E+00 0.  1.
         13    1    4    4    0    0 -0.11606848138E+02  0.14050171845E+01  0.14784571102E+03  0.14830731077E+03  0.10566000000E+00 0. -1.
        -13    1    4    4    0    0 -0.46640237698E+01  0.35083335166E+00  0.50800552640E+02  0.51015522288E+02  0.10566000000E+00 0.  1.
         14    1    4    4    0    0 -0.12316324194E+02  0.22998824998E+01  0.15717731021E+03  0.15767589590E+03  0.00000000000E+00 0. -1.
<mgrwt>
<rscale>  0 0.80394768E+02</rscale>
<asrwt>0</asrwt>
<pdfrwt beam="1">  1        2 0.64681250E-01 0.80394768E+02</pdfrwt>
<pdfrwt beam="2">  1       -1 0.59127630E-03 0.80394768E+02</pdfrwt>
<totfact> 0.28379022E+05</totfact>
</mgrwt>
</event>
<event>
 8    1  0.2603554E-024  0.8004229E+02  0.7818608E-02  0.1328931E+00
          2   -1    0    0  501    0  0.00000000000E+00  0.00000000000E+00  0.85554886063E+02  0.85554886101E+02  0.25500000000E-02 0. -1.
         -1   -1    0    0    0  501 -0.00000000000E+00 -0.00000000000E+00 -0.18721223316E+02  0.18721223994E+02  0.50400000000E-02 0.  1.
         24    2    1    2    0    0  0.00000000000E+00 -0.88817841970E-15  0.66833662747E+02  0.10427611010E+03  0.80042292948E+02 0.  0.
         66    2    3    3    0    0 -0.20146901583E+02 -0.48063281977E+01  0.78012090053E+02  0.80739610032E+02  0.19999998572E+01 0.  0.
        -13    1    3    3    0    0  0.20146901583E+02  0.48063281977E+01 -0.11178427306E+02  0.23536500063E+02  0.10566000000E+00 0.  1.
         13    1    4    4    0    0 -0.16508290599E+02 -0.38414836534E+01  0.63215458922E+02  0.65448346548E+02  0.10566000000E+00 0. -1.
        -13    1    4    4    0    0 -0.28602638509E+01 -0.45647621850E+00  0.10330009905E+02  0.10728921125E+02  0.10566000000E+00 0.  1.
         14    1    4    4    0    0 -0.77834713386E+00 -0.50836832583E+00  0.44666212265E+01  0.45623423585E+01  0.00000000000E+00 0. -1.
<mgrwt>
<rscale>  0 0.80042293E+02</rscale>
<asrwt>0</asrwt>
<pdfrwt beam="1">  1        2 0.13162290E-01 0.80042293E+02</pdfrwt>
<pdfrwt beam="2">  1       -1 0.28801883E-02 0.80042293E+02</pdfrwt>
<totfact> 0.16965802E+05</totfact>
</mgrwt>
</event>
<event>
 8    1  0.2603554E-024  0.8993384E+02  0.7818608E-02  0.1303012E+00
         -1   -1    0    0    0  501 -0.00000000000E+00  0.00000000000E+00  0.29885582564E+01  0.29885625062E+01  0.50400000000E-02 0.  1.
          2   -1    0    0  501    0  0.00000000000E+00 -0.00000000000E+00 -0.67658790375E+03  0.67658790376E+03  0.25500000000E-02 0. -1.
         24    2    1    2    0    0 -0.22204460493E-15 -0.71054273576E-14 -0.67359934549E+03  0.67957646626E+03  0.89933838161E+02 0.  0.
         66    2    3    3    0    0 -0.14748696312E+01 -0.28838626760E+02 -0.59721531184E+03  0.59791635730E+03  0.20000002032E+01 0.  0.
        -13    1    3    3    0    0  0.14748696312E+01  0.28838626760E+02 -0.76384033659E+02  0.81660108963E+02  0.10566000000E+00 0.  1.
         13    1    4    4    0    0 -0.78313170211E+00 -0.17398278937E+02 -0.34624306186E+03  0.34668080774E+03  0.10566000000E+00 0. -1.
        -13    1    4    4    0    0 -0.33217328348E+00 -0.29598777686E+01 -0.57483020391E+02  0.57560229436E+02  0.10566000000E+00 0.  1.
        -14    1    4    4    0    0 -0.35956464561E+00 -0.84804700546E+01 -0.19348922958E+03  0.19367532012E+03  0.00000000000E+00 0.  1.
<mgrwt>
<rscale>  0 0.89933838E+02</rscale>
<asrwt>0</asrwt>
<pdfrwt beam="1">  1        2 0.10409032E+00 0.89933838E+02</pdfrwt>
<pdfrwt beam="2">  1       -1 0.45977906E-03 0.89933838E+02</pdfrwt>
<totfact> 0.24435323E+05</totfact>
</mgrwt>
</event>
<event>
 8    1  0.2603554E-024  0.7617754E+02  0.7818608E-02  0.1340263E+00
          2   -1    0    0  501    0  0.00000000000E+00  0.00000000000E+00  0.85891402186E+02  0.85891402224E+02  0.25500000000E-02 0. -1.
         -1   -1    0    0    0  501 -0.00000000000E+00 -0.00000000000E+00 -0.16890564805E+02  0.16890565557E+02  0.50400000000E-02 0.  1.
         24    2    1    2    0    0  0.00000000000E+00  0.00000000000E+00  0.69000837381E+02  0.10278196778E+03  0.76177538302E+02 0.  0.
         66    2    3    3    0    0  0.11152935479E+02  0.19164634033E+02  0.76265217074E+02  0.79448439463E+02  0.20000075674E+01 0.  0.
        -13    1    3    3    0    0 -0.11152935479E+02 -0.19164634033E+02 -0.72643796929E+01  0.23333528319E+02  0.10566000000E+00 0.  1.
         13    1    4    4    0    0  0.31009090629E+01  0.44442709506E+01  0.17950227179E+02  0.18750706683E+02  0.10566000000E+00 0. -1.
        -13    1    4    4    0    0  0.17774686647E+01  0.40819133961E+01  0.13775178631E+02  0.14477158637E+02  0.10566000000E+00 0.  1.
         14    1    4    4    0    0  0.62745577517E+01  0.10638449687E+02  0.44539811264E+02  0.46220574143E+02  0.00000000000E+00 0. -1.
<mgrwt>
<rscale>  0 0.76177538E+02</rscale>
<asrwt>0</asrwt>
<pdfrwt beam="1">  1        2 0.13214062E-01 0.76177538E+02</pdfrwt>
<pdfrwt beam="2">  1       -1 0.25985485E-02 0.76177538E+02</pdfrwt>
<totfact> 0.19393944E+05</totfact>
</mgrwt>
</event>
<event>
 8    1  0.2603554E-024  0.7826866E+02  0.7818608E-02  0.1334038E+00
          2   -1    0    0  501    0  0.00000000000E+00  0.00000000000E+00  0.16242740470E+03  0.16242740472E+03  0.25500000000E-02 0. -1.
         -1   -1    0    0    0  501 -0.00000000000E+00 -0.00000000000E+00 -0.94288000633E+01  0.94288014103E+01  0.50400000000E-02 0.  1.
         24    2    1    2    0    0  0.88817841970E-15  0.71054273576E-14  0.15299860463E+03  0.17185620613E+03  0.78268656336E+02 0.  0.
         66    2    3    3    0    0 -0.61761143644E+01 -0.36182434324E+02  0.10618548428E+03  0.11236845660E+03  0.20000063022E+01 0.  0.
        -13    1    3    3    0    0  0.61761143644E+01  0.36182434324E+02  0.46813120353E+02  0.59487749524E+02  0.10566000000E+00 0.  1.
         13    1    4    4    0    0 -0.31449272927E+01 -0.14887646132E+02  0.45107645616E+02  0.47605077797E+02  0.10566000000E+00 0. -1.
        -13    1    4    4    0    0 -0.20150654603E+01 -0.12344698577E+02  0.34131247897E+02  0.36351139168E+02  0.10566000000E+00 0.  1.
        -14    1    4    4    0    0 -0.10161216113E+01 -0.89500896149E+01  0.26946590769E+02  0.28412239639E+02  0.00000000000E+00 0.  1.
<mgrwt>
<rscale>  0 0.78268656E+02</rscale>
<asrwt>0</asrwt>
<pdfrwt beam="1">  1        2 0.24988832E-01 0.78268656E+02</pdfrwt>
<pdfrwt beam="2">  1       -1 0.14505847E-02 0.78268656E+02</pdfrwt>
<totfact> 0.21781659E+05</totfact>
</mgrwt>
</event>
<event>
 8    1  0.2603554E-024  0.8085634E+02  0.7818608E-02  0.1326639E+00
          2   -1    0    0  501    0  0.00000000000E+00  0.00000000000E+00  0.20858565052E+03  0.20858565054E+03  0.25500000000E-02 0. -1.
         -1   -1    0    0    0  501 -0.00000000000E+00 -0.00000000000E+00 -0.78358063170E+01  0.78358079378E+01  0.50400000000E-02 0.  1.
         24    2    1    2    0    0  0.00000000000E+00  0.00000000000E+00  0.20074984421E+03  0.21642145848E+03  0.80856340137E+02 0.  0.
         66    2    3    3    0    0  0.26548362625E+02  0.22755867067E+02  0.15461944231E+03  0.15853648472E+03  0.20000004849E+01 0.  0.
        -13    1    3    3    0    0 -0.26548362625E+02 -0.22755867067E+02  0.46130401894E+02  0.57884973758E+02  0.10566000000E+00 0.  1.
         13    1    4    4    0    0  0.81300782214E+01  0.79143627735E+01  0.49538327320E+02  0.50821180109E+02  0.10566000000E+00 0. -1.
        -13    1    4    4    0    0  0.37950376400E+01  0.33479225778E+01  0.20969368497E+02  0.21571659080E+02  0.10566000000E+00 0.  1.
        -14    1    4    4    0    0  0.14623246763E+02  0.11493581716E+02  0.84111746494E+02  0.86143645528E+02  0.00000000000E+00 0.  1.
<mgrwt>
<rscale>  0 0.80856340E+02</rscale>
<asrwt>0</asrwt>
<pdfrwt beam="1">  1        2 0.32090099E-01 0.80856340E+02</pdfrwt>
<pdfrwt beam="2">  1       -1 0.12055088E-02 0.80856340E+02</pdfrwt>
<totfact> 0.21764144E+05</totfact>
</mgrwt>
</event>
<event>
 8    1  0.2603554E-024  0.7883784E+02  0.7818608E-02  0.1332382E+00
          2   -1    0    0  501    0  0.00000000000E+00  0.00000000000E+00  0.75974165735E+03  0.75974165735E+03  0.25500000000E-02 0. -1.
         -1   -1    0    0    0  501 -0.00000000000E+00 -0.00000000000E+00 -0.20452334092E+01  0.20452396191E+01  0.50400000000E-02 0.  1.
         24    2    1    2    0    0 -0.35527136788E-14  0.00000000000E+00  0.75769642394E+03  0.76178689697E+03  0.78837843373E+02 0.  0.
         66    2    3    3    0    0 -0.26208504123E+02 -0.23795192772E+02  0.54610515955E+03  0.54725491517E+03  0.19999998088E+01 0.  0.
        -13    1    3    3    0    0  0.26208504123E+02  0.23795192772E+02  0.21159126439E+03  0.21453198180E+03  0.10566000000E+00 0.  1.
         13    1    4    4    0    0 -0.15561441504E+02 -0.14512446022E+02  0.33128066747E+03  0.33196334339E+03  0.10566000000E+00 0. -1.
        -13    1    4    4    0    0 -0.20616232603E+01 -0.17709525057E+01  0.48653041633E+02  0.48729007659E+02  0.10566000000E+00 0.  1.
        -14    1    4    4    0    0 -0.85854393591E+01 -0.75117942452E+01  0.16617145045E+03  0.16656256412E+03  0.00000000000E+00 0.  1.
<mgrwt>
<rscale>  0 0.78837843E+02</rscale>
<asrwt>0</asrwt>
<pdfrwt beam="1">  1        2 0.11688357E+00 0.78837843E+02</pdfrwt>
<pdfrwt beam="2">  1       -1 0.31465113E-03 0.78837843E+02</pdfrwt>
<totfact> 0.35358250E+05</totfact>
</mgrwt>
</event>
<event>
 8    1  0.2603554E-024  0.8056328E+02  0.7818608E-02  0.1327460E+00
         -1   -1    0    0    0  501 -0.00000000000E+00  0.00000000000E+00  0.20048653813E+01  0.20048717163E+01  0.50400000000E-02 0.  1.
          2   -1    0    0  501    0  0.00000000000E+00 -0.00000000000E+00 -0.80933507303E+03  0.80933507303E+03  0.25500000000E-02 0. -1.
         24    2    1    2    0    0  0.00000000000E+00  0.00000000000E+00 -0.80733020765E+03  0.81133994475E+03  0.80563278020E+02 0.  0.
         66    2    3    3    0    0 -0.66005945556E+01 -0.15759857912E+02 -0.77100389574E+03  0.77119579112E+03  0.20000053589E+01 0.  0.
        -13    1    3    3    0    0  0.66005945556E+01  0.15759857912E+02 -0.36326311901E+02  0.40144153625E+02  0.10566000000E+00 0.  1.
         13    1    4    4    0    0 -0.52706085299E+00 -0.89242608045E+00 -0.51120052234E+02  0.51130667137E+02  0.10566000000E+00 0. -1.
        -13    1    4    4    0    0 -0.23756181607E+00 -0.21270969385E+01 -0.94100343603E+02  0.94124740676E+02  0.10566000000E+00 0.  1.
         14    1    4    4    0    0 -0.58359718866E+01 -0.12740334893E+02 -0.62578349991E+03  0.62594038331E+03  0.00000000000E+00 0. -1.
<mgrwt>
<rscale>  0 0.80563278E+02</rscale>
<asrwt>0</asrwt>
<pdfrwt beam="1">  1        2 0.12451283E+00 0.80563278E+02</pdfrwt>
<pdfrwt beam="2">  1       -1 0.30844196E-03 0.80563278E+02</pdfrwt>
<totfact> 0.33811262E+05</totfact>
</mgrwt>
</event>
<event>
 8    1  0.2603554E-024  0.7980333E+02  0.7818608E-02  0.1329610E+00
          2   -1    0    0  501    0  0.00000000000E+00  0.00000000000E+00  0.10544347278E+03  0.10544347281E+03  0.25500000000E-02 0. -1.
         -1   -1    0    0    0  501 -0.00000000000E+00 -0.00000000000E+00 -0.15099491287E+02  0.15099492128E+02  0.50400000000E-02 0.  1.
         24    2    1    2    0    0 -0.88817841970E-15  0.00000000000E+00  0.90343981490E+02  0.12054296494E+03  0.79803329531E+02 0.  0.
         66    2    3    3    0    0 -0.30512303844E+01  0.23161556754E+02  0.94014698335E+02  0.96894433389E+02  0.20000001811E+01 0.  0.
        -13    1    3    3    0    0  0.30512303844E+01 -0.23161556754E+02 -0.36707168445E+01  0.23648531547E+02  0.10566000000E+00 0.  1.
         13    1    4    4    0    0 -0.81407169716E+00  0.59564121432E+01  0.21166419963E+02  0.22003864579E+02  0.10566000000E+00 0. -1.
        -13    1    4    4    0    0 -0.40449942303E+00  0.18394851386E+01  0.71831330785E+01  0.74267011665E+01  0.10566000000E+00 0. -1.
         14    1    4    4    0    0 -0.18326592642E+01  0.15365659473E+02  0.65665145294E+02  0.67463867644E+02  0.00000000000E+00 0. -1.
<mgrwt>
<rscale>  0 0.79803330E+02</rscale>
<asrwt>0</asrwt>
<pdfrwt beam="1">  1        2 0.16222073E-01 0.79803330E+02</pdfrwt>
<pdfrwt beam="2">  1       -1 0.23229987E-02 0.79803330E+02</pdfrwt>
<totfact> 0.18112301E+05</totfact>
</mgrwt>
</event>
<event>
 8    1  0.2603554E-024  0.8028431E+02  0.7818608E-02  0.1328247E+00
          2   -1    0    0  501    0  0.00000000000E+00  0.00000000000E+00  0.13441984521E+03  0.13441984524E+03  0.25500000000E-02 0. -1.
         -1   -1    0    0    0  501 -0.00000000000E+00 -0.00000000000E+00 -0.11987757976E+02  0.11987759035E+02  0.50400000000E-02 0.  1.
         24    2    1    2    0    0  0.00000000000E+00  0.00000000000E+00  0.12243208724E+03  0.14640760427E+03  0.80284311067E+02 0.  0.
         66    2    3    3    0    0 -0.28090155967E+02 -0.19321655719E+02  0.22698202533E+02  0.41007214500E+02  0.20000002168E+01 0.  0.
        -13    1    3    3    0    0  0.28090155967E+02  0.19321655719E+02  0.99733884705E+02  0.10540038977E+03  0.10566000000E+00 0.  1.
         13    1    4    4    0    0 -0.16592751994E+02 -0.10980967742E+02  0.13594438057E+02  0.24098153071E+02  0.10566000000E+00 0. -1.
        -13    1    4    4    0    0 -0.32443072245E+01 -0.29665146314E+01  0.29748042108E+01  0.53090830238E+01  0.10566000000E+00 0.  1.
        -14    1    4    4    0    0 -0.82530967477E+01 -0.53741733449E+01  0.61289602653E+01  0.11599978405E+02  0.00000000000E+00 0.  1.
<mgrwt>
<rscale>  0 0.80284311E+02</rscale>
<asrwt>0</asrwt>
<pdfrwt beam="1">  1        2 0.20679976E-01 0.80284311E+02</pdfrwt>
<pdfrwt beam="2">  1       -1 0.18442706E-02 0.80284311E+02</pdfrwt>
<totfact> 0.19164151E+05</totfact>
</mgrwt>
</event>
<event>
 8    1  0.2603554E-024  0.8047758E+02  0.7818608E-02  0.1327702E+00
         -1   -1    0    0    0  501 -0.00000000000E+00  0.00000000000E+00  0.30245760901E+02  0.30245761321E+02  0.50400000000E-02 0.  1.
          2   -1    0    0  501    0  0.00000000000E+00 -0.00000000000E+00 -0.53533455672E+02  0.53533455733E+02  0.25500000000E-02 0. -1.
         24    2    1    2    0    0  0.00000000000E+00 -0.71054273576E-14 -0.23287694771E+02  0.83779217054E+02  0.80477577513E+02 0.  0.
         66    2    3    3    0    0  0.14552906908E+02 -0.36198952041E+02 -0.21797890567E+02  0.44735883321E+02  0.19999987524E+01 0.  0.
        -13    1    3    3    0    0 -0.14552906908E+02  0.36198952041E+02 -0.14898042040E+01  0.39043333733E+02  0.10566000000E+00 0.  1.
         13    1    4    4    0    0  0.15025855460E+01 -0.32988646612E+01 -0.15225079274E+01  0.39331241781E+01  0.10566000000E+00 0. -1.
        -13    1    4    4    0    0  0.80274891306E+01 -0.20297108109E+02 -0.11933794136E+02  0.24876490625E+02  0.10566000000E+00 0.  1.
         14    1    4    4    0    0  0.50228322309E+01 -0.12602979271E+02 -0.83415885030E+01  0.15926268517E+02  0.00000000000E+00 0. -1.
<mgrwt>
<rscale>  0 0.80477578E+02</rscale>
<asrwt>0</asrwt>
<pdfrwt beam="1">  1        2 0.82359163E-02 0.80477578E+02</pdfrwt>
<pdfrwt beam="2">  1       -1 0.46531940E-02 0.80477578E+02</pdfrwt>
<totfact> 0.14924352E+05</totfact>
</mgrwt>
</event>
<event>
 8    1  0.2603554E-024  0.7817157E+02  0.7818608E-02  0.1334322E+00
         -1   -1    0    0    0  501 -0.00000000000E+00  0.00000000000E+00  0.12418012789E+03  0.12418012799E+03  0.50400000000E-02 0.  1.
          2   -1    0    0  501    0  0.00000000000E+00 -0.00000000000E+00 -0.12302278834E+02  0.12302279098E+02  0.25500000000E-02 0. -1.
         24    2    1    2    0    0  0.00000000000E+00  0.00000000000E+00  0.11187784906E+03  0.13648240709E+03  0.78171569869E+02 0.  0.
         66    2    3    3    0    0  0.19732015711E+02  0.18339257391E+02  0.65925697654E+01  0.27805445387E+02  0.20000028441E+01 0.  0.
        -13    1    3    3    0    0 -0.19732015711E+02 -0.18339257391E+02  0.10528527929E+03  0.10867696170E+03  0.10566000000E+00 0.  1.
         13    1    4    4    0    0  0.64174960320E+01  0.50530641917E+01  0.20588790824E+01  0.84242424085E+01  0.10566000000E+00 0. -1.
        -13    1    4    4    0    0  0.18792125696E+01  0.22879914181E+01  0.99657951985E+00  0.31258085971E+01  0.10566000000E+00 0.  1.
         14    1    4    4    0    0  0.11435307110E+02  0.10998201781E+02  0.35371111631E+01  0.16255394381E+02  0.00000000000E+00 0. -1.
<mgrwt>
<rscale>  0 0.78171570E+02</rscale>
<asrwt>0</asrwt>
<pdfrwt beam="1">  1        2 0.18926584E-02 0.78171570E+02</pdfrwt>
<pdfrwt beam="2">  1       -1 0.19104634E-01 0.78171570E+02</pdfrwt>
<totfact> 0.11970284E+05</totfact>
</mgrwt>
</event>
<event>
 8    1  0.2603554E-024  0.8145734E+02  0.7818608E-02  0.1324966E+00
          2   -1    0    0  501    0  0.00000000000E+00  0.00000000000E+00  0.66662644676E+03  0.66662644676E+03  0.25500000000E-02 0. -1.
         -1   -1    0    0    0  501 -0.00000000000E+00 -0.00000000000E+00 -0.24883844550E+01  0.24883895590E+01  0.50400000000E-02 0.  1.
         24    2    1    2    0    0  0.11102230246E-15  0.71054273576E-14  0.66413806230E+03  0.66911483632E+03  0.81457340900E+02 0.  0.
         66    2    3    3    0    0 -0.64089079818E+00 -0.32247019844E+02  0.53623126579E+03  0.53720410595E+03  0.20000013500E+01 0.  0.
        -13    1    3    3    0    0  0.64089079818E+00  0.32247019844E+02  0.12790679651E+03  0.13191073037E+03  0.10566000000E+00 0.  1.
         13    1    4    4    0    0 -0.31716818905E-01 -0.32614750028E+01  0.48773820859E+02  0.48882870111E+02  0.10566000000E+00 0. -1.
        -13    1    4    4    0    0 -0.73269665642E+00 -0.22958599798E+02  0.37628106684E+03  0.37698154673E+03  0.10566000000E+00 0.  1.
        -14    1    4    4    0    0  0.12352267715E+00 -0.60269450430E+01  0.11117637810E+03  0.11133968911E+03  0.00000000000E+00 0.  1.
<mgrwt>
<rscale>  0 0.81457341E+02</rscale>
<asrwt>0</asrwt>
<pdfrwt beam="1">  1        2 0.10255785E+00 0.81457341E+02</pdfrwt>
<pdfrwt beam="2">  1       -1 0.38282903E-03 0.81457341E+02</pdfrwt>
<totfact> 0.31548044E+05</totfact>
</mgrwt>
</event>
<event>
 8    1  0.2603554E-024  0.8152890E+02  0.7818608E-02  0.1324768E+00
          2   -1    0    0  501    0  0.00000000000E+00  0.00000000000E+00  0.76137617220E+03  0.76137617221E+03  0.25500000000E-02 0. -1.
         -1   -1    0    0    0  501 -0.00000000000E+00 -0.00000000000E+00 -0.21825456003E+01  0.21825514195E+01  0.50400000000E-02 0.  1.
         24    2    1    2    0    0  0.00000000000E+00 -0.17763568394E-14  0.75919362660E+03  0.76355872363E+03  0.81528901332E+02 0.  0.
         66    2    3    3    0    0  0.16339259319E+02  0.14238452269E+02  0.70290448401E+03  0.70324136580E+03  0.20000009252E+01 0.  0.
        -13    1    3    3    0    0 -0.16339259319E+02 -0.14238452269E+02  0.56289142589E+02  0.60317357830E+02  0.10566000000E+00 0.  1.
         13    1    4    4    0    0  0.11803987876E+02  0.10341106752E+02  0.50580491583E+03  0.50604831455E+03  0.10566000000E+00 0. -1.
        -13    1    4    4    0    0  0.19464946813E+01  0.10711914430E+01  0.79030199643E+02  0.79061494499E+02  0.10566000000E+00 0.  1.
        -14    1    4    4    0    0  0.25887767617E+01  0.28261540736E+01  0.11806936854E+03  0.11813155675E+03  0.00000000000E+00 0.  1.
<mgrwt>
<rscale>  0 0.81528901E+02</rscale>
<asrwt>0</asrwt>
<pdfrwt beam="1">  1        2 0.11713466E+00 0.81528901E+02</pdfrwt>
<pdfrwt beam="2">  1       -1 0.33577710E-03 0.81528901E+02</pdfrwt>
<totfact> 0.32418209E+05</totfact>
</mgrwt>
</event>
<event>
 8    1  0.2603554E-024  0.7905921E+02  0.7818608E-02  0.1331743E+00
         -1   -1    0    0    0  501 -0.00000000000E+00  0.00000000000E+00  0.95304705950E+00  0.95306038592E+00  0.50400000000E-02 0.  1.
          2   -1    0    0  501    0  0.00000000000E+00 -0.00000000000E+00 -0.16395608126E+04  0.16395608126E+04  0.25500000000E-02 0. -1.
         24    2    1    2    0    0  0.00000000000E+00  0.00000000000E+00 -0.16386077655E+04  0.16405138730E+04  0.79059206776E+02 0.  0.
         66    2    3    3    0    0 -0.81878501678E+01 -0.18692638308E+02 -0.15217101062E+04  0.15218482522E+04  0.20000016631E+01 0.  0.
        -13    1    3    3    0    0  0.81878501678E+01  0.18692638308E+02 -0.11689765936E+03  0.11866562074E+03  0.10566000000E+00 0.  1.
         13    1    4    4    0    0 -0.29626134304E+01 -0.74736586218E+01 -0.60904433864E+03  0.60909740621E+03  0.10566000000E+00 0. -1.
        -13    1    4    4    0    0 -0.21392032878E+01 -0.39859021865E+01 -0.28717318988E+03  0.28720883649E+03  0.10566000000E+00 0.  1.
        -14    1    4    4    0    0 -0.30860334495E+01 -0.72330774995E+01 -0.62549257765E+03  0.62554200955E+03  0.00000000000E+00 0.  1.
<mgrwt>
<rscale>  0 0.79059207E+02</rscale>
<asrwt>0</asrwt>
<pdfrwt beam="1">  1        2 0.25223787E+00 0.79059207E+02</pdfrwt>
<pdfrwt beam="2">  1       -1 0.14662496E-03 0.79059207E+02</pdfrwt>
<totfact> 0.32960846E+05</totfact>
</mgrwt>
</event>
<event>
 8    1  0.2603554E-024  0.7908333E+02  0.7818608E-02  0.1331673E+00
         -1   -1    0    0    0  501 -0.00000000000E+00  0.00000000000E+00  0.88216459380E+00  0.88217899100E+00  0.50400000000E-02 0.  1.
          2   -1    0    0  501    0  0.00000000000E+00 -0.00000000000E+00 -0.17723795343E+04  0.17723795343E+04  0.25500000000E-02 0. -1.
         24    2    1    2    0    0 -0.44408920985E-15  0.00000000000E+00 -0.17714973697E+04  0.17732617133E+04  0.79083329180E+02 0.  0.
         66    2    3    3    0    0 -0.33644046274E+01 -0.14932224594E+02 -0.17032041914E+04  0.17032741436E+04  0.19999920253E+01 0.  0.
        -13    1    3    3    0    0  0.33644046274E+01  0.14932224594E+02 -0.68293178281E+02  0.69987569707E+02  0.10566000000E+00 0.  1.
         13    1    4    4    0    0 -0.13204677362E+01 -0.92350910435E+01 -0.10451435591E+04  0.10451851993E+04  0.10566000000E+00 0. -1.
        -13    1    4    4    0    0 -0.42362182014E+00 -0.67641200324E+00 -0.10864467465E+03  0.10864765751E+03  0.10566000000E+00 0. -1.
         14    1    4    4    0    0 -0.16203150710E+01 -0.50207215468E+01 -0.54941595767E+03  0.54944128677E+03  0.00000000000E+00 0. -1.
<mgrwt>
<rscale>  0 0.79083329E+02</rscale>
<asrwt>0</asrwt>
<pdfrwt beam="1">  1        2 0.27267093E+00 0.79083329E+02</pdfrwt>
<pdfrwt beam="2">  1       -1 0.13572016E-03 0.79083329E+02</pdfrwt>
<totfact> 0.31465450E+05</totfact>
</mgrwt>
</event>
<event>
 8    1  0.2603554E-024  0.8348481E+02  0.7818608E-02  0.1319443E+00
         -1   -1    0    0    0  501 -0.00000000000E+00  0.00000000000E+00  0.25632728284E+02  0.25632728780E+02  0.50400000000E-02 0.  1.
          2   -1    0    0  501    0  0.00000000000E+00 -0.00000000000E+00 -0.67976697235E+02  0.67976697283E+02  0.25500000000E-02 0. -1.
         24    2    1    2    0    0  0.00000000000E+00  0.00000000000E+00 -0.42343968950E+02  0.93609426063E+02  0.83484806649E+02 0.  0.
         66    2    3    3    0    0  0.15371547182E+02 -0.38381884172E+02 -0.27424046659E+02  0.49654122167E+02  0.20000044005E+01 0.  0.
        -13    1    3    3    0    0 -0.15371547182E+02  0.38381884172E+02 -0.14919922291E+02  0.43955303896E+02  0.10566000000E+00 0.  1.
         13    1    4    4    0    0  0.11374875797E+02 -0.30066600373E+02 -0.21731671495E+02  0.38802898956E+02  0.10566000000E+00 0. -1.
        -13    1    4    4    0    0  0.22353748992E+01 -0.51431969665E+01 -0.33763976302E+01  0.65468008194E+01  0.10566000000E+00 0. -1.
         14    1    4    4    0    0  0.17612964854E+01 -0.31720868330E+01 -0.23159775338E+01  0.43044223913E+01  0.00000000000E+00 0. -1.
<mgrwt>
<rscale>  0 0.83484807E+02</rscale>
<asrwt>0</asrwt>
<pdfrwt beam="1">  1        2 0.10457953E-01 0.83484807E+02</pdfrwt>
<pdfrwt beam="2">  1       -1 0.39434968E-02 0.83484807E+02</pdfrwt>
<totfact> 0.14278177E+05</totfact>
</mgrwt>
</event>
<event>
 8    1  0.2603554E-024  0.8027780E+02  0.7818608E-02  0.1328265E+00
          2   -1    0    0  501    0  0.00000000000E+00  0.00000000000E+00  0.13707057797E+03  0.13707057800E+03  0.25500000000E-02 0. -1.
         -1   -1    0    0    0  501 -0.00000000000E+00 -0.00000000000E+00 -0.11754027505E+02  0.11754028586E+02  0.50400000000E-02 0.  1.
         24    2    1    2    0    0 -0.17763568394E-14 -0.17763568394E-14  0.12531655047E+03  0.14882460658E+03  0.80277803304E+02 0.  0.
         66    2    3    3    0    0  0.92554921746E+01  0.60639061104E+01  0.13417790178E+03  0.13464822468E+03  0.19999982157E+01 0.  0.
        -13    1    3    3    0    0 -0.92554921746E+01 -0.60639061104E+01 -0.88613513078E+01  0.14176381899E+02  0.10566000000E+00 0.  1.
         13    1    4    4    0    0  0.28501876163E+01  0.13494694702E+01  0.34052634204E+02  0.34198504317E+02  0.10566000000E+00 0. -1.
        -13    1    4    4    0    0  0.53027781177E+01  0.43709814037E+01  0.81877303756E+02  0.82165254022E+02  0.10566000000E+00 0.  1.
         14    1    4    4    0    0  0.11025264407E+01  0.34345523646E+00  0.18247963817E+02  0.18284466345E+02  0.00000000000E+00 0. -1.
<mgrwt>
<rscale>  0 0.80277803E+02</rscale>
<asrwt>0</asrwt>
<pdfrwt beam="1">  1        2 0.21087781E-01 0.80277803E+02</pdfrwt>
<pdfrwt beam="2">  1       -1 0.18083121E-02 0.80277803E+02</pdfrwt>
<totfact> 0.19285673E+05</totfact>
</mgrwt>
</event>
<event>
 8    1  0.2603554E-024  0.8070717E+02  0.7818608E-02  0.1327056E+00
          2   -1    0    0  501    0  0.00000000000E+00  0.00000000000E+00  0.14588847896E+03  0.14588847899E+03  0.25500000000E-02 0. -1.
         -1   -1    0    0    0  501 -0.00000000000E+00 -0.00000000000E+00 -0.11162030517E+02  0.11162031655E+02  0.50400000000E-02 0.  1.
         24    2    1    2    0    0  0.00000000000E+00  0.44408920985E-15  0.13472644845E+03  0.15705051064E+03  0.80707168093E+02 0.  0.
         66    2    3    3    0    0  0.34986487451E+02 -0.38362581151E+01  0.10571685046E+03  0.11143977594E+03  0.20000025287E+01 0.  0.
        -13    1    3    3    0    0 -0.34986487451E+02  0.38362581151E+01  0.29009597988E+02  0.45610734701E+02  0.10566000000E+00 0.  1.
         13    1    4    4    0    0  0.14880737286E+02 -0.11534747062E+01  0.43448555813E+02  0.45940777228E+02  0.10566000000E+00 0. -1.
        -13    1    4    4    0    0  0.41509310195E+01 -0.77310794264E+00  0.14313783858E+02  0.14923923632E+02  0.10566000000E+00 0.  1.
        -14    1    4    4    0    0  0.15954819146E+02 -0.19096754662E+01  0.47954510790E+02  0.50575075081E+02  0.00000000000E+00 0.  1.
<mgrwt>
<rscale>  0 0.80707168E+02</rscale>
<asrwt>0</asrwt>
<pdfrwt beam="1">  1        2 0.22444383E-01 0.80707168E+02</pdfrwt>
<pdfrwt beam="2">  1       -1 0.17172354E-02 0.80707168E+02</pdfrwt>
<totfact> 0.19393465E+05</totfact>
</mgrwt>
</event>
<event>
 8    1  0.2603554E-024  0.7815999E+02  0.7818608E-02  0.1334356E+00
         -1   -1    0    0    0  501 -0.00000000000E+00  0.00000000000E+00  0.42988205006E+02  0.42988205301E+02  0.50400000000E-02 0.  1.
          2   -1    0    0  501    0  0.00000000000E+00 -0.00000000000E+00 -0.35527091493E+02  0.35527091585E+02  0.25500000000E-02 0. -1.
         24    2    1    2    0    0  0.00000000000E+00  0.00000000000E+00  0.74611135125E+01  0.78515296886E+02  0.78159987399E+02 0.  0.
         66    2    3    3    0    0  0.74341917403E+01  0.31756366348E+02 -0.17847379408E+02  0.37232552447E+02  0.19999998854E+01 0.  0.
        -13    1    3    3    0    0 -0.74341917403E+01 -0.31756366348E+02  0.25308492921E+02  0.41282744439E+02  0.10566000000E+00 0.  1.
         13    1    4    4    0    0  0.33569632693E+01  0.15636638495E+02 -0.82047939332E+01  0.17975079231E+02  0.10566000000E+00 0. -1.
        -13    1    4    4    0    0  0.83696271285E+00  0.18378123825E+01 -0.12776179057E+01  0.23919725092E+01  0.10566000000E+00 0.  1.
        -14    1    4    4    0    0  0.32402657582E+01  0.14281915470E+02 -0.83649675694E+01  0.16865500707E+02  0.00000000000E+00 0.  1.
<mgrwt>
<rscale>  0 0.78159987E+02</rscale>
<asrwt>0</asrwt>
<pdfrwt beam="1">  1        2 0.54657064E-02 0.78159987E+02</pdfrwt>
<pdfrwt beam="2">  1       -1 0.66135700E-02 0.78159987E+02</pdfrwt>
<totfact> 0.14843727E+05</totfact>
</mgrwt>
</event>
<event>
 8    1  0.2603554E-024  0.7871125E+02  0.7818608E-02  0.1332749E+00
          2   -1    0    0  501    0  0.00000000000E+00  0.00000000000E+00  0.53272410499E+03  0.53272410500E+03  0.25500000000E-02 0. -1.
         -1   -1    0    0    0  501 -0.00000000000E+00 -0.00000000000E+00 -0.29074409023E+01  0.29074452707E+01  0.50400000000E-02 0.  1.
         24    2    1    2    0    0  0.00000000000E+00  0.00000000000E+00  0.52981666409E+03  0.53563155027E+03  0.78711245043E+02 0.  0.
         66    2    3    3    0    0  0.25361238921E+02 -0.12360963004E+02  0.45155060588E+03  0.45243555951E+03  0.19999989155E+01 0.  0.
        -13    1    3    3    0    0 -0.25361238921E+02  0.12360963004E+02  0.78266058207E+02  0.83195990753E+02  0.10566000000E+00 0.  1.
         13    1    4    4    0    0  0.53379756170E+01 -0.26329777884E+01  0.88236249284E+02  0.88436832867E+02  0.10566000000E+00 0. -1.
        -13    1    4    4    0    0  0.69982964967E+00 -0.15661804358E+00  0.14992171983E+02  0.15009686058E+02  0.10566000000E+00 0.  1.
         14    1    4    4    0    0  0.19323433655E+02 -0.95713671720E+01  0.34832218461E+03  0.34898904059E+03  0.00000000000E+00 0. -1.
<mgrwt>
<rscale>  0 0.78711245E+02</rscale>
<asrwt>0</asrwt>
<pdfrwt beam="1">  1        2 0.81957486E-01 0.78711245E+02</pdfrwt>
<pdfrwt beam="2">  1       -1 0.44729931E-03 0.78711245E+02</pdfrwt>
<totfact> 0.32401816E+05</totfact>
</mgrwt>
</event>
<event>
 8    1  0.2603554E-024  0.7975731E+02  0.7818608E-02  0.1329742E+00
          2   -1    0    0  501    0  0.00000000000E+00  0.00000000000E+00  0.12520157016E+03  0.12520157019E+03  0.25500000000E-02 0. -1.
         -1   -1    0    0    0  501 -0.00000000000E+00 -0.00000000000E+00 -0.12701974853E+02  0.12701975853E+02  0.50400000000E-02 0.  1.
         24    2    1    2    0    0 -0.11102230246E-15 -0.71054273576E-14  0.11249959531E+03  0.13790354604E+03  0.79757313559E+02 0.  0.
         66    2    3    3    0    0  0.61087725129E+00  0.32821696237E+02  0.95357743143E+02  0.10086989682E+03  0.19999981589E+01 0.  0.
        -13    1    3    3    0    0 -0.61087725129E+00 -0.32821696237E+02  0.17141852168E+02  0.37033649222E+02  0.10566000000E+00 0.  1.
         13    1    4    4    0    0  0.10901353523E+01  0.26754520567E+02  0.76460375948E+02  0.81013536029E+02  0.10566000000E+00 0. -1.
        -13    1    4    4    0    0 -0.50153774957E+00  0.56669755590E+01  0.17846161100E+02  0.18731331563E+02  0.10566000000E+00 0.  1.
        -14    1    4    4    0    0  0.22279648564E-01  0.40020011050E+00  0.10512060951E+01  0.11250292288E+01  0.00000000000E+00 0.  1.
<mgrwt>
<rscale>  0 0.79757314E+02</rscale>
<asrwt>0</asrwt>
<pdfrwt beam="1">  1        2 0.19261780E-01 0.79757314E+02</pdfrwt>
<pdfrwt beam="2">  1       -1 0.19541501E-02 0.79757314E+02</pdfrwt>
<totfact> 0.19081143E+05</totfact>
</mgrwt>
</event>
<event>
 8    1  0.2603554E-024  0.7652236E+02  0.7818608E-02  0.1339221E+00
         -1   -1    0    0    0  501 -0.00000000000E+00  0.00000000000E+00  0.10688846079E+01  0.10688964901E+01  0.50400000000E-02 0.  1.
          2   -1    0    0  501    0  0.00000000000E+00 -0.00000000000E+00 -0.13695677410E+04  0.13695677410E+04  0.25500000000E-02 0. -1.
         24    2    1    2    0    0  0.00000000000E+00 -0.17763568394E-14 -0.13684988564E+04  0.13706366375E+04  0.76522363335E+02 0.  0.
         66    2    3    3    0    0  0.21670430970E+01  0.14782650948E+02 -0.13151142582E+04  0.13152006444E+04  0.19999997457E+01 0.  0.
        -13    1    3    3    0    0 -0.21670430970E+01 -0.14782650948E+02 -0.53384598213E+02  0.55435993138E+02  0.10566000000E+00 0.  1.
         13    1    4    4    0    0  0.83928611276E+00  0.80373528830E+01 -0.72825686535E+03  0.72830170708E+03  0.10566000000E+00 0. -1.
        -13    1    4    4    0    0  0.14867124874E+01  0.65747406434E+01 -0.57178361082E+03  0.57182335235E+03  0.10566000000E+00 0.  1.
        -14    1    4    4    0    0 -0.15895550314E+00  0.17055742122E+00 -0.15073782041E+02  0.15075584954E+02  0.00000000000E+00 0.  1.
<mgrwt>
<rscale>  0 0.76522363E+02</rscale>
<asrwt>0</asrwt>
<pdfrwt beam="1">  1        2 0.21070133E+00 0.76522363E+02</pdfrwt>
<pdfrwt beam="2">  1       -1 0.16444580E-03 0.76522363E+02</pdfrwt>
<totfact> 0.38392083E+05</totfact>
</mgrwt>
</event>
<event>
 8    1  0.2603554E-024  0.7729380E+02  0.7818608E-02  0.1336911E+00
         -1   -1    0    0    0  501 -0.00000000000E+00  0.00000000000E+00  0.66868647839E+01  0.66868666833E+01  0.50400000000E-02 0.  1.
          2   -1    0    0  501    0  0.00000000000E+00 -0.00000000000E+00 -0.22336068463E+03  0.22336068465E+03  0.25500000000E-02 0. -1.
         24    2    1    2    0    0  0.44408920985E-15  0.00000000000E+00 -0.21667381985E+03  0.23004755133E+03  0.77293800950E+02 0.  0.
         66    2    3    3    0    0 -0.34575464379E+01 -0.29503010122E+02 -0.18186932099E+03  0.18429007611E+03  0.20000004538E+01 0.  0.
        -13    1    3    3    0    0  0.34575464379E+01  0.29503010122E+02 -0.34804498858E+02  0.45757475220E+02  0.10566000000E+00 0.  1.
         13    1    4    4    0    0 -0.21425462715E+01 -0.17366402032E+02 -0.10953112480E+03  0.11092006531E+03  0.10566000000E+00 0. -1.
        -13    1    4    4    0    0 -0.78417320401E+00 -0.57574700022E+01 -0.31174046102E+02  0.31711129006E+02  0.10566000000E+00 0.  1.
        -14    1    4    4    0    0 -0.53082696243E+00 -0.63791380880E+01 -0.41164150091E+02  0.41658881799E+02  0.00000000000E+00 0.  1.
<mgrwt>
<rscale>  0 0.77293801E+02</rscale>
<asrwt>0</asrwt>
<pdfrwt beam="1">  1        2 0.34363177E-01 0.77293801E+02</pdfrwt>
<pdfrwt beam="2">  1       -1 0.10287488E-02 0.77293801E+02</pdfrwt>
<totfact> 0.25100996E+05</totfact>
</mgrwt>
</event>
<event>
 8    1  0.2603554E-024  0.8014531E+02  0.7818608E-02  0.1328640E+00
         -1   -1    0    0    0  501 -0.00000000000E+00  0.00000000000E+00  0.11052562466E+02  0.11052563615E+02  0.50400000000E-02 0.  1.
          2   -1    0    0  501    0  0.00000000000E+00 -0.00000000000E+00 -0.14528918116E+03  0.14528918118E+03  0.25500000000E-02 0. -1.
         24    2    1    2    0    0  0.00000000000E+00 -0.35527136788E-14 -0.13423661870E+03  0.15634174480E+03  0.80145314073E+02 0.  0.
         66    2    3    3    0    0  0.26823471176E+01  0.30233869994E+02 -0.11812334448E+03  0.12197707325E+03  0.20000016083E+01 0.  0.
        -13    1    3    3    0    0 -0.26823471176E+01 -0.30233869994E+02 -0.16113274220E+02  0.34364671554E+02  0.10566000000E+00 0.  1.
         13    1    4    4    0    0  0.10620817331E+01  0.10643613416E+02 -0.42512674831E+02  0.43837805710E+02  0.10566000000E+00 0. -1.
        -13    1    4    4    0    0  0.10314194491E+01  0.89252906071E+01 -0.31770346161E+02  0.33016521587E+02  0.10566000000E+00 0.  1.
        -14    1    4    4    0    0  0.58884593540E+00  0.10664965971E+02 -0.43840323485E+02  0.45122745948E+02  0.00000000000E+00 0.  1.
<mgrwt>
<rscale>  0 0.80145314E+02</rscale>
<asrwt>0</asrwt>
<pdfrwt beam="1">  1        2 0.22352180E-01 0.80145314E+02</pdfrwt>
<pdfrwt beam="2">  1       -1 0.17003944E-02 0.80145314E+02</pdfrwt>
<totfact> 0.19730777E+05</totfact>
</mgrwt>
</event>
<event>
 8    1  0.2603554E-024  0.8387797E+02  0.7818608E-02  0.1318393E+00
         -1   -1    0    0    0  501 -0.00000000000E+00  0.00000000000E+00  0.46301391786E+01  0.46301419217E+01  0.50400000000E-02 0.  1.
          2   -1    0    0  501    0  0.00000000000E+00 -0.00000000000E+00 -0.37987582398E+03  0.37987582399E+03  0.25500000000E-02 0. -1.
         24    2    1    2    0    0  0.00000000000E+00  0.00000000000E+00 -0.37524568480E+03  0.38450596591E+03  0.83877970043E+02 0.  0.
         66    2    3    3    0    0 -0.37518587915E+02  0.72088349852E+01 -0.26676516239E+03  0.26949445933E+03  0.19999998240E+01 0.  0.
        -13    1    3    3    0    0  0.37518587915E+02 -0.72088349852E+01 -0.10848052241E+03  0.11501150659E+03  0.10566000000E+00 0.  1.
         13    1    4    4    0    0 -0.15776247876E+02  0.34068669700E+01 -0.11689072338E+03  0.11799978439E+03  0.10566000000E+00 0. -1.
        -13    1    4    4    0    0 -0.19726981092E+02  0.37484217729E+01 -0.13578698279E+03  0.13726368897E+03  0.10566000000E+00 0.  1.
        -14    1    4    4    0    0 -0.20153589476E+01  0.53546242295E-01 -0.14087456224E+02  0.14230985972E+02  0.00000000000E+00 0.  1.
<mgrwt>
<rscale>  0 0.83877970E+02</rscale>
<asrwt>0</asrwt>
<pdfrwt beam="1">  1        2 0.58442410E-01 0.83877970E+02</pdfrwt>
<pdfrwt beam="2">  1       -1 0.71232962E-03 0.83877970E+02</pdfrwt>
<totfact> 0.24508997E+05</totfact>
</mgrwt>
</event>
<event>
 8    1  0.2603554E-024  0.8165398E+02  0.7818608E-02  0.1324422E+00
          2   -1    0    0  501    0  0.00000000000E+00  0.00000000000E+00  0.33119692278E+03  0.33119692279E+03  0.25500000000E-02 0. -1.
         -1   -1    0    0    0  501 -0.00000000000E+00 -0.00000000000E+00 -0.50327847165E+01  0.50327872401E+01  0.50400000000E-02 0.  1.
         24    2    1    2    0    0  0.00000000000E+00  0.00000000000E+00  0.32616413806E+03  0.33622971003E+03  0.81653983051E+02 0.  0.
         66    2    3    3    0    0  0.57934673639E+01 -0.26670332610E+02  0.28807459617E+03  0.28937146346E+03  0.20000005457E+01 0.  0.
        -13    1    3    3    0    0 -0.57934673639E+01  0.26670332610E+02  0.38089541890E+02  0.46858246564E+02  0.10566000000E+00 0.  1.
         13    1    4    4    0    0 -0.90833069802E-01 -0.49368404951E+00  0.44770292490E+01  0.45063210626E+01  0.10566000000E+00 0.  1.
        -13    1    4    4    0    0  0.15326295170E+01 -0.74155739912E+01  0.76383681079E+02  0.76758176047E+02  0.10566000000E+00 0. -1.
         14    1    4    4    0    0  0.43516709166E+01 -0.18761074569E+02  0.20721388584E+03  0.20810696635E+03  0.00000000000E+00 0. -1.
<mgrwt>
<rscale>  0 0.81653983E+02</rscale>
<asrwt>0</asrwt>
<pdfrwt beam="1">  1        2 0.50953373E-01 0.81653983E+02</pdfrwt>
<pdfrwt beam="2">  1       -1 0.77427476E-03 0.81653983E+02</pdfrwt>
<totfact> 0.25041702E+05</totfact>
</mgrwt>
</event>
<event>
 8    1  0.2603554E-024  0.7846749E+02  0.7818608E-02  0.1333458E+00
         -1   -1    0    0    0  501 -0.00000000000E+00  0.00000000000E+00  0.55628874539E+02  0.55628874767E+02  0.50400000000E-02 0.  1.
          2   -1    0    0  501    0  0.00000000000E+00 -0.00000000000E+00 -0.27670641948E+02  0.27670642065E+02  0.25500000000E-02 0. -1.
         24    2    1    2    0    0 -0.35527136788E-14 -0.35527136788E-14  0.27958232591E+02  0.83299516832E+02  0.78467488394E+02 0.  0.
         66    2    3    3    0    0  0.21085094162E+02  0.28313054460E+02 -0.41232502472E+01  0.35597913570E+02  0.20000023317E+01 0.  0.
        -13    1    3    3    0    0 -0.21085094162E+02 -0.28313054460E+02  0.32081482838E+02  0.47701603262E+02  0.10566000000E+00 0.  1.
         13    1    4    4    0    0  0.37111967492E+01  0.52188903648E+01 -0.34540611561E+00  0.64140679270E+01  0.10566000000E+00 0. -1.
        -13    1    4    4    0    0  0.14851867038E+01  0.14529940507E+01 -0.47435185986E+00  0.21338099679E+01  0.10566000000E+00 0.  1.
         14    1    4    4    0    0  0.15888710709E+02  0.21641170044E+02 -0.33034922717E+01  0.27050035676E+02  0.00000000000E+00 0. -1.
<mgrwt>
<rscale>  0 0.78467488E+02</rscale>
<asrwt>0</asrwt>
<pdfrwt beam="1">  1        2 0.42570219E-02 0.78467488E+02</pdfrwt>
<pdfrwt beam="2">  1       -1 0.85582883E-02 0.78467488E+02</pdfrwt>
<totfact> 0.13982409E+05</totfact>
</mgrwt>
</event>
<event>
 8    1  0.2603554E-024  0.7971469E+02  0.7818608E-02  0.1329863E+00
          2   -1    0    0  501    0  0.00000000000E+00  0.00000000000E+00  0.25436181260E+03  0.25436181261E+03  0.25500000000E-02 0. -1.
         -1   -1    0    0    0  501 -0.00000000000E+00 -0.00000000000E+00 -0.62454642489E+01  0.62454662825E+01  0.50400000000E-02 0.  1.
         24    2    1    2    0    0  0.35527136788E-14  0.00000000000E+00  0.24811634835E+03  0.26060727889E+03  0.79714688070E+02 0.  0.
         66    2    3    3    0    0 -0.26798518728E+02 -0.21700195722E+02  0.18932000143E+03  0.19244511435E+03  0.19999986273E+01 0.  0.
        -13    1    3    3    0    0  0.26798518728E+02  0.21700195722E+02  0.58796346912E+02  0.68162164539E+02  0.10566000000E+00 0.  1.
         13    1    4    4    0    0 -0.16495741153E+02 -0.12788477803E+02  0.11328385965E+03  0.11519070562E+03  0.10566000000E+00 0. -1.
        -13    1    4    4    0    0 -0.47138392862E+01 -0.43740720894E+01  0.38649156810E+02  0.39180623702E+02  0.10566000000E+00 0.  1.
        -14    1    4    4    0    0 -0.55889382884E+01 -0.45376458292E+01  0.37386984974E+02  0.38073785028E+02  0.00000000000E+00 0.  1.
<mgrwt>
<rscale>  0 0.79714688E+02</rscale>
<asrwt>0</asrwt>
<pdfrwt beam="1">  1        2 0.39132586E-01 0.79714688E+02</pdfrwt>
<pdfrwt beam="2">  1       -1 0.96084082E-03 0.79714688E+02</pdfrwt>
<totfact> 0.24243360E+05</totfact>
</mgrwt>
</event>
<event>
 8    1  0.2603554E-024  0.8016324E+02  0.7818608E-02  0.1328589E+00
          2   -1    0    0  501    0  0.00000000000E+00  0.00000000000E+00  0.63573690812E+02  0.63573690863E+02  0.25500000000E-02 0. -1.
         -1   -1    0    0    0  501 -0.00000000000E+00 -0.00000000000E+00 -0.25270455696E+02  0.25270456199E+02  0.50400000000E-02 0.  1.
         24    2    1    2    0    0  0.35527136788E-14  0.00000000000E+00  0.38303235116E+02  0.88844147062E+02  0.80163237502E+02 0.  0.
         66    2    3    3    0    0  0.20184618179E+02 -0.34019574397E+02  0.12173281043E+02  0.41435962989E+02  0.20000010846E+01 0.  0.
        -13    1    3    3    0    0 -0.20184618179E+02  0.34019574397E+02  0.26129954073E+02  0.47408184073E+02  0.10566000000E+00 0.  1.
         13    1    4    4    0    0  0.12930767028E+02 -0.20695276910E+02  0.75276210988E+01  0.25537726324E+02  0.10566000000E+00 0. -1.
        -13    1    4    4    0    0  0.23760975027E+01 -0.53750573814E+01  0.17684247833E+01  0.61380429654E+01  0.10566000000E+00 0.  1.
        -14    1    4    4    0    0  0.48777536481E+01 -0.79492401051E+01  0.28772351606E+01  0.97601937004E+01  0.00000000000E+00 0.  1.
<mgrwt>
<rscale>  0 0.80163238E+02</rscale>
<asrwt>0</asrwt>
<pdfrwt beam="1">  1        2 0.97805676E-02 0.80163238E+02</pdfrwt>
<pdfrwt beam="2">  1       -1 0.38877626E-02 0.80163238E+02</pdfrwt>
<totfact> 0.15690644E+05</totfact>
</mgrwt>
</event>
<event>
 8    1  0.2603554E-024  0.7995353E+02  0.7818608E-02  0.1329183E+00
          2   -1    0    0  501    0  0.00000000000E+00  0.00000000000E+00  0.26143399142E+03  0.26143399144E+03  0.25500000000E-02 0. -1.
         -1   -1    0    0    0  501 -0.00000000000E+00 -0.00000000000E+00 -0.61129832793E+01  0.61129853570E+01  0.50400000000E-02 0.  1.
         24    2    1    2    0    0  0.00000000000E+00  0.00000000000E+00  0.25532100814E+03  0.26754697679E+03  0.79953533951E+02 0.  0.
         66    2    3    3    0    0 -0.35969098124E+01  0.35704399913E+02  0.18650479734E+03  0.18993625610E+03  0.20000040962E+01 0.  0.
        -13    1    3    3    0    0  0.35969098124E+01 -0.35704399913E+02  0.68816210806E+02  0.77610720697E+02  0.10566000000E+00 0.  1.
         13    1    4    4    0    0 -0.83166334284E+00  0.13773868221E+02  0.71222150175E+02  0.72546653605E+02  0.10566000000E+00 0. -1.
        -13    1    4    4    0    0 -0.14916054930E+01  0.75817262269E+01  0.38747002775E+02  0.39510110701E+02  0.10566000000E+00 0.  1.
        -14    1    4    4    0    0 -0.12736409766E+01  0.14348805464E+02  0.76535644388E+02  0.77879491790E+02  0.00000000000E+00 0.  1.
<mgrwt>
<rscale>  0 0.79953534E+02</rscale>
<asrwt>0</asrwt>
<pdfrwt beam="1">  1        2 0.40220615E-01 0.79953534E+02</pdfrwt>
<pdfrwt beam="2">  1       -1 0.94045912E-03 0.79953534E+02</pdfrwt>
<totfact> 0.24292450E+05</totfact>
</mgrwt>
</event>
<event>
 8    1  0.2603554E-024  0.7979736E+02  0.7818608E-02  0.1329627E+00
          2   -1    0    0  501    0  0.00000000000E+00  0.00000000000E+00  0.12907136540E+03  0.12907136542E+03  0.25500000000E-02 0. -1.
         -1   -1    0    0    0  501 -0.00000000000E+00 -0.00000000000E+00 -0.12333521120E+02  0.12333522150E+02  0.50400000000E-02 0.  1.
         24    2    1    2    0    0  0.35527136788E-14  0.17763568394E-14  0.11673784428E+03  0.14140488757E+03  0.79797355489E+02 0.  0.
         66    2    3    3    0    0 -0.21838586405E+02 -0.15759040640E+02  0.11051183535E+03  0.11376351335E+03  0.19999992874E+01 0.  0.
        -13    1    3    3    0    0  0.21838586405E+02  0.15759040640E+02  0.62260089234E+01  0.27641374228E+02  0.10566000000E+00 0.  1.
         13    1    4    4    0    0 -0.13938526329E+02 -0.96752182055E+01  0.67776445815E+02  0.69868090964E+02  0.10566000000E+00 0. -1.
        -13    1    4    4    0    0 -0.50099187780E+00 -0.21910739394E+00  0.17438474020E+01  0.18306197608E+01  0.10566000000E+00 0.  1.
         14    1    4    4    0    0 -0.73990681980E+01 -0.58647150411E+01  0.40991542138E+02  0.42064802621E+02  0.00000000000E+00 0. -1.
<mgrwt>
<rscale>  0 0.79797355E+02</rscale>
<asrwt>0</asrwt>
<pdfrwt beam="1">  1        2 0.19857134E-01 0.79797355E+02</pdfrwt>
<pdfrwt beam="2">  1       -1 0.18974648E-02 0.79797355E+02</pdfrwt>
<totfact> 0.19233752E+05</totfact>
</mgrwt>
</event>
<event>
 8    1  0.2603554E-024  0.8382318E+02  0.7818608E-02  0.1318539E+00
          2   -1    0    0  501    0  0.00000000000E+00  0.00000000000E+00  0.15991206200E+03  0.15991206202E+03  0.25500000000E-02 0. -1.
         -1   -1    0    0    0  501 -0.00000000000E+00 -0.00000000000E+00 -0.10984670299E+02  0.10984671455E+02  0.50400000000E-02 0.  1.
         24    2    1    2    0    0 -0.88817841970E-15  0.00000000000E+00  0.14892739170E+03  0.17089673347E+03  0.83823180050E+02 0.  0.
         66    2    3    3    0    0 -0.54049051618E+01  0.27323021342E+02  0.13829119931E+03  0.14108230328E+03  0.19999996040E+01 0.  0.
        -13    1    3    3    0    0  0.54049051618E+01 -0.27323021342E+02  0.10636192392E+02  0.29814430192E+02  0.10566000000E+00 0.  1.
         13    1    4    4    0    0 -0.80239301072E+00  0.43123232329E+01  0.20155162367E+02  0.20627207767E+02  0.10566000000E+00 0. -1.
        -13    1    4    4    0    0 -0.24681372267E+01  0.83746404092E+01  0.44092524931E+02  0.44948728816E+02  0.10566000000E+00 0.  1.
        -14    1    4    4    0    0 -0.21343749244E+01  0.14636057700E+02  0.74043512008E+02  0.75506366697E+02  0.00000000000E+00 0.  1.
<mgrwt>
<rscale>  0 0.83823180E+02</rscale>
<asrwt>0</asrwt>
<pdfrwt beam="1">  1        2 0.24601855E-01 0.83823180E+02</pdfrwt>
<pdfrwt beam="2">  1       -1 0.16899494E-02 0.83823180E+02</pdfrwt>
<totfact> 0.18065755E+05</totfact>
</mgrwt>
</event>
<event>
 8    1  0.2603554E-024  0.8034072E+02  0.7818608E-02  0.1328087E+00
          2   -1    0    0  501    0  0.00000000000E+00  0.00000000000E+00  0.48328924315E+03  0.48328924316E+03  0.25500000000E-02 0. -1.
         -1   -1    0    0    0  501 -0.00000000000E+00 -0.00000000000E+00 -0.33389053943E+01  0.33389091982E+01  0.50400000000E-02 0.  1.
         24    2    1    2    0    0  0.00000000000E+00  0.00000000000E+00  0.47995033776E+03  0.48662815236E+03  0.80340724123E+02 0.  0.
         66    2    3    3    0    0 -0.31351551556E+02  0.19116661689E+02  0.33840587296E+03  0.34039815127E+03  0.19999987253E+01 0.  0.
        -13    1    3    3    0    0  0.31351551556E+02 -0.19116661689E+02  0.14154446480E+03  0.14623000109E+03  0.10566000000E+00 0.  1.
         13    1    4    4    0    0 -0.15708306252E+02  0.93804078155E+01  0.17185182228E+03  0.17282303933E+03  0.10566000000E+00 0. -1.
        -13    1    4    4    0    0 -0.76854836043E+01  0.49466043114E+01  0.88280978814E+02  0.88752903822E+02  0.10566000000E+00 0.  1.
         14    1    4    4    0    0 -0.79577616997E+01  0.47896495624E+01  0.78273071860E+02  0.78822208118E+02  0.00000000000E+00 0. -1.
<mgrwt>
<rscale>  0 0.80340724E+02</rscale>
<asrwt>0</asrwt>
<pdfrwt beam="1">  1        2 0.74352165E-01 0.80340724E+02</pdfrwt>
<pdfrwt beam="2">  1       -1 0.51367823E-03 0.80340724E+02</pdfrwt>
<totfact> 0.29788226E+05</totfact>
</mgrwt>
</event>
<event>
 8    1  0.2603554E-024  0.7661963E+02  0.7818608E-02  0.1338928E+00
          2   -1    0    0  501    0  0.00000000000E+00  0.00000000000E+00  0.24505992114E+03  0.24505992115E+03  0.25500000000E-02 0. -1.
         -1   -1    0    0    0  501 -0.00000000000E+00 -0.00000000000E+00 -0.59889095008E+01  0.59889116216E+01  0.50400000000E-02 0.  1.
         24    2    1    2    0    0  0.00000000000E+00 -0.11102230246E-15  0.23907101164E+03  0.25104883277E+03  0.76619630849E+02 0.  0.
         66    2    3    3    0    0 -0.10317883767E+02 -0.81556829429E+00  0.24038422657E+03  0.24061525359E+03  0.19999997861E+01 0.  0.
        -13    1    3    3    0    0  0.10317883767E+02  0.81556829429E+00 -0.13132149336E+01  0.10433579183E+02  0.10566000000E+00 0.  1.
         13    1    4    4    0    0 -0.45647303313E+01 -0.11130090242E+01  0.98253215176E+02  0.98365547874E+02  0.10566000000E+00 0. -1.
        -13    1    4    4    0    0 -0.99617788628E+00  0.25866428351E+00  0.21367242012E+02  0.21392276009E+02  0.10566000000E+00 0. -1.
        -14    1    4    4    0    0 -0.47569755491E+01  0.38776446418E-01  0.12076376938E+03  0.12085742971E+03  0.00000000000E+00 0.  1.
<mgrwt>
<rscale>  0 0.76619631E+02</rscale>
<asrwt>0</asrwt>
<pdfrwt beam="1">  1        2 0.37701527E-01 0.76619631E+02</pdfrwt>
<pdfrwt beam="2">  1       -1 0.92137085E-03 0.76619631E+02</pdfrwt>
<totfact> 0.26541165E+05</totfact>
</mgrwt>
</event>
<event>
 8    1  0.2603554E-024  0.8079890E+02  0.7818608E-02  0.1326799E+00
          2   -1    0    0  501    0  0.00000000000E+00  0.00000000000E+00  0.34793705916E+03  0.34793705917E+03  0.25500000000E-02 0. -1.
         -1   -1    0    0    0  501 -0.00000000000E+00 -0.00000000000E+00 -0.46908346863E+01  0.46908373939E+01  0.50400000000E-02 0.  1.
         24    2    1    2    0    0 -0.17763568394E-14  0.00000000000E+00  0.34324622448E+03  0.35262789657E+03  0.80798903577E+02 0.  0.
         66    2    3    3    0    0 -0.12248296615E+02 -0.16672829091E+02  0.32304322739E+03  0.32371118418E+03  0.20000001397E+01 0.  0.
        -13    1    3    3    0    0  0.12248296615E+02  0.16672829091E+02  0.20202997083E+02  0.28916712383E+02  0.10566000000E+00 0.  1.
         13    1    4    4    0    0 -0.67965080871E+01 -0.10038200398E+02  0.18109046567E+03  0.18149580136E+03  0.10566000000E+00 0. -1.
        -13    1    4    4    0    0 -0.39298839774E+01 -0.51581707379E+01  0.11205098934E+03  0.11223852320E+03  0.10566000000E+00 0.  1.
        -14    1    4    4    0    0 -0.15219045509E+01 -0.14764579550E+01  0.29901772376E+02  0.29976859622E+02  0.00000000000E+00 0.  1.
<mgrwt>
<rscale>  0 0.80798904E+02</rscale>
<asrwt>0</asrwt>
<pdfrwt beam="1">  1        2 0.53528787E-01 0.80798904E+02</pdfrwt>
<pdfrwt beam="2">  1       -1 0.72166697E-03 0.80798904E+02</pdfrwt>
<totfact> 0.26202169E+05</totfact>
</mgrwt>
</event>
<event>
 8    1  0.2603554E-024  0.7911379E+02  0.7818608E-02  0.1331585E+00
         -1   -1    0    0    0  501 -0.00000000000E+00  0.00000000000E+00  0.22732923694E+01  0.22732979563E+01  0.50400000000E-02 0.  1.
          2   -1    0    0  501    0  0.00000000000E+00 -0.00000000000E+00 -0.68831715647E+03  0.68831715648E+03  0.25500000000E-02 0. -1.
         24    2    1    2    0    0  0.17763568394E-14  0.00000000000E+00 -0.68604386410E+03  0.69059045443E+03  0.79113793243E+02 0.  0.
         66    2    3    3    0    0 -0.11670733320E+02 -0.20524716003E+02 -0.62000505118E+03  0.62045768064E+03  0.19999993435E+01 0.  0.
        -13    1    3    3    0    0  0.11670733320E+02  0.20524716003E+02 -0.66038812928E+02  0.70132773796E+02  0.10566000000E+00 0.  1.
         13    1    4    4    0    0 -0.54043617026E+01 -0.95146888358E+01 -0.29162383399E+03  0.29182907350E+03  0.10566000000E+00 0. -1.
        -13    1    4    4    0    0 -0.12800654215E+01 -0.13533412301E+01 -0.54060840868E+02  0.54093028935E+02  0.10566000000E+00 0.  1.
        -14    1    4    4    0    0 -0.49863061957E+01 -0.96566859371E+01 -0.27432037632E+03  0.27453557820E+03  0.00000000000E+00 0.  1.
<mgrwt>
<rscale>  0 0.79113793E+02</rscale>
<asrwt>0</asrwt>
<pdfrwt beam="1">  1        2 0.10589478E+00 0.79113793E+02</pdfrwt>
<pdfrwt beam="2">  1       -1 0.34973827E-03 0.79113793E+02</pdfrwt>
<totfact> 0.34299917E+05</totfact>
</mgrwt>
</event>
<event>
 8    1  0.2603554E-024  0.7706422E+02  0.7818608E-02  0.1337595E+00
         -1   -1    0    0    0  501 -0.00000000000E+00  0.00000000000E+00  0.44435402502E+01  0.44435431084E+01  0.50400000000E-02 0.  1.
          2   -1    0    0  501    0  0.00000000000E+00 -0.00000000000E+00 -0.33413066819E+03  0.33413066820E+03  0.25500000000E-02 0. -1.
         24    2    1    2    0    0  0.00000000000E+00  0.00000000000E+00 -0.32968712794E+03  0.33857421131E+03  0.77064221489E+02 0.  0.
         66    2    3    3    0    0 -0.35543355511E+02 -0.86757004620E+01 -0.21769722038E+03  0.22075932066E+03  0.19999992222E+01 0.  0.
        -13    1    3    3    0    0  0.35543355511E+02  0.86757004620E+01 -0.11198990756E+03  0.11781489065E+03  0.10566000000E+00 0.  1.
         13    1    4    4    0    0 -0.15329830805E+02 -0.43865853068E+01 -0.96745482462E+02  0.98050728626E+02  0.10566000000E+00 0. -1.
        -13    1    4    4    0    0 -0.13938542116E+02 -0.33880612043E+01 -0.85214151259E+02  0.86413104642E+02  0.10566000000E+00 0. -1.
         14    1    4    4    0    0 -0.62749825901E+01 -0.90105395092E+00 -0.35737586657E+02  0.36295487389E+02  0.00000000000E+00 0. -1.
<mgrwt>
<rscale>  0 0.77064221E+02</rscale>
<asrwt>0</asrwt>
<pdfrwt beam="1">  1        2 0.51404699E-01 0.77064221E+02</pdfrwt>
<pdfrwt beam="2">  1       -1 0.68362206E-03 0.77064221E+02</pdfrwt>
<totfact> 0.29225692E+05</totfact>
</mgrwt>
</event>
<event>
 8    1  0.2603554E-024  0.7881248E+02  0.7818608E-02  0.1332456E+00
         -1   -1    0    0    0  501 -0.00000000000E+00  0.00000000000E+00  0.55973966047E+02  0.55973966274E+02  0.50400000000E-02 0.  1.
          2   -1    0    0  501    0  0.00000000000E+00 -0.00000000000E+00 -0.27742394815E+02  0.27742394932E+02  0.25500000000E-02 0. -1.
         24    2    1    2    0    0  0.66613381478E-15  0.00000000000E+00  0.28231571233E+02  0.83716361206E+02  0.78812483271E+02 0.  0.
         66    2    3    3    0    0  0.19689470200E+01 -0.37973663585E+02  0.32418129261E+01  0.38214986911E+02  0.19999987833E+01 0.  0.
        -13    1    3    3    0    0 -0.19689470200E+01  0.37973663585E+02  0.24989758306E+02  0.45501374294E+02  0.10566000000E+00 0.  1.
         13    1    4    4    0    0 -0.15593148098E+00 -0.85522585186E+00  0.24614802504E+00  0.90965860095E+00  0.10566000000E+00 0.  1.
        -13    1    4    4    0    0  0.17676207725E+01 -0.25823520840E+02  0.20402822501E+01  0.25964449300E+02  0.10566000000E+00 0. -1.
         14    1    4    4    0    0  0.35725772845E+00 -0.11294916893E+02  0.95538265103E+00  0.11340879010E+02  0.00000000000E+00 0. -1.
<mgrwt>
<rscale>  0 0.78812483E+02</rscale>
<asrwt>0</asrwt>
<pdfrwt beam="1">  1        2 0.42680608E-02 0.78812483E+02</pdfrwt>
<pdfrwt beam="2">  1       -1 0.86113793E-02 0.78812483E+02</pdfrwt>
<totfact> 0.13818265E+05</totfact>
</mgrwt>
</event>
<event>
 8    1  0.2603554E-024  0.7891353E+02  0.7818608E-02  0.1332163E+00
          2   -1    0    0  501    0  0.00000000000E+00  0.00000000000E+00  0.67400130260E+02  0.67400130308E+02  0.25500000000E-02 0. -1.
         -1   -1    0    0    0  501 -0.00000000000E+00 -0.00000000000E+00 -0.23098418221E+02  0.23098418771E+02  0.50400000000E-02 0.  1.
         24    2    1    2    0    0  0.00000000000E+00  0.00000000000E+00  0.44301712039E+02  0.90498549079E+02  0.78913533033E+02 0.  0.
         66    2    3    3    0    0  0.59687811355E+00 -0.32603251388E+02  0.47589596753E+02  0.57724327280E+02  0.19999940684E+01 0.  0.
        -13    1    3    3    0    0 -0.59687811355E+00  0.32603251388E+02 -0.32878847138E+01  0.32774221799E+02  0.10566000000E+00 0.  1.
         13    1    4    4    0    0  0.21562921702E+00 -0.11965947158E+02  0.18680482375E+02  0.22185625372E+02  0.10566000000E+00 0. -1.
        -13    1    4    4    0    0  0.48933370108E+00 -0.85484909640E+01  0.11262491852E+02  0.14148181225E+02  0.10566000000E+00 0.  1.
         14    1    4    4    0    0 -0.10808480455E+00 -0.12088813267E+02  0.17646622526E+02  0.21390520683E+02  0.00000000000E+00 0. -1.
<mgrwt>
<rscale>  0 0.78913533E+02</rscale>
<asrwt>0</asrwt>
<pdfrwt beam="1">  1        2 0.10369251E-01 0.78913533E+02</pdfrwt>
<pdfrwt beam="2">  1       -1 0.35536028E-02 0.78913533E+02</pdfrwt>
<totfact> 0.16602454E+05</totfact>
</mgrwt>
</event>
<event>
 8    1  0.2603554E-024  0.8144601E+02  0.7818608E-02  0.1324997E+00
         -1   -1    0    0    0  501 -0.00000000000E+00  0.00000000000E+00  0.23681316073E+01  0.23681369705E+01  0.50400000000E-02 0.  1.
          2   -1    0    0  501    0  0.00000000000E+00 -0.00000000000E+00 -0.70028247678E+03  0.70028247678E+03  0.25500000000E-02 0. -1.
         24    2    1    2    0    0  0.00000000000E+00  0.00000000000E+00 -0.69791434517E+03  0.70265061376E+03  0.81446005505E+02 0.  0.
         66    2    3    3    0    0  0.32546747971E+02  0.16697011415E+02 -0.50307892696E+03  0.50441103055E+03  0.19999998643E+01 0.  0.
        -13    1    3    3    0    0 -0.32546747971E+02 -0.16697011415E+02 -0.19483541821E+03  0.19823958320E+03  0.10566000000E+00 0.  1.
         13    1    4    4    0    0  0.14660686114E+02  0.85784009670E+01 -0.23516105098E+03  0.23577373845E+03  0.10566000000E+00 0. -1.
        -13    1    4    4    0    0  0.35588899755E+01  0.14662145576E+01 -0.53032798859E+02  0.53172402633E+02  0.10566000000E+00 0.  1.
         14    1    4    4    0    0  0.14327171882E+02  0.66523958900E+01 -0.21488507712E+03  0.21546488947E+03  0.00000000000E+00 0. -1.
<mgrwt>
<rscale>  0 0.81446006E+02</rscale>
<asrwt>0</asrwt>
<pdfrwt beam="1">  1        2 0.10773560E+00 0.81446006E+02</pdfrwt>
<pdfrwt beam="2">  1       -1 0.36432891E-03 0.81446006E+02</pdfrwt>
<totfact> 0.31931292E+05</totfact>
</mgrwt>
</event>
<event>
 8    1  0.2603554E-024  0.7931204E+02  0.7818608E-02  0.1331015E+00
         -1   -1    0    0    0  501 -0.00000000000E+00  0.00000000000E+00  0.23618435335E+01  0.23618489110E+01  0.50400000000E-02 0.  1.
          2   -1    0    0  501    0  0.00000000000E+00 -0.00000000000E+00 -0.66583508335E+03  0.66583508336E+03  0.25500000000E-02 0. -1.
         24    2    1    2    0    0 -0.11102230246E-15  0.00000000000E+00 -0.66347323982E+03  0.66819693227E+03  0.79312044086E+02 0.  0.
         66    2    3    3    0    0  0.71028297841E+00 -0.25630368511E+02 -0.58653754345E+03  0.58710110727E+03  0.19999982760E+01 0.  0.
        -13    1    3    3    0    0 -0.71028297841E+00  0.25630368511E+02 -0.76935696376E+02  0.81095825002E+02  0.10566000000E+00 0.  1.
         13    1    4    4    0    0  0.19503030987E+00 -0.95033400469E+01 -0.20783957681E+03  0.20805684887E+03  0.10566000000E+00 0. -1.
        -13    1    4    4    0    0  0.75485554773E+00 -0.12179326881E+02 -0.27397380195E+03  0.27424543958E+03  0.10566000000E+00 0.  1.
        -14    1    4    4    0    0 -0.23960287919E+00 -0.39477015827E+01 -0.10472416468E+03  0.10479881882E+03  0.00000000000E+00 0.  1.
<mgrwt>
<rscale>  0 0.79312044E+02</rscale>
<asrwt>0</asrwt>
<pdfrwt beam="1">  1        2 0.10243602E+00 0.79312044E+02</pdfrwt>
<pdfrwt beam="2">  1       -1 0.36336149E-03 0.79312044E+02</pdfrwt>
<totfact> 0.33806447E+05</totfact>
</mgrwt>
</event>
<event>
 8    1  0.2603554E-024  0.7868787E+02  0.7818608E-02  0.1332817E+00
         -1   -1    0    0    0  501 -0.00000000000E+00  0.00000000000E+00  0.98974473609E+02  0.98974473737E+02  0.50400000000E-02 0.  1.
          2   -1    0    0  501    0  0.00000000000E+00 -0.00000000000E+00 -0.15639841842E+02  0.15639842049E+02  0.25500000000E-02 0. -1.
         24    2    1    2    0    0 -0.17763568394E-14  0.00000000000E+00  0.83334631767E+02  0.11461431579E+03  0.78687867753E+02 0.  0.
         66    2    3    3    0    0 -0.14398117115E+02  0.10427383551E+02 -0.93877025711E+01  0.20203095302E+02  0.19999990162E+01 0.  0.
        -13    1    3    3    0    0  0.14398117115E+02 -0.10427383551E+02  0.92722334339E+02  0.94411220485E+02  0.10566000000E+00 0.  1.
         13    1    4    4    0    0 -0.27969997639E+01  0.15771626145E+01 -0.24541496788E+01  0.40428534816E+01  0.10566000000E+00 0. -1.
        -13    1    4    4    0    0 -0.76834154739E+01  0.59323632432E+01 -0.48043903384E+01  0.10831488243E+02  0.10566000000E+00 0.  1.
         14    1    4    4    0    0 -0.39177018766E+01  0.29178576932E+01 -0.21291625539E+01  0.53287535778E+01  0.00000000000E+00 0. -1.
<mgrwt>
<rscale>  0 0.78687868E+02</rscale>
<asrwt>0</asrwt>
<pdfrwt beam="1">  1        2 0.24061296E-02 0.78687868E+02</pdfrwt>
<pdfrwt beam="2">  1       -1 0.15226842E-01 0.78687868E+02</pdfrwt>
<totfact> 0.12378878E+05</totfact>
</mgrwt>
</event>
<event>
 8    1  0.2603554E-024  0.7777125E+02  0.7818608E-02  0.1335498E+00
         -1   -1    0    0    0  501 -0.00000000000E+00  0.00000000000E+00  0.81640525738E+02  0.81640525893E+02  0.50400000000E-02 0.  1.
          2   -1    0    0  501    0  0.00000000000E+00 -0.00000000000E+00 -0.18521336710E+02  0.18521336886E+02  0.25500000000E-02 0. -1.
         24    2    1    2    0    0 -0.17763568394E-14  0.35527136788E-14  0.63119189027E+02  0.10016186278E+03  0.77771246176E+02 0.  0.
         66    2    3    3    0    0 -0.91840054937E+01  0.29895082550E+02  0.18740580662E+01  0.31393853152E+02  0.20000011345E+01 0.  0.
        -13    1    3    3    0    0  0.91840054937E+01 -0.29895082550E+02  0.61245130961E+02  0.68768009627E+02  0.10566000000E+00 0.  1.
         13    1    4    4    0    0 -0.61045617347E+01  0.18309539485E+02  0.87741928925E+00  0.19320609172E+02  0.10566000000E+00 0. -1.
        -13    1    4    4    0    0 -0.23636468631E+01  0.69676160225E+01  0.55122787573E+00  0.73789915122E+01  0.10566000000E+00 0.  1.
         14    1    4    4    0    0 -0.71579689598E+00  0.46179270422E+01  0.44541090125E+00  0.46942524681E+01  0.00000000000E+00 0. -1.
<mgrwt>
<rscale>  0 0.77771246E+02</rscale>
<asrwt>0</asrwt>
<pdfrwt beam="1">  1        2 0.28494365E-02 0.77771246E+02</pdfrwt>
<pdfrwt beam="2">  1       -1 0.12560081E-01 0.77771246E+02</pdfrwt>
<totfact> 0.13258728E+05</totfact>
</mgrwt>
</event>
<event>
 8    1  0.2603554E-024  0.8951397E+02  0.7818608E-02  0.1304033E+00
         -1   -1    0    0    0  501 -0.00000000000E+00  0.00000000000E+00  0.31254934502E+02  0.31254934908E+02  0.50400000000E-02 0.  1.
          2   -1    0    0  501    0  0.00000000000E+00 -0.00000000000E+00 -0.64091884455E+02  0.64091884506E+02  0.25500000000E-02 0. -1.
         24    2    1    2    0    0  0.35527136788E-14  0.00000000000E+00 -0.32836949953E+02  0.95346819414E+02  0.89513969246E+02 0.  0.
         66    2    3    3    0    0 -0.26526152057E+02  0.12073829308E+02 -0.52575790107E+02  0.60146718963E+02  0.19999998742E+01 0.  0.
        -13    1    3    3    0    0  0.26526152057E+02 -0.12073829308E+02  0.19738840154E+02  0.35200100451E+02  0.10566000000E+00 0.  1.
         13    1    4    4    0    0 -0.15115529423E+02  0.67994571213E+01 -0.28498210764E+02  0.32967727063E+02  0.10566000000E+00 0. -1.
        -13    1    4    4    0    0 -0.70467606739E+01  0.28523114361E+01 -0.15165333253E+02  0.16964404299E+02  0.10566000000E+00 0.  1.
        -14    1    4    4    0    0 -0.43638619603E+01  0.24220607510E+01 -0.89122460902E+01  0.10214587601E+02  0.00000000000E+00 0.  1.
<mgrwt>
<rscale>  0 0.89513969E+02</rscale>
<asrwt>0</asrwt>
<pdfrwt beam="1">  1        2 0.98602899E-02 0.89513969E+02</pdfrwt>
<pdfrwt beam="2">  1       -1 0.48084515E-02 0.89513969E+02</pdfrwt>
<totfact> 0.11624633E+05</totfact>
</mgrwt>
</event>
<event>
 8    1  0.2603554E-024  0.7688209E+02  0.7818608E-02  0.1338140E+00
          2   -1    0    0  501    0  0.00000000000E+00  0.00000000000E+00  0.37338277375E+02  0.37338277462E+02  0.25500000000E-02 0. -1.
         -1   -1    0    0    0  501 -0.00000000000E+00 -0.00000000000E+00 -0.39576385946E+02  0.39576386267E+02  0.50400000000E-02 0.  1.
         24    2    1    2    0    0  0.35527136788E-14 -0.35527136788E-14 -0.22381085710E+01  0.76914663729E+02  0.76882093927E+02 0.  0.
         66    2    3    3    0    0 -0.20816743075E+02  0.28098374290E+02  0.14788303225E+02  0.38020380181E+02  0.19999917074E+01 0.  0.
        -13    1    3    3    0    0  0.20816743075E+02 -0.28098374290E+02 -0.17026411796E+02  0.38894283548E+02  0.10566000000E+00 0.  1.
         13    1    4    4    0    0 -0.42634179146E+01  0.62035126170E+01  0.35852587340E+01  0.83381979666E+01  0.10566000000E+00 0. -1.
        -13    1    4    4    0    0 -0.13785883436E+02  0.18224192992E+02  0.87296373522E+01  0.24462001649E+02  0.10566000000E+00 0.  1.
        -14    1    4    4    0    0 -0.27674417248E+01  0.36706686805E+01  0.24734071392E+01  0.52201805657E+01  0.00000000000E+00 0.  1.
<mgrwt>
<rscale>  0 0.76882094E+02</rscale>
<asrwt>0</asrwt>
<pdfrwt beam="1">  1        2 0.57443504E-02 0.76882094E+02</pdfrwt>
<pdfrwt beam="2">  1       -1 0.60886748E-02 0.76882094E+02</pdfrwt>
<totfact> 0.15689072E+05</totfact>
</mgrwt>
</event>
<event>
 8    1  0.2603554E-024  0.8391170E+02  0.7818608E-02  0.1318303E+00
         -1   -1    0    0    0  501 -0.00000000000E+00  0.00000000000E+00  0.37488807844E+02  0.37488808183E+02  0.50400000000E-02 0.  1.
          2   -1    0    0  501    0  0.00000000000E+00 -0.00000000000E+00 -0.46955164214E+02  0.46955164283E+02  0.25500000000E-02 0. -1.
         24    2    1    2    0    0  0.00000000000E+00  0.00000000000E+00 -0.94663563705E+01  0.84443972466E+02  0.83911695150E+02 0.  0.
         66    2    3    3    0    0 -0.33561518610E+02 -0.20267631480E+02 -0.19700821056E+02  0.43923510368E+02  0.19999988846E+01 0.  0.
        -13    1    3    3    0    0  0.33561518610E+02  0.20267631480E+02  0.10234464685E+02  0.40520462098E+02  0.10566000000E+00 0.  1.
         13    1    4    4    0    0 -0.34500917744E+01 -0.15839708602E+01 -0.21778748050E+01  0.43779446821E+01  0.10566000000E+00 0. -1.
        -13    1    4    4    0    0 -0.47869226478E+01 -0.29950425870E+01 -0.31946523375E+01  0.64885958517E+01  0.10566000000E+00 0.  1.
         14    1    4    4    0    0 -0.25324504188E+02 -0.15688618033E+02 -0.14328293913E+02  0.33056969834E+02  0.00000000000E+00 0. -1.
<mgrwt>
<rscale>  0 0.83911695E+02</rscale>
<asrwt>0</asrwt>
<pdfrwt beam="1">  1        2 0.72238714E-02 0.83911695E+02</pdfrwt>
<pdfrwt beam="2">  1       -1 0.57675090E-02 0.83911695E+02</pdfrwt>
<totfact> 0.12924744E+05</totfact>
</mgrwt>
</event>
<event>
 8    1  0.2603554E-024  0.7976124E+02  0.7818608E-02  0.1329730E+00
          2   -1    0    0  501    0  0.00000000000E+00  0.00000000000E+00  0.32126736787E+03  0.32126736788E+03  0.25500000000E-02 0. -1.
         -1   -1    0    0    0  501 -0.00000000000E+00 -0.00000000000E+00 -0.49505914197E+01  0.49505939852E+01  0.50400000000E-02 0.  1.
         24    2    1    2    0    0 -0.35527136788E-14  0.00000000000E+00  0.31631677645E+03  0.32621796187E+03  0.79761241086E+02 0.  0.
         66    2    3    3    0    0 -0.23950785106E+02 -0.14436114919E+02  0.27440132163E+03  0.27582988750E+03  0.20000015162E+01 0.  0.
        -13    1    3    3    0    0  0.23950785106E+02  0.14436114919E+02  0.41915454820E+02  0.50388074363E+02  0.10566000000E+00 0.  1.
         13    1    4    4    0    0 -0.52045838195E+01 -0.33247159838E+01  0.67201104379E+02  0.67484376139E+02  0.10566000000E+00 0. -1.
        -13    1    4    4    0    0 -0.34490083586E+01 -0.24901432055E+01  0.41213685707E+02  0.41432783221E+02  0.10566000000E+00 0.  1.
         14    1    4    4    0    0 -0.15297192928E+02 -0.86212557300E+01  0.16598653155E+03  0.16691272814E+03  0.00000000000E+00 0. -1.
<mgrwt>
<rscale>  0 0.79761241E+02</rscale>
<asrwt>0</asrwt>
<pdfrwt beam="1">  1        2 0.49425763E-01 0.79761241E+02</pdfrwt>
<pdfrwt beam="2">  1       -1 0.76162943E-03 0.79761241E+02</pdfrwt>
<totfact> 0.26338850E+05</totfact>
</mgrwt>
</event>
<event>
 8    1  0.2603554E-024  0.7985640E+02  0.7818608E-02  0.1329459E+00
          2   -1    0    0  501    0  0.00000000000E+00  0.00000000000E+00  0.98674124098E+02  0.98674124131E+02  0.25500000000E-02 0. -1.
         -1   -1    0    0    0  501 -0.00000000000E+00 -0.00000000000E+00 -0.16156831822E+02  0.16156832609E+02  0.50400000000E-02 0.  1.
         24    2    1    2    0    0  0.17763568394E-14 -0.35527136788E-14  0.82517292275E+02  0.11483095674E+03  0.79856403007E+02 0.  0.
         66    2    3    3    0    0 -0.15529822162E+02 -0.31244339672E+02  0.13443069144E+02  0.37444629761E+02  0.20000130029E+01 0.  0.
        -13    1    3    3    0    0  0.15529822162E+02  0.31244339672E+02  0.69074223131E+02  0.77386326978E+02  0.10566000000E+00 0.  1.
         13    1    4    4    0    0 -0.61871393611E+01 -0.10908000292E+02  0.47769723304E+01  0.13419977366E+02  0.10566000000E+00 0. -1.
        -13    1    4    4    0    0 -0.58452288528E+01 -0.13957081299E+02  0.58222095486E+01  0.16213454499E+02  0.10566000000E+00 0.  1.
        -14    1    4    4    0    0 -0.34974539484E+01 -0.63792580816E+01  0.28438872652E+01  0.78111978959E+01  0.00000000000E+00 0.  1.
<mgrwt>
<rscale>  0 0.79856403E+02</rscale>
<asrwt>0</asrwt>
<pdfrwt beam="1">  1        2 0.15180635E-01 0.79856403E+02</pdfrwt>
<pdfrwt beam="2">  1       -1 0.24856664E-02 0.79856403E+02</pdfrwt>
<totfact> 0.17745136E+05</totfact>
</mgrwt>
</event>
<event>
 8    1  0.2603554E-024  0.8167403E+02  0.7818608E-02  0.1324367E+00
         -1   -1    0    0    0  501 -0.00000000000E+00  0.00000000000E+00  0.57001921711E+02  0.57001921934E+02  0.50400000000E-02 0.  1.
          2   -1    0    0  501    0  0.00000000000E+00 -0.00000000000E+00 -0.29256237109E+02  0.29256237220E+02  0.25500000000E-02 0. -1.
         24    2    1    2    0    0 -0.17763568394E-14  0.71054273576E-14  0.27745684602E+02  0.86258159154E+02  0.81674028961E+02 0.  0.
         66    2    3    3    0    0  0.92679767929E+01 -0.39040693821E+02  0.21755173014E+02  0.45687621064E+02  0.19999994383E+01 0.  0.
        -13    1    3    3    0    0 -0.92679767929E+01  0.39040693821E+02  0.59905115882E+01  0.40570538091E+02  0.10566000000E+00 0.  1.
         13    1    4    4    0    0  0.33818838127E+01 -0.13597439705E+02  0.76332806749E+01  0.15956366834E+02  0.10566000000E+00 0. -1.
        -13    1    4    4    0    0  0.23566198811E+01 -0.12013628058E+02  0.58553847417E+01  0.13571205211E+02  0.10566000000E+00 0.  1.
        -14    1    4    4    0    0  0.35294730991E+01 -0.13429626058E+02  0.82665075975E+01  0.16160049018E+02  0.00000000000E+00 0.  1.
<mgrwt>
<rscale>  0 0.81674029E+02</rscale>
<asrwt>0</asrwt>
<pdfrwt beam="1">  1        2 0.45009596E-02 0.81674029E+02</pdfrwt>
<pdfrwt beam="2">  1       -1 0.87695263E-02 0.81674029E+02</pdfrwt>
<totfact> 0.12631443E+05</totfact>
</mgrwt>
</event>
<event>
 8    1  0.2603554E-024  0.7939147E+02  0.7818608E-02  0.1330787E+00
         -1   -1    0    0    0  501 -0.00000000000E+00  0.00000000000E+00  0.10743948985E+02  0.10743950167E+02  0.50400000000E-02 0.  1.
          2   -1    0    0  501    0  0.00000000000E+00 -0.00000000000E+00 -0.14666405986E+03  0.14666405989E+03  0.25500000000E-02 0. -1.
         24    2    1    2    0    0  0.00000000000E+00  0.00000000000E+00 -0.13592011088E+03  0.15740801005E+03  0.79391467347E+02 0.  0.
         66    2    3    3    0    0 -0.17226473010E+02 -0.33372683913E+02 -0.93336345506E+02  0.10062882688E+03  0.20000009209E+01 0.  0.
        -13    1    3    3    0    0  0.17226473010E+02  0.33372683913E+02 -0.42583765373E+02  0.56779183169E+02  0.10566000000E+00 0.  1.
         13    1    4    4    0    0 -0.14348828828E+01 -0.27098822566E+01 -0.69718976319E+01  0.76171432543E+01  0.10566000000E+00 0. -1.
        -13    1    4    4    0    0 -0.66132849981E+01 -0.14149811778E+02 -0.40620024656E+02  0.43519539048E+02  0.10566000000E+00 0.  1.
        -14    1    4    4    0    0 -0.91783051292E+01 -0.16512989879E+02 -0.45744423217E+02  0.49492144581E+02  0.00000000000E+00 0.  1.
<mgrwt>
<rscale>  0 0.79391467E+02</rscale>
<asrwt>0</asrwt>
<pdfrwt beam="1">  1        2 0.22563700E-01 0.79391467E+02</pdfrwt>
<pdfrwt beam="2">  1       -1 0.16529154E-02 0.79391467E+02</pdfrwt>
<totfact> 0.20292905E+05</totfact>
</mgrwt>
</event>
<event>
 8    1  0.2603554E-024  0.7710705E+02  0.7818608E-02  0.1337468E+00
          2   -1    0    0  501    0  0.00000000000E+00  0.00000000000E+00  0.10670261175E+04  0.10670261175E+04  0.25500000000E-02 0. -1.
         -1   -1    0    0    0  501 -0.00000000000E+00 -0.00000000000E+00 -0.13930020005E+01  0.13930111181E+01  0.50400000000E-02 0.  1.
         24    2    1    2    0    0  0.00000000000E+00  0.00000000000E+00  0.10656331155E+04  0.10684191286E+04  0.77107052560E+02 0.  0.
         66    2    3    3    0    0 -0.12355534555E+02 -0.81525280886E+01  0.10260471399E+04  0.10261558635E+04  0.20000006488E+01 0.  0.
        -13    1    3    3    0    0  0.12355534555E+02  0.81525280886E+01  0.39585975605E+02  0.42263265101E+02  0.10566000000E+00 0.  1.
         13    1    4    4    0    0 -0.76741822401E+01 -0.53872948786E+01  0.61508350926E+03  0.61515498091E+03  0.10566000000E+00 0. -1.
        -13    1    4    4    0    0 -0.22633655098E+01 -0.13737503303E+01  0.16266848415E+03  0.16269006397E+03  0.10566000000E+00 0.  1.
         14    1    4    4    0    0 -0.24179868049E+01 -0.13914828797E+01  0.24829514648E+03  0.24831081863E+03  0.00000000000E+00 0. -1.
<mgrwt>
<rscale>  0 0.77107053E+02</rscale>
<asrwt>0</asrwt>
<pdfrwt beam="1">  1        2 0.16415760E+00 0.77107053E+02</pdfrwt>
<pdfrwt beam="2">  1       -1 0.21430905E-03 0.77107053E+02</pdfrwt>
<totfact> 0.38804546E+05</totfact>
</mgrwt>
</event>
<event>
 8    1  0.2603554E-024  0.7914587E+02  0.7818608E-02  0.1331493E+00
          2   -1    0    0  501    0  0.00000000000E+00  0.00000000000E+00  0.69722958349E+03  0.69722958349E+03  0.25500000000E-02 0. -1.
         -1   -1    0    0    0  501 -0.00000000000E+00 -0.00000000000E+00 -0.22460537688E+01  0.22460594235E+01  0.50400000000E-02 0.  1.
         24    2    1    2    0    0  0.00000000000E+00  0.00000000000E+00  0.69498352972E+03  0.69947564292E+03  0.79145868194E+02 0.  0.
         66    2    3    3    0    0  0.30804646700E+01  0.24684080402E+02  0.61942614718E+03  0.61992866115E+03  0.20000042845E+01 0.  0.
        -13    1    3    3    0    0 -0.30804646700E+01 -0.24684080402E+02  0.75557382539E+02  0.79546981766E+02  0.10566000000E+00 0.  1.
         13    1    4    4    0    0  0.23925875482E+01  0.16201910044E+02  0.42249743829E+03  0.42281476191E+03  0.10566000000E+00 0. -1.
        -13    1    4    4    0    0  0.52044794653E+00  0.73312782181E+01  0.16395614491E+03  0.16412083087E+03  0.10566000000E+00 0.  1.
        -14    1    4    4    0    0  0.16742917526E+00  0.11508921400E+01  0.32972563973E+02  0.32993068366E+02  0.00000000000E+00 0.  1.
<mgrwt>
<rscale>  0 0.79145868E+02</rscale>
<asrwt>0</asrwt>
<pdfrwt beam="1">  1        2 0.10726599E+00 0.79145868E+02</pdfrwt>
<pdfrwt beam="2">  1       -1 0.34554749E-03 0.79145868E+02</pdfrwt>
<totfact> 0.34366462E+05</totfact>
</mgrwt>
</event>
<event>
 8    1  0.2603554E-024  0.8066963E+02  0.7818608E-02  0.1327162E+00
          2   -1    0    0  501    0  0.00000000000E+00  0.00000000000E+00  0.50705034226E+03  0.50705034227E+03  0.25500000000E-02 0. -1.
         -1   -1    0    0    0  501 -0.00000000000E+00 -0.00000000000E+00 -0.32085500171E+01  0.32085539755E+01  0.50400000000E-02 0.  1.
         24    2    1    2    0    0  0.17763568394E-14  0.00000000000E+00  0.50384179224E+03  0.51025889624E+03  0.80669632350E+02 0.  0.
         66    2    3    3    0    0 -0.13947944666E+02 -0.25801563031E+02  0.42698151418E+03  0.42799238226E+03  0.20000008480E+01 0.  0.
        -13    1    3    3    0    0  0.13947944666E+02  0.25801563031E+02  0.76860278065E+02  0.82266513986E+02  0.10566000000E+00 0.  1.
         13    1    4    4    0    0 -0.45592871994E+01 -0.88058096198E+01  0.13536325230E+03  0.13572601305E+03  0.10566000000E+00 0. -1.
        -13    1    4    4    0    0 -0.85513100068E-01 -0.34308689756E+00  0.44512568426E+01  0.44665280279E+01  0.10566000000E+00 0. -1.
        -14    1    4    4    0    0 -0.93031443670E+01 -0.16652666514E+02  0.28716700504E+03  0.28779984118E+03  0.00000000000E+00 0.  1.
<mgrwt>
<rscale>  0 0.80669632E+02</rscale>
<asrwt>0</asrwt>
<pdfrwt beam="1">  1        2 0.78007759E-01 0.80669632E+02</pdfrwt>
<pdfrwt beam="2">  1       -1 0.49362330E-03 0.80669632E+02</pdfrwt>
<totfact> 0.29929461E+05</totfact>
</mgrwt>
</event>
<event>
 8    1  0.2603554E-024  0.7956397E+02  0.7818608E-02  0.1330293E+00
         -1   -1    0    0    0  501 -0.00000000000E+00  0.00000000000E+00  0.27255244853E+02  0.27255245319E+02  0.50400000000E-02 0.  1.
          2   -1    0    0  501    0  0.00000000000E+00 -0.00000000000E+00 -0.58066112966E+02  0.58066113022E+02  0.25500000000E-02 0. -1.
         24    2    1    2    0    0  0.00000000000E+00  0.35527136788E-14 -0.30810868113E+02  0.85321358341E+02  0.79563965432E+02 0.  0.
         66    2    3    3    0    0 -0.26673430864E+02 -0.24935621128E+02 -0.32280364799E+02  0.48777854135E+02  0.19999968686E+01 0.  0.
        -13    1    3    3    0    0  0.26673430864E+02  0.24935621128E+02  0.14694966853E+01  0.36543504205E+02  0.10566000000E+00 0.  1.
         13    1    4    4    0    0 -0.11402088040E+02 -0.11010328898E+02 -0.15038210764E+02  0.21849345554E+02  0.10566000000E+00 0. -1.
        -13    1    4    4    0    0 -0.95130476833E+01 -0.85750998079E+01 -0.11204317120E+02  0.17017000297E+02  0.10566000000E+00 0. -1.
         14    1    4    4    0    0 -0.57582951399E+01 -0.53501924216E+01 -0.60378369141E+01  0.99115082842E+01  0.00000000000E+00 0. -1.
<mgrwt>
<rscale>  0 0.79563965E+02</rscale>
<asrwt>0</asrwt>
<pdfrwt beam="1">  1        2 0.89332482E-02 0.79563965E+02</pdfrwt>
<pdfrwt beam="2">  1       -1 0.41931146E-02 0.79563965E+02</pdfrwt>
<totfact> 0.15681142E+05</totfact>
</mgrwt>
</event>
<event>
 8    1  0.2603554E-024  0.7319614E+02  0.7818608E-02  0.1349550E+00
         -1   -1    0    0    0  501 -0.00000000000E+00  0.00000000000E+00  0.19564459321E+02  0.19564459970E+02  0.50400000000E-02 0.  1.
          2   -1    0    0  501    0  0.00000000000E+00 -0.00000000000E+00 -0.68461825955E+02  0.68461826002E+02  0.25500000000E-02 0. -1.
         24    2    1    2    0    0  0.00000000000E+00 -0.17763568394E-14 -0.48897366633E+02  0.88026285972E+02  0.73196137592E+02 0.  0.
         66    2    3    3    0    0 -0.95514261197E+01 -0.98913055544E+01 -0.65219982728E+02  0.66683684756E+02  0.19999997651E+01 0.  0.
        -13    1    3    3    0    0  0.95514261197E+01  0.98913055544E+01  0.16322616095E+02  0.21342601217E+02  0.10566000000E+00 0.  1.
         13    1    4    4    0    0 -0.25810455185E+01 -0.34271320712E+01 -0.20590877025E+02  0.21033364231E+02  0.10566000000E+00 0. -1.
        -13    1    4    4    0    0 -0.10633763233E+01 -0.16555895072E+01 -0.81973723997E+01  0.84308851325E+01  0.10566000000E+00 0.  1.
         14    1    4    4    0    0 -0.59070042779E+01 -0.48085839760E+01 -0.36431733303E+02  0.37219435392E+02  0.00000000000E+00 0. -1.
<mgrwt>
<rscale>  0 0.73196138E+02</rscale>
<asrwt>0</asrwt>
<pdfrwt beam="1">  1        2 0.10532588E-01 0.73196138E+02</pdfrwt>
<pdfrwt beam="2">  1       -1 0.30099169E-02 0.73196138E+02</pdfrwt>
<totfact> 0.20399554E+05</totfact>
</mgrwt>
</event>
<event>
 8    1  0.2603554E-024  0.7923171E+02  0.7818608E-02  0.1331246E+00
          2   -1    0    0  501    0  0.00000000000E+00  0.00000000000E+00  0.55408644822E+03  0.55408644822E+03  0.25500000000E-02 0. -1.
         -1   -1    0    0    0  501 -0.00000000000E+00 -0.00000000000E+00 -0.28324363665E+01  0.28324408505E+01  0.50400000000E-02 0.  1.
         24    2    1    2    0    0  0.00000000000E+00  0.00000000000E+00  0.55125401185E+03  0.55691888907E+03  0.79231707197E+02 0.  0.
         66    2    3    3    0    0 -0.15378945096E+02  0.16100867404E+02  0.50590480672E+03  0.50639848277E+03  0.20000003241E+01 0.  0.
        -13    1    3    3    0    0  0.15378945096E+02 -0.16100867404E+02  0.45349205124E+02  0.50520406301E+02  0.10566000000E+00 0.  1.
         13    1    4    4    0    0 -0.35567745983E+01  0.36873439903E+01  0.12324575574E+03  0.12335223802E+03  0.10566000000E+00 0. -1.
        -13    1    4    4    0    0 -0.68294526687E+01  0.66923947951E+01  0.19690812435E+03  0.19714017899E+03  0.10566000000E+00 0.  1.
        -14    1    4    4    0    0 -0.49927178295E+01  0.57211286188E+01  0.18575092663E+03  0.18590606577E+03  0.00000000000E+00 0.  1.
<mgrwt>
<rscale>  0 0.79231707E+02</rscale>
<asrwt>0</asrwt>
<pdfrwt beam="1">  1        2 0.85244074E-01 0.79231707E+02</pdfrwt>
<pdfrwt beam="2">  1       -1 0.43575976E-03 0.79231707E+02</pdfrwt>
<totfact> 0.32232089E+05</totfact>
</mgrwt>
</event>
<event>
 8    1  0.2603554E-024  0.7942823E+02  0.7818608E-02  0.1330682E+00
          2   -1    0    0  501    0  0.00000000000E+00  0.00000000000E+00  0.21814777549E+03  0.21814777550E+03  0.25500000000E-02 0. -1.
         -1   -1    0    0    0  501 -0.00000000000E+00 -0.00000000000E+00 -0.72300103478E+01  0.72300121045E+01  0.50400000000E-02 0.  1.
         24    2    1    2    0    0  0.17763568394E-14  0.11102230246E-15  0.21091776514E+03  0.22537778761E+03  0.79428228578E+02 0.  0.
         66    2    3    3    0    0  0.13149316929E+02 -0.47337570332E+00  0.21177391475E+03  0.21219170493E+03  0.20000127688E+01 0.  0.
        -13    1    3    3    0    0 -0.13149316929E+02  0.47337570332E+00 -0.85614961044E+00  0.13186082680E+02  0.10566000000E+00 0.  1.
         13    1    4    4    0    0  0.51722308607E+01  0.53133290272E+00  0.90920255947E+02  0.91068866207E+02  0.10566000000E+00 0. -1.
        -13    1    4    4    0    0  0.57285675768E+01 -0.57661672373E+00  0.82182315830E+02  0.82383816205E+02  0.10566000000E+00 0.  1.
         14    1    4    4    0    0  0.22485184910E+01 -0.42809188231E+00  0.38671342972E+02  0.38739022514E+02  0.00000000000E+00 0. -1.
<mgrwt>
<rscale>  0 0.79428229E+02</rscale>
<asrwt>0</asrwt>
<pdfrwt beam="1">  1        2 0.33561193E-01 0.79428229E+02</pdfrwt>
<pdfrwt beam="2">  1       -1 0.11123095E-02 0.79428229E+02</pdfrwt>
<totfact> 0.23172984E+05</totfact>
</mgrwt>
</event>
<event>
 8    1  0.2603554E-024  0.8000550E+02  0.7818608E-02  0.1329036E+00
         -1   -1    0    0    0  501 -0.00000000000E+00  0.00000000000E+00  0.43479802488E+02  0.43479802780E+02  0.50400000000E-02 0.  1.
          2   -1    0    0  501    0  0.00000000000E+00 -0.00000000000E+00 -0.36803750322E+02  0.36803750410E+02  0.25500000000E-02 0. -1.
         24    2    1    2    0    0  0.00000000000E+00  0.00000000000E+00  0.66760521659E+01  0.80283553191E+02  0.80005495064E+02 0.  0.
         66    2    3    3    0    0 -0.44068005432E+01 -0.91967785929E+01 -0.35449306192E+02  0.36941222746E+02  0.20000002293E+01 0.  0.
        -13    1    3    3    0    0  0.44068005432E+01  0.91967785929E+01  0.42125358358E+02  0.43342330445E+02  0.10566000000E+00 0.  1.
         13    1    4    4    0    0 -0.10609415536E+01 -0.30857095933E+01 -0.10979061371E+02  0.11454176238E+02  0.10566000000E+00 0. -1.
        -13    1    4    4    0    0 -0.13417646127E+01 -0.13695345157E+01 -0.52778323894E+01  0.56162830976E+01  0.10566000000E+00 0.  1.
        -14    1    4    4    0    0 -0.20040943769E+01 -0.47415344839E+01 -0.19192412432E+02  0.19870763410E+02  0.00000000000E+00 0.  1.
<mgrwt>
<rscale>  0 0.80005495E+02</rscale>
<asrwt>0</asrwt>
<pdfrwt beam="1">  1        2 0.56621154E-02 0.80005495E+02</pdfrwt>
<pdfrwt beam="2">  1       -1 0.66892004E-02 0.80005495E+02</pdfrwt>
<totfact> 0.14012533E+05</totfact>
</mgrwt>
</event>
<event>
 8    1  0.2603554E-024  0.8009715E+02  0.7818608E-02  0.1328776E+00
         -1   -1    0    0    0  501 -0.00000000000E+00  0.00000000000E+00  0.52593748416E+02  0.52593748657E+02  0.50400000000E-02 0.  1.
          2   -1    0    0  501    0  0.00000000000E+00 -0.00000000000E+00 -0.30495795577E+02  0.30495795683E+02  0.25500000000E-02 0. -1.
         24    2    1    2    0    0  0.00000000000E+00  0.00000000000E+00  0.22097952839E+02  0.83089544340E+02  0.80097146385E+02 0.  0.
         66    2    3    3    0    0  0.26383358709E+02  0.20607839726E+02 -0.11698030513E+02  0.35519129903E+02  0.19999990649E+01 0.  0.
        -13    1    3    3    0    0 -0.26383358709E+02 -0.20607839726E+02  0.33795983352E+02  0.47570414437E+02  0.10566000000E+00 0.  1.
         13    1    4    4    0    0  0.10403317642E+02  0.90826963946E+01 -0.43520821190E+01  0.14480199397E+02  0.10566000000E+00 0. -1.
        -13    1    4    4    0    0  0.88050706944E+01  0.64798237815E+01 -0.44184855822E+01  0.11792012765E+02  0.10566000000E+00 0.  1.
        -14    1    4    4    0    0  0.71749703730E+01  0.50453195494E+01 -0.29274628117E+01  0.92469177418E+01  0.00000000000E+00 0.  1.
<mgrwt>
<rscale>  0 0.80097146E+02</rscale>
<asrwt>0</asrwt>
<pdfrwt beam="1">  1        2 0.46916609E-02 0.80097146E+02</pdfrwt>
<pdfrwt beam="2">  1       -1 0.80913460E-02 0.80097146E+02</pdfrwt>
<totfact> 0.13453049E+05</totfact>
</mgrwt>
</event>
<event>
 8    1  0.2603554E-024  0.8150594E+02  0.7818608E-02  0.1324831E+00
         -1   -1    0    0    0  501 -0.00000000000E+00  0.00000000000E+00  0.23085509222E+03  0.23085509227E+03  0.50400000000E-02 0.  1.
          2   -1    0    0  501    0  0.00000000000E+00 -0.00000000000E+00 -0.71941420556E+01  0.71941425075E+01  0.25500000000E-02 0. -1.
         24    2    1    2    0    0 -0.71054273576E-14 -0.27755575616E-16  0.22366095016E+03  0.23804923478E+03  0.81505935686E+02 0.  0.
         66    2    3    3    0    0 -0.32431534782E+02  0.63237086037E-01  0.39941345633E+02  0.51489022785E+02  0.19999822952E+01 0.  0.
        -13    1    3    3    0    0  0.32431534782E+02 -0.63237086037E-01  0.18371960453E+03  0.18656021200E+03  0.10566000000E+00 0.  1.
         13    1    4    4    0    0 -0.27183533428E+01 -0.22097146968E+00  0.26249575957E+01  0.37867980803E+01  0.10566000000E+00 0. -1.
        -13    1    4    4    0    0 -0.98284592531E+01  0.11217913124E+00  0.12331979342E+02  0.15770227454E+02  0.10566000000E+00 0.  1.
         14    1    4    4    0    0 -0.19884722186E+02  0.17202942448E+00  0.24984408695E+02  0.31931997250E+02  0.00000000000E+00 0. -1.
<mgrwt>
<rscale>  0 0.81505936E+02</rscale>
<asrwt>0</asrwt>
<pdfrwt beam="1">  1        2 0.11067914E-02 0.81505936E+02</pdfrwt>
<pdfrwt beam="2">  1       -1 0.35516159E-01 0.81505936E+02</pdfrwt>
<totfact> 0.90743559E+04</totfact>
</mgrwt>
</event>
<event>
 8    1  0.2603554E-024  0.7789118E+02  0.7818608E-02  0.1335145E+00
         -1   -1    0    0    0  501 -0.00000000000E+00  0.00000000000E+00  0.25053348931E+02  0.25053349438E+02  0.50400000000E-02 0.  1.
          2   -1    0    0  501    0  0.00000000000E+00 -0.00000000000E+00 -0.60541169803E+02  0.60541169857E+02  0.25500000000E-02 0. -1.
         24    2    1    2    0    0  0.00000000000E+00  0.00000000000E+00 -0.35487820873E+02  0.85594519295E+02  0.77891182447E+02 0.  0.
         66    2    3    3    0    0 -0.20268337806E+02 -0.32503711487E+02 -0.25325813778E+02  0.45964047053E+02  0.20000000205E+01 0.  0.
        -13    1    3    3    0    0  0.20268337806E+02  0.32503711487E+02 -0.10162007094E+02  0.39630472242E+02  0.10566000000E+00 0.  1.
         13    1    4    4    0    0 -0.65766355541E+01 -0.10056444425E+02 -0.82405907924E+01  0.14570611186E+02  0.10566000000E+00 0. -1.
        -13    1    4    4    0    0 -0.11952408713E+02 -0.20239551977E+02 -0.15637570933E+02  0.28231973487E+02  0.10566000000E+00 0.  1.
        -14    1    4    4    0    0 -0.17392935387E+01 -0.22077150851E+01 -0.14476520529E+01  0.31614623795E+01  0.00000000000E+00 0.  1.
<mgrwt>
<rscale>  0 0.77891182E+02</rscale>
<asrwt>0</asrwt>
<pdfrwt beam="1">  1        2 0.93140261E-02 0.77891182E+02</pdfrwt>
<pdfrwt beam="2">  1       -1 0.38543614E-02 0.77891182E+02</pdfrwt>
<totfact> 0.16771907E+05</totfact>
</mgrwt>
</event>
<event>
 8    1  0.2603554E-024  0.8507513E+02  0.7818608E-02  0.1315236E+00
         -1   -1    0    0    0  501 -0.00000000000E+00  0.00000000000E+00  0.86200506353E+02  0.86200506501E+02  0.50400000000E-02 0.  1.
          2   -1    0    0  501    0  0.00000000000E+00 -0.00000000000E+00 -0.20991110766E+02  0.20991110920E+02  0.25500000000E-02 0. -1.
         24    2    1    2    0    0  0.00000000000E+00  0.00000000000E+00  0.65209395588E+02  0.10719161742E+03  0.85075128989E+02 0.  0.
         66    2    3    3    0    0 -0.18927504300E+02 -0.31324525235E+02  0.53665493123E+01  0.37044246019E+02  0.20000028411E+01 0.  0.
        -13    1    3    3    0    0  0.18927504300E+02  0.31324525235E+02  0.59842846276E+02  0.70147371402E+02  0.10566000000E+00 0.  1.
         13    1    4    4    0    0 -0.67848549155E+01 -0.10223241815E+02  0.24487432008E+01  0.12512251466E+02  0.10566000000E+00 0. -1.
        -13    1    4    4    0    0 -0.50353483806E+01 -0.94870827011E+01  0.12092208877E+01  0.10808924585E+02  0.10566000000E+00 0.  1.
         14    1    4    4    0    0 -0.71073010037E+01 -0.11614200719E+02  0.17085852238E+01  0.13723069969E+02  0.00000000000E+00 0. -1.
<mgrwt>
<rscale>  0 0.85075129E+02</rscale>
<asrwt>0</asrwt>
<pdfrwt beam="1">  1        2 0.32294017E-02 0.85075129E+02</pdfrwt>
<pdfrwt beam="2">  1       -1 0.13261616E-01 0.85075129E+02</pdfrwt>
<totfact> 0.10501439E+05</totfact>
</mgrwt>
</event>
<event>
 8    1  0.2603554E-024  0.8080418E+02  0.7818608E-02  0.1326785E+00
         -1   -1    0    0    0  501 -0.00000000000E+00  0.00000000000E+00  0.14409923322E+02  0.14409924203E+02  0.50400000000E-02 0.  1.
          2   -1    0    0  501    0  0.00000000000E+00 -0.00000000000E+00 -0.11327809974E+03  0.11327809977E+03  0.25500000000E-02 0. -1.
         24    2    1    2    0    0 -0.35527136788E-14 -0.35527136788E-14 -0.98868176418E+02  0.12768802397E+03  0.80804177848E+02 0.  0.
         66    2    3    3    0    0  0.28428125540E+02  0.20795523815E+02 -0.80659508838E+02  0.88037313115E+02  0.20000005027E+01 0.  0.
        -13    1    3    3    0    0 -0.28428125540E+02 -0.20795523815E+02 -0.18208667581E+02  0.39650710858E+02  0.10566000000E+00 0.  1.
         13    1    4    4    0    0  0.58646082028E+01  0.40984727811E+01 -0.17812568822E+02  0.19196090243E+02  0.10566000000E+00 0. -1.
        -13    1    4    4    0    0  0.10888367037E+02  0.87261926084E+01 -0.30555312878E+02  0.33590791644E+02  0.10566000000E+00 0.  1.
        -14    1    4    4    0    0  0.11675150300E+02  0.79708584257E+01 -0.32291627137E+02  0.35250431228E+02  0.00000000000E+00 0.  1.
<mgrwt>
<rscale>  0 0.80804178E+02</rscale>
<asrwt>0</asrwt>
<pdfrwt beam="1">  1        2 0.17427399E-01 0.80804178E+02</pdfrwt>
<pdfrwt beam="2">  1       -1 0.22169114E-02 0.80804178E+02</pdfrwt>
<totfact> 0.17885876E+05</totfact>
</mgrwt>
</event>
<event>
 8    1  0.2603554E-024  0.8042390E+02  0.7818608E-02  0.1327853E+00
         -1   -1    0    0    0  501 -0.00000000000E+00  0.00000000000E+00  0.16479561958E+02  0.16479562728E+02  0.50400000000E-02 0.  1.
          2   -1    0    0  501    0  0.00000000000E+00 -0.00000000000E+00 -0.98121590000E+02  0.98121590033E+02  0.25500000000E-02 0. -1.
         24    2    1    2    0    0  0.00000000000E+00 -0.17763568394E-14 -0.81642028042E+02  0.11460115276E+03  0.80423898633E+02 0.  0.
         66    2    3    3    0    0  0.35318395293E+02  0.13120280944E+02 -0.20923935185E+02  0.43143271584E+02  0.20000003048E+01 0.  0.
        -13    1    3    3    0    0 -0.35318395293E+02 -0.13120280944E+02 -0.60718092857E+02  0.71457881177E+02  0.10566000000E+00 0.  1.
         13    1    4    4    0    0  0.10095601566E+02  0.41970424645E+01 -0.60687352090E+01  0.12505080867E+02  0.10566000000E+00 0. -1.
        -13    1    4    4    0    0  0.88914509580E+01  0.35537529877E+01 -0.59974635814E+01  0.11299017386E+02  0.10566000000E+00 0.  1.
        -14    1    4    4    0    0  0.16331342769E+02  0.53694854922E+01 -0.88577363950E+01  0.19339173331E+02  0.00000000000E+00 0.  1.
<mgrwt>
<rscale>  0 0.80423899E+02</rscale>
<asrwt>0</asrwt>
<pdfrwt beam="1">  1        2 0.15095629E-01 0.80423899E+02</pdfrwt>
<pdfrwt beam="2">  1       -1 0.25353174E-02 0.80423899E+02</pdfrwt>
<totfact> 0.17384287E+05</totfact>
</mgrwt>
</event>
<event>
 8    1  0.2603554E-024  0.7603937E+02  0.7818608E-02  0.1340682E+00
          2   -1    0    0  501    0  0.00000000000E+00  0.00000000000E+00  0.11197449897E+04  0.11197449897E+04  0.25500000000E-02 0. -1.
         -1   -1    0    0    0  501 -0.00000000000E+00 -0.00000000000E+00 -0.12909108528E+01  0.12909206914E+01  0.50400000000E-02 0.  1.
         24    2    1    2    0    0  0.00000000000E+00  0.00000000000E+00  0.11184540788E+04  0.11210359104E+04  0.76039370746E+02 0.  0.
         66    2    3    3    0    0 -0.18321235423E+02  0.14752111848E+02  0.99948308294E+03  0.99976183442E+03  0.20000035303E+01 0.  0.
        -13    1    3    3    0    0  0.18321235423E+02 -0.14752111848E+02  0.11897099588E+03  0.12127407594E+03  0.10566000000E+00 0.  1.
         13    1    4    4    0    0 -0.58130991658E+01  0.51416140588E+01  0.29783173817E+03  0.29793285106E+03  0.10566000000E+00 0. -1.
        -13    1    4    4    0    0 -0.47839070530E+01  0.36496143183E+01  0.28257230516E+03  0.28263638170E+03  0.10566000000E+00 0.  1.
         14    1    4    4    0    0 -0.77242292043E+01  0.59608834706E+01  0.41907903961E+03  0.41919260167E+03  0.00000000000E+00 0. -1.
<mgrwt>
<rscale>  0 0.76039371E+02</rscale>
<asrwt>0</asrwt>
<pdfrwt beam="1">  1        2 0.17226829E+00 0.76039371E+02</pdfrwt>
<pdfrwt beam="2">  1       -1 0.19860263E-03 0.76039371E+02</pdfrwt>
<totfact> 0.40176679E+05</totfact>
</mgrwt>
</event>
<event>
 8    1  0.2603554E-024  0.7937381E+02  0.7818608E-02  0.1330838E+00
         -1   -1    0    0    0  501 -0.00000000000E+00  0.00000000000E+00  0.14515288227E+02  0.14515289102E+02  0.50400000000E-02 0.  1.
          2   -1    0    0  501    0  0.00000000000E+00 -0.00000000000E+00 -0.10850975215E+03  0.10850975218E+03  0.25500000000E-02 0. -1.
         24    2    1    2    0    0  0.35527136788E-14  0.19689111452E-15 -0.93994463922E+02  0.12302504128E+03  0.79373808867E+02 0.  0.
         66    2    3    3    0    0  0.19067431506E+02  0.64264491601E-02 -0.10093028866E+03  0.10273504832E+03  0.19999998551E+01 0.  0.
        -13    1    3    3    0    0 -0.19067431506E+02 -0.64264491601E-02  0.69358247352E+01  0.20289992960E+02  0.10566000000E+00 0.  1.
         13    1    4    4    0    0  0.56862054038E+01 -0.64127926163E+00 -0.28674791287E+02  0.29240365770E+02  0.10566000000E+00 0. -1.
        -13    1    4    4    0    0  0.14536783357E+01 -0.24626430389E+00 -0.79331211689E+01  0.80696593687E+01  0.10566000000E+00 0. -1.
         14    1    4    4    0    0  0.11927547766E+02  0.89397001468E+00 -0.64322376202E+02  0.65425023182E+02  0.00000000000E+00 0. -1.
<mgrwt>
<rscale>  0 0.79373809E+02</rscale>
<asrwt>0</asrwt>
<pdfrwt beam="1">  1        2 0.16693808E-01 0.79373809E+02</pdfrwt>
<pdfrwt beam="2">  1       -1 0.22331214E-02 0.79373809E+02</pdfrwt>
<totfact> 0.18527046E+05</totfact>
</mgrwt>
</event>
<event>
 8    1  0.2603554E-024  0.7779042E+02  0.7818608E-02  0.1335441E+00
         -1   -1    0    0    0  501 -0.00000000000E+00  0.00000000000E+00  0.12780164399E+02  0.12780165393E+02  0.50400000000E-02 0.  1.
          2   -1    0    0  501    0  0.00000000000E+00 -0.00000000000E+00 -0.11837385068E+03  0.11837385071E+03  0.25500000000E-02 0. -1.
         24    2    1    2    0    0  0.00000000000E+00 -0.35527136788E-14 -0.10559368628E+03  0.13115401610E+03  0.77790419441E+02 0.  0.
         66    2    3    3    0    0 -0.18283064793E+02  0.26955756203E+02 -0.88594913560E+02  0.94413674665E+02  0.20000011251E+01 0.  0.
        -13    1    3    3    0    0  0.18283064793E+02 -0.26955756203E+02 -0.16998772722E+02  0.36740341435E+02  0.10566000000E+00 0.  1.
         13    1    4    4    0    0 -0.42499593552E+00  0.80869812049E+00 -0.19693751633E+01  0.21735263433E+01  0.10566000000E+00 0. -1.
        -13    1    4    4    0    0 -0.31549697616E+01  0.38583878547E+01 -0.14131630415E+02  0.14985163771E+02  0.10566000000E+00 0.  1.
         14    1    4    4    0    0 -0.14703099096E+02  0.22288670228E+02 -0.72493907981E+02  0.77254984551E+02  0.00000000000E+00 0. -1.
<mgrwt>
<rscale>  0 0.77790419E+02</rscale>
<asrwt>0</asrwt>
<pdfrwt beam="1">  1        2 0.18211361E-01 0.77790419E+02</pdfrwt>
<pdfrwt beam="2">  1       -1 0.19661793E-02 0.77790419E+02</pdfrwt>
<totfact> 0.20051995E+05</totfact>
</mgrwt>
</event>
<event>
 8    1  0.2603554E-024  0.7991203E+02  0.7818608E-02  0.1329301E+00
          2   -1    0    0  501    0  0.00000000000E+00  0.00000000000E+00  0.30233622142E+03  0.30233622143E+03  0.25500000000E-02 0. -1.
         -1   -1    0    0    0  501 -0.00000000000E+00 -0.00000000000E+00 -0.52804883505E+01  0.52804907557E+01  0.50400000000E-02 0.  1.
         24    2    1    2    0    0  0.00000000000E+00  0.17763568394E-14  0.29705573307E+03  0.30761671219E+03  0.79912033305E+02 0.  0.
         66    2    3    3    0    0 -0.37148213116E+02 -0.13522002432E+02  0.17027491094E+03  0.17481527277E+03  0.20000025763E+01 0.  0.
        -13    1    3    3    0    0  0.37148213116E+02  0.13522002432E+02  0.12678082213E+03  0.13280143942E+03  0.10566000000E+00 0.  1.
         13    1    4    4    0    0 -0.14346758446E+02 -0.49167403230E+01  0.65013958457E+02  0.66759491997E+02  0.10566000000E+00 0. -1.
        -13    1    4    4    0    0 -0.20627972525E+02 -0.76175650899E+01  0.96650598177E+02  0.99120582324E+02  0.10566000000E+00 0.  1.
        -14    1    4    4    0    0 -0.21734821441E+01 -0.98769701911E+00  0.86103543034E+01  0.89351984456E+01  0.00000000000E+00 0.  1.
<mgrwt>
<rscale>  0 0.79912033E+02</rscale>
<asrwt>0</asrwt>
<pdfrwt beam="1">  1        2 0.46513272E-01 0.79912033E+02</pdfrwt>
<pdfrwt beam="2">  1       -1 0.81238289E-03 0.79912033E+02</pdfrwt>
<totfact> 0.25640022E+05</totfact>
</mgrwt>
</event>
<event>
 8    1  0.2603554E-024  0.8019662E+02  0.7818608E-02  0.1328494E+00
         -1   -1    0    0    0  501 -0.00000000000E+00  0.00000000000E+00  0.20824843104E+03  0.20824843110E+03  0.50400000000E-02 0.  1.
          2   -1    0    0  501    0  0.00000000000E+00 -0.00000000000E+00 -0.77209429755E+01  0.77209433966E+01  0.25500000000E-02 0. -1.
         24    2    1    2    0    0  0.00000000000E+00  0.00000000000E+00  0.20052748806E+03  0.21596937449E+03  0.80196616209E+02 0.  0.
         66    2    3    3    0    0  0.35530684090E+02  0.25457313311E+01  0.14975980964E+03  0.15395100144E+03  0.20000002991E+01 0.  0.
        -13    1    3    3    0    0 -0.35530684090E+02 -0.25457313311E+01  0.50767678421E+02  0.62018373053E+02  0.10566000000E+00 0.  1.
         13    1    4    4    0    0  0.16090825994E+02  0.11438063605E+01  0.67003631007E+02  0.68918217521E+02  0.10566000000E+00 0. -1.
        -13    1    4    4    0    0  0.13937442143E+02  0.42676014078E+00  0.57711066865E+02  0.59371818403E+02  0.10566000000E+00 0.  1.
         14    1    4    4    0    0  0.55024159533E+01  0.97516482987E+00  0.25045111769E+02  0.25660965518E+02  0.00000000000E+00 0. -1.
<mgrwt>
<rscale>  0 0.80196616E+02</rscale>
<asrwt>0</asrwt>
<pdfrwt beam="1">  1        2 0.11878373E-02 0.80196616E+02</pdfrwt>
<pdfrwt beam="2">  1       -1 0.32038222E-01 0.80196616E+02</pdfrwt>
<totfact> 0.97764026E+04</totfact>
</mgrwt>
</event>
<event>
 8    1  0.2603554E-024  0.8011542E+02  0.7818608E-02  0.1328724E+00
          2   -1    0    0  501    0  0.00000000000E+00  0.00000000000E+00  0.32956082432E+03  0.32956082433E+03  0.25500000000E-02 0. -1.
         -1   -1    0    0    0  501 -0.00000000000E+00 -0.00000000000E+00 -0.48689641975E+01  0.48689668060E+01  0.50400000000E-02 0.  1.
         24    2    1    2    0    0  0.00000000000E+00  0.00000000000E+00  0.32469186012E+03  0.33442979114E+03  0.80115424042E+02 0.  0.
         66    2    3    3    0    0 -0.13499076605E+02 -0.37091905190E+02  0.19031848494E+03  0.19437890888E+03  0.20000015325E+01 0.  0.
        -13    1    3    3    0    0  0.13499076605E+02  0.37091905190E+02  0.13437337518E+03  0.14005088226E+03  0.10566000000E+00 0.  1.
         13    1    4    4    0    0 -0.76284042913E+01 -0.19014267435E+02  0.10023366283E+03  0.10230607630E+03  0.10566000000E+00 0. -1.
        -13    1    4    4    0    0 -0.74407506243E+00 -0.16197738117E+01  0.77900598875E+01  0.79920905892E+01  0.10566000000E+00 0.  1.
        -14    1    4    4    0    0 -0.51265972516E+01 -0.16457863944E+02  0.82294762221E+02  0.84080741992E+02  0.00000000000E+00 0.  1.
<mgrwt>
<rscale>  0 0.80115424E+02</rscale>
<asrwt>0</asrwt>
<pdfrwt beam="1">  1        2 0.50701670E-01 0.80115424E+02</pdfrwt>
<pdfrwt beam="2">  1       -1 0.74907155E-03 0.80115424E+02</pdfrwt>
<totfact> 0.26275099E+05</totfact>
</mgrwt>
</event>
<event>
 8    1  0.2603554E-024  0.8004433E+02  0.7818608E-02  0.1328926E+00
          2   -1    0    0  501    0  0.00000000000E+00  0.00000000000E+00  0.19889283236E+03  0.19889283238E+03  0.25500000000E-02 0. -1.
         -1   -1    0    0    0  501 -0.00000000000E+00 -0.00000000000E+00 -0.80534505188E+01  0.80534520959E+01  0.50400000000E-02 0.  1.
         24    2    1    2    0    0  0.00000000000E+00  0.00000000000E+00  0.19083938184E+03  0.20694628448E+03  0.80044331439E+02 0.  0.
         66    2    3    3    0    0 -0.35125790248E+02  0.57683081288E+01  0.14263506309E+03  0.14702331701E+03  0.20000006709E+01 0.  0.
        -13    1    3    3    0    0  0.35125790248E+02 -0.57683081288E+01  0.48204318751E+02  0.59922967462E+02  0.10566000000E+00 0.  1.
         13    1    4    4    0    0 -0.27850625137E+02  0.44263647619E+01  0.11364345516E+03  0.11709011953E+03  0.10566000000E+00 0. -1.
        -13    1    4    4    0    0 -0.55540669045E+00 -0.46047021676E-01  0.28627850912E+01  0.29184412679E+01  0.10566000000E+00 0. -1.
        -14    1    4    4    0    0 -0.67197584201E+01  0.13879903886E+01  0.26128822839E+02  0.27014756218E+02  0.00000000000E+00 0.  1.
<mgrwt>
<rscale>  0 0.80044331E+02</rscale>
<asrwt>0</asrwt>
<pdfrwt beam="1">  1        2 0.30598898E-01 0.80044331E+02</pdfrwt>
<pdfrwt beam="2">  1       -1 0.12389925E-02 0.80044331E+02</pdfrwt>
<totfact> 0.21983936E+05</totfact>
</mgrwt>
</event>
<event>
 8    1  0.2603554E-024  0.7964008E+02  0.7818608E-02  0.1330076E+00
          2   -1    0    0  501    0  0.00000000000E+00  0.00000000000E+00  0.61478531242E+02  0.61478531295E+02  0.25500000000E-02 0. -1.
         -1   -1    0    0    0  501 -0.00000000000E+00 -0.00000000000E+00 -0.25791696876E+02  0.25791697368E+02  0.50400000000E-02 0.  1.
         24    2    1    2    0    0  0.35527136788E-14  0.11102230246E-15  0.35686834366E+02  0.87270228663E+02  0.79640082018E+02 0.  0.
         66    2    3    3    0    0 -0.26965611573E+02 -0.86269182235E+00  0.49910386288E+02  0.56770900179E+02  0.20000007616E+01 0.  0.
        -13    1    3    3    0    0  0.26965611573E+02  0.86269182235E+00 -0.14223551922E+02  0.30499328484E+02  0.10566000000E+00 0.  1.
         13    1    4    4    0    0 -0.16964073978E+02 -0.96535214604E+00  0.32467804424E+02  0.36645343481E+02  0.10566000000E+00 0. -1.
        -13    1    4    4    0    0 -0.38556211684E+00  0.12880571140E+00  0.84405583063E+00  0.94278488429E+00  0.10566000000E+00 0.  1.
        -14    1    4    4    0    0 -0.96159754780E+01 -0.26145387712E-01  0.16598526033E+02  0.19182771813E+02  0.00000000000E+00 0.  1.
<mgrwt>
<rscale>  0 0.79640082E+02</rscale>
<asrwt>0</asrwt>
<pdfrwt beam="1">  1        2 0.94582356E-02 0.79640082E+02</pdfrwt>
<pdfrwt beam="2">  1       -1 0.39679534E-02 0.79640082E+02</pdfrwt>
<totfact> 0.15847339E+05</totfact>
</mgrwt>
</event>
<event>
 8    1  0.2603554E-024  0.8043971E+02  0.7818608E-02  0.1327808E+00
          2   -1    0    0  501    0  0.00000000000E+00  0.00000000000E+00  0.66489083984E+01  0.66489088873E+01  0.25500000000E-02 0. -1.
         -1   -1    0    0    0  501 -0.00000000000E+00 -0.00000000000E+00 -0.24329357035E+03  0.24329357040E+03  0.50400000000E-02 0.  1.
         24    2    1    2    0    0  0.00000000000E+00  0.00000000000E+00 -0.23664466195E+03  0.24994247929E+03  0.80439709865E+02 0.  0.
         66    2    3    3    0    0  0.12650785697E+02  0.37976591306E+02 -0.10703467839E+03  0.11429210933E+03  0.20000030345E+01 0.  0.
        -13    1    3    3    0    0 -0.12650785697E+02 -0.37976591306E+02 -0.12960998357E+03  0.13565036996E+03  0.10566000000E+00 0.  1.
         13    1    4    4    0    0  0.33843960390E+01  0.98309958808E+01 -0.29906678886E+02  0.31662647119E+02  0.10566000000E+00 0. -1.
        -13    1    4    4    0    0  0.28360677882E+01  0.95236315564E+01 -0.24971675007E+02  0.26876356807E+02  0.10566000000E+00 0.  1.
         14    1    4    4    0    0  0.64303218697E+01  0.18621963869E+02 -0.52156324492E+02  0.55753105404E+02  0.00000000000E+00 0. -1.
<mgrwt>
<rscale>  0 0.80439710E+02</rscale>
<asrwt>0</asrwt>
<pdfrwt beam="1">  1        2 0.10229092E-02 0.80439710E+02</pdfrwt>
<pdfrwt beam="2">  1       -1 0.37429773E-01 0.80439710E+02</pdfrwt>
<totfact> 0.92190019E+04</totfact>
</mgrwt>
</event>
<event>
 8    1  0.2603554E-024  0.7881686E+02  0.7818608E-02  0.1332443E+00
          2   -1    0    0  501    0  0.00000000000E+00  0.00000000000E+00  0.21675948302E+03  0.21675948304E+03  0.25500000000E-02 0. -1.
         -1   -1    0    0    0  501 -0.00000000000E+00 -0.00000000000E+00 -0.71647352182E+01  0.71647369909E+01  0.50400000000E-02 0.  1.
         24    2    1    2    0    0 -0.71054273576E-14 -0.35527136788E-14  0.20959474780E+03  0.22392422003E+03  0.78816863730E+02 0.  0.
         66    2    3    3    0    0  0.32040137785E+02 -0.22371112486E+02  0.11877792941E+03  0.12505692123E+03  0.19999827570E+01 0.  0.
        -13    1    3    3    0    0 -0.32040137785E+02  0.22371112486E+02  0.90816818398E+02  0.98867298796E+02  0.10566000000E+00 0.  1.
         13    1    4    4    0    0  0.99663235598E+01 -0.68141302400E+01  0.38516313681E+02  0.40364310471E+02  0.10566000000E+00 0. -1.
        -13    1    4    4    0    0  0.63771777758E+01 -0.40213586740E+01  0.23717509076E+02  0.24887167834E+02  0.10566000000E+00 0.  1.
         14    1    4    4    0    0  0.15696636449E+02 -0.11535623573E+02  0.56544106648E+02  0.59805442927E+02  0.00000000000E+00 0. -1.
<mgrwt>
<rscale>  0 0.78816864E+02</rscale>
<asrwt>0</asrwt>
<pdfrwt beam="1">  1        2 0.33347608E-01 0.78816864E+02</pdfrwt>
<pdfrwt beam="2">  1       -1 0.11022673E-02 0.78816864E+02</pdfrwt>
<totfact> 0.23596011E+05</totfact>
</mgrwt>
</event>
<event>
 8    1  0.2603554E-024  0.7343513E+02  0.7818608E-02  0.1348787E+00
         -1   -1    0    0    0  501 -0.00000000000E+00  0.00000000000E+00  0.21589006709E+03  0.21589006715E+03  0.50400000000E-02 0.  1.
          2   -1    0    0  501    0  0.00000000000E+00 -0.00000000000E+00 -0.62447507857E+01  0.62447513064E+01  0.25500000000E-02 0. -1.
         24    2    1    2    0    0  0.17763568394E-14  0.00000000000E+00  0.20964531631E+03  0.22213481846E+03  0.73435134111E+02 0.  0.
         66    2    3    3    0    0  0.11390413537E+02  0.34375651673E+02  0.12273125482E+03  0.12797807575E+03  0.20000038488E+01 0.  0.
        -13    1    3    3    0    0 -0.11390413537E+02 -0.34375651673E+02  0.86914061489E+02  0.94156742706E+02  0.10566000000E+00 0.  1.
         13    1    4    4    0    0  0.75605259016E+01  0.22176906007E+02  0.80592721309E+02  0.83929581222E+02  0.10566000000E+00 0. -1.
        -13    1    4    4    0    0  0.20181341470E+01  0.48539442321E+01  0.16546815979E+02  0.17362082915E+02  0.10566000000E+00 0.  1.
        -14    1    4    4    0    0  0.18117534882E+01  0.73448014342E+01  0.25591717528E+02  0.26686411614E+02  0.00000000000E+00 0.  1.
<mgrwt>
<rscale>  0 0.73435134E+02</rscale>
<asrwt>0</asrwt>
<pdfrwt beam="1">  1        2 0.96073095E-03 0.73435134E+02</pdfrwt>
<pdfrwt beam="2">  1       -1 0.33213856E-01 0.73435134E+02</pdfrwt>
<totfact> 0.12093525E+05</totfact>
</mgrwt>
</event>
<event>
 8    1  0.2603554E-024  0.7715456E+02  0.7818608E-02  0.1337326E+00
          2   -1    0    0  501    0  0.00000000000E+00  0.00000000000E+00  0.22429109474E+03  0.22429109475E+03  0.25500000000E-02 0. -1.
         -1   -1    0    0    0  501 -0.00000000000E+00 -0.00000000000E+00 -0.66351561976E+01  0.66351581118E+01  0.50400000000E-02 0.  1.
         24    2    1    2    0    0  0.00000000000E+00  0.17763568394E-14  0.21765593854E+03  0.23092625286E+03  0.77154563572E+02 0.  0.
         66    2    3    3    0    0 -0.79975439680E+00  0.15296364591E+02  0.21478763346E+03  0.21534239215E+03  0.19999977085E+01 0.  0.
        -13    1    3    3    0    0  0.79975439680E+00 -0.15296364591E+02  0.28683050793E+01  0.15583860718E+02  0.10566000000E+00 0.  1.
         13    1    4    4    0    0 -0.10808070115E+00  0.27809987367E+01  0.44598301852E+02  0.44685180178E+02  0.10566000000E+00 0. -1.
        -13    1    4    4    0    0 -0.40694000046E+00  0.12182966823E+02  0.16401852068E+03  0.16447089886E+03  0.10566000000E+00 0.  1.
        -14    1    4    4    0    0 -0.28473369519E+00  0.33239903163E+00  0.61708109268E+01  0.61863131094E+01  0.00000000000E+00 0.  1.
<mgrwt>
<rscale>  0 0.77154564E+02</rscale>
<asrwt>0</asrwt>
<pdfrwt beam="1">  1        2 0.34506322E-01 0.77154564E+02</pdfrwt>
<pdfrwt beam="2">  1       -1 0.10207934E-02 0.77154564E+02</pdfrwt>
<totfact> 0.25256995E+05</totfact>
</mgrwt>
</event>
<event>
 8    1  0.2603554E-024  0.8183033E+02  0.7818608E-02  0.1323936E+00
         -1   -1    0    0    0  501 -0.00000000000E+00  0.00000000000E+00  0.15293961604E+01  0.15294044648E+01  0.50400000000E-02 0.  1.
          2   -1    0    0  501    0  0.00000000000E+00 -0.00000000000E+00 -0.10945797776E+04  0.10945797776E+04  0.25500000000E-02 0. -1.
         24    2    1    2    0    0 -0.17763568394E-14 -0.35527136788E-14 -0.10930503815E+04  0.10961091821E+04  0.81830328413E+02 0.  0.
         66    2    3    3    0    0  0.10953570481E+02  0.19555392602E+02 -0.10049586460E+04  0.10052105622E+04  0.20000001758E+01 0.  0.
        -13    1    3    3    0    0 -0.10953570481E+02 -0.19555392602E+02 -0.88091735416E+02  0.90898619895E+02  0.10566000000E+00 0.  1.
         13    1    4    4    0    0  0.52802360045E+01  0.89692417554E+01 -0.46568224817E+03  0.46579855690E+03  0.10566000000E+00 0. -1.
        -13    1    4    4    0    0  0.37451767626E+01  0.59604865242E+01 -0.33707545476E+03  0.33714896873E+03  0.10566000000E+00 0.  1.
         14    1    4    4    0    0  0.19281577138E+01  0.46256643228E+01 -0.20220094312E+03  0.20226303657E+03  0.00000000000E+00 0. -1.
<mgrwt>
<rscale>  0 0.81830328E+02</rscale>
<asrwt>0</asrwt>
<pdfrwt beam="1">  1        2 0.16839626E+00 0.81830328E+02</pdfrwt>
<pdfrwt beam="2">  1       -1 0.23529323E-03 0.81830328E+02</pdfrwt>
<totfact> 0.33243804E+05</totfact>
</mgrwt>
</event>
<event>
 8    1  0.2603554E-024  0.8335399E+02  0.7818608E-02  0.1319794E+00
         -1   -1    0    0    0  501 -0.00000000000E+00  0.00000000000E+00  0.71324037904E+01  0.71324055711E+01  0.50400000000E-02 0.  1.
          2   -1    0    0  501    0  0.00000000000E+00 -0.00000000000E+00 -0.24353244965E+03  0.24353244966E+03  0.25500000000E-02 0. -1.
         24    2    1    2    0    0  0.00000000000E+00  0.44408920985E-15 -0.23640004586E+03  0.25066485524E+03  0.83353991910E+02 0.  0.
         66    2    3    3    0    0  0.27146498718E+02 -0.31189483427E+01 -0.21280730049E+03  0.21456376066E+03  0.20000036741E+01 0.  0.
        -13    1    3    3    0    0 -0.27146498718E+02  0.31189483427E+01 -0.23592745368E+02  0.36101094574E+02  0.10566000000E+00 0.  1.
         13    1    4    4    0    0  0.51554962821E+01 -0.55983304310E+00 -0.36964316226E+02  0.37326457012E+02  0.10566000000E+00 0. -1.
        -13    1    4    4    0    0  0.81787513172E+01 -0.66457597153E+00 -0.70375791996E+02  0.70852642134E+02  0.10566000000E+00 0.  1.
        -14    1    4    4    0    0  0.13812251119E+02 -0.18945393280E+01 -0.10546719227E+03  0.10638466151E+03  0.00000000000E+00 0.  1.
<mgrwt>
<rscale>  0 0.83353992E+02</rscale>
<asrwt>0</asrwt>
<pdfrwt beam="1">  1        2 0.37466524E-01 0.83353992E+02</pdfrwt>
<pdfrwt beam="2">  1       -1 0.10972932E-02 0.83353992E+02</pdfrwt>
<totfact> 0.21219817E+05</totfact>
</mgrwt>
</event>
<event>
 8    1  0.2603554E-024  0.7962105E+02  0.7818608E-02  0.1330130E+00
          2   -1    0    0  501    0  0.00000000000E+00  0.00000000000E+00  0.39847018893E+02  0.39847018975E+02  0.25500000000E-02 0. -1.
         -1   -1    0    0    0  501 -0.00000000000E+00 -0.00000000000E+00 -0.39774059752E+02  0.39774060071E+02  0.50400000000E-02 0.  1.
         24    2    1    2    0    0  0.00000000000E+00  0.00000000000E+00  0.72959141474E-01  0.79621079046E+02  0.79621045619E+02 0.  0.
         66    2    3    3    0    0  0.40886322532E+00  0.39140038298E+02  0.71613220269E+01  0.39842117025E+02  0.19999971886E+01 0.  0.
        -13    1    3    3    0    0 -0.40886322532E+00 -0.39140038298E+02 -0.70883628854E+01  0.39778962021E+02  0.10566000000E+00 0.  1.
         13    1    4    4    0    0  0.47097036391E+00  0.87104579429E+01  0.13457459252E+01  0.88270089379E+01  0.10566000000E+00 0. -1.
        -13    1    4    4    0    0  0.42496855082E+00  0.32468888212E+01  0.72588183913E+00  0.33557344600E+01  0.10566000000E+00 0.  1.
         14    1    4    4    0    0 -0.48707568941E+00  0.27182691534E+02  0.50896942625E+01  0.27659373627E+02  0.00000000000E+00 0. -1.
<mgrwt>
<rscale>  0 0.79621046E+02</rscale>
<asrwt>0</asrwt>
<pdfrwt beam="1">  1        2 0.61303106E-02 0.79621046E+02</pdfrwt>
<pdfrwt beam="2">  1       -1 0.61190862E-02 0.79621046E+02</pdfrwt>
<totfact> 0.14432201E+05</totfact>
</mgrwt>
</event>
<event>
 8    1  0.2603554E-024  0.8067740E+02  0.7818608E-02  0.1327140E+00
          2   -1    0    0  501    0  0.00000000000E+00  0.00000000000E+00  0.35966742376E+02  0.35966742467E+02  0.25500000000E-02 0. -1.
         -1   -1    0    0    0  501 -0.00000000000E+00 -0.00000000000E+00 -0.45242092042E+02  0.45242092322E+02  0.50400000000E-02 0.  1.
         24    2    1    2    0    0  0.00000000000E+00  0.44408920985E-15 -0.92753496651E+01  0.81208834789E+02  0.80677399167E+02 0.  0.
         66    2    3    3    0    0  0.20301593305E+02  0.30230203114E+01  0.30285481252E+02  0.36640192792E+02  0.20000026593E+01 0.  0.
        -13    1    3    3    0    0 -0.20301593305E+02 -0.30230203114E+01 -0.39560830917E+02  0.44568641997E+02  0.10566000000E+00 0.  1.
         13    1    4    4    0    0  0.62479728860E+01  0.76415343164E+00  0.10378949054E+02  0.12138980317E+02  0.10566000000E+00 0. -1.
        -13    1    4    4    0    0  0.11228237895E+02  0.19953009502E+01  0.16655950443E+02  0.20186292411E+02  0.10566000000E+00 0.  1.
        -14    1    4    4    0    0  0.28253825241E+01  0.26356592954E+00  0.32505817555E+01  0.43149200637E+01  0.00000000000E+00 0.  1.
<mgrwt>
<rscale>  0 0.80677399E+02</rscale>
<asrwt>0</asrwt>
<pdfrwt beam="1">  1        2 0.55333450E-02 0.80677399E+02</pdfrwt>
<pdfrwt beam="2">  1       -1 0.69603219E-02 0.80677399E+02</pdfrwt>
<totfact> 0.13627065E+05</totfact>
</mgrwt>
</event>
<event>
 8    1  0.2603554E-024  0.7882647E+02  0.7818608E-02  0.1332415E+00
          2   -1    0    0  501    0  0.00000000000E+00  0.00000000000E+00  0.35902528275E+03  0.35902528276E+03  0.25500000000E-02 0. -1.
         -1   -1    0    0    0  501 -0.00000000000E+00 -0.00000000000E+00 -0.43267218507E+01  0.43267247862E+01  0.50400000000E-02 0.  1.
         24    2    1    2    0    0  0.00000000000E+00 -0.35527136788E-14  0.35469856090E+03  0.36335200755E+03  0.78826469433E+02 0.  0.
         66    2    3    3    0    0 -0.19400860502E+02 -0.16753251492E+02  0.31531262871E+03  0.31635916083E+03  0.19999986385E+01 0.  0.
        -13    1    3    3    0    0  0.19400860502E+02  0.16753251492E+02  0.39385932190E+02  0.46992846714E+02  0.10566000000E+00 0.  1.
         13    1    4    4    0    0 -0.86164373154E+01 -0.72157508814E+01  0.13755946811E+03  0.13801785567E+03  0.10566000000E+00 0. -1.
        -13    1    4    4    0    0 -0.64624827957E+01 -0.52684909986E+01  0.94814462241E+02  0.95180429162E+02  0.10566000000E+00 0.  1.
        -14    1    4    4    0    0 -0.43219403910E+01 -0.42690096118E+01  0.82938698361E+02  0.83160876003E+02  0.00000000000E+00 0.  1.
<mgrwt>
<rscale>  0 0.78826469E+02</rscale>
<asrwt>0</asrwt>
<pdfrwt beam="1">  1        2 0.55234657E-01 0.78826469E+02</pdfrwt>
<pdfrwt beam="2">  1       -1 0.66564977E-03 0.78826469E+02</pdfrwt>
<totfact> 0.28266188E+05</totfact>
</mgrwt>
</event>
<event>
 8    1  0.2603554E-024  0.8004213E+02  0.7818608E-02  0.1328932E+00
         -1   -1    0    0    0  501 -0.00000000000E+00  0.00000000000E+00  0.18561511350E+02  0.18561512034E+02  0.50400000000E-02 0.  1.
          2   -1    0    0  501    0  0.00000000000E+00 -0.00000000000E+00 -0.86290679664E+02  0.86290679702E+02  0.25500000000E-02 0. -1.
         24    2    1    2    0    0  0.00000000000E+00  0.35527136788E-14 -0.67729168314E+02  0.10485219174E+03  0.80042125605E+02 0.  0.
         66    2    3    3    0    0  0.31036903006E+02 -0.24576961098E+02 -0.41337978566E+02  0.57272548763E+02  0.20000012331E+01 0.  0.
        -13    1    3    3    0    0 -0.31036903006E+02  0.24576961098E+02 -0.26391189749E+02  0.47579642973E+02  0.10566000000E+00 0.  1.
         13    1    4    4    0    0  0.56775215813E+01 -0.48743948699E+01 -0.76758316637E+01  0.10720239383E+02  0.10566000000E+00 0. -1.
        -13    1    4    4    0    0  0.21535492094E+02 -0.16370784407E+02 -0.27565445505E+02  0.38621819633E+02  0.10566000000E+00 0.  1.
        -14    1    4    4    0    0  0.38238893307E+01 -0.33317818212E+01 -0.60967013974E+01  0.79304897482E+01  0.00000000000E+00 0.  1.
<mgrwt>
<rscale>  0 0.80042126E+02</rscale>
<asrwt>0</asrwt>
<pdfrwt beam="1">  1        2 0.13275489E-01 0.80042126E+02</pdfrwt>
<pdfrwt beam="2">  1       -1 0.28556172E-02 0.80042126E+02</pdfrwt>
<totfact> 0.17004333E+05</totfact>
</mgrwt>
</event>
<event>
 8    1  0.2603554E-024  0.7955450E+02  0.7818608E-02  0.1330320E+00
         -1   -1    0    0    0  501 -0.00000000000E+00  0.00000000000E+00  0.11208535722E+03  0.11208535733E+03  0.50400000000E-02 0.  1.
          2   -1    0    0  501    0  0.00000000000E+00 -0.00000000000E+00 -0.14116291927E+02  0.14116292157E+02  0.25500000000E-02 0. -1.
         24    2    1    2    0    0 -0.35527136788E-14  0.00000000000E+00  0.97969065293E+02  0.12620164949E+03  0.79554500688E+02 0.  0.
         66    2    3    3    0    0  0.16535374202E+02 -0.35643823616E+02  0.58576259340E+02  0.70562588689E+02  0.20000005512E+01 0.  0.
        -13    1    3    3    0    0 -0.16535374202E+02  0.35643823616E+02  0.39392805953E+02  0.55639060802E+02  0.10566000000E+00 0.  1.
         13    1    4    4    0    0  0.71432622337E+01 -0.13980160636E+02  0.23829465918E+02  0.28536392497E+02  0.10566000000E+00 0. -1.
        -13    1    4    4    0    0  0.44185770828E+01 -0.11605420540E+02  0.18062764170E+02  0.21919950339E+02  0.10566000000E+00 0.  1.
        -14    1    4    4    0    0  0.49735348856E+01 -0.10058242440E+02  0.16684029252E+02  0.20106245853E+02  0.00000000000E+00 0.  1.
<mgrwt>
<rscale>  0 0.79554501E+02</rscale>
<asrwt>0</asrwt>
<pdfrwt beam="1">  1        2 0.21717373E-02 0.79554501E+02</pdfrwt>
<pdfrwt beam="2">  1       -1 0.17243901E-01 0.79554501E+02</pdfrwt>
<totfact> 0.11724061E+05</totfact>
</mgrwt>
</event>
<event>
 8    1  0.2603554E-024  0.7948422E+02  0.7818608E-02  0.1330522E+00
         -1   -1    0    0    0  501 -0.00000000000E+00  0.00000000000E+00  0.57715377595E+01  0.57715399601E+01  0.50400000000E-02 0.  1.
          2   -1    0    0  501    0  0.00000000000E+00 -0.00000000000E+00 -0.27365928570E+03  0.27365928572E+03  0.25500000000E-02 0. -1.
         24    2    1    2    0    0  0.88817841970E-15  0.00000000000E+00 -0.26788774794E+03  0.27943082568E+03  0.79484217548E+02 0.  0.
         66    2    3    3    0    0  0.61810884617E+01  0.32566370584E+02 -0.21094239378E+03  0.21354031898E+03  0.19999973581E+01 0.  0.
        -13    1    3    3    0    0 -0.61810884617E+01 -0.32566370584E+02 -0.56945354169E+02  0.65890506699E+02  0.10566000000E+00 0.  1.
         13    1    4    4    0    0  0.26265462674E+01  0.17224520345E+02 -0.11206701586E+03  0.11341344741E+03  0.10566000000E+00 0. -1.
        -13    1    4    4    0    0  0.36382389985E+00  0.26990235069E+01 -0.18899473629E+02  0.19094982671E+02  0.10566000000E+00 0.  1.
        -14    1    4    4    0    0  0.31907182945E+01  0.12642826733E+02 -0.79975904289E+02  0.81031888895E+02  0.00000000000E+00 0.  1.
<mgrwt>
<rscale>  0 0.79484218E+02</rscale>
<asrwt>0</asrwt>
<pdfrwt beam="1">  1        2 0.42101419E-01 0.79484218E+02</pdfrwt>
<pdfrwt beam="2">  1       -1 0.88792927E-03 0.79484218E+02</pdfrwt>
<totfact> 0.25081905E+05</totfact>
</mgrwt>
</event>
<event>
 8    1  0.2603554E-024  0.8491489E+02  0.7818608E-02  0.1315655E+00
         -1   -1    0    0    0  501 -0.00000000000E+00  0.00000000000E+00  0.67971270626E+01  0.67971289312E+01  0.50400000000E-02 0.  1.
          2   -1    0    0  501    0  0.00000000000E+00 -0.00000000000E+00 -0.26520536924E+03  0.26520536925E+03  0.25500000000E-02 0. -1.
         24    2    1    2    0    0  0.00000000000E+00  0.00000000000E+00 -0.25840824217E+03  0.27200249818E+03  0.84914894999E+02 0.  0.
         66    2    3    3    0    0 -0.22243175328E+02 -0.33130130830E+02 -0.17550279501E+03  0.17999332064E+03  0.20000006131E+01 0.  0.
        -13    1    3    3    0    0  0.22243175328E+02  0.33130130830E+02 -0.82905447163E+02  0.92009177535E+02  0.10566000000E+00 0.  1.
         13    1    4    4    0    0 -0.68849617999E+01 -0.10041077695E+02 -0.50692559611E+02  0.52134179807E+02  0.10566000000E+00 0. -1.
        -13    1    4    4    0    0 -0.65975983200E+01 -0.10733318863E+02 -0.54994896258E+02  0.56419697056E+02  0.10566000000E+00 0.  1.
         14    1    4    4    0    0 -0.87606152081E+01 -0.12355734272E+02 -0.69815339143E+02  0.71439443782E+02  0.00000000000E+00 0. -1.
<mgrwt>
<rscale>  0 0.84914895E+02</rscale>
<asrwt>0</asrwt>
<pdfrwt beam="1">  1        2 0.40800818E-01 0.84914895E+02</pdfrwt>
<pdfrwt beam="2">  1       -1 0.10457122E-02 0.84914895E+02</pdfrwt>
<totfact> 0.20837264E+05</totfact>
</mgrwt>
</event>
<event>
 8    1  0.2603554E-024  0.7975270E+02  0.7818608E-02  0.1329755E+00
          2   -1    0    0  501    0  0.00000000000E+00  0.00000000000E+00  0.11879226240E+03  0.11879226243E+03  0.25500000000E-02 0. -1.
         -1   -1    0    0    0  501 -0.00000000000E+00 -0.00000000000E+00 -0.13385747086E+02  0.13385748035E+02  0.50400000000E-02 0.  1.
         24    2    1    2    0    0  0.00000000000E+00  0.00000000000E+00  0.10540651531E+03  0.13217801046E+03  0.79752698882E+02 0.  0.
         66    2    3    3    0    0  0.12286950967E+02  0.37253195244E+02  0.41093678751E+02  0.56845933424E+02  0.19999984037E+01 0.  0.
        -13    1    3    3    0    0 -0.12286950967E+02 -0.37253195244E+02  0.64312836562E+02  0.75332077036E+02  0.10566000000E+00 0.  1.
         13    1    4    4    0    0  0.27523780199E+01  0.67734258258E+01  0.79953882147E+01  0.10834771752E+02  0.10566000000E+00 0. -1.
        -13    1    4    4    0    0  0.60065411863E+00  0.30739928742E+01  0.34112926191E+01  0.46323103231E+01  0.10566000000E+00 0.  1.
         14    1    4    4    0    0  0.89339188281E+01  0.27405776544E+02  0.29686997917E+02  0.41378851349E+02  0.00000000000E+00 0. -1.
<mgrwt>
<rscale>  0 0.79752699E+02</rscale>
<asrwt>0</asrwt>
<pdfrwt beam="1">  1        2 0.18275733E-01 0.79752699E+02</pdfrwt>
<pdfrwt beam="2">  1       -1 0.20593458E-02 0.79752699E+02</pdfrwt>
<totfact> 0.18784673E+05</totfact>
</mgrwt>
</event>
<event>
 8    1  0.2603554E-024  0.7192239E+02  0.7818608E-02  0.1353675E+00
          2   -1    0    0  501    0  0.00000000000E+00  0.00000000000E+00  0.23550588076E+03  0.23550588077E+03  0.25500000000E-02 0. -1.
         -1   -1    0    0    0  501 -0.00000000000E+00 -0.00000000000E+00 -0.54911887712E+01  0.54911910842E+01  0.50400000000E-02 0.  1.
         24    2    1    2    0    0  0.00000000000E+00  0.00000000000E+00  0.23001469199E+03  0.24099707185E+03  0.71922389514E+02 0.  0.
         66    2    3    3    0    0 -0.20737621708E+02  0.18147353939E+02  0.19236995504E+03  0.19434396057E+03  0.19999993680E+01 0.  0.
        -13    1    3    3    0    0  0.20737621708E+02 -0.18147353939E+02  0.37644736945E+02  0.46653111288E+02  0.10566000000E+00 0.  1.
         13    1    4    4    0    0 -0.11820669469E+02  0.96784543920E+01  0.10233173918E+03  0.10346592054E+03  0.10566000000E+00 0. -1.
        -13    1    4    4    0    0 -0.35847370075E+01  0.39639101881E+01  0.38718855560E+02  0.39086108317E+02  0.10566000000E+00 0.  1.
         14    1    4    4    0    0 -0.53322152318E+01  0.45049893594E+01  0.51319360302E+02  0.51791931709E+02  0.00000000000E+00 0. -1.
<mgrwt>
<rscale>  0 0.71922390E+02</rscale>
<asrwt>0</asrwt>
<pdfrwt beam="1">  1        2 0.36231676E-01 0.71922390E+02</pdfrwt>
<pdfrwt beam="2">  1       -1 0.84479841E-03 0.71922390E+02</pdfrwt>
<totfact> 0.30864196E+05</totfact>
</mgrwt>
</event>
<event>
 8    1  0.2603554E-024  0.8007829E+02  0.7818608E-02  0.1328829E+00
         -1   -1    0    0    0  501 -0.00000000000E+00  0.00000000000E+00  0.32378696382E+02  0.32378696774E+02  0.50400000000E-02 0.  1.
          2   -1    0    0  501    0  0.00000000000E+00 -0.00000000000E+00 -0.49511967701E+02  0.49511967766E+02  0.25500000000E-02 0. -1.
         24    2    1    2    0    0  0.17763568394E-14 -0.35527136788E-14 -0.17133271319E+02  0.81890664541E+02  0.80078286401E+02 0.  0.
         66    2    3    3    0    0 -0.12625811952E+02  0.13219612545E+02 -0.44971920623E+02  0.48586447955E+02  0.19999992955E+01 0.  0.
        -13    1    3    3    0    0  0.12625811952E+02 -0.13219612545E+02  0.27838649304E+02  0.33304216585E+02  0.10566000000E+00 0.  1.
         13    1    4    4    0    0 -0.82636502152E+01  0.91350577150E+01 -0.29107766095E+02  0.31607125864E+02  0.10566000000E+00 0. -1.
        -13    1    4    4    0    0 -0.10732760431E+01  0.68746058132E+00 -0.25983961162E+01  0.28960921822E+01  0.10566000000E+00 0.  1.
        -14    1    4    4    0    0 -0.32888856933E+01  0.33970942482E+01 -0.13265758412E+02  0.14083229909E+02  0.00000000000E+00 0.  1.
<mgrwt>
<rscale>  0 0.80078286E+02</rscale>
<asrwt>0</asrwt>
<pdfrwt beam="1">  1        2 0.76172258E-02 0.80078286E+02</pdfrwt>
<pdfrwt beam="2">  1       -1 0.49813380E-02 0.80078286E+02</pdfrwt>
<totfact> 0.14871258E+05</totfact>
</mgrwt>
</event>
<event>
 8    1  0.2603554E-024  0.8018682E+02  0.7818608E-02  0.1328522E+00
          2   -1    0    0  501    0  0.00000000000E+00  0.00000000000E+00  0.11241104311E+02  0.11241104600E+02  0.25500000000E-02 0. -1.
         -1   -1    0    0    0  501 -0.00000000000E+00 -0.00000000000E+00 -0.14300030453E+03  0.14300030462E+03  0.50400000000E-02 0.  1.
         24    2    1    2    0    0  0.00000000000E+00 -0.35527136788E-14 -0.13175920022E+03  0.15424140922E+03  0.80186816096E+02 0.  0.
         66    2    3    3    0    0  0.36014457825E+01  0.31341256570E+02 -0.18403867220E+02  0.36577959251E+02  0.19999998000E+01 0.  0.
        -13    1    3    3    0    0 -0.36014457825E+01 -0.31341256570E+02 -0.11335533300E+03  0.11766344997E+03  0.10566000000E+00 0.  1.
         13    1    4    4    0    0  0.21677264999E+01  0.15350860844E+02 -0.91137459860E+01  0.17983867681E+02  0.10566000000E+00 0. -1.
        -13    1    4    4    0    0  0.50983830846E+00  0.99607604784E+01 -0.51863788637E+01  0.11242169460E+02  0.10566000000E+00 0.  1.
        -14    1    4    4    0    0  0.92388097408E+00  0.60296352474E+01 -0.41037423705E+01  0.73519221102E+01  0.00000000000E+00 0.  1.
<mgrwt>
<rscale>  0 0.80186816E+02</rscale>
<asrwt>0</asrwt>
<pdfrwt beam="1">  1        2 0.17294008E-02 0.80186816E+02</pdfrwt>
<pdfrwt beam="2">  1       -1 0.22000046E-01 0.80186816E+02</pdfrwt>
<totfact> 0.10853764E+05</totfact>
</mgrwt>
</event>
<event>
 8    1  0.2603554E-024  0.8099440E+02  0.7818608E-02  0.1326253E+00
         -1   -1    0    0    0  501 -0.00000000000E+00  0.00000000000E+00  0.25897399904E+02  0.25897400394E+02  0.50400000000E-02 0.  1.
          2   -1    0    0  501    0  0.00000000000E+00 -0.00000000000E+00 -0.63327720515E+02  0.63327720566E+02  0.25500000000E-02 0. -1.
         24    2    1    2    0    0  0.00000000000E+00  0.00000000000E+00 -0.37430320611E+02  0.89225120961E+02  0.80994402951E+02 0.  0.
         66    2    3    3    0    0 -0.20131870796E+02 -0.31818568150E+02 -0.35077534181E+02  0.51498999124E+02  0.20000014317E+01 0.  0.
        -13    1    3    3    0    0  0.20131870796E+02  0.31818568150E+02 -0.23527864307E+01  0.37726121837E+02  0.10566000000E+00 0.  1.
         13    1    4    4    0    0 -0.12563783444E+02 -0.20253059336E+02 -0.22171330229E+02  0.32551714472E+02  0.10566000000E+00 0. -1.
        -13    1    4    4    0    0 -0.52127522908E+01 -0.74493486894E+01 -0.91264248029E+01  0.12882871421E+02  0.10566000000E+00 0.  1.
         14    1    4    4    0    0 -0.23553350614E+01 -0.41161601239E+01 -0.37797791481E+01  0.60644132301E+01  0.00000000000E+00 0. -1.
<mgrwt>
<rscale>  0 0.80994403E+02</rscale>
<asrwt>0</asrwt>
<pdfrwt beam="1">  1        2 0.97427262E-02 0.80994403E+02</pdfrwt>
<pdfrwt beam="2">  1       -1 0.39842154E-02 0.80994403E+02</pdfrwt>
<totfact> 0.15242862E+05</totfact>
</mgrwt>
</event>
<event>
 8    1  0.2603554E-024  0.8117268E+02  0.7818608E-02  0.1325756E+00
         -1   -1    0    0    0  501 -0.00000000000E+00  0.00000000000E+00  0.11055850015E+02  0.11055851163E+02  0.50400000000E-02 0.  1.
          2   -1    0    0  501    0  0.00000000000E+00 -0.00000000000E+00 -0.14899360257E+03  0.14899360260E+03  0.25500000000E-02 0. -1.
         24    2    1    2    0    0  0.00000000000E+00  0.00000000000E+00 -0.13793775256E+03  0.16004945376E+03  0.81172680549E+02 0.  0.
         66    2    3    3    0    0 -0.17692969271E+02  0.12398402193E+02 -0.13669778120E+03  0.13840897706E+03  0.20000022449E+01 0.  0.
        -13    1    3    3    0    0  0.17692969271E+02 -0.12398402193E+02 -0.12399713618E+01  0.21640476695E+02  0.10566000000E+00 0.  1.
         13    1    4    4    0    0 -0.18521943545E+01  0.94756969615E+00 -0.15566005545E+02  0.15704782867E+02  0.10566000000E+00 0. -1.
        -13    1    4    4    0    0 -0.77823763226E+00  0.43761949632E+00 -0.69328802071E+01  0.69909338888E+01  0.10566000000E+00 0.  1.
         14    1    4    4    0    0 -0.15062537285E+02  0.11013213000E+02 -0.11419889545E+03  0.11571326031E+03  0.00000000000E+00 0. -1.
<mgrwt>
<rscale>  0 0.81172681E+02</rscale>
<asrwt>0</asrwt>
<pdfrwt beam="1">  1        2 0.22922091E-01 0.81172681E+02</pdfrwt>
<pdfrwt beam="2">  1       -1 0.17009002E-02 0.81172681E+02</pdfrwt>
<totfact> 0.19228917E+05</totfact>
</mgrwt>
</event>
<event>
 8    1  0.2603554E-024  0.7984142E+02  0.7818608E-02  0.1329502E+00
         -1   -1    0    0    0  501 -0.00000000000E+00  0.00000000000E+00  0.28053163203E+03  0.28053163207E+03  0.50400000000E-02 0.  1.
          2   -1    0    0  501    0  0.00000000000E+00 -0.00000000000E+00 -0.56808680407E+01  0.56808686130E+01  0.25500000000E-02 0. -1.
         24    2    1    2    0    0 -0.35527136788E-14  0.00000000000E+00  0.27485076399E+03  0.28621250069E+03  0.79841424616E+02 0.  0.
         66    2    3    3    0    0 -0.31758969045E+02  0.19750079435E+02  0.87715356944E+02  0.95376525342E+02  0.19999974773E+01 0.  0.
        -13    1    3    3    0    0  0.31758969045E+02 -0.19750079435E+02  0.18713540704E+03  0.19083597534E+03  0.10566000000E+00 0.  1.
         13    1    4    4    0    0 -0.12374775228E+02  0.72713700240E+01  0.33253029727E+02  0.36218545443E+02  0.10566000000E+00 0. -1.
        -13    1    4    4    0    0 -0.53981630124E+01  0.33124925257E+01  0.13421113295E+02  0.14840829383E+02  0.10566000000E+00 0.  1.
        -14    1    4    4    0    0 -0.13986030805E+02  0.91662168854E+01  0.41041213922E+02  0.44317150516E+02  0.00000000000E+00 0.  1.
<mgrwt>
<rscale>  0 0.79841425E+02</rscale>
<asrwt>0</asrwt>
<pdfrwt beam="1">  1        2 0.87397953E-03 0.79841425E+02</pdfrwt>
<pdfrwt beam="2">  1       -1 0.43158723E-01 0.79841425E+02</pdfrwt>
<totfact> 0.89206981E+04</totfact>
</mgrwt>
</event>
<event>
 8    1  0.2603554E-024  0.8482012E+02  0.7818608E-02  0.1315904E+00
         -1   -1    0    0    0  501 -0.00000000000E+00  0.00000000000E+00  0.10488632469E+02  0.10488633680E+02  0.50400000000E-02 0.  1.
          2   -1    0    0  501    0  0.00000000000E+00 -0.00000000000E+00 -0.17148214215E+03  0.17148214216E+03  0.25500000000E-02 0. -1.
         24    2    1    2    0    0 -0.44408920985E-15  0.00000000000E+00 -0.16099350968E+03  0.18197077584E+03  0.84820122042E+02 0.  0.
         66    2    3    3    0    0 -0.29629040014E+01  0.41545479033E+02 -0.63675614172E+02  0.76114318423E+02  0.20000001482E+01 0.  0.
        -13    1    3    3    0    0  0.29629040014E+01 -0.41545479033E+02 -0.97317895505E+02  0.10585645742E+03  0.10566000000E+00 0.  1.
         13    1    4    4    0    0 -0.15643706339E+01  0.21361409487E+02 -0.32148872067E+02  0.38630534684E+02  0.10566000000E+00 0. -1.
        -13    1    4    4    0    0 -0.25160212835E+00  0.10527234159E+02 -0.17222856732E+02  0.20187221719E+02  0.10566000000E+00 0.  1.
        -14    1    4    4    0    0 -0.11469312392E+01  0.96568353871E+01 -0.14303885373E+02  0.17296562021E+02  0.00000000000E+00 0.  1.
<mgrwt>
<rscale>  0 0.84820122E+02</rscale>
<asrwt>0</asrwt>
<pdfrwt beam="1">  1        2 0.26381866E-01 0.84820122E+02</pdfrwt>
<pdfrwt beam="2">  1       -1 0.16136360E-02 0.84820122E+02</pdfrwt>
<totfact> 0.17919057E+05</totfact>
</mgrwt>
</event>
<event>
 8    1  0.2603554E-024  0.7882428E+02  0.7818608E-02  0.1332421E+00
          2   -1    0    0  501    0  0.00000000000E+00  0.00000000000E+00  0.35229715967E+02  0.35229716059E+02  0.25500000000E-02 0. -1.
         -1   -1    0    0    0  501 -0.00000000000E+00 -0.00000000000E+00 -0.44091095264E+02  0.44091095552E+02  0.50400000000E-02 0.  1.
         24    2    1    2    0    0  0.00000000000E+00  0.44408920985E-15 -0.88613792971E+01  0.79320811612E+02  0.78824279963E+02 0.  0.
         66    2    3    3    0    0 -0.35071122574E+02  0.24869685147E+01  0.13430564078E+02  0.37690167196E+02  0.20000002101E+01 0.  0.
        -13    1    3    3    0    0  0.35071122574E+02 -0.24869685147E+01 -0.22291943375E+02  0.41630644416E+02  0.10566000000E+00 0.  1.
         13    1    4    4    0    0 -0.16642865014E+02  0.14888247705E+01  0.60451148504E+01  0.17769528206E+02  0.10566000000E+00 0. -1.
        -13    1    4    4    0    0 -0.81644732253E+01  0.10556281758E+01  0.30830980820E+01  0.87914521958E+01  0.10566000000E+00 0.  1.
        -14    1    4    4    0    0 -0.10263784335E+02 -0.57484431586E-01  0.43023511453E+01  0.11129186794E+02  0.00000000000E+00 0.  1.
<mgrwt>
<rscale>  0 0.78824280E+02</rscale>
<asrwt>0</asrwt>
<pdfrwt beam="1">  1        2 0.54199563E-02 0.78824280E+02</pdfrwt>
<pdfrwt beam="2">  1       -1 0.67832455E-02 0.78824280E+02</pdfrwt>
<totfact> 0.14475404E+05</totfact>
</mgrwt>
</event>
<event>
 8    1  0.2603554E-024  0.8151408E+02  0.7818608E-02  0.1324809E+00
         -1   -1    0    0    0  501 -0.00000000000E+00  0.00000000000E+00  0.25237033677E+02  0.25237034180E+02  0.50400000000E-02 0.  1.
          2   -1    0    0  501    0  0.00000000000E+00 -0.00000000000E+00 -0.65821378807E+02  0.65821378856E+02  0.25500000000E-02 0. -1.
         24    2    1    2    0    0  0.00000000000E+00  0.22204460493E-15 -0.40584345130E+02  0.91058413036E+02  0.81514081698E+02 0.  0.
         66    2    3    3    0    0 -0.40702041810E+02 -0.14915422063E+01 -0.20863441110E+02  0.45805721126E+02  0.20000018192E+01 0.  0.
        -13    1    3    3    0    0  0.40702041810E+02  0.14915422063E+01 -0.19720904020E+02  0.45252691910E+02  0.10566000000E+00 0.  1.
         13    1    4    4    0    0 -0.13935040722E+02  0.30252627346E+00 -0.69959755831E+01  0.15595887934E+02  0.10566000000E+00 0. -1.
        -13    1    4    4    0    0 -0.40453166672E+01 -0.52901850709E+00 -0.20195654434E+01  0.45534883479E+01  0.10566000000E+00 0.  1.
         14    1    4    4    0    0 -0.22721684421E+02 -0.12650499726E+01 -0.11847900083E+02  0.25656344844E+02  0.00000000000E+00 0. -1.
<mgrwt>
<rscale>  0 0.81514082E+02</rscale>
<asrwt>0</asrwt>
<pdfrwt beam="1">  1        2 0.10126366E-01 0.81514082E+02</pdfrwt>
<pdfrwt beam="2">  1       -1 0.38826207E-02 0.81514082E+02</pdfrwt>
<totfact> 0.15118626E+05</totfact>
</mgrwt>
</event>
<event>
 8    1  0.2603554E-024  0.7979828E+02  0.7818608E-02  0.1329625E+00
         -1   -1    0    0    0  501 -0.00000000000E+00  0.00000000000E+00  0.17714330631E+01  0.17714402329E+01  0.50400000000E-02 0.  1.
          2   -1    0    0  501    0  0.00000000000E+00 -0.00000000000E+00 -0.89867242593E+03  0.89867242594E+03  0.25500000000E-02 0. -1.
         24    2    1    2    0    0  0.00000000000E+00  0.00000000000E+00 -0.89690099287E+03  0.90044386617E+03  0.79798277622E+02 0.  0.
         66    2    3    3    0    0 -0.92546467249E+01  0.16046619748E+02 -0.84716913325E+03  0.84737399226E+03  0.19999844350E+01 0.  0.
        -13    1    3    3    0    0  0.92546467249E+01 -0.16046619748E+02 -0.49731859615E+02  0.53069873904E+02  0.10566000000E+00 0.  1.
         13    1    4    4    0    0 -0.13404337210E+01  0.21101944486E+01 -0.13720460366E+03  0.13722741749E+03  0.10566000000E+00 0. -1.
        -13    1    4    4    0    0 -0.30615592588E+01  0.41931109152E+01 -0.22581961513E+03  0.22587931527E+03  0.10566000000E+00 0.  1.
         14    1    4    4    0    0 -0.48526537450E+01  0.97433143839E+01 -0.48414491447E+03  0.48426725950E+03  0.00000000000E+00 0. -1.
<mgrwt>
<rscale>  0 0.79798278E+02</rscale>
<asrwt>0</asrwt>
<pdfrwt beam="1">  1        2 0.13825693E+00 0.79798278E+02</pdfrwt>
<pdfrwt beam="2">  1       -1 0.27252943E-03 0.79798278E+02</pdfrwt>
<totfact> 0.35170647E+05</totfact>
</mgrwt>
</event>
<event>
 8    1  0.2603554E-024  0.8058451E+02  0.7818608E-02  0.1327401E+00
          2   -1    0    0  501    0  0.00000000000E+00  0.00000000000E+00  0.34809077977E+02  0.34809078070E+02  0.25500000000E-02 0. -1.
         -1   -1    0    0    0  501 -0.00000000000E+00 -0.00000000000E+00 -0.46639146940E+02  0.46639147212E+02  0.50400000000E-02 0.  1.
         24    2    1    2    0    0  0.00000000000E+00  0.71054273576E-14 -0.11830068963E+02  0.81448225283E+02  0.80584507630E+02 0.  0.
         66    2    3    3    0    0  0.35924863511E+01  0.35884318760E+02  0.12186182483E+02  0.38119461296E+02  0.19999987257E+01 0.  0.
        -13    1    3    3    0    0 -0.35924863511E+01 -0.35884318760E+02 -0.24016251446E+02  0.43328763987E+02  0.10566000000E+00 0.  1.
         13    1    4    4    0    0  0.90315596818E+00  0.11346193507E+02  0.45445665313E+01  0.12256265614E+02  0.10566000000E+00 0. -1.
        -13    1    4    4    0    0  0.16045123572E+01  0.98698925574E+01  0.31437700621E+01  0.10482542308E+02  0.10566000000E+00 0.  1.
         14    1    4    4    0    0  0.10848180258E+01  0.14668232696E+02  0.44978458896E+01  0.15380653374E+02  0.00000000000E+00 0. -1.
<mgrwt>
<rscale>  0 0.80584508E+02</rscale>
<asrwt>0</asrwt>
<pdfrwt beam="1">  1        2 0.53552427E-02 0.80584508E+02</pdfrwt>
<pdfrwt beam="2">  1       -1 0.71752535E-02 0.80584508E+02</pdfrwt>
<totfact> 0.13580754E+05</totfact>
</mgrwt>
</event>
<event>
 8    1  0.2603554E-024  0.7978954E+02  0.7818608E-02  0.1329650E+00
         -1   -1    0    0    0  501 -0.00000000000E+00  0.00000000000E+00  0.33790792994E+02  0.33790793369E+02  0.50400000000E-02 0.  1.
          2   -1    0    0  501    0  0.00000000000E+00 -0.00000000000E+00 -0.47101374951E+02  0.47101375020E+02  0.25500000000E-02 0. -1.
         24    2    1    2    0    0 -0.35527136788E-14 -0.35527136788E-14 -0.13310581958E+02  0.80892168389E+02  0.79789543893E+02 0.  0.
         66    2    3    3    0    0  0.18076905640E+02  0.11937215187E+02 -0.40593129258E+02  0.46055116632E+02  0.20000002753E+01 0.  0.
        -13    1    3    3    0    0 -0.18076905640E+02 -0.11937215187E+02  0.27282547300E+02  0.34837051758E+02  0.10566000000E+00 0.  1.
         13    1    4    4    0    0  0.60805840862E+01  0.36182842260E+01 -0.12259822075E+02  0.14155560212E+02  0.10566000000E+00 0. -1.
        -13    1    4    4    0    0  0.34502524312E+01  0.20681929052E+01 -0.67349431899E+01  0.78455265941E+01  0.10566000000E+00 0.  1.
         14    1    4    4    0    0  0.85460691228E+01  0.62507380555E+01 -0.21598363993E+02  0.24054029826E+02  0.00000000000E+00 0. -1.
<mgrwt>
<rscale>  0 0.79789544E+02</rscale>
<asrwt>0</asrwt>
<pdfrwt beam="1">  1        2 0.72463654E-02 0.79789544E+02</pdfrwt>
<pdfrwt beam="2">  1       -1 0.51985836E-02 0.79789544E+02</pdfrwt>
<totfact> 0.14858731E+05</totfact>
</mgrwt>
</event>
<event>
 8    1  0.2603554E-024  0.8450417E+02  0.7818608E-02  0.1316734E+00
          2   -1    0    0  501    0  0.00000000000E+00  0.00000000000E+00  0.23161404715E+02  0.23161404855E+02  0.25500000000E-02 0. -1.
         -1   -1    0    0    0  501 -0.00000000000E+00 -0.00000000000E+00 -0.77078167336E+02  0.77078167501E+02  0.50400000000E-02 0.  1.
         24    2    1    2    0    0  0.00000000000E+00  0.00000000000E+00 -0.53916762621E+02  0.10023957236E+03  0.84504168977E+02 0.  0.
         66    2    3    3    0    0  0.29949720101E+02 -0.15955388046E+02  0.28396775595E+01  0.34111932085E+02  0.20000000241E+01 0.  0.
        -13    1    3    3    0    0 -0.29949720101E+02  0.15955388046E+02 -0.56756440180E+02  0.66127640271E+02  0.10566000000E+00 0.  1.
         13    1    4    4    0    0  0.17169740197E+02 -0.98347120809E+01  0.11283691332E+01  0.19819332004E+02  0.10566000000E+00 0. -1.
        -13    1    4    4    0    0  0.47365673335E+01 -0.18979532251E+01  0.71619788239E+00  0.51537753145E+01  0.10566000000E+00 0.  1.
         14    1    4    4    0    0  0.80434125708E+01 -0.42227227397E+01  0.99511054384E+00  0.91388247666E+01  0.00000000000E+00 0. -1.
<mgrwt>
<rscale>  0 0.84504169E+02</rscale>
<asrwt>0</asrwt>
<pdfrwt beam="1">  1        2 0.35632931E-02 0.84504169E+02</pdfrwt>
<pdfrwt beam="2">  1       -1 0.11858180E-01 0.84504169E+02</pdfrwt>
<totfact> 0.10931857E+05</totfact>
</mgrwt>
</event>
<event>
 8    1  0.2603554E-024  0.8096428E+02  0.7818608E-02  0.1326337E+00
         -1   -1    0    0    0  501 -0.00000000000E+00  0.00000000000E+00  0.93307913585E+02  0.93307913721E+02  0.50400000000E-02 0.  1.
          2   -1    0    0  501    0  0.00000000000E+00 -0.00000000000E+00 -0.17563394174E+02  0.17563394359E+02  0.25500000000E-02 0. -1.
         24    2    1    2    0    0 -0.35527136788E-14 -0.35527136788E-14  0.75744519411E+02  0.11087130808E+03  0.80964280610E+02 0.  0.
         66    2    3    3    0    0  0.23887388006E+02  0.25900800529E+02  0.10667598980E+02  0.36868095241E+02  0.20000012317E+01 0.  0.
        -13    1    3    3    0    0 -0.23887388006E+02 -0.25900800529E+02  0.65076920431E+02  0.74003212840E+02  0.10566000000E+00 0.  1.
         13    1    4    4    0    0  0.58489838874E+01  0.69170014525E+01  0.23510989983E+01  0.93591854424E+01  0.10566000000E+00 0. -1.
        -13    1    4    4    0    0  0.14795273873E+02  0.16138494161E+02  0.66237580105E+01  0.22874362439E+02  0.10566000000E+00 0.  1.
        -14    1    4    4    0    0  0.32431302453E+01  0.28453049150E+01  0.16927419711E+01  0.46345473595E+01  0.00000000000E+00 0.  1.
<mgrwt>
<rscale>  0 0.80964281E+02</rscale>
<asrwt>0</asrwt>
<pdfrwt beam="1">  1        2 0.27020606E-02 0.80964281E+02</pdfrwt>
<pdfrwt beam="2">  1       -1 0.14355064E-01 0.80964281E+02</pdfrwt>
<totfact> 0.11675548E+05</totfact>
</mgrwt>
</event>
<event>
 8    1  0.2603554E-024  0.8029369E+02  0.7818608E-02  0.1328220E+00
          2   -1    0    0  501    0  0.00000000000E+00  0.00000000000E+00  0.84482040526E+01  0.84482044374E+01  0.25500000000E-02 0. -1.
         -1   -1    0    0    0  501 -0.00000000000E+00 -0.00000000000E+00 -0.19078244146E+03  0.19078244153E+03  0.50400000000E-02 0.  1.
         24    2    1    2    0    0  0.35527136788E-14  0.00000000000E+00 -0.18233423741E+03  0.19923064596E+03  0.80293686927E+02 0.  0.
         66    2    3    3    0    0  0.26778234533E+02 -0.54507859914E+01 -0.18332358235E+02  0.32967563926E+02  0.20000000287E+01 0.  0.
        -13    1    3    3    0    0 -0.26778234533E+02  0.54507859914E+01 -0.16400187917E+03  0.16626308204E+03  0.10566000000E+00 0.  1.
         13    1    4    4    0    0  0.10488260228E+02 -0.22714926412E+01 -0.71779944488E+01  0.12911159893E+02  0.10566000000E+00 0. -1.
        -13    1    4    4    0    0  0.10814639061E+02 -0.17793542241E+01 -0.81295383743E+01  0.13646357671E+02  0.10566000000E+00 0.  1.
         14    1    4    4    0    0  0.54753352440E+01 -0.13999391262E+01 -0.30248254122E+01  0.64100463622E+01  0.00000000000E+00 0. -1.
<mgrwt>
<rscale>  0 0.80293687E+02</rscale>
<asrwt>0</asrwt>
<pdfrwt beam="1">  1        2 0.12997239E-02 0.80293687E+02</pdfrwt>
<pdfrwt beam="2">  1       -1 0.29351142E-01 0.80293687E+02</pdfrwt>
<totfact> 0.10007775E+05</totfact>
</mgrwt>
</event>
<event>
 8    1  0.2603554E-024  0.7543541E+02  0.7818608E-02  0.1342528E+00
         -1   -1    0    0    0  501 -0.00000000000E+00  0.00000000000E+00  0.98653075856E+01  0.98653088730E+01  0.50400000000E-02 0.  1.
          2   -1    0    0  501    0  0.00000000000E+00 -0.00000000000E+00 -0.14420486532E+03  0.14420486535E+03  0.25500000000E-02 0. -1.
         24    2    1    2    0    0  0.17763568394E-14 -0.35527136788E-14 -0.13433955774E+03  0.15407017422E+03  0.75435414831E+02 0.  0.
         66    2    3    3    0    0 -0.14799753887E+02  0.16847866906E+02 -0.12909004671E+03  0.13103863358E+03  0.19999986772E+01 0.  0.
        -13    1    3    3    0    0  0.14799753887E+02 -0.16847866906E+02 -0.52495110259E+01  0.23031540644E+02  0.10566000000E+00 0.  1.
         13    1    4    4    0    0 -0.20403146203E+01  0.16659529851E+01 -0.15289630640E+02  0.15515226464E+02  0.10566000000E+00 0. -1.
        -13    1    4    4    0    0 -0.23804736414E+01  0.32651903722E+01 -0.25957122138E+02  0.26269972909E+02  0.10566000000E+00 0.  1.
        -14    1    4    4    0    0 -0.10378965625E+02  0.11916723549E+02 -0.87843293935E+02  0.89253434203E+02  0.00000000000E+00 0.  1.
<mgrwt>
<rscale>  0 0.75435415E+02</rscale>
<asrwt>0</asrwt>
<pdfrwt beam="1">  1        2 0.22185362E-01 0.75435415E+02</pdfrwt>
<pdfrwt beam="2">  1       -1 0.15177398E-02 0.75435415E+02</pdfrwt>
<totfact> 0.23106888E+05</totfact>
</mgrwt>
</event>
<event>
 8    1  0.2603554E-024  0.8075215E+02  0.7818608E-02  0.1326930E+00
          2   -1    0    0  501    0  0.00000000000E+00  0.00000000000E+00  0.58012785426E+02  0.58012785482E+02  0.25500000000E-02 0. -1.
         -1   -1    0    0    0  501 -0.00000000000E+00 -0.00000000000E+00 -0.28101176903E+02  0.28101177355E+02  0.50400000000E-02 0.  1.
         24    2    1    2    0    0 -0.17763568394E-14 -0.88817841970E-15  0.29911608523E+02  0.86113962838E+02  0.80752153353E+02 0.  0.
         66    2    3    3    0    0 -0.11027998650E+02 -0.71639128972E+01  0.55646116569E+02  0.57213885491E+02  0.20000004078E+01 0.  0.
        -13    1    3    3    0    0  0.11027998650E+02  0.71639128972E+01 -0.25734508046E+02  0.28900077346E+02  0.10566000000E+00 0.  1.
         13    1    4    4    0    0 -0.89337183168E+00 -0.12001526838E+01  0.65178804339E+01  0.66882291438E+01  0.10566000000E+00 0.  1.
        -13    1    4    4    0    0 -0.78139373288E+01 -0.45633876542E+01  0.35942806494E+02  0.37064519775E+02  0.10566000000E+00 0.  1.
         14    1    4    4    0    0 -0.23206894894E+01 -0.14003725592E+01  0.13185429641E+02  0.13461136572E+02  0.00000000000E+00 0. -1.
<mgrwt>
<rscale>  0 0.80752153E+02</rscale>
<asrwt>0</asrwt>
<pdfrwt beam="1">  1        2 0.89250439E-02 0.80752153E+02</pdfrwt>
<pdfrwt beam="2">  1       -1 0.43232580E-02 0.80752153E+02</pdfrwt>
<totfact> 0.15057208E+05</totfact>
</mgrwt>
</event>
<event>
 8    1  0.2603554E-024  0.8809338E+02  0.7818608E-02  0.1307536E+00
         -1   -1    0    0    0  501 -0.00000000000E+00  0.00000000000E+00  0.13151856101E+02  0.13151857067E+02  0.50400000000E-02 0.  1.
          2   -1    0    0  501    0  0.00000000000E+00 -0.00000000000E+00 -0.14751611309E+03  0.14751611311E+03  0.25500000000E-02 0. -1.
         24    2    1    2    0    0  0.00000000000E+00 -0.88817841970E-15 -0.13436425699E+03  0.16066797018E+03  0.88093377079E+02 0.  0.
         66    2    3    3    0    0 -0.38511452772E+02  0.76763947013E+01 -0.10351269878E+03  0.11072911919E+03  0.19999992549E+01 0.  0.
        -13    1    3    3    0    0  0.38511452772E+02 -0.76763947013E+01 -0.30851558203E+02  0.49938850986E+02  0.10566000000E+00 0.  1.
         13    1    4    4    0    0 -0.27349291667E+02  0.52667441964E+01 -0.72467849973E+02  0.77635834464E+02  0.10566000000E+00 0. -1.
        -13    1    4    4    0    0 -0.50381476935E+01  0.75662187281E+00 -0.14884924282E+02  0.15733008096E+02  0.10566000000E+00 0.  1.
         14    1    4    4    0    0 -0.61240134118E+01  0.16530286321E+01 -0.16159924530E+02  0.17360276632E+02  0.00000000000E+00 0. -1.
<mgrwt>
<rscale>  0 0.88093377E+02</rscale>
<asrwt>0</asrwt>
<pdfrwt beam="1">  1        2 0.22694786E-01 0.88093377E+02</pdfrwt>
<pdfrwt beam="2">  1       -1 0.20233627E-02 0.88093377E+02</pdfrwt>
<totfact> 0.15405215E+05</totfact>
</mgrwt>
</event>
<event>
 8    1  0.2603554E-024  0.7953743E+02  0.7818608E-02  0.1330369E+00
          2   -1    0    0  501    0  0.00000000000E+00  0.00000000000E+00  0.29718326888E+03  0.29718326889E+03  0.25500000000E-02 0. -1.
         -1   -1    0    0    0  501 -0.00000000000E+00 -0.00000000000E+00 -0.53218015954E+01  0.53218039820E+01  0.50400000000E-02 0.  1.
         24    2    1    2    0    0  0.17763568394E-14  0.00000000000E+00  0.29186146729E+03  0.30250507288E+03  0.79537431618E+02 0.  0.
         66    2    3    3    0    0 -0.15110618962E+02 -0.27512797061E+02  0.23873768417E+03  0.24080067835E+03  0.20000104160E+01 0.  0.
        -13    1    3    3    0    0  0.15110618962E+02  0.27512797061E+02  0.53123783118E+02  0.61704394530E+02  0.10566000000E+00 0.  1.
         13    1    4    4    0    0 -0.18878966671E+01 -0.27554157320E+01  0.28118237391E+02  0.28316124518E+02  0.10566000000E+00 0. -1.
        -13    1    4    4    0    0 -0.37568102121E+01 -0.66091169400E+01  0.60674240672E+02  0.61148742381E+02  0.10566000000E+00 0.  1.
        -14    1    4    4    0    0 -0.94659120827E+01 -0.18148264389E+02  0.14994520611E+03  0.15133581145E+03  0.00000000000E+00 0.  1.
<mgrwt>
<rscale>  0 0.79537432E+02</rscale>
<asrwt>0</asrwt>
<pdfrwt beam="1">  1        2 0.45720498E-01 0.79537432E+02</pdfrwt>
<pdfrwt beam="2">  1       -1 0.81873898E-03 0.79537432E+02</pdfrwt>
<totfact> 0.25796723E+05</totfact>
</mgrwt>
</event>
<event>
 8    1  0.2603554E-024  0.8239657E+02  0.7818608E-02  0.1322385E+00
         -1   -1    0    0    0  501 -0.00000000000E+00  0.00000000000E+00  0.74876853465E+01  0.74876870427E+01  0.50400000000E-02 0.  1.
          2   -1    0    0  501    0  0.00000000000E+00 -0.00000000000E+00 -0.22667868560E+03  0.22667868561E+03  0.25500000000E-02 0. -1.
         24    2    1    2    0    0  0.00000000000E+00 -0.22204460493E-15 -0.21919100025E+03  0.23416637266E+03  0.82396574511E+02 0.  0.
         66    2    3    3    0    0 -0.25858180272E+02  0.15787788330E+01 -0.20060898838E+03  0.20228471086E+03  0.19999999188E+01 0.  0.
        -13    1    3    3    0    0  0.25858180272E+02 -0.15787788330E+01 -0.18582011874E+02  0.31881661796E+02  0.10566000000E+00 0.  1.
         13    1    4    4    0    0 -0.15122390217E+02  0.21790053590E+00 -0.12204567564E+03  0.12297923512E+03  0.10566000000E+00 0. -1.
        -13    1    4    4    0    0 -0.57296894135E+01  0.80382846370E+00 -0.41627347451E+02  0.42027642104E+02  0.10566000000E+00 0. -1.
         14    1    4    4    0    0 -0.50061006421E+01  0.55704983337E+00 -0.36935965291E+02  0.37277833630E+02  0.00000000000E+00 0. -1.
<mgrwt>
<rscale>  0 0.82396575E+02</rscale>
<asrwt>0</asrwt>
<pdfrwt beam="1">  1        2 0.34873639E-01 0.82396575E+02</pdfrwt>
<pdfrwt beam="2">  1       -1 0.11519519E-02 0.82396575E+02</pdfrwt>
<totfact> 0.21323591E+05</totfact>
</mgrwt>
</event>
<event>
 8    1  0.2603554E-024  0.8024492E+02  0.7818608E-02  0.1328358E+00
         -1   -1    0    0    0  501 -0.00000000000E+00  0.00000000000E+00  0.50566228800E+01  0.50566253917E+01  0.50400000000E-02 0.  1.
          2   -1    0    0  501    0  0.00000000000E+00 -0.00000000000E+00 -0.31835701756E+03  0.31835701757E+03  0.25500000000E-02 0. -1.
         24    2    1    2    0    0  0.00000000000E+00 -0.71054273576E-14 -0.31330039468E+03  0.32341364297E+03  0.80244919761E+02 0.  0.
         66    2    3    3    0    0 -0.16334568148E+01  0.39927647661E+02 -0.17006661002E+03  0.17470986540E+03  0.19999989405E+01 0.  0.
        -13    1    3    3    0    0  0.16334568148E+01 -0.39927647661E+02 -0.14323378466E+03  0.14870377756E+03  0.10566000000E+00 0.  1.
         13    1    4    4    0    0 -0.17650960213E+01  0.23335617730E+02 -0.99446247815E+02  0.10216278181E+03  0.10566000000E+00 0. -1.
        -13    1    4    4    0    0 -0.64050793648E-01  0.60258051294E+00 -0.28778676618E+01  0.29428714028E+01  0.10566000000E+00 0.  1.
        -14    1    4    4    0    0  0.19569000014E+00  0.15989449419E+02 -0.67742494545E+02  0.69604212189E+02  0.00000000000E+00 0.  1.
<mgrwt>
<rscale>  0 0.80244920E+02</rscale>
<asrwt>0</asrwt>
<pdfrwt beam="1">  1        2 0.48977987E-01 0.80244920E+02</pdfrwt>
<pdfrwt beam="2">  1       -1 0.77794243E-03 0.80244920E+02</pdfrwt>
<totfact> 0.25840031E+05</totfact>
</mgrwt>
</event>
<event>
 8    1  0.2603554E-024  0.7967597E+02  0.7818608E-02  0.1329974E+00
         -1   -1    0    0    0  501 -0.00000000000E+00  0.00000000000E+00  0.63499932302E+02  0.63499932502E+02  0.50400000000E-02 0.  1.
          2   -1    0    0  501    0  0.00000000000E+00 -0.00000000000E+00 -0.24993175474E+02  0.24993175604E+02  0.25500000000E-02 0. -1.
         24    2    1    2    0    0  0.17763568394E-14  0.00000000000E+00  0.38506756828E+02  0.88493108105E+02  0.79675967900E+02 0.  0.
         66    2    3    3    0    0 -0.83491822142E+01  0.24828628298E+02 -0.14033851876E+02  0.29784536722E+02  0.20000006036E+01 0.  0.
        -13    1    3    3    0    0  0.83491822142E+01 -0.24828628298E+02  0.52540608705E+02  0.58708571384E+02  0.10566000000E+00 0.  1.
         13    1    4    4    0    0 -0.72511012050E+00  0.13511450608E+01 -0.72108972693E+00  0.16977962458E+01  0.10566000000E+00 0. -1.
        -13    1    4    4    0    0 -0.14748666496E+01  0.64833809629E+01 -0.32473706005E+01  0.74004081102E+01  0.10566000000E+00 0.  1.
        -14    1    4    4    0    0 -0.61492054441E+01  0.16994102275E+02 -0.10065391549E+02  0.20686332366E+02  0.00000000000E+00 0.  1.
<mgrwt>
<rscale>  0 0.79675968E+02</rscale>
<asrwt>0</asrwt>
<pdfrwt beam="1">  1        2 0.38451040E-02 0.79675968E+02</pdfrwt>
<pdfrwt beam="2">  1       -1 0.97692202E-02 0.79675968E+02</pdfrwt>
<totfact> 0.13129661E+05</totfact>
</mgrwt>
</event>
<event>
 8    1  0.2603554E-024  0.8882667E+02  0.7818608E-02  0.1305718E+00
          2   -1    0    0  501    0  0.00000000000E+00  0.00000000000E+00  0.50246224513E+03  0.50246224514E+03  0.25500000000E-02 0. -1.
         -1   -1    0    0    0  501 -0.00000000000E+00 -0.00000000000E+00 -0.39257549065E+01  0.39257581417E+01  0.50400000000E-02 0.  1.
         24    2    1    2    0    0  0.00000000000E+00  0.00000000000E+00  0.49853649023E+03  0.50638800328E+03  0.88826672682E+02 0.  0.
         66    2    3    3    0    0 -0.17544661057E+02 -0.12107671004E+02  0.47137128566E+03  0.47185728751E+03  0.19999997112E+01 0.  0.
        -13    1    3    3    0    0  0.17544661057E+02  0.12107671004E+02  0.27165204564E+02  0.34530715773E+02  0.10566000000E+00 0.  1.
         13    1    4    4    0    0 -0.72285242075E+01 -0.46080047840E+01  0.17756450853E+03  0.17777134506E+03  0.10566000000E+00 0.  1.
        -13    1    4    4    0    0 -0.97463540959E+01 -0.71895066068E+01  0.28365701517E+03  0.28391546953E+03  0.10566000000E+00 0. -1.
         14    1    4    4    0    0 -0.56978275409E+00 -0.31015961285E+00  0.10149761967E+02  0.10170472917E+02  0.00000000000E+00 0. -1.
<mgrwt>
<rscale>  0 0.88826673E+02</rscale>
<asrwt>0</asrwt>
<pdfrwt beam="1">  1        2 0.77301840E-01 0.88826673E+02</pdfrwt>
<pdfrwt beam="2">  1       -1 0.60396289E-03 0.88826673E+02</pdfrwt>
<totfact> 0.23185925E+05</totfact>
</mgrwt>
</event>
<event>
 8    1  0.2603554E-024  0.8449444E+02  0.7818608E-02  0.1316760E+00
         -1   -1    0    0    0  501 -0.00000000000E+00  0.00000000000E+00  0.22658542491E+02  0.22658543051E+02  0.50400000000E-02 0.  1.
          2   -1    0    0  501    0  0.00000000000E+00 -0.00000000000E+00 -0.78770617818E+02  0.78770617859E+02  0.25500000000E-02 0. -1.
         24    2    1    2    0    0  0.71054273576E-14 -0.35527136788E-14 -0.56112075327E+02  0.10142916091E+03  0.84494435826E+02 0.  0.
         66    2    3    3    0    0 -0.33919029941E+02  0.20869467495E+02 -0.11232061849E+02  0.41426977288E+02  0.19999920428E+01 0.  0.
        -13    1    3    3    0    0  0.33919029941E+02 -0.20869467495E+02 -0.44880013477E+02  0.60002183622E+02  0.10566000000E+00 0.  1.
         13    1    4    4    0    0 -0.91367812550E+01  0.55546516782E+01 -0.31502465801E+01  0.11147651973E+02  0.10566000000E+00 0. -1.
        -13    1    4    4    0    0 -0.68694805982E+00  0.34354055797E+00 -0.47603364879E+00  0.90977459969E+00  0.10566000000E+00 0.  1.
         14    1    4    4    0    0 -0.24095300627E+02  0.14971275258E+02 -0.76057816202E+01  0.29369550715E+02  0.00000000000E+00 0. -1.
<mgrwt>
<rscale>  0 0.84494436E+02</rscale>
<asrwt>0</asrwt>
<pdfrwt beam="1">  1        2 0.12118556E-01 0.84494436E+02</pdfrwt>
<pdfrwt beam="2">  1       -1 0.34859297E-02 0.84494436E+02</pdfrwt>
<totfact> 0.14342818E+05</totfact>
</mgrwt>
</event>
<event>
 8    1  0.2603554E-024  0.7785626E+02  0.7818608E-02  0.1335248E+00
         -1   -1    0    0    0  501 -0.00000000000E+00  0.00000000000E+00  0.18781822558E+03  0.18781822565E+03  0.50400000000E-02 0.  1.
          2   -1    0    0  501    0  0.00000000000E+00 -0.00000000000E+00 -0.80684349097E+01  0.80684353127E+01  0.25500000000E-02 0. -1.
         24    2    1    2    0    0  0.00000000000E+00  0.00000000000E+00  0.17974979067E+03  0.19588666096E+03  0.77856256628E+02 0.  0.
         66    2    3    3    0    0 -0.13801326400E+01 -0.37654221118E+02  0.65586043647E+02  0.75665542048E+02  0.19999995109E+01 0.  0.
        -13    1    3    3    0    0  0.13801326400E+01  0.37654221118E+02  0.11416374702E+03  0.12022111891E+03  0.10566000000E+00 0.  1.
         13    1    4    4    0    0 -0.12978539550E+01 -0.27303456650E+02  0.46748626443E+02  0.54153563209E+02  0.10566000000E+00 0. -1.
        -13    1    4    4    0    0  0.41483246696E-01 -0.18842309015E+01  0.28069817589E+01  0.33826554038E+01  0.10566000000E+00 0.  1.
        -14    1    4    4    0    0 -0.12376193165E+00 -0.84665335668E+01  0.16030435446E+02  0.18129323435E+02  0.00000000000E+00 0.  1.
<mgrwt>
<rscale>  0 0.77856257E+02</rscale>
<asrwt>0</asrwt>
<pdfrwt beam="1">  1        2 0.12412977E-02 0.77856257E+02</pdfrwt>
<pdfrwt beam="2">  1       -1 0.28895113E-01 0.77856257E+02</pdfrwt>
<totfact> 0.10872802E+05</totfact>
</mgrwt>
</event>
<event>
 8    1  0.2603554E-024  0.7111768E+02  0.7818608E-02  0.1356333E+00
         -1   -1    0    0    0  501 -0.00000000000E+00  0.00000000000E+00  0.53830629784E+01  0.53830653378E+01  0.50400000000E-02 0.  1.
          2   -1    0    0  501    0  0.00000000000E+00 -0.00000000000E+00 -0.23489059896E+03  0.23489059897E+03  0.25500000000E-02 0. -1.
         24    2    1    2    0    0  0.35527136788E-14  0.00000000000E+00 -0.22950753598E+03  0.24027366431E+03  0.71117681975E+02 0.  0.
         66    2    3    3    0    0  0.24470506771E+02 -0.21763229941E+02 -0.16141203271E+03  0.16471274446E+03  0.20000011440E+01 0.  0.
        -13    1    3    3    0    0 -0.24470506771E+02  0.21763229941E+02 -0.68095503269E+02  0.75560919850E+02  0.10566000000E+00 0.  1.
         13    1    4    4    0    0  0.10109862353E+02 -0.95034206988E+01 -0.72272635888E+02  0.73592590551E+02  0.10566000000E+00 0. -1.
        -13    1    4    4    0    0  0.10305990922E+02 -0.84284980525E+01 -0.63584937703E+02  0.64963901477E+02  0.10566000000E+00 0. -1.
        -14    1    4    4    0    0  0.40546534964E+01 -0.38313111896E+01 -0.25554459122E+02  0.26156252435E+02  0.00000000000E+00 0.  1.
<mgrwt>
<rscale>  0 0.71117682E+02</rscale>
<asrwt>0</asrwt>
<pdfrwt beam="1">  1        2 0.36137007E-01 0.71117682E+02</pdfrwt>
<pdfrwt beam="2">  1       -1 0.82816391E-03 0.71117682E+02</pdfrwt>
<totfact> 0.31750324E+05</totfact>
</mgrwt>
</event>
<event>
 8    1  0.2603554E-024  0.7975887E+02  0.7818608E-02  0.1329737E+00
          2   -1    0    0  501    0  0.00000000000E+00  0.00000000000E+00  0.20354157816E+03  0.20354157818E+03  0.25500000000E-02 0. -1.
         -1   -1    0    0    0  501 -0.00000000000E+00 -0.00000000000E+00 -0.78134860248E+01  0.78134876503E+01  0.50400000000E-02 0.  1.
         24    2    1    2    0    0 -0.17763568394E-14  0.00000000000E+00  0.19572809214E+03  0.21135506583E+03  0.79758872858E+02 0.  0.
         66    2    3    3    0    0 -0.13821095030E+02 -0.26823395662E+01  0.19672701444E+03  0.19724029969E+03  0.19999996709E+01 0.  0.
        -13    1    3    3    0    0  0.13821095030E+02  0.26823395662E+01 -0.99892229996E+00  0.14114766139E+02  0.10566000000E+00 0.  1.
         13    1    4    4    0    0 -0.10454769424E+02 -0.15844876440E+01  0.14376094974E+03  0.14414934838E+03  0.10566000000E+00 0. -1.
        -13    1    4    4    0    0 -0.20743372187E+01 -0.51683300715E+00  0.26125875017E+02  0.26213403074E+02  0.10566000000E+00 0.  1.
        -14    1    4    4    0    0 -0.12919883866E+01 -0.58101891503E+00  0.26840189678E+02  0.26877548231E+02  0.00000000000E+00 0.  1.
<mgrwt>
<rscale>  0 0.79758873E+02</rscale>
<asrwt>0</asrwt>
<pdfrwt beam="1">  1        2 0.31314087E-01 0.79758873E+02</pdfrwt>
<pdfrwt beam="2">  1       -1 0.12020750E-02 0.79758873E+02</pdfrwt>
<totfact> 0.22371053E+05</totfact>
</mgrwt>
</event>
<event>
 8    1  0.2603554E-024  0.8073888E+02  0.7818608E-02  0.1326968E+00
         -1   -1    0    0    0  501 -0.00000000000E+00  0.00000000000E+00  0.15195788118E+02  0.15195788953E+02  0.50400000000E-02 0.  1.
          2   -1    0    0  501    0  0.00000000000E+00 -0.00000000000E+00 -0.10724626330E+03  0.10724626333E+03  0.25500000000E-02 0. -1.
         24    2    1    2    0    0  0.00000000000E+00  0.00000000000E+00 -0.92050475186E+02  0.12244205229E+03  0.80738876549E+02 0.  0.
         66    2    3    3    0    0  0.19352701163E+02 -0.13711476377E+02 -0.95547598606E+02  0.98467635444E+02  0.20000009638E+01 0.  0.
        -13    1    3    3    0    0 -0.19352701163E+02  0.13711476377E+02  0.34971234200E+01  0.23974416843E+02  0.10566000000E+00 0.  1.
         13    1    4    4    0    0  0.43730080800E+01 -0.25883918653E+01 -0.20398407060E+02  0.21022110901E+02  0.10566000000E+00 0. -1.
        -13    1    4    4    0    0  0.13530214183E+02 -0.10465446407E+02 -0.69725727776E+02  0.71793318228E+02  0.10566000000E+00 0.  1.
        -14    1    4    4    0    0  0.14494788997E+01 -0.65763810444E+00 -0.54234637708E+01  0.56522063152E+01  0.00000000000E+00 0.  1.
<mgrwt>
<rscale>  0 0.80738877E+02</rscale>
<asrwt>0</asrwt>
<pdfrwt beam="1">  1        2 0.16499425E-01 0.80738877E+02</pdfrwt>
<pdfrwt beam="2">  1       -1 0.23378137E-02 0.80738877E+02</pdfrwt>
<totfact> 0.17641675E+05</totfact>
</mgrwt>
</event>
<event>
 8    1  0.2603554E-024  0.8045850E+02  0.7818608E-02  0.1327755E+00
         -1   -1    0    0    0  501 -0.00000000000E+00  0.00000000000E+00  0.12453776148E+02  0.12453777168E+02  0.50400000000E-02 0.  1.
          2   -1    0    0  501    0  0.00000000000E+00 -0.00000000000E+00 -0.12995193697E+03  0.12995193700E+03  0.25500000000E-02 0. -1.
         24    2    1    2    0    0  0.00000000000E+00 -0.11102230246E-15 -0.11749816082E+03  0.14240571417E+03  0.80458496320E+02 0.  0.
         66    2    3    3    0    0 -0.24055889210E+02  0.71231311814E+00 -0.11578668398E+03  0.11827827102E+03  0.20000035598E+01 0.  0.
        -13    1    3    3    0    0  0.24055889210E+02 -0.71231311814E+00 -0.17114768495E+01  0.24127443145E+02  0.10566000000E+00 0.  1.
         13    1    4    4    0    0 -0.35199002046E+01 -0.24780882950E+00 -0.16587857069E+02  0.16959341757E+02  0.10566000000E+00 0.  1.
        -13    1    4    4    0    0 -0.71346995547E+01  0.10701845213E+01 -0.35274063989E+02  0.36004443990E+02  0.10566000000E+00 0.  1.
         14    1    4    4    0    0 -0.13401289451E+02 -0.11006257370E+00 -0.63924762917E+02  0.65314485275E+02  0.00000000000E+00 0. -1.
<mgrwt>
<rscale>  0 0.80458496E+02</rscale>
<asrwt>0</asrwt>
<pdfrwt beam="1">  1        2 0.19992605E-01 0.80458496E+02</pdfrwt>
<pdfrwt beam="2">  1       -1 0.19159657E-02 0.80458496E+02</pdfrwt>
<totfact> 0.18855265E+05</totfact>
</mgrwt>
</event>
<event>
 8    1  0.2603554E-024  0.7902133E+02  0.7818608E-02  0.1331852E+00
          2   -1    0    0  501    0  0.00000000000E+00  0.00000000000E+00  0.71086869494E+02  0.71086869540E+02  0.25500000000E-02 0. -1.
         -1   -1    0    0    0  501 -0.00000000000E+00 -0.00000000000E+00 -0.21960353468E+02  0.21960354046E+02  0.50400000000E-02 0.  1.
         24    2    1    2    0    0  0.00000000000E+00  0.00000000000E+00  0.49126516026E+02  0.93047223587E+02  0.79021334083E+02 0.  0.
         66    2    3    3    0    0 -0.10324372585E+02  0.65043025773E+01  0.68796812836E+02  0.69899213695E+02  0.19999993823E+01 0.  0.
        -13    1    3    3    0    0  0.10324372585E+02 -0.65043025773E+01 -0.19670296810E+02  0.23148009891E+02  0.10566000000E+00 0.  1.
         13    1    4    4    0    0 -0.20448414447E+01  0.18333066663E+01  0.15274878089E+02  0.15520162839E+02  0.10566000000E+00 0. -1.
        -13    1    4    4    0    0 -0.49454057914E+01  0.30796679664E+01  0.28908095698E+02  0.29489499049E+02  0.10566000000E+00 0.  1.
        -14    1    4    4    0    0 -0.33341253493E+01  0.15913279446E+01  0.24613839048E+02  0.24889551807E+02  0.00000000000E+00 0.  1.
<mgrwt>
<rscale>  0 0.79021334E+02</rscale>
<asrwt>0</asrwt>
<pdfrwt beam="1">  1        2 0.10936441E-01 0.79021334E+02</pdfrwt>
<pdfrwt beam="2">  1       -1 0.33785160E-02 0.79021334E+02</pdfrwt>
<totfact> 0.16755941E+05</totfact>
</mgrwt>
</event>
<event>
 8    1  0.2603554E-024  0.8526071E+02  0.7818608E-02  0.1314752E+00
         -1   -1    0    0    0  501 -0.00000000000E+00  0.00000000000E+00  0.10357558867E+02  0.10357560093E+02  0.50400000000E-02 0.  1.
          2   -1    0    0  501    0  0.00000000000E+00 -0.00000000000E+00 -0.17546093483E+03  0.17546093485E+03  0.25500000000E-02 0. -1.
         24    2    1    2    0    0  0.35527136788E-14  0.00000000000E+00 -0.16510337597E+03  0.18581849494E+03  0.85260707878E+02 0.  0.
         66    2    3    3    0    0 -0.27209853349E+02 -0.20395511613E+02 -0.13854428082E+03  0.14267049717E+03  0.20000000596E+01 0.  0.
        -13    1    3    3    0    0  0.27209853349E+02  0.20395511613E+02 -0.26559095145E+02  0.43147997777E+02  0.10566000000E+00 0.  1.
         13    1    4    4    0    0 -0.87207155322E+01 -0.56082831021E+01 -0.43208268174E+02  0.44435001084E+02  0.10566000000E+00 0. -1.
        -13    1    4    4    0    0 -0.55243689409E+00 -0.44731528946E+00 -0.33604859183E+01  0.34364672460E+01  0.10566000000E+00 0.  1.
        -14    1    4    4    0    0 -0.17936700923E+02 -0.14339913222E+02 -0.91975526730E+02  0.94799028838E+02  0.00000000000E+00 0.  1.
<mgrwt>
<rscale>  0 0.85260708E+02</rscale>
<asrwt>0</asrwt>
<pdfrwt beam="1">  1        2 0.26993988E-01 0.85260708E+02</pdfrwt>
<pdfrwt beam="2">  1       -1 0.15934708E-02 0.85260708E+02</pdfrwt>
<totfact> 0.17811251E+05</totfact>
</mgrwt>
</event>
<event>
 8    1  0.2603554E-024  0.7912635E+02  0.7818608E-02  0.1331549E+00
         -1   -1    0    0    0  501 -0.00000000000E+00  0.00000000000E+00  0.22589306326E+01  0.22589362550E+01  0.50400000000E-02 0.  1.
          2   -1    0    0  501    0  0.00000000000E+00 -0.00000000000E+00 -0.69291315545E+03  0.69291315545E+03  0.25500000000E-02 0. -1.
         24    2    1    2    0    0 -0.17763568394E-14  0.35527136788E-14 -0.69065422481E+03  0.69517209171E+03  0.79126347280E+02 0.  0.
         66    2    3    3    0    0  0.13905413019E+02 -0.24595463773E+02 -0.58853554081E+03  0.58921675141E+03  0.20000006214E+01 0.  0.
        -13    1    3    3    0    0 -0.13905413019E+02  0.24595463773E+02 -0.10211868401E+03  0.10595534029E+03  0.10566000000E+00 0.  1.
         13    1    4    4    0    0  0.45632943048E+01 -0.81967211643E+01 -0.19273353511E+03  0.19296174909E+03  0.10566000000E+00 0. -1.
        -13    1    4    4    0    0  0.66062563517E+00 -0.94388818455E+00 -0.32883764434E+02  0.32904110359E+02  0.10566000000E+00 0.  1.
        -14    1    4    4    0    0  0.86814930789E+01 -0.15454854424E+02 -0.36291824127E+03  0.36335089196E+03  0.00000000000E+00 0.  1.
<mgrwt>
<rscale>  0 0.79126347E+02</rscale>
<asrwt>0</asrwt>
<pdfrwt beam="1">  1        2 0.10660185E+00 0.79126347E+02</pdfrwt>
<pdfrwt beam="2">  1       -1 0.34752878E-03 0.79126347E+02</pdfrwt>
<totfact> 0.34339126E+05</totfact>
</mgrwt>
</event>
<event>
 8    1  0.2603554E-024  0.7419507E+02  0.7818608E-02  0.1346382E+00
         -1   -1    0    0    0  501 -0.00000000000E+00  0.00000000000E+00  0.21759874810E+01  0.21759933178E+01  0.50400000000E-02 0.  1.
          2   -1    0    0  501    0  0.00000000000E+00 -0.00000000000E+00 -0.63246010570E+03  0.63246010571E+03  0.25500000000E-02 0. -1.
         24    2    1    2    0    0  0.00000000000E+00  0.00000000000E+00 -0.63028411822E+03  0.63463609903E+03  0.74195070618E+02 0.  0.
         66    2    3    3    0    0 -0.15558944238E+02 -0.30543259660E+02 -0.43611001919E+03  0.43745962133E+03  0.20000006686E+01 0.  0.
        -13    1    3    3    0    0  0.15558944238E+02  0.30543259660E+02 -0.19417409904E+03  0.19717647770E+03  0.10566000000E+00 0.  1.
         13    1    4    4    0    0 -0.31179676864E+01 -0.63704560965E+01 -0.93049045105E+02  0.93319024815E+02  0.10566000000E+00 0. -1.
        -13    1    4    4    0    0 -0.88252262828E+01 -0.18609313818E+02 -0.26272523857E+03  0.26353131375E+03  0.10566000000E+00 0.  1.
        -14    1    4    4    0    0 -0.36157502686E+01 -0.55634897451E+01 -0.80335735509E+02  0.80609282765E+02  0.00000000000E+00 0.  1.
<mgrwt>
<rscale>  0 0.74195071E+02</rscale>
<asrwt>0</asrwt>
<pdfrwt beam="1">  1        2 0.97301408E-01 0.74195071E+02</pdfrwt>
<pdfrwt beam="2">  1       -1 0.33476826E-03 0.74195071E+02</pdfrwt>
<totfact> 0.39657578E+05</totfact>
</mgrwt>
</event>
<event>
 8    1  0.2603554E-024  0.7619949E+02  0.7818608E-02  0.1340196E+00
         -1   -1    0    0    0  501 -0.00000000000E+00  0.00000000000E+00  0.34123293005E+01  0.34123330225E+01  0.50400000000E-02 0.  1.
          2   -1    0    0  501    0  0.00000000000E+00 -0.00000000000E+00 -0.42539559324E+03  0.42539559325E+03  0.25500000000E-02 0. -1.
         24    2    1    2    0    0  0.17763568394E-14  0.71054273576E-14 -0.42198326394E+03  0.42880792627E+03  0.76199492040E+02 0.  0.
         66    2    3    3    0    0  0.80686369864E+01  0.35624363824E+02 -0.27158572804E+03  0.27403832922E+03  0.20000022467E+01 0.  0.
        -13    1    3    3    0    0 -0.80686369864E+01 -0.35624363824E+02 -0.15039753590E+03  0.15476959705E+03  0.10566000000E+00 0.  1.
         13    1    4    4    0    0  0.38812313951E+01  0.17730721838E+02 -0.13947424801E+03  0.14065034474E+03  0.10566000000E+00 0. -1.
        -13    1    4    4    0    0  0.27280512472E+01  0.92896089938E+01 -0.69755306214E+02  0.70424093944E+02  0.10566000000E+00 0.  1.
        -14    1    4    4    0    0  0.14593543441E+01  0.86040329929E+01 -0.62356173816E+02  0.62963890539E+02  0.00000000000E+00 0.  1.
<mgrwt>
<rscale>  0 0.76199492E+02</rscale>
<asrwt>0</asrwt>
<pdfrwt beam="1">  1        2 0.65445434E-01 0.76199492E+02</pdfrwt>
<pdfrwt beam="2">  1       -1 0.52497436E-03 0.76199492E+02</pdfrwt>
<totfact> 0.32762701E+05</totfact>
</mgrwt>
</event>
<event>
 8    1  0.2603554E-024  0.8077557E+02  0.7818608E-02  0.1326865E+00
         -1   -1    0    0    0  501 -0.00000000000E+00  0.00000000000E+00  0.42066889455E+02  0.42066889757E+02  0.50400000000E-02 0.  1.
          2   -1    0    0  501    0  0.00000000000E+00 -0.00000000000E+00 -0.38775701235E+02  0.38775701319E+02  0.25500000000E-02 0. -1.
         24    2    1    2    0    0 -0.35527136788E-14  0.00000000000E+00  0.32911882198E+01  0.80842591076E+02  0.80775569400E+02 0.  0.
         66    2    3    3    0    0 -0.21643973462E+02  0.28145365537E+02 -0.17566854184E+02  0.39663806667E+02  0.20000012476E+01 0.  0.
        -13    1    3    3    0    0  0.21643973462E+02 -0.28145365537E+02  0.20858042403E+02  0.41178784409E+02  0.10566000000E+00 0.  1.
         13    1    4    4    0    0 -0.47926443129E+01  0.55068480132E+01 -0.33016253178E+01  0.80129088554E+01  0.10566000000E+00 0.  1.
        -13    1    4    4    0    0 -0.55086671760E+01  0.82066536356E+01 -0.54616463761E+01  0.11293153817E+02  0.10566000000E+00 0. -1.
        -14    1    4    4    0    0 -0.11342661973E+02  0.14431863888E+02 -0.88035824897E+01  0.20357743995E+02  0.00000000000E+00 0.  1.
<mgrwt>
<rscale>  0 0.80775569E+02</rscale>
<asrwt>0</asrwt>
<pdfrwt beam="1">  1        2 0.59654925E-02 0.80775569E+02</pdfrwt>
<pdfrwt beam="2">  1       -1 0.64718292E-02 0.80775569E+02</pdfrwt>
<totfact> 0.13791107E+05</totfact>
</mgrwt>
</event>
<event>
 8    1  0.2603554E-024  0.8175011E+02  0.7818608E-02  0.1324157E+00
         -1   -1    0    0    0  501 -0.00000000000E+00  0.00000000000E+00  0.25746387269E+02  0.25746387762E+02  0.50400000000E-02 0.  1.
          2   -1    0    0  501    0  0.00000000000E+00 -0.00000000000E+00 -0.64893372868E+02  0.64893372918E+02  0.25500000000E-02 0. -1.
         24    2    1    2    0    0 -0.35527136788E-14  0.17763568394E-14 -0.39146985599E+02  0.90639760680E+02  0.81750105411E+02 0.  0.
         66    2    3    3    0    0 -0.20030026559E+02  0.76599134270E+01 -0.58135105016E+02  0.61996505266E+02  0.19999980762E+01 0.  0.
        -13    1    3    3    0    0  0.20030026559E+02 -0.76599134270E+01  0.18988119418E+02  0.28643255414E+02  0.10566000000E+00 0.  1.
         13    1    4    4    0    0 -0.59183935647E+01  0.20724024072E+01 -0.15537325557E+02  0.16755353879E+02  0.10566000000E+00 0. -1.
        -13    1    4    4    0    0 -0.11731010788E+01  0.19166038059E+00 -0.26909929370E+01  0.29437232997E+01  0.10566000000E+00 0. -1.
         14    1    4    4    0    0 -0.12938531915E+02  0.53958506392E+01 -0.39906786522E+02  0.42297428087E+02  0.00000000000E+00 0. -1.
<mgrwt>
<rscale>  0 0.81750105E+02</rscale>
<asrwt>0</asrwt>
<pdfrwt beam="1">  1        2 0.99835958E-02 0.81750105E+02</pdfrwt>
<pdfrwt beam="2">  1       -1 0.39609827E-02 0.81750105E+02</pdfrwt>
<totfact> 0.14949173E+05</totfact>
</mgrwt>
</event>
<event>
 8    1  0.2603554E-024  0.7974758E+02  0.7818608E-02  0.1329769E+00
         -1   -1    0    0    0  501 -0.00000000000E+00  0.00000000000E+00  0.88174840125E+01  0.88174854530E+01  0.50400000000E-02 0.  1.
          2   -1    0    0  501    0  0.00000000000E+00 -0.00000000000E+00 -0.18031435722E+03  0.18031435723E+03  0.25500000000E-02 0. -1.
         24    2    1    2    0    0  0.00000000000E+00  0.00000000000E+00 -0.17149687320E+03  0.18913184269E+03  0.79747579271E+02 0.  0.
         66    2    3    3    0    0  0.24409369914E+01 -0.33550500064E+02 -0.35140273584E+02  0.48687093224E+02  0.19999977641E+01 0.  0.
        -13    1    3    3    0    0 -0.24409369914E+01  0.33550500064E+02 -0.13635659962E+03  0.14044474946E+03  0.10566000000E+00 0.  1.
         13    1    4    4    0    0  0.53758986104E+00 -0.95396180175E+01 -0.98867685477E+01  0.13749642582E+02  0.10566000000E+00 0. -1.
        -13    1    4    4    0    0  0.53006889118E+00 -0.59532082147E+01 -0.52726112614E+01  0.79707750329E+01  0.10566000000E+00 0. -1.
        -14    1    4    4    0    0  0.13732782391E+01 -0.18057673832E+02 -0.19980893775E+02  0.26966675609E+02  0.00000000000E+00 0.  1.
<mgrwt>
<rscale>  0 0.79747579E+02</rscale>
<asrwt>0</asrwt>
<pdfrwt beam="1">  1        2 0.27740668E-01 0.79747579E+02</pdfrwt>
<pdfrwt beam="2">  1       -1 0.13565363E-02 0.79747579E+02</pdfrwt>
<totfact> 0.21465600E+05</totfact>
</mgrwt>
</event>
<event>
 8    1  0.2603554E-024  0.7934632E+02  0.7818608E-02  0.1330917E+00
          2   -1    0    0  501    0  0.00000000000E+00  0.00000000000E+00  0.61090695547E+03  0.61090695548E+03  0.25500000000E-02 0. -1.
         -1   -1    0    0    0  501 -0.00000000000E+00 -0.00000000000E+00 -0.25764282491E+01  0.25764331788E+01  0.50400000000E-02 0.  1.
         24    2    1    2    0    0  0.00000000000E+00  0.00000000000E+00  0.60833052722E+03  0.61348338866E+03  0.79346315640E+02 0.  0.
         66    2    3    3    0    0  0.13732342511E+02 -0.90754580375E+01  0.58323768117E+03  0.58347333607E+03  0.19999982980E+01 0.  0.
        -13    1    3    3    0    0 -0.13732342511E+02  0.90754580375E+01  0.25092846054E+02  0.30010052592E+02  0.10566000000E+00 0.  1.
         13    1    4    4    0    0  0.33874208598E+01 -0.30755287572E+01  0.15703013487E+03  0.15709681065E+03  0.10566000000E+00 0. -1.
        -13    1    4    4    0    0  0.68819441297E+00 -0.64486854150E+00  0.39175266397E+02  0.39186759605E+02  0.10566000000E+00 0.  1.
         14    1    4    4    0    0  0.96567272386E+01 -0.53550607388E+01  0.38703227991E+03  0.38718976581E+03  0.00000000000E+00 0. -1.
<mgrwt>
<rscale>  0 0.79346316E+02</rscale>
<asrwt>0</asrwt>
<pdfrwt beam="1">  1        2 0.93985515E-01 0.79346316E+02</pdfrwt>
<pdfrwt beam="2">  1       -1 0.39637468E-03 0.79346316E+02</pdfrwt>
<totfact> 0.33020844E+05</totfact>
</mgrwt>
</event>
<event>
 8    1  0.2603554E-024  0.8054878E+02  0.7818608E-02  0.1327501E+00
         -1   -1    0    0    0  501 -0.00000000000E+00  0.00000000000E+00  0.21785417076E+01  0.21785475375E+01  0.50400000000E-02 0.  1.
          2   -1    0    0  501    0  0.00000000000E+00 -0.00000000000E+00 -0.74454599302E+03  0.74454599302E+03  0.25500000000E-02 0. -1.
         24    2    1    2    0    0  0.00000000000E+00 -0.44408920985E-15 -0.74236745131E+03  0.74672454056E+03  0.80548784654E+02 0.  0.
         66    2    3    3    0    0  0.18893635975E+02 -0.20675407020E+01 -0.70032104841E+03  0.70058176901E+03  0.20000064834E+01 0.  0.
        -13    1    3    3    0    0 -0.18893635975E+02  0.20675407020E+01 -0.42046402901E+02  0.46142771545E+02  0.10566000000E+00 0.  1.
         13    1    4    4    0    0  0.15900292357E+02 -0.18036547357E+01 -0.57753000264E+03  0.57775166602E+03  0.10566000000E+00 0. -1.
        -13    1    4    4    0    0  0.18659189861E+01 -0.38995362923E+00 -0.65461662265E+02  0.65489496166E+02  0.10566000000E+00 0.  1.
        -14    1    4    4    0    0  0.11274246319E+01  0.12606766301E+00 -0.57329383498E+02  0.57340606829E+02  0.00000000000E+00 0.  1.
<mgrwt>
<rscale>  0 0.80548785E+02</rscale>
<asrwt>0</asrwt>
<pdfrwt beam="1">  1        2 0.11454534E+00 0.80548785E+02</pdfrwt>
<pdfrwt beam="2">  1       -1 0.33516130E-03 0.80548785E+02</pdfrwt>
<totfact> 0.33305290E+05</totfact>
</mgrwt>
</event>
<event>
 8    1  0.2603554E-024  0.7873844E+02  0.7818608E-02  0.1332670E+00
         -1   -1    0    0    0  501 -0.00000000000E+00  0.00000000000E+00  0.34420859924E+02  0.34420860293E+02  0.50400000000E-02 0.  1.
          2   -1    0    0  501    0  0.00000000000E+00 -0.00000000000E+00 -0.45028955551E+02  0.45028955623E+02  0.25500000000E-02 0. -1.
         24    2    1    2    0    0  0.16653345369E-15  0.00000000000E+00 -0.10608095627E+02  0.79449815916E+02  0.78738437604E+02 0.  0.
         66    2    3    3    0    0  0.22126651863E+00 -0.33069186355E+02  0.16199668892E+02  0.36878846375E+02  0.19999981778E+01 0.  0.
        -13    1    3    3    0    0 -0.22126651863E+00  0.33069186355E+02 -0.26807764520E+02  0.42570969541E+02  0.10566000000E+00 0.  1.
         13    1    4    4    0    0 -0.49579029064E+00 -0.11883895184E+02  0.64890260929E+01  0.13549590268E+02  0.10566000000E+00 0. -1.
        -13    1    4    4    0    0  0.88435828641E-01 -0.28443282997E+01  0.10320889234E+01  0.30289265349E+01  0.10566000000E+00 0.  1.
         14    1    4    4    0    0  0.62862098063E+00 -0.18340962871E+02  0.86785538760E+01  0.20300329572E+02  0.00000000000E+00 0. -1.
<mgrwt>
<rscale>  0 0.78738438E+02</rscale>
<asrwt>0</asrwt>
<pdfrwt beam="1">  1        2 0.69275316E-02 0.78738438E+02</pdfrwt>
<pdfrwt beam="2">  1       -1 0.52955170E-02 0.78738438E+02</pdfrwt>
<totfact> 0.15263427E+05</totfact>
</mgrwt>
</event>
<event>
 8    1  0.2603554E-024  0.7917528E+02  0.7818608E-02  0.1331408E+00
          2   -1    0    0  501    0  0.00000000000E+00  0.00000000000E+00  0.29640759999E+03  0.29640760000E+03  0.25500000000E-02 0. -1.
         -1   -1    0    0    0  501 -0.00000000000E+00 -0.00000000000E+00 -0.52872496457E+01  0.52872520479E+01  0.50400000000E-02 0.  1.
         24    2    1    2    0    0  0.00000000000E+00  0.00000000000E+00  0.29112035035E+03  0.30169485205E+03  0.79175282559E+02 0.  0.
         66    2    3    3    0    0  0.38001243679E+02 -0.10092774169E+02  0.16235716148E+03  0.16706228325E+03  0.19999970991E+01 0.  0.
        -13    1    3    3    0    0 -0.38001243679E+02  0.10092774169E+02  0.12876318886E+03  0.13463256880E+03  0.10566000000E+00 0.  1.
         13    1    4    4    0    0  0.56632628904E+01 -0.11525694730E+01  0.24905406238E+02  0.25567389129E+02  0.10566000000E+00 0. -1.
        -13    1    4    4    0    0  0.20271001507E+01 -0.22062811294E+00  0.86327578179E+01  0.88709347514E+01  0.10566000000E+00 0.  1.
         14    1    4    4    0    0  0.30310880638E+02 -0.87195765828E+01  0.12881899743E+03  0.13262395937E+03  0.00000000000E+00 0. -1.
<mgrwt>
<rscale>  0 0.79175283E+02</rscale>
<asrwt>0</asrwt>
<pdfrwt beam="1">  1        2 0.45601173E-01 0.79175283E+02</pdfrwt>
<pdfrwt beam="2">  1       -1 0.81342314E-03 0.79175283E+02</pdfrwt>
<totfact> 0.26082346E+05</totfact>
</mgrwt>
</event>
<event>
 8    1  0.2603554E-024  0.8027840E+02  0.7818608E-02  0.1328263E+00
          2   -1    0    0  501    0  0.00000000000E+00  0.00000000000E+00  0.28317483753E+02  0.28317483868E+02  0.25500000000E-02 0. -1.
         -1   -1    0    0    0  501 -0.00000000000E+00 -0.00000000000E+00 -0.56896138353E+02  0.56896138576E+02  0.50400000000E-02 0.  1.
         24    2    1    2    0    0  0.00000000000E+00  0.00000000000E+00 -0.28578654600E+02  0.85213622444E+02  0.80278402770E+02 0.  0.
         66    2    3    3    0    0  0.10719983011E+02  0.36258625815E+02 -0.75001397499E-01  0.37863063930E+02  0.20000007963E+01 0.  0.
        -13    1    3    3    0    0 -0.10719983011E+02 -0.36258625815E+02 -0.28503653202E+02  0.47350558515E+02  0.10566000000E+00 0.  1.
         13    1    4    4    0    0  0.23692952252E+01  0.89475515229E+01 -0.35741958211E+00  0.92634308392E+01  0.10566000000E+00 0. -1.
        -13    1    4    4    0    0  0.35418055096E+01  0.11803913706E+02 -0.61070638495E+00  0.12339404012E+02  0.10566000000E+00 0.  1.
         14    1    4    4    0    0  0.48088822759E+01  0.15507160586E+02  0.89312456957E+00  0.16260229079E+02  0.00000000000E+00 0. -1.
<mgrwt>
<rscale>  0 0.80278403E+02</rscale>
<asrwt>0</asrwt>
<pdfrwt beam="1">  1        2 0.43565360E-02 0.80278403E+02</pdfrwt>
<pdfrwt beam="2">  1       -1 0.87532521E-02 0.80278403E+02</pdfrwt>
<totfact> 0.13173689E+05</totfact>
</mgrwt>
</event>
<event>
 8    1  0.2603554E-024  0.7442744E+02  0.7818608E-02  0.1345653E+00
          2   -1    0    0  501    0  0.00000000000E+00  0.00000000000E+00  0.32551851458E+03  0.32551851459E+03  0.25500000000E-02 0. -1.
         -1   -1    0    0    0  501 -0.00000000000E+00 -0.00000000000E+00 -0.42543214067E+01  0.42543243921E+01  0.50400000000E-02 0.  1.
         24    2    1    2    0    0  0.00000000000E+00 -0.11102230246E-15  0.32126419318E+03  0.32977283899E+03  0.74427437919E+02 0.  0.
         66    2    3    3    0    0 -0.34029932273E+02  0.79923850465E+00  0.22708863219E+03  0.22963432230E+03  0.20000089707E+01 0.  0.
        -13    1    3    3    0    0  0.34029932273E+02 -0.79923850465E+00  0.94175560993E+02  0.10013851669E+03  0.10566000000E+00 0.  1.
         13    1    4    4    0    0 -0.27263932536E+02  0.10361236380E+01  0.18617564833E+03  0.18816423349E+03  0.10566000000E+00 0. -1.
        -13    1    4    4    0    0 -0.31046429589E+01 -0.57443258015E-01  0.18275568520E+02  0.18537790494E+02  0.10566000000E+00 0. -1.
        -14    1    4    4    0    0 -0.36613567784E+01 -0.17944187536E+00  0.22637415338E+02  0.22932298316E+02  0.00000000000E+00 0.  1.
<mgrwt>
<rscale>  0 0.74427438E+02</rscale>
<asrwt>0</asrwt>
<pdfrwt beam="1">  1        2 0.50079782E-01 0.74427438E+02</pdfrwt>
<pdfrwt beam="2">  1       -1 0.65451108E-03 0.74427438E+02</pdfrwt>
<totfact> 0.31700229E+05</totfact>
</mgrwt>
</event>
<event>
 8    1  0.2603554E-024  0.8166815E+02  0.7818608E-02  0.1324383E+00
         -1   -1    0    0    0  501 -0.00000000000E+00  0.00000000000E+00  0.10428824800E+01  0.10428946585E+01  0.50400000000E-02 0.  1.
          2   -1    0    0  501    0  0.00000000000E+00 -0.00000000000E+00 -0.15988491695E+04  0.15988491695E+04  0.25500000000E-02 0. -1.
         24    2    1    2    0    0  0.17763568394E-14  0.00000000000E+00 -0.15978062870E+04  0.15998920641E+04  0.81668146317E+02 0.  0.
         66    2    3    3    0    0 -0.15690847559E+02  0.14717420492E+02 -0.14787419767E+04  0.14788998069E+04  0.20000006354E+01 0.  0.
        -13    1    3    3    0    0  0.15690847559E+02 -0.14717420492E+02 -0.11906431025E+03  0.12099225720E+03  0.10566000000E+00 0.  1.
         13    1    4    4    0    0 -0.59768821784E+01  0.53444722211E+01 -0.57369095900E+03  0.57374699486E+03  0.10566000000E+00 0. -1.
        -13    1    4    4    0    0 -0.72010241213E+00  0.51034432915E+00 -0.41776763054E+02  0.41786218950E+02  0.10566000000E+00 0.  1.
         14    1    4    4    0    0 -0.89938629687E+01  0.88626039413E+01 -0.86327425467E+03  0.86336659311E+03  0.00000000000E+00 0. -1.
<mgrwt>
<rscale>  0 0.81668146E+02</rscale>
<asrwt>0</asrwt>
<pdfrwt beam="1">  1        2 0.24597483E+00 0.81668146E+02</pdfrwt>
<pdfrwt beam="2">  1       -1 0.16044568E-03 0.81668146E+02</pdfrwt>
<totfact> 0.30670034E+05</totfact>
</mgrwt>
</event>
<event>
 8    1  0.2603554E-024  0.7870040E+02  0.7818608E-02  0.1332780E+00
         -1   -1    0    0    0  501 -0.00000000000E+00  0.00000000000E+00  0.44367454624E+01  0.44367483250E+01  0.50400000000E-02 0.  1.
          2   -1    0    0  501    0  0.00000000000E+00 -0.00000000000E+00 -0.34900307503E+03  0.34900307504E+03  0.25500000000E-02 0. -1.
         24    2    1    2    0    0  0.00000000000E+00 -0.17763568394E-14 -0.34456632957E+03  0.35343982336E+03  0.78700401956E+02 0.  0.
         66    2    3    3    0    0  0.89221566806E+01 -0.15561091878E+02 -0.32955700675E+03  0.33005086452E+03  0.20000034376E+01 0.  0.
        -13    1    3    3    0    0 -0.89221566806E+01  0.15561091878E+02 -0.15009322821E+02  0.23388958845E+02  0.10566000000E+00 0.  1.
         13    1    4    4    0    0  0.73448256880E+00 -0.15541925087E+01 -0.23965858227E+02  0.24027661217E+02  0.10566000000E+00 0. -1.
        -13    1    4    4    0    0  0.43285931852E+00 -0.12467226920E+01 -0.25032189864E+02  0.25067177306E+02  0.10566000000E+00 0.  1.
         14    1    4    4    0    0  0.77548147933E+01 -0.12760176678E+02 -0.28055895866E+03  0.28095602600E+03  0.00000000000E+00 0. -1.
<mgrwt>
<rscale>  0 0.78700402E+02</rscale>
<asrwt>0</asrwt>
<pdfrwt beam="1">  1        2 0.53692759E-01 0.78700402E+02</pdfrwt>
<pdfrwt beam="2">  1       -1 0.68257672E-03 0.78700402E+02</pdfrwt>
<totfact> 0.28100010E+05</totfact>
</mgrwt>
</event>
<event>
 8    1  0.2603554E-024  0.8369859E+02  0.7818608E-02  0.1318871E+00
         -1   -1    0    0    0  501 -0.00000000000E+00  0.00000000000E+00  0.77779921348E+02  0.77779921512E+02  0.50400000000E-02 0.  1.
          2   -1    0    0  501    0  0.00000000000E+00 -0.00000000000E+00 -0.22516908864E+02  0.22516909009E+02  0.25500000000E-02 0. -1.
         24    2    1    2    0    0  0.33306690739E-15 -0.17763568394E-14  0.55263012484E+02  0.10029683052E+03  0.83698588181E+02 0.  0.
         66    2    3    3    0    0 -0.82993330146E+00  0.13332845169E+02 -0.19847337011E+02  0.24007713898E+02  0.19999976491E+01 0.  0.
        -13    1    3    3    0    0  0.82993330146E+00 -0.13332845169E+02  0.75110349495E+02  0.76289116622E+02  0.10566000000E+00 0.  1.
         13    1    4    4    0    0 -0.12503320032E+00  0.16626572743E+01 -0.23002250359E+01  0.28429318959E+01  0.10566000000E+00 0. -1.
        -13    1    4    4    0    0 -0.28472975955E+00  0.10646496476E+02 -0.16514958509E+02  0.19651564234E+02  0.10566000000E+00 0.  1.
        -14    1    4    4    0    0 -0.42017034159E+00  0.10236914190E+01 -0.10321534663E+01  0.15132177686E+01  0.00000000000E+00 0.  1.
<mgrwt>
<rscale>  0 0.83698588E+02</rscale>
<asrwt>0</asrwt>
<pdfrwt beam="1">  1        2 0.34641399E-02 0.83698588E+02</pdfrwt>
<pdfrwt beam="2">  1       -1 0.11966142E-01 0.83698588E+02</pdfrwt>
<totfact> 0.11171387E+05</totfact>
</mgrwt>
</event>
<event>
 8    1  0.2603554E-024  0.8106044E+02  0.7818608E-02  0.1326069E+00
         -1   -1    0    0    0  501 -0.00000000000E+00  0.00000000000E+00  0.59790480000E+01  0.59790501242E+01  0.50400000000E-02 0.  1.
          2   -1    0    0  501    0  0.00000000000E+00 -0.00000000000E+00 -0.27474250438E+03  0.27474250439E+03  0.25500000000E-02 0. -1.
         24    2    1    2    0    0  0.17763568394E-14  0.00000000000E+00 -0.26876345638E+03  0.28072155451E+03  0.81060444635E+02 0.  0.
         66    2    3    3    0    0 -0.12297780361E+02 -0.72637184817E+01 -0.26572843181E+03  0.26611951540E+03  0.20000001347E+01 0.  0.
        -13    1    3    3    0    0  0.12297780361E+02  0.72637184817E+01 -0.30350245723E+01  0.14602039111E+02  0.10566000000E+00 0.  1.
         13    1    4    4    0    0 -0.92666144290E+01 -0.52189694401E+01 -0.20937896010E+03  0.20964891576E+03  0.10566000000E+00 0. -1.
        -13    1    4    4    0    0 -0.10946906034E+01 -0.54182132973E+00 -0.21613501065E+02  0.21648244968E+02  0.10566000000E+00 0. -1.
         14    1    4    4    0    0 -0.19364753291E+01 -0.15029277119E+01 -0.34735970644E+02  0.34822354674E+02  0.00000000000E+00 0. -1.
<mgrwt>
<rscale>  0 0.81060445E+02</rscale>
<asrwt>0</asrwt>
<pdfrwt beam="1">  1        2 0.42268068E-01 0.81060445E+02</pdfrwt>
<pdfrwt beam="2">  1       -1 0.91985392E-03 0.81060445E+02</pdfrwt>
<totfact> 0.23855428E+05</totfact>
</mgrwt>
</event>
<event>
 8    1  0.2603554E-024  0.8320033E+02  0.7818608E-02  0.1320207E+00
          2   -1    0    0  501    0  0.00000000000E+00  0.00000000000E+00  0.78198058455E+03  0.78198058456E+03  0.25500000000E-02 0. -1.
         -1   -1    0    0    0  501 -0.00000000000E+00 -0.00000000000E+00 -0.22130618069E+01  0.22130675460E+01  0.50400000000E-02 0.  1.
         24    2    1    2    0    0  0.00000000000E+00  0.44408920985E-15  0.77976752275E+03  0.78419365210E+03  0.83200327339E+02 0.  0.
         66    2    3    3    0    0 -0.35825551949E+02 -0.24130838214E+01  0.58765375146E+03  0.58875311018E+03  0.19999984490E+01 0.  0.
        -13    1    3    3    0    0  0.35825551949E+02  0.24130838214E+01  0.19211377128E+03  0.19544054192E+03  0.10566000000E+00 0.  1.
         13    1    4    4    0    0 -0.41813415400E+01 -0.64535779996E+00  0.67327000198E+02  0.67459886033E+02  0.10566000000E+00 0. -1.
        -13    1    4    4    0    0 -0.56033656084E+00  0.78028520262E-01  0.11773628636E+02  0.11787686831E+02  0.10566000000E+00 0. -1.
         14    1    4    4    0    0 -0.31083873849E+02 -0.18457545417E+01  0.50855312263E+03  0.50950553732E+03  0.00000000000E+00 0. -1.
<mgrwt>
<rscale>  0 0.83200327E+02</rscale>
<asrwt>0</asrwt>
<pdfrwt beam="1">  1        2 0.12030468E+00 0.83200327E+02</pdfrwt>
<pdfrwt beam="2">  1       -1 0.34047157E-03 0.83200327E+02</pdfrwt>
<totfact> 0.30904450E+05</totfact>
</mgrwt>
</event>
<event>
 8    1  0.2603554E-024  0.8010978E+02  0.7818608E-02  0.1328740E+00
          2   -1    0    0  501    0  0.00000000000E+00  0.00000000000E+00  0.34135452975E+03  0.34135452976E+03  0.25500000000E-02 0. -1.
         -1   -1    0    0    0  501 -0.00000000000E+00 -0.00000000000E+00 -0.47000807379E+01  0.47000834402E+01  0.50400000000E-02 0.  1.
         24    2    1    2    0    0 -0.71054273576E-14  0.35527136788E-14  0.33665444902E+03  0.34605461320E+03  0.80109782656E+02 0.  0.
         66    2    3    3    0    0 -0.30638094991E+02  0.24511970072E+02  0.20268067114E+03  0.20645334579E+03  0.19999979801E+01 0.  0.
        -13    1    3    3    0    0  0.30638094991E+02 -0.24511970072E+02  0.13397377787E+03  0.13960126741E+03  0.10566000000E+00 0.  1.
         13    1    4    4    0    0 -0.25092512758E+02  0.19906389244E+02  0.16344287149E+03  0.16655173951E+03  0.10566000000E+00 0. -1.
        -13    1    4    4    0    0 -0.22525792347E+01  0.17595680165E+01  0.13676630108E+02  0.13972529047E+02  0.10566000000E+00 0.  1.
         14    1    4    4    0    0 -0.32930029989E+01  0.28460128121E+01  0.25561169545E+02  0.25929077234E+02  0.00000000000E+00 0. -1.
<mgrwt>
<rscale>  0 0.80109783E+02</rscale>
<asrwt>0</asrwt>
<pdfrwt beam="1">  1        2 0.52516083E-01 0.80109783E+02</pdfrwt>
<pdfrwt beam="2">  1       -1 0.72308954E-03 0.80109783E+02</pdfrwt>
<totfact> 0.26613860E+05</totfact>
</mgrwt>
</event>
<event>
 8    1  0.2603554E-024  0.7894684E+02  0.7818608E-02  0.1332067E+00
         -1   -1    0    0    0  501 -0.00000000000E+00  0.00000000000E+00  0.82577475587E+01  0.82577490967E+01  0.50400000000E-02 0.  1.
          2   -1    0    0  501    0  0.00000000000E+00 -0.00000000000E+00 -0.18868957076E+03  0.18868957078E+03  0.25500000000E-02 0. -1.
         24    2    1    2    0    0  0.17763568394E-14  0.00000000000E+00 -0.18043182321E+03  0.19694731988E+03  0.78946842761E+02 0.  0.
         66    2    3    3    0    0  0.15460500054E+02 -0.10069071475E+02 -0.17725664768E+03  0.17822550998E+03  0.19999994478E+01 0.  0.
        -13    1    3    3    0    0 -0.15460500054E+02  0.10069071475E+02 -0.31751755253E+01  0.18721809900E+02  0.10566000000E+00 0.  1.
         13    1    4    4    0    0  0.73377883568E+01 -0.56663460693E+01 -0.89920211940E+02  0.90396937421E+02  0.10566000000E+00 0. -1.
        -13    1    4    4    0    0  0.52234678602E+01 -0.28986053513E+01 -0.60419193922E+02  0.60713892049E+02  0.10566000000E+00 0.  1.
        -14    1    4    4    0    0  0.28992438373E+01 -0.15041200539E+01 -0.26917241819E+02  0.27114680509E+02  0.00000000000E+00 0.  1.
<mgrwt>
<rscale>  0 0.78946843E+02</rscale>
<asrwt>0</asrwt>
<pdfrwt beam="1">  1        2 0.29029162E-01 0.78946843E+02</pdfrwt>
<pdfrwt beam="2">  1       -1 0.12704230E-02 0.78946843E+02</pdfrwt>
<totfact> 0.22389240E+05</totfact>
</mgrwt>
</event>
<event>
 8    1  0.2603554E-024  0.8272012E+02  0.7818608E-02  0.1321505E+00
         -1   -1    0    0    0  501 -0.00000000000E+00  0.00000000000E+00  0.41382261995E+02  0.41382262302E+02  0.50400000000E-02 0.  1.
          2   -1    0    0  501    0  0.00000000000E+00 -0.00000000000E+00 -0.41337873990E+02  0.41337874069E+02  0.25500000000E-02 0. -1.
         24    2    1    2    0    0  0.71054273576E-14  0.17763568394E-14  0.44388004215E-01  0.82720136371E+02  0.82720124461E+02 0.  0.
         66    2    3    3    0    0 -0.30885545430E+02 -0.82156566358E+01 -0.26192979727E+02  0.41370111461E+02  0.20000012067E+01 0.  0.
        -13    1    3    3    0    0  0.30885545430E+02  0.82156566358E+01  0.26237367732E+02  0.41350024909E+02  0.10566000000E+00 0.  1.
         13    1    4    4    0    0 -0.20216134867E+02 -0.53997508816E+01 -0.16238965812E+02  0.26487064640E+02  0.10566000000E+00 0. -1.
        -13    1    4    4    0    0 -0.91599339465E+01 -0.26763016774E+01 -0.84312350530E+01  0.12734357822E+02  0.10566000000E+00 0.  1.
        -14    1    4    4    0    0 -0.15094766165E+01 -0.13960407670E+00 -0.15227788624E+01  0.21486889998E+01  0.00000000000E+00 0.  1.
<mgrwt>
<rscale>  0 0.82720124E+02</rscale>
<asrwt>0</asrwt>
<pdfrwt beam="1">  1        2 0.63596729E-02 0.82720124E+02</pdfrwt>
<pdfrwt beam="2">  1       -1 0.63665019E-02 0.82720124E+02</pdfrwt>
<totfact> 0.13083720E+05</totfact>
</mgrwt>
</event>
<event>
 8    1  0.2603554E-024  0.7812731E+02  0.7818608E-02  0.1334451E+00
         -1   -1    0    0    0  501 -0.00000000000E+00  0.00000000000E+00  0.12463083711E+02  0.12463084730E+02  0.50400000000E-02 0.  1.
          2   -1    0    0  501    0  0.00000000000E+00 -0.00000000000E+00 -0.12243913924E+03  0.12243913927E+03  0.25500000000E-02 0. -1.
         24    2    1    2    0    0  0.00000000000E+00  0.00000000000E+00 -0.10997605553E+03  0.13490222400E+03  0.78127314364E+02 0.  0.
         66    2    3    3    0    0 -0.12663713041E+02 -0.34531713383E+02 -0.77613725036E+02  0.85910995639E+02  0.20000001550E+01 0.  0.
        -13    1    3    3    0    0  0.12663713041E+02  0.34531713383E+02 -0.32362330496E+02  0.48991228360E+02  0.10566000000E+00 0.  1.
         13    1    4    4    0    0 -0.11484689656E+02 -0.30821709710E+02 -0.68734470122E+02  0.76199176064E+02  0.10566000000E+00 0. -1.
        -13    1    4    4    0    0 -0.31943442391E+00 -0.10091548160E+01 -0.30463732053E+01  0.32267608426E+01  0.10566000000E+00 0.  1.
        -14    1    4    4    0    0 -0.85958896107E+00 -0.27008488571E+01 -0.58328817091E+01  0.64850587325E+01  0.00000000000E+00 0.  1.
<mgrwt>
<rscale>  0 0.78127314E+02</rscale>
<asrwt>0</asrwt>
<pdfrwt beam="1">  1        2 0.18836790E-01 0.78127314E+02</pdfrwt>
<pdfrwt beam="2">  1       -1 0.19173977E-02 0.78127314E+02</pdfrwt>
<totfact> 0.20023274E+05</totfact>
</mgrwt>
</event>
<event>
 8    1  0.2603554E-024  0.8226975E+02  0.7818608E-02  0.1322731E+00
          2   -1    0    0  501    0  0.00000000000E+00  0.00000000000E+00  0.44784194874E+03  0.44784194875E+03  0.25500000000E-02 0. -1.
         -1   -1    0    0    0  501 -0.00000000000E+00 -0.00000000000E+00 -0.37782907539E+01  0.37782941154E+01  0.50400000000E-02 0.  1.
         24    2    1    2    0    0  0.00000000000E+00  0.00000000000E+00  0.44406365799E+03  0.45162024286E+03  0.82269747898E+02 0.  0.
         66    2    3    3    0    0 -0.18374256735E+02 -0.43886982592E+01  0.42260097776E+03  0.42302773004E+03  0.19999990222E+01 0.  0.
        -13    1    3    3    0    0  0.18374256735E+02  0.43886982592E+01  0.21462680225E+02  0.28592512821E+02  0.10566000000E+00 0.  1.
         13    1    4    4    0    0 -0.22799646254E+01 -0.44956812372E+00  0.49617391005E+02  0.49671893505E+02  0.10566000000E+00 0. -1.
        -13    1    4    4    0    0 -0.12683979138E+02 -0.25777248408E+01  0.27761466001E+03  0.27791624387E+03  0.10566000000E+00 0.  1.
        -14    1    4    4    0    0 -0.34103129712E+01 -0.13614052947E+01  0.95368926747E+02  0.95439592664E+02  0.00000000000E+00 0.  1.
<mgrwt>
<rscale>  0 0.82269748E+02</rscale>
<asrwt>0</asrwt>
<pdfrwt beam="1">  1        2 0.68898715E-01 0.82269748E+02</pdfrwt>
<pdfrwt beam="2">  1       -1 0.58127615E-03 0.82269748E+02</pdfrwt>
<totfact> 0.27300793E+05</totfact>
</mgrwt>
</event>
<event>
 8    1  0.2603554E-024  0.8024229E+02  0.7818608E-02  0.1328365E+00
         -1   -1    0    0    0  501 -0.00000000000E+00  0.00000000000E+00  0.12844260533E+01  0.12844359415E+01  0.50400000000E-02 0.  1.
          2   -1    0    0  501    0  0.00000000000E+00 -0.00000000000E+00 -0.12532446336E+04  0.12532446336E+04  0.25500000000E-02 0. -1.
         24    2    1    2    0    0  0.17763568394E-14 -0.35527136788E-14 -0.12519602076E+04  0.12545290696E+04  0.80242289666E+02 0.  0.
         66    2    3    3    0    0 -0.13532284370E+02  0.19457123870E+02 -0.11320097710E+04  0.11322596098E+04  0.20000005614E+01 0.  0.
        -13    1    3    3    0    0  0.13532284370E+02 -0.19457123870E+02 -0.11995043661E+03  0.12226945978E+03  0.10566000000E+00 0.  1.
         13    1    4    4    0    0 -0.38916598553E+01  0.64529651772E+01 -0.35597811131E+03  0.35605787826E+03  0.10566000000E+00 0. -1.
        -13    1    4    4    0    0 -0.64057891659E+01  0.96882963465E+01 -0.55723268021E+03  0.55735371918E+03  0.10566000000E+00 0.  1.
        -14    1    4    4    0    0 -0.32348353487E+01  0.33158623462E+01 -0.21879897944E+03  0.21884801234E+03  0.00000000000E+00 0.  1.
<mgrwt>
<rscale>  0 0.80242290E+02</rscale>
<asrwt>0</asrwt>
<pdfrwt beam="1">  1        2 0.19280589E+00 0.80242290E+02</pdfrwt>
<pdfrwt beam="2">  1       -1 0.19760577E-03 0.80242290E+02</pdfrwt>
<totfact> 0.34565434E+05</totfact>
</mgrwt>
</event>
<event>
 8    1  0.2603554E-024  0.8005296E+02  0.7818608E-02  0.1328901E+00
          2   -1    0    0  501    0  0.00000000000E+00  0.00000000000E+00  0.69956617253E+03  0.69956617253E+03  0.25500000000E-02 0. -1.
         -1   -1    0    0    0  501 -0.00000000000E+00 -0.00000000000E+00 -0.22901578753E+01  0.22901634212E+01  0.50400000000E-02 0.  1.
         24    2    1    2    0    0  0.71054273576E-14  0.22204460493E-15  0.69727601465E+03  0.70185633596E+03  0.80052955652E+02 0.  0.
         66    2    3    3    0    0 -0.35360454747E+02  0.10438558894E+01  0.51256437309E+03  0.51378759031E+03  0.20000002540E+01 0.  0.
        -13    1    3    3    0    0  0.35360454747E+02 -0.10438558894E+01  0.18471164157E+03  0.18806874565E+03  0.10566000000E+00 0.  1.
         13    1    4    4    0    0 -0.23044948531E+02  0.11808534366E+01  0.34281350859E+03  0.34358925609E+03  0.10566000000E+00 0. -1.
        -13    1    4    4    0    0 -0.20107653788E+01  0.14185539778E+00  0.25807091629E+02  0.25885912052E+02  0.10566000000E+00 0. -1.
        -14    1    4    4    0    0 -0.10304740837E+02 -0.27885294498E+00  0.14394377287E+03  0.14431242216E+03  0.00000000000E+00 0.  1.
<mgrwt>
<rscale>  0 0.80052956E+02</rscale>
<asrwt>0</asrwt>
<pdfrwt beam="1">  1        2 0.10762575E+00 0.80052956E+02</pdfrwt>
<pdfrwt beam="2">  1       -1 0.35233179E-03 0.80052956E+02</pdfrwt>
<totfact> 0.33389484E+05</totfact>
</mgrwt>
</event>
<event>
 8    1  0.2603554E-024  0.8007319E+02  0.7818608E-02  0.1328844E+00
         -1   -1    0    0    0  501 -0.00000000000E+00  0.00000000000E+00  0.18938009521E+03  0.18938009528E+03  0.50400000000E-02 0.  1.
          2   -1    0    0  501    0  0.00000000000E+00 -0.00000000000E+00 -0.84640837614E+01  0.84640841455E+01  0.25500000000E-02 0. -1.
         24    2    1    2    0    0 -0.35527136788E-14 -0.17763568394E-14  0.18091601145E+03  0.19784417942E+03  0.80073192349E+02 0.  0.
         66    2    3    3    0    0  0.31974420280E+02  0.13870730592E+02  0.41960656267E+02  0.54584406224E+02  0.20000022555E+01 0.  0.
        -13    1    3    3    0    0 -0.31974420280E+02 -0.13870730592E+02  0.13895535518E+03  0.14325977320E+03  0.10566000000E+00 0.  1.
         13    1    4    4    0    0  0.78902160895E+00  0.39441509185E+00  0.69330114199E+00  0.11269200829E+01  0.10566000000E+00 0. -1.
        -13    1    4    4    0    0  0.55929584192E+01  0.26839014712E+01  0.77327361606E+01  0.99141758886E+01  0.10566000000E+00 0.  1.
         14    1    4    4    0    0  0.25592440252E+02  0.10792414029E+02  0.33534618965E+02  0.43543310252E+02  0.00000000000E+00 0. -1.
<mgrwt>
<rscale>  0 0.80073192E+02</rscale>
<asrwt>0</asrwt>
<pdfrwt beam="1">  1        2 0.13021669E-02 0.80073192E+02</pdfrwt>
<pdfrwt beam="2">  1       -1 0.29135395E-01 0.80073192E+02</pdfrwt>
<totfact> 0.10099812E+05</totfact>
</mgrwt>
</event>
<event>
 8    1  0.2603554E-024  0.8646012E+02  0.7818608E-02  0.1311658E+00
         -1   -1    0    0    0  501 -0.00000000000E+00  0.00000000000E+00  0.41579943263E+01  0.41579973808E+01  0.50400000000E-02 0.  1.
          2   -1    0    0  501    0  0.00000000000E+00 -0.00000000000E+00 -0.44945644930E+03  0.44945644931E+03  0.25500000000E-02 0. -1.
         24    2    1    2    0    0 -0.17763568394E-14  0.71054273576E-14 -0.44529845497E+03  0.45361444669E+03  0.86460119374E+02 0.  0.
         66    2    3    3    0    0  0.96227793402E+01 -0.40462890242E+02 -0.28417461364E+03  0.28720907785E+03  0.19999978298E+01 0.  0.
        -13    1    3    3    0    0 -0.96227793402E+01  0.40462890242E+02 -0.16112384133E+03  0.16640536884E+03  0.10566000000E+00 0.  1.
         13    1    4    4    0    0  0.20040699917E+01 -0.76483258945E+01 -0.58085084993E+02  0.58620827768E+02  0.10566000000E+00 0. -1.
        -13    1    4    4    0    0  0.52932000702E+00 -0.23667262548E+01 -0.18237091898E+02  0.18397941672E+02  0.10566000000E+00 0.  1.
         14    1    4    4    0    0  0.70893893415E+01 -0.30447838092E+02 -0.20785243675E+03  0.21019030841E+03  0.00000000000E+00 0. -1.
<mgrwt>
<rscale>  0 0.86460119E+02</rscale>
<asrwt>0</asrwt>
<pdfrwt beam="1">  1        2 0.69147108E-01 0.86460119E+02</pdfrwt>
<pdfrwt beam="2">  1       -1 0.63969203E-03 0.86460119E+02</pdfrwt>
<totfact> 0.23995062E+05</totfact>
</mgrwt>
</event>
<event>
 8    1  0.2603554E-024  0.7985823E+02  0.7818608E-02  0.1329454E+00
         -1   -1    0    0    0  501 -0.00000000000E+00  0.00000000000E+00  0.43511616609E+01  0.43511645798E+01  0.50400000000E-02 0.  1.
          2   -1    0    0  501    0  0.00000000000E+00 -0.00000000000E+00 -0.36641559758E+03  0.36641559759E+03  0.25500000000E-02 0. -1.
         24    2    1    2    0    0  0.00000000000E+00  0.22204460493E-15 -0.36206443592E+03  0.37076676217E+03  0.79858225447E+02 0.  0.
         66    2    3    3    0    0 -0.19482915575E+02  0.15509162438E+01 -0.34266860227E+03  0.34323135101E+03  0.19999990952E+01 0.  0.
        -13    1    3    3    0    0  0.19482915575E+02 -0.15509162438E+01 -0.19395833648E+02  0.27535411155E+02  0.10566000000E+00 0.  1.
         13    1    4    4    0    0 -0.62230444990E+01  0.61029844612E+00 -0.97569029313E+02  0.97769245636E+02  0.10566000000E+00 0. -1.
        -13    1    4    4    0    0 -0.30693848583E+01 -0.50161842616E-01 -0.63236832982E+02  0.63311387990E+02  0.10566000000E+00 0.  1.
         14    1    4    4    0    0 -0.10190486218E+02  0.99077964033E+00 -0.18186273997E+03  0.18215071738E+03  0.00000000000E+00 0. -1.
<mgrwt>
<rscale>  0 0.79858225E+02</rscale>
<asrwt>0</asrwt>
<pdfrwt beam="1">  1        2 0.56371606E-01 0.79858225E+02</pdfrwt>
<pdfrwt beam="2">  1       -1 0.66941000E-03 0.79858225E+02</pdfrwt>
<totfact> 0.27519970E+05</totfact>
</mgrwt>
</event>
<event>
 8    1  0.2603554E-024  0.8205012E+02  0.7818608E-02  0.1323332E+00
          2   -1    0    0  501    0  0.00000000000E+00  0.00000000000E+00  0.56829741534E+02  0.56829741591E+02  0.25500000000E-02 0. -1.
         -1   -1    0    0    0  501 -0.00000000000E+00 -0.00000000000E+00 -0.29615749779E+02  0.29615750207E+02  0.50400000000E-02 0.  1.
         24    2    1    2    0    0  0.00000000000E+00 -0.35527136788E-14  0.27213991755E+02  0.86445491798E+02  0.82050117032E+02 0.  0.
         66    2    3    3    0    0  0.23463868448E+02  0.27339881864E+02  0.34234575872E+02  0.49739606327E+02  0.19999973732E+01 0.  0.
        -13    1    3    3    0    0 -0.23463868448E+02 -0.27339881864E+02 -0.70205841169E+01  0.36705885472E+02  0.10566000000E+00 0.  1.
         13    1    4    4    0    0  0.17698783136E+01  0.16251294395E+01  0.19075031382E+01  0.30697308022E+01  0.10566000000E+00 0. -1.
        -13    1    4    4    0    0  0.90246434922E+00  0.84097346797E+00  0.10649714204E+01  0.16330971916E+01  0.10566000000E+00 0. -1.
         14    1    4    4    0    0  0.20791525785E+02  0.24873778956E+02  0.31262101313E+02  0.45036778333E+02  0.00000000000E+00 0. -1.
<mgrwt>
<rscale>  0 0.82050117E+02</rscale>
<asrwt>0</asrwt>
<pdfrwt beam="1">  1        2 0.87430371E-02 0.82050117E+02</pdfrwt>
<pdfrwt beam="2">  1       -1 0.45562693E-02 0.82050117E+02</pdfrwt>
<totfact> 0.14347446E+05</totfact>
</mgrwt>
</event>
<event>
 8    1  0.2603554E-024  0.7728439E+02  0.7818608E-02  0.1336939E+00
          2   -1    0    0  501    0  0.00000000000E+00  0.00000000000E+00  0.12891055258E+03  0.12891055260E+03  0.25500000000E-02 0. -1.
         -1   -1    0    0    0  501 -0.00000000000E+00 -0.00000000000E+00 -0.11583372800E+02  0.11583373897E+02  0.50400000000E-02 0.  1.
         24    2    1    2    0    0  0.00000000000E+00  0.00000000000E+00  0.11732717978E+03  0.14049392650E+03  0.77284385672E+02 0.  0.
         66    2    3    3    0    0  0.29241633187E+01 -0.34015757210E+02  0.91504926774E+02  0.97687123489E+02  0.20000005045E+01 0.  0.
        -13    1    3    3    0    0 -0.29241633187E+01  0.34015757210E+02  0.25822253003E+02  0.42806803009E+02  0.10566000000E+00 0.  1.
         13    1    4    4    0    0  0.11736448490E+01 -0.23918007030E+02  0.64135093093E+02  0.68459987091E+02  0.10566000000E+00 0. -1.
        -13    1    4    4    0    0  0.10465540772E+01 -0.65515956693E+01  0.17450757047E+02  0.18669728622E+02  0.10566000000E+00 0.  1.
         14    1    4    4    0    0  0.70396439251E+00 -0.35461545109E+01  0.99190766339E+01  0.10557407776E+02  0.00000000000E+00 0. -1.
<mgrwt>
<rscale>  0 0.77284386E+02</rscale>
<asrwt>0</asrwt>
<pdfrwt beam="1">  1        2 0.19832392E-01 0.77284386E+02</pdfrwt>
<pdfrwt beam="2">  1       -1 0.17820575E-02 0.77284386E+02</pdfrwt>
<totfact> 0.20932260E+05</totfact>
</mgrwt>
</event>
<event>
 8    1  0.2603554E-024  0.8278352E+02  0.7818608E-02  0.1321333E+00
          2   -1    0    0  501    0  0.00000000000E+00  0.00000000000E+00  0.64470736058E+03  0.64470736059E+03  0.25500000000E-02 0. -1.
         -1   -1    0    0    0  501 -0.00000000000E+00 -0.00000000000E+00 -0.26574476418E+01  0.26574524211E+01  0.50400000000E-02 0.  1.
         24    2    1    2    0    0  0.44408920985E-15  0.00000000000E+00  0.64204991294E+03  0.64736481301E+03  0.82783515356E+02 0.  0.
         66    2    3    3    0    0  0.35464043350E+01  0.37205508309E+02  0.45988039945E+03  0.46140091963E+03  0.20000005160E+01 0.  0.
        -13    1    3    3    0    0 -0.35464043350E+01 -0.37205508309E+02  0.18216951349E+03  0.18596389338E+03  0.10566000000E+00 0.  1.
         13    1    4    4    0    0  0.87772893038E+00  0.82480913557E+01  0.99946459234E+02  0.10029011565E+03  0.10566000000E+00 0. -1.
        -13    1    4    4    0    0  0.25263710639E+01  0.18852893078E+02  0.23257138595E+03  0.23334796947E+03  0.10566000000E+00 0.  1.
        -14    1    4    4    0    0  0.14230434069E+00  0.10104523875E+02  0.12736255427E+03  0.12776283451E+03  0.00000000000E+00 0.  1.
<mgrwt>
<rscale>  0 0.82783515E+02</rscale>
<asrwt>0</asrwt>
<pdfrwt beam="1">  1        2 0.99185648E-01 0.82783515E+02</pdfrwt>
<pdfrwt beam="2">  1       -1 0.40883888E-03 0.82783515E+02</pdfrwt>
<totfact> 0.29993453E+05</totfact>
</mgrwt>
</event>
<event>
 8    1  0.2603554E-024  0.7918416E+02  0.7818608E-02  0.1331383E+00
          2   -1    0    0  501    0  0.00000000000E+00  0.00000000000E+00  0.66049384171E+03  0.66049384171E+03  0.25500000000E-02 0. -1.
         -1   -1    0    0    0  501 -0.00000000000E+00 -0.00000000000E+00 -0.23732714230E+01  0.23732767746E+01  0.50400000000E-02 0.  1.
         24    2    1    2    0    0  0.17763568394E-14  0.00000000000E+00  0.65812057028E+03  0.66286711849E+03  0.79184163441E+02 0.  0.
         66    2    3    3    0    0  0.12075774321E+02  0.35043243474E+02  0.44516619371E+03  0.44671108479E+03  0.20000026984E+01 0.  0.
        -13    1    3    3    0    0 -0.12075774321E+02 -0.35043243474E+02  0.21295437657E+03  0.21615603370E+03  0.10566000000E+00 0.  1.
         13    1    4    4    0    0  0.32661770434E+01  0.86162051387E+01  0.11435516885E+03  0.11472585895E+03  0.10566000000E+00 0. -1.
        -13    1    4    4    0    0  0.81718483378E+01  0.23046698654E+02  0.29192142817E+03  0.29294378439E+03  0.10566000000E+00 0.  1.
        -14    1    4    4    0    0  0.63774893933E+00  0.33803396810E+01  0.38889596695E+02  0.39041441459E+02  0.00000000000E+00 0.  1.
<mgrwt>
<rscale>  0 0.79184163E+02</rscale>
<asrwt>0</asrwt>
<pdfrwt beam="1">  1        2 0.10161435E+00 0.79184163E+02</pdfrwt>
<pdfrwt beam="2">  1       -1 0.36511942E-03 0.79184163E+02</pdfrwt>
<totfact> 0.33880817E+05</totfact>
</mgrwt>
</event>
<event>
 8    1  0.2603554E-024  0.7785757E+02  0.7818608E-02  0.1335244E+00
         -1   -1    0    0    0  501 -0.00000000000E+00  0.00000000000E+00  0.11184843196E+01  0.11184956750E+01  0.50400000000E-02 0.  1.
          2   -1    0    0  501    0  0.00000000000E+00 -0.00000000000E+00 -0.13549071726E+04  0.13549071726E+04  0.25500000000E-02 0. -1.
         24    2    1    2    0    0  0.00000000000E+00 -0.17763568394E-14 -0.13537886883E+04  0.13560256683E+04  0.77857565536E+02 0.  0.
         66    2    3    3    0    0 -0.13769947039E+02 -0.13970225125E+02 -0.12624664671E+04  0.12626204336E+04  0.19999998391E+01 0.  0.
        -13    1    3    3    0    0  0.13769947039E+02  0.13970225125E+02 -0.91322221119E+02  0.93405234680E+02  0.10566000000E+00 0.  1.
         13    1    4    4    0    0 -0.85013864969E+01 -0.93376930650E+01 -0.83114562719E+03  0.83124155987E+03  0.10566000000E+00 0. -1.
        -13    1    4    4    0    0 -0.33950122798E+01 -0.27852730817E+01 -0.24366885494E+03  0.24370844443E+03  0.10566000000E+00 0.  1.
         14    1    4    4    0    0 -0.18735482618E+01 -0.18472589779E+01 -0.18765198501E+03  0.18767042928E+03  0.00000000000E+00 0. -1.
<mgrwt>
<rscale>  0 0.77857566E+02</rscale>
<asrwt>0</asrwt>
<pdfrwt beam="1">  1        2 0.20844594E+00 0.77857566E+02</pdfrwt>
<pdfrwt beam="2">  1       -1 0.17207647E-03 0.77857566E+02</pdfrwt>
<totfact> 0.36809480E+05</totfact>
</mgrwt>
</event>
<event>
 8    1  0.2965607E-024  0.7408707E+02  0.7818608E-02  0.1346722E+00
          2   -1    0    0  501    0  0.00000000000E+00  0.00000000000E+00  0.11975756381E+04  0.11975756381E+04  0.25500000000E-02 0. -1.
         -1   -1    0    0    0  501 -0.00000000000E+00 -0.00000000000E+00 -0.11458290099E+01  0.11458400942E+01  0.50400000000E-02 0.  1.
         24    2    1    2    0    0 -0.17763568394E-14 -0.17763568394E-14  0.11964298091E+04  0.11987214782E+04  0.74087071823E+02 0.  0.
         66    2    3    3    0    0  0.12451370857E+02  0.13578478773E+02  0.11181244885E+04  0.11182780440E+04  0.20000001146E+01 0.  0.
        -13    1    3    3    0    0 -0.12451370857E+02 -0.13578478773E+02  0.78305320581E+02  0.80443434271E+02  0.10566000000E+00 0.  1.
         13    1    4    4    0    0  0.63300973538E+01  0.72405840536E+01  0.58424667930E+03  0.58432584200E+03  0.10566000000E+00 0. -1.
        -13    1    4    4    0    0  0.29078712886E+01  0.26700722032E+01  0.27651260205E+03  0.27654080215E+03  0.10566000000E+00 0.  1.
        -14    1    4    4    0    0  0.32134022149E+01  0.36678225166E+01  0.25736520720E+03  0.25741139981E+03  0.00000000000E+00 0.  1.
<mgrwt>
<rscale>  0 0.74087072E+02</rscale>
<asrwt>0</asrwt>
<pdfrwt beam="1">  1        2 0.18424277E+00 0.74087072E+02</pdfrwt>
<pdfrwt beam="2">  1       -1 0.17628189E-03 0.74087072E+02</pdfrwt>
<totfact> 0.42744409E+05</totfact>
</mgrwt>
</event>
<event>
 8    1  0.2603554E-024  0.8037631E+02  0.7818608E-02  0.1327987E+00
          2   -1    0    0  501    0  0.00000000000E+00  0.00000000000E+00  0.97566050144E+02  0.97566050177E+02  0.25500000000E-02 0. -1.
         -1   -1    0    0    0  501 -0.00000000000E+00 -0.00000000000E+00 -0.16553789695E+02  0.16553790463E+02  0.50400000000E-02 0.  1.
         24    2    1    2    0    0 -0.35527136788E-14  0.00000000000E+00  0.81012260448E+02  0.11411984064E+03  0.80376312957E+02 0.  0.
         66    2    3    3    0    0  0.26758841946E+02  0.29682318665E+02  0.46211711019E+02  0.61127717940E+02  0.20000004075E+01 0.  0.
        -13    1    3    3    0    0 -0.26758841946E+02 -0.29682318665E+02  0.34800549429E+02  0.52992122699E+02  0.10566000000E+00 0.  1.
         13    1    4    4    0    0  0.20356012829E+02  0.21998741654E+02  0.35462334708E+02  0.46431672807E+02  0.10566000000E+00 0. -1.
        -13    1    4    4    0    0  0.26542408298E+01  0.36268608560E+01  0.49746715533E+01  0.67050454995E+01  0.10566000000E+00 0.  1.
         14    1    4    4    0    0  0.37485882872E+01  0.40567161540E+01  0.57747047577E+01  0.79909996333E+01  0.00000000000E+00 0. -1.
<mgrwt>
<rscale>  0 0.80376313E+02</rscale>
<asrwt>0</asrwt>
<pdfrwt beam="1">  1        2 0.15010162E-01 0.80376313E+02</pdfrwt>
<pdfrwt beam="2">  1       -1 0.25467369E-02 0.80376313E+02</pdfrwt>
<totfact> 0.17384446E+05</totfact>
</mgrwt>
</event>
<event>
 8    1  0.2603554E-024  0.8014773E+02  0.7818608E-02  0.1328633E+00
         -1   -1    0    0    0  501 -0.00000000000E+00  0.00000000000E+00  0.38688310354E+01  0.38688343182E+01  0.50400000000E-02 0.  1.
          2   -1    0    0  501    0  0.00000000000E+00 -0.00000000000E+00 -0.41509021012E+03  0.41509021012E+03  0.25500000000E-02 0. -1.
         24    2    1    2    0    0  0.00000000000E+00  0.00000000000E+00 -0.41122137908E+03  0.41895904444E+03  0.80147728021E+02 0.  0.
         66    2    3    3    0    0 -0.35065022052E+02  0.18752518384E+02 -0.23064204998E+03  0.23405334420E+03  0.19999994683E+01 0.  0.
        -13    1    3    3    0    0  0.35065022052E+02 -0.18752518384E+02 -0.18057932910E+03  0.18490570024E+03  0.10566000000E+00 0.  1.
         13    1    4    4    0    0 -0.95058981849E+01  0.53990475161E+01 -0.65962990160E+02  0.66862837580E+02  0.10566000000E+00 0. -1.
        -13    1    4    4    0    0 -0.74815068335E+01  0.35430697522E+01 -0.50346468736E+02  0.51022586821E+02  0.10566000000E+00 0.  1.
         14    1    4    4    0    0 -0.18077617034E+02  0.98104011159E+01 -0.11433259108E+03  0.11616791980E+03  0.00000000000E+00 0. -1.
<mgrwt>
<rscale>  0 0.80147728E+02</rscale>
<asrwt>0</asrwt>
<pdfrwt beam="1">  1        2 0.63859997E-01 0.80147728E+02</pdfrwt>
<pdfrwt beam="2">  1       -1 0.59520536E-03 0.80147728E+02</pdfrwt>
<totfact> 0.28482171E+05</totfact>
</mgrwt>
</event>
<event>
 8    1  0.2603554E-024  0.8152941E+02  0.7818608E-02  0.1324766E+00
          2   -1    0    0  501    0  0.00000000000E+00  0.00000000000E+00  0.25592006607E+03  0.25592006608E+03  0.25500000000E-02 0. -1.
         -1   -1    0    0    0  501 -0.00000000000E+00 -0.00000000000E+00 -0.64932808573E+01  0.64932828133E+01  0.50400000000E-02 0.  1.
         24    2    1    2    0    0  0.00000000000E+00  0.00000000000E+00  0.24942678521E+03  0.26241334889E+03  0.81529408787E+02 0.  0.
         66    2    3    3    0    0  0.14212930513E+02  0.11875552225E+02  0.24158164453E+03  0.24229883844E+03  0.20000006232E+01 0.  0.
        -13    1    3    3    0    0 -0.14212930513E+02 -0.11875552225E+02  0.78451406827E+01  0.20114510453E+02  0.10566000000E+00 0.  1.
         13    1    4    4    0    0  0.71313154653E+01  0.68631492067E+01  0.13276729815E+03  0.13313573937E+03  0.10566000000E+00 0. -1.
        -13    1    4    4    0    0  0.29550119831E+01  0.25853345840E+01  0.50643186447E+02  0.50795270924E+02  0.10566000000E+00 0.  1.
         14    1    4    4    0    0  0.41266030646E+01  0.24270684339E+01  0.58171159934E+02  0.58367828143E+02  0.00000000000E+00 0. -1.
<mgrwt>
<rscale>  0 0.81529409E+02</rscale>
<asrwt>0</asrwt>
<pdfrwt beam="1">  1        2 0.39372319E-01 0.81529409E+02</pdfrwt>
<pdfrwt beam="2">  1       -1 0.99896640E-03 0.81529409E+02</pdfrwt>
<totfact> 0.22899852E+05</totfact>
</mgrwt>
</event>
<event>
 8    1  0.2603554E-024  0.7898388E+02  0.7818608E-02  0.1331960E+00
         -1   -1    0    0    0  501 -0.00000000000E+00  0.00000000000E+00  0.17299076990E+03  0.17299076997E+03  0.50400000000E-02 0.  1.
          2   -1    0    0  501    0  0.00000000000E+00 -0.00000000000E+00 -0.90155861511E+01  0.90155865117E+01  0.25500000000E-02 0. -1.
         24    2    1    2    0    0  0.00000000000E+00 -0.88817841970E-15  0.16397518375E+03  0.18200635648E+03  0.78983877566E+02 0.  0.
         66    2    3    3    0    0 -0.36565993015E+02  0.64386340774E+01  0.11287701808E+03  0.11884338036E+03  0.19999978333E+01 0.  0.
        -13    1    3    3    0    0  0.36565993015E+02 -0.64386340774E+01  0.51098165668E+02  0.63162976122E+02  0.10566000000E+00 0.  1.
         13    1    4    4    0    0 -0.15147304629E+02  0.33888523956E+01  0.48600956971E+02  0.51019499612E+02  0.10566000000E+00 0. -1.
        -13    1    4    4    0    0 -0.23015325855E+01  0.52899303129E+00  0.67245995001E+01  0.71279932899E+01  0.10566000000E+00 0.  1.
        -14    1    4    4    0    0 -0.19117155800E+02  0.25207886505E+01  0.57551461607E+02  0.60695887459E+02  0.00000000000E+00 0.  1.
<mgrwt>
<rscale>  0 0.78983878E+02</rscale>
<asrwt>0</asrwt>
<pdfrwt beam="1">  1        2 0.13870133E-02 0.78983878E+02</pdfrwt>
<pdfrwt beam="2">  1       -1 0.26613964E-01 0.78983878E+02</pdfrwt>
<totfact> 0.10729405E+05</totfact>
</mgrwt>
</event>
<event>
 8    1  0.2603554E-024  0.8193226E+02  0.7818608E-02  0.1323656E+00
          2   -1    0    0  501    0  0.00000000000E+00  0.00000000000E+00  0.41429645569E+02  0.41429645648E+02  0.25500000000E-02 0. -1.
         -1   -1    0    0    0  501 -0.00000000000E+00 -0.00000000000E+00 -0.40507802136E+02  0.40507802449E+02  0.50400000000E-02 0.  1.
         24    2    1    2    0    0  0.00000000000E+00 -0.35527136788E-14  0.92184343362E+00  0.81937448097E+02  0.81932262299E+02 0.  0.
         66    2    3    3    0    0 -0.27966682362E+02 -0.28795865254E+02 -0.75942337558E+01  0.40902439717E+02  0.20000026092E+01 0.  0.
        -13    1    3    3    0    0  0.27966682362E+02  0.28795865254E+02  0.85160771895E+01  0.41035008380E+02  0.10566000000E+00 0.  1.
         13    1    4    4    0    0 -0.12512519913E+02 -0.13182719927E+02 -0.30730507007E+01  0.18433720837E+02  0.10566000000E+00 0. -1.
        -13    1    4    4    0    0 -0.16810845088E+01 -0.19674726520E+01 -0.15292988548E+00  0.25945221809E+01  0.10566000000E+00 0.  1.
         14    1    4    4    0    0 -0.13773077940E+02 -0.13645672675E+02 -0.43682531697E+01  0.19874196699E+02  0.00000000000E+00 0. -1.
<mgrwt>
<rscale>  0 0.81932262E+02</rscale>
<asrwt>0</asrwt>
<pdfrwt beam="1">  1        2 0.63737917E-02 0.81932262E+02</pdfrwt>
<pdfrwt beam="2">  1       -1 0.62319696E-02 0.81932262E+02</pdfrwt>
<totfact> 0.13441828E+05</totfact>
</mgrwt>
</event>
<event>
 8    1  0.2603554E-024  0.8210961E+02  0.7818608E-02  0.1323169E+00
         -1   -1    0    0    0  501 -0.00000000000E+00  0.00000000000E+00  0.35088234749E+01  0.35088270946E+01  0.50400000000E-02 0.  1.
          2   -1    0    0  501    0  0.00000000000E+00 -0.00000000000E+00 -0.48035937860E+03  0.48035937860E+03  0.25500000000E-02 0. -1.
         24    2    1    2    0    0  0.88817841970E-15 -0.71054273576E-14 -0.47685055512E+03  0.48386820570E+03  0.82109613113E+02 0.  0.
         66    2    3    3    0    0  0.49245093232E+01 -0.37707506784E+02 -0.32936093138E+03  0.33155501804E+03  0.20000015031E+01 0.  0.
        -13    1    3    3    0    0 -0.49245093232E+01  0.37707506784E+02 -0.14748962374E+03  0.15231318766E+03  0.10566000000E+00 0.  1.
         13    1    4    4    0    0  0.97736958608E+00 -0.44138535144E+01 -0.41944229192E+02  0.42187283401E+02  0.10566000000E+00 0. -1.
        -13    1    4    4    0    0  0.26600349804E+01 -0.18439808598E+02 -0.16222334317E+03  0.16328970133E+03  0.10566000000E+00 0.  1.
         14    1    4    4    0    0  0.12871047567E+01 -0.14853844672E+02 -0.12519335902E+03  0.12607803331E+03  0.00000000000E+00 0. -1.
<mgrwt>
<rscale>  0 0.82109613E+02</rscale>
<asrwt>0</asrwt>
<pdfrwt beam="1">  1        2 0.73901391E-01 0.82109613E+02</pdfrwt>
<pdfrwt beam="2">  1       -1 0.53981966E-03 0.82109613E+02</pdfrwt>
<totfact> 0.28085966E+05</totfact>
</mgrwt>
</event>
<event>
 8    1  0.2603554E-024  0.8039712E+02  0.7818608E-02  0.1327928E+00
          2   -1    0    0  501    0  0.00000000000E+00  0.00000000000E+00  0.90051560773E+03  0.90051560774E+03  0.25500000000E-02 0. -1.
         -1   -1    0    0    0  501 -0.00000000000E+00 -0.00000000000E+00 -0.17944396764E+01  0.17944467542E+01  0.50400000000E-02 0.  1.
         24    2    1    2    0    0  0.35527136788E-14  0.00000000000E+00  0.89872116806E+03  0.90231005449E+03  0.80397117623E+02 0.  0.
         66    2    3    3    0    0 -0.27836899738E+02  0.86039601519E+01  0.76005487854E+03  0.76061576339E+03  0.20000031291E+01 0.  0.
        -13    1    3    3    0    0  0.27836899738E+02 -0.86039601519E+01  0.13866628952E+03  0.14169429110E+03  0.10566000000E+00 0.  1.
         13    1    4    4    0    0 -0.63629037128E+01  0.24184008664E+01  0.17079751220E+03  0.17093313472E+03  0.10566000000E+00 0. -1.
        -13    1    4    4    0    0 -0.29228992463E+01  0.11792319721E+01  0.92755391943E+02  0.92808985700E+02  0.10566000000E+00 0.  1.
        -14    1    4    4    0    0 -0.18551096779E+02  0.50063273134E+01  0.49650197439E+03  0.49687364297E+03  0.00000000000E+00 0.  1.
<mgrwt>
<rscale>  0 0.80397118E+02</rscale>
<asrwt>0</asrwt>
<pdfrwt beam="1">  1        2 0.13854036E+00 0.80397118E+02</pdfrwt>
<pdfrwt beam="2">  1       -1 0.27606919E-03 0.80397118E+02</pdfrwt>
<totfact> 0.34502155E+05</totfact>
</mgrwt>
</event>
<event>
 8    1  0.2603554E-024  0.7960216E+02  0.7818608E-02  0.1330184E+00
         -1   -1    0    0    0  501 -0.00000000000E+00  0.00000000000E+00  0.21212595545E+02  0.21212596144E+02  0.50400000000E-02 0.  1.
          2   -1    0    0  501    0  0.00000000000E+00 -0.00000000000E+00 -0.74678552222E+02  0.74678552265E+02  0.25500000000E-02 0. -1.
         24    2    1    2    0    0  0.00000000000E+00  0.88817841970E-15 -0.53465956676E+02  0.95891148409E+02  0.79602159644E+02 0.  0.
         66    2    3    3    0    0 -0.20820499405E+02 -0.49354760088E+01 -0.67141193562E+02  0.70496751649E+02  0.20000003127E+01 0.  0.
        -13    1    3    3    0    0  0.20820499405E+02  0.49354760088E+01  0.13675236886E+02  0.25394396760E+02  0.10566000000E+00 0.  1.
         13    1    4    4    0    0 -0.62067848706E+01 -0.11129065746E+01 -0.18787961873E+02  0.19818209174E+02  0.10566000000E+00 0. -1.
        -13    1    4    4    0    0 -0.27877426134E+01 -0.68840163215E+00 -0.11205477982E+02  0.11568029501E+02  0.10566000000E+00 0.  1.
         14    1    4    4    0    0 -0.11825971921E+02 -0.31341678021E+01 -0.37147753707E+02  0.39110512974E+02  0.00000000000E+00 0. -1.
<mgrwt>
<rscale>  0 0.79602160E+02</rscale>
<asrwt>0</asrwt>
<pdfrwt beam="1">  1        2 0.11489008E-01 0.79602160E+02</pdfrwt>
<pdfrwt beam="2">  1       -1 0.32634763E-02 0.79602160E+02</pdfrwt>
<totfact> 0.16629202E+05</totfact>
</mgrwt>
</event>
<event>
 8    1  0.2603554E-024  0.8257935E+02  0.7818608E-02  0.1321887E+00
         -1   -1    0    0    0  501 -0.00000000000E+00  0.00000000000E+00  0.32637141743E+01  0.32637180658E+01  0.50400000000E-02 0.  1.
          2   -1    0    0  501    0  0.00000000000E+00 -0.00000000000E+00 -0.52236076399E+03  0.52236076400E+03  0.25500000000E-02 0. -1.
         24    2    1    2    0    0  0.00000000000E+00  0.35527136788E-14 -0.51909704982E+03  0.52562448206E+03  0.82579349814E+02 0.  0.
         66    2    3    3    0    0  0.23728417766E+02  0.26470832897E+02 -0.39307724580E+03  0.39468653885E+03  0.19999953007E+01 0.  0.
        -13    1    3    3    0    0 -0.23728417766E+02 -0.26470832897E+02 -0.12601980402E+03  0.13093794321E+03  0.10566000000E+00 0.  1.
         13    1    4    4    0    0  0.17112719124E+02  0.19476743898E+02 -0.28192861134E+03  0.28311824696E+03  0.10566000000E+00 0. -1.
        -13    1    4    4    0    0  0.18779395339E+01  0.16410540579E+01 -0.25521233700E+02  0.25643015598E+02  0.10566000000E+00 0.  1.
         14    1    4    4    0    0  0.47377591081E+01  0.53530349405E+01 -0.85627400764E+02  0.85925276293E+02  0.00000000000E+00 0. -1.
<mgrwt>
<rscale>  0 0.82579350E+02</rscale>
<asrwt>0</asrwt>
<pdfrwt beam="1">  1        2 0.80363128E-01 0.82579350E+02</pdfrwt>
<pdfrwt beam="2">  1       -1 0.50211059E-03 0.82579350E+02</pdfrwt>
<totfact> 0.28419946E+05</totfact>
</mgrwt>
</event>
<event>
 8    1  0.2603554E-024  0.8131859E+02  0.7818608E-02  0.1325351E+00
          2   -1    0    0  501    0  0.00000000000E+00  0.00000000000E+00  0.21378930168E+02  0.21378930320E+02  0.25500000000E-02 0. -1.
         -1   -1    0    0    0  501 -0.00000000000E+00 -0.00000000000E+00 -0.77327457529E+02  0.77327457693E+02  0.50400000000E-02 0.  1.
         24    2    1    2    0    0  0.00000000000E+00  0.00000000000E+00 -0.55948527361E+02  0.98706388013E+02  0.81318591482E+02 0.  0.
         66    2    3    3    0    0  0.36051018831E+02  0.79670468883E+01 -0.48591242106E+02  0.61059467750E+02  0.19999994069E+01 0.  0.
        -13    1    3    3    0    0 -0.36051018831E+02 -0.79670468883E+01 -0.73572852550E+01  0.37646920263E+02  0.10566000000E+00 0.  1.
         13    1    4    4    0    0  0.14839242315E+02  0.27292610675E+01 -0.20841962122E+02  0.25730342547E+02  0.10566000000E+00 0. -1.
        -13    1    4    4    0    0  0.45155406839E+01  0.13261718130E+01 -0.55385639777E+01  0.72688165692E+01  0.10566000000E+00 0.  1.
        -14    1    4    4    0    0  0.16696235833E+02  0.39116140079E+01 -0.22210716006E+02  0.28060308634E+02  0.00000000000E+00 0.  1.
<mgrwt>
<rscale>  0 0.81318591E+02</rscale>
<asrwt>0</asrwt>
<pdfrwt beam="1">  1        2 0.32890662E-02 0.81318591E+02</pdfrwt>
<pdfrwt beam="2">  1       -1 0.11896532E-01 0.81318591E+02</pdfrwt>
<totfact> 0.12007814E+05</totfact>
</mgrwt>
</event>
<event>
 8    1  0.2603554E-024  0.8032623E+02  0.7818608E-02  0.1328128E+00
         -1   -1    0    0    0  501 -0.00000000000E+00  0.00000000000E+00  0.93277821661E+01  0.93277835277E+01  0.50400000000E-02 0.  1.
          2   -1    0    0  501    0  0.00000000000E+00 -0.00000000000E+00 -0.17293238393E+03  0.17293238395E+03  0.25500000000E-02 0. -1.
         24    2    1    2    0    0  0.00000000000E+00  0.00000000000E+00 -0.16360460177E+03  0.18226016748E+03  0.80326228160E+02 0.  0.
         66    2    3    3    0    0  0.18983891083E+02  0.21278881355E+01 -0.16195063252E+03  0.16308563210E+03  0.19999991682E+01 0.  0.
        -13    1    3    3    0    0 -0.18983891083E+02 -0.21278881355E+01 -0.16539692476E+01  0.19174535376E+02  0.10566000000E+00 0.  1.
         13    1    4    4    0    0  0.16710186276E+02  0.15394932475E+01 -0.14417221244E+03  0.14514557647E+03  0.10566000000E+00 0. -1.
        -13    1    4    4    0    0  0.19734315071E+01  0.47401349753E+00 -0.16356936227E+02  0.16482707528E+02  0.10566000000E+00 0.  1.
         14    1    4    4    0    0  0.30027330035E+00  0.11438139053E+00 -0.14214838507E+01  0.14573481036E+01  0.00000000000E+00 0. -1.
<mgrwt>
<rscale>  0 0.80326228E+02</rscale>
<asrwt>0</asrwt>
<pdfrwt beam="1">  1        2 0.26604980E-01 0.80326228E+02</pdfrwt>
<pdfrwt beam="2">  1       -1 0.14350437E-02 0.80326228E+02</pdfrwt>
<totfact> 0.20764128E+05</totfact>
</mgrwt>
</event>
<event>
 8    1  0.2603554E-024  0.7696527E+02  0.7818608E-02  0.1337891E+00
          2   -1    0    0  501    0  0.00000000000E+00  0.00000000000E+00  0.80380801580E+03  0.80380801580E+03  0.25500000000E-02 0. -1.
         -1   -1    0    0    0  501 -0.00000000000E+00 -0.00000000000E+00 -0.18423684284E+01  0.18423753222E+01  0.50400000000E-02 0.  1.
         24    2    1    2    0    0  0.00000000000E+00  0.00000000000E+00  0.80196564737E+03  0.80565039112E+03  0.76965272413E+02 0.  0.
         66    2    3    3    0    0 -0.12217926989E+02  0.79616049991E+01  0.77373923746E+03  0.77387923637E+03  0.20000007511E+01 0.  0.
        -13    1    3    3    0    0  0.12217926989E+02 -0.79616049991E+01  0.28226409908E+02  0.31771154754E+02  0.10566000000E+00 0.  1.
         13    1    4    4    0    0 -0.14090156282E+01  0.81265345632E+00  0.81422755525E+02  0.81439069322E+02  0.10566000000E+00 0. -1.
        -13    1    4    4    0    0 -0.53059574673E+01  0.24261203682E+01  0.31036709366E+03  0.31042194387E+03  0.10566000000E+00 0.  1.
        -14    1    4    4    0    0 -0.55029538940E+01  0.47228311745E+01  0.38194938828E+03  0.38201822318E+03  0.00000000000E+00 0.  1.
<mgrwt>
<rscale>  0 0.76965272E+02</rscale>
<asrwt>0</asrwt>
<pdfrwt beam="1">  1        2 0.12366263E+00 0.76965272E+02</pdfrwt>
<pdfrwt beam="2">  1       -1 0.28344216E-03 0.76965272E+02</pdfrwt>
<totfact> 0.38020632E+05</totfact>
</mgrwt>
</event>
<event>
 8    1  0.2603554E-024  0.8097346E+02  0.7818608E-02  0.1326311E+00
          2   -1    0    0  501    0  0.00000000000E+00  0.00000000000E+00  0.36017254099E+02  0.36017254189E+02  0.25500000000E-02 0. -1.
         -1   -1    0    0    0  501 -0.00000000000E+00 -0.00000000000E+00 -0.45510829319E+02  0.45510829598E+02  0.50400000000E-02 0.  1.
         24    2    1    2    0    0  0.00000000000E+00 -0.71054273576E-14 -0.94935752203E+01  0.81528083787E+02  0.80973455376E+02 0.  0.
         66    2    3    3    0    0  0.16865804009E+02 -0.33802912884E+02  0.98436653971E+01  0.39089512852E+02  0.20000005647E+01 0.  0.
        -13    1    3    3    0    0 -0.16865804009E+02  0.33802912884E+02 -0.19337240617E+02  0.42438570935E+02  0.10566000000E+00 0.  1.
         13    1    4    4    0    0  0.19478545145E+01 -0.42287877855E+01  0.10746921609E+01  0.47794257627E+01  0.10566000000E+00 0.  1.
        -13    1    4    4    0    0  0.51426405611E+01 -0.10634253165E+02  0.39757861579E+01  0.12464033533E+02  0.10566000000E+00 0. -1.
         14    1    4    4    0    0  0.97753089338E+01 -0.18939871933E+02  0.47931870783E+01  0.21846053556E+02  0.00000000000E+00 0. -1.
<mgrwt>
<rscale>  0 0.80973455E+02</rscale>
<asrwt>0</asrwt>
<pdfrwt beam="1">  1        2 0.55411160E-02 0.80973455E+02</pdfrwt>
<pdfrwt beam="2">  1       -1 0.70016661E-02 0.80973455E+02</pdfrwt>
<totfact> 0.13492727E+05</totfact>
</mgrwt>
</event>
<event>
 8    1  0.2603554E-024  0.8048577E+02  0.7818608E-02  0.1327679E+00
         -1   -1    0    0    0  501 -0.00000000000E+00  0.00000000000E+00  0.47543345923E+01  0.47543372637E+01  0.50400000000E-02 0.  1.
          2   -1    0    0  501    0  0.00000000000E+00 -0.00000000000E+00 -0.34063424324E+03  0.34063424325E+03  0.25500000000E-02 0. -1.
         24    2    1    2    0    0  0.00000000000E+00  0.00000000000E+00 -0.33587990865E+03  0.34538858052E+03  0.80485765921E+02 0.  0.
         66    2    3    3    0    0  0.20441262919E+02  0.17323246290E+02 -0.29674979186E+03  0.29796372105E+03  0.19999996041E+01 0.  0.
        -13    1    3    3    0    0 -0.20441262919E+02 -0.17323246290E+02 -0.39130116789E+02  0.47424859470E+02  0.10566000000E+00 0.  1.
         13    1    4    4    0    0  0.90241428339E+01  0.82436021233E+01 -0.13805513931E+03  0.13859518311E+03  0.10566000000E+00 0. -1.
        -13    1    4    4    0    0  0.23904203918E+00  0.12906743362E+00 -0.20360169507E+01  0.20567762538E+01  0.10566000000E+00 0. -1.
         14    1    4    4    0    0  0.11178078045E+02  0.89505767335E+01 -0.15665863561E+03  0.15731176168E+03  0.00000000000E+00 0. -1.
<mgrwt>
<rscale>  0 0.80485766E+02</rscale>
<asrwt>0</asrwt>
<pdfrwt beam="1">  1        2 0.52405249E-01 0.80485766E+02</pdfrwt>
<pdfrwt beam="2">  1       -1 0.73143657E-03 0.80485766E+02</pdfrwt>
<totfact> 0.26269665E+05</totfact>
</mgrwt>
</event>
<event>
 8    1  0.2603554E-024  0.8039705E+02  0.7818608E-02  0.1327928E+00
          2   -1    0    0  501    0  0.00000000000E+00  0.00000000000E+00  0.78633832877E+01  0.78633837012E+01  0.25500000000E-02 0. -1.
         -1   -1    0    0    0  501 -0.00000000000E+00 -0.00000000000E+00 -0.20549952242E+03  0.20549952249E+03  0.50400000000E-02 0.  1.
         24    2    1    2    0    0  0.00000000000E+00  0.00000000000E+00 -0.19763613914E+03  0.21336290619E+03  0.80397053701E+02 0.  0.
         66    2    3    3    0    0 -0.34016575960E+02 -0.17684583161E+02 -0.67027738458E+02  0.77243703231E+02  0.20000111021E+01 0.  0.
        -13    1    3    3    0    0  0.34016575960E+02  0.17684583161E+02 -0.13060840068E+03  0.13611920296E+03  0.10566000000E+00 0.  1.
         13    1    4    4    0    0 -0.15379180925E+02 -0.79742541394E+01 -0.30870680378E+02  0.35399406860E+02  0.10566000000E+00 0. -1.
        -13    1    4    4    0    0 -0.18238047873E+02 -0.92870145119E+01 -0.35381946474E+02  0.40875033078E+02  0.10566000000E+00 0.  1.
        -14    1    4    4    0    0 -0.39934716201E+00 -0.42331451015E+00 -0.77511160542E+00  0.96926329301E+00  0.00000000000E+00 0.  1.
<mgrwt>
<rscale>  0 0.80397054E+02</rscale>
<asrwt>0</asrwt>
<pdfrwt beam="1">  1        2 0.12097515E-02 0.80397054E+02</pdfrwt>
<pdfrwt beam="2">  1       -1 0.31615307E-01 0.80397054E+02</pdfrwt>
<totfact> 0.97544636E+04</totfact>
</mgrwt>
</event>
<event>
 8    1  0.2603554E-024  0.8084383E+02  0.7818608E-02  0.1326674E+00
          2   -1    0    0  501    0  0.00000000000E+00  0.00000000000E+00  0.74739411047E+01  0.74739415397E+01  0.25500000000E-02 0. -1.
         -1   -1    0    0    0  501 -0.00000000000E+00 -0.00000000000E+00 -0.21861705630E+03  0.21861705636E+03  0.50400000000E-02 0.  1.
         24    2    1    2    0    0  0.00000000000E+00 -0.35527136788E-14 -0.21114311519E+03  0.22609099789E+03  0.80843826208E+02 0.  0.
         66    2    3    3    0    0  0.75802650990E+00 -0.31773232073E+02 -0.35898487181E+02  0.47987646744E+02  0.19999943882E+01 0.  0.
        -13    1    3    3    0    0 -0.75802650990E+00  0.31773232073E+02 -0.17524462801E+03  0.17810335115E+03  0.10566000000E+00 0.  1.
         13    1    4    4    0    0  0.81818926923E+00 -0.99664421999E+01 -0.12055215934E+02  0.15663294642E+02  0.10566000000E+00 0. -1.
        -13    1    4    4    0    0  0.18666496165E+00 -0.14920706772E+01 -0.17624647956E+01  0.23191733236E+01  0.10566000000E+00 0.  1.
         14    1    4    4    0    0 -0.24682772099E+00 -0.20314719196E+02 -0.22080806452E+02  0.30005178778E+02  0.00000000000E+00 0. -1.
<mgrwt>
<rscale>  0 0.80843826E+02</rscale>
<asrwt>0</asrwt>
<pdfrwt beam="1">  1        2 0.11498373E-02 0.80843826E+02</pdfrwt>
<pdfrwt beam="2">  1       -1 0.33633389E-01 0.80843826E+02</pdfrwt>
<totfact> 0.94321328E+04</totfact>
</mgrwt>
</event>
<event>
 8    1  0.2603554E-024  0.8009715E+02  0.7818608E-02  0.1328776E+00
         -1   -1    0    0    0  501 -0.00000000000E+00  0.00000000000E+00  0.13902883804E+02  0.13902884718E+02  0.50400000000E-02 0.  1.
          2   -1    0    0  501    0  0.00000000000E+00 -0.00000000000E+00 -0.11536370270E+03  0.11536370273E+03  0.25500000000E-02 0. -1.
         24    2    1    2    0    0 -0.88817841970E-15 -0.35527136788E-14 -0.10146081890E+03  0.12926658745E+03  0.80097146385E+02 0.  0.
         66    2    3    3    0    0 -0.79860300677E+01 -0.26415143383E+02 -0.97546075610E+02  0.10139414846E+03  0.19999996294E+01 0.  0.
        -13    1    3    3    0    0  0.79860300677E+01  0.26415143383E+02 -0.39147432888E+01  0.27872438990E+02  0.10566000000E+00 0.  1.
         13    1    4    4    0    0 -0.54285199712E+01 -0.15953140333E+02 -0.56836937575E+02  0.59282545091E+02  0.10566000000E+00 0. -1.
        -13    1    4    4    0    0 -0.46730972132E+00 -0.25069854959E+01 -0.95880236623E+01  0.99219310841E+01  0.10566000000E+00 0.  1.
        -14    1    4    4    0    0 -0.20902003751E+01 -0.79550175541E+01 -0.31121114373E+02  0.32189672283E+02  0.00000000000E+00 0.  1.
<mgrwt>
<rscale>  0 0.80097146E+02</rscale>
<asrwt>0</asrwt>
<pdfrwt beam="1">  1        2 0.17748261E-01 0.80097146E+02</pdfrwt>
<pdfrwt beam="2">  1       -1 0.21389054E-02 0.80097146E+02</pdfrwt>
<totfact> 0.18409396E+05</totfact>
</mgrwt>
</event>
<event>
 8    1  0.2603554E-024  0.8105588E+02  0.7818608E-02  0.1326081E+00
          2   -1    0    0  501    0  0.00000000000E+00  0.00000000000E+00  0.32875928008E+03  0.32875928009E+03  0.25500000000E-02 0. -1.
         -1   -1    0    0    0  501 -0.00000000000E+00 -0.00000000000E+00 -0.49960972089E+01  0.49960997511E+01  0.50400000000E-02 0.  1.
         24    2    1    2    0    0 -0.17763568394E-14  0.00000000000E+00  0.32376318287E+03  0.33375537984E+03  0.81055875727E+02 0.  0.
         66    2    3    3    0    0  0.13288553572E+02  0.97392458861E+01  0.31433484573E+03  0.31477267003E+03  0.19999974451E+01 0.  0.
        -13    1    3    3    0    0 -0.13288553572E+02 -0.97392458861E+01  0.94283371359E+01  0.18982709808E+02  0.10566000000E+00 0.  1.
         13    1    4    4    0    0  0.31966251662E+01  0.28253875073E+01  0.72051202330E+02  0.72177476738E+02  0.10566000000E+00 0. -1.
        -13    1    4    4    0    0  0.14480866891E+01  0.10407291985E+01  0.28062396586E+02  0.28119198753E+02  0.10566000000E+00 0.  1.
         14    1    4    4    0    0  0.86438417170E+01  0.58731291803E+01  0.21422124682E+03  0.21447599454E+03  0.00000000000E+00 0. -1.
<mgrwt>
<rscale>  0 0.81055876E+02</rscale>
<asrwt>0</asrwt>
<pdfrwt beam="1">  1        2 0.50578365E-01 0.81055876E+02</pdfrwt>
<pdfrwt beam="2">  1       -1 0.76863032E-03 0.81055876E+02</pdfrwt>
<totfact> 0.25461402E+05</totfact>
</mgrwt>
</event>
<event>
 8    1  0.2603554E-024  0.8111496E+02  0.7818608E-02  0.1325917E+00
         -1   -1    0    0    0  501 -0.00000000000E+00  0.00000000000E+00  0.68666555118E+01  0.68666573615E+01  0.50400000000E-02 0.  1.
          2   -1    0    0  501    0  0.00000000000E+00 -0.00000000000E+00 -0.23955020971E+03  0.23955020972E+03  0.25500000000E-02 0. -1.
         24    2    1    2    0    0  0.00000000000E+00  0.00000000000E+00 -0.23268355419E+03  0.24641686708E+03  0.81114955400E+02 0.  0.
         66    2    3    3    0    0  0.21253426182E+02 -0.72908214006E+01 -0.21889445790E+03  0.22005373863E+03  0.19999961029E+01 0.  0.
        -13    1    3    3    0    0 -0.21253426182E+02  0.72908214006E+01 -0.13789096296E+02  0.26363128454E+02  0.10566000000E+00 0.  1.
         13    1    4    4    0    0  0.91111549152E+00 -0.22352919728E+00 -0.10872846094E+02  0.10913754760E+02  0.10566000000E+00 0.  1.
        -13    1    4    4    0    0  0.75575574160E+01 -0.30328719355E+01 -0.71882087070E+02  0.72341969782E+02  0.10566000000E+00 0. -1.
         14    1    4    4    0    0  0.12784753274E+02 -0.40344202678E+01 -0.13613952473E+03  0.13679801409E+03  0.00000000000E+00 0. -1.
<mgrwt>
<rscale>  0 0.81114955E+02</rscale>
<asrwt>0</asrwt>
<pdfrwt beam="1">  1        2 0.36853872E-01 0.81114955E+02</pdfrwt>
<pdfrwt beam="2">  1       -1 0.10564089E-02 0.81114955E+02</pdfrwt>
<totfact> 0.22665718E+05</totfact>
</mgrwt>
</event>
<event>
 8    1  0.2603554E-024  0.8125492E+02  0.7818608E-02  0.1325527E+00
          2   -1    0    0  501    0  0.00000000000E+00  0.00000000000E+00  0.35484229992E+03  0.35484229993E+03  0.25500000000E-02 0. -1.
         -1   -1    0    0    0  501 -0.00000000000E+00 -0.00000000000E+00 -0.46516157775E+01  0.46516185079E+01  0.50400000000E-02 0.  1.
         24    2    1    2    0    0  0.00000000000E+00  0.00000000000E+00  0.35019068414E+03  0.35949391844E+03  0.81254920670E+02 0.  0.
         66    2    3    3    0    0  0.32492043348E+01  0.39870471543E+02  0.20597248238E+03  0.20983058721E+03  0.20000004728E+01 0.  0.
        -13    1    3    3    0    0 -0.32492043348E+01 -0.39870471543E+02  0.14421820176E+03  0.14966333123E+03  0.10566000000E+00 0.  1.
         13    1    4    4    0    0  0.12411062524E+01  0.16613682544E+02  0.86376490973E+02  0.87968540679E+02  0.10566000000E+00 0. -1.
        -13    1    4    4    0    0  0.15727357197E+00  0.70119386532E+01  0.33279267468E+02  0.34010481118E+02  0.10566000000E+00 0.  1.
         14    1    4    4    0    0  0.18508245105E+01  0.16244850345E+02  0.86316723938E+02  0.87851565413E+02  0.00000000000E+00 0. -1.
<mgrwt>
<rscale>  0 0.81254921E+02</rscale>
<asrwt>0</asrwt>
<pdfrwt beam="1">  1        2 0.54591119E-01 0.81254921E+02</pdfrwt>
<pdfrwt beam="2">  1       -1 0.71563347E-03 0.81254921E+02</pdfrwt>
<totfact> 0.26000599E+05</totfact>
</mgrwt>
</event>
<event>
 8    1  0.2603554E-024  0.7972048E+02  0.7818608E-02  0.1329847E+00
         -1   -1    0    0    0  501 -0.00000000000E+00  0.00000000000E+00  0.70592145754E+01  0.70592163746E+01  0.50400000000E-02 0.  1.
          2   -1    0    0  501    0  0.00000000000E+00 -0.00000000000E+00 -0.22507298970E+03  0.22507298971E+03  0.25500000000E-02 0. -1.
         24    2    1    2    0    0  0.00000000000E+00 -0.71054273576E-14 -0.21801377512E+03  0.23213220608E+03  0.79720480177E+02 0.  0.
         66    2    3    3    0    0 -0.20396935633E+02 -0.34201359420E+02 -0.10606916779E+03  0.11331564897E+03  0.19999943110E+01 0.  0.
        -13    1    3    3    0    0  0.20396935633E+02  0.34201359420E+02 -0.11194460733E+03  0.11881655711E+03  0.10566000000E+00 0.  1.
         13    1    4    4    0    0 -0.74429903680E+01 -0.12893845743E+02 -0.41681737707E+02  0.44260905842E+02  0.10566000000E+00 0. -1.
        -13    1    4    4    0    0 -0.40466051976E+01 -0.65301690818E+01 -0.21098389805E+02  0.22453760002E+02  0.10566000000E+00 0.  1.
        -14    1    4    4    0    0 -0.89073400671E+01 -0.14777344595E+02 -0.43289040277E+02  0.46600983128E+02  0.00000000000E+00 0.  1.
<mgrwt>
<rscale>  0 0.79720480E+02</rscale>
<asrwt>0</asrwt>
<pdfrwt beam="1">  1        2 0.34626608E-01 0.79720480E+02</pdfrwt>
<pdfrwt beam="2">  1       -1 0.10860333E-02 0.79720480E+02</pdfrwt>
<totfact> 0.23204597E+05</totfact>
</mgrwt>
</event>
<event>
 8    1  0.2603554E-024  0.8261013E+02  0.7818608E-02  0.1321803E+00
         -1   -1    0    0    0  501 -0.00000000000E+00  0.00000000000E+00  0.15575132025E+02  0.15575132841E+02  0.50400000000E-02 0.  1.
          2   -1    0    0  501    0  0.00000000000E+00 -0.00000000000E+00 -0.10954054213E+03  0.10954054216E+03  0.25500000000E-02 0. -1.
         24    2    1    2    0    0  0.00000000000E+00  0.00000000000E+00 -0.93965410106E+02  0.12511567500E+03  0.82610131550E+02 0.  0.
         66    2    3    3    0    0 -0.26577152917E+02  0.21245006193E+02 -0.82412914715E+02  0.89182867442E+02  0.19999970396E+01 0.  0.
        -13    1    3    3    0    0  0.26577152917E+02 -0.21245006193E+02 -0.11552495391E+02  0.35932807559E+02  0.10566000000E+00 0.  1.
         13    1    4    4    0    0 -0.66035032502E+01  0.58441015599E+01 -0.21467980043E+02  0.23208729164E+02  0.10566000000E+00 0. -1.
        -13    1    4    4    0    0 -0.85353664358E+01  0.74130153536E+01 -0.28090801833E+02  0.30280514997E+02  0.10566000000E+00 0.  1.
        -14    1    4    4    0    0 -0.11438283231E+02  0.79878892795E+01 -0.32854132838E+02  0.35693623282E+02  0.00000000000E+00 0.  1.
<mgrwt>
<rscale>  0 0.82610132E+02</rscale>
<asrwt>0</asrwt>
<pdfrwt beam="1">  1        2 0.16852391E-01 0.82610132E+02</pdfrwt>
<pdfrwt beam="2">  1       -1 0.23961743E-02 0.82610132E+02</pdfrwt>
<totfact> 0.16693108E+05</totfact>
</mgrwt>
</event>
<event>
 8    1  0.2603554E-024  0.7932096E+02  0.7818608E-02  0.1330990E+00
          2   -1    0    0  501    0  0.00000000000E+00  0.00000000000E+00  0.46272656121E+03  0.46272656122E+03  0.25500000000E-02 0. -1.
         -1   -1    0    0    0  501 -0.00000000000E+00 -0.00000000000E+00 -0.33993139320E+01  0.33993176683E+01  0.50400000000E-02 0.  1.
         24    2    1    2    0    0  0.00000000000E+00  0.35527136788E-14  0.45932724728E+03  0.46612587889E+03  0.79320961130E+02 0.  0.
         66    2    3    3    0    0 -0.21333525604E+02 -0.25926039872E+02  0.35358772986E+03  0.35518384192E+03  0.19999989204E+01 0.  0.
        -13    1    3    3    0    0  0.21333525604E+02  0.25926039872E+02  0.10573951742E+03  0.11094203697E+03  0.10566000000E+00 0.  1.
         13    1    4    4    0    0 -0.11548260575E+02 -0.15469410103E+02  0.20054031098E+03  0.20146734838E+03  0.10566000000E+00 0. -1.
        -13    1    4    4    0    0 -0.37082164812E+01 -0.37134152858E+01  0.56038926712E+02  0.56284214426E+02  0.10566000000E+00 0.  1.
         14    1    4    4    0    0 -0.60770485475E+01 -0.67432144834E+01  0.97008492166E+02  0.97432279112E+02  0.00000000000E+00 0. -1.
<mgrwt>
<rscale>  0 0.79320961E+02</rscale>
<asrwt>0</asrwt>
<pdfrwt beam="1">  1        2 0.71188656E-01 0.79320961E+02</pdfrwt>
<pdfrwt beam="2">  1       -1 0.52297200E-03 0.79320961E+02</pdfrwt>
<totfact> 0.30360764E+05</totfact>
</mgrwt>
</event>
<event>
 8    1  0.2603554E-024  0.7856827E+02  0.7818608E-02  0.1333164E+00
          2   -1    0    0  501    0  0.00000000000E+00  0.00000000000E+00  0.21722476775E+02  0.21722476924E+02  0.25500000000E-02 0. -1.
         -1   -1    0    0    0  501 -0.00000000000E+00 -0.00000000000E+00 -0.71043606725E+02  0.71043606904E+02  0.50400000000E-02 0.  1.
         24    2    1    2    0    0  0.00000000000E+00  0.00000000000E+00 -0.49321129950E+02  0.92766083828E+02  0.78568266172E+02 0.  0.
         66    2    3    3    0    0  0.28182251789E+02  0.18889441215E+02 -0.13537942969E+01  0.34012983833E+02  0.20000012243E+01 0.  0.
        -13    1    3    3    0    0 -0.28182251789E+02 -0.18889441215E+02 -0.47967335653E+02  0.58753099995E+02  0.10566000000E+00 0.  1.
         13    1    4    4    0    0  0.14120839053E+02  0.86447983894E+01 -0.18467376996E+00  0.16558257855E+02  0.10566000000E+00 0. -1.
        -13    1    4    4    0    0  0.39004129645E+01  0.24272351652E+01 -0.33692561487E+00  0.46075345627E+01  0.10566000000E+00 0.  1.
         14    1    4    4    0    0  0.10160999772E+02  0.78174076608E+01 -0.83219491210E+00  0.12847191415E+02  0.00000000000E+00 0. -1.
<mgrwt>
<rscale>  0 0.78568266E+02</rscale>
<asrwt>0</asrwt>
<pdfrwt beam="1">  1        2 0.33419196E-02 0.78568266E+02</pdfrwt>
<pdfrwt beam="2">  1       -1 0.10929786E-01 0.78568266E+02</pdfrwt>
<totfact> 0.13290615E+05</totfact>
</mgrwt>
</event>
<event>
 8    1  0.2603554E-024  0.8506592E+02  0.7818608E-02  0.1315260E+00
         -1   -1    0    0    0  501 -0.00000000000E+00  0.00000000000E+00  0.53053308468E+02  0.53053308707E+02  0.50400000000E-02 0.  1.
          2   -1    0    0  501    0  0.00000000000E+00 -0.00000000000E+00 -0.34098773881E+02  0.34098773976E+02  0.25500000000E-02 0. -1.
         24    2    1    2    0    0  0.00000000000E+00  0.00000000000E+00  0.18954534587E+02  0.87152082683E+02  0.85065922288E+02 0.  0.
         66    2    3    3    0    0 -0.91207320643E+01 -0.27719371193E+02 -0.22186679536E+02  0.36712396361E+02  0.20000012498E+01 0.  0.
        -13    1    3    3    0    0  0.91207320643E+01  0.27719371193E+02  0.41141214123E+02  0.50439686322E+02  0.10566000000E+00 0.  1.
         13    1    4    4    0    0 -0.70750006851E+00 -0.21020170351E+01 -0.23055147986E+01  0.32008740189E+01  0.10566000000E+00 0. -1.
        -13    1    4    4    0    0 -0.29444517309E+01 -0.10186151965E+02 -0.80010317657E+01  0.13283642618E+02  0.10566000000E+00 0.  1.
         14    1    4    4    0    0 -0.54687802649E+01 -0.15431202193E+02 -0.11880132972E+02  0.20227879724E+02  0.00000000000E+00 0. -1.
<mgrwt>
<rscale>  0 0.85065922E+02</rscale>
<asrwt>0</asrwt>
<pdfrwt beam="1">  1        2 0.52459652E-02 0.85065922E+02</pdfrwt>
<pdfrwt beam="2">  1       -1 0.81620475E-02 0.85065922E+02</pdfrwt>
<totfact> 0.11622329E+05</totfact>
</mgrwt>
</event>
<event>
 8    1  0.2603554E-024  0.8076591E+02  0.7818608E-02  0.1326892E+00
          2   -1    0    0  501    0  0.00000000000E+00  0.00000000000E+00  0.39238106923E+01  0.39238115209E+01  0.25500000000E-02 0. -1.
         -1   -1    0    0    0  501 -0.00000000000E+00 -0.00000000000E+00 -0.41561197694E+03  0.41561197697E+03  0.50400000000E-02 0.  1.
         24    2    1    2    0    0  0.00000000000E+00  0.00000000000E+00 -0.41168816625E+03  0.41953578849E+03  0.80765906154E+02 0.  0.
         66    2    3    3    0    0 -0.36812531421E+02 -0.16043053678E+02 -0.18503949085E+03  0.18935721594E+03  0.20000028448E+01 0.  0.
        -13    1    3    3    0    0  0.36812531421E+02  0.16043053678E+02 -0.22664867540E+03  0.23017857256E+03  0.10566000000E+00 0.  1.
         13    1    4    4    0    0 -0.86672387040E+01 -0.31000390103E+01 -0.41020419073E+02  0.42040661431E+02  0.10566000000E+00 0. -1.
        -13    1    4    4    0    0 -0.65336185866E+01 -0.25709527879E+01 -0.33117806939E+02  0.33854073175E+02  0.10566000000E+00 0.  1.
         14    1    4    4    0    0 -0.21611674131E+02 -0.10372061880E+02 -0.11090126484E+03  0.11346248133E+03  0.00000000000E+00 0. -1.
<mgrwt>
<rscale>  0 0.80765906E+02</rscale>
<asrwt>0</asrwt>
<pdfrwt beam="1">  1        2 0.60366358E-03 0.80765906E+02</pdfrwt>
<pdfrwt beam="2">  1       -1 0.63940269E-01 0.80765906E+02</pdfrwt>
<totfact> 0.72495859E+04</totfact>
</mgrwt>
</event>
<event>
 8    1  0.2603554E-024  0.8000744E+02  0.7818608E-02  0.1329030E+00
         -1   -1    0    0    0  501 -0.00000000000E+00  0.00000000000E+00  0.26469612505E+01  0.26469660487E+01  0.50400000000E-02 0.  1.
          2   -1    0    0  501    0  0.00000000000E+00 -0.00000000000E+00 -0.60457858211E+03  0.60457858212E+03  0.25500000000E-02 0. -1.
         24    2    1    2    0    0  0.00000000000E+00  0.71054273576E-14 -0.60193162086E+03  0.60722554816E+03  0.80007438108E+02 0.  0.
         66    2    3    3    0    0  0.24552647785E+02 -0.18242381874E+02 -0.49652887617E+03  0.49747416201E+03  0.19999978965E+01 0.  0.
        -13    1    3    3    0    0 -0.24552647785E+02  0.18242381874E+02 -0.10540274469E+03  0.10975138615E+03  0.10566000000E+00 0.  1.
         13    1    4    4    0    0  0.98651521756E+01 -0.67813866740E+01 -0.19367492680E+03  0.19404457443E+03  0.10566000000E+00 0. -1.
        -13    1    4    4    0    0  0.28044834456E+00 -0.56135235240E-01 -0.55096156909E+01  0.55180459889E+01  0.10566000000E+00 0.  1.
        -14    1    4    4    0    0  0.14407047265E+02 -0.11404859965E+02 -0.29734433368E+03  0.29791154159E+03  0.00000000000E+00 0.  1.
<mgrwt>
<rscale>  0 0.80007438E+02</rscale>
<asrwt>0</asrwt>
<pdfrwt beam="1">  1        2 0.93011980E-01 0.80007438E+02</pdfrwt>
<pdfrwt beam="2">  1       -1 0.40722566E-03 0.80007438E+02</pdfrwt>
<totfact> 0.32223579E+05</totfact>
</mgrwt>
</event>
<event>
 8    1  0.2603554E-024  0.8025645E+02  0.7818608E-02  0.1328325E+00
          2   -1    0    0  501    0  0.00000000000E+00  0.00000000000E+00  0.73097219672E+02  0.73097219717E+02  0.25500000000E-02 0. -1.
         -1   -1    0    0    0  501 -0.00000000000E+00 -0.00000000000E+00 -0.22029215605E+02  0.22029216181E+02  0.50400000000E-02 0.  1.
         24    2    1    2    0    0  0.00000000000E+00  0.00000000000E+00  0.51068004068E+02  0.95126435898E+02  0.80256450004E+02 0.  0.
         66    2    3    3    0    0 -0.11606647853E+02  0.23382942470E+02  0.61633650840E+02  0.66964043800E+02  0.19999933150E+01 0.  0.
        -13    1    3    3    0    0  0.11606647853E+02 -0.23382942470E+02 -0.10565646773E+02  0.28162392098E+02  0.10566000000E+00 0.  1.
         13    1    4    4    0    0 -0.12625641176E+01  0.33652397265E+01  0.82298922550E+01  0.89811578949E+01  0.10566000000E+00 0. -1.
        -13    1    4    4    0    0 -0.38781512789E+01  0.85933471669E+01  0.20894878404E+02  0.22923629303E+02  0.10566000000E+00 0.  1.
         14    1    4    4    0    0 -0.64659324561E+01  0.11424355576E+02  0.32508880182E+02  0.35059256603E+02  0.00000000000E+00 0. -1.
<mgrwt>
<rscale>  0 0.80256450E+02</rscale>
<asrwt>0</asrwt>
<pdfrwt beam="1">  1        2 0.11245726E-01 0.80256450E+02</pdfrwt>
<pdfrwt beam="2">  1       -1 0.33891102E-02 0.80256450E+02</pdfrwt>
<totfact> 0.16178925E+05</totfact>
</mgrwt>
</event>
<event>
 8    1  0.2603554E-024  0.7955284E+02  0.7818608E-02  0.1330325E+00
          2   -1    0    0  501    0  0.00000000000E+00  0.00000000000E+00  0.29308732351E+03  0.29308732352E+03  0.25500000000E-02 0. -1.
         -1   -1    0    0    0  501 -0.00000000000E+00 -0.00000000000E+00 -0.53982663399E+01  0.53982686927E+01  0.50400000000E-02 0.  1.
         24    2    1    2    0    0  0.00000000000E+00  0.00000000000E+00  0.28768905717E+03  0.29848559221E+03  0.79552844976E+02 0.  0.
         66    2    3    3    0    0  0.19355222937E+01 -0.38191716772E+02  0.18465916749E+03  0.18858780876E+03  0.19999995788E+01 0.  0.
        -13    1    3    3    0    0 -0.19355222937E+01  0.38191716772E+02  0.10302988968E+03  0.10989778346E+03  0.10566000000E+00 0.  1.
         13    1    4    4    0    0  0.12436620424E+01 -0.15460177914E+02  0.76977364705E+02  0.78524452480E+02  0.10566000000E+00 0. -1.
        -13    1    4    4    0    0  0.89716333302E+00 -0.10549556823E+02  0.50347773487E+02  0.51449076866E+02  0.10566000000E+00 0.  1.
        -14    1    4    4    0    0 -0.20530308179E+00 -0.12181982035E+02  0.57334029295E+02  0.58614279411E+02  0.00000000000E+00 0.  1.
<mgrwt>
<rscale>  0 0.79552845E+02</rscale>
<asrwt>0</asrwt>
<pdfrwt beam="1">  1        2 0.45090354E-01 0.79552845E+02</pdfrwt>
<pdfrwt beam="2">  1       -1 0.83050276E-03 0.79552845E+02</pdfrwt>
<totfact> 0.25654412E+05</totfact>
</mgrwt>
</event>
<event>
 8    1  0.2603554E-024  0.8025194E+02  0.7818608E-02  0.1328338E+00
          2   -1    0    0  501    0  0.00000000000E+00  0.00000000000E+00  0.40863978664E+03  0.40863978665E+03  0.25500000000E-02 0. -1.
         -1   -1    0    0    0  501 -0.00000000000E+00 -0.00000000000E+00 -0.39401271476E+01  0.39401303710E+01  0.50400000000E-02 0.  1.
         24    2    1    2    0    0  0.00000000000E+00  0.88817841970E-15  0.40469965949E+03  0.41257991702E+03  0.80251937883E+02 0.  0.
         66    2    3    3    0    0  0.34571797965E+02  0.73754356564E+01  0.29981403046E+03  0.30189743147E+03  0.20000005324E+01 0.  0.
        -13    1    3    3    0    0 -0.34571797965E+02 -0.73754356564E+01  0.10488562903E+03  0.11068248555E+03  0.10566000000E+00 0.  1.
         13    1    4    4    0    0  0.19793236594E+02  0.40293320810E+01  0.16323644569E+03  0.16448147646E+03  0.10566000000E+00 0. -1.
        -13    1    4    4    0    0  0.78772576881E+01  0.16370418075E+01  0.72745359888E+02  0.73188999473E+02  0.10566000000E+00 0.  1.
         14    1    4    4    0    0  0.69013036828E+01  0.17090617680E+01  0.63832224878E+02  0.64226955536E+02  0.00000000000E+00 0. -1.
<mgrwt>
<rscale>  0 0.80251938E+02</rscale>
<asrwt>0</asrwt>
<pdfrwt beam="1">  1        2 0.62867655E-01 0.80251938E+02</pdfrwt>
<pdfrwt beam="2">  1       -1 0.60617370E-03 0.80251938E+02</pdfrwt>
<totfact> 0.28231982E+05</totfact>
</mgrwt>
</event>
<event>
 8    1  0.2603554E-024  0.7832326E+02  0.7818608E-02  0.1333878E+00
          2   -1    0    0  501    0  0.00000000000E+00  0.00000000000E+00  0.11160626071E+04  0.11160626071E+04  0.25500000000E-02 0. -1.
         -1   -1    0    0    0  501 -0.00000000000E+00 -0.00000000000E+00 -0.13741417338E+01  0.13741509765E+01  0.50400000000E-02 0.  1.
         24    2    1    2    0    0  0.00000000000E+00  0.00000000000E+00  0.11146884654E+04  0.11174367581E+04  0.78323262742E+02 0.  0.
         66    2    3    3    0    0  0.45078776063E+01  0.21778915930E+02  0.10171359358E+04  0.10173810270E+04  0.19999992888E+01 0.  0.
        -13    1    3    3    0    0 -0.45078776063E+01 -0.21778915930E+02  0.97552529563E+02  0.10005573111E+03  0.10566000000E+00 0.  1.
         13    1    4    4    0    0  0.21325714276E+01  0.76390119193E+01  0.33529022736E+03  0.33538403374E+03  0.10566000000E+00 0.  1.
        -13    1    4    4    0    0  0.12360594620E+01  0.58724205190E+01  0.26923803714E+03  0.26930492935E+03  0.10566000000E+00 0. -1.
        -14    1    4    4    0    0  0.11392467167E+01  0.82674834921E+01  0.41260767130E+03  0.41269206387E+03  0.00000000000E+00 0.  1.
<mgrwt>
<rscale>  0 0.78323263E+02</rscale>
<asrwt>0</asrwt>
<pdfrwt beam="1">  1        2 0.17170132E+00 0.78323263E+02</pdfrwt>
<pdfrwt beam="2">  1       -1 0.21140789E-03 0.78323263E+02</pdfrwt>
<totfact> 0.37222086E+05</totfact>
</mgrwt>
</event>
<event>
 8    1  0.2603554E-024  0.7955698E+02  0.7818608E-02  0.1330313E+00
          2   -1    0    0  501    0  0.00000000000E+00  0.00000000000E+00  0.21374526743E+03  0.21374526744E+03  0.25500000000E-02 0. -1.
         -1   -1    0    0    0  501 -0.00000000000E+00 -0.00000000000E+00 -0.74028674958E+01  0.74028692114E+01  0.50400000000E-02 0.  1.
         24    2    1    2    0    0  0.00000000000E+00  0.44408920985E-15  0.20634239993E+03  0.22114813665E+03  0.79556975408E+02 0.  0.
         66    2    3    3    0    0 -0.32426338371E+02  0.22383012311E+01  0.16685813261E+03  0.17000621703E+03  0.19999998200E+01 0.  0.
        -13    1    3    3    0    0  0.32426338371E+02 -0.22383012311E+01  0.39484267321E+02  0.51141919620E+02  0.10566000000E+00 0.  1.
         13    1    4    4    0    0 -0.27918336694E+02  0.17642683165E+01  0.14182248181E+03  0.14455508873E+03  0.10566000000E+00 0. -1.
        -13    1    4    4    0    0 -0.37481483642E+01  0.30025458443E+00  0.21854890007E+02  0.22176251943E+02  0.10566000000E+00 0.  1.
         14    1    4    4    0    0 -0.75985331217E+00  0.17377833020E+00  0.31807607909E+01  0.32748763600E+01  0.00000000000E+00 0. -1.
<mgrwt>
<rscale>  0 0.79556975E+02</rscale>
<asrwt>0</asrwt>
<pdfrwt beam="1">  1        2 0.32883886E-01 0.79556975E+02</pdfrwt>
<pdfrwt beam="2">  1       -1 0.11389029E-02 0.79556975E+02</pdfrwt>
<totfact> 0.22909542E+05</totfact>
</mgrwt>
</event>
<event>
 8    1  0.3180413E-024  0.7757458E+02  0.7818608E-02  0.1336079E+00
          2   -1    0    0  501    0  0.00000000000E+00  0.00000000000E+00  0.85275502795E+03  0.85275502795E+03  0.25500000000E-02 0. -1.
         -1   -1    0    0    0  501 -0.00000000000E+00 -0.00000000000E+00 -0.17642240668E+01  0.17642312659E+01  0.50400000000E-02 0.  1.
         24    2    1    2    0    0 -0.17763568394E-14  0.00000000000E+00  0.85099080388E+03  0.85451925922E+03  0.77574584005E+02 0.  0.
         66    2    3    3    0    0  0.15031371974E+02 -0.72086308237E+00  0.81926007771E+03  0.81940071804E+03  0.20000022735E+01 0.  0.
        -13    1    3    3    0    0 -0.15031371974E+02  0.72086308237E+00  0.31730726171E+02  0.35118541177E+02  0.10566000000E+00 0.  1.
         13    1    4    4    0    0  0.75899849010E+01 -0.39550627634E-01  0.43009144101E+03  0.43015842224E+03  0.10566000000E+00 0. -1.
        -13    1    4    4    0    0  0.66313397837E+01 -0.71279507104E+00  0.36241489199E+03  0.36247627211E+03  0.10566000000E+00 0.  1.
        -14    1    4    4    0    0  0.81004728965E+00  0.31482616304E-01  0.26753744714E+02  0.26766023686E+02  0.00000000000E+00 0.  1.
<mgrwt>
<rscale>  0 0.77574584E+02</rscale>
<asrwt>0</asrwt>
<pdfrwt beam="1">  1        2 0.13119337E+00 0.77574584E+02</pdfrwt>
<pdfrwt beam="2">  1       -1 0.27141905E-03 0.77574584E+02</pdfrwt>
<totfact> 0.37595717E+05</totfact>
</mgrwt>
</event>
<event>
 8    1  0.2603554E-024  0.7882258E+02  0.7818608E-02  0.1332426E+00
         -1   -1    0    0    0  501 -0.00000000000E+00  0.00000000000E+00  0.36445913355E+03  0.36445913359E+03  0.50400000000E-02 0.  1.
          2   -1    0    0  501    0  0.00000000000E+00 -0.00000000000E+00 -0.42617938421E+01  0.42617946050E+01  0.25500000000E-02 0. -1.
         24    2    1    2    0    0  0.00000000000E+00  0.00000000000E+00  0.36019733971E+03  0.36872092819E+03  0.78822581489E+02 0.  0.
         66    2    3    3    0    0 -0.44226497080E+00  0.36780225675E+02  0.24608152724E+03  0.24882342855E+03  0.19999877674E+01 0.  0.
        -13    1    3    3    0    0  0.44226497080E+00 -0.36780225675E+02  0.11411581247E+03  0.11989749964E+03  0.10566000000E+00 0.  1.
         13    1    4    4    0    0  0.37807925566E+00  0.22057255952E+02  0.15143359068E+03  0.15303205231E+03  0.10566000000E+00 0. -1.
        -13    1    4    4    0    0 -0.84819852055E+00  0.12281065168E+02  0.79763796730E+02  0.80708230282E+02  0.10566000000E+00 0.  1.
         14    1    4    4    0    0  0.27854294091E-01  0.24419045549E+01  0.14884139825E+02  0.15083145960E+02  0.00000000000E+00 0. -1.
<mgrwt>
<rscale>  0 0.78822581E+02</rscale>
<asrwt>0</asrwt>
<pdfrwt beam="1">  1        2 0.65566027E-03 0.78822581E+02</pdfrwt>
<pdfrwt beam="2">  1       -1 0.56070668E-01 0.78822581E+02</pdfrwt>
<totfact> 0.82446848E+04</totfact>
</mgrwt>
</event>
<event>
 8    1  0.2603554E-024  0.8115837E+02  0.7818608E-02  0.1325796E+00
          2   -1    0    0  501    0  0.00000000000E+00  0.00000000000E+00  0.31272660721E+03  0.31272660722E+03  0.25500000000E-02 0. -1.
         -1   -1    0    0    0  501 -0.00000000000E+00 -0.00000000000E+00 -0.52655247507E+01  0.52655271627E+01  0.50400000000E-02 0.  1.
         24    2    1    2    0    0  0.00000000000E+00  0.00000000000E+00  0.30746108246E+03  0.31799213438E+03  0.81158365573E+02 0.  0.
         66    2    3    3    0    0  0.17249846369E+02 -0.17028250363E+02  0.28121814317E+03  0.28226789140E+03  0.19999892593E+01 0.  0.
        -13    1    3    3    0    0 -0.17249846369E+02  0.17028250363E+02  0.26242939290E+02  0.35724242984E+02  0.10566000000E+00 0.  1.
         13    1    4    4    0    0  0.11374831887E+02 -0.10978914657E+02  0.17682795060E+03  0.17753326067E+03  0.10566000000E+00 0. -1.
        -13    1    4    4    0    0  0.58639649230E+01 -0.58552176352E+01  0.10249076509E+03  0.10282527778E+03  0.10566000000E+00 0.  1.
        -14    1    4    4    0    0  0.11049558888E-01 -0.19411807064E+00  0.18994274766E+01  0.19093529419E+01  0.00000000000E+00 0.  1.
<mgrwt>
<rscale>  0 0.81158366E+02</rscale>
<asrwt>0</asrwt>
<pdfrwt beam="1">  1        2 0.48111784E-01 0.81158366E+02</pdfrwt>
<pdfrwt beam="2">  1       -1 0.81008096E-03 0.81158366E+02</pdfrwt>
<totfact> 0.24923094E+05</totfact>
</mgrwt>
</event>
<event>
 8    1  0.2603554E-024  0.8070486E+02  0.7818608E-02  0.1327063E+00
         -1   -1    0    0    0  501 -0.00000000000E+00  0.00000000000E+00  0.27543965837E+01  0.27544011948E+01  0.50400000000E-02 0.  1.
          2   -1    0    0  501    0  0.00000000000E+00 -0.00000000000E+00 -0.59117021552E+03  0.59117021553E+03  0.25500000000E-02 0. -1.
         24    2    1    2    0    0 -0.17763568394E-14  0.00000000000E+00 -0.58841581894E+03  0.59392461672E+03  0.80704859655E+02 0.  0.
         66    2    3    3    0    0  0.12418844407E+02  0.26772708856E+02 -0.49664048433E+03  0.49752062903E+03  0.20000005304E+01 0.  0.
        -13    1    3    3    0    0 -0.12418844407E+02 -0.26772708856E+02 -0.91775334609E+02  0.96403987689E+02  0.10566000000E+00 0.  1.
         13    1    4    4    0    0  0.80668672205E+01  0.17275583451E+02 -0.31306297158E+03  0.31364303829E+03  0.10566000000E+00 0. -1.
        -13    1    4    4    0    0  0.13399289463E+00  0.12614466851E+00 -0.51694687096E+01  0.51738223151E+01  0.10566000000E+00 0. -1.
        -14    1    4    4    0    0  0.42179842923E+01  0.93709807359E+01 -0.17840804404E+03  0.17870376843E+03  0.00000000000E+00 0.  1.
<mgrwt>
<rscale>  0 0.80704860E+02</rscale>
<asrwt>0</asrwt>
<pdfrwt beam="1">  1        2 0.90949163E-01 0.80704860E+02</pdfrwt>
<pdfrwt beam="2">  1       -1 0.42375415E-03 0.80704860E+02</pdfrwt>
<totfact> 0.31306875E+05</totfact>
</mgrwt>
</event>
<event>
 8    1  0.2603554E-024  0.7928801E+02  0.7818608E-02  0.1331084E+00
          2   -1    0    0  501    0  0.00000000000E+00  0.00000000000E+00  0.39550239121E+03  0.39550239122E+03  0.25500000000E-02 0. -1.
         -1   -1    0    0    0  501 -0.00000000000E+00 -0.00000000000E+00 -0.39737974093E+01  0.39738006054E+01  0.50400000000E-02 0.  1.
         24    2    1    2    0    0  0.35527136788E-14  0.00000000000E+00  0.39152859380E+03  0.39947619182E+03  0.79288007103E+02 0.  0.
         66    2    3    3    0    0 -0.28210459586E+02  0.24067499063E+01  0.33551555486E+03  0.33671398847E+03  0.19999997662E+01 0.  0.
        -13    1    3    3    0    0  0.28210459586E+02 -0.24067499063E+01  0.56013038940E+02  0.62762203359E+02  0.10566000000E+00 0.  1.
         13    1    4    4    0    0 -0.52051635476E+01  0.84561086632E+00  0.66447009201E+02  0.66656019841E+02  0.10566000000E+00 0. -1.
        -13    1    4    4    0    0 -0.11882407548E+01 -0.19093468136E+00  0.13658427641E+02  0.13711753418E+02  0.10566000000E+00 0.  1.
         14    1    4    4    0    0 -0.21817055283E+02  0.17520737214E+01  0.25541011802E+03  0.25634621521E+03  0.00000000000E+00 0. -1.
<mgrwt>
<rscale>  0 0.79288007E+02</rscale>
<asrwt>0</asrwt>
<pdfrwt beam="1">  1        2 0.60846528E-01 0.79288007E+02</pdfrwt>
<pdfrwt beam="2">  1       -1 0.61135364E-03 0.79288007E+02</pdfrwt>
<totfact> 0.28806705E+05</totfact>
</mgrwt>
</event>
<event>
 8    1  0.2603554E-024  0.8067217E+02  0.7818608E-02  0.1327155E+00
         -1   -1    0    0    0  501 -0.00000000000E+00  0.00000000000E+00  0.22607536623E+01  0.22607592802E+01  0.50400000000E-02 0.  1.
          2   -1    0    0  501    0  0.00000000000E+00 -0.00000000000E+00 -0.71967045055E+03  0.71967045055E+03  0.25500000000E-02 0. -1.
         24    2    1    2    0    0  0.00000000000E+00  0.00000000000E+00 -0.71740969688E+03  0.72193120983E+03  0.80672167102E+02 0.  0.
         66    2    3    3    0    0 -0.95536774591E+01 -0.22690933194E+02 -0.64456917635E+03  0.64504230427E+03  0.19999997997E+01 0.  0.
        -13    1    3    3    0    0  0.95536774591E+01  0.22690933194E+02 -0.72840520538E+02  0.76888905562E+02  0.10566000000E+00 0.  1.
         13    1    4    4    0    0 -0.47489840266E+01 -0.11213325615E+02 -0.32998508876E+03  0.33020972350E+03  0.10566000000E+00 0. -1.
        -13    1    4    4    0    0 -0.40816940242E+01 -0.88331808435E+01 -0.25451987599E+03  0.25470583768E+03  0.10566000000E+00 0.  1.
        -14    1    4    4    0    0 -0.72299940833E+00 -0.26444267361E+01 -0.60064211589E+02  0.60126743091E+02  0.00000000000E+00 0.  1.
<mgrwt>
<rscale>  0 0.80672167E+02</rscale>
<asrwt>0</asrwt>
<pdfrwt beam="1">  1        2 0.11071835E+00 0.80672167E+02</pdfrwt>
<pdfrwt beam="2">  1       -1 0.34780926E-03 0.80672167E+02</pdfrwt>
<totfact> 0.32935254E+05</totfact>
</mgrwt>
</event>
<event>
 8    1  0.2603554E-024  0.8268304E+02  0.7818608E-02  0.1321605E+00
          2   -1    0    0  501    0  0.00000000000E+00  0.00000000000E+00  0.45406493463E+02  0.45406493535E+02  0.25500000000E-02 0. -1.
         -1   -1    0    0    0  501 -0.00000000000E+00 -0.00000000000E+00 -0.37640457286E+02  0.37640457623E+02  0.50400000000E-02 0.  1.
         24    2    1    2    0    0  0.00000000000E+00  0.00000000000E+00  0.77660361774E+01  0.83046951158E+02  0.82683038035E+02 0.  0.
         66    2    3    3    0    0 -0.37325052371E+02  0.91502332245E+01  0.19125394392E+02  0.42972863699E+02  0.20000003255E+01 0.  0.
        -13    1    3    3    0    0  0.37325052371E+02 -0.91502332245E+01 -0.11359358214E+02  0.40074087459E+02  0.10566000000E+00 0.  1.
         13    1    4    4    0    0 -0.13732566701E+02  0.31043505115E+01  0.78575990708E+01  0.16123690877E+02  0.10566000000E+00 0. -1.
        -13    1    4    4    0    0 -0.38404506816E+01  0.12788291222E+01  0.17426462995E+01  0.44082247587E+01  0.10566000000E+00 0.  1.
         14    1    4    4    0    0 -0.19752034988E+02  0.47670535908E+01  0.95251490215E+01  0.22440948064E+02  0.00000000000E+00 0. -1.
<mgrwt>
<rscale>  0 0.82683038E+02</rscale>
<asrwt>0</asrwt>
<pdfrwt beam="1">  1        2 0.69856144E-02 0.82683038E+02</pdfrwt>
<pdfrwt beam="2">  1       -1 0.57908396E-02 0.82683038E+02</pdfrwt>
<totfact> 0.13364867E+05</totfact>
</mgrwt>
</event>
<event>
 8    1  0.2603554E-024  0.7885730E+02  0.7818608E-02  0.1332326E+00
          2   -1    0    0  501    0  0.00000000000E+00  0.00000000000E+00  0.34329824438E+02  0.34329824533E+02  0.25500000000E-02 0. -1.
         -1   -1    0    0    0  501 -0.00000000000E+00 -0.00000000000E+00 -0.45284773008E+02  0.45284773288E+02  0.50400000000E-02 0.  1.
         24    2    1    2    0    0 -0.17763568394E-14  0.35527136788E-14 -0.10954948569E+02  0.79614597821E+02  0.78857296987E+02 0.  0.
         66    2    3    3    0    0 -0.14888044015E+02  0.20797195379E+02  0.24780789926E+02  0.35668820321E+02  0.20000008792E+01 0.  0.
        -13    1    3    3    0    0  0.14888044015E+02 -0.20797195379E+02 -0.35735738496E+02  0.43945777500E+02  0.10566000000E+00 0.  1.
         13    1    4    4    0    0 -0.88831684457E+01  0.12712563836E+02  0.13841048748E+02  0.20787153614E+02  0.10566000000E+00 0. -1.
        -13    1    4    4    0    0 -0.34024181088E+01  0.49924702038E+01  0.67790787808E+01  0.90812048141E+01  0.10566000000E+00 0.  1.
         14    1    4    4    0    0 -0.26024574603E+01  0.30921613393E+01  0.41606623977E+01  0.58004618927E+01  0.00000000000E+00 0. -1.
<mgrwt>
<rscale>  0 0.78857297E+02</rscale>
<asrwt>0</asrwt>
<pdfrwt beam="1">  1        2 0.52815115E-02 0.78857297E+02</pdfrwt>
<pdfrwt beam="2">  1       -1 0.69668882E-02 0.78857297E+02</pdfrwt>
<totfact> 0.14384472E+05</totfact>
</mgrwt>
</event>
<event>
 8    1  0.2603554E-024  0.8088516E+02  0.7818608E-02  0.1326558E+00
          2   -1    0    0  501    0  0.00000000000E+00  0.00000000000E+00  0.36000168267E+03  0.36000168268E+03  0.25500000000E-02 0. -1.
         -1   -1    0    0    0  501 -0.00000000000E+00 -0.00000000000E+00 -0.45433173818E+01  0.45433201773E+01  0.50400000000E-02 0.  1.
         24    2    1    2    0    0  0.00000000000E+00  0.00000000000E+00  0.35545836529E+03  0.36454500286E+03  0.80885163375E+02 0.  0.
         66    2    3    3    0    0 -0.16663572054E+02 -0.23551898675E+02  0.30541123297E+03  0.30677742387E+03  0.20000017289E+01 0.  0.
        -13    1    3    3    0    0  0.16663572054E+02  0.23551898675E+02  0.50047132323E+02  0.57767578991E+02  0.10566000000E+00 0.  1.
         13    1    4    4    0    0 -0.34202111062E+01 -0.52743772476E+01  0.72078289470E+02  0.72351972166E+02  0.10566000000E+00 0. -1.
        -13    1    4    4    0    0 -0.86500239371E+01 -0.12834162501E+02  0.16231424099E+03  0.16305049106E+03  0.10566000000E+00 0.  1.
        -14    1    4    4    0    0 -0.45933370106E+01 -0.54433589258E+01  0.71018702505E+02  0.71374960643E+02  0.00000000000E+00 0.  1.
<mgrwt>
<rscale>  0 0.80885163E+02</rscale>
<asrwt>0</asrwt>
<pdfrwt beam="1">  1        2 0.55384880E-01 0.80885163E+02</pdfrwt>
<pdfrwt beam="2">  1       -1 0.69897206E-03 0.80885163E+02</pdfrwt>
<totfact> 0.26448766E+05</totfact>
</mgrwt>
</event>
<event>
 8    1  0.2603554E-024  0.8068627E+02  0.7818608E-02  0.1327115E+00
         -1   -1    0    0    0  501 -0.00000000000E+00  0.00000000000E+00  0.39134793747E+01  0.39134826201E+01  0.50400000000E-02 0.  1.
          2   -1    0    0  501    0  0.00000000000E+00 -0.00000000000E+00 -0.41588773135E+03  0.41588773136E+03  0.25500000000E-02 0. -1.
         24    2    1    2    0    0  0.00000000000E+00  0.00000000000E+00 -0.41197425198E+03  0.41980121398E+03  0.80686274959E+02 0.  0.
         66    2    3    3    0    0  0.33706225086E+02  0.96331072427E+01 -0.30973529519E+03  0.31171919969E+03  0.20000005488E+01 0.  0.
        -13    1    3    3    0    0 -0.33706225086E+02 -0.96331072427E+01 -0.10223895679E+03  0.10808201429E+03  0.10566000000E+00 0.  1.
         13    1    4    4    0    0  0.13713672431E+02  0.35041390531E+01 -0.12086758209E+03  0.12169357980E+03  0.10566000000E+00 0. -1.
        -13    1    4    4    0    0  0.73636748782E+01  0.25994925009E+01 -0.66230320543E+02  0.66689186472E+02  0.10566000000E+00 0.  1.
        -14    1    4    4    0    0  0.12628877776E+02  0.35294756886E+01 -0.12263739256E+03  0.12333643341E+03  0.00000000000E+00 0.  1.
<mgrwt>
<rscale>  0 0.80686275E+02</rscale>
<asrwt>0</asrwt>
<pdfrwt beam="1">  1        2 0.63982693E-01 0.80686275E+02</pdfrwt>
<pdfrwt beam="2">  1       -1 0.60207433E-03 0.80686275E+02</pdfrwt>
<totfact> 0.28006781E+05</totfact>
</mgrwt>
</event>
<event>
 8    1  0.2603554E-024  0.7725027E+02  0.7818608E-02  0.1337041E+00
          2   -1    0    0  501    0  0.00000000000E+00  0.00000000000E+00  0.73328675563E+03  0.73328675564E+03  0.25500000000E-02 0. -1.
         -1   -1    0    0    0  501 -0.00000000000E+00 -0.00000000000E+00 -0.20345365211E+01  0.20345427637E+01  0.50400000000E-02 0.  1.
         24    2    1    2    0    0  0.35527136788E-14  0.00000000000E+00  0.73125221911E+03  0.73532129840E+03  0.77250268130E+02 0.  0.
         66    2    3    3    0    0 -0.23132553172E+02  0.13784047185E+02  0.62910676533E+03  0.62968598297E+03  0.19999992443E+01 0.  0.
        -13    1    3    3    0    0  0.23132553172E+02 -0.13784047185E+02  0.10214545378E+03  0.10563531543E+03  0.10566000000E+00 0.  1.
         13    1    4    4    0    0 -0.11002140376E+02  0.68220080806E+01  0.29277401127E+03  0.29306009575E+03  0.10566000000E+00 0. -1.
        -13    1    4    4    0    0 -0.95440554387E+01  0.48558482017E+01  0.25486617652E+03  0.25509105699E+03  0.10566000000E+00 0.  1.
        -14    1    4    4    0    0 -0.25863573566E+01  0.21061909023E+01  0.81466577539E+02  0.81534830229E+02  0.00000000000E+00 0.  1.
<mgrwt>
<rscale>  0 0.77250268E+02</rscale>
<asrwt>0</asrwt>
<pdfrwt beam="1">  1        2 0.11281332E+00 0.77250268E+02</pdfrwt>
<pdfrwt beam="2">  1       -1 0.31300618E-03 0.77250268E+02</pdfrwt>
<totfact> 0.37005251E+05</totfact>
</mgrwt>
</event>
<event>
 8    1  0.2603554E-024  0.8014806E+02  0.7818608E-02  0.1328632E+00
          2   -1    0    0  501    0  0.00000000000E+00  0.00000000000E+00  0.25908024258E+02  0.25908024384E+02  0.25500000000E-02 0. -1.
         -1   -1    0    0    0  501 -0.00000000000E+00 -0.00000000000E+00 -0.61985737631E+02  0.61985737836E+02  0.50400000000E-02 0.  1.
         24    2    1    2    0    0  0.00000000000E+00  0.00000000000E+00 -0.36077713373E+02  0.87893762220E+02  0.80148063202E+02 0.  0.
         66    2    3    3    0    0  0.10732297888E+02 -0.29893352520E+02  0.87028084224E+01  0.32992933090E+02  0.20000041610E+01 0.  0.
        -13    1    3    3    0    0 -0.10732297888E+02  0.29893352520E+02 -0.44780521795E+02  0.54900829130E+02  0.10566000000E+00 0.  1.
         13    1    4    4    0    0  0.68899017308E+01 -0.21558111517E+02  0.63831645245E+01  0.23515502789E+02  0.10566000000E+00 0. -1.
        -13    1    4    4    0    0  0.34761021994E+01 -0.76362976057E+01  0.22371081311E+01  0.86840166081E+01  0.10566000000E+00 0.  1.
         14    1    4    4    0    0  0.36629395824E+00 -0.69894339728E+00  0.82535766801E-01  0.79341369363E+00  0.00000000000E+00 0. -1.
<mgrwt>
<rscale>  0 0.80148063E+02</rscale>
<asrwt>0</asrwt>
<pdfrwt beam="1">  1        2 0.39858499E-02 0.80148063E+02</pdfrwt>
<pdfrwt beam="2">  1       -1 0.95362673E-02 0.80148063E+02</pdfrwt>
<totfact> 0.13003899E+05</totfact>
</mgrwt>
</event>
<event>
 8    1  0.2603554E-024  0.7994064E+02  0.7818608E-02  0.1329220E+00
         -1   -1    0    0    0  501 -0.00000000000E+00  0.00000000000E+00  0.10525485795E+02  0.10525487002E+02  0.50400000000E-02 0.  1.
          2   -1    0    0  501    0  0.00000000000E+00 -0.00000000000E+00 -0.15178646039E+03  0.15178646042E+03  0.25500000000E-02 0. -1.
         24    2    1    2    0    0  0.00000000000E+00  0.00000000000E+00 -0.14126097460E+03  0.16231194742E+03  0.79940636286E+02 0.  0.
         66    2    3    3    0    0 -0.10629288864E+02  0.21426345438E+02 -0.13563332895E+03  0.13774058970E+03  0.20000171575E+01 0.  0.
        -13    1    3    3    0    0  0.10629288864E+02 -0.21426345438E+02 -0.56276456530E+01  0.24571357720E+02  0.10566000000E+00 0.  1.
         13    1    4    4    0    0 -0.42411645511E+01  0.10057121985E+02 -0.60749740881E+02  0.61722567676E+02  0.10566000000E+00 0. -1.
        -13    1    4    4    0    0 -0.98509093673E+00  0.15134314046E+01 -0.12462777903E+02  0.12593366344E+02  0.10566000000E+00 0.  1.
         14    1    4    4    0    0 -0.54030333765E+01  0.98557920485E+01 -0.62420810162E+02  0.63424655678E+02  0.00000000000E+00 0. -1.
<mgrwt>
<rscale>  0 0.79940636E+02</rscale>
<asrwt>0</asrwt>
<pdfrwt beam="1">  1        2 0.23351762E-01 0.79940636E+02</pdfrwt>
<pdfrwt beam="2">  1       -1 0.16193057E-02 0.79940636E+02</pdfrwt>
<totfact> 0.20146333E+05</totfact>
</mgrwt>
</event>
<event>
 8    1  0.2603554E-024  0.8259373E+02  0.7818608E-02  0.1321848E+00
          2   -1    0    0  501    0  0.00000000000E+00  0.00000000000E+00  0.53576227194E+02  0.53576227255E+02  0.25500000000E-02 0. -1.
         -1   -1    0    0    0  501 -0.00000000000E+00 -0.00000000000E+00 -0.31831861667E+02  0.31831862066E+02  0.50400000000E-02 0.  1.
         24    2    1    2    0    0  0.00000000000E+00  0.00000000000E+00  0.21744365527E+02  0.85408089321E+02  0.82593730327E+02 0.  0.
         66    2    3    3    0    0  0.23241699907E+02 -0.33670252730E+02  0.52560310206E+01  0.41297559146E+02  0.19999989619E+01 0.  0.
        -13    1    3    3    0    0 -0.23241699907E+02  0.33670252730E+02  0.16488334506E+02  0.44110530175E+02  0.10566000000E+00 0.  1.
         13    1    4    4    0    0  0.13113239462E+02 -0.19171253140E+02  0.36563515766E+01  0.23513274273E+02  0.10566000000E+00 0. -1.
        -13    1    4    4    0    0  0.49848437608E+01 -0.63289218453E+01  0.81338521786E+00  0.80979428617E+01  0.10566000000E+00 0.  1.
        -14    1    4    4    0    0  0.51436166841E+01 -0.81700777447E+01  0.78629422615E+00  0.96863420112E+01  0.00000000000E+00 0.  1.
<mgrwt>
<rscale>  0 0.82593730E+02</rscale>
<asrwt>0</asrwt>
<pdfrwt beam="1">  1        2 0.82424964E-02 0.82593730E+02</pdfrwt>
<pdfrwt beam="2">  1       -1 0.48972096E-02 0.82593730E+02</pdfrwt>
<totfact> 0.13902504E+05</totfact>
</mgrwt>
</event>
<event>
 8    1  0.2603554E-024  0.7925115E+02  0.7818608E-02  0.1331190E+00
          2   -1    0    0  501    0  0.00000000000E+00  0.00000000000E+00  0.17936086635E+03  0.17936086637E+03  0.25500000000E-02 0. -1.
         -1   -1    0    0    0  501 -0.00000000000E+00 -0.00000000000E+00 -0.87543411082E+01  0.87543425590E+01  0.50400000000E-02 0.  1.
         24    2    1    2    0    0  0.00000000000E+00  0.00000000000E+00  0.17060652524E+03  0.18811520893E+03  0.79251153775E+02 0.  0.
         66    2    3    3    0    0  0.14893571605E+02  0.57706269637E+01  0.17136983703E+03  0.17212419834E+03  0.19999999764E+01 0.  0.
        -13    1    3    3    0    0 -0.14893571605E+02 -0.57706269637E+01 -0.76331178741E+00  0.15991010588E+02  0.10566000000E+00 0.  1.
         13    1    4    4    0    0  0.82764492433E+00  0.18569210504E+00  0.57377001806E+01  0.58010210374E+01  0.10566000000E+00 0. -1.
        -13    1    4    4    0    0  0.46243538210E+01  0.18541072645E+01  0.51665337742E+02  0.51905111984E+02  0.10566000000E+00 0.  1.
         14    1    4    4    0    0  0.94415728593E+01  0.37308275942E+01  0.11396679911E+03  0.11441806532E+03  0.00000000000E+00 0. -1.
<mgrwt>
<rscale>  0 0.79251154E+02</rscale>
<asrwt>0</asrwt>
<pdfrwt beam="1">  1        2 0.27593977E-01 0.79251154E+02</pdfrwt>
<pdfrwt beam="2">  1       -1 0.13468220E-02 0.79251154E+02</pdfrwt>
<totfact> 0.21783465E+05</totfact>
</mgrwt>
</event>
<event>
 8    1  0.2603554E-024  0.7899957E+02  0.7818608E-02  0.1331915E+00
          2   -1    0    0  501    0  0.00000000000E+00  0.00000000000E+00  0.14023782334E+02  0.14023782566E+02  0.25500000000E-02 0. -1.
         -1   -1    0    0    0  501 -0.00000000000E+00 -0.00000000000E+00 -0.11125623204E+03  0.11125623216E+03  0.50400000000E-02 0.  1.
         24    2    1    2    0    0 -0.35527136788E-14 -0.35527136788E-14 -0.97232449708E+02  0.12528001472E+03  0.78999574761E+02 0.  0.
         66    2    3    3    0    0  0.26701457071E+02  0.28698357328E+02 -0.41265982522E+02  0.56951249649E+02  0.20000000105E+01 0.  0.
        -13    1    3    3    0    0 -0.26701457071E+02 -0.28698357328E+02 -0.55966467186E+02  0.68328765073E+02  0.10566000000E+00 0.  1.
         13    1    4    4    0    0  0.29934109587E+01  0.36832605009E+01 -0.50197796840E+01  0.69091438831E+01  0.10566000000E+00 0. -1.
        -13    1    4    4    0    0  0.36273182984E+01  0.39658582982E+01 -0.48530233139E+01  0.72421315509E+01  0.10566000000E+00 0. -1.
         14    1    4    4    0    0  0.20080727814E+02  0.21049238529E+02 -0.31393179524E+02  0.42799974215E+02  0.00000000000E+00 0. -1.
<mgrwt>
<rscale>  0 0.78999575E+02</rscale>
<asrwt>0</asrwt>
<pdfrwt beam="1">  1        2 0.21575051E-02 0.78999575E+02</pdfrwt>
<pdfrwt beam="2">  1       -1 0.17116343E-01 0.78999575E+02</pdfrwt>
<totfact> 0.11950974E+05</totfact>
</mgrwt>
</event>
<event>
 8    1  0.2603554E-024  0.8004343E+02  0.7818608E-02  0.1328928E+00
          2   -1    0    0  501    0  0.00000000000E+00  0.00000000000E+00  0.21015118589E+02  0.21015118744E+02  0.25500000000E-02 0. -1.
         -1   -1    0    0    0  501 -0.00000000000E+00 -0.00000000000E+00 -0.76218354249E+02  0.76218354416E+02  0.50400000000E-02 0.  1.
         24    2    1    2    0    0  0.35527136788E-14  0.00000000000E+00 -0.55203235660E+02  0.97233473160E+02  0.80043432431E+02 0.  0.
         66    2    3    3    0    0  0.25703806938E+02 -0.24907954759E+02 -0.59347282540E+01  0.36336109609E+02  0.19999901655E+01 0.  0.
        -13    1    3    3    0    0 -0.25703806938E+02  0.24907954759E+02 -0.49268507406E+02  0.60897363551E+02  0.10566000000E+00 0.  1.
         13    1    4    4    0    0  0.87404339670E+01 -0.74147869346E+01 -0.19529544030E+01  0.11627529667E+02  0.10566000000E+00 0. -1.
        -13    1    4    4    0    0  0.13198649953E+02 -0.13085684896E+02 -0.31962540316E+01  0.18859128125E+02  0.10566000000E+00 0.  1.
        -14    1    4    4    0    0  0.37647230184E+01 -0.44074829290E+01 -0.78551981942E+00  0.58494518172E+01  0.00000000000E+00 0.  1.
<mgrwt>
<rscale>  0 0.80043432E+02</rscale>
<asrwt>0</asrwt>
<pdfrwt beam="1">  1        2 0.32330952E-02 0.80043432E+02</pdfrwt>
<pdfrwt beam="2">  1       -1 0.11725901E-01 0.80043432E+02</pdfrwt>
<totfact> 0.12520720E+05</totfact>
</mgrwt>
</event>
<event>
 8    1  0.2603554E-024  0.7890653E+02  0.7818608E-02  0.1332183E+00
          2   -1    0    0  501    0  0.00000000000E+00  0.00000000000E+00  0.34673396271E+02  0.34673396365E+02  0.25500000000E-02 0. -1.
         -1   -1    0    0    0  501 -0.00000000000E+00 -0.00000000000E+00 -0.44892062582E+02  0.44892062865E+02  0.50400000000E-02 0.  1.
         24    2    1    2    0    0  0.00000000000E+00  0.00000000000E+00 -0.10218666311E+02  0.79565459230E+02  0.78906534338E+02 0.  0.
         66    2    3    3    0    0  0.16182092866E+00  0.10516982387E+02  0.33203688436E+02  0.34887218885E+02  0.20000027976E+01 0.  0.
        -13    1    3    3    0    0 -0.16182092866E+00 -0.10516982387E+02 -0.43422354747E+02  0.44678240345E+02  0.10566000000E+00 0.  1.
         13    1    4    4    0    0  0.42935183909E-01  0.65702367376E+01  0.21279340491E+02  0.22270863252E+02  0.10566000000E+00 0. -1.
        -13    1    4    4    0    0  0.13857695808E+00  0.21410435012E+01  0.46657384277E+01  0.51364919895E+01  0.10566000000E+00 0.  1.
        -14    1    4    4    0    0 -0.19691213332E-01  0.18057021481E+01  0.72586095176E+01  0.74798636432E+01  0.00000000000E+00 0.  1.
<mgrwt>
<rscale>  0 0.78906534E+02</rscale>
<asrwt>0</asrwt>
<pdfrwt beam="1">  1        2 0.53343686E-02 0.78906534E+02</pdfrwt>
<pdfrwt beam="2">  1       -1 0.69064712E-02 0.78906534E+02</pdfrwt>
<totfact> 0.14387963E+05</totfact>
</mgrwt>
</event>
<event>
 8    1  0.2603554E-024  0.8022007E+02  0.7818608E-02  0.1328428E+00
          2   -1    0    0  501    0  0.00000000000E+00  0.00000000000E+00  0.88726889847E+03  0.88726889848E+03  0.25500000000E-02 0. -1.
         -1   -1    0    0    0  501 -0.00000000000E+00 -0.00000000000E+00 -0.18132177592E+01  0.18132247637E+01  0.50400000000E-02 0.  1.
         24    2    1    2    0    0  0.00000000000E+00  0.00000000000E+00  0.88545568071E+03  0.88908212324E+03  0.80220068295E+02 0.  0.
         66    2    3    3    0    0  0.53811287793E+00  0.32335766483E+02  0.70548982938E+03  0.70623352421E+03  0.19999976155E+01 0.  0.
        -13    1    3    3    0    0 -0.53811287793E+00 -0.32335766483E+02  0.17996585133E+03  0.18284859903E+03  0.10566000000E+00 0.  1.
         13    1    4    4    0    0  0.14718705763E+00  0.69138606984E+00  0.13790453262E+02  0.13808962449E+02  0.10566000000E+00 0. -1.
        -13    1    4    4    0    0  0.61947955469E+00  0.14194639885E+02  0.29759110251E+03  0.29793010424E+03  0.10566000000E+00 0.  1.
         14    1    4    4    0    0 -0.22855373439E+00  0.17449740528E+02  0.39410827361E+03  0.39449445752E+03  0.00000000000E+00 0. -1.
<mgrwt>
<rscale>  0 0.80220068E+02</rscale>
<asrwt>0</asrwt>
<pdfrwt beam="1">  1        2 0.13650303E+00 0.80220068E+02</pdfrwt>
<pdfrwt beam="2">  1       -1 0.27895687E-03 0.80220068E+02</pdfrwt>
<totfact> 0.34641748E+05</totfact>
</mgrwt>
</event>
<event>
 8    1  0.2603554E-024  0.7773659E+02  0.7818608E-02  0.1335600E+00
         -1   -1    0    0    0  501 -0.00000000000E+00  0.00000000000E+00  0.19567121921E+02  0.19567122570E+02  0.50400000000E-02 0.  1.
          2   -1    0    0  501    0  0.00000000000E+00 -0.00000000000E+00 -0.77208304091E+02  0.77208304133E+02  0.25500000000E-02 0. -1.
         24    2    1    2    0    0  0.00000000000E+00  0.00000000000E+00 -0.57641182170E+02  0.96775426704E+02  0.77736589401E+02 0.  0.
         66    2    3    3    0    0  0.12683025108E+02  0.30057796377E+02 -0.55083680394E+02  0.64051089761E+02  0.20000012243E+01 0.  0.
        -13    1    3    3    0    0 -0.12683025108E+02 -0.30057796377E+02 -0.25575017759E+01  0.32724336942E+02  0.10566000000E+00 0.  1.
         13    1    4    4    0    0  0.44165334117E+01  0.97539810848E+01 -0.18371282008E+02  0.21264079595E+02  0.10566000000E+00 0. -1.
        -13    1    4    4    0    0  0.37197691175E+01  0.84071426671E+01 -0.14041226068E+02  0.16783441949E+02  0.10566000000E+00 0.  1.
        -14    1    4    4    0    0  0.45467225791E+01  0.11896672625E+02 -0.22671172318E+02  0.26003568218E+02  0.00000000000E+00 0.  1.
<mgrwt>
<rscale>  0 0.77736589E+02</rscale>
<asrwt>0</asrwt>
<pdfrwt beam="1">  1        2 0.11878201E-01 0.77736589E+02</pdfrwt>
<pdfrwt beam="2">  1       -1 0.30103265E-02 0.77736589E+02</pdfrwt>
<totfact> 0.17874958E+05</totfact>
</mgrwt>
</event>
<event>
 8    1  0.2603554E-024  0.7754858E+02  0.7818608E-02  0.1336156E+00
          2   -1    0    0  501    0  0.00000000000E+00  0.00000000000E+00  0.14017918864E+02  0.14017919096E+02  0.25500000000E-02 0. -1.
         -1   -1    0    0    0  501 -0.00000000000E+00 -0.00000000000E+00 -0.10725168487E+03  0.10725168499E+03  0.50400000000E-02 0.  1.
         24    2    1    2    0    0  0.00000000000E+00  0.00000000000E+00 -0.93233766009E+02  0.12126960409E+03  0.77548576720E+02 0.  0.
         66    2    3    3    0    0  0.31452076585E+01  0.18673917618E+02  0.62173522065E+01  0.20031549934E+02  0.19999984734E+01 0.  0.
        -13    1    3    3    0    0 -0.31452076585E+01 -0.18673917618E+02 -0.99451118216E+02  0.10123805415E+03  0.10566000000E+00 0.  1.
         13    1    4    4    0    0  0.15170376015E+01  0.75830130016E+01  0.23199768483E+01  0.80744625753E+01  0.10566000000E+00 0. -1.
        -13    1    4    4    0    0  0.12498582850E+01  0.79289056689E+01  0.34646834228E+01  0.87432766224E+01  0.10566000000E+00 0.  1.
        -14    1    4    4    0    0  0.37831177202E+00  0.31619989473E+01  0.43269193537E+00  0.32138107366E+01  0.00000000000E+00 0.  1.
<mgrwt>
<rscale>  0 0.77548577E+02</rscale>
<asrwt>0</asrwt>
<pdfrwt beam="1">  1        2 0.21566030E-02 0.77548577E+02</pdfrwt>
<pdfrwt beam="2">  1       -1 0.16500259E-01 0.77548577E+02</pdfrwt>
<totfact> 0.12618928E+05</totfact>
</mgrwt>
</event>
<event>
 8    1  0.2603554E-024  0.7937003E+02  0.7818608E-02  0.1330849E+00
         -1   -1    0    0    0  501 -0.00000000000E+00  0.00000000000E+00  0.10290865952E+02  0.10290867186E+02  0.50400000000E-02 0.  1.
          2   -1    0    0  501    0  0.00000000000E+00 -0.00000000000E+00 -0.15303863877E+03  0.15303863879E+03  0.25500000000E-02 0. -1.
         24    2    1    2    0    0  0.00000000000E+00  0.35527136788E-14 -0.14274777281E+03  0.16332950597E+03  0.79370025059E+02 0.  0.
         66    2    3    3    0    0  0.24639250311E+02 -0.22176690961E+02 -0.11622092694E+03  0.12087266914E+03  0.20000019618E+01 0.  0.
        -13    1    3    3    0    0 -0.24639250311E+02  0.22176690961E+02 -0.26526845872E+02  0.42456836833E+02  0.10566000000E+00 0.  1.
         13    1    4    4    0    0  0.10638255209E+02 -0.88334677047E+01 -0.47031627322E+02  0.49022318980E+02  0.10566000000E+00 0. -1.
        -13    1    4    4    0    0  0.27678754925E+01 -0.31976956857E+01 -0.14391218500E+02  0.15000157545E+02  0.10566000000E+00 0.  1.
        -14    1    4    4    0    0  0.11233119610E+02 -0.10145527570E+02 -0.54798081120E+02  0.56850192614E+02  0.00000000000E+00 0.  1.
<mgrwt>
<rscale>  0 0.79370025E+02</rscale>
<asrwt>0</asrwt>
<pdfrwt beam="1">  1        2 0.23544404E-01 0.79370025E+02</pdfrwt>
<pdfrwt beam="2">  1       -1 0.15832104E-02 0.79370025E+02</pdfrwt>
<totfact> 0.20587273E+05</totfact>
</mgrwt>
</event>
<event>
 8    1  0.2603554E-024  0.7954342E+02  0.7818608E-02  0.1330352E+00
          2   -1    0    0  501    0  0.00000000000E+00  0.00000000000E+00  0.13693919422E+03  0.13693919425E+03  0.25500000000E-02 0. -1.
         -1   -1    0    0    0  501 -0.00000000000E+00 -0.00000000000E+00 -0.11551030238E+02  0.11551031338E+02  0.50400000000E-02 0.  1.
         24    2    1    2    0    0  0.35527136788E-14  0.17763568394E-14  0.12538816398E+03  0.14849022558E+03  0.79543418500E+02 0.  0.
         66    2    3    3    0    0 -0.17710911766E+02 -0.13230146291E+02  0.12439595594E+03  0.12636086031E+03  0.19999997123E+01 0.  0.
        -13    1    3    3    0    0  0.17710911766E+02  0.13230146291E+02  0.99220804684E+00  0.22129365272E+02  0.10566000000E+00 0.  1.
         13    1    4    4    0    0 -0.12873641176E+02 -0.93464870079E+01  0.89421201880E+02  0.90825381729E+02  0.10566000000E+00 0. -1.
        -13    1    4    4    0    0 -0.33368955265E+00 -0.20639271705E+00  0.39315057733E+01  0.39524483997E+01  0.10566000000E+00 0.  1.
        -14    1    4    4    0    0 -0.45035810373E+01 -0.36772665661E+01  0.31043248285E+02  0.31583030185E+02  0.00000000000E+00 0.  1.
<mgrwt>
<rscale>  0 0.79543418E+02</rscale>
<asrwt>0</asrwt>
<pdfrwt beam="1">  1        2 0.21067569E-01 0.79543418E+02</pdfrwt>
<pdfrwt beam="2">  1       -1 0.17770816E-02 0.79543418E+02</pdfrwt>
<totfact> 0.19756676E+05</totfact>
</mgrwt>
</event>
<event>
 8    1  0.2603554E-024  0.8196072E+02  0.7818608E-02  0.1323578E+00
          2   -1    0    0  501    0  0.00000000000E+00  0.00000000000E+00  0.40169630880E+02  0.40169630961E+02  0.25500000000E-02 0. -1.
         -1   -1    0    0    0  501 -0.00000000000E+00 -0.00000000000E+00 -0.41807446488E+02  0.41807446792E+02  0.50400000000E-02 0.  1.
         24    2    1    2    0    0  0.00000000000E+00  0.00000000000E+00 -0.16378156077E+01  0.81977077753E+02  0.81960715205E+02 0.  0.
         66    2    3    3    0    0 -0.39298306596E+02  0.11529415471E+02 -0.11363102022E+01  0.41019209228E+02  0.20000005974E+01 0.  0.
        -13    1    3    3    0    0  0.39298306596E+02 -0.11529415471E+02 -0.50150540549E+00  0.40957868525E+02  0.10566000000E+00 0.  1.
         13    1    4    4    0    0 -0.18615077443E+02  0.58827082432E+01  0.26790785632E+00  0.19524607631E+02  0.10566000000E+00 0. -1.
        -13    1    4    4    0    0 -0.11471957249E+02  0.29151000237E+01 -0.97910070776E+00  0.11877432951E+02  0.10566000000E+00 0.  1.
         14    1    4    4    0    0 -0.92112719038E+01  0.27316072042E+01 -0.42511735078E+00  0.96171686460E+01  0.00000000000E+00 0. -1.
<mgrwt>
<rscale>  0 0.81960715E+02</rscale>
<asrwt>0</asrwt>
<pdfrwt beam="1">  1        2 0.61799432E-02 0.81960715E+02</pdfrwt>
<pdfrwt beam="2">  1       -1 0.64319149E-02 0.81960715E+02</pdfrwt>
<totfact> 0.13342318E+05</totfact>
</mgrwt>
</event>
<event>
 8    1  0.2603554E-024  0.8634941E+02  0.7818608E-02  0.1311941E+00
         -1   -1    0    0    0  501 -0.00000000000E+00  0.00000000000E+00  0.10477888427E+02  0.10477889640E+02  0.50400000000E-02 0.  1.
          2   -1    0    0  501    0  0.00000000000E+00 -0.00000000000E+00 -0.17790369594E+03  0.17790369596E+03  0.25500000000E-02 0. -1.
         24    2    1    2    0    0  0.71054273576E-14  0.00000000000E+00 -0.16742580751E+03  0.18838158560E+03  0.86349410949E+02 0.  0.
         66    2    3    3    0    0 -0.40686118856E+02 -0.51888457811E+01 -0.11300813690E+03  0.12023777864E+03  0.20000045034E+01 0.  0.
        -13    1    3    3    0    0  0.40686118856E+02  0.51888457811E+01 -0.54417670613E+02  0.68143806961E+02  0.10566000000E+00 0.  1.
         13    1    4    4    0    0 -0.25569187459E+01 -0.17612400852E+00 -0.80477532135E+01  0.84466767998E+01  0.10566000000E+00 0.  1.
        -13    1    4    4    0    0 -0.28740844775E+02 -0.32355600525E+01 -0.78652343713E+02  0.83801595109E+02  0.10566000000E+00 0. -1.
         14    1    4    4    0    0 -0.93883553354E+01 -0.17771617201E+01 -0.26308039974E+02  0.27989506729E+02  0.00000000000E+00 0. -1.
<mgrwt>
<rscale>  0 0.86349411E+02</rscale>
<asrwt>0</asrwt>
<pdfrwt beam="1">  1        2 0.27369797E-01 0.86349411E+02</pdfrwt>
<pdfrwt beam="2">  1       -1 0.16119831E-02 0.86349411E+02</pdfrwt>
<totfact> 0.17300524E+05</totfact>
</mgrwt>
</event>
<event>
 8    1  0.2603554E-024  0.7953574E+02  0.7818608E-02  0.1330374E+00
         -1   -1    0    0    0  501 -0.00000000000E+00  0.00000000000E+00  0.39073511424E+01  0.39073543929E+01  0.50400000000E-02 0.  1.
          2   -1    0    0  501    0  0.00000000000E+00 -0.00000000000E+00 -0.40474551916E+03  0.40474551916E+03  0.25500000000E-02 0. -1.
         24    2    1    2    0    0 -0.35527136788E-14  0.00000000000E+00 -0.40083816801E+03  0.40865287356E+03  0.79535741210E+02 0.  0.
         66    2    3    3    0    0 -0.29996997191E+02  0.25677301694E+02 -0.22371478514E+03  0.22718153260E+03  0.20000007755E+01 0.  0.
        -13    1    3    3    0    0  0.29996997191E+02 -0.25677301694E+02 -0.17712338288E+03  0.18147134096E+03  0.10566000000E+00 0.  1.
         13    1    4    4    0    0 -0.17981802935E+02  0.15129615111E+02 -0.13326253297E+03  0.13531875091E+03  0.10566000000E+00 0. -1.
        -13    1    4    4    0    0 -0.30515385530E+01  0.20521282079E+01 -0.21954108133E+02  0.22260214412E+02  0.10566000000E+00 0.  1.
         14    1    4    4    0    0 -0.89636557033E+01  0.84955583759E+01 -0.68498144033E+02  0.69602567277E+02  0.00000000000E+00 0. -1.
<mgrwt>
<rscale>  0 0.79535741E+02</rscale>
<asrwt>0</asrwt>
<pdfrwt beam="1">  1        2 0.62268509E-01 0.79535741E+02</pdfrwt>
<pdfrwt beam="2">  1       -1 0.60113152E-03 0.79535741E+02</pdfrwt>
<totfact> 0.28804565E+05</totfact>
</mgrwt>
</event>
<event>
 8    1  0.2603554E-024  0.7614042E+02  0.7818608E-02  0.1340375E+00
         -1   -1    0    0    0  501 -0.00000000000E+00  0.00000000000E+00  0.59189843434E+01  0.59189864892E+01  0.50400000000E-02 0.  1.
          2   -1    0    0  501    0  0.00000000000E+00 -0.00000000000E+00 -0.24486308303E+03  0.24486308305E+03  0.25500000000E-02 0. -1.
         24    2    1    2    0    0  0.35527136788E-14  0.35527136788E-14 -0.23894409869E+03  0.25078206953E+03  0.76140423573E+02 0.  0.
         66    2    3    3    0    0  0.14516386835E+02  0.23952480176E+02 -0.20435539515E+03  0.20627548159E+03  0.19999969731E+01 0.  0.
        -13    1    3    3    0    0 -0.14516386835E+02 -0.23952480176E+02 -0.34588703542E+02  0.44506587940E+02  0.10566000000E+00 0.  1.
         13    1    4    4    0    0  0.78769024567E+00  0.21996474765E+01 -0.16870978523E+02  0.17032321783E+02  0.10566000000E+00 0. -1.
        -13    1    4    4    0    0  0.18518558150E+01  0.23919697355E+01 -0.22086659222E+02  0.22293105858E+02  0.10566000000E+00 0.  1.
         14    1    4    4    0    0  0.11876840775E+02  0.19360862964E+02 -0.16539775740E+03  0.16695005395E+03  0.00000000000E+00 0. -1.
<mgrwt>
<rscale>  0 0.76140424E+02</rscale>
<asrwt>0</asrwt>
<pdfrwt beam="1">  1        2 0.37671236E-01 0.76140424E+02</pdfrwt>
<pdfrwt beam="2">  1       -1 0.91061334E-03 0.76140424E+02</pdfrwt>
<totfact> 0.26972881E+05</totfact>
</mgrwt>
</event>
<event>
 8    1  0.2603554E-024  0.7968417E+02  0.7818608E-02  0.1329950E+00
         -1   -1    0    0    0  501 -0.00000000000E+00  0.00000000000E+00  0.22326439584E+03  0.22326439590E+03  0.50400000000E-02 0.  1.
          2   -1    0    0  501    0  0.00000000000E+00 -0.00000000000E+00 -0.71099193989E+01  0.71099198562E+01  0.25500000000E-02 0. -1.
         24    2    1    2    0    0  0.00000000000E+00  0.00000000000E+00  0.21615447644E+03  0.23037431575E+03  0.79684174546E+02 0.  0.
         66    2    3    3    0    0 -0.12045233667E+02  0.35189020770E+02  0.67051720365E+02  0.76702594639E+02  0.19999958796E+01 0.  0.
        -13    1    3    3    0    0  0.12045233667E+02 -0.35189020770E+02  0.14910275608E+03  0.15367172111E+03  0.10566000000E+00 0.  1.
         13    1    4    4    0    0 -0.54783501309E+01  0.15747649925E+02  0.29490524087E+02  0.33877765176E+02  0.10566000000E+00 0. -1.
        -13    1    4    4    0    0 -0.19684072402E+01  0.77240980411E+01  0.13887576217E+02  0.16012877781E+02  0.10566000000E+00 0.  1.
        -14    1    4    4    0    0 -0.45984762964E+01  0.11717272803E+02  0.23673620061E+02  0.26811951682E+02  0.00000000000E+00 0.  1.
<mgrwt>
<rscale>  0 0.79684175E+02</rscale>
<asrwt>0</asrwt>
<pdfrwt beam="1">  1        2 0.10938338E-02 0.79684175E+02</pdfrwt>
<pdfrwt beam="2">  1       -1 0.34348367E-01 0.79684175E+02</pdfrwt>
<totfact> 0.97199253E+04</totfact>
</mgrwt>
</event>
<event>
 8    1  0.2603554E-024  0.7982374E+02  0.7818608E-02  0.1329552E+00
         -1   -1    0    0    0  501 -0.00000000000E+00  0.00000000000E+00  0.53142772104E+01  0.53142796004E+01  0.50400000000E-02 0.  1.
          2   -1    0    0  501    0  0.00000000000E+00 -0.00000000000E+00 -0.29975042841E+03  0.29975042842E+03  0.25500000000E-02 0. -1.
         24    2    1    2    0    0  0.00000000000E+00  0.00000000000E+00 -0.29443615120E+03  0.30506470802E+03  0.79823736739E+02 0.  0.
         66    2    3    3    0    0  0.21553410881E+01  0.38524237340E+02 -0.18594372642E+03  0.18991532784E+03  0.19999988371E+01 0.  0.
        -13    1    3    3    0    0 -0.21553410881E+01 -0.38524237340E+02 -0.10849242478E+03  0.11514938018E+03  0.10566000000E+00 0.  1.
         13    1    4    4    0    0  0.16032218165E+01  0.15840331514E+02 -0.74184840206E+02  0.75874159653E+02  0.10566000000E+00 0. -1.
        -13    1    4    4    0    0 -0.70419094416E-01  0.40504445319E+01 -0.20867619596E+02  0.21257463898E+02  0.10566000000E+00 0.  1.
         14    1    4    4    0    0  0.62253836604E+00  0.18633461294E+02 -0.90891266622E+02  0.92783704292E+02  0.00000000000E+00 0. -1.
<mgrwt>
<rscale>  0 0.79823737E+02</rscale>
<asrwt>0</asrwt>
<pdfrwt beam="1">  1        2 0.46115437E-01 0.79823737E+02</pdfrwt>
<pdfrwt beam="2">  1       -1 0.81758153E-03 0.79823737E+02</pdfrwt>
<totfact> 0.25634607E+05</totfact>
</mgrwt>
</event>
<event>
 8    1  0.2603554E-024  0.8003460E+02  0.7818608E-02  0.1328953E+00
          2   -1    0    0  501    0  0.00000000000E+00  0.00000000000E+00  0.33296243823E+03  0.33296243824E+03  0.25500000000E-02 0. -1.
         -1   -1    0    0    0  501 -0.00000000000E+00 -0.00000000000E+00 -0.48095025646E+01  0.48095052054E+01  0.50400000000E-02 0.  1.
         24    2    1    2    0    0  0.88817841970E-15 -0.17763568394E-14  0.32815293567E+03  0.33777194345E+03  0.80034596226E+02 0.  0.
         66    2    3    3    0    0 -0.53159601268E+01  0.14783881738E+02  0.31939001296E+03  0.31978243068E+03  0.19999996502E+01 0.  0.
        -13    1    3    3    0    0  0.53159601268E+01 -0.14783881738E+02  0.87629227046E+01  0.17989512769E+02  0.10566000000E+00 0.  1.
         13    1    4    4    0    0 -0.14649197966E+01  0.62337815327E+01  0.12974829102E+03  0.12990625931E+03  0.10566000000E+00 0. -1.
        -13    1    4    4    0    0 -0.99013173456E+00  0.17722294618E+01  0.49026183324E+02  0.49068309259E+02  0.10566000000E+00 0.  1.
        -14    1    4    4    0    0 -0.28609085956E+01  0.67778707436E+01  0.14061553862E+03  0.14080786211E+03  0.00000000000E+00 0.  1.
<mgrwt>
<rscale>  0 0.80034596E+02</rscale>
<asrwt>0</asrwt>
<pdfrwt beam="1">  1        2 0.51224991E-01 0.80034596E+02</pdfrwt>
<pdfrwt beam="2">  1       -1 0.73992367E-03 0.80034596E+02</pdfrwt>
<totfact> 0.26442098E+05</totfact>
</mgrwt>
</event>
<event>
 8    1  0.2603554E-024  0.7487597E+02  0.7818608E-02  0.1344256E+00
         -1   -1    0    0    0  501 -0.00000000000E+00  0.00000000000E+00  0.40717693123E+02  0.40717693435E+02  0.50400000000E-02 0.  1.
          2   -1    0    0  501    0  0.00000000000E+00 -0.00000000000E+00 -0.34422453367E+02  0.34422453461E+02  0.25500000000E-02 0. -1.
         24    2    1    2    0    0  0.00000000000E+00  0.35527136788E-14  0.62952397560E+01  0.75140146896E+02  0.74875974999E+02 0.  0.
         66    2    3    3    0    0  0.23430874445E+02  0.20150788519E+02 -0.18008594735E+02  0.35824149005E+02  0.20000031237E+01 0.  0.
        -13    1    3    3    0    0 -0.23430874445E+02 -0.20150788519E+02  0.24303834491E+02  0.39315997891E+02  0.10566000000E+00 0.  1.
         13    1    4    4    0    0  0.16460381613E+02  0.14142982091E+02 -0.12190585176E+02  0.24891557529E+02  0.10566000000E+00 0. -1.
        -13    1    4    4    0    0  0.17021491159E+01  0.20147979237E+01 -0.18349574955E+01  0.32148025339E+01  0.10566000000E+00 0.  1.
        -14    1    4    4    0    0  0.52683437161E+01  0.39930085042E+01 -0.39830520627E+01  0.77177889424E+01  0.00000000000E+00 0.  1.
<mgrwt>
<rscale>  0 0.74875975E+02</rscale>
<asrwt>0</asrwt>
<pdfrwt beam="1">  1        2 0.52957621E-02 0.74875975E+02</pdfrwt>
<pdfrwt beam="2">  1       -1 0.62642605E-02 0.74875975E+02</pdfrwt>
<totfact> 0.16608687E+05</totfact>
</mgrwt>
</event>
<event>
 8    1  0.2603554E-024  0.7978270E+02  0.7818608E-02  0.1329669E+00
         -1   -1    0    0    0  501 -0.00000000000E+00  0.00000000000E+00  0.59065877885E+00  0.59068028123E+00  0.50400000000E-02 0.  1.
          2   -1    0    0  501    0  0.00000000000E+00 -0.00000000000E+00 -0.26940946453E+04  0.26940946453E+04  0.25500000000E-02 0. -1.
         24    2    1    2    0    0  0.17763568394E-14  0.00000000000E+00 -0.26935039865E+04  0.26946853256E+04  0.79782695517E+02 0.  0.
         66    2    3    3    0    0  0.88867851621E+01 -0.89708225393E+01 -0.26247601162E+04  0.26247912523E+04  0.20000022128E+01 0.  0.
        -13    1    3    3    0    0 -0.88867851621E+01  0.89708225393E+01 -0.68743870279E+02  0.69894073229E+02  0.10566000000E+00 0.  1.
         13    1    4    4    0    0  0.28942153677E+01 -0.35242295683E+01 -0.92437060329E+03  0.92438185837E+03  0.10566000000E+00 0. -1.
        -13    1    4    4    0    0  0.17180907683E+01 -0.19610138199E+01 -0.43096829506E+03  0.43097619414E+03  0.10566000000E+00 0.  1.
        -14    1    4    4    0    0  0.42744790261E+01 -0.34855791511E+01 -0.12694212179E+04  0.12694331998E+04  0.00000000000E+00 0.  1.
<mgrwt>
<rscale>  0 0.79782696E+02</rscale>
<asrwt>0</asrwt>
<pdfrwt beam="1">  1        2 0.41446626E+00 0.79782696E+02</pdfrwt>
<pdfrwt beam="2">  1       -1 0.90874393E-04 0.79782696E+02</pdfrwt>
<totfact> 0.18487605E+05</totfact>
</mgrwt>
</event>
<event>
 8    1  0.2603554E-024  0.7750819E+02  0.7818608E-02  0.1336275E+00
         -1   -1    0    0    0  501 -0.00000000000E+00  0.00000000000E+00  0.11117017874E+03  0.11117017885E+03  0.50400000000E-02 0.  1.
          2   -1    0    0  501    0  0.00000000000E+00 -0.00000000000E+00 -0.13509737453E+02  0.13509737694E+02  0.25500000000E-02 0. -1.
         24    2    1    2    0    0  0.35527136788E-14 -0.35527136788E-14  0.97660441282E+02  0.12467991654E+03  0.77508191811E+02 0.  0.
         66    2    3    3    0    0 -0.21225545747E+02  0.24731365367E+02  0.15208189984E+02  0.36020178593E+02  0.19999995335E+01 0.  0.
        -13    1    3    3    0    0  0.21225545747E+02 -0.24731365367E+02  0.82452251298E+02  0.88659737950E+02  0.10566000000E+00 0.  1.
         13    1    4    4    0    0 -0.23484776488E+01  0.32858513260E+01  0.18248226545E+01  0.44332051565E+01  0.10566000000E+00 0.  1.
        -13    1    4    4    0    0 -0.49862783793E+01  0.67098787915E+01  0.38343173198E+01  0.91977496605E+01  0.10566000000E+00 0. -1.
         14    1    4    4    0    0 -0.13890789719E+02  0.14735635250E+02  0.95490500100E+01  0.22389223777E+02  0.00000000000E+00 0. -1.
<mgrwt>
<rscale>  0 0.77508192E+02</rscale>
<asrwt>0</asrwt>
<pdfrwt beam="1">  1        2 0.20784211E-02 0.77508192E+02</pdfrwt>
<pdfrwt beam="2">  1       -1 0.17103105E-01 0.77508192E+02</pdfrwt>
<totfact> 0.12536996E+05</totfact>
</mgrwt>
</event>
<event>
 8    1  0.2603554E-024  0.7933459E+02  0.7818608E-02  0.1330950E+00
          2   -1    0    0  501    0  0.00000000000E+00  0.00000000000E+00  0.77659102629E+03  0.77659102629E+03  0.25500000000E-02 0. -1.
         -1   -1    0    0    0  501 -0.00000000000E+00 -0.00000000000E+00 -0.20261526551E+01  0.20261589235E+01  0.50400000000E-02 0.  1.
         24    2    1    2    0    0 -0.35527136788E-14  0.17763568394E-14  0.77456487363E+03  0.77861718522E+03  0.79334593005E+02 0.  0.
         66    2    3    3    0    0 -0.22689476419E+02  0.12222700489E+02  0.68314712501E+03  0.68363601511E+03  0.19999994521E+01 0.  0.
        -13    1    3    3    0    0  0.22689476419E+02 -0.12222700489E+02  0.91417748619E+02  0.94981170102E+02  0.10566000000E+00 0.  1.
         13    1    4    4    0    0 -0.14336430471E+01  0.48104393035E+00  0.45431447995E+02  0.45456730708E+02  0.10566000000E+00 0. -1.
        -13    1    4    4    0    0 -0.80335569562E+01  0.50478601274E+01  0.25899136293E+03  0.25916511372E+03  0.10566000000E+00 0. -1.
         14    1    4    4    0    0 -0.13222276416E+02  0.66937964312E+01  0.37872431409E+03  0.37901417069E+03  0.00000000000E+00 0. -1.
<mgrwt>
<rscale>  0 0.79334593E+02</rscale>
<asrwt>0</asrwt>
<pdfrwt beam="1">  1        2 0.11947548E+00 0.79334593E+02</pdfrwt>
<pdfrwt beam="2">  1       -1 0.31171644E-03 0.79334593E+02</pdfrwt>
<totfact> 0.34932609E+05</totfact>
</mgrwt>
</event>
<event>
 8    1  0.2603554E-024  0.7965008E+02  0.7818608E-02  0.1330047E+00
          2   -1    0    0  501    0  0.00000000000E+00  0.00000000000E+00  0.20342557039E+02  0.20342557199E+02  0.25500000000E-02 0. -1.
         -1   -1    0    0    0  501 -0.00000000000E+00 -0.00000000000E+00 -0.77966285869E+02  0.77966286032E+02  0.50400000000E-02 0.  1.
         24    2    1    2    0    0 -0.35527136788E-14 -0.35527136788E-14 -0.57623728830E+02  0.98308843231E+02  0.79650075538E+02 0.  0.
         66    2    3    3    0    0  0.26730312282E+02  0.22346698393E+02 -0.52576055138E+02  0.63104089326E+02  0.19999980210E+01 0.  0.
        -13    1    3    3    0    0 -0.26730312282E+02 -0.22346698393E+02 -0.50476736923E+01  0.35204753905E+02  0.10566000000E+00 0.  1.
         13    1    4    4    0    0  0.24850220949E+02  0.20940729932E+02 -0.48973880224E+02  0.58774992637E+02  0.10566000000E+00 0. -1.
        -13    1    4    4    0    0  0.13416537108E+01  0.72745059180E+00 -0.24332934888E+01  0.28742477766E+01  0.10566000000E+00 0.  1.
         14    1    4    4    0    0  0.53843762274E+00  0.67851786906E+00 -0.11688814253E+01  0.14548489126E+01  0.00000000000E+00 0. -1.
<mgrwt>
<rscale>  0 0.79650076E+02</rscale>
<asrwt>0</asrwt>
<pdfrwt beam="1">  1        2 0.31296242E-02 0.79650076E+02</pdfrwt>
<pdfrwt beam="2">  1       -1 0.11994813E-01 0.79650076E+02</pdfrwt>
<totfact> 0.12615994E+05</totfact>
</mgrwt>
</event>
<event>
 8    1  0.2603554E-024  0.7447099E+02  0.7818608E-02  0.1345517E+00
          2   -1    0    0  501    0  0.00000000000E+00  0.00000000000E+00  0.25326559422E+03  0.25326559423E+03  0.25500000000E-02 0. -1.
         -1   -1    0    0    0  501 -0.00000000000E+00 -0.00000000000E+00 -0.54744186035E+01  0.54744209236E+01  0.50400000000E-02 0.  1.
         24    2    1    2    0    0 -0.41633363423E-16  0.00000000000E+00  0.24779117562E+03  0.25874001516E+03  0.74470992539E+02 0.  0.
         66    2    3    3    0    0 -0.11435814108E+00  0.10076469749E+02  0.24842978856E+03  0.24864212870E+03  0.19999998872E+01 0.  0.
        -13    1    3    3    0    0  0.11435814108E+00 -0.10076469749E+02 -0.63861294309E+00  0.10097886458E+02  0.10566000000E+00 0.  1.
         13    1    4    4    0    0 -0.80893021924E-01  0.43638624775E+01  0.11703276920E+03  0.11711417535E+03  0.10566000000E+00 0. -1.
        -13    1    4    4    0    0  0.26354100233E+00  0.19319832531E+01  0.32844055455E+02  0.32902053978E+02  0.10566000000E+00 0.  1.
        -14    1    4    4    0    0 -0.29700612149E+00  0.37806240186E+01  0.98552963907E+02  0.98625899365E+02  0.00000000000E+00 0.  1.
<mgrwt>
<rscale>  0 0.74470993E+02</rscale>
<asrwt>0</asrwt>
<pdfrwt beam="1">  1        2 0.38963941E-01 0.74470993E+02</pdfrwt>
<pdfrwt beam="2">  1       -1 0.84221835E-03 0.74470993E+02</pdfrwt>
<totfact> 0.28924946E+05</totfact>
</mgrwt>
</event>
<event>
 8    1  0.2603554E-024  0.8130227E+02  0.7818608E-02  0.1325396E+00
          2   -1    0    0  501    0  0.00000000000E+00  0.00000000000E+00  0.22895032845E+02  0.22895032987E+02  0.25500000000E-02 0. -1.
         -1   -1    0    0    0  501 -0.00000000000E+00 -0.00000000000E+00 -0.72177875165E+02  0.72177875341E+02  0.50400000000E-02 0.  1.
         24    2    1    2    0    0 -0.22204460493E-15  0.71054273576E-14 -0.49282842320E+02  0.95072908328E+02  0.81302271499E+02 0.  0.
         66    2    3    3    0    0  0.70627482921E+00 -0.33423725215E+02  0.23374422961E+01  0.33572427198E+02  0.20000000368E+01 0.  0.
        -13    1    3    3    0    0 -0.70627482921E+00  0.33423725215E+02 -0.51620284616E+02  0.61500481130E+02  0.10566000000E+00 0.  1.
         13    1    4    4    0    0  0.10960599619E+00 -0.15217060102E+02  0.21871038947E+00  0.15219393217E+02  0.10566000000E+00 0. -1.
        -13    1    4    4    0    0  0.73001513345E+00 -0.16273541407E+02  0.19843279267E+01  0.16410660967E+02  0.10566000000E+00 0.  1.
        -14    1    4    4    0    0 -0.13334630043E+00 -0.19331237057E+01  0.13440397984E+00  0.19423730144E+01  0.00000000000E+00 0.  1.
<mgrwt>
<rscale>  0 0.81302271E+02</rscale>
<asrwt>0</asrwt>
<pdfrwt beam="1">  1        2 0.35223128E-02 0.81302271E+02</pdfrwt>
<pdfrwt beam="2">  1       -1 0.11104288E-01 0.81302271E+02</pdfrwt>
<totfact> 0.12182424E+05</totfact>
</mgrwt>
</event>
<event>
 8    1  0.2603554E-024  0.8305304E+02  0.7818608E-02  0.1320604E+00
         -1   -1    0    0    0  501 -0.00000000000E+00  0.00000000000E+00  0.28135703475E+02  0.28135703927E+02  0.50400000000E-02 0.  1.
          2   -1    0    0  501    0  0.00000000000E+00 -0.00000000000E+00 -0.61290511010E+02  0.61290511063E+02  0.25500000000E-02 0. -1.
         24    2    1    2    0    0  0.00000000000E+00  0.71054273576E-14 -0.33154807534E+02  0.89426214990E+02  0.83053035253E+02 0.  0.
         66    2    3    3    0    0  0.45066624005E+01 -0.38981259528E+02 -0.31136803388E+02  0.50133313529E+02  0.19999999462E+01 0.  0.
        -13    1    3    3    0    0 -0.45066624005E+01  0.38981259528E+02 -0.20180041461E+01  0.39292901460E+02  0.10566000000E+00 0.  1.
         13    1    4    4    0    0  0.21917426211E+01 -0.15588012727E+02 -0.11676753597E+02  0.19599684056E+02  0.10566000000E+00 0. -1.
        -13    1    4    4    0    0  0.81696972883E-01 -0.30136056659E+01 -0.21946029597E+01  0.37304074430E+01  0.10566000000E+00 0. -1.
         14    1    4    4    0    0  0.22332228065E+01 -0.20379641136E+02 -0.17265446831E+02  0.26803222030E+02  0.00000000000E+00 0. -1.
<mgrwt>
<rscale>  0 0.83053035E+02</rscale>
<asrwt>0</asrwt>
<pdfrwt beam="1">  1        2 0.94293093E-02 0.83053035E+02</pdfrwt>
<pdfrwt beam="2">  1       -1 0.43285698E-02 0.83053035E+02</pdfrwt>
<totfact> 0.14125027E+05</totfact>
</mgrwt>
</event>
<event>
 8    1  0.2603554E-024  0.7938376E+02  0.7818608E-02  0.1330809E+00
          2   -1    0    0  501    0  0.00000000000E+00  0.00000000000E+00  0.33665580903E+03  0.33665580904E+03  0.25500000000E-02 0. -1.
         -1   -1    0    0    0  501 -0.00000000000E+00 -0.00000000000E+00 -0.46796907371E+01  0.46796934512E+01  0.50400000000E-02 0.  1.
         24    2    1    2    0    0  0.35527136788E-14  0.00000000000E+00  0.33197611829E+03  0.34133550249E+03  0.79383764989E+02 0.  0.
         66    2    3    3    0    0  0.23085611774E+02  0.89844299191E+01  0.29930241530E+03  0.30033248451E+03  0.19999994715E+01 0.  0.
        -13    1    3    3    0    0 -0.23085611774E+02 -0.89844299191E+01  0.32673702994E+02  0.41003017978E+02  0.10566000000E+00 0.  1.
         13    1    4    4    0    0  0.19032616815E+01  0.89807765196E+00  0.20606160970E+02  0.20713618285E+02  0.10566000000E+00 0.  1.
        -13    1    4    4    0    0  0.77901655449E+01  0.26106200917E+01  0.10515991845E+03  0.10548043245E+03  0.10566000000E+00 0. -1.
         14    1    4    4    0    0  0.13392184547E+02  0.54757321754E+01  0.17353633587E+03  0.17413843378E+03  0.00000000000E+00 0. -1.
<mgrwt>
<rscale>  0 0.79383765E+02</rscale>
<asrwt>0</asrwt>
<pdfrwt beam="1">  1        2 0.51793223E-01 0.79383765E+02</pdfrwt>
<pdfrwt beam="2">  1       -1 0.71995233E-03 0.79383765E+02</pdfrwt>
<totfact> 0.27120401E+05</totfact>
</mgrwt>
</event>
<event>
 8    1  0.2603554E-024  0.7687071E+02  0.7818608E-02  0.1338174E+00
         -1   -1    0    0    0  501 -0.00000000000E+00  0.00000000000E+00  0.18051017730E+03  0.18051017737E+03  0.50400000000E-02 0.  1.
          2   -1    0    0  501    0  0.00000000000E+00 -0.00000000000E+00 -0.81838956259E+01  0.81838960231E+01  0.25500000000E-02 0. -1.
         24    2    1    2    0    0  0.00000000000E+00 -0.17763568394E-14  0.17232628167E+03  0.18869407339E+03  0.76870709495E+02 0.  0.
         66    2    3    3    0    0  0.24386935087E+02 -0.87650978543E+01  0.16630748795E+02  0.30856626424E+02  0.20000113600E+01 0.  0.
        -13    1    3    3    0    0 -0.24386935087E+02  0.87650978543E+01  0.15569553288E+03  0.15783744697E+03  0.10566000000E+00 0.  1.
         13    1    4    4    0    0  0.61928763206E+01 -0.26581978762E+01  0.49856613326E+01  0.83836576761E+01  0.10566000000E+00 0. -1.
        -13    1    4    4    0    0  0.12383076860E+02 -0.40002563889E+01  0.73455093427E+01  0.14943571034E+02  0.10566000000E+00 0.  1.
        -14    1    4    4    0    0  0.58109819066E+01 -0.21066435892E+01  0.42995781201E+01  0.75293977144E+01  0.00000000000E+00 0.  1.
<mgrwt>
<rscale>  0 0.76870709E+02</rscale>
<asrwt>0</asrwt>
<pdfrwt beam="1">  1        2 0.12590610E-02 0.76870709E+02</pdfrwt>
<pdfrwt beam="2">  1       -1 0.27770794E-01 0.76870709E+02</pdfrwt>
<totfact> 0.11357937E+05</totfact>
</mgrwt>
</event>
<event>
 8    1  0.2603554E-024  0.7815149E+02  0.7818608E-02  0.1334381E+00
         -1   -1    0    0    0  501 -0.00000000000E+00  0.00000000000E+00  0.49118510814E+02  0.49118511072E+02  0.50400000000E-02 0.  1.
          2   -1    0    0  501    0  0.00000000000E+00 -0.00000000000E+00 -0.31086322078E+02  0.31086322182E+02  0.25500000000E-02 0. -1.
         24    2    1    2    0    0  0.00000000000E+00  0.00000000000E+00  0.18032188736E+02  0.80204833255E+02  0.78151490368E+02 0.  0.
         66    2    3    3    0    0  0.35333845586E+02  0.33391479120E+01  0.25737283743E+02  0.43886653154E+02  0.19999994898E+01 0.  0.
        -13    1    3    3    0    0 -0.35333845586E+02 -0.33391479120E+01 -0.77050950070E+01  0.36318180100E+02  0.10566000000E+00 0.  1.
         13    1    4    4    0    0  0.18682772163E+02  0.19169782832E+01  0.13625434792E+02  0.23203112264E+02  0.10566000000E+00 0. -1.
        -13    1    4    4    0    0  0.11469276064E+02  0.14175050184E+01  0.78065105070E+01  0.13946554565E+02  0.10566000000E+00 0.  1.
        -14    1    4    4    0    0  0.51817973599E+01  0.46646103889E-02  0.43053384441E+01  0.67369863259E+01  0.00000000000E+00 0.  1.
<mgrwt>
<rscale>  0 0.78151490E+02</rscale>
<asrwt>0</asrwt>
<pdfrwt beam="1">  1        2 0.47825111E-02 0.78151490E+02</pdfrwt>
<pdfrwt beam="2">  1       -1 0.75566940E-02 0.78151490E+02</pdfrwt>
<totfact> 0.14464156E+05</totfact>
</mgrwt>
</event>
<event>
 8    1  0.2603554E-024  0.8110436E+02  0.7818608E-02  0.1325946E+00
          2   -1    0    0  501    0  0.00000000000E+00  0.00000000000E+00  0.54566059247E+02  0.54566059307E+02  0.25500000000E-02 0. -1.
         -1   -1    0    0    0  501 -0.00000000000E+00 -0.00000000000E+00 -0.30137401729E+02  0.30137402151E+02  0.50400000000E-02 0.  1.
         24    2    1    2    0    0 -0.35527136788E-14 -0.35527136788E-14  0.24428657518E+02  0.84703461457E+02  0.81104359160E+02 0.  0.
         66    2    3    3    0    0 -0.25065207961E+02 -0.24780623352E+02  0.33112662279E+02  0.48402400225E+02  0.20000001359E+01 0.  0.
        -13    1    3    3    0    0  0.25065207961E+02  0.24780623352E+02 -0.86840047609E+01  0.36301061232E+02  0.10566000000E+00 0.  1.
         13    1    4    4    0    0 -0.13111783983E+02 -0.11905421908E+02  0.15783515878E+02  0.23723163523E+02  0.10566000000E+00 0. -1.
        -13    1    4    4    0    0 -0.69294170354E+01 -0.76770649860E+01  0.10154283821E+02  0.14493957058E+02  0.10566000000E+00 0.  1.
         14    1    4    4    0    0 -0.50240069423E+01 -0.51981364585E+01  0.71748625802E+01  0.10185279645E+02  0.00000000000E+00 0. -1.
<mgrwt>
<rscale>  0 0.81104359E+02</rscale>
<asrwt>0</asrwt>
<pdfrwt beam="1">  1        2 0.83947782E-02 0.81104359E+02</pdfrwt>
<pdfrwt beam="2">  1       -1 0.46365235E-02 0.81104359E+02</pdfrwt>
<totfact> 0.14673678E+05</totfact>
</mgrwt>
</event>
<event>
 8    1  0.2603554E-024  0.8448728E+02  0.7818608E-02  0.1316779E+00
          2   -1    0    0  501    0  0.00000000000E+00  0.00000000000E+00  0.20079340818E+03  0.20079340820E+03  0.25500000000E-02 0. -1.
         -1   -1    0    0    0  501 -0.00000000000E+00 -0.00000000000E+00 -0.88873677927E+01  0.88873692218E+01  0.50400000000E-02 0.  1.
         24    2    1    2    0    0  0.00000000000E+00  0.00000000000E+00  0.19190604039E+03  0.20968077742E+03  0.84487277631E+02 0.  0.
         66    2    3    3    0    0  0.19546163536E+02  0.56344717208E+01  0.18782396598E+03  0.18893290341E+03  0.20000032496E+01 0.  0.
        -13    1    3    3    0    0 -0.19546163536E+02 -0.56344717208E+01  0.40820744104E+01  0.20747874013E+02  0.10566000000E+00 0.  1.
         13    1    4    4    0    0  0.97337440674E+00  0.49065468423E+00  0.10178344077E+02  0.10237091967E+02  0.10566000000E+00 0. -1.
        -13    1    4    4    0    0  0.11110631245E+02  0.23019897173E+01  0.10745769561E+03  0.10805513774E+03  0.10566000000E+00 0.  1.
        -14    1    4    4    0    0  0.74621578844E+01  0.28418273193E+01  0.70187926295E+02  0.70640673698E+02  0.00000000000E+00 0.  1.
<mgrwt>
<rscale>  0 0.84487278E+02</rscale>
<asrwt>0</asrwt>
<pdfrwt beam="1">  1        2 0.30891291E-01 0.84487278E+02</pdfrwt>
<pdfrwt beam="2">  1       -1 0.13672876E-02 0.84487278E+02</pdfrwt>
<totfact> 0.19118850E+05</totfact>
</mgrwt>
</event>
<event>
 8    1  0.2603554E-024  0.8079051E+02  0.7818608E-02  0.1326823E+00
          2   -1    0    0  501    0  0.00000000000E+00  0.00000000000E+00  0.17225257012E+03  0.17225257014E+03  0.25500000000E-02 0. -1.
         -1   -1    0    0    0  501 -0.00000000000E+00 -0.00000000000E+00 -0.94731616540E+01  0.94731629947E+01  0.50400000000E-02 0.  1.
         24    2    1    2    0    0  0.00000000000E+00  0.17763568394E-14  0.16277940847E+03  0.18172573314E+03  0.80790508492E+02 0.  0.
         66    2    3    3    0    0  0.32535281520E+02  0.10612415785E+02  0.12960924443E+03  0.13406611859E+03  0.19999999286E+01 0.  0.
        -13    1    3    3    0    0 -0.32535281520E+02 -0.10612415785E+02  0.33170164040E+02  0.47659614548E+02  0.10566000000E+00 0.  1.
         13    1    4    4    0    0  0.10542972777E+02  0.38497348442E+01  0.39571199620E+02  0.41132295544E+02  0.10566000000E+00 0. -1.
        -13    1    4    4    0    0  0.58105852218E+01  0.16715587271E+01  0.22631093500E+02  0.23425084125E+02  0.10566000000E+00 0.  1.
         14    1    4    4    0    0  0.16181723521E+02  0.50911222135E+01  0.67406951307E+02  0.69508738918E+02  0.00000000000E+00 0. -1.
<mgrwt>
<rscale>  0 0.80790508E+02</rscale>
<asrwt>0</asrwt>
<pdfrwt beam="1">  1        2 0.26500393E-01 0.80790508E+02</pdfrwt>
<pdfrwt beam="2">  1       -1 0.14574097E-02 0.80790508E+02</pdfrwt>
<totfact> 0.20422663E+05</totfact>
</mgrwt>
</event>
<event>
 8    1  0.2603554E-024  0.8022683E+02  0.7818608E-02  0.1328409E+00
         -1   -1    0    0    0  501 -0.00000000000E+00  0.00000000000E+00  0.13434481309E+02  0.13434482255E+02  0.50400000000E-02 0.  1.
          2   -1    0    0  501    0  0.00000000000E+00 -0.00000000000E+00 -0.11977283634E+03  0.11977283637E+03  0.25500000000E-02 0. -1.
         24    2    1    2    0    0  0.00000000000E+00  0.00000000000E+00 -0.10633835503E+03  0.13320731862E+03  0.80226828330E+02 0.  0.
         66    2    3    3    0    0  0.18627369664E+02 -0.17318731226E+02 -0.10465162146E+03  0.10771666178E+03  0.20000001062E+01 0.  0.
        -13    1    3    3    0    0 -0.18627369664E+02  0.17318731226E+02 -0.16867335743E+01  0.25490656839E+02  0.10566000000E+00 0.  1.
         13    1    4    4    0    0  0.90660373134E+01 -0.89354467882E+01 -0.54767805197E+02  0.56227741303E+02  0.10566000000E+00 0.  1.
        -13    1    4    4    0    0  0.58013720905E+01 -0.50397523189E+01 -0.32081069947E+02  0.32988804685E+02  0.10566000000E+00 0. -1.
         14    1    4    4    0    0  0.37599602600E+01 -0.33435321193E+01 -0.17802746313E+02  0.18500115796E+02  0.00000000000E+00 0. -1.
<mgrwt>
<rscale>  0 0.80226828E+02</rscale>
<asrwt>0</asrwt>
<pdfrwt beam="1">  1        2 0.18426590E-01 0.80226828E+02</pdfrwt>
<pdfrwt beam="2">  1       -1 0.20668434E-02 0.80226828E+02</pdfrwt>
<totfact> 0.18535451E+05</totfact>
</mgrwt>
</event>
<event>
 8    1  0.2603554E-024  0.8089675E+02  0.7818608E-02  0.1326526E+00
         -1   -1    0    0    0  501 -0.00000000000E+00  0.00000000000E+00  0.65578737342E+01  0.65578756709E+01  0.50400000000E-02 0.  1.
          2   -1    0    0  501    0  0.00000000000E+00 -0.00000000000E+00 -0.24948190456E+03  0.24948190457E+03  0.25500000000E-02 0. -1.
         24    2    1    2    0    0  0.71054273576E-14 -0.17763568394E-14 -0.24292403082E+03  0.25603978024E+03  0.80896750953E+02 0.  0.
         66    2    3    3    0    0  0.32264057980E+02 -0.11888254308E+02 -0.18880786769E+03  0.19192371124E+03  0.20000017857E+01 0.  0.
        -13    1    3    3    0    0 -0.32264057980E+02  0.11888254308E+02 -0.54116163138E+02  0.64116069005E+02  0.10566000000E+00 0.  1.
         13    1    4    4    0    0  0.13260532014E+02 -0.55993222173E+01 -0.82011406680E+02  0.83265095377E+02  0.10566000000E+00 0. -1.
        -13    1    4    4    0    0  0.12398618404E+02 -0.37616888906E+01 -0.69658827072E+02  0.70853647716E+02  0.10566000000E+00 0.  1.
         14    1    4    4    0    0  0.66049075619E+01 -0.25272431998E+01 -0.37137633936E+02  0.37804968145E+02  0.00000000000E+00 0. -1.
<mgrwt>
<rscale>  0 0.80896751E+02</rscale>
<asrwt>0</asrwt>
<pdfrwt beam="1">  1        2 0.38381824E-01 0.80896751E+02</pdfrwt>
<pdfrwt beam="2">  1       -1 0.10089040E-02 0.80896751E+02</pdfrwt>
<totfact> 0.23161424E+05</totfact>
</mgrwt>
</event>
<event>
 8    1  0.2603554E-024  0.7762217E+02  0.7818608E-02  0.1335938E+00
          2   -1    0    0  501    0  0.00000000000E+00  0.00000000000E+00  0.14744128258E+03  0.14744128260E+03  0.25500000000E-02 0. -1.
         -1   -1    0    0    0  501 -0.00000000000E+00 -0.00000000000E+00 -0.10216272199E+02  0.10216273443E+02  0.50400000000E-02 0.  1.
         24    2    1    2    0    0  0.00000000000E+00  0.00000000000E+00  0.13722501038E+03  0.15765755604E+03  0.77622171471E+02 0.  0.
         66    2    3    3    0    0 -0.26085512348E+02 -0.30143263260E+00  0.12695233470E+03  0.12962036920E+03  0.20000025492E+01 0.  0.
        -13    1    3    3    0    0  0.26085512348E+02  0.30143263260E+00  0.10272675673E+02  0.28037186835E+02  0.10566000000E+00 0.  1.
         13    1    4    4    0    0 -0.22054438710E+02  0.12706454370E+00  0.10502674938E+03  0.10731749001E+03  0.10566000000E+00 0. -1.
        -13    1    4    4    0    0 -0.15690752195E+01 -0.22273867883E+00  0.98386698448E+01  0.99660522733E+01  0.10566000000E+00 0.  1.
        -14    1    4    4    0    0 -0.24619984184E+01 -0.20575849747E+00  0.12086915473E+02  0.12336826919E+02  0.00000000000E+00 0.  1.
<mgrwt>
<rscale>  0 0.77622171E+02</rscale>
<asrwt>0</asrwt>
<pdfrwt beam="1">  1        2 0.22683272E-01 0.77622171E+02</pdfrwt>
<pdfrwt beam="2">  1       -1 0.15717344E-02 0.77622171E+02</pdfrwt>
<totfact> 0.21577779E+05</totfact>
</mgrwt>
</event>
<event>
 8    1  0.2603554E-024  0.7979609E+02  0.7818608E-02  0.1329631E+00
          2   -1    0    0  501    0  0.00000000000E+00  0.00000000000E+00  0.51457607359E+03  0.51457607360E+03  0.25500000000E-02 0. -1.
         -1   -1    0    0    0  501 -0.00000000000E+00 -0.00000000000E+00 -0.30935233656E+01  0.30935274712E+01  0.50400000000E-02 0.  1.
         24    2    1    2    0    0  0.00000000000E+00  0.00000000000E+00  0.51148255023E+03  0.51766960107E+03  0.79796094424E+02 0.  0.
         66    2    3    3    0    0  0.89258999945E+01  0.13054296978E+02  0.49335849208E+03  0.49361593174E+03  0.20000008180E+01 0.  0.
        -13    1    3    3    0    0 -0.89258999945E+01 -0.13054296978E+02  0.18124058145E+02  0.24053669324E+02  0.10566000000E+00 0.  1.
         13    1    4    4    0    0  0.51149841485E+00  0.56390811432E+00  0.31519074129E+02  0.31528444633E+02  0.10566000000E+00 0. -1.
        -13    1    4    4    0    0  0.60253644565E+01  0.84676289350E+01  0.29751611660E+03  0.29769759246E+03  0.10566000000E+00 0.  1.
        -14    1    4    4    0    0  0.23890371232E+01  0.40227599285E+01  0.16432330136E+03  0.16438989465E+03  0.00000000000E+00 0.  1.
<mgrwt>
<rscale>  0 0.79796094E+02</rscale>
<asrwt>0</asrwt>
<pdfrwt beam="1">  1        2 0.79165607E-01 0.79796094E+02</pdfrwt>
<pdfrwt beam="2">  1       -1 0.47592665E-03 0.79796094E+02</pdfrwt>
<totfact> 0.30934077E+05</totfact>
</mgrwt>
</event>
<event>
 8    1  0.2603554E-024  0.7883624E+02  0.7818608E-02  0.1332387E+00
         -1   -1    0    0    0  501 -0.00000000000E+00  0.00000000000E+00  0.26000185338E+02  0.26000185826E+02  0.50400000000E-02 0.  1.
          2   -1    0    0  501    0  0.00000000000E+00 -0.00000000000E+00 -0.59760660582E+02  0.59760660636E+02  0.25500000000E-02 0. -1.
         24    2    1    2    0    0  0.00000000000E+00  0.00000000000E+00 -0.33760475244E+02  0.85760846463E+02  0.78836242283E+02 0.  0.
         66    2    3    3    0    0  0.10931342863E+02  0.21226530252E+02 -0.50975634592E+02  0.56325617251E+02  0.19999983467E+01 0.  0.
        -13    1    3    3    0    0 -0.10931342863E+02 -0.21226530252E+02  0.17215159348E+02  0.29435229211E+02  0.10566000000E+00 0.  1.
         13    1    4    4    0    0  0.33612954672E+01  0.62126878287E+01 -0.17090087968E+02  0.18492649028E+02  0.10566000000E+00 0. -1.
        -13    1    4    4    0    0  0.97147020526E+00  0.16152908364E+01 -0.35998440035E+01  0.40648443673E+01  0.10566000000E+00 0.  1.
        -14    1    4    4    0    0  0.65985771904E+01  0.13398551587E+02 -0.30285702620E+02  0.33768123856E+02  0.00000000000E+00 0.  1.
<mgrwt>
<rscale>  0 0.78836242E+02</rscale>
<asrwt>0</asrwt>
<pdfrwt beam="1">  1        2 0.91939478E-02 0.78836242E+02</pdfrwt>
<pdfrwt beam="2">  1       -1 0.40000286E-02 0.78836242E+02</pdfrwt>
<totfact> 0.16183842E+05</totfact>
</mgrwt>
</event>
<event>
 8    1  0.2603554E-024  0.7920507E+02  0.7818608E-02  0.1331323E+00
         -1   -1    0    0    0  501 -0.00000000000E+00  0.00000000000E+00  0.34442827731E+01  0.34442864606E+01  0.50400000000E-02 0.  1.
          2   -1    0    0  501    0  0.00000000000E+00 -0.00000000000E+00 -0.45535165710E+03  0.45535165711E+03  0.25500000000E-02 0. -1.
         24    2    1    2    0    0  0.00000000000E+00 -0.35527136788E-14 -0.45190737433E+03  0.45879594357E+03  0.79205068418E+02 0.  0.
         66    2    3    3    0    0  0.30336420221E+02  0.25410431602E+02 -0.22258660011E+03  0.22608578677E+03  0.20000010548E+01 0.  0.
        -13    1    3    3    0    0 -0.30336420221E+02 -0.25410431602E+02 -0.22932077422E+03  0.23271015680E+03  0.10566000000E+00 0.  1.
         13    1    4    4    0    0  0.16293523414E+02  0.14176577907E+02 -0.12032429199E+03  0.12224729311E+03  0.10566000000E+00 0. -1.
        -13    1    4    4    0    0  0.60537227765E+01  0.45723328161E+01 -0.46330928623E+02  0.46948055316E+02  0.10566000000E+00 0.  1.
        -14    1    4    4    0    0  0.79891740300E+01  0.66615208790E+01 -0.55931379495E+02  0.56890438338E+02  0.00000000000E+00 0.  1.
<mgrwt>
<rscale>  0 0.79205068E+02</rscale>
<asrwt>0</asrwt>
<pdfrwt beam="1">  1        2 0.70054054E-01 0.79205068E+02</pdfrwt>
<pdfrwt beam="2">  1       -1 0.52989030E-03 0.79205068E+02</pdfrwt>
<totfact> 0.30314284E+05</totfact>
</mgrwt>
</event>
<event>
 8    1  0.2603554E-024  0.8300768E+02  0.7818608E-02  0.1320726E+00
          2   -1    0    0  501    0  0.00000000000E+00  0.00000000000E+00  0.14762778435E+03  0.14762778437E+03  0.25500000000E-02 0. -1.
         -1   -1    0    0    0  501 -0.00000000000E+00 -0.00000000000E+00 -0.11668322790E+02  0.11668323879E+02  0.50400000000E-02 0.  1.
         24    2    1    2    0    0  0.00000000000E+00  0.00000000000E+00  0.13595946156E+03  0.15929610825E+03  0.83007679862E+02 0.  0.
         66    2    3    3    0    0 -0.27116609763E+02  0.30318945426E+02  0.83611284212E+02  0.93002128038E+02  0.19999987726E+01 0.  0.
        -13    1    3    3    0    0  0.27116609763E+02 -0.30318945426E+02  0.52348177343E+02  0.66293980209E+02  0.10566000000E+00 0.  1.
         13    1    4    4    0    0 -0.10086615047E+02  0.11200398607E+02  0.31435494496E+02  0.34862446993E+02  0.10566000000E+00 0. -1.
        -13    1    4    4    0    0 -0.15827655123E+02  0.17990854759E+02  0.47959198003E+02  0.53612324691E+02  0.10566000000E+00 0.  1.
        -14    1    4    4    0    0 -0.12023395928E+01  0.11276920601E+01  0.42165917128E+01  0.45273563535E+01  0.00000000000E+00 0.  1.
<mgrwt>
<rscale>  0 0.83007680E+02</rscale>
<asrwt>0</asrwt>
<pdfrwt beam="1">  1        2 0.22711966E-01 0.83007680E+02</pdfrwt>
<pdfrwt beam="2">  1       -1 0.17951267E-02 0.83007680E+02</pdfrwt>
<totfact> 0.18064480E+05</totfact>
</mgrwt>
</event>
<event>
 8    1  0.2603554E-024  0.8021484E+02  0.7818608E-02  0.1328443E+00
          2   -1    0    0  501    0  0.00000000000E+00  0.00000000000E+00  0.45756588117E+03  0.45756588118E+03  0.25500000000E-02 0. -1.
         -1   -1    0    0    0  501 -0.00000000000E+00 -0.00000000000E+00 -0.35155688273E+01  0.35155724400E+01  0.50400000000E-02 0.  1.
         24    2    1    2    0    0  0.00000000000E+00  0.00000000000E+00  0.45405031234E+03  0.46108145362E+03  0.80214841091E+02 0.  0.
         66    2    3    3    0    0  0.34497733639E+02  0.17800142991E+02  0.28454934204E+03  0.28719203814E+03  0.19999999879E+01 0.  0.
        -13    1    3    3    0    0 -0.34497733639E+02 -0.17800142991E+02  0.16950097031E+03  0.17388941548E+03  0.10566000000E+00 0.  1.
         13    1    4    4    0    0  0.98530412030E+01  0.52758570660E+01  0.78908948093E+02  0.79696614369E+02  0.10566000000E+00 0. -1.
        -13    1    4    4    0    0  0.48792625737E+01  0.28345871081E+01  0.45771149153E+02  0.46117798583E+02  0.10566000000E+00 0.  1.
        -14    1    4    4    0    0  0.19765429862E+02  0.96896988172E+01  0.15986924479E+03  0.16137762519E+03  0.00000000000E+00 0.  1.
<mgrwt>
<rscale>  0 0.80214841E+02</rscale>
<asrwt>0</asrwt>
<pdfrwt beam="1">  1        2 0.70394753E-01 0.80214841E+02</pdfrwt>
<pdfrwt beam="2">  1       -1 0.54085701E-03 0.80214841E+02</pdfrwt>
<totfact> 0.29376745E+05</totfact>
</mgrwt>
</event>
<event>
 8    1  0.2603554E-024  0.7911058E+02  0.7818608E-02  0.1331595E+00
         -1   -1    0    0    0  501 -0.00000000000E+00  0.00000000000E+00  0.41312245755E+01  0.41312276498E+01  0.50400000000E-02 0.  1.
          2   -1    0    0  501    0  0.00000000000E+00 -0.00000000000E+00 -0.37873038365E+03  0.37873038366E+03  0.25500000000E-02 0. -1.
         24    2    1    2    0    0  0.00000000000E+00  0.00000000000E+00 -0.37459915907E+03  0.38286161131E+03  0.79110577259E+02 0.  0.
         66    2    3    3    0    0  0.18045949993E+02  0.31014336786E+02 -0.26768452380E+03  0.27008618935E+03  0.19999998507E+01 0.  0.
        -13    1    3    3    0    0 -0.18045949993E+02 -0.31014336786E+02 -0.10691463527E+03  0.11277542195E+03  0.10566000000E+00 0.  1.
         13    1    4    4    0    0  0.70923375376E+01  0.12831974093E+02 -0.10603968928E+03  0.10704852954E+03  0.10566000000E+00 0. -1.
        -13    1    4    4    0    0  0.57042209058E+01  0.10682407191E+02 -0.91440337480E+02  0.92238812016E+02  0.10566000000E+00 0.  1.
         14    1    4    4    0    0  0.52493915492E+01  0.74999555023E+01 -0.70204497041E+02  0.70798847794E+02  0.00000000000E+00 0. -1.
<mgrwt>
<rscale>  0 0.79110577E+02</rscale>
<asrwt>0</asrwt>
<pdfrwt beam="1">  1        2 0.58266186E-01 0.79110577E+02</pdfrwt>
<pdfrwt beam="2">  1       -1 0.63557355E-03 0.79110577E+02</pdfrwt>
<totfact> 0.28536865E+05</totfact>
</mgrwt>
</event>
<event>
 8    1  0.2603554E-024  0.8087281E+02  0.7818608E-02  0.1326593E+00
         -1   -1    0    0    0  501 -0.00000000000E+00  0.00000000000E+00  0.42574684265E+02  0.42574684563E+02  0.50400000000E-02 0.  1.
          2   -1    0    0  501    0  0.00000000000E+00 -0.00000000000E+00 -0.38405518139E+02  0.38405518223E+02  0.25500000000E-02 0. -1.
         24    2    1    2    0    0  0.00000000000E+00  0.88817841970E-15  0.41691661267E+01  0.80980202787E+02  0.80872809381E+02 0.  0.
         66    2    3    3    0    0 -0.30273243529E+02  0.59680720830E+01 -0.24044981096E+02  0.39169481367E+02  0.19999991203E+01 0.  0.
        -13    1    3    3    0    0  0.30273243529E+02 -0.59680720830E+01  0.28214147223E+02  0.41810721420E+02  0.10566000000E+00 0.  1.
         13    1    4    4    0    0 -0.17518316350E+02  0.27730632397E+01 -0.14288309646E+02  0.22776045400E+02  0.10566000000E+00 0. -1.
        -13    1    4    4    0    0 -0.90447520232E+00  0.28550460384E+00 -0.93649573447E+00  0.13370776218E+01  0.10566000000E+00 0. -1.
         14    1    4    4    0    0 -0.11850451976E+02  0.29095042395E+01 -0.88201757156E+01  0.15056358345E+02  0.00000000000E+00 0. -1.
<mgrwt>
<rscale>  0 0.80872809E+02</rscale>
<asrwt>0</asrwt>
<pdfrwt beam="1">  1        2 0.59085413E-02 0.80872809E+02</pdfrwt>
<pdfrwt beam="2">  1       -1 0.65499515E-02 0.80872809E+02</pdfrwt>
<totfact> 0.13718110E+05</totfact>
</mgrwt>
</event>
<event>
 8    1  0.2603554E-024  0.7870077E+02  0.7818608E-02  0.1332779E+00
          2   -1    0    0  501    0  0.00000000000E+00  0.00000000000E+00  0.52915608304E+02  0.52915608366E+02  0.25500000000E-02 0. -1.
         -1   -1    0    0    0  501 -0.00000000000E+00 -0.00000000000E+00 -0.29262682757E+02  0.29262683191E+02  0.50400000000E-02 0.  1.
         24    2    1    2    0    0  0.35527136788E-14 -0.71054273576E-14  0.23652925547E+02  0.82178291556E+02  0.78700766935E+02 0.  0.
         66    2    3    3    0    0  0.27408801374E+02 -0.21132748261E+02 -0.76620995330E+01  0.35504129522E+02  0.20000005035E+01 0.  0.
        -13    1    3    3    0    0 -0.27408801374E+02  0.21132748261E+02  0.31315025080E+02  0.46674162035E+02  0.10566000000E+00 0.  1.
         13    1    4    4    0    0  0.30192517293E+01 -0.19027263973E+01 -0.75379656972E+00  0.36490576937E+01  0.10566000000E+00 0. -1.
        -13    1    4    4    0    0  0.18899488276E+01 -0.20316265064E+01 -0.57934743608E+00  0.28365860325E+01  0.10566000000E+00 0.  1.
         14    1    4    4    0    0  0.22499600817E+02 -0.17198395357E+02 -0.63289555272E+01  0.29018485795E+02  0.00000000000E+00 0. -1.
<mgrwt>
<rscale>  0 0.78700767E+02</rscale>
<asrwt>0</asrwt>
<pdfrwt beam="1">  1        2 0.81408627E-02 0.78700767E+02</pdfrwt>
<pdfrwt beam="2">  1       -1 0.45019513E-02 0.78700767E+02</pdfrwt>
<totfact> 0.15821854E+05</totfact>
</mgrwt>
</event>
<event>
 8    1  0.2603554E-024  0.8635717E+02  0.7818608E-02  0.1311921E+00
         -1   -1    0    0    0  501 -0.00000000000E+00  0.00000000000E+00  0.10630802305E+01  0.10630921776E+01  0.50400000000E-02 0.  1.
          2   -1    0    0  501    0  0.00000000000E+00 -0.00000000000E+00 -0.17537524764E+04  0.17537524764E+04  0.25500000000E-02 0. -1.
         24    2    1    2    0    0 -0.88817841970E-15  0.00000000000E+00 -0.17526893961E+04  0.17548155685E+04  0.86357166949E+02 0.  0.
         66    2    3    3    0    0  0.51522732800E+01 -0.19105431142E+02 -0.16561285321E+04  0.16562479519E+04  0.19999994864E+01 0.  0.
        -13    1    3    3    0    0 -0.51522732800E+01  0.19105431142E+02 -0.96560864034E+02  0.98567616620E+02  0.10566000000E+00 0.  1.
         13    1    4    4    0    0  0.29445768585E+01 -0.10934265272E+02 -0.88264516029E+03  0.88271780250E+03  0.10566000000E+00 0. -1.
        -13    1    4    4    0    0  0.36111880120E-01 -0.62842369955E+00 -0.73517751066E+02  0.73520521668E+02  0.10566000000E+00 0.  1.
        -14    1    4    4    0    0  0.21715845414E+01 -0.75427421706E+01 -0.69996562073E+03  0.70000962775E+03  0.00000000000E+00 0.  1.
<mgrwt>
<rscale>  0 0.86357167E+02</rscale>
<asrwt>0</asrwt>
<pdfrwt beam="1">  1        2 0.26980576E+00 0.86357167E+02</pdfrwt>
<pdfrwt beam="2">  1       -1 0.16355313E-03 0.86357167E+02</pdfrwt>
<totfact> 0.25176104E+05</totfact>
</mgrwt>
</event>
<event>
 8    1  0.2603554E-024  0.8132908E+02  0.7818608E-02  0.1325321E+00
          2   -1    0    0  501    0  0.00000000000E+00  0.00000000000E+00  0.40343553258E+03  0.40343553258E+03  0.25500000000E-02 0. -1.
         -1   -1    0    0    0  501 -0.00000000000E+00 -0.00000000000E+00 -0.40988059896E+01  0.40988090882E+01  0.50400000000E-02 0.  1.
         24    2    1    2    0    0 -0.71054273576E-14  0.22204460493E-15  0.39933672659E+03  0.40753434167E+03  0.81329075007E+02 0.  0.
         66    2    3    3    0    0 -0.40490695825E+02  0.11295858063E+01  0.21627710926E+03  0.22004672322E+03  0.19999995884E+01 0.  0.
        -13    1    3    3    0    0  0.40490695825E+02 -0.11295858063E+01  0.18305961733E+03  0.18748761845E+03  0.10566000000E+00 0.  1.
         13    1    4    4    0    0 -0.25144990183E+01 -0.13590780076E+00  0.12301184143E+02  0.12556730132E+02  0.10566000000E+00 0. -1.
        -13    1    4    4    0    0 -0.11385660506E+02  0.23522647107E+00  0.64716152585E+02  0.65710578799E+02  0.10566000000E+00 0.  1.
        -14    1    4    4    0    0 -0.26590536300E+02  0.10302671359E+01  0.13925977253E+03  0.14177941429E+03  0.00000000000E+00 0.  1.
<mgrwt>
<rscale>  0 0.81329075E+02</rscale>
<asrwt>0</asrwt>
<pdfrwt beam="1">  1        2 0.62067013E-01 0.81329075E+02</pdfrwt>
<pdfrwt beam="2">  1       -1 0.63058570E-03 0.81329075E+02</pdfrwt>
<totfact> 0.27143438E+05</totfact>
</mgrwt>
</event>
<event>
 8    1  0.2603554E-024  0.8244219E+02  0.7818608E-02  0.1322260E+00
          2   -1    0    0  501    0  0.00000000000E+00  0.00000000000E+00  0.12970963017E+03  0.12970963019E+03  0.25500000000E-02 0. -1.
         -1   -1    0    0    0  501 -0.00000000000E+00 -0.00000000000E+00 -0.13099865644E+02  0.13099866614E+02  0.50400000000E-02 0.  1.
         24    2    1    2    0    0  0.00000000000E+00  0.00000000000E+00  0.11660976453E+03  0.14280949681E+03  0.82442193057E+02 0.  0.
         66    2    3    3    0    0 -0.11510296580E+02 -0.58501902589E+01  0.12610619202E+03  0.12678124199E+03  0.19999998640E+01 0.  0.
        -13    1    3    3    0    0  0.11510296580E+02  0.58501902589E+01 -0.94964274975E+01  0.16028254823E+02  0.10566000000E+00 0.  1.
         13    1    4    4    0    0 -0.28490619448E+01 -0.84713938801E+00  0.26270815036E+02  0.26438640014E+02  0.10566000000E+00 0. -1.
        -13    1    4    4    0    0 -0.24883151939E+00 -0.34200120746E+00  0.31379111434E+01  0.31680486629E+01  0.10566000000E+00 0.  1.
        -14    1    4    4    0    0 -0.84124031158E+01 -0.46610496634E+01  0.96697465844E+02  0.97174553309E+02  0.00000000000E+00 0.  1.
<mgrwt>
<rscale>  0 0.82442193E+02</rscale>
<asrwt>0</asrwt>
<pdfrwt beam="1">  1        2 0.19955328E-01 0.82442193E+02</pdfrwt>
<pdfrwt beam="2">  1       -1 0.20153640E-02 0.82442193E+02</pdfrwt>
<totfact> 0.17659201E+05</totfact>
</mgrwt>
</event>
<event>
 8    1  0.2603554E-024  0.8049802E+02  0.7818608E-02  0.1327644E+00
         -1   -1    0    0    0  501 -0.00000000000E+00  0.00000000000E+00  0.23732773716E+02  0.23732774251E+02  0.50400000000E-02 0.  1.
          2   -1    0    0  501    0  0.00000000000E+00 -0.00000000000E+00 -0.68259313475E+02  0.68259313522E+02  0.25500000000E-02 0. -1.
         24    2    1    2    0    0  0.35527136788E-14  0.00000000000E+00 -0.44526539758E+02  0.91992087773E+02  0.80498021529E+02 0.  0.
         66    2    3    3    0    0  0.23344623158E+02 -0.49165141670E+01 -0.59286943436E+02  0.63938135775E+02  0.20000006348E+01 0.  0.
        -13    1    3    3    0    0 -0.23344623158E+02  0.49165141670E+01  0.14760403677E+02  0.28053951998E+02  0.10566000000E+00 0.  1.
         13    1    4    4    0    0  0.11032673775E+02 -0.14648187288E+01 -0.27275106133E+02  0.29458583862E+02  0.10566000000E+00 0. -1.
        -13    1    4    4    0    0  0.10436396581E+01 -0.47788538395E+00 -0.26867988602E+01  0.29236296495E+01  0.10566000000E+00 0.  1.
        -14    1    4    4    0    0  0.11268309725E+02 -0.29738100543E+01 -0.29325038443E+02  0.31555922264E+02  0.00000000000E+00 0.  1.
<mgrwt>
<rscale>  0 0.80498022E+02</rscale>
<asrwt>0</asrwt>
<pdfrwt beam="1">  1        2 0.10501433E-01 0.80498022E+02</pdfrwt>
<pdfrwt beam="2">  1       -1 0.36511960E-02 0.80498022E+02</pdfrwt>
<totfact> 0.15780322E+05</totfact>
</mgrwt>
</event>
<event>
 8    1  0.2603554E-024  0.7832072E+02  0.7818608E-02  0.1333886E+00
          2   -1    0    0  501    0  0.00000000000E+00  0.00000000000E+00  0.48613119068E+03  0.48613119069E+03  0.25500000000E-02 0. -1.
         -1   -1    0    0    0  501 -0.00000000000E+00 -0.00000000000E+00 -0.31545653780E+01  0.31545694041E+01  0.50400000000E-02 0.  1.
         24    2    1    2    0    0  0.00000000000E+00  0.00000000000E+00  0.48297662531E+03  0.48928576009E+03  0.78320715265E+02 0.  0.
         66    2    3    3    0    0 -0.77667100685E+01  0.28320575478E+02  0.40324792396E+03  0.40432074516E+03  0.20000018074E+01 0.  0.
        -13    1    3    3    0    0  0.77667100685E+01 -0.28320575478E+02  0.79728701348E+02  0.84965014938E+02  0.10566000000E+00 0.  1.
         13    1    4    4    0    0 -0.46310191161E+01  0.14076747372E+02  0.20102326516E+03  0.20156876111E+03  0.10566000000E+00 0. -1.
        -13    1    4    4    0    0 -0.19172493194E+01  0.85125047512E+01  0.12703038288E+03  0.12732976055E+03  0.10566000000E+00 0.  1.
         14    1    4    4    0    0 -0.12184416331E+01  0.57313233543E+01  0.75194275916E+02  0.75422223502E+02  0.00000000000E+00 0. -1.
<mgrwt>
<rscale>  0 0.78320715E+02</rscale>
<asrwt>0</asrwt>
<pdfrwt beam="1">  1        2 0.74789352E-01 0.78320715E+02</pdfrwt>
<pdfrwt beam="2">  1       -1 0.48531846E-03 0.78320715E+02</pdfrwt>
<totfact> 0.31891589E+05</totfact>
</mgrwt>
</event>
<event>
 8    1  0.2603554E-024  0.7977048E+02  0.7818608E-02  0.1329704E+00
          2   -1    0    0  501    0  0.00000000000E+00  0.00000000000E+00  0.18109252759E+02  0.18109252939E+02  0.25500000000E-02 0. -1.
         -1   -1    0    0    0  501 -0.00000000000E+00 -0.00000000000E+00 -0.87846380904E+02  0.87846381048E+02  0.50400000000E-02 0.  1.
         24    2    1    2    0    0  0.00000000000E+00 -0.44408920985E-15 -0.69737128144E+02  0.10595563399E+03  0.79770479075E+02 0.  0.
         66    2    3    3    0    0 -0.33287901708E+02 -0.25538338903E+01 -0.59654979243E+01  0.33973424709E+02  0.19999883174E+01 0.  0.
        -13    1    3    3    0    0  0.33287901708E+02  0.25538338903E+01 -0.63771630220E+02  0.71982209279E+02  0.10566000000E+00 0.  1.
         13    1    4    4    0    0 -0.10569793189E+02 -0.94556065993E+00 -0.23351960837E+01  0.10866412371E+02  0.10566000000E+00 0. -1.
        -13    1    4    4    0    0 -0.12890178976E+02 -0.15257539903E+01 -0.24240080909E+01  0.13204984609E+02  0.10566000000E+00 0.  1.
         14    1    4    4    0    0 -0.98279295432E+01 -0.82519240057E-01 -0.12062937497E+01  0.99020277288E+01  0.00000000000E+00 0. -1.
<mgrwt>
<rscale>  0 0.79770479E+02</rscale>
<asrwt>0</asrwt>
<pdfrwt beam="1">  1        2 0.27860389E-02 0.79770479E+02</pdfrwt>
<pdfrwt beam="2">  1       -1 0.13514828E-01 0.79770479E+02</pdfrwt>
<totfact> 0.12267551E+05</totfact>
</mgrwt>
</event>
<event>
 8    1  0.2603554E-024  0.7975733E+02  0.7818608E-02  0.1329742E+00
         -1   -1    0    0    0  501 -0.00000000000E+00  0.00000000000E+00  0.16336224873E+02  0.16336225650E+02  0.50400000000E-02 0.  1.
          2   -1    0    0  501    0  0.00000000000E+00 -0.00000000000E+00 -0.97348553272E+02  0.97348553305E+02  0.25500000000E-02 0. -1.
         24    2    1    2    0    0  0.00000000000E+00  0.00000000000E+00 -0.81012328399E+02  0.11368477896E+03  0.79757329529E+02 0.  0.
         66    2    3    3    0    0 -0.38830526162E+02 -0.73082481602E+01 -0.47949406708E+02  0.62164023838E+02  0.20000007204E+01 0.  0.
        -13    1    3    3    0    0  0.38830526162E+02  0.73082481602E+01 -0.33062921691E+02  0.51520755118E+02  0.10566000000E+00 0.  1.
         13    1    4    4    0    0 -0.16299400976E+02 -0.37513819490E+01 -0.20783350087E+02  0.26677746224E+02  0.10566000000E+00 0. -1.
        -13    1    4    4    0    0 -0.17242455605E+02 -0.31197351035E+01 -0.20644363121E+02  0.27078329252E+02  0.10566000000E+00 0. -1.
         14    1    4    4    0    0 -0.52886695812E+01 -0.43713110771E+00 -0.65216935002E+01  0.84079483618E+01  0.00000000000E+00 0. -1.
<mgrwt>
<rscale>  0 0.79757330E+02</rscale>
<asrwt>0</asrwt>
<pdfrwt beam="1">  1        2 0.14976700E-01 0.79757330E+02</pdfrwt>
<pdfrwt beam="2">  1       -1 0.25132655E-02 0.79757330E+02</pdfrwt>
<totfact> 0.17737535E+05</totfact>
</mgrwt>
</event>
<event>
 8    1  0.2603554E-024  0.7799759E+02  0.7818608E-02  0.1334832E+00
          2   -1    0    0  501    0  0.00000000000E+00  0.00000000000E+00  0.28966563841E+03  0.28966563842E+03  0.25500000000E-02 0. -1.
         -1   -1    0    0    0  501 -0.00000000000E+00 -0.00000000000E+00 -0.52505558258E+01  0.52505582447E+01  0.50400000000E-02 0.  1.
         24    2    1    2    0    0  0.00000000000E+00 -0.71054273576E-14  0.28441508258E+03  0.29491619667E+03  0.77997588774E+02 0.  0.
         66    2    3    3    0    0 -0.17240869115E+01 -0.36263526848E+02  0.19589172509E+03  0.19923750603E+03  0.19999991166E+01 0.  0.
        -13    1    3    3    0    0  0.17240869115E+01  0.36263526848E+02  0.88523357493E+02  0.95678690632E+02  0.10566000000E+00 0.  1.
         13    1    4    4    0    0 -0.47348808967E+00 -0.13666585534E+02  0.76428248762E+02  0.77642051261E+02  0.10566000000E+00 0. -1.
        -13    1    4    4    0    0  0.30742755518E-01 -0.85004989614E+00  0.58286084656E+01  0.58912961752E+01  0.10566000000E+00 0.  1.
        -14    1    4    4    0    0 -0.12813415774E+01 -0.21746891418E+02  0.11363486786E+03  0.11570415860E+03  0.00000000000E+00 0.  1.
<mgrwt>
<rscale>  0 0.77997589E+02</rscale>
<asrwt>0</asrwt>
<pdfrwt beam="1">  1        2 0.44563949E-01 0.77997589E+02</pdfrwt>
<pdfrwt beam="2">  1       -1 0.80777792E-03 0.77997589E+02</pdfrwt>
<totfact> 0.26901241E+05</totfact>
</mgrwt>
</event>
<event>
 8    1  0.2603554E-024  0.7982648E+02  0.7818608E-02  0.1329545E+00
          2   -1    0    0  501    0  0.00000000000E+00  0.00000000000E+00  0.73635946497E+03  0.73635946497E+03  0.25500000000E-02 0. -1.
         -1   -1    0    0    0  501 -0.00000000000E+00 -0.00000000000E+00 -0.21634332561E+01  0.21634391268E+01  0.50400000000E-02 0.  1.
         24    2    1    2    0    0  0.00000000000E+00  0.00000000000E+00  0.73419603171E+03  0.73852290410E+03  0.79826479927E+02 0.  0.
         66    2    3    3    0    0  0.27431100451E+01  0.16909920454E+02  0.70058997929E+03  0.70080224681E+03  0.19999994445E+01 0.  0.
        -13    1    3    3    0    0 -0.27431100451E+01 -0.16909920454E+02  0.33606052422E+02  0.37720657283E+02  0.10566000000E+00 0.  1.
         13    1    4    4    0    0  0.13328082132E+01  0.52134920343E+01  0.19296621479E+03  0.19304126008E+03  0.10566000000E+00 0. -1.
        -13    1    4    4    0    0  0.11957452832E+01  0.69673005231E+01  0.30372701544E+03  0.30380928912E+03  0.10566000000E+00 0.  1.
         14    1    4    4    0    0  0.21455654873E+00  0.47291278966E+01  0.20389674906E+03  0.20395169762E+03  0.00000000000E+00 0. -1.
<mgrwt>
<rscale>  0 0.79826480E+02</rscale>
<asrwt>0</asrwt>
<pdfrwt beam="1">  1        2 0.11328614E+00 0.79826480E+02</pdfrwt>
<pdfrwt beam="2">  1       -1 0.33283613E-03 0.79826480E+02</pdfrwt>
<totfact> 0.34016404E+05</totfact>
</mgrwt>
</event>
<event>
 8    1  0.2603554E-024  0.7845447E+02  0.7818608E-02  0.1333496E+00
          2   -1    0    0  501    0  0.00000000000E+00  0.00000000000E+00  0.13421360965E+04  0.13421360965E+04  0.25500000000E-02 0. -1.
         -1   -1    0    0    0  501 -0.00000000000E+00 -0.00000000000E+00 -0.11465070482E+01  0.11465181260E+01  0.50400000000E-02 0.  1.
         24    2    1    2    0    0 -0.17763568394E-14  0.00000000000E+00  0.13409895895E+04  0.13432826147E+04  0.78454469249E+02 0.  0.
         66    2    3    3    0    0  0.13439900085E+02 -0.17089905480E+02  0.12294456333E+04  0.12296394842E+04  0.19999978684E+01 0.  0.
        -13    1    3    3    0    0 -0.13439900085E+02  0.17089905480E+02  0.11154395613E+03  0.11364313045E+03  0.10566000000E+00 0.  1.
         13    1    4    4    0    0  0.49664614437E+01 -0.57845549308E+01  0.45851557873E+03  0.45857897239E+03  0.10566000000E+00 0. -1.
        -13    1    4    4    0    0  0.66885810950E+01 -0.81090910465E+01  0.58433911996E+03  0.58443366839E+03  0.10566000000E+00 0. -1.
         14    1    4    4    0    0  0.17848575460E+01 -0.31962595031E+01  0.18659093466E+03  0.18662684343E+03  0.00000000000E+00 0. -1.
<mgrwt>
<rscale>  0 0.78454469E+02</rscale>
<asrwt>0</asrwt>
<pdfrwt beam="1">  1        2 0.20648423E+00 0.78454469E+02</pdfrwt>
<pdfrwt beam="2">  1       -1 0.17638505E-03 0.78454469E+02</pdfrwt>
<totfact> 0.36168815E+05</totfact>
</mgrwt>
</event>
<event>
 8    1  0.2603554E-024  0.7928117E+02  0.7818608E-02  0.1331104E+00
          2   -1    0    0  501    0  0.00000000000E+00  0.00000000000E+00  0.48040898499E+03  0.48040898500E+03  0.25500000000E-02 0. -1.
         -1   -1    0    0    0  501 -0.00000000000E+00 -0.00000000000E+00 -0.32709110403E+01  0.32709149233E+01  0.50400000000E-02 0.  1.
         24    2    1    2    0    0  0.00000000000E+00  0.00000000000E+00  0.47713807395E+03  0.48367989992E+03  0.79281170364E+02 0.  0.
         66    2    3    3    0    0 -0.11104091478E+02  0.17560888803E+01  0.47047009117E+03  0.47060863930E+03  0.20000019172E+01 0.  0.
        -13    1    3    3    0    0  0.11104091478E+02 -0.17560888803E+01  0.66679827829E+01  0.13071260618E+02  0.10566000000E+00 0.  1.
         13    1    4    4    0    0 -0.27575676147E+01  0.17988087056E+00  0.13805461291E+03  0.13808230823E+03  0.10566000000E+00 0. -1.
        -13    1    4    4    0    0 -0.51562122824E+01  0.10682050719E+01  0.18212641799E+03  0.18220255454E+03  0.10566000000E+00 0.  1.
        -14    1    4    4    0    0 -0.31903115811E+01  0.50800293781E+00  0.15028906027E+03  0.15032377653E+03  0.00000000000E+00 0.  1.
<mgrwt>
<rscale>  0 0.79281170E+02</rscale>
<asrwt>0</asrwt>
<pdfrwt beam="1">  1        2 0.73909059E-01 0.79281170E+02</pdfrwt>
<pdfrwt beam="2">  1       -1 0.50321749E-03 0.79281170E+02</pdfrwt>
<totfact> 0.30777208E+05</totfact>
</mgrwt>
</event>
<event>
 8    1  0.2603554E-024  0.8252096E+02  0.7818608E-02  0.1322046E+00
          2   -1    0    0  501    0  0.00000000000E+00  0.00000000000E+00  0.78292546980E+03  0.78292546981E+03  0.25500000000E-02 0. -1.
         -1   -1    0    0    0  501 -0.00000000000E+00 -0.00000000000E+00 -0.21744406916E+01  0.21744465326E+01  0.50400000000E-02 0.  1.
         24    2    1    2    0    0  0.00000000000E+00 -0.17763568394E-14  0.78075102911E+03  0.78509991634E+03  0.82520962053E+02 0.  0.
         66    2    3    3    0    0  0.11809426794E+02  0.86097864155E+01  0.75745669254E+03  0.75760031155E+03  0.20000003710E+01 0.  0.
        -13    1    3    3    0    0 -0.11809426794E+02 -0.86097864155E+01  0.23294336569E+02  0.27499604789E+02  0.10566000000E+00 0.  1.
         13    1    4    4    0    0  0.44641529502E+01  0.31233292958E+01  0.27141130038E+03  0.27146599969E+03  0.10566000000E+00 0. -1.
        -13    1    4    4    0    0  0.11580724745E+01  0.32986208132E+00  0.50589803338E+02  0.50604241983E+02  0.10566000000E+00 0. -1.
        -14    1    4    4    0    0  0.61872013690E+01  0.51565950384E+01  0.43545558882E+03  0.43553006988E+03  0.00000000000E+00 0.  1.
<mgrwt>
<rscale>  0 0.82520962E+02</rscale>
<asrwt>0</asrwt>
<pdfrwt beam="1">  1        2 0.12045006E+00 0.82520962E+02</pdfrwt>
<pdfrwt beam="2">  1       -1 0.33452982E-03 0.82520962E+02</pdfrwt>
<totfact> 0.31579157E+05</totfact>
</mgrwt>
</event>
<event>
 8    1  0.2603554E-024  0.8019456E+02  0.7818608E-02  0.1328500E+00
         -1   -1    0    0    0  501 -0.00000000000E+00  0.00000000000E+00  0.17110338899E+02  0.17110339641E+02  0.50400000000E-02 0.  1.
          2   -1    0    0  501    0  0.00000000000E+00 -0.00000000000E+00 -0.93966099445E+02  0.93966099480E+02  0.25500000000E-02 0. -1.
         24    2    1    2    0    0  0.35527136788E-14  0.17763568394E-14 -0.76855760546E+02  0.11107643912E+03  0.80194559657E+02 0.  0.
         66    2    3    3    0    0 -0.17063330304E+02 -0.97405877377E+01 -0.86825777076E+02  0.89043539081E+02  0.19999991834E+01 0.  0.
        -13    1    3    3    0    0  0.17063330304E+02  0.97405877377E+01  0.99700165292E+01  0.22032900040E+02  0.10566000000E+00 0.  1.
         13    1    4    4    0    0 -0.38956163248E+01 -0.29758348410E+01 -0.21972083023E+02  0.22512552409E+02  0.10566000000E+00 0. -1.
        -13    1    4    4    0    0 -0.15544573429E+01 -0.67538664661E+00 -0.89850120199E+01  0.91440740256E+01  0.10566000000E+00 0.  1.
         14    1    4    4    0    0 -0.11613256636E+02 -0.60893662501E+01 -0.55868682032E+02  0.57386912646E+02  0.00000000000E+00 0. -1.
<mgrwt>
<rscale>  0 0.80194560E+02</rscale>
<asrwt>0</asrwt>
<pdfrwt beam="1">  1        2 0.14456323E-01 0.80194560E+02</pdfrwt>
<pdfrwt beam="2">  1       -1 0.26323599E-02 0.80194560E+02</pdfrwt>
<totfact> 0.17310066E+05</totfact>
</mgrwt>
</event>
<event>
 8    1  0.2603554E-024  0.8113982E+02  0.7818608E-02  0.1325848E+00
          2   -1    0    0  501    0  0.00000000000E+00  0.00000000000E+00  0.25887412353E+02  0.25887412479E+02  0.25500000000E-02 0. -1.
         -1   -1    0    0    0  501 -0.00000000000E+00 -0.00000000000E+00 -0.63579848581E+02  0.63579848780E+02  0.50400000000E-02 0.  1.
         24    2    1    2    0    0  0.00000000000E+00  0.00000000000E+00 -0.37692436227E+02  0.89467261259E+02  0.81139824307E+02 0.  0.
         66    2    3    3    0    0  0.16588424472E+01 -0.30943787887E+02  0.99723722249E+01  0.32614689674E+02  0.20000019206E+01 0.  0.
        -13    1    3    3    0    0 -0.16588424472E+01  0.30943787887E+02 -0.47664808452E+02  0.56852571585E+02  0.10566000000E+00 0.  1.
         13    1    4    4    0    0  0.62632534178E+00 -0.33381185929E+01  0.70728013240E+00  0.34708397248E+01  0.10566000000E+00 0. -1.
        -13    1    4    4    0    0  0.10107079489E+01 -0.27179731501E+02  0.90405536901E+01  0.28661858106E+02  0.10566000000E+00 0.  1.
        -14    1    4    4    0    0  0.21809156504E-01 -0.42593779329E+00  0.22453840238E+00  0.48199184351E+00  0.00000000000E+00 0.  1.
<mgrwt>
<rscale>  0 0.81139824E+02</rscale>
<asrwt>0</asrwt>
<pdfrwt beam="1">  1        2 0.39826789E-02 0.81139824E+02</pdfrwt>
<pdfrwt beam="2">  1       -1 0.97815152E-02 0.81139824E+02</pdfrwt>
<totfact> 0.12557115E+05</totfact>
</mgrwt>
</event>
<event>
 8    1  0.2603554E-024  0.8082877E+02  0.7818608E-02  0.1326716E+00
         -1   -1    0    0    0  501 -0.00000000000E+00  0.00000000000E+00  0.36161666214E+01  0.36161701336E+01  0.50400000000E-02 0.  1.
          2   -1    0    0  501    0  0.00000000000E+00 -0.00000000000E+00 -0.45167208945E+03  0.45167208946E+03  0.25500000000E-02 0. -1.
         24    2    1    2    0    0  0.00000000000E+00  0.88817841970E-15 -0.44805592283E+03  0.45528825959E+03  0.80828765544E+02 0.  0.
         66    2    3    3    0    0  0.34345906603E+02  0.78756421136E+01 -0.33535276709E+03  0.33720490125E+03  0.19999986200E+01 0.  0.
        -13    1    3    3    0    0 -0.34345906603E+02 -0.78756421136E+01 -0.11270315575E+03  0.11808335835E+03  0.10566000000E+00 0.  1.
         13    1    4    4    0    0  0.83487371335E+01  0.27020745099E+01 -0.85180363173E+02  0.85631232928E+02  0.10566000000E+00 0. -1.
        -13    1    4    4    0    0  0.12279277994E+02  0.24278003210E+01 -0.12126804470E+03  0.12191236489E+03  0.10566000000E+00 0.  1.
         14    1    4    4    0    0  0.13717891476E+02  0.27457672827E+01 -0.12890435921E+03  0.12966130343E+03  0.00000000000E+00 0. -1.
<mgrwt>
<rscale>  0 0.80828766E+02</rscale>
<asrwt>0</asrwt>
<pdfrwt beam="1">  1        2 0.69487969E-01 0.80828766E+02</pdfrwt>
<pdfrwt beam="2">  1       -1 0.55633396E-03 0.80828766E+02</pdfrwt>
<totfact> 0.28673306E+05</totfact>
</mgrwt>
</event>
<event>
 8    1  0.2603554E-024  0.8042882E+02  0.7818608E-02  0.1327839E+00
         -1   -1    0    0    0  501 -0.00000000000E+00  0.00000000000E+00  0.47261316897E+01  0.47261343770E+01  0.50400000000E-02 0.  1.
          2   -1    0    0  501    0  0.00000000000E+00 -0.00000000000E+00 -0.34218225187E+03  0.34218225188E+03  0.25500000000E-02 0. -1.
         24    2    1    2    0    0  0.00000000000E+00 -0.17763568394E-14 -0.33745612018E+03  0.34690838626E+03  0.80428821998E+02 0.  0.
         66    2    3    3    0    0 -0.19905071425E+02  0.94136248626E+01 -0.31384698428E+03  0.31462478882E+03  0.19999992730E+01 0.  0.
        -13    1    3    3    0    0  0.19905071425E+02 -0.94136248626E+01 -0.23609135903E+02  0.32283597439E+02  0.10566000000E+00 0.  1.
         13    1    4    4    0    0 -0.11513958434E+02  0.57984928761E+01 -0.18508398020E+03  0.18553243557E+03  0.10566000000E+00 0. -1.
        -13    1    4    4    0    0 -0.36235655042E+01  0.14450444981E+01 -0.63242735481E+02  0.63363026566E+02  0.10566000000E+00 0.  1.
         14    1    4    4    0    0 -0.47675474861E+01  0.21700874885E+01 -0.65520268595E+02  0.65729326678E+02  0.00000000000E+00 0. -1.
<mgrwt>
<rscale>  0 0.80428822E+02</rscale>
<asrwt>0</asrwt>
<pdfrwt beam="1">  1        2 0.52643404E-01 0.80428822E+02</pdfrwt>
<pdfrwt beam="2">  1       -1 0.72709766E-03 0.80428822E+02</pdfrwt>
<totfact> 0.26361213E+05</totfact>
</mgrwt>
</event>
<event>
 8    1  0.2603554E-024  0.7758660E+02  0.7818608E-02  0.1336043E+00
         -1   -1    0    0    0  501 -0.00000000000E+00  0.00000000000E+00  0.14913424397E+01  0.14913509560E+01  0.50400000000E-02 0.  1.
          2   -1    0    0  501    0  0.00000000000E+00 -0.00000000000E+00 -0.10091015803E+04  0.10091015803E+04  0.25500000000E-02 0. -1.
         24    2    1    2    0    0  0.00000000000E+00 -0.17763568394E-14 -0.10076102379E+04  0.10105929313E+04  0.77586604967E+02 0.  0.
         66    2    3    3    0    0  0.10794442387E+02 -0.14274381950E+02 -0.95207428631E+03  0.95224457185E+03  0.20000023782E+01 0.  0.
        -13    1    3    3    0    0 -0.10794442387E+02  0.14274381950E+02 -0.55535951560E+02  0.58348359413E+02  0.10566000000E+00 0.  1.
         13    1    4    4    0    0  0.58715589749E+01 -0.80840302630E+01 -0.55967463445E+03  0.55976382016E+03  0.10566000000E+00 0. -1.
        -13    1    4    4    0    0  0.13362260027E+01 -0.11970723890E+01 -0.74643947809E+02  0.74665578353E+02  0.10566000000E+00 0.  1.
         14    1    4    4    0    0  0.35866574090E+01 -0.49932792983E+01 -0.31775570405E+03  0.31781517334E+03  0.00000000000E+00 0. -1.
<mgrwt>
<rscale>  0 0.77586605E+02</rscale>
<asrwt>0</asrwt>
<pdfrwt beam="1">  1        2 0.15524585E+00 0.77586605E+02</pdfrwt>
<pdfrwt beam="2">  1       -1 0.22943876E-03 0.77586605E+02</pdfrwt>
<totfact> 0.38155925E+05</totfact>
</mgrwt>
</event>
<event>
 8    1  0.2603554E-024  0.7562755E+02  0.7818608E-02  0.1341939E+00
          2   -1    0    0  501    0  0.00000000000E+00  0.00000000000E+00  0.44620605149E+03  0.44620605149E+03  0.25500000000E-02 0. -1.
         -1   -1    0    0    0  501 -0.00000000000E+00 -0.00000000000E+00 -0.32045296793E+01  0.32045336427E+01  0.50400000000E-02 0.  1.
         24    2    1    2    0    0  0.00000000000E+00 -0.71054273576E-14  0.44300152181E+03  0.44941058514E+03  0.75627545968E+02 0.  0.
         66    2    3    3    0    0  0.11726494394E+02 -0.35832187410E+02  0.23671222352E+03  0.23970426173E+03  0.20000004160E+01 0.  0.
        -13    1    3    3    0    0 -0.11726494394E+02  0.35832187410E+02  0.20628929828E+03  0.20970632340E+03  0.10566000000E+00 0.  1.
         13    1    4    4    0    0  0.23968965582E+01 -0.71914920541E+01  0.47833427378E+02  0.48430471915E+02  0.10566000000E+00 0. -1.
        -13    1    4    4    0    0  0.53655912741E+01 -0.15816193726E+02  0.11009187046E+03  0.11135157232E+03  0.10566000000E+00 0.  1.
        -14    1    4    4    0    0  0.39640065620E+01 -0.12824501630E+02  0.78786925690E+02  0.79922217498E+02  0.00000000000E+00 0.  1.
<mgrwt>
<rscale>  0 0.75627546E+02</rscale>
<asrwt>0</asrwt>
<pdfrwt beam="1">  1        2 0.68647112E-01 0.75627546E+02</pdfrwt>
<pdfrwt beam="2">  1       -1 0.49300468E-03 0.75627546E+02</pdfrwt>
<totfact> 0.33954425E+05</totfact>
</mgrwt>
</event>
<event>
 8    1  0.2603554E-024  0.8415549E+02  0.7818608E-02  0.1317656E+00
         -1   -1    0    0    0  501 -0.00000000000E+00  0.00000000000E+00  0.60093360415E+02  0.60093360626E+02  0.50400000000E-02 0.  1.
          2   -1    0    0  501    0  0.00000000000E+00 -0.00000000000E+00 -0.29463098856E+02  0.29463098966E+02  0.25500000000E-02 0. -1.
         24    2    1    2    0    0  0.35527136788E-14  0.00000000000E+00  0.30630261559E+02  0.89556459593E+02  0.84155490205E+02 0.  0.
         66    2    3    3    0    0  0.25593697093E+02  0.10007320384E+02 -0.18552368760E+02  0.33217076553E+02  0.19999989868E+01 0.  0.
        -13    1    3    3    0    0 -0.25593697093E+02 -0.10007320384E+02  0.49182630319E+02  0.56339383040E+02  0.10566000000E+00 0.  1.
         13    1    4    4    0    0  0.90582017367E+01  0.35853487712E+01 -0.56094670661E+01  0.11242020695E+02  0.10566000000E+00 0. -1.
        -13    1    4    4    0    0  0.11025513515E+02  0.43021956552E+01 -0.81421523276E+01  0.14365815128E+02  0.10566000000E+00 0. -1.
         14    1    4    4    0    0  0.55099818412E+01  0.21197759575E+01 -0.48007493667E+01  0.76092407297E+01  0.00000000000E+00 0. -1.
<mgrwt>
<rscale>  0 0.84155490E+02</rscale>
<asrwt>0</asrwt>
<pdfrwt beam="1">  1        2 0.45327845E-02 0.84155490E+02</pdfrwt>
<pdfrwt beam="2">  1       -1 0.92451324E-02 0.84155490E+02</pdfrwt>
<totfact> 0.11624336E+05</totfact>
</mgrwt>
</event>
<event>
 8    1  0.2603554E-024  0.7824079E+02  0.7818608E-02  0.1334119E+00
         -1   -1    0    0    0  501 -0.00000000000E+00  0.00000000000E+00  0.15313530841E+01  0.15313613779E+01  0.50400000000E-02 0.  1.
          2   -1    0    0  501    0  0.00000000000E+00 -0.00000000000E+00 -0.99937828412E+03  0.99937828412E+03  0.25500000000E-02 0. -1.
         24    2    1    2    0    0  0.17763568394E-14  0.00000000000E+00 -0.99784693103E+03  0.10009096455E+04  0.78240786547E+02 0.  0.
         66    2    3    3    0    0 -0.11162291362E+02  0.18078010612E+02 -0.91907260420E+03  0.91932032666E+03  0.20000017408E+01 0.  0.
        -13    1    3    3    0    0  0.11162291362E+02 -0.18078010612E+02 -0.78774326835E+02  0.81589318838E+02  0.10566000000E+00 0.  1.
         13    1    4    4    0    0 -0.58669238691E+01  0.82291170568E+01 -0.42669634948E+03  0.42681603178E+03  0.10566000000E+00 0. -1.
        -13    1    4    4    0    0 -0.33609273808E+01  0.57898723720E+01 -0.27446285260E+03  0.27454450837E+03  0.10566000000E+00 0.  1.
        -14    1    4    4    0    0 -0.19344401121E+01  0.40590211830E+01 -0.21791340212E+03  0.21795978651E+03  0.00000000000E+00 0.  1.
<mgrwt>
<rscale>  0 0.78240787E+02</rscale>
<asrwt>0</asrwt>
<pdfrwt beam="1">  1        2 0.15374998E+00 0.78240787E+02</pdfrwt>
<pdfrwt beam="2">  1       -1 0.23559422E-03 0.78240787E+02</pdfrwt>
<totfact> 0.37321394E+05</totfact>
</mgrwt>
</event>
<event>
 8    1  0.2603554E-024  0.8085684E+02  0.7818608E-02  0.1326637E+00
          2   -1    0    0  501    0  0.00000000000E+00  0.00000000000E+00  0.57615586024E+03  0.57615586025E+03  0.25500000000E-02 0. -1.
         -1   -1    0    0    0  501 -0.00000000000E+00 -0.00000000000E+00 -0.28368293382E+01  0.28368338153E+01  0.50400000000E-02 0.  1.
         24    2    1    2    0    0  0.00000000000E+00  0.00000000000E+00  0.57331903090E+03  0.57899269406E+03  0.80856840043E+02 0.  0.
         66    2    3    3    0    0 -0.31755237318E+02 -0.79945900147E+01  0.45630955446E+03  0.45748739661E+03  0.20000005082E+01 0.  0.
        -13    1    3    3    0    0  0.31755237318E+02  0.79945900147E+01  0.11700947645E+03  0.12150529745E+03  0.10566000000E+00 0.  1.
         13    1    4    4    0    0 -0.61124231270E+01 -0.13930218524E+01  0.89817369399E+02  0.90035955241E+02  0.10566000000E+00 0. -1.
        -13    1    4    4    0    0 -0.97544347664E+01 -0.31912789093E+01  0.13502698133E+03  0.13541650605E+03  0.10566000000E+00 0.  1.
        -14    1    4    4    0    0 -0.15888379425E+02 -0.34102892529E+01  0.23146520373E+03  0.23203493532E+03  0.00000000000E+00 0.  1.
<mgrwt>
<rscale>  0 0.80856840E+02</rscale>
<asrwt>0</asrwt>
<pdfrwt beam="1">  1        2 0.88639231E-01 0.80856840E+02</pdfrwt>
<pdfrwt beam="2">  1       -1 0.43643628E-03 0.80856840E+02</pdfrwt>
<totfact> 0.30925486E+05</totfact>
</mgrwt>
</event>
<event>
 8    1  0.2603554E-024  0.7833158E+02  0.7818608E-02  0.1333854E+00
          2   -1    0    0  501    0  0.00000000000E+00  0.00000000000E+00  0.93691597432E+03  0.93691597433E+03  0.25500000000E-02 0. -1.
         -1   -1    0    0    0  501 -0.00000000000E+00 -0.00000000000E+00 -0.16372390210E+01  0.16372467785E+01  0.50400000000E-02 0.  1.
         24    2    1    2    0    0  0.00000000000E+00  0.00000000000E+00  0.93527873530E+03  0.93855322111E+03  0.78331578169E+02 0.  0.
         66    2    3    3    0    0  0.38674686181E+01 -0.22117365750E+02  0.85207523690E+03  0.85237335982E+03  0.20000016035E+01 0.  0.
        -13    1    3    3    0    0 -0.38674686181E+01  0.22117365750E+02  0.83203498404E+02  0.86179861290E+02  0.10566000000E+00 0.  1.
         13    1    4    4    0    0  0.18453298458E+01 -0.86248617440E+01  0.31091510468E+03  0.31104020152E+03  0.10566000000E+00 0. -1.
        -13    1    4    4    0    0 -0.11322442006E+00 -0.90941320071E+00  0.35672478960E+02  0.35684405156E+02  0.10566000000E+00 0.  1.
        -14    1    4    4    0    0  0.21353631924E+01 -0.12583090806E+02  0.50548765326E+03  0.50564875314E+03  0.00000000000E+00 0.  1.
<mgrwt>
<rscale>  0 0.78331578E+02</rscale>
<asrwt>0</asrwt>
<pdfrwt beam="1">  1        2 0.14414132E+00 0.78331578E+02</pdfrwt>
<pdfrwt beam="2">  1       -1 0.25188282E-03 0.78331578E+02</pdfrwt>
<totfact> 0.37055550E+05</totfact>
</mgrwt>
</event>
<event>
 8    1  0.2603554E-024  0.8036359E+02  0.7818608E-02  0.1328023E+00
          2   -1    0    0  501    0  0.00000000000E+00  0.00000000000E+00  0.40582246276E+02  0.40582246356E+02  0.25500000000E-02 0. -1.
         -1   -1    0    0    0  501 -0.00000000000E+00 -0.00000000000E+00 -0.39785299635E+02  0.39785299955E+02  0.50400000000E-02 0.  1.
         24    2    1    2    0    0  0.00000000000E+00  0.00000000000E+00  0.79694664058E+00  0.80367546311E+02  0.80363594843E+02 0.  0.
         66    2    3    3    0    0 -0.33616855538E+02 -0.20333516720E+02  0.87073768450E+01  0.40290982729E+02  0.19999998091E+01 0.  0.
        -13    1    3    3    0    0  0.33616855538E+02  0.20333516720E+02 -0.79104302045E+01  0.40076563582E+02  0.10566000000E+00 0.  1.
         13    1    4    4    0    0 -0.36643016391E+01 -0.17487944513E+01  0.65626687456E+00  0.41142725702E+01  0.10566000000E+00 0.  1.
        -13    1    4    4    0    0 -0.40744527583E+01 -0.26396813400E+01  0.71968215981E+00  0.49089906604E+01  0.10566000000E+00 0.  1.
         14    1    4    4    0    0 -0.25878101141E+02 -0.15945040928E+02  0.73314278107E+01  0.31267719498E+02  0.00000000000E+00 0. -1.
<mgrwt>
<rscale>  0 0.80363595E+02</rscale>
<asrwt>0</asrwt>
<pdfrwt beam="1">  1        2 0.62434225E-02 0.80363595E+02</pdfrwt>
<pdfrwt beam="2">  1       -1 0.61208154E-02 0.80363595E+02</pdfrwt>
<totfact> 0.14119654E+05</totfact>
</mgrwt>
</event>
<event>
 8    1  0.2603554E-024  0.7910723E+02  0.7818608E-02  0.1331604E+00
         -1   -1    0    0    0  501 -0.00000000000E+00  0.00000000000E+00  0.22871055349E+03  0.22871055355E+03  0.50400000000E-02 0.  1.
          2   -1    0    0  501    0  0.00000000000E+00 -0.00000000000E+00 -0.68404739769E+01  0.68404744522E+01  0.25500000000E-02 0. -1.
         24    2    1    2    0    0  0.35527136788E-14 -0.35527136788E-14  0.22187007951E+03  0.23555102800E+03  0.79107234863E+02 0.  0.
         66    2    3    3    0    0 -0.25311999902E+02 -0.23982956412E+02  0.55570541349E+02  0.65635086736E+02  0.20000019204E+01 0.  0.
        -13    1    3    3    0    0  0.25311999902E+02  0.23982956412E+02  0.16629953817E+03  0.16991594126E+03  0.10566000000E+00 0.  1.
         13    1    4    4    0    0 -0.11103655417E+02 -0.10472507498E+02  0.23055096963E+02  0.27649832494E+02  0.10566000000E+00 0.  1.
        -13    1    4    4    0    0 -0.60393201199E+01 -0.50288877836E+01  0.12758940538E+02  0.14985487231E+02  0.10566000000E+00 0. -1.
        -14    1    4    4    0    0 -0.81690243649E+01 -0.84815611311E+01  0.19756503848E+02  0.22999767012E+02  0.00000000000E+00 0.  1.
<mgrwt>
<rscale>  0 0.79107235E+02</rscale>
<asrwt>0</asrwt>
<pdfrwt beam="1">  1        2 0.10523809E-02 0.79107235E+02</pdfrwt>
<pdfrwt beam="2">  1       -1 0.35186230E-01 0.79107235E+02</pdfrwt>
<totfact> 0.98238621E+04</totfact>
</mgrwt>
</event>
<event>
 8    1  0.2603554E-024  0.8050582E+02  0.7818608E-02  0.1327622E+00
         -1   -1    0    0    0  501 -0.00000000000E+00  0.00000000000E+00  0.51750958568E+02  0.51750958814E+02  0.50400000000E-02 0.  1.
          2   -1    0    0  501    0  0.00000000000E+00 -0.00000000000E+00 -0.31309498700E+02  0.31309498804E+02  0.25500000000E-02 0. -1.
         24    2    1    2    0    0  0.00000000000E+00  0.00000000000E+00  0.20441459868E+02  0.83060457618E+02  0.80505815555E+02 0.  0.
         66    2    3    3    0    0 -0.29374682209E+02 -0.26333927279E+02  0.21068252832E+01  0.39557381058E+02  0.20000006404E+01 0.  0.
        -13    1    3    3    0    0  0.29374682209E+02  0.26333927279E+02  0.18334634585E+02  0.43503076560E+02  0.10566000000E+00 0.  1.
         13    1    4    4    0    0 -0.13188352605E+01 -0.12049456291E+01  0.44157276476E+00  0.18431958538E+01  0.10566000000E+00 0. -1.
        -13    1    4    4    0    0 -0.10554333572E+02 -0.88812951410E+01  0.40645516475E+00  0.13800280083E+02  0.10566000000E+00 0.  1.
         14    1    4    4    0    0 -0.17501513376E+02 -0.16247686509E+02  0.12587973537E+01  0.23913905121E+02  0.00000000000E+00 0. -1.
<mgrwt>
<rscale>  0 0.80505816E+02</rscale>
<asrwt>0</asrwt>
<pdfrwt beam="1">  1        2 0.48168460E-02 0.80505816E+02</pdfrwt>
<pdfrwt beam="2">  1       -1 0.79616859E-02 0.80505816E+02</pdfrwt>
<totfact> 0.13332140E+05</totfact>
</mgrwt>
</event>
<event>
 8    1  0.2603554E-024  0.7810629E+02  0.7818608E-02  0.1334513E+00
         -1   -1    0    0    0  501 -0.00000000000E+00  0.00000000000E+00  0.19683542943E+01  0.19683607468E+01  0.50400000000E-02 0.  1.
          2   -1    0    0  501    0  0.00000000000E+00 -0.00000000000E+00 -0.77483287656E+03  0.77483287656E+03  0.25500000000E-02 0. -1.
         24    2    1    2    0    0  0.00000000000E+00  0.35527136788E-14 -0.77286452227E+03  0.77680123731E+03  0.78106289829E+02 0.  0.
         66    2    3    3    0    0 -0.82461396582E+01 -0.95777362438E+01 -0.75391425060E+03  0.75402283063E+03  0.19999996763E+01 0.  0.
        -13    1    3    3    0    0  0.82461396582E+01  0.95777362438E+01 -0.18950271667E+02  0.22778406685E+02  0.10566000000E+00 0.  1.
         13    1    4    4    0    0 -0.12027143383E+01 -0.16069541005E+01 -0.10285114281E+03  0.10287078090E+03  0.10566000000E+00 0.  1.
        -13    1    4    4    0    0 -0.13541614217E+01 -0.20235699747E+01 -0.18814800869E+03  0.18816379281E+03  0.10566000000E+00 0. -1.
         14    1    4    4    0    0 -0.56892638982E+01 -0.59472121685E+01 -0.46291509910E+03  0.46298825691E+03  0.00000000000E+00 0. -1.
<mgrwt>
<rscale>  0 0.78106290E+02</rscale>
<asrwt>0</asrwt>
<pdfrwt beam="1">  1        2 0.11920482E+00 0.78106290E+02</pdfrwt>
<pdfrwt beam="2">  1       -1 0.30282485E-03 0.78106290E+02</pdfrwt>
<totfact> 0.36360024E+05</totfact>
</mgrwt>
</event>
<event>
 8    1  0.2603554E-024  0.8031685E+02  0.7818608E-02  0.1328155E+00
          2   -1    0    0  501    0  0.00000000000E+00  0.00000000000E+00  0.66106630387E+02  0.66106630436E+02  0.25500000000E-02 0. -1.
         -1   -1    0    0    0  501 -0.00000000000E+00 -0.00000000000E+00 -0.24395422202E+02  0.24395422722E+02  0.50400000000E-02 0.  1.
         24    2    1    2    0    0  0.35527136788E-14  0.00000000000E+00  0.41711208186E+02  0.90502053159E+02  0.80316852140E+02 0.  0.
         66    2    3    3    0    0  0.29823734479E+02  0.26700090445E+02  0.17613541035E+02  0.43778839504E+02  0.19999981255E+01 0.  0.
        -13    1    3    3    0    0 -0.29823734479E+02 -0.26700090445E+02  0.24097667151E+02  0.46723213654E+02  0.10566000000E+00 0.  1.
         13    1    4    4    0    0  0.18760640922E+02  0.17706303067E+02  0.11891536174E+02  0.28405890458E+02  0.10566000000E+00 0. -1.
        -13    1    4    4    0    0  0.65837895808E+01  0.51772994145E+01  0.31167594081E+01  0.89373411994E+01  0.10566000000E+00 0.  1.
        -14    1    4    4    0    0  0.44793039760E+01  0.38164879632E+01  0.26052454530E+01  0.64356078464E+01  0.00000000000E+00 0.  1.
<mgrwt>
<rscale>  0 0.80316852E+02</rscale>
<asrwt>0</asrwt>
<pdfrwt beam="1">  1        2 0.10170251E-01 0.80316852E+02</pdfrwt>
<pdfrwt beam="2">  1       -1 0.37531420E-02 0.80316852E+02</pdfrwt>
<totfact> 0.15754931E+05</totfact>
</mgrwt>
</event>
<event>
 8    1  0.2603554E-024  0.8132772E+02  0.7818608E-02  0.1325325E+00
          2   -1    0    0  501    0  0.00000000000E+00  0.00000000000E+00  0.83752921257E+03  0.83752921257E+03  0.25500000000E-02 0. -1.
         -1   -1    0    0    0  501 -0.00000000000E+00 -0.00000000000E+00 -0.19743154650E+01  0.19743218980E+01  0.50400000000E-02 0.  1.
         24    2    1    2    0    0  0.35527136788E-14  0.00000000000E+00  0.83555489710E+03  0.83950353447E+03  0.81327721686E+02 0.  0.
         66    2    3    3    0    0 -0.31745482568E+02  0.43824876150E+01  0.67600103402E+03  0.67676316379E+03  0.20000005257E+01 0.  0.
        -13    1    3    3    0    0  0.31745482568E+02 -0.43824876150E+01  0.15955386308E+03  0.16274037068E+03  0.10566000000E+00 0.  1.
         13    1    4    4    0    0 -0.63699545309E+01  0.11474911791E+01  0.14283449363E+03  0.14298110641E+03  0.10566000000E+00 0. -1.
        -13    1    4    4    0    0 -0.86650719054E+00 -0.86890009959E-01  0.22053830948E+02  0.22071271103E+02  0.10566000000E+00 0.  1.
         14    1    4    4    0    0 -0.24509020846E+02  0.33218864458E+01  0.51111270945E+03  0.51171078628E+03  0.00000000000E+00 0. -1.
<mgrwt>
<rscale>  0 0.81327722E+02</rscale>
<asrwt>0</asrwt>
<pdfrwt beam="1">  1        2 0.12885087E+00 0.81327722E+02</pdfrwt>
<pdfrwt beam="2">  1       -1 0.30374080E-03 0.81327722E+02</pdfrwt>
<totfact> 0.33170563E+05</totfact>
</mgrwt>
</event>
<event>
 8    1  0.2603554E-024  0.7885430E+02  0.7818608E-02  0.1332335E+00
          2   -1    0    0  501    0  0.00000000000E+00  0.00000000000E+00  0.39438039086E+03  0.39438039087E+03  0.25500000000E-02 0. -1.
         -1   -1    0    0    0  501 -0.00000000000E+00 -0.00000000000E+00 -0.39416251980E+01  0.39416284202E+01  0.50400000000E-02 0.  1.
         24    2    1    2    0    0 -0.17763568394E-14  0.00000000000E+00  0.39043876566E+03  0.39832201929E+03  0.78854304375E+02 0.  0.
         66    2    3    3    0    0  0.15851438625E+02  0.52903084521E+01  0.37558995051E+03  0.37596684214E+03  0.19999980383E+01 0.  0.
        -13    1    3    3    0    0 -0.15851438625E+02 -0.52903084521E+01  0.14848815151E+02  0.22355177150E+02  0.10566000000E+00 0.  1.
         13    1    4    4    0    0  0.57171871456E+01  0.24476021093E+01  0.14822460876E+03  0.14835505651E+03  0.10566000000E+00 0. -1.
        -13    1    4    4    0    0  0.91847414038E+01  0.28441814583E+01  0.21089857391E+03  0.21111766503E+03  0.10566000000E+00 0.  1.
        -14    1    4    4    0    0  0.94951007602E+00 -0.14751155475E-02  0.16466767833E+02  0.16494120602E+02  0.00000000000E+00 0.  1.
<mgrwt>
<rscale>  0 0.78854304E+02</rscale>
<asrwt>0</asrwt>
<pdfrwt beam="1">  1        2 0.60673914E-01 0.78854304E+02</pdfrwt>
<pdfrwt beam="2">  1       -1 0.60640405E-03 0.78854304E+02</pdfrwt>
<totfact> 0.29192921E+05</totfact>
</mgrwt>
</event>
<event>
 8    1  0.2603554E-024  0.8043557E+02  0.7818608E-02  0.1327820E+00
          2   -1    0    0  501    0  0.00000000000E+00  0.00000000000E+00  0.42949196827E+03  0.42949196828E+03  0.25500000000E-02 0. -1.
         -1   -1    0    0    0  501 -0.00000000000E+00 -0.00000000000E+00 -0.37660063598E+01  0.37660097323E+01  0.50400000000E-02 0.  1.
         24    2    1    2    0    0 -0.88817841970E-15  0.00000000000E+00  0.42572596191E+03  0.43325797801E+03  0.80435569649E+02 0.  0.
         66    2    3    3    0    0 -0.72844950027E+01  0.38677284195E+02  0.25690874464E+03  0.25991363807E+03  0.19999998302E+01 0.  0.
        -13    1    3    3    0    0  0.72844950027E+01 -0.38677284195E+02  0.16881721727E+03  0.17334433994E+03  0.10566000000E+00 0.  1.
         13    1    4    4    0    0 -0.48319177483E+01  0.26417737563E+02  0.16987023134E+03  0.17198008880E+03  0.10566000000E+00 0. -1.
        -13    1    4    4    0    0 -0.16406622249E+00  0.66035027863E+00  0.43788810047E+01  0.44326902785E+01  0.10566000000E+00 0. -1.
         14    1    4    4    0    0 -0.22885110319E+01  0.11599196354E+02  0.82659632304E+02  0.83500858986E+02  0.00000000000E+00 0. -1.
<mgrwt>
<rscale>  0 0.80435570E+02</rscale>
<asrwt>0</asrwt>
<pdfrwt beam="1">  1        2 0.66075659E-01 0.80435570E+02</pdfrwt>
<pdfrwt beam="2">  1       -1 0.57938611E-03 0.80435570E+02</pdfrwt>
<totfact> 0.28549659E+05</totfact>
</mgrwt>
</event>
<event>
 8    1  0.2603554E-024  0.7991850E+02  0.7818608E-02  0.1329283E+00
         -1   -1    0    0    0  501 -0.00000000000E+00  0.00000000000E+00  0.16217429402E+02  0.16217430186E+02  0.50400000000E-02 0.  1.
          2   -1    0    0  501    0  0.00000000000E+00 -0.00000000000E+00 -0.98458367491E+02  0.98458367524E+02  0.25500000000E-02 0. -1.
         24    2    1    2    0    0  0.71054273576E-14 -0.17763568394E-14 -0.82240938089E+02  0.11467579771E+03  0.79918500253E+02 0.  0.
         66    2    3    3    0    0  0.37770442408E+02 -0.10749611457E+02 -0.30741698928E+02  0.49912048094E+02  0.20000064222E+01 0.  0.
        -13    1    3    3    0    0 -0.37770442408E+02  0.10749611457E+02 -0.51499239160E+02  0.64763749616E+02  0.10566000000E+00 0.  1.
         13    1    4    4    0    0  0.30137657805E+01 -0.78294284471E+00 -0.29189722967E+01  0.42693497143E+01  0.10566000000E+00 0.  1.
        -13    1    4    4    0    0  0.22462922437E+02 -0.61941373230E+01 -0.17177522516E+02  0.28948724763E+02  0.10566000000E+00 0.  1.
         14    1    4    4    0    0  0.12293754191E+02 -0.37725312890E+01 -0.10645204116E+02  0.16693973616E+02  0.00000000000E+00 0. -1.
<mgrwt>
<rscale>  0 0.79918500E+02</rscale>
<asrwt>0</asrwt>
<pdfrwt beam="1">  1        2 0.15147441E-01 0.79918500E+02</pdfrwt>
<pdfrwt beam="2">  1       -1 0.24949893E-02 0.79918500E+02</pdfrwt>
<totfact> 0.17697432E+05</totfact>
</mgrwt>
</event>
<event>
 8    1  0.2603554E-024  0.8318354E+02  0.7818608E-02  0.1320252E+00
          2   -1    0    0  501    0  0.00000000000E+00  0.00000000000E+00  0.74198382969E+03  0.74198382969E+03  0.25500000000E-02 0. -1.
         -1   -1    0    0    0  501 -0.00000000000E+00 -0.00000000000E+00 -0.23314163119E+01  0.23314217596E+01  0.50400000000E-02 0.  1.
         24    2    1    2    0    0  0.00000000000E+00  0.00000000000E+00  0.73965241338E+03  0.74431525145E+03  0.83183537620E+02 0.  0.
         66    2    3    3    0    0  0.14043261212E+01  0.25561411338E+02  0.66307519801E+03  0.66357220866E+03  0.20000033803E+01 0.  0.
        -13    1    3    3    0    0 -0.14043261212E+01 -0.25561411338E+02  0.76577215367E+02  0.80743042789E+02  0.10566000000E+00 0.  1.
         13    1    4    4    0    0  0.60224837919E+00  0.13916591027E+02  0.34488236285E+03  0.34516356931E+03  0.10566000000E+00 0. -1.
        -13    1    4    4    0    0 -0.18765816289E+00  0.26327738096E+01  0.65676184350E+02  0.65729286230E+02  0.10566000000E+00 0.  1.
         14    1    4    4    0    0  0.98973590493E+00  0.90120465012E+01  0.25251665081E+03  0.25267935313E+03  0.00000000000E+00 0. -1.
<mgrwt>
<rscale>  0 0.83183538E+02</rscale>
<asrwt>0</asrwt>
<pdfrwt beam="1">  1        2 0.11415138E+00 0.83183538E+02</pdfrwt>
<pdfrwt beam="2">  1       -1 0.35867978E-03 0.83183538E+02</pdfrwt>
<totfact> 0.30605349E+05</totfact>
</mgrwt>
</event>
<event>
 8    1  0.2603554E-024  0.7694060E+02  0.7818608E-02  0.1337965E+00
         -1   -1    0    0    0  501 -0.00000000000E+00  0.00000000000E+00  0.32822463545E+01  0.32822502240E+01  0.50400000000E-02 0.  1.
          2   -1    0    0  501    0  0.00000000000E+00 -0.00000000000E+00 -0.45089943358E+03  0.45089943359E+03  0.25500000000E-02 0. -1.
         24    2    1    2    0    0  0.88817841970E-15  0.00000000000E+00 -0.44761718723E+03  0.45418168381E+03  0.76940597930E+02 0.  0.
         66    2    3    3    0    0  0.63825744370E+01  0.32894271996E+02 -0.33521030716E+03  0.33688680653E+03  0.20000000877E+01 0.  0.
        -13    1    3    3    0    0 -0.63825744370E+01 -0.32894271996E+02 -0.11240688007E+03  0.11729487729E+03  0.10566000000E+00 0.  1.
         13    1    4    4    0    0  0.19226775534E+01  0.10066191699E+02 -0.10336170023E+03  0.10386855705E+03  0.10566000000E+00 0. -1.
        -13    1    4    4    0    0  0.45640881270E+00  0.19053278742E+01 -0.24404990032E+02  0.24483735128E+02  0.10566000000E+00 0.  1.
        -14    1    4    4    0    0  0.40034880709E+01  0.20922752423E+02 -0.20744361690E+03  0.20853451435E+03  0.00000000000E+00 0.  1.
<mgrwt>
<rscale>  0 0.76940598E+02</rscale>
<asrwt>0</asrwt>
<pdfrwt beam="1">  1        2 0.69369095E-01 0.76940598E+02</pdfrwt>
<pdfrwt beam="2">  1       -1 0.50496163E-03 0.76940598E+02</pdfrwt>
<totfact> 0.32584109E+05</totfact>
</mgrwt>
</event>
<event>
 8    1  0.2603554E-024  0.7947060E+02  0.7818608E-02  0.1330561E+00
         -1   -1    0    0    0  501 -0.00000000000E+00  0.00000000000E+00  0.14847478086E+01  0.14847563627E+01  0.50400000000E-02 0.  1.
          2   -1    0    0  501    0  0.00000000000E+00 -0.00000000000E+00 -0.10634057898E+04  0.10634057898E+04  0.25500000000E-02 0. -1.
         24    2    1    2    0    0  0.00000000000E+00  0.00000000000E+00 -0.10619210420E+04  0.10648905462E+04  0.79470597639E+02 0.  0.
         66    2    3    3    0    0  0.48784225448E+01  0.94920278639E+01 -0.10438259762E+04  0.10438824484E+04  0.20000005626E+01 0.  0.
        -13    1    3    3    0    0 -0.48784225448E+01 -0.94920278639E+01 -0.18095065806E+02  0.21008097726E+02  0.10566000000E+00 0.  1.
         13    1    4    4    0    0  0.76329809970E+00  0.10192972850E+01 -0.10836890333E+03  0.10837643638E+03  0.10566000000E+00 0. -1.
        -13    1    4    4    0    0  0.11201397986E+01  0.14026600668E+01 -0.13190921354E+03  0.13192146887E+03  0.10566000000E+00 0.  1.
         14    1    4    4    0    0  0.29949846465E+01  0.70700705122E+01 -0.80354785931E+03  0.80358454318E+03  0.00000000000E+00 0. -1.
<mgrwt>
<rscale>  0 0.79470598E+02</rscale>
<asrwt>0</asrwt>
<pdfrwt beam="1">  1        2 0.16360028E+00 0.79470598E+02</pdfrwt>
<pdfrwt beam="2">  1       -1 0.22842425E-03 0.79470598E+02</pdfrwt>
<totfact> 0.35886104E+05</totfact>
</mgrwt>
</event>
<event>
 8    1  0.2603554E-024  0.7998907E+02  0.7818608E-02  0.1329082E+00
          2   -1    0    0  501    0  0.00000000000E+00  0.00000000000E+00  0.26531209234E+03  0.26531209235E+03  0.25500000000E-02 0. -1.
         -1   -1    0    0    0  501 -0.00000000000E+00 -0.00000000000E+00 -0.60289852384E+01  0.60289873450E+01  0.50400000000E-02 0.  1.
         24    2    1    2    0    0 -0.17763568394E-14 -0.35527136788E-14  0.25928310710E+03  0.27134107969E+03  0.79989073647E+02 0.  0.
         66    2    3    3    0    0 -0.12162189273E+02 -0.18640451225E+02  0.24234086943E+03  0.24336902487E+03  0.20000002518E+01 0.  0.
        -13    1    3    3    0    0  0.12162189273E+02  0.18640451225E+02  0.16942237671E+02  0.27972054825E+02  0.10566000000E+00 0.  1.
         13    1    4    4    0    0 -0.41443935688E+01 -0.51360985277E+01  0.66752639836E+02  0.67078175253E+02  0.10566000000E+00 0. -1.
        -13    1    4    4    0    0 -0.35605010442E+01 -0.62935300001E+01  0.77022400114E+02  0.77361146391E+02  0.10566000000E+00 0.  1.
         14    1    4    4    0    0 -0.44572946600E+01 -0.72108226977E+01  0.98565829478E+02  0.98929703226E+02  0.00000000000E+00 0. -1.
<mgrwt>
<rscale>  0 0.79989074E+02</rscale>
<asrwt>0</asrwt>
<pdfrwt beam="1">  1        2 0.40817231E-01 0.79989074E+02</pdfrwt>
<pdfrwt beam="2">  1       -1 0.92753667E-03 0.79989074E+02</pdfrwt>
<totfact> 0.24393598E+05</totfact>
</mgrwt>
</event>
<event>
 8    1  0.2603554E-024  0.7873902E+02  0.7818608E-02  0.1332668E+00
         -1   -1    0    0    0  501 -0.00000000000E+00  0.00000000000E+00  0.20183767010E+03  0.20183767017E+03  0.50400000000E-02 0.  1.
          2   -1    0    0  501    0  0.00000000000E+00 -0.00000000000E+00 -0.76792326438E+01  0.76792330672E+01  0.25500000000E-02 0. -1.
         24    2    1    2    0    0  0.35527136788E-14  0.71054273576E-14  0.19415843746E+03  0.20951690323E+03  0.78739024021E+02 0.  0.
         66    2    3    3    0    0  0.26052318165E+02  0.23542743175E+02  0.49917620727E+02  0.61063515217E+02  0.19999984004E+01 0.  0.
        -13    1    3    3    0    0 -0.26052318165E+02 -0.23542743175E+02  0.14424081673E+03  0.14845338802E+03  0.10566000000E+00 0.  1.
         13    1    4    4    0    0  0.14762562965E+02  0.13204916736E+02  0.28891719297E+02  0.35029212084E+02  0.10566000000E+00 0. -1.
        -13    1    4    4    0    0  0.29289999928E+01  0.32901405564E+01  0.64961722174E+01  0.78495530671E+01  0.10566000000E+00 0.  1.
        -14    1    4    4    0    0  0.83607552072E+01  0.70476858829E+01  0.14529729213E+02  0.18184750065E+02  0.00000000000E+00 0.  1.
<mgrwt>
<rscale>  0 0.78739024E+02</rscale>
<asrwt>0</asrwt>
<pdfrwt beam="1">  1        2 0.11814207E-02 0.78739024E+02</pdfrwt>
<pdfrwt beam="2">  1       -1 0.31051943E-01 0.78739024E+02</pdfrwt>
<totfact> 0.10342652E+05</totfact>
</mgrwt>
</event>
<event>
 8    1  0.2603554E-024  0.8063211E+02  0.7818608E-02  0.1327267E+00
          2   -1    0    0  501    0  0.00000000000E+00  0.00000000000E+00  0.45316752910E+02  0.45316752981E+02  0.25500000000E-02 0. -1.
         -1   -1    0    0    0  501 -0.00000000000E+00 -0.00000000000E+00 -0.35867184765E+02  0.35867185119E+02  0.50400000000E-02 0.  1.
         24    2    1    2    0    0  0.00000000000E+00  0.00000000000E+00  0.94495681444E+01  0.81183938101E+02  0.80632111888E+02 0.  0.
         66    2    3    3    0    0 -0.10005936601E+01 -0.10265505409E+02  0.43942891242E+02  0.45181406366E+02  0.20000003672E+01 0.  0.
        -13    1    3    3    0    0  0.10005936601E+01  0.10265505409E+02 -0.34493323098E+02  0.36002531735E+02  0.10566000000E+00 0.  1.
         13    1    4    4    0    0 -0.50639335565E+00 -0.33567179771E+01  0.17534603755E+02  0.17860500628E+02  0.10566000000E+00 0. -1.
        -13    1    4    4    0    0 -0.49665047405E+00 -0.15325316391E+01  0.54559865939E+01  0.56898390721E+01  0.10566000000E+00 0.  1.
         14    1    4    4    0    0  0.24501695872E-02 -0.53762557925E+01  0.20952300893E+02  0.21631066665E+02  0.00000000000E+00 0. -1.
<mgrwt>
<rscale>  0 0.80632112E+02</rscale>
<asrwt>0</asrwt>
<pdfrwt beam="1">  1        2 0.69718082E-02 0.80632112E+02</pdfrwt>
<pdfrwt beam="2">  1       -1 0.55180284E-02 0.80632112E+02</pdfrwt>
<totfact> 0.14317496E+05</totfact>
</mgrwt>
</event>
<event>
 8    1  0.2603554E-024  0.7989266E+02  0.7818608E-02  0.1329356E+00
          2   -1    0    0  501    0  0.00000000000E+00  0.00000000000E+00  0.20743911106E+03  0.20743911108E+03  0.25500000000E-02 0. -1.
         -1   -1    0    0    0  501 -0.00000000000E+00 -0.00000000000E+00 -0.76924217986E+01  0.76924234497E+01  0.50400000000E-02 0.  1.
         24    2    1    2    0    0  0.35527136788E-14  0.00000000000E+00  0.19974668926E+03  0.21513153453E+03  0.79892660967E+02 0.  0.
         66    2    3    3    0    0  0.21972441905E+02 -0.81808770482E+01  0.18694096364E+03  0.18841613213E+03  0.20000017478E+01 0.  0.
        -13    1    3    3    0    0 -0.21972441905E+02  0.81808770482E+01  0.12805725623E+02  0.26715402398E+02  0.10566000000E+00 0.  1.
         13    1    4    4    0    0  0.12354572076E+02 -0.52449829723E+01  0.10781602066E+03  0.10864828932E+03  0.10566000000E+00 0. -1.
        -13    1    4    4    0    0  0.86380872599E+01 -0.24964654165E+01  0.68201873932E+02  0.68792119192E+02  0.10566000000E+00 0.  1.
        -14    1    4    4    0    0  0.97978256935E+00 -0.43942865946E+00  0.10923069052E+02  0.10975723618E+02  0.00000000000E+00 0.  1.
<mgrwt>
<rscale>  0 0.79892661E+02</rscale>
<asrwt>0</asrwt>
<pdfrwt beam="1">  1        2 0.31913707E-01 0.79892661E+02</pdfrwt>
<pdfrwt beam="2">  1       -1 0.11834497E-02 0.79892661E+02</pdfrwt>
<totfact> 0.22420287E+05</totfact>
</mgrwt>
</event>
<event>
 8    1  0.2603554E-024  0.7922573E+02  0.7818608E-02  0.1331263E+00
          2   -1    0    0  501    0  0.00000000000E+00  0.00000000000E+00  0.13365761635E+03  0.13365761638E+03  0.25500000000E-02 0. -1.
         -1   -1    0    0    0  501 -0.00000000000E+00 -0.00000000000E+00 -0.11740288599E+02  0.11740289681E+02  0.50400000000E-02 0.  1.
         24    2    1    2    0    0 -0.35527136788E-14  0.71054273576E-14  0.12191732776E+03  0.14539790606E+03  0.79225729908E+02 0.  0.
         66    2    3    3    0    0  0.17191022807E+02 -0.30347163343E+02  0.95365474482E+02  0.10156306074E+03  0.19999987759E+01 0.  0.
        -13    1    3    3    0    0 -0.17191022807E+02  0.30347163343E+02  0.26551853274E+02  0.43834845322E+02  0.10566000000E+00 0.  1.
         13    1    4    4    0    0  0.10361051851E+01 -0.11840057238E+01  0.45893202394E+01  0.48526701726E+01  0.10566000000E+00 0.  1.
        -13    1    4    4    0    0  0.31813837206E+01 -0.66044811558E+01  0.20225714560E+02  0.21513508947E+02  0.10566000000E+00 0. -1.
        -14    1    4    4    0    0  0.12973533901E+02 -0.22558676463E+02  0.70550439682E+02  0.75196881618E+02  0.00000000000E+00 0.  1.
<mgrwt>
<rscale>  0 0.79225730E+02</rscale>
<asrwt>0</asrwt>
<pdfrwt beam="1">  1        2 0.20562711E-01 0.79225730E+02</pdfrwt>
<pdfrwt beam="2">  1       -1 0.18061983E-02 0.79225730E+02</pdfrwt>
<totfact> 0.19817489E+05</totfact>
</mgrwt>
</event>
<event>
 8    1  0.2603554E-024  0.7901288E+02  0.7818608E-02  0.1331876E+00
          2   -1    0    0  501    0  0.00000000000E+00  0.00000000000E+00  0.57449963211E+01  0.57449968870E+01  0.25500000000E-02 0. -1.
         -1   -1    0    0    0  501 -0.00000000000E+00 -0.00000000000E+00 -0.27167268691E+03  0.27167268695E+03  0.50400000000E-02 0.  1.
         24    2    1    2    0    0  0.00000000000E+00 -0.17763568394E-14 -0.26592769059E+03  0.27741768384E+03  0.79012876718E+02 0.  0.
         66    2    3    3    0    0 -0.37385978223E+02 -0.12620088498E+02 -0.13772748738E+03  0.14328237429E+03  0.20000004053E+01 0.  0.
        -13    1    3    3    0    0  0.37385978223E+02  0.12620088498E+02 -0.12820020321E+03  0.13413530955E+03  0.10566000000E+00 0.  1.
         13    1    4    4    0    0 -0.28957843278E+02 -0.93974744630E+01 -0.10633238357E+03  0.11060495546E+03  0.10566000000E+00 0.  1.
        -13    1    4    4    0    0 -0.74124253203E+01 -0.26329665637E+01 -0.28041764643E+02  0.29124359055E+02  0.10566000000E+00 0. -1.
        -14    1    4    4    0    0 -0.10157096249E+01 -0.58964747129E+00 -0.33533391675E+01  0.35530597736E+01  0.00000000000E+00 0.  1.
<mgrwt>
<rscale>  0 0.79012877E+02</rscale>
<asrwt>0</asrwt>
<pdfrwt beam="1">  1        2 0.88384584E-03 0.79012877E+02</pdfrwt>
<pdfrwt beam="2">  1       -1 0.41795788E-01 0.79012877E+02</pdfrwt>
<totfact> 0.92745722E+04</totfact>
</mgrwt>
</event>
<event>
 8    1  0.2603554E-024  0.7961183E+02  0.7818608E-02  0.1330157E+00
         -1   -1    0    0    0  501 -0.00000000000E+00  0.00000000000E+00  0.20155348120E+03  0.20155348127E+03  0.50400000000E-02 0.  1.
          2   -1    0    0  501    0  0.00000000000E+00 -0.00000000000E+00 -0.78614905621E+01  0.78614909757E+01  0.25500000000E-02 0. -1.
         24    2    1    2    0    0  0.00000000000E+00  0.00000000000E+00  0.19369199064E+03  0.20941497224E+03  0.79611829276E+02 0.  0.
         66    2    3    3    0    0  0.38897558041E+02  0.82892937406E+01  0.94593529172E+02  0.10263366001E+03  0.19999984339E+01 0.  0.
        -13    1    3    3    0    0 -0.38897558041E+02 -0.82892937406E+01  0.99098461471E+02  0.10678131223E+03  0.10566000000E+00 0.  1.
         13    1    4    4    0    0  0.24034814421E+02  0.54485754866E+01  0.59328866958E+02  0.64243948334E+02  0.10566000000E+00 0. -1.
        -13    1    4    4    0    0  0.78852033870E+01  0.15027439250E+01  0.17329720363E+02  0.19098823096E+02  0.10566000000E+00 0.  1.
        -14    1    4    4    0    0  0.69775402326E+01  0.13379743291E+01  0.17934941851E+02  0.19290888580E+02  0.00000000000E+00 0.  1.
<mgrwt>
<rscale>  0 0.79611829E+02</rscale>
<asrwt>0</asrwt>
<pdfrwt beam="1">  1        2 0.12094601E-02 0.79611829E+02</pdfrwt>
<pdfrwt beam="2">  1       -1 0.31008228E-01 0.79611829E+02</pdfrwt>
<totfact> 0.10060836E+05</totfact>
</mgrwt>
</event>
<event>
 8    1  0.2603554E-024  0.8218661E+02  0.7818608E-02  0.1322958E+00
         -1   -1    0    0    0  501 -0.00000000000E+00  0.00000000000E+00  0.71336809902E+02  0.71336810080E+02  0.50400000000E-02 0.  1.
          2   -1    0    0  501    0  0.00000000000E+00 -0.00000000000E+00 -0.23671643325E+02  0.23671643462E+02  0.25500000000E-02 0. -1.
         24    2    1    2    0    0  0.00000000000E+00  0.00000000000E+00  0.47665166578E+02  0.95008453542E+02  0.82186605597E+02 0.  0.
         66    2    3    3    0    0  0.89398543820E+01  0.28804495825E+02 -0.83774856667E+01  0.31365621969E+02  0.19999998213E+01 0.  0.
        -13    1    3    3    0    0 -0.89398543820E+01 -0.28804495825E+02  0.56042652244E+02  0.63642831574E+02  0.10566000000E+00 0.  1.
         13    1    4    4    0    0  0.31039434423E+01  0.10334379436E+02 -0.31247686903E+01  0.11234287099E+02  0.10566000000E+00 0. -1.
        -13    1    4    4    0    0  0.55664562549E+01  0.17889827077E+02 -0.47811923842E+01  0.19336553797E+02  0.10566000000E+00 0.  1.
        -14    1    4    4    0    0  0.26945468472E+00  0.58028931153E+00 -0.47152459217E+00  0.79478107251E+00  0.00000000000E+00 0.  1.
<mgrwt>
<rscale>  0 0.82186606E+02</rscale>
<asrwt>0</asrwt>
<pdfrwt beam="1">  1        2 0.36417914E-02 0.82186606E+02</pdfrwt>
<pdfrwt beam="2">  1       -1 0.10974894E-01 0.82186606E+02</pdfrwt>
<totfact> 0.11891724E+05</totfact>
</mgrwt>
</event>
<event>
 8    1  0.2603554E-024  0.7669674E+02  0.7818608E-02  0.1338696E+00
          2   -1    0    0  501    0  0.00000000000E+00  0.00000000000E+00  0.63095198021E+02  0.63095198073E+02  0.25500000000E-02 0. -1.
         -1   -1    0    0    0  501 -0.00000000000E+00 -0.00000000000E+00 -0.23307598496E+02  0.23307599041E+02  0.50400000000E-02 0.  1.
         24    2    1    2    0    0  0.00000000000E+00  0.17763568394E-14  0.39787599526E+02  0.86402797114E+02  0.76696742258E+02 0.  0.
         66    2    3    3    0    0 -0.18627334587E+02 -0.13852367171E+02  0.54257437071E+02  0.59048582947E+02  0.20000001157E+01 0.  0.
        -13    1    3    3    0    0  0.18627334587E+02  0.13852367171E+02 -0.14469837545E+02  0.27354214167E+02  0.10566000000E+00 0.  1.
         13    1    4    4    0    0 -0.65365172887E+01 -0.56375906840E+01  0.19341417116E+02  0.21180417066E+02  0.10566000000E+00 0. -1.
        -13    1    4    4    0    0 -0.22693530282E+01 -0.17074766257E+01  0.58016084515E+01  0.64602836047E+01  0.10566000000E+00 0.  1.
         14    1    4    4    0    0 -0.98214642702E+01 -0.65072998612E+01  0.29114411503E+02  0.31407882276E+02  0.00000000000E+00 0. -1.
<mgrwt>
<rscale>  0 0.76696742E+02</rscale>
<asrwt>0</asrwt>
<pdfrwt beam="1">  1        2 0.97069534E-02 0.76696742E+02</pdfrwt>
<pdfrwt beam="2">  1       -1 0.35857845E-02 0.76696742E+02</pdfrwt>
<totfact> 0.17655186E+05</totfact>
</mgrwt>
</event>
<event>
 8    1  0.2603554E-024  0.8326419E+02  0.7818608E-02  0.1320035E+00
         -1   -1    0    0    0  501 -0.00000000000E+00  0.00000000000E+00  0.38913051546E+02  0.38913051873E+02  0.50400000000E-02 0.  1.
          2   -1    0    0  501    0  0.00000000000E+00 -0.00000000000E+00 -0.44541134400E+02  0.44541134473E+02  0.25500000000E-02 0. -1.
         24    2    1    2    0    0  0.35527136788E-14  0.17763568394E-14 -0.56280828538E+01  0.83454186346E+02  0.83264193397E+02 0.  0.
         66    2    3    3    0    0 -0.29165235807E+02  0.13608947544E+02  0.23615178478E+02  0.39968626326E+02  0.20000007265E+01 0.  0.
        -13    1    3    3    0    0  0.29165235807E+02 -0.13608947544E+02 -0.29243261331E+02  0.43485560020E+02  0.10566000000E+00 0.  1.
         13    1    4    4    0    0 -0.22279556567E+01  0.11877913793E+01  0.15773944329E+01  0.29789212815E+01  0.10566000000E+00 0.  1.
        -13    1    4    4    0    0 -0.39535316565E+01  0.16186675583E+01  0.38608680176E+01  0.57591634035E+01  0.10566000000E+00 0. -1.
         14    1    4    4    0    0 -0.22983748494E+02  0.10802488607E+02  0.18176916027E+02  0.31230541641E+02  0.00000000000E+00 0. -1.
<mgrwt>
<rscale>  0 0.83264193E+02</rscale>
<asrwt>0</asrwt>
<pdfrwt beam="1">  1        2 0.68524822E-02 0.83264193E+02</pdfrwt>
<pdfrwt beam="2">  1       -1 0.59866234E-02 0.83264193E+02</pdfrwt>
<totfact> 0.13054234E+05</totfact>
</mgrwt>
</event>
<event>
 8    1  0.2603554E-024  0.7937197E+02  0.7818608E-02  0.1330843E+00
         -1   -1    0    0    0  501 -0.00000000000E+00  0.00000000000E+00  0.52046378369E+01  0.52046402772E+01  0.50400000000E-02 0.  1.
          2   -1    0    0  501    0  0.00000000000E+00 -0.00000000000E+00 -0.30261028306E+03  0.30261028307E+03  0.25500000000E-02 0. -1.
         24    2    1    2    0    0  0.35527136788E-14 -0.35527136788E-14 -0.29740564523E+03  0.30781492335E+03  0.79371967502E+02 0.  0.
         66    2    3    3    0    0  0.23650203321E+02 -0.26726606644E+02 -0.21589299053E+03  0.21883196060E+03  0.20000003662E+01 0.  0.
        -13    1    3    3    0    0 -0.23650203321E+02  0.26726606644E+02 -0.81512654700E+02  0.88982962752E+02  0.10566000000E+00 0.  1.
         13    1    4    4    0    0  0.14475234209E+02 -0.16598864957E+02 -0.13616920626E+03  0.13793882202E+03  0.10566000000E+00 0. -1.
        -13    1    4    4    0    0  0.24822097664E+01 -0.32251480875E+01 -0.25709352707E+02  0.26029693163E+02  0.10566000000E+00 0.  1.
         14    1    4    4    0    0  0.66927593453E+01 -0.69025935998E+01 -0.54014431563E+02  0.54863445418E+02  0.00000000000E+00 0. -1.
<mgrwt>
<rscale>  0 0.79371968E+02</rscale>
<asrwt>0</asrwt>
<pdfrwt beam="1">  1        2 0.46555414E-01 0.79371968E+02</pdfrwt>
<pdfrwt beam="2">  1       -1 0.80071394E-03 0.79371968E+02</pdfrwt>
<totfact> 0.26108242E+05</totfact>
</mgrwt>
</event>
<event>
 8    1  0.2603554E-024  0.8063901E+02  0.7818608E-02  0.1327248E+00
         -1   -1    0    0    0  501 -0.00000000000E+00  0.00000000000E+00  0.70074928245E+02  0.70074928427E+02  0.50400000000E-02 0.  1.
          2   -1    0    0  501    0  0.00000000000E+00 -0.00000000000E+00 -0.23198916424E+02  0.23198916564E+02  0.25500000000E-02 0. -1.
         24    2    1    2    0    0  0.00000000000E+00 -0.35527136788E-14  0.46876011822E+02  0.93273844991E+02  0.80639008396E+02 0.  0.
         66    2    3    3    0    0 -0.10497250262E+02 -0.28793909828E+02 -0.68071391653E+01  0.31458204816E+02  0.20000000976E+01 0.  0.
        -13    1    3    3    0    0  0.10497250262E+02  0.28793909828E+02  0.53683150987E+02  0.61815640174E+02  0.10566000000E+00 0.  1.
         13    1    4    4    0    0 -0.49843736504E+01 -0.14277113884E+02 -0.29504485558E+01  0.15407669267E+02  0.10566000000E+00 0. -1.
        -13    1    4    4    0    0 -0.24647916032E+01 -0.51907475702E+01 -0.18336276330E+01  0.60326123957E+01  0.10566000000E+00 0.  1.
        -14    1    4    4    0    0 -0.30480850088E+01 -0.93260483743E+01 -0.20230629765E+01  0.10017923153E+02  0.00000000000E+00 0.  1.
<mgrwt>
<rscale>  0 0.80639008E+02</rscale>
<asrwt>0</asrwt>
<pdfrwt beam="1">  1        2 0.35690642E-02 0.80639008E+02</pdfrwt>
<pdfrwt beam="2">  1       -1 0.10780758E-01 0.80639008E+02</pdfrwt>
<totfact> 0.12503435E+05</totfact>
</mgrwt>
</event>
<event>
 8    1  0.2603554E-024  0.8289898E+02  0.7818608E-02  0.1321020E+00
         -1   -1    0    0    0  501 -0.00000000000E+00  0.00000000000E+00  0.17538812686E+02  0.17538813410E+02  0.50400000000E-02 0.  1.
          2   -1    0    0  501    0  0.00000000000E+00 -0.00000000000E+00 -0.97957621555E+02  0.97957621588E+02  0.25500000000E-02 0. -1.
         24    2    1    2    0    0  0.00000000000E+00 -0.35527136788E-14 -0.80418808869E+02  0.11549643500E+03  0.82898984778E+02 0.  0.
         66    2    3    3    0    0 -0.65710562631E+01  0.21191639374E+02 -0.88971337961E+02  0.91717846359E+02  0.20000005888E+01 0.  0.
        -13    1    3    3    0    0  0.65710562631E+01 -0.21191639374E+02  0.85525290919E+01  0.23778588639E+02  0.10566000000E+00 0.  1.
         13    1    4    4    0    0 -0.56556562555E+01  0.15937966782E+02 -0.66521390730E+02  0.68637539449E+02  0.10566000000E+00 0. -1.
        -13    1    4    4    0    0 -0.28868361306E+00  0.91889970072E+00 -0.45899704988E+01  0.46911307916E+01  0.10566000000E+00 0. -1.
        -14    1    4    4    0    0 -0.62671639451E+00  0.43347728910E+01 -0.17859976732E+02  0.18389176118E+02  0.00000000000E+00 0.  1.
<mgrwt>
<rscale>  0 0.82898985E+02</rscale>
<asrwt>0</asrwt>
<pdfrwt beam="1">  1        2 0.15070403E-01 0.82898985E+02</pdfrwt>
<pdfrwt beam="2">  1       -1 0.26982790E-02 0.82898985E+02</pdfrwt>
<totfact> 0.16017142E+05</totfact>
</mgrwt>
</event>
<event>
 8    1  0.2603554E-024  0.7883911E+02  0.7818608E-02  0.1332379E+00
          2   -1    0    0  501    0  0.00000000000E+00  0.00000000000E+00  0.95039199409E+02  0.95039199443E+02  0.25500000000E-02 0. -1.
         -1   -1    0    0    0  501 -0.00000000000E+00 -0.00000000000E+00 -0.16350110455E+02  0.16350111232E+02  0.50400000000E-02 0.  1.
         24    2    1    2    0    0 -0.88817841970E-15  0.00000000000E+00  0.78689088954E+02  0.11138931067E+03  0.78839113466E+02 0.  0.
         66    2    3    3    0    0  0.69801384682E+01 -0.17570763488E+02  0.88199532177E+02  0.90225337585E+02  0.20000009087E+01 0.  0.
        -13    1    3    3    0    0 -0.69801384682E+01  0.17570763488E+02 -0.95104432230E+01  0.21163973089E+02  0.10566000000E+00 0.  1.
         13    1    4    4    0    0  0.19438376573E+01 -0.59446203950E+01  0.30782885559E+02  0.31412007638E+02  0.10566000000E+00 0. -1.
        -13    1    4    4    0    0  0.11450224415E+01 -0.39459545145E+01  0.16995645298E+02  0.17485558514E+02  0.10566000000E+00 0.  1.
         14    1    4    4    0    0  0.38912783695E+01 -0.76801885781E+01  0.40421001320E+02  0.41327771433E+02  0.00000000000E+00 0. -1.
<mgrwt>
<rscale>  0 0.78839113E+02</rscale>
<asrwt>0</asrwt>
<pdfrwt beam="1">  1        2 0.14621415E-01 0.78839113E+02</pdfrwt>
<pdfrwt beam="2">  1       -1 0.25154017E-02 0.78839113E+02</pdfrwt>
<totfact> 0.18175856E+05</totfact>
</mgrwt>
</event>
<event>
 8    1  0.2603554E-024  0.7992706E+02  0.7818608E-02  0.1329259E+00
          2   -1    0    0  501    0  0.00000000000E+00  0.00000000000E+00  0.34330310666E+03  0.34330310667E+03  0.25500000000E-02 0. -1.
         -1   -1    0    0    0  501 -0.00000000000E+00 -0.00000000000E+00 -0.46521083570E+01  0.46521110872E+01  0.50400000000E-02 0.  1.
         24    2    1    2    0    0 -0.17763568394E-14  0.00000000000E+00  0.33865099830E+03  0.34795521776E+03  0.79927059951E+02 0.  0.
         66    2    3    3    0    0 -0.11573937213E+02  0.34830195509E+02  0.23798605239E+03  0.24080793108E+03  0.19999996140E+01 0.  0.
        -13    1    3    3    0    0  0.11573937213E+02 -0.34830195509E+02  0.10066494591E+03  0.10714728667E+03  0.10566000000E+00 0.  1.
         13    1    4    4    0    0 -0.26553882503E+01  0.92492940573E+01  0.60173339890E+02  0.60938021996E+02  0.10566000000E+00 0. -1.
        -13    1    4    4    0    0 -0.84074596177E+01  0.23858844618E+02  0.16804296592E+03  0.16993639811E+03  0.10566000000E+00 0.  1.
        -14    1    4    4    0    0 -0.51108934523E+00  0.17220568334E+01  0.97697465846E+01  0.99335109797E+01  0.00000000000E+00 0.  1.
<mgrwt>
<rscale>  0 0.79927060E+02</rscale>
<asrwt>0</asrwt>
<pdfrwt beam="1">  1        2 0.52815856E-01 0.79927060E+02</pdfrwt>
<pdfrwt beam="2">  1       -1 0.71570928E-03 0.79927060E+02</pdfrwt>
<totfact> 0.26828035E+05</totfact>
</mgrwt>
</event>
<event>
 8    1  0.2603554E-024  0.8039800E+02  0.7818608E-02  0.1327926E+00
         -1   -1    0    0    0  501 -0.00000000000E+00  0.00000000000E+00  0.11748296112E+02  0.11748297194E+02  0.50400000000E-02 0.  1.
          2   -1    0    0  501    0  0.00000000000E+00 -0.00000000000E+00 -0.13754843137E+03  0.13754843139E+03  0.25500000000E-02 0. -1.
         24    2    1    2    0    0  0.00000000000E+00  0.00000000000E+00 -0.12580013526E+03  0.14929672859E+03  0.80398004552E+02 0.  0.
         66    2    3    3    0    0  0.30153653636E+01 -0.27631497449E+02 -0.90751238806E+01  0.29307847750E+02  0.19999966886E+01 0.  0.
        -13    1    3    3    0    0 -0.30153653636E+01  0.27631497449E+02 -0.11672501138E+03  0.11998888084E+03  0.10566000000E+00 0.  1.
         13    1    4    4    0    0  0.19751523288E+01 -0.16805707147E+02 -0.50838964792E+01  0.17668904518E+02  0.10566000000E+00 0. -1.
        -13    1    4    4    0    0  0.23294572240E+00 -0.68962824304E+01 -0.28665175473E+01  0.74726877330E+01  0.10566000000E+00 0.  1.
        -14    1    4    4    0    0  0.80726731244E+00 -0.39295078714E+01 -0.11247098542E+01  0.41662554988E+01  0.00000000000E+00 0.  1.
<mgrwt>
<rscale>  0 0.80398005E+02</rscale>
<asrwt>0</asrwt>
<pdfrwt beam="1">  1        2 0.21161296E-01 0.80398005E+02</pdfrwt>
<pdfrwt beam="2">  1       -1 0.18074304E-02 0.80398005E+02</pdfrwt>
<totfact> 0.19230072E+05</totfact>
</mgrwt>
</event>
<event>
 8    1  0.2603554E-024  0.7888916E+02  0.7818608E-02  0.1332234E+00
         -1   -1    0    0    0  501 -0.00000000000E+00  0.00000000000E+00  0.26015693077E+02  0.26015693565E+02  0.50400000000E-02 0.  1.
          2   -1    0    0  501    0  0.00000000000E+00 -0.00000000000E+00 -0.59805245693E+02  0.59805245748E+02  0.25500000000E-02 0. -1.
         24    2    1    2    0    0  0.00000000000E+00  0.00000000000E+00 -0.33789552617E+02  0.85820939312E+02  0.78889161223E+02 0.  0.
         66    2    3    3    0    0  0.56944594282E+01  0.38930645505E+02 -0.19536347917E+02  0.43973752598E+02  0.20000000095E+01 0.  0.
        -13    1    3    3    0    0 -0.56944594282E+01 -0.38930645505E+02 -0.14253204700E+02  0.41847186714E+02  0.10566000000E+00 0.  1.
         13    1    4    4    0    0  0.74522773487E+00  0.32717099389E+01 -0.21491224389E+01  0.39861436996E+01  0.10566000000E+00 0. -1.
        -13    1    4    4    0    0  0.30806935938E+01  0.24504403717E+02 -0.11722580920E+02  0.27338371239E+02  0.10566000000E+00 0. -1.
        -14    1    4    4    0    0  0.18685380995E+01  0.11154531849E+02 -0.56646445580E+01  0.12649237660E+02  0.00000000000E+00 0.  1.
<mgrwt>
<rscale>  0 0.78889161E+02</rscale>
<asrwt>0</asrwt>
<pdfrwt beam="1">  1        2 0.92008070E-02 0.78889161E+02</pdfrwt>
<pdfrwt beam="2">  1       -1 0.40024144E-02 0.78889161E+02</pdfrwt>
<totfact> 0.16157140E+05</totfact>
</mgrwt>
</event>
<event>
 8    1  0.2603554E-024  0.8072212E+02  0.7818608E-02  0.1327015E+00
         -1   -1    0    0    0  501 -0.00000000000E+00  0.00000000000E+00  0.73067168235E+00  0.73068906451E+00  0.50400000000E-02 0.  1.
          2   -1    0    0  501    0  0.00000000000E+00 -0.00000000000E+00 -0.22294497145E+04  0.22294497145E+04  0.25500000000E-02 0. -1.
         24    2    1    2    0    0  0.00000000000E+00  0.35527136788E-14 -0.22287190428E+04  0.22301804036E+04  0.80722119841E+02 0.  0.
         66    2    3    3    0    0 -0.11214040984E+02 -0.12693340591E+02 -0.21264386399E+04  0.21265070338E+04  0.19999989271E+01 0.  0.
        -13    1    3    3    0    0  0.11214040984E+02  0.12693340591E+02 -0.10228040296E+03  0.10367336980E+03  0.10566000000E+00 0.  1.
         13    1    4    4    0    0 -0.25403684859E+01 -0.38512690056E+01 -0.63294481758E+03  0.63296164103E+03  0.10566000000E+00 0. -1.
        -13    1    4    4    0    0 -0.39458934122E+00 -0.61153860879E+00 -0.82576714172E+02  0.82579988906E+02  0.10566000000E+00 0. -1.
         14    1    4    4    0    0 -0.82790831568E+01 -0.82305329767E+01 -0.14109171081E+04  0.14109654038E+04  0.00000000000E+00 0. -1.
<mgrwt>
<rscale>  0 0.80722120E+02</rscale>
<asrwt>0</asrwt>
<pdfrwt beam="1">  1        2 0.34298682E+00 0.80722120E+02</pdfrwt>
<pdfrwt beam="2">  1       -1 0.11241415E-03 0.80722120E+02</pdfrwt>
<totfact> 0.24132651E+05</totfact>
</mgrwt>
</event>
<event>
 8    1  0.2603554E-024  0.7867993E+02  0.7818608E-02  0.1332840E+00
          2   -1    0    0  501    0  0.00000000000E+00  0.00000000000E+00  0.20217450494E+03  0.20217450495E+03  0.25500000000E-02 0. -1.
         -1   -1    0    0    0  501 -0.00000000000E+00 -0.00000000000E+00 -0.76549350312E+01  0.76549366904E+01  0.50400000000E-02 0.  1.
         24    2    1    2    0    0  0.00000000000E+00 -0.17763568394E-14  0.19451956991E+03  0.20982944164E+03  0.78679930758E+02 0.  0.
         66    2    3    3    0    0 -0.90237763758E+01  0.14191379105E+02  0.19209236128E+03  0.19283749394E+03  0.20000069584E+01 0.  0.
        -13    1    3    3    0    0  0.90237763758E+01 -0.14191379105E+02  0.24272086301E+01  0.16991947703E+02  0.10566000000E+00 0.  1.
         13    1    4    4    0    0 -0.13837904637E+00  0.11151246166E+00  0.28339613665E+01  0.28414934193E+01  0.10566000000E+00 0.  1.
        -13    1    4    4    0    0 -0.91229124477E+00  0.25162813192E+01  0.31022009740E+02  0.31137440475E+02  0.10566000000E+00 0.  1.
         14    1    4    4    0    0 -0.79731060847E+01  0.11563585324E+02  0.15823639017E+03  0.15885856005E+03  0.00000000000E+00 0. -1.
<mgrwt>
<rscale>  0 0.78679931E+02</rscale>
<asrwt>0</asrwt>
<pdfrwt beam="1">  1        2 0.31103773E-01 0.78679931E+02</pdfrwt>
<pdfrwt beam="2">  1       -1 0.11776823E-02 0.78679931E+02</pdfrwt>
<totfact> 0.23134325E+05</totfact>
</mgrwt>
</event>
<event>
 8    1  0.2603554E-024  0.7828213E+02  0.7818608E-02  0.1333998E+00
          2   -1    0    0  501    0  0.00000000000E+00  0.00000000000E+00  0.10675692306E+03  0.10675692309E+03  0.25500000000E-02 0. -1.
         -1   -1    0    0    0  501 -0.00000000000E+00 -0.00000000000E+00 -0.14350571637E+02  0.14350572522E+02  0.50400000000E-02 0.  1.
         24    2    1    2    0    0  0.00000000000E+00  0.71054273576E-14  0.92406351427E+02  0.12110749562E+03  0.78282128932E+02 0.  0.
         66    2    3    3    0    0  0.89124537869E+01 -0.38084418766E+02  0.45608313958E+02  0.60116330188E+02  0.20000169762E+01 0.  0.
        -13    1    3    3    0    0 -0.89124537869E+01  0.38084418766E+02  0.46798037469E+02  0.60991165428E+02  0.10566000000E+00 0.  1.
         13    1    4    4    0    0  0.54485548668E+01 -0.24648142175E+02  0.29183711987E+02  0.38586498574E+02  0.10566000000E+00 0. -1.
        -13    1    4    4    0    0  0.14157950717E+00 -0.20347288748E+01  0.25366405485E+01  0.32566663414E+01  0.10566000000E+00 0.  1.
         14    1    4    4    0    0  0.33223194129E+01 -0.11401547717E+02  0.13887961422E+02  0.18273165272E+02  0.00000000000E+00 0. -1.
<mgrwt>
<rscale>  0 0.78282129E+02</rscale>
<asrwt>0</asrwt>
<pdfrwt beam="1">  1        2 0.16424142E-01 0.78282129E+02</pdfrwt>
<pdfrwt beam="2">  1       -1 0.22077803E-02 0.78282129E+02</pdfrwt>
<totfact> 0.19135222E+05</totfact>
</mgrwt>
</event>
<event>
 8    1  0.2603554E-024  0.8069863E+02  0.7818608E-02  0.1327080E+00
          2   -1    0    0  501    0  0.00000000000E+00  0.00000000000E+00  0.97697669087E+01  0.97697672415E+01  0.25500000000E-02 0. -1.
         -1   -1    0    0    0  501 -0.00000000000E+00 -0.00000000000E+00 -0.16664338670E+03  0.16664338677E+03  0.50400000000E-02 0.  1.
         24    2    1    2    0    0  0.00000000000E+00  0.00000000000E+00 -0.15687361979E+03  0.17641315402E+03  0.80698626531E+02 0.  0.
         66    2    3    3    0    0 -0.36445917513E+02 -0.41219091882E+01 -0.11511493647E+03  0.12083353693E+03  0.20000025051E+01 0.  0.
        -13    1    3    3    0    0  0.36445917513E+02  0.41219091882E+01 -0.41758683319E+02  0.55579617084E+02  0.10566000000E+00 0.  1.
         13    1    4    4    0    0 -0.15337578870E+02 -0.21360608868E+01 -0.47086660963E+02  0.49567821078E+02  0.10566000000E+00 0. -1.
        -13    1    4    4    0    0 -0.58033160389E+00 -0.18754863145E+00 -0.23860858501E+01  0.24650616583E+01  0.10566000000E+00 0.  1.
         14    1    4    4    0    0 -0.20528007039E+02 -0.17982996700E+01 -0.65642189657E+02  0.68800654195E+02  0.00000000000E+00 0. -1.
<mgrwt>
<rscale>  0 0.80698627E+02</rscale>
<asrwt>0</asrwt>
<pdfrwt beam="1">  1        2 0.15030412E-02 0.80698627E+02</pdfrwt>
<pdfrwt beam="2">  1       -1 0.25637442E-01 0.80698627E+02</pdfrwt>
<totfact> 0.10264855E+05</totfact>
</mgrwt>
</event>
<event>
 8    1  0.2603554E-024  0.7922275E+02  0.7818608E-02  0.1331272E+00
          2   -1    0    0  501    0  0.00000000000E+00  0.00000000000E+00  0.14494800759E+03  0.14494800761E+03  0.25500000000E-02 0. -1.
         -1   -1    0    0    0  501 -0.00000000000E+00 -0.00000000000E+00 -0.10824991248E+02  0.10824992421E+02  0.50400000000E-02 0.  1.
         24    2    1    2    0    0  0.00000000000E+00  0.00000000000E+00  0.13412301634E+03  0.15577300003E+03  0.79222749427E+02 0.  0.
         66    2    3    3    0    0  0.35281878630E+02 -0.84158140185E+01  0.98281641737E+02  0.10478033210E+03  0.20000018219E+01 0.  0.
        -13    1    3    3    0    0 -0.35281878630E+02  0.84158140185E+01  0.35841374602E+02  0.50992667931E+02  0.10566000000E+00 0.  1.
         13    1    4    4    0    0  0.16902705276E+02 -0.41336217244E+01  0.46895343666E+02  0.50019723068E+02  0.10566000000E+00 0. -1.
        -13    1    4    4    0    0  0.12601679330E+02 -0.35927416803E+01  0.35154617740E+02  0.37517574911E+02  0.10566000000E+00 0.  1.
        -14    1    4    4    0    0  0.57774940243E+01 -0.68945061386E+00  0.16231680330E+02  0.17243034121E+02  0.00000000000E+00 0.  1.
<mgrwt>
<rscale>  0 0.79222749E+02</rscale>
<asrwt>0</asrwt>
<pdfrwt beam="1">  1        2 0.22299694E-01 0.79222749E+02</pdfrwt>
<pdfrwt beam="2">  1       -1 0.16653833E-02 0.79222749E+02</pdfrwt>
<totfact> 0.20331261E+05</totfact>
</mgrwt>
</event>
<event>
 8    1  0.2603554E-024  0.7879333E+02  0.7818608E-02  0.1332511E+00
         -1   -1    0    0    0  501 -0.00000000000E+00  0.00000000000E+00  0.22942562722E+01  0.22942618082E+01  0.50400000000E-02 0.  1.
          2   -1    0    0  501    0  0.00000000000E+00 -0.00000000000E+00 -0.67651354369E+03  0.67651354369E+03  0.25500000000E-02 0. -1.
         24    2    1    2    0    0  0.00000000000E+00  0.00000000000E+00 -0.67421928742E+03  0.67880780550E+03  0.78793332749E+02 0.  0.
         66    2    3    3    0    0 -0.20233017188E+01 -0.24672488420E+02 -0.60107413203E+03  0.60158701584E+03  0.20000008043E+01 0.  0.
        -13    1    3    3    0    0  0.20233017188E+01  0.24672488420E+02 -0.73145155391E+02  0.77220789661E+02  0.10566000000E+00 0.  1.
         13    1    4    4    0    0 -0.41469034399E+00 -0.91728337596E+01 -0.20336259194E+03  0.20356981066E+03  0.10566000000E+00 0. -1.
        -13    1    4    4    0    0 -0.42152328743E-01 -0.43361563854E+00 -0.11752820209E+02  0.11761366682E+02  0.10566000000E+00 0. -1.
         14    1    4    4    0    0 -0.15664590461E+01 -0.15066039021E+02 -0.38595871987E+03  0.38625583849E+03  0.00000000000E+00 0. -1.
<mgrwt>
<rscale>  0 0.78793333E+02</rscale>
<asrwt>0</asrwt>
<pdfrwt beam="1">  1        2 0.10407885E+00 0.78793333E+02</pdfrwt>
<pdfrwt beam="2">  1       -1 0.35296347E-03 0.78793333E+02</pdfrwt>
<totfact> 0.34521010E+05</totfact>
</mgrwt>
</event>
<event>
 8    1  0.2603554E-024  0.7984913E+02  0.7818608E-02  0.1329480E+00
         -1   -1    0    0    0  501 -0.00000000000E+00  0.00000000000E+00  0.54100258326E+01  0.54100281802E+01  0.50400000000E-02 0.  1.
          2   -1    0    0  501    0  0.00000000000E+00 -0.00000000000E+00 -0.29463267291E+03  0.29463267292E+03  0.25500000000E-02 0. -1.
         24    2    1    2    0    0  0.00000000000E+00  0.00000000000E+00 -0.28922264708E+03  0.30004270110E+03  0.79849125867E+02 0.  0.
         66    2    3    3    0    0  0.20295335992E+02 -0.32928164281E+02 -0.10792294479E+03  0.11466266475E+03  0.20000020854E+01 0.  0.
        -13    1    3    3    0    0 -0.20295335992E+02  0.32928164281E+02 -0.18129970228E+03  0.18538003635E+03  0.10566000000E+00 0.  1.
         13    1    4    4    0    0  0.77049814285E+01 -0.12099746477E+02 -0.41600352022E+02  0.44004216344E+02  0.10566000000E+00 0.  1.
        -13    1    4    4    0    0  0.55779424885E+01 -0.80785246053E+01 -0.26287101255E+02  0.28060628265E+02  0.10566000000E+00 0. -1.
        -14    1    4    4    0    0  0.70124120752E+01 -0.12749893198E+02 -0.40035491515E+02  0.42597820138E+02  0.00000000000E+00 0.  1.
<mgrwt>
<rscale>  0 0.79849126E+02</rscale>
<asrwt>0</asrwt>
<pdfrwt beam="1">  1        2 0.45328091E-01 0.79849126E+02</pdfrwt>
<pdfrwt beam="2">  1       -1 0.83231208E-03 0.79849126E+02</pdfrwt>
<totfact> 0.25454036E+05</totfact>
</mgrwt>
</event>
<event>
 8    1  0.2603554E-024  0.7948095E+02  0.7818608E-02  0.1330531E+00
          2   -1    0    0  501    0  0.00000000000E+00  0.00000000000E+00  0.20067357557E+02  0.20067357719E+02  0.25500000000E-02 0. -1.
         -1   -1    0    0    0  501 -0.00000000000E+00 -0.00000000000E+00 -0.78700223393E+02  0.78700223554E+02  0.50400000000E-02 0.  1.
         24    2    1    2    0    0  0.00000000000E+00  0.35527136788E-14 -0.58632865836E+02  0.98767581273E+02  0.79480954664E+02 0.  0.
         66    2    3    3    0    0  0.20491347439E+02  0.29099321758E+02 -0.74333181247E+01  0.36413185305E+02  0.19999997542E+01 0.  0.
        -13    1    3    3    0    0 -0.20491347439E+02 -0.29099321758E+02 -0.51199547712E+02  0.62354395968E+02  0.10566000000E+00 0.  1.
         13    1    4    4    0    0  0.11241527291E+02  0.16285881361E+02 -0.43779207559E+01  0.20267689106E+02  0.10566000000E+00 0. -1.
        -13    1    4    4    0    0  0.87674045549E+01  0.12233660952E+02 -0.26292536938E+01  0.15279200959E+02  0.10566000000E+00 0.  1.
        -14    1    4    4    0    0  0.48241559329E+00  0.57977944544E+00 -0.42614367495E+00  0.86629523933E+00  0.00000000000E+00 0.  1.
<mgrwt>
<rscale>  0 0.79480955E+02</rscale>
<asrwt>0</asrwt>
<pdfrwt beam="1">  1        2 0.30872858E-02 0.79480955E+02</pdfrwt>
<pdfrwt beam="2">  1       -1 0.12107727E-01 0.79480955E+02</pdfrwt>
<totfact> 0.12658427E+05</totfact>
</mgrwt>
</event>
<event>
 8    1  0.2603554E-024  0.7926044E+02  0.7818608E-02  0.1331163E+00
         -1   -1    0    0    0  501 -0.00000000000E+00  0.00000000000E+00  0.38358366974E+01  0.38358400085E+01  0.50400000000E-02 0.  1.
          2   -1    0    0  501    0  0.00000000000E+00 -0.00000000000E+00 -0.40944227286E+03  0.40944227287E+03  0.25500000000E-02 0. -1.
         24    2    1    2    0    0 -0.35527136788E-14  0.35527136788E-14 -0.40560643616E+03  0.41327811288E+03  0.79260441118E+02 0.  0.
         66    2    3    3    0    0 -0.20565116587E+02  0.24633937798E+02 -0.32396323180E+03  0.32555480415E+03  0.20000083667E+01 0.  0.
        -13    1    3    3    0    0  0.20565116587E+02 -0.24633937798E+02 -0.81643204359E+02  0.87723308725E+02  0.10566000000E+00 0.  1.
         13    1    4    4    0    0 -0.94149249593E+01  0.10815410675E+02 -0.13707488352E+03  0.13782288916E+03  0.10566000000E+00 0. -1.
        -13    1    4    4    0    0 -0.10551065509E+02  0.12765308314E+02 -0.17317742996E+03  0.17396755873E+03  0.10566000000E+00 0.  1.
         14    1    4    4    0    0 -0.59912611920E+00  0.10532188088E+01 -0.13710918324E+02  0.13764356260E+02  0.00000000000E+00 0. -1.
<mgrwt>
<rscale>  0 0.79260441E+02</rscale>
<asrwt>0</asrwt>
<pdfrwt beam="1">  1        2 0.62991085E-01 0.79260441E+02</pdfrwt>
<pdfrwt beam="2">  1       -1 0.59012930E-03 0.79260441E+02</pdfrwt>
<totfact> 0.29183190E+05</totfact>
</mgrwt>
</event>
<event>
 8    1  0.2603554E-024  0.8017371E+02  0.7818608E-02  0.1328559E+00
         -1   -1    0    0    0  501 -0.00000000000E+00  0.00000000000E+00  0.19024165031E+02  0.19024165699E+02  0.50400000000E-02 0.  1.
          2   -1    0    0  501    0  0.00000000000E+00 -0.00000000000E+00 -0.84469196208E+02  0.84469196247E+02  0.25500000000E-02 0. -1.
         24    2    1    2    0    0  0.00000000000E+00  0.00000000000E+00 -0.65445031177E+02  0.10349336195E+03  0.80173710535E+02 0.  0.
         66    2    3    3    0    0 -0.11695382418E+02 -0.33333415732E+02 -0.57134771016E+02  0.67203278420E+02  0.19999992738E+01 0.  0.
        -13    1    3    3    0    0  0.11695382418E+02  0.33333415732E+02 -0.83102601614E+01  0.36290083525E+02  0.10566000000E+00 0.  1.
         13    1    4    4    0    0 -0.66571886851E+01 -0.18929425875E+02 -0.31617077611E+02  0.37447190626E+02  0.10566000000E+00 0. -1.
        -13    1    4    4    0    0 -0.38004303500E+01 -0.11125573458E+02 -0.18664631513E+02  0.22059040985E+02  0.10566000000E+00 0.  1.
        -14    1    4    4    0    0 -0.12377633829E+01 -0.32784163991E+01 -0.68530618924E+01  0.76970468089E+01  0.00000000000E+00 0.  1.
<mgrwt>
<rscale>  0 0.80173711E+02</rscale>
<asrwt>0</asrwt>
<pdfrwt beam="1">  1        2 0.12995261E-01 0.80173711E+02</pdfrwt>
<pdfrwt beam="2">  1       -1 0.29267947E-02 0.80173711E+02</pdfrwt>
<totfact> 0.16834363E+05</totfact>
</mgrwt>
</event>
<event>
 8    1  0.2603554E-024  0.8029571E+02  0.7818608E-02  0.1328214E+00
         -1   -1    0    0    0  501 -0.00000000000E+00  0.00000000000E+00  0.99227330859E+02  0.99227330987E+02  0.50400000000E-02 0.  1.
          2   -1    0    0  501    0  0.00000000000E+00 -0.00000000000E+00 -0.16244016337E+02  0.16244016537E+02  0.25500000000E-02 0. -1.
         24    2    1    2    0    0  0.00000000000E+00  0.17763568394E-14  0.82983314522E+02  0.11547134752E+03  0.80295713522E+02 0.  0.
         66    2    3    3    0    0 -0.38852695736E+02 -0.98506851216E+01  0.44120790757E+02  0.59642368663E+02  0.19999998480E+01 0.  0.
        -13    1    3    3    0    0  0.38852695736E+02  0.98506851216E+01  0.38862523764E+02  0.55828978861E+02  0.10566000000E+00 0.  1.
         13    1    4    4    0    0 -0.12291218118E+02 -0.25926537235E+01  0.13220706073E+02  0.18237163410E+02  0.10566000000E+00 0.  1.
        -13    1    4    4    0    0 -0.10340842880E+02 -0.23295386563E+01  0.11434638425E+02  0.15592366779E+02  0.10566000000E+00 0. -1.
        -14    1    4    4    0    0 -0.16220634738E+02 -0.49284927417E+01  0.19465446259E+02  0.25812838474E+02  0.00000000000E+00 0.  1.
<mgrwt>
<rscale>  0 0.80295714E+02</rscale>
<asrwt>0</asrwt>
<pdfrwt beam="1">  1        2 0.24990795E-02 0.80295714E+02</pdfrwt>
<pdfrwt beam="2">  1       -1 0.15265743E-01 0.80295714E+02</pdfrwt>
<totfact> 0.11764042E+05</totfact>
</mgrwt>
</event>
<event>
 8    1  0.2603554E-024  0.8901137E+02  0.7818608E-02  0.1305264E+00
          2   -1    0    0  501    0  0.00000000000E+00  0.00000000000E+00  0.55836828395E+03  0.55836828395E+03  0.25500000000E-02 0. -1.
         -1   -1    0    0    0  501 -0.00000000000E+00 -0.00000000000E+00 -0.35473989058E+01  0.35474024861E+01  0.50400000000E-02 0.  1.
         24    2    1    2    0    0 -0.17763568394E-14  0.00000000000E+00  0.55482088504E+03  0.56191568644E+03  0.89011371117E+02 0.  0.
         66    2    3    3    0    0 -0.15612909367E+02 -0.37153019551E+02  0.39643323661E+03  0.39848139340E+03  0.19999995912E+01 0.  0.
        -13    1    3    3    0    0  0.15612909367E+02  0.37153019551E+02  0.15838764844E+03  0.16343429304E+03  0.10566000000E+00 0.  1.
         13    1    4    4    0    0 -0.44070599255E+01 -0.11426105390E+02  0.12775645182E+03  0.12834212172E+03  0.10566000000E+00 0. -1.
        -13    1    4    4    0    0 -0.21666096593E+01 -0.52742717072E+01  0.52123201873E+02  0.52434258620E+02  0.10566000000E+00 0.  1.
         14    1    4    4    0    0 -0.90392397822E+01 -0.20452642454E+02  0.21655358292E+03  0.21770501306E+03  0.00000000000E+00 0. -1.
<mgrwt>
<rscale>  0 0.89011371E+02</rscale>
<asrwt>0</asrwt>
<pdfrwt beam="1">  1        2 0.85902745E-01 0.89011371E+02</pdfrwt>
<pdfrwt beam="2">  1       -1 0.54575439E-03 0.89011371E+02</pdfrwt>
<totfact> 0.23826015E+05</totfact>
</mgrwt>
</event>
<event>
 8    1  0.2603554E-024  0.7456006E+02  0.7818608E-02  0.1345239E+00
         -1   -1    0    0    0  501 -0.00000000000E+00  0.00000000000E+00  0.31881033386E+01  0.31881073224E+01  0.50400000000E-02 0.  1.
          2   -1    0    0  501    0  0.00000000000E+00 -0.00000000000E+00 -0.43593313370E+03  0.43593313370E+03  0.25500000000E-02 0. -1.
         24    2    1    2    0    0 -0.35527136788E-14  0.00000000000E+00 -0.43274503036E+03  0.43912124103E+03  0.74560063177E+02 0.  0.
         66    2    3    3    0    0 -0.26140795958E+02  0.23633301588E+01 -0.37222330728E+03  0.37315294052E+03  0.19999992810E+01 0.  0.
        -13    1    3    3    0    0  0.26140795958E+02 -0.23633301588E+01 -0.60521723081E+02  0.65968300505E+02  0.10566000000E+00 0.  1.
         13    1    4    4    0    0 -0.27453284843E+01  0.50762162860E+00 -0.44344079462E+02  0.44432004856E+02  0.10566000000E+00 0.  1.
        -13    1    4    4    0    0 -0.38655744537E+01 -0.19139381395E+00 -0.53499184555E+02  0.53639101498E+02  0.10566000000E+00 0.  1.
         14    1    4    4    0    0 -0.19529893019E+02  0.20471023442E+01 -0.27438004326E+03  0.27508183417E+03  0.00000000000E+00 0. -1.
<mgrwt>
<rscale>  0 0.74560063E+02</rscale>
<asrwt>0</asrwt>
<pdfrwt beam="1">  1        2 0.67066589E-01 0.74560063E+02</pdfrwt>
<pdfrwt beam="2">  1       -1 0.49047809E-03 0.74560063E+02</pdfrwt>
<totfact> 0.34953233E+05</totfact>
</mgrwt>
</event>
<event>
 8    1  0.2603554E-024  0.8288876E+02  0.7818608E-02  0.1321048E+00
          2   -1    0    0  501    0  0.00000000000E+00  0.00000000000E+00  0.39202580515E+03  0.39202580516E+03  0.25500000000E-02 0. -1.
         -1   -1    0    0    0  501 -0.00000000000E+00 -0.00000000000E+00 -0.43814360810E+01  0.43814389798E+01  0.50400000000E-02 0.  1.
         24    2    1    2    0    0  0.00000000000E+00 -0.71054273576E-14  0.38764436907E+03  0.39640724414E+03  0.82888758793E+02 0.  0.
         66    2    3    3    0    0  0.18180659515E+01 -0.39924972208E+02  0.24595589021E+03  0.24918990490E+03  0.20000001982E+01 0.  0.
        -13    1    3    3    0    0 -0.18180659515E+01  0.39924972208E+02  0.14168847886E+03  0.14721733925E+03  0.10566000000E+00 0.  1.
         13    1    4    4    0    0  0.34206894448E+00 -0.16786766900E+02  0.99977824400E+02  0.10137795170E+03  0.10566000000E+00 0. -1.
        -13    1    4    4    0    0  0.19813208657E+00 -0.22101139980E+01  0.12160899525E+02  0.12362139843E+02  0.10566000000E+00 0.  1.
         14    1    4    4    0    0  0.12778649205E+01 -0.20928091310E+02  0.13381716629E+03  0.13544981336E+03  0.00000000000E+00 0. -1.
<mgrwt>
<rscale>  0 0.82888759E+02</rscale>
<asrwt>0</asrwt>
<pdfrwt beam="1">  1        2 0.60311664E-01 0.82888759E+02</pdfrwt>
<pdfrwt beam="2">  1       -1 0.67406729E-03 0.82888759E+02</pdfrwt>
<totfact> 0.25567383E+05</totfact>
</mgrwt>
</event>
<event>
 8    1  0.2603554E-024  0.8017432E+02  0.7818608E-02  0.1328557E+00
          2   -1    0    0  501    0  0.00000000000E+00  0.00000000000E+00  0.87704347134E+03  0.87704347135E+03  0.25500000000E-02 0. -1.
         -1   -1    0    0    0  501 -0.00000000000E+00 -0.00000000000E+00 -0.18322666894E+01  0.18322736211E+01  0.50400000000E-02 0.  1.
         24    2    1    2    0    0  0.00000000000E+00  0.17763568394E-14  0.87521120465E+03  0.87887574497E+03  0.80174324703E+02 0.  0.
         66    2    3    3    0    0 -0.80646914673E+01  0.15718928497E+02  0.83203168332E+03  0.83222163273E+03  0.19999959236E+01 0.  0.
        -13    1    3    3    0    0  0.80646914673E+01 -0.15718928497E+02  0.43179521340E+02  0.46654112238E+02  0.10566000000E+00 0.  1.
         13    1    4    4    0    0 -0.28556414877E+01  0.42432554286E+01  0.21665431183E+03  0.21671470163E+03  0.10566000000E+00 0. -1.
        -13    1    4    4    0    0 -0.44410708836E+00  0.62153017100E+00  0.34451134453E+02  0.34459764363E+02  0.10566000000E+00 0.  1.
         14    1    4    4    0    0 -0.47649428912E+01  0.10854142898E+02  0.58092623703E+03  0.58104716673E+03  0.00000000000E+00 0. -1.
<mgrwt>
<rscale>  0 0.80174325E+02</rscale>
<asrwt>0</asrwt>
<pdfrwt beam="1">  1        2 0.13492966E+00 0.80174325E+02</pdfrwt>
<pdfrwt beam="2">  1       -1 0.28188794E-03 0.80174325E+02</pdfrwt>
<totfact> 0.34644241E+05</totfact>
</mgrwt>
</event>
<event>
 8    1  0.2603554E-024  0.7746955E+02  0.7818608E-02  0.1336390E+00
          2   -1    0    0  501    0  0.00000000000E+00  0.00000000000E+00  0.24020093959E+03  0.24020093960E+03  0.25500000000E-02 0. -1.
         -1   -1    0    0    0  501 -0.00000000000E+00 -0.00000000000E+00 -0.62463636566E+01  0.62463656899E+01  0.50400000000E-02 0.  1.
         24    2    1    2    0    0  0.00000000000E+00  0.00000000000E+00  0.23395457593E+03  0.24644730529E+03  0.77469546830E+02 0.  0.
         66    2    3    3    0    0 -0.31261148771E+02  0.32968543546E+01  0.18891453254E+03  0.19152239888E+03  0.19999995710E+01 0.  0.
        -13    1    3    3    0    0  0.31261148771E+02 -0.32968543546E+01  0.45040043390E+02  0.54924906407E+02  0.10566000000E+00 0.  1.
         13    1    4    4    0    0 -0.11849496698E+02  0.13858473393E+01  0.75250997490E+02  0.76190911086E+02  0.10566000000E+00 0. -1.
        -13    1    4    4    0    0 -0.27037724484E+01  0.38524791148E+00  0.13728339672E+02  0.13997759663E+02  0.10566000000E+00 0.  1.
        -14    1    4    4    0    0 -0.16707879625E+02  0.15257591038E+01  0.99935195376E+02  0.10133372813E+03  0.00000000000E+00 0.  1.
<mgrwt>
<rscale>  0 0.77469547E+02</rscale>
<asrwt>0</asrwt>
<pdfrwt beam="1">  1        2 0.36953988E-01 0.77469547E+02</pdfrwt>
<pdfrwt beam="2">  1       -1 0.96097926E-03 0.77469547E+02</pdfrwt>
<totfact> 0.25602081E+05</totfact>
</mgrwt>
</event>
<event>
 8    1  0.2603554E-024  0.7920584E+02  0.7818608E-02  0.1331320E+00
         -1   -1    0    0    0  501 -0.00000000000E+00  0.00000000000E+00  0.68283544655E+02  0.68283544841E+02  0.50400000000E-02 0.  1.
          2   -1    0    0  501    0  0.00000000000E+00 -0.00000000000E+00 -0.22968802556E+02  0.22968802698E+02  0.25500000000E-02 0. -1.
         24    2    1    2    0    0  0.00000000000E+00  0.44408920985E-15  0.45314742099E+02  0.91252347539E+02  0.79205839936E+02 0.  0.
         66    2    3    3    0    0 -0.39385178735E+02 -0.38910997451E+01  0.22937914431E+02  0.45787344056E+02  0.19999990181E+01 0.  0.
        -13    1    3    3    0    0  0.39385178735E+02  0.38910997451E+01  0.22376827667E+02  0.45465003483E+02  0.10566000000E+00 0.  1.
         13    1    4    4    0    0 -0.28651735130E+01 -0.51799832049E+00  0.14726164710E+01  0.32645527758E+01  0.10566000000E+00 0. -1.
        -13    1    4    4    0    0 -0.71684432587E+01 -0.12271252045E+01  0.40065413047E+01  0.83039720786E+01  0.10566000000E+00 0.  1.
         14    1    4    4    0    0 -0.29351561963E+02 -0.21459762201E+01  0.17458756656E+02  0.34218819202E+02  0.00000000000E+00 0. -1.
<mgrwt>
<rscale>  0 0.79205840E+02</rscale>
<asrwt>0</asrwt>
<pdfrwt beam="1">  1        2 0.35336620E-02 0.79205840E+02</pdfrwt>
<pdfrwt beam="2">  1       -1 0.10505161E-01 0.79205840E+02</pdfrwt>
<totfact> 0.13131874E+05</totfact>
</mgrwt>
</event>
<event>
 8    1  0.2603554E-024  0.8192612E+02  0.7818608E-02  0.1323673E+00
          2   -1    0    0  501    0  0.00000000000E+00  0.00000000000E+00  0.59702277882E+03  0.59702277882E+03  0.25500000000E-02 0. -1.
         -1   -1    0    0    0  501 -0.00000000000E+00 -0.00000000000E+00 -0.28105640865E+01  0.28105686054E+01  0.50400000000E-02 0.  1.
         24    2    1    2    0    0  0.00000000000E+00  0.00000000000E+00  0.59421221473E+03  0.59983334743E+03  0.81926116420E+02 0.  0.
         66    2    3    3    0    0  0.18941201504E+02 -0.30522903946E+02  0.44104622935E+03  0.44251123512E+03  0.20000007511E+01 0.  0.
        -13    1    3    3    0    0 -0.18941201504E+02  0.30522903946E+02  0.15316598538E+03  0.15732211231E+03  0.10566000000E+00 0.  1.
         13    1    4    4    0    0  0.42498377203E+01 -0.71111666865E+01  0.10187169128E+03  0.10220803521E+03  0.10566000000E+00 0. -1.
        -13    1    4    4    0    0  0.47632429131E+01 -0.89339948258E+01  0.12915284244E+03  0.12954911278E+03  0.10566000000E+00 0.  1.
        -14    1    4    4    0    0  0.99281208704E+01 -0.14477742434E+02  0.21002169563E+03  0.21075408713E+03  0.00000000000E+00 0.  1.
<mgrwt>
<rscale>  0 0.81926116E+02</rscale>
<asrwt>0</asrwt>
<pdfrwt beam="1">  1        2 0.91849674E-01 0.81926116E+02</pdfrwt>
<pdfrwt beam="2">  1       -1 0.43239475E-03 0.81926116E+02</pdfrwt>
<totfact> 0.30188527E+05</totfact>
</mgrwt>
</event>
<event>
 8    1  0.2656745E-024  0.7930061E+02  0.7818608E-02  0.1331048E+00
         -1   -1    0    0    0  501 -0.00000000000E+00  0.00000000000E+00  0.91025038592E+01  0.91025052545E+01  0.50400000000E-02 0.  1.
          2   -1    0    0  501    0  0.00000000000E+00 -0.00000000000E+00 -0.17271581490E+03  0.17271581492E+03  0.25500000000E-02 0. -1.
         24    2    1    2    0    0  0.00000000000E+00  0.00000000000E+00 -0.16361331104E+03  0.18181832017E+03  0.79300605299E+02 0.  0.
         66    2    3    3    0    0 -0.72530928754E+01 -0.13154399189E+02 -0.16592851523E+03  0.16661907977E+03  0.20000002033E+01 0.  0.
        -13    1    3    3    0    0  0.72530928754E+01  0.13154399189E+02  0.23152041961E+01  0.15199240402E+02  0.10566000000E+00 0.  1.
         13    1    4    4    0    0 -0.25891352696E+01 -0.50886141101E+01 -0.64714099488E+02  0.64965555886E+02  0.10566000000E+00 0. -1.
        -13    1    4    4    0    0 -0.26966693559E+01 -0.60179480483E+01 -0.71953797465E+02  0.72255434799E+02  0.10566000000E+00 0.  1.
        -14    1    4    4    0    0 -0.19672882499E+01 -0.20478370310E+01 -0.29260618281E+02  0.29398089084E+02  0.00000000000E+00 0.  1.
<mgrwt>
<rscale>  0 0.79300605E+02</rscale>
<asrwt>0</asrwt>
<pdfrwt beam="1">  1        2 0.26571661E-01 0.79300605E+02</pdfrwt>
<pdfrwt beam="2">  1       -1 0.14003855E-02 0.79300605E+02</pdfrwt>
<totfact> 0.21473105E+05</totfact>
</mgrwt>
</event>
<event>
 8    1  0.2603554E-024  0.8010597E+02  0.7818608E-02  0.1328751E+00
          2   -1    0    0  501    0  0.00000000000E+00  0.00000000000E+00  0.72604204838E+02  0.72604204883E+02  0.25500000000E-02 0. -1.
         -1   -1    0    0    0  501 -0.00000000000E+00 -0.00000000000E+00 -0.22095713506E+02  0.22095714081E+02  0.50400000000E-02 0.  1.
         24    2    1    2    0    0  0.00000000000E+00 -0.35527136788E-14  0.50508491333E+02  0.94699918964E+02  0.80105973279E+02 0.  0.
         66    2    3    3    0    0 -0.19321848212E+02  0.98749427271E+01  0.65033991092E+02  0.68587668591E+02  0.19999933148E+01 0.  0.
        -13    1    3    3    0    0  0.19321848212E+02 -0.98749427271E+01 -0.14525499759E+02  0.26112250372E+02  0.10566000000E+00 0.  1.
         13    1    4    4    0    0 -0.11138238397E+02  0.60666708737E+01  0.40121757829E+02  0.42078871960E+02  0.10566000000E+00 0. -1.
        -13    1    4    4    0    0 -0.48149638876E+01  0.18205289605E+01  0.14002122462E+02  0.14918739907E+02  0.10566000000E+00 0.  1.
        -14    1    4    4    0    0 -0.33686459275E+01  0.19877428929E+01  0.10910110801E+02  0.11590056725E+02  0.00000000000E+00 0.  1.
<mgrwt>
<rscale>  0 0.80105973E+02</rscale>
<asrwt>0</asrwt>
<pdfrwt beam="1">  1        2 0.11169878E-01 0.80105973E+02</pdfrwt>
<pdfrwt beam="2">  1       -1 0.33993406E-02 0.80105973E+02</pdfrwt>
<totfact> 0.16233966E+05</totfact>
</mgrwt>
</event>
<event>
 8    1  0.2603554E-024  0.7949146E+02  0.7818608E-02  0.1330501E+00
         -1   -1    0    0    0  501 -0.00000000000E+00  0.00000000000E+00  0.92734974848E+02  0.92734974985E+02  0.50400000000E-02 0.  1.
          2   -1    0    0  501    0  0.00000000000E+00 -0.00000000000E+00 -0.17034815921E+02  0.17034816112E+02  0.25500000000E-02 0. -1.
         24    2    1    2    0    0  0.00000000000E+00 -0.17763568394E-14  0.75700158927E+02  0.10976979110E+03  0.79491464800E+02 0.  0.
         66    2    3    3    0    0 -0.14793339675E+02  0.15862969220E+02 -0.80758178580E+01  0.23231347955E+02  0.20000006229E+01 0.  0.
        -13    1    3    3    0    0  0.14793339675E+02 -0.15862969220E+02  0.83775976785E+02  0.86538443143E+02  0.10566000000E+00 0.  1.
         13    1    4    4    0    0 -0.10400262746E+02  0.11644005626E+02 -0.54055669220E+01  0.16522095811E+02  0.10566000000E+00 0. -1.
        -13    1    4    4    0    0 -0.33153129078E+01  0.36337072961E+01 -0.22768266561E+01  0.54212758690E+01  0.10566000000E+00 0.  1.
        -14    1    4    4    0    0 -0.10777640216E+01  0.58525629834E+00 -0.39342427994E+00  0.12879762751E+01  0.00000000000E+00 0.  1.
<mgrwt>
<rscale>  0 0.79491465E+02</rscale>
<asrwt>0</asrwt>
<pdfrwt beam="1">  1        2 0.26207410E-02 0.79491465E+02</pdfrwt>
<pdfrwt beam="2">  1       -1 0.14266919E-01 0.79491465E+02</pdfrwt>
<totfact> 0.12236302E+05</totfact>
</mgrwt>
</event>
<event>
 8    1  0.2603554E-024  0.8041480E+02  0.7818608E-02  0.1327878E+00
          2   -1    0    0  501    0  0.00000000000E+00  0.00000000000E+00  0.31518570146E+02  0.31518570249E+02  0.25500000000E-02 0. -1.
         -1   -1    0    0    0  501 -0.00000000000E+00 -0.00000000000E+00 -0.51291506888E+02  0.51291507135E+02  0.50400000000E-02 0.  1.
         24    2    1    2    0    0  0.00000000000E+00  0.00000000000E+00 -0.19772936742E+02  0.82810077384E+02  0.80414798943E+02 0.  0.
         66    2    3    3    0    0  0.24377486589E+02 -0.31897489988E+02 -0.11651749889E+02  0.41850627194E+02  0.20000002924E+01 0.  0.
        -13    1    3    3    0    0 -0.24377486589E+02  0.31897489988E+02 -0.81211868528E+01  0.40959450190E+02  0.10566000000E+00 0.  1.
         13    1    4    4    0    0  0.14251675615E+02 -0.17251973848E+02 -0.63059213151E+01  0.23249014327E+02  0.10566000000E+00 0. -1.
        -13    1    4    4    0    0  0.45637611494E+01 -0.60564166980E+01 -0.22882685759E+01  0.79218328788E+01  0.10566000000E+00 0.  1.
        -14    1    4    4    0    0  0.55620498243E+01 -0.85890994421E+01 -0.30575599979E+01  0.10679779989E+02  0.00000000000E+00 0.  1.
<mgrwt>
<rscale>  0 0.80414799E+02</rscale>
<asrwt>0</asrwt>
<pdfrwt beam="1">  1        2 0.48490108E-02 0.80414799E+02</pdfrwt>
<pdfrwt beam="2">  1       -1 0.78910011E-02 0.80414799E+02</pdfrwt>
<totfact> 0.13392136E+05</totfact>
</mgrwt>
</event>
<event>
 8    1  0.2603554E-024  0.8186572E+02  0.7818608E-02  0.1323839E+00
         -1   -1    0    0    0  501 -0.00000000000E+00  0.00000000000E+00  0.23369613295E+01  0.23369667643E+01  0.50400000000E-02 0.  1.
          2   -1    0    0  501    0  0.00000000000E+00 -0.00000000000E+00 -0.71695536760E+03  0.71695536761E+03  0.25500000000E-02 0. -1.
         24    2    1    2    0    0  0.00000000000E+00  0.00000000000E+00 -0.71461840627E+03  0.71929233437E+03  0.81865717496E+02 0.  0.
         66    2    3    3    0    0  0.10120661646E+02 -0.27961317625E+01 -0.70491183038E+03  0.70499286149E+03  0.20000007717E+01 0.  0.
        -13    1    3    3    0    0 -0.10120661646E+02  0.27961317625E+01 -0.97065758955E+01  0.14299472880E+02  0.10566000000E+00 0.  1.
         13    1    4    4    0    0  0.44883470305E+01 -0.98545817820E+00 -0.32300914493E+03  0.32304184754E+03  0.10566000000E+00 0. -1.
        -13    1    4    4    0    0  0.19878809637E+01 -0.45744986131E+00 -0.17396901029E+03  0.17398100079E+03  0.10566000000E+00 0.  1.
         14    1    4    4    0    0  0.36444336517E+01 -0.13532237230E+01 -0.20793367516E+03  0.20797001316E+03  0.00000000000E+00 0. -1.
<mgrwt>
<rscale>  0 0.81865717E+02</rscale>
<asrwt>0</asrwt>
<pdfrwt beam="1">  1        2 0.11030065E+00 0.81865717E+02</pdfrwt>
<pdfrwt beam="2">  1       -1 0.35953350E-03 0.81865717E+02</pdfrwt>
<totfact> 0.31673565E+05</totfact>
</mgrwt>
</event>
<event>
 8    1  0.2603554E-024  0.7623217E+02  0.7818608E-02  0.1340097E+00
         -1   -1    0    0    0  501 -0.00000000000E+00  0.00000000000E+00  0.32718837862E+01  0.32718876680E+01  0.50400000000E-02 0.  1.
          2   -1    0    0  501    0  0.00000000000E+00 -0.00000000000E+00 -0.44403629283E+03  0.44403629284E+03  0.25500000000E-02 0. -1.
         24    2    1    2    0    0 -0.35527136788E-14  0.00000000000E+00 -0.44076440905E+03  0.44730818051E+03  0.76232172128E+02 0.  0.
         66    2    3    3    0    0 -0.29995045235E+02 -0.31699147947E+01 -0.35702298860E+03  0.35830038444E+03  0.20000006047E+01 0.  0.
        -13    1    3    3    0    0  0.29995045235E+02  0.31699147947E+01 -0.83741420445E+02  0.89007796067E+02  0.10566000000E+00 0.  1.
         13    1    4    4    0    0 -0.18733464810E+02 -0.26373251497E+01 -0.22022040075E+03  0.22103152322E+03  0.10566000000E+00 0. -1.
        -13    1    4    4    0    0 -0.59444543601E+00 -0.13072245911E+00 -0.61659115070E+01  0.61967800094E+01  0.10566000000E+00 0. -1.
        -14    1    4    4    0    0 -0.10667134989E+02 -0.40186718584E+00 -0.13063667635E+03  0.13107208121E+03  0.00000000000E+00 0.  1.
<mgrwt>
<rscale>  0 0.76232172E+02</rscale>
<asrwt>0</asrwt>
<pdfrwt beam="1">  1        2 0.68313228E-01 0.76232172E+02</pdfrwt>
<pdfrwt beam="2">  1       -1 0.50336739E-03 0.76232172E+02</pdfrwt>
<totfact> 0.33205402E+05</totfact>
</mgrwt>
</event>
<event>
 8    1  0.2603554E-024  0.8276464E+02  0.7818608E-02  0.1321384E+00
         -1   -1    0    0    0  501 -0.00000000000E+00  0.00000000000E+00  0.36464915099E+01  0.36464949929E+01  0.50400000000E-02 0.  1.
          2   -1    0    0  501    0  0.00000000000E+00 -0.00000000000E+00 -0.46962833678E+03  0.46962833679E+03  0.25500000000E-02 0. -1.
         24    2    1    2    0    0  0.00000000000E+00  0.00000000000E+00 -0.46598184527E+03  0.47327483178E+03  0.82764643870E+02 0.  0.
         66    2    3    3    0    0  0.10015333467E+02 -0.13588622981E+02 -0.44902893530E+03  0.44935057841E+03  0.20000001941E+01 0.  0.
        -13    1    3    3    0    0 -0.10015333467E+02  0.13588622981E+02 -0.16952909977E+02  0.23924253377E+02  0.10566000000E+00 0.  1.
         13    1    4    4    0    0  0.59571134903E+01 -0.76024416273E+01 -0.23632203571E+03  0.23651934392E+03  0.10566000000E+00 0. -1.
        -13    1    4    4    0    0  0.21550742634E+01 -0.38204376343E+01 -0.13139285102E+03  0.13146608898E+03  0.10566000000E+00 0.  1.
         14    1    4    4    0    0  0.19031457129E+01 -0.21657437189E+01 -0.81314048569E+02  0.81365145511E+02  0.00000000000E+00 0. -1.
<mgrwt>
<rscale>  0 0.82764644E+02</rscale>
<asrwt>0</asrwt>
<pdfrwt beam="1">  1        2 0.72250466E-01 0.82764644E+02</pdfrwt>
<pdfrwt beam="2">  1       -1 0.56099933E-03 0.82764644E+02</pdfrwt>
<totfact> 0.27305129E+05</totfact>
</mgrwt>
</event>
<event>
 8    1  0.2603554E-024  0.7996662E+02  0.7818608E-02  0.1329146E+00
          2   -1    0    0  501    0  0.00000000000E+00  0.00000000000E+00  0.33485774919E+02  0.33485775016E+02  0.25500000000E-02 0. -1.
         -1   -1    0    0    0  501 -0.00000000000E+00 -0.00000000000E+00 -0.47741623160E+02  0.47741623426E+02  0.50400000000E-02 0.  1.
         24    2    1    2    0    0  0.00000000000E+00  0.17763568394E-14 -0.14255848241E+02  0.81227398442E+02  0.79966624592E+02 0.  0.
         66    2    3    3    0    0 -0.97867486975E+01 -0.11010924794E+02  0.30596740569E+02  0.34017369827E+02  0.20000004148E+01 0.  0.
        -13    1    3    3    0    0  0.97867486975E+01  0.11010924794E+02 -0.44852588809E+02  0.47210028615E+02  0.10566000000E+00 0.  1.
         13    1    4    4    0    0 -0.63546563518E+01 -0.68810002361E+01  0.20240002669E+02  0.22302436945E+02  0.10566000000E+00 0. -1.
        -13    1    4    4    0    0 -0.25336939980E+01 -0.36009009442E+01  0.78712888533E+01  0.90196699016E+01  0.10566000000E+00 0.  1.
         14    1    4    4    0    0 -0.89839834772E+00 -0.52902361378E+00  0.24854490461E+01  0.26952629808E+01  0.00000000000E+00 0. -1.
<mgrwt>
<rscale>  0 0.79966625E+02</rscale>
<asrwt>0</asrwt>
<pdfrwt beam="1">  1        2 0.51516577E-02 0.79966625E+02</pdfrwt>
<pdfrwt beam="2">  1       -1 0.73448651E-02 0.79966625E+02</pdfrwt>
<totfact> 0.13767781E+05</totfact>
</mgrwt>
</event>
<event>
 8    1  0.2603554E-024  0.7920657E+02  0.7818608E-02  0.1331318E+00
          2   -1    0    0  501    0  0.00000000000E+00  0.00000000000E+00  0.41002943730E+02  0.41002943809E+02  0.25500000000E-02 0. -1.
         -1   -1    0    0    0  501 -0.00000000000E+00 -0.00000000000E+00 -0.38251406439E+02  0.38251406771E+02  0.50400000000E-02 0.  1.
         24    2    1    2    0    0  0.00000000000E+00  0.00000000000E+00  0.27515372911E+01  0.79254350581E+02  0.79206572508E+02 0.  0.
         66    2    3    3    0    0  0.64447037948E+01  0.35115770829E+02  0.18468040659E+02  0.40245746272E+02  0.19999998212E+01 0.  0.
        -13    1    3    3    0    0 -0.64447037948E+01 -0.35115770829E+02 -0.15716503368E+02  0.39008604308E+02  0.10566000000E+00 0.  1.
         13    1    4    4    0    0  0.91059699890E-01  0.19033833053E+01  0.68607248823E+00  0.20280580294E+01  0.10566000000E+00 0.  1.
        -13    1    4    4    0    0  0.49463944987E+01  0.27289504266E+02  0.14872413975E+02  0.31470362615E+02  0.10566000000E+00 0. -1.
        -14    1    4    4    0    0  0.14072495962E+01  0.59228832580E+01  0.29095541960E+01  0.67473256283E+01  0.00000000000E+00 0.  1.
<mgrwt>
<rscale>  0 0.79206573E+02</rscale>
<asrwt>0</asrwt>
<pdfrwt beam="1">  1        2 0.63081452E-02 0.79206573E+02</pdfrwt>
<pdfrwt beam="2">  1       -1 0.58848318E-02 0.79206573E+02</pdfrwt>
<totfact> 0.14727692E+05</totfact>
</mgrwt>
</event>
<event>
 8    1  0.2603554E-024  0.8191840E+02  0.7818608E-02  0.1323694E+00
         -1   -1    0    0    0  501 -0.00000000000E+00  0.00000000000E+00  0.32346184069E+01  0.32346223335E+01  0.50400000000E-02 0.  1.
          2   -1    0    0  501    0  0.00000000000E+00 -0.00000000000E+00 -0.51865619340E+03  0.51865619340E+03  0.25500000000E-02 0. -1.
         24    2    1    2    0    0  0.22204460493E-15  0.35527136788E-14 -0.51542157499E+03  0.52189081574E+03  0.81918395890E+02 0.  0.
         66    2    3    3    0    0 -0.17897876041E+01 -0.24807199151E+02 -0.46499543396E+03  0.46566442218E+03  0.20000023883E+01 0.  0.
        -13    1    3    3    0    0  0.17897876041E+01  0.24807199151E+02 -0.50426141031E+02  0.56226393559E+02  0.10566000000E+00 0.  1.
         13    1    4    4    0    0 -0.68122031262E+00 -0.66609519358E+01 -0.12679738998E+03  0.12697409819E+03  0.10566000000E+00 0. -1.
        -13    1    4    4    0    0 -0.88100222981E+00 -0.39992292139E+01 -0.71599241082E+02  0.71716333473E+02  0.10566000000E+00 0.  1.
        -14    1    4    4    0    0 -0.22756506164E+00 -0.14147018001E+02 -0.26659880290E+03  0.26697399051E+03  0.00000000000E+00 0.  1.
<mgrwt>
<rscale>  0 0.81918396E+02</rscale>
<asrwt>0</asrwt>
<pdfrwt beam="1">  1        2 0.79793194E-01 0.81918396E+02</pdfrwt>
<pdfrwt beam="2">  1       -1 0.49763432E-03 0.81918396E+02</pdfrwt>
<totfact> 0.28958574E+05</totfact>
</mgrwt>
</event>
<event>
 8    1  0.2603554E-024  0.7717830E+02  0.7818608E-02  0.1337255E+00
         -1   -1    0    0    0  501 -0.00000000000E+00  0.00000000000E+00  0.10629740551E+02  0.10629741746E+02  0.50400000000E-02 0.  1.
          2   -1    0    0  501    0  0.00000000000E+00 -0.00000000000E+00 -0.14009020747E+03  0.14009020749E+03  0.25500000000E-02 0. -1.
         24    2    1    2    0    0  0.35527136788E-14 -0.44408920985E-15 -0.12946046691E+03  0.15071994923E+03  0.77178303968E+02 0.  0.
         66    2    3    3    0    0 -0.31775663394E+02  0.22137720534E+01 -0.10722454147E+03  0.11187357083E+03  0.19999964472E+01 0.  0.
        -13    1    3    3    0    0  0.31775663394E+02 -0.22137720534E+01 -0.22235925446E+02  0.38846378406E+02  0.10566000000E+00 0.  1.
         13    1    4    4    0    0 -0.96826113848E+01  0.30291992087E+00 -0.35176522719E+02  0.36486211619E+02  0.10566000000E+00 0. -1.
        -13    1    4    4    0    0 -0.12794222607E+01 -0.12635329134E-01 -0.44410516692E+01  0.46228978939E+01  0.10566000000E+00 0.  1.
        -14    1    4    4    0    0 -0.20813629748E+02  0.19234874616E+01 -0.67606967080E+02  0.70764461314E+02  0.00000000000E+00 0.  1.
<mgrwt>
<rscale>  0 0.77178304E+02</rscale>
<asrwt>0</asrwt>
<pdfrwt beam="1">  1        2 0.21552338E-01 0.77178304E+02</pdfrwt>
<pdfrwt beam="2">  1       -1 0.16353449E-02 0.77178304E+02</pdfrwt>
<totfact> 0.21556214E+05</totfact>
</mgrwt>
</event>
<event>
 8    1  0.2603554E-024  0.7923616E+02  0.7818608E-02  0.1331233E+00
         -1   -1    0    0    0  501 -0.00000000000E+00  0.00000000000E+00  0.22549533361E+01  0.22549589685E+01  0.50400000000E-02 0.  1.
          2   -1    0    0  501    0  0.00000000000E+00 -0.00000000000E+00 -0.69606331813E+03  0.69606331814E+03  0.25500000000E-02 0. -1.
         24    2    1    2    0    0  0.00000000000E+00  0.00000000000E+00 -0.69380836479E+03  0.69831827710E+03  0.79236160169E+02 0.  0.
         66    2    3    3    0    0  0.35129538043E+02 -0.93255212016E+01 -0.48550400190E+03  0.48686670214E+03  0.20000012916E+01 0.  0.
        -13    1    3    3    0    0 -0.35129538043E+02  0.93255212016E+01 -0.20830436289E+03  0.21145157496E+03  0.10566000000E+00 0.  1.
         13    1    4    4    0    0  0.17861715534E+02 -0.43687736296E+01 -0.25302127513E+03  0.25368859631E+03  0.10566000000E+00 0. -1.
        -13    1    4    4    0    0  0.19863615566E+01 -0.26441346876E+00 -0.24747533919E+02  0.24828756429E+02  0.10566000000E+00 0.  1.
         14    1    4    4    0    0  0.15281460952E+02 -0.46923341033E+01 -0.20773519285E+03  0.20834934941E+03  0.00000000000E+00 0. -1.
<mgrwt>
<rscale>  0 0.79236160E+02</rscale>
<asrwt>0</asrwt>
<pdfrwt beam="1">  1        2 0.10708649E+00 0.79236160E+02</pdfrwt>
<pdfrwt beam="2">  1       -1 0.34691689E-03 0.79236160E+02</pdfrwt>
<totfact> 0.34251632E+05</totfact>
</mgrwt>
</event>
<event>
 8    1  0.2603554E-024  0.8091349E+02  0.7818608E-02  0.1326479E+00
          2   -1    0    0  501    0  0.00000000000E+00  0.00000000000E+00  0.18591227099E+03  0.18591227101E+03  0.25500000000E-02 0. -1.
         -1   -1    0    0    0  501 -0.00000000000E+00 -0.00000000000E+00 -0.88038723413E+01  0.88038737839E+01  0.50400000000E-02 0.  1.
         24    2    1    2    0    0  0.00000000000E+00  0.00000000000E+00  0.17710839865E+03  0.19471614479E+03  0.80913485715E+02 0.  0.
         66    2    3    3    0    0 -0.31846699223E+02  0.32655188033E+01  0.14803718872E+03  0.15147239061E+03  0.20000026815E+01 0.  0.
        -13    1    3    3    0    0  0.31846699223E+02 -0.32655188033E+01  0.29071209932E+02  0.43243754178E+02  0.10566000000E+00 0.  1.
         13    1    4    4    0    0 -0.29038113175E+02  0.27170814803E+01  0.13599369506E+03  0.13908591161E+03  0.10566000000E+00 0. -1.
        -13    1    4    4    0    0 -0.21518763759E+01  0.35850011762E+00  0.98351584411E+01  0.10074750611E+02  0.10566000000E+00 0. -1.
         14    1    4    4    0    0 -0.65670967207E+00  0.18993720530E+00  0.22083352142E+01  0.23117283910E+01  0.00000000000E+00 0. -1.
<mgrwt>
<rscale>  0 0.80913486E+02</rscale>
<asrwt>0</asrwt>
<pdfrwt beam="1">  1        2 0.28601885E-01 0.80913486E+02</pdfrwt>
<pdfrwt beam="2">  1       -1 0.13544421E-02 0.80913486E+02</pdfrwt>
<totfact> 0.20873999E+05</totfact>
</mgrwt>
</event>
<event>
 8    1  0.2603554E-024  0.7909025E+02  0.7818608E-02  0.1331653E+00
         -1   -1    0    0    0  501 -0.00000000000E+00  0.00000000000E+00  0.27559448600E+01  0.27559494685E+01  0.50400000000E-02 0.  1.
          2   -1    0    0  501    0  0.00000000000E+00 -0.00000000000E+00 -0.56743361701E+03  0.56743361701E+03  0.25500000000E-02 0. -1.
         24    2    1    2    0    0  0.00000000000E+00  0.17763568394E-14 -0.56467767215E+03  0.57018956648E+03  0.79090254157E+02 0.  0.
         66    2    3    3    0    0 -0.22460617531E+02  0.11396743128E+02 -0.50207262400E+03  0.50270795186E+03  0.20000008752E+01 0.  0.
        -13    1    3    3    0    0  0.22460617531E+02 -0.11396743128E+02 -0.62605048148E+02  0.67481614618E+02  0.10566000000E+00 0.  1.
         13    1    4    4    0    0 -0.16005267203E+02  0.82464853060E+01 -0.34802900429E+03  0.34849443624E+03  0.10566000000E+00 0. -1.
        -13    1    4    4    0    0 -0.15384141964E+01  0.39395334498E+00 -0.30927614097E+02  0.30968538797E+02  0.10566000000E+00 0.  1.
        -14    1    4    4    0    0 -0.49169361320E+01  0.27563044767E+01 -0.12311600561E+03  0.12324497683E+03  0.00000000000E+00 0.  1.
<mgrwt>
<rscale>  0 0.79090254E+02</rscale>
<asrwt>0</asrwt>
<pdfrwt beam="1">  1        2 0.87297387E-01 0.79090254E+02</pdfrwt>
<pdfrwt beam="2">  1       -1 0.42399232E-03 0.79090254E+02</pdfrwt>
<totfact> 0.32610820E+05</totfact>
</mgrwt>
</event>
<event>
 8    1  0.2603554E-024  0.7948233E+02  0.7818608E-02  0.1330527E+00
          2   -1    0    0  501    0  0.00000000000E+00  0.00000000000E+00  0.43719626569E+03  0.43719626570E+03  0.25500000000E-02 0. -1.
         -1   -1    0    0    0  501 -0.00000000000E+00 -0.00000000000E+00 -0.36124723015E+01  0.36124758173E+01  0.50400000000E-02 0.  1.
         24    2    1    2    0    0  0.00000000000E+00  0.00000000000E+00  0.43358379339E+03  0.44080874152E+03  0.79482329525E+02 0.  0.
         66    2    3    3    0    0 -0.17898512135E+02  0.35423098843E+02  0.22515960259E+03  0.22863945264E+03  0.19999989817E+01 0.  0.
        -13    1    3    3    0    0  0.17898512135E+02 -0.35423098843E+02  0.20842419080E+03  0.21216928888E+03  0.10566000000E+00 0.  1.
         13    1    4    4    0    0 -0.10212683873E+02  0.20268717296E+02  0.12918979179E+03  0.13116833947E+03  0.10566000000E+00 0. -1.
        -13    1    4    4    0    0 -0.36583825322E+01  0.60038802131E+01  0.37804732173E+02  0.38453078929E+02  0.10566000000E+00 0.  1.
        -14    1    4    4    0    0 -0.40274457297E+01  0.91505013344E+01  0.58165078625E+02  0.59018034237E+02  0.00000000000E+00 0.  1.
<mgrwt>
<rscale>  0 0.79482330E+02</rscale>
<asrwt>0</asrwt>
<pdfrwt beam="1">  1        2 0.67260915E-01 0.79482330E+02</pdfrwt>
<pdfrwt beam="2">  1       -1 0.55576565E-03 0.79482330E+02</pdfrwt>
<totfact> 0.29630808E+05</totfact>
</mgrwt>
</event>
<event>
 8    1  0.2603554E-024  0.8162652E+02  0.7818608E-02  0.1324498E+00
         -1   -1    0    0    0  501 -0.00000000000E+00  0.00000000000E+00  0.18233683889E+02  0.18233684585E+02  0.50400000000E-02 0.  1.
          2   -1    0    0  501    0  0.00000000000E+00 -0.00000000000E+00 -0.91354120024E+02  0.91354120060E+02  0.25500000000E-02 0. -1.
         24    2    1    2    0    0  0.00000000000E+00 -0.35527136788E-14 -0.73120436136E+02  0.10958780465E+03  0.81626519871E+02 0.  0.
         66    2    3    3    0    0  0.26260014812E+02 -0.27438831044E+02 -0.16612836348E+02  0.41502579928E+02  0.19999955380E+01 0.  0.
        -13    1    3    3    0    0 -0.26260014812E+02  0.27438831044E+02 -0.56507599788E+02  0.68085224717E+02  0.10566000000E+00 0.  1.
         13    1    4    4    0    0  0.12799642947E+02 -0.13939041835E+02 -0.87790917713E+01  0.20861720044E+02  0.10566000000E+00 0. -1.
        -13    1    4    4    0    0  0.26444221947E+01 -0.29825421724E+01 -0.20530499476E+01  0.44849419926E+01  0.10566000000E+00 0.  1.
         14    1    4    4    0    0  0.10815949670E+02 -0.10517247037E+02 -0.57806946291E+01  0.16155917891E+02  0.00000000000E+00 0. -1.
<mgrwt>
<rscale>  0 0.81626520E+02</rscale>
<asrwt>0</asrwt>
<pdfrwt beam="1">  1        2 0.14054480E-01 0.81626520E+02</pdfrwt>
<pdfrwt beam="2">  1       -1 0.28051822E-02 0.81626520E+02</pdfrwt>
<totfact> 0.16379430E+05</totfact>
</mgrwt>
</event>
<event>
 8    1  0.2603554E-024  0.8099654E+02  0.7818608E-02  0.1326247E+00
          2   -1    0    0  501    0  0.00000000000E+00  0.00000000000E+00  0.23471177570E+03  0.23471177571E+03  0.25500000000E-02 0. -1.
         -1   -1    0    0    0  501 -0.00000000000E+00 -0.00000000000E+00 -0.69877605989E+01  0.69877624165E+01  0.50400000000E-02 0.  1.
         24    2    1    2    0    0  0.00000000000E+00  0.00000000000E+00  0.22772401510E+03  0.24169953813E+03  0.80996541152E+02 0.  0.
         66    2    3    3    0    0 -0.16240250398E+02 -0.23216577252E+02  0.20017814195E+03  0.20218319362E+03  0.20000180376E+01 0.  0.
        -13    1    3    3    0    0  0.16240250398E+02  0.23216577252E+02  0.27545873145E+02  0.39516344513E+02  0.10566000000E+00 0.  1.
         13    1    4    4    0    0 -0.10634082734E+02 -0.14748700355E+02  0.12826043016E+03  0.12954287702E+03  0.10566000000E+00 0. -1.
        -13    1    4    4    0    0 -0.29621521403E+01 -0.36055573406E+01  0.35076685556E+02  0.35385864730E+02  0.10566000000E+00 0.  1.
         14    1    4    4    0    0 -0.26440155245E+01 -0.48623195569E+01  0.36841026241E+02  0.37254451869E+02  0.00000000000E+00 0. -1.
<mgrwt>
<rscale>  0 0.80996541E+02</rscale>
<asrwt>0</asrwt>
<pdfrwt beam="1">  1        2 0.36109502E-01 0.80996541E+02</pdfrwt>
<pdfrwt beam="2">  1       -1 0.10750403E-02 0.80996541E+02</pdfrwt>
<totfact> 0.22588050E+05</totfact>
</mgrwt>
</event>
<event>
 8    1  0.2603554E-024  0.8042230E+02  0.7818608E-02  0.1327857E+00
         -1   -1    0    0    0  501 -0.00000000000E+00  0.00000000000E+00  0.69517500587E+01  0.69517518857E+01  0.50400000000E-02 0.  1.
          2   -1    0    0  501    0  0.00000000000E+00 -0.00000000000E+00 -0.23259413338E+03  0.23259413340E+03  0.25500000000E-02 0. -1.
         24    2    1    2    0    0  0.00000000000E+00  0.00000000000E+00 -0.22564238332E+03  0.23954588528E+03  0.80422297925E+02 0.  0.
         66    2    3    3    0    0 -0.18709949665E+02 -0.34672293584E+02 -0.13647658038E+03  0.14206367287E+03  0.19999993208E+01 0.  0.
        -13    1    3    3    0    0  0.18709949665E+02  0.34672293584E+02 -0.89165802945E+02  0.97482212417E+02  0.10566000000E+00 0.  1.
         13    1    4    4    0    0 -0.58421945728E+01 -0.10745333609E+02 -0.44346214829E+02  0.46002080012E+02  0.10566000000E+00 0. -1.
        -13    1    4    4    0    0 -0.79265292469E+01 -0.13460264291E+02 -0.53749194492E+02  0.55973169048E+02  0.10566000000E+00 0.  1.
        -14    1    4    4    0    0 -0.49412258454E+01 -0.10466695684E+02 -0.38381171059E+02  0.40088423806E+02  0.00000000000E+00 0.  1.
<mgrwt>
<rscale>  0 0.80422298E+02</rscale>
<asrwt>0</asrwt>
<pdfrwt beam="1">  1        2 0.35783707E-01 0.80422298E+02</pdfrwt>
<pdfrwt beam="2">  1       -1 0.10695003E-02 0.80422298E+02</pdfrwt>
<totfact> 0.22941230E+05</totfact>
</mgrwt>
</event>
<event>
 8    1  0.2603554E-024  0.8122088E+02  0.7818608E-02  0.1325622E+00
          2   -1    0    0  501    0  0.00000000000E+00  0.00000000000E+00  0.10664370129E+02  0.10664370434E+02  0.25500000000E-02 0. -1.
         -1   -1    0    0    0  501 -0.00000000000E+00 -0.00000000000E+00 -0.15464652177E+03  0.15464652185E+03  0.50400000000E-02 0.  1.
         24    2    1    2    0    0  0.00000000000E+00  0.00000000000E+00 -0.14398215164E+03  0.16531089228E+03  0.81220878580E+02 0.  0.
         66    2    3    3    0    0  0.35679744890E+02  0.18301980236E+02 -0.59292085804E+02  0.71606969789E+02  0.20000018187E+01 0.  0.
        -13    1    3    3    0    0 -0.35679744890E+02 -0.18301980236E+02 -0.84690065833E+02  0.93703922495E+02  0.10566000000E+00 0.  1.
         13    1    4    4    0    0  0.19928660724E+02  0.11193762807E+02 -0.33215705097E+02  0.40320541578E+02  0.10566000000E+00 0. -1.
        -13    1    4    4    0    0  0.78978342634E+01  0.34122879008E+01 -0.12642222744E+02  0.15292365897E+02  0.10566000000E+00 0.  1.
        -14    1    4    4    0    0  0.78532499029E+01  0.36959295286E+01 -0.13434157963E+02  0.15994062313E+02  0.00000000000E+00 0.  1.
<mgrwt>
<rscale>  0 0.81220879E+02</rscale>
<asrwt>0</asrwt>
<pdfrwt beam="1">  1        2 0.16406725E-02 0.81220879E+02</pdfrwt>
<pdfrwt beam="2">  1       -1 0.23791771E-01 0.81220879E+02</pdfrwt>
<totfact> 0.10300647E+05</totfact>
</mgrwt>
</event>
<event>
 8    1  0.2603554E-024  0.7924623E+02  0.7818608E-02  0.1331204E+00
         -1   -1    0    0    0  501 -0.00000000000E+00  0.00000000000E+00  0.44969506617E+01  0.44969534860E+01  0.50400000000E-02 0.  1.
          2   -1    0    0  501    0  0.00000000000E+00 -0.00000000000E+00 -0.34912343307E+03  0.34912343308E+03  0.25500000000E-02 0. -1.
         24    2    1    2    0    0 -0.22204460493E-15  0.00000000000E+00 -0.34462648241E+03  0.35362038657E+03  0.79246232829E+02 0.  0.
         66    2    3    3    0    0  0.18363368826E+01 -0.20282829159E+02 -0.32395838964E+03  0.32460407194E+03  0.20000020212E+01 0.  0.
        -13    1    3    3    0    0 -0.18363368826E+01  0.20282829159E+02 -0.20668092765E+02  0.29016314625E+02  0.10566000000E+00 0.  1.
         13    1    4    4    0    0 -0.11584373197E+00 -0.10267550721E+01 -0.21650602670E+02  0.21675502433E+02  0.10566000000E+00 0.  1.
        -13    1    4    4    0    0  0.44159134022E+00 -0.19449028773E+01 -0.28416838554E+02  0.28486936085E+02  0.10566000000E+00 0. -1.
         14    1    4    4    0    0  0.15105892743E+01 -0.17311171210E+02 -0.27389094842E+03  0.27444163342E+03  0.00000000000E+00 0. -1.
<mgrwt>
<rscale>  0 0.79246233E+02</rscale>
<asrwt>0</asrwt>
<pdfrwt beam="1">  1        2 0.53711276E-01 0.79246233E+02</pdfrwt>
<pdfrwt beam="2">  1       -1 0.69183906E-03 0.79246233E+02</pdfrwt>
<totfact> 0.27600427E+05</totfact>
</mgrwt>
</event>
<event>
 8    1  0.2603554E-024  0.8020259E+02  0.7818608E-02  0.1328477E+00
          2   -1    0    0  501    0  0.00000000000E+00  0.00000000000E+00  0.51481918668E+02  0.51481918731E+02  0.25500000000E-02 0. -1.
         -1   -1    0    0    0  501 -0.00000000000E+00 -0.00000000000E+00 -0.31236478190E+02  0.31236478597E+02  0.50400000000E-02 0.  1.
         24    2    1    2    0    0  0.00000000000E+00  0.00000000000E+00  0.20245440478E+02  0.82718397328E+02  0.80202589711E+02 0.  0.
         66    2    3    3    0    0  0.11962728518E+02 -0.13080723652E+02  0.47199426419E+02  0.50457883895E+02  0.19999970021E+01 0.  0.
        -13    1    3    3    0    0 -0.11962728518E+02  0.13080723652E+02 -0.26953985940E+02  0.32260513433E+02  0.10566000000E+00 0.  1.
         13    1    4    4    0    0  0.64359603789E+01 -0.67568353966E+01  0.23729307297E+02  0.25498384251E+02  0.10566000000E+00 0. -1.
        -13    1    4    4    0    0  0.41707739035E+01 -0.55099547126E+01  0.19047403316E+02  0.20262519414E+02  0.10566000000E+00 0.  1.
         14    1    4    4    0    0  0.13559942360E+01 -0.81393354321E+00  0.44227158059E+01  0.46969802300E+01  0.00000000000E+00 0. -1.
<mgrwt>
<rscale>  0 0.80202590E+02</rscale>
<asrwt>0</asrwt>
<pdfrwt beam="1">  1        2 0.79202951E-02 0.80202590E+02</pdfrwt>
<pdfrwt beam="2">  1       -1 0.48056121E-02 0.80202590E+02</pdfrwt>
<totfact> 0.14934995E+05</totfact>
</mgrwt>
</event>
<event>
 8    1  0.2603554E-024  0.7987961E+02  0.7818608E-02  0.1329393E+00
         -1   -1    0    0    0  501 -0.00000000000E+00  0.00000000000E+00  0.42355003519E+02  0.42355003819E+02  0.50400000000E-02 0.  1.
          2   -1    0    0  501    0  0.00000000000E+00 -0.00000000000E+00 -0.37662324502E+02  0.37662324589E+02  0.25500000000E-02 0. -1.
         24    2    1    2    0    0  0.00000000000E+00  0.00000000000E+00  0.46926790165E+01  0.80017328407E+02  0.79879606966E+02 0.  0.
         66    2    3    3    0    0 -0.20050975843E+02 -0.28928739572E+01 -0.32102949435E+02  0.38013283493E+02  0.20000018684E+01 0.  0.
        -13    1    3    3    0    0  0.20050975843E+02  0.28928739572E+01  0.36795628452E+02  0.42004044914E+02  0.10566000000E+00 0.  1.
         13    1    4    4    0    0 -0.10513157288E+02 -0.17507655974E+01 -0.18159117381E+02  0.21056029170E+02  0.10566000000E+00 0. -1.
        -13    1    4    4    0    0 -0.25742166290E+01 -0.39022528593E+00 -0.31215377376E+01  0.40662057142E+01  0.10566000000E+00 0.  1.
         14    1    4    4    0    0 -0.69636019258E+01 -0.75188307392E+00 -0.10822294317E+02  0.12891048608E+02  0.00000000000E+00 0. -1.
<mgrwt>
<rscale>  0 0.79879607E+02</rscale>
<asrwt>0</asrwt>
<pdfrwt beam="1">  1        2 0.57942038E-02 0.79879607E+02</pdfrwt>
<pdfrwt beam="2">  1       -1 0.65161544E-02 0.79879607E+02</pdfrwt>
<totfact> 0.14139790E+05</totfact>
</mgrwt>
</event>
<event>
 8    1  0.2603554E-024  0.8095890E+02  0.7818608E-02  0.1326352E+00
          2   -1    0    0  501    0  0.00000000000E+00  0.00000000000E+00  0.18140635559E+03  0.18140635561E+03  0.25500000000E-02 0. -1.
         -1   -1    0    0    0  501 -0.00000000000E+00 -0.00000000000E+00 -0.90326814646E+01  0.90326828707E+01  0.50400000000E-02 0.  1.
         24    2    1    2    0    0  0.00000000000E+00  0.00000000000E+00  0.17237367413E+03  0.19043903848E+03  0.80958902199E+02 0.  0.
         66    2    3    3    0    0  0.24803194213E+02  0.26482993840E+02  0.12832058828E+03  0.13336686538E+03  0.19999996396E+01 0.  0.
        -13    1    3    3    0    0 -0.24803194213E+02 -0.26482993840E+02  0.44053085849E+02  0.57072173103E+02  0.10566000000E+00 0.  1.
         13    1    4    4    0    0  0.95431628755E+01  0.10448628178E+02  0.52890440538E+02  0.54750850704E+02  0.10566000000E+00 0. -1.
        -13    1    4    4    0    0  0.76096380635E+01  0.86139121326E+01  0.38733707994E+02  0.40403185180E+02  0.10566000000E+00 0.  1.
         14    1    4    4    0    0  0.76503932741E+01  0.74204535297E+01  0.36696439749E+02  0.38212829496E+02  0.00000000000E+00 0. -1.
<mgrwt>
<rscale>  0 0.80958902E+02</rscale>
<asrwt>0</asrwt>
<pdfrwt beam="1">  1        2 0.27908667E-01 0.80958902E+02</pdfrwt>
<pdfrwt beam="2">  1       -1 0.13896436E-02 0.80958902E+02</pdfrwt>
<totfact> 0.20669012E+05</totfact>
</mgrwt>
</event>
<event>
 8    1  0.2603554E-024  0.8090547E+02  0.7818608E-02  0.1326501E+00
          2   -1    0    0  501    0  0.00000000000E+00  0.00000000000E+00  0.11184324854E+04  0.11184324854E+04  0.25500000000E-02 0. -1.
         -1   -1    0    0    0  501 -0.00000000000E+00 -0.00000000000E+00 -0.14631360768E+01  0.14631447573E+01  0.50400000000E-02 0.  1.
         24    2    1    2    0    0  0.17763568394E-14  0.00000000000E+00  0.11169693494E+04  0.11198956302E+04  0.80905470301E+02 0.  0.
         66    2    3    3    0    0  0.15693073832E+02 -0.23610800462E+02  0.95777235474E+03  0.95819393965E+03  0.20000046966E+01 0.  0.
        -13    1    3    3    0    0 -0.15693073832E+02  0.23610800462E+02  0.15919699463E+03  0.16170169055E+03  0.10566000000E+00 0.  1.
         13    1    4    4    0    0  0.70720415597E+00 -0.15453527049E+01  0.55598397153E+02  0.55624465684E+02  0.10566000000E+00 0.  1.
        -13    1    4    4    0    0  0.12869048903E+02 -0.19042338281E+02  0.75853953693E+03  0.75888764868E+03  0.10566000000E+00 0. -1.
        -14    1    4    4    0    0  0.21168207735E+01 -0.30231094759E+01  0.14363442065E+03  0.14368182529E+03  0.00000000000E+00 0.  1.
<mgrwt>
<rscale>  0 0.80905470E+02</rscale>
<asrwt>0</asrwt>
<pdfrwt beam="1">  1        2 0.17206633E+00 0.80905470E+02</pdfrwt>
<pdfrwt beam="2">  1       -1 0.22509879E-03 0.80905470E+02</pdfrwt>
<totfact> 0.34214195E+05</totfact>
</mgrwt>
</event>
<event>
 8    1  0.2603554E-024  0.8031470E+02  0.7818608E-02  0.1328161E+00
         -1   -1    0    0    0  501 -0.00000000000E+00  0.00000000000E+00  0.21274798329E+02  0.21274798926E+02  0.50400000000E-02 0.  1.
          2   -1    0    0  501    0  0.00000000000E+00 -0.00000000000E+00 -0.75799206710E+02  0.75799206753E+02  0.25500000000E-02 0. -1.
         24    2    1    2    0    0  0.00000000000E+00  0.00000000000E+00 -0.54524408380E+02  0.97074005679E+02  0.80314702697E+02 0.  0.
         66    2    3    3    0    0  0.37134530718E+02 -0.14086604983E+02 -0.34243573251E+02  0.52478834985E+02  0.20000002029E+01 0.  0.
        -13    1    3    3    0    0 -0.37134530718E+02  0.14086604983E+02 -0.20280835129E+02  0.44595170693E+02  0.10566000000E+00 0.  1.
         13    1    4    4    0    0  0.23406541151E+02 -0.80581366903E+01 -0.21018278884E+02  0.32474281314E+02  0.10566000000E+00 0. -1.
        -13    1    4    4    0    0  0.12854223750E+02 -0.56953809336E+01 -0.12178883482E+02  0.18601204238E+02  0.10566000000E+00 0. -1.
         14    1    4    4    0    0  0.87376581634E+00 -0.33308735919E+00 -0.10464108858E+01  0.14033494335E+01  0.00000000000E+00 0. -1.
<mgrwt>
<rscale>  0 0.80314703E+02</rscale>
<asrwt>0</asrwt>
<pdfrwt beam="1">  1        2 0.11661416E-01 0.80314703E+02</pdfrwt>
<pdfrwt beam="2">  1       -1 0.32730460E-02 0.80314703E+02</pdfrwt>
<totfact> 0.16294547E+05</totfact>
</mgrwt>
</event>
<event>
 8    1  0.2603554E-024  0.7736178E+02  0.7818608E-02  0.1336710E+00
         -1   -1    0    0    0  501 -0.00000000000E+00  0.00000000000E+00  0.50203349898E+02  0.50203350151E+02  0.50400000000E-02 0.  1.
          2   -1    0    0  501    0  0.00000000000E+00 -0.00000000000E+00 -0.29803012808E+02  0.29803012917E+02  0.25500000000E-02 0. -1.
         24    2    1    2    0    0  0.00000000000E+00  0.00000000000E+00  0.20400337090E+02  0.80006363068E+02  0.77361775950E+02 0.  0.
         66    2    3    3    0    0  0.19692092552E+02 -0.10171846141E+02 -0.22545209759E+02  0.31678564431E+02  0.19999995751E+01 0.  0.
        -13    1    3    3    0    0 -0.19692092552E+02  0.10171846141E+02  0.42945546849E+02  0.48327798638E+02  0.10566000000E+00 0.  1.
         13    1    4    4    0    0  0.78701927459E+01 -0.36930412998E+01 -0.88730245623E+01  0.12422568849E+02  0.10566000000E+00 0. -1.
        -13    1    4    4    0    0  0.78942079093E+01 -0.44884977295E+01 -0.82336027393E+01  0.12258405626E+02  0.10566000000E+00 0.  1.
        -14    1    4    4    0    0  0.39276918973E+01 -0.19903071120E+01 -0.54385824573E+01  0.69975899555E+01  0.00000000000E+00 0.  1.
<mgrwt>
<rscale>  0 0.77361776E+02</rscale>
<asrwt>0</asrwt>
<pdfrwt beam="1">  1        2 0.45850789E-02 0.77361776E+02</pdfrwt>
<pdfrwt beam="2">  1       -1 0.77235923E-02 0.77361776E+02</pdfrwt>
<totfact> 0.14758547E+05</totfact>
</mgrwt>
</event>
<event>
 8    1  0.2603554E-024  0.8025192E+02  0.7818608E-02  0.1328338E+00
         -1   -1    0    0    0  501 -0.00000000000E+00  0.00000000000E+00  0.25404390774E+02  0.25404391274E+02  0.50400000000E-02 0.  1.
          2   -1    0    0  501    0  0.00000000000E+00 -0.00000000000E+00 -0.63378516553E+02  0.63378516605E+02  0.25500000000E-02 0. -1.
         24    2    1    2    0    0  0.00000000000E+00 -0.44408920985E-15 -0.37974125779E+02  0.88782907879E+02  0.80251918997E+02 0.  0.
         66    2    3    3    0    0  0.17025622265E+02  0.24016488325E+01 -0.59077647480E+02  0.61561417786E+02  0.19999993562E+01 0.  0.
        -13    1    3    3    0    0 -0.17025622265E+02 -0.24016488325E+01  0.21103521701E+02  0.27221490092E+02  0.10566000000E+00 0.  1.
         13    1    4    4    0    0  0.65941198360E+00  0.80287033913E-01 -0.36450844093E+01  0.37066257646E+01  0.10566000000E+00 0. -1.
        -13    1    4    4    0    0  0.14012537277E+01 -0.80401981818E-01 -0.49135962676E+01  0.51112198940E+01  0.10566000000E+00 0.  1.
         14    1    4    4    0    0  0.14964956554E+02  0.24017637804E+01 -0.50518966804E+02  0.52743572128E+02  0.00000000000E+00 0. -1.
<mgrwt>
<rscale>  0 0.80251919E+02</rscale>
<asrwt>0</asrwt>
<pdfrwt beam="1">  1        2 0.97505410E-02 0.80251919E+02</pdfrwt>
<pdfrwt beam="2">  1       -1 0.39083679E-02 0.80251919E+02</pdfrwt>
<totfact> 0.15632250E+05</totfact>
</mgrwt>
</event>
<event>
 8    1  0.2603554E-024  0.8102790E+02  0.7818608E-02  0.1326159E+00
          2   -1    0    0  501    0  0.00000000000E+00  0.00000000000E+00  0.12081229876E+04  0.12081229876E+04  0.25500000000E-02 0. -1.
         -1   -1    0    0    0  501 -0.00000000000E+00 -0.00000000000E+00 -0.13586153515E+01  0.13586246998E+01  0.50400000000E-02 0.  1.
         24    2    1    2    0    0  0.00000000000E+00  0.17763568394E-14  0.12067643722E+04  0.12094816123E+04  0.81027898709E+02 0.  0.
         66    2    3    3    0    0  0.17941596365E+02 -0.14558111978E+02  0.11000565224E+04  0.11003009552E+04  0.20000016463E+01 0.  0.
        -13    1    3    3    0    0 -0.17941596365E+02  0.14558111978E+02  0.10670784979E+03  0.10918065706E+03  0.10566000000E+00 0.  1.
         13    1    4    4    0    0  0.71086720692E+01 -0.61499276071E+01  0.45718082075E+03  0.45727745282E+03  0.10566000000E+00 0. -1.
        -13    1    4    4    0    0  0.98740895796E+01 -0.80123196007E+01  0.60481221309E+03  0.60494588120E+03  0.10566000000E+00 0.  1.
        -14    1    4    4    0    0  0.95883471642E+00 -0.39586476996E+00  0.38063488596E+02  0.38077621210E+02  0.00000000000E+00 0.  1.
<mgrwt>
<rscale>  0 0.81027899E+02</rscale>
<asrwt>0</asrwt>
<pdfrwt beam="1">  1        2 0.18586517E+00 0.81027899E+02</pdfrwt>
<pdfrwt beam="2">  1       -1 0.20901836E-03 0.81027899E+02</pdfrwt>
<totfact> 0.33869000E+05</totfact>
</mgrwt>
</event>
<event>
 8    1  0.2603554E-024  0.8589252E+02  0.7818608E-02  0.1313115E+00
         -1   -1    0    0    0  501 -0.00000000000E+00  0.00000000000E+00  0.35210221765E+02  0.35210222126E+02  0.50400000000E-02 0.  1.
          2   -1    0    0  501    0  0.00000000000E+00 -0.00000000000E+00 -0.52381977659E+02  0.52381977721E+02  0.25500000000E-02 0. -1.
         24    2    1    2    0    0  0.00000000000E+00 -0.22204460493E-15 -0.17171755894E+02  0.87592199847E+02  0.85892515818E+02 0.  0.
         66    2    3    3    0    0 -0.20765202993E+02 -0.11328505149E+01 -0.46882173086E+02  0.51326554128E+02  0.19999999484E+01 0.  0.
        -13    1    3    3    0    0  0.20765202993E+02  0.11328505149E+01  0.29710417192E+02  0.36265645719E+02  0.10566000000E+00 0.  1.
         13    1    4    4    0    0 -0.17792494877E+02 -0.10647225402E+01 -0.39651012275E+02  0.43473215277E+02  0.10566000000E+00 0. -1.
        -13    1    4    4    0    0 -0.10485424801E+01 -0.26306250020E+00 -0.32615154857E+01  0.34376286173E+01  0.10566000000E+00 0.  1.
        -14    1    4    4    0    0 -0.19241656362E+01  0.19493452549E+00 -0.39696453247E+01  0.44157102338E+01  0.00000000000E+00 0.  1.
<mgrwt>
<rscale>  0 0.85892516E+02</rscale>
<asrwt>0</asrwt>
<pdfrwt beam="1">  1        2 0.80587658E-02 0.85892516E+02</pdfrwt>
<pdfrwt beam="2">  1       -1 0.54169573E-02 0.85892516E+02</pdfrwt>
<totfact> 0.12417672E+05</totfact>
</mgrwt>
</event>
<event>
 8    1  0.2603554E-024  0.7549101E+02  0.7818608E-02  0.1342357E+00
         -1   -1    0    0    0  501 -0.00000000000E+00  0.00000000000E+00  0.50616139791E+01  0.50616164883E+01  0.50400000000E-02 0.  1.
          2   -1    0    0  501    0  0.00000000000E+00 -0.00000000000E+00 -0.28147595455E+03  0.28147595456E+03  0.25500000000E-02 0. -1.
         24    2    1    2    0    0  0.71054273576E-14  0.35527136788E-14 -0.27641434057E+03  0.28653757105E+03  0.75491005755E+02 0.  0.
         66    2    3    3    0    0 -0.31487694283E+02 -0.18461351944E+02 -0.17439688139E+03  0.17818689247E+03  0.20000007250E+01 0.  0.
        -13    1    3    3    0    0  0.31487694283E+02  0.18461351944E+02 -0.10201745918E+03  0.10835067858E+03  0.10566000000E+00 0.  1.
         13    1    4    4    0    0 -0.43416156913E+01 -0.26058834554E+01 -0.24998612084E+02  0.25506509475E+02  0.10566000000E+00 0. -1.
        -13    1    4    4    0    0 -0.29451575730E+01 -0.11190852505E+01 -0.14701658275E+02  0.15035831370E+02  0.10566000000E+00 0.  1.
        -14    1    4    4    0    0 -0.24200921018E+02 -0.14736383238E+02 -0.13469661103E+03  0.13764455163E+03  0.00000000000E+00 0.  1.
<mgrwt>
<rscale>  0 0.75491006E+02</rscale>
<asrwt>0</asrwt>
<pdfrwt beam="1">  1        2 0.43303981E-01 0.75491006E+02</pdfrwt>
<pdfrwt beam="2">  1       -1 0.77871026E-03 0.75491006E+02</pdfrwt>
<totfact> 0.28996227E+05</totfact>
</mgrwt>
</event>
<event>
 8    1  0.2603554E-024  0.8090534E+02  0.7818608E-02  0.1326502E+00
         -1   -1    0    0    0  501 -0.00000000000E+00  0.00000000000E+00  0.28990003123E+01  0.28990046934E+01  0.50400000000E-02 0.  1.
          2   -1    0    0  501    0  0.00000000000E+00 -0.00000000000E+00 -0.56447646389E+03  0.56447646389E+03  0.25500000000E-02 0. -1.
         24    2    1    2    0    0  0.71054273576E-14 -0.44408920985E-15 -0.56157746358E+03  0.56737546859E+03  0.80905344436E+02 0.  0.
         66    2    3    3    0    0  0.33512704599E+02 -0.20908085411E+01 -0.43885615533E+03  0.44014338336E+03  0.19999985192E+01 0.  0.
        -13    1    3    3    0    0 -0.33512704599E+02  0.20908085411E+01 -0.12272130825E+03  0.12723208523E+03  0.10566000000E+00 0.  1.
         13    1    4    4    0    0  0.19676179556E+02 -0.10146806562E+01 -0.25265874216E+03  0.25342579342E+03  0.10566000000E+00 0. -1.
        -13    1    4    4    0    0  0.13408746001E+00 -0.69143435339E-01 -0.19931686044E+01  0.20016606562E+01  0.10566000000E+00 0. -1.
         14    1    4    4    0    0  0.13702437583E+02 -0.10069844495E+01 -0.18420424457E+03  0.18471592928E+03  0.00000000000E+00 0. -1.
<mgrwt>
<rscale>  0 0.80905344E+02</rscale>
<asrwt>0</asrwt>
<pdfrwt beam="1">  1        2 0.86842445E-01 0.80905344E+02</pdfrwt>
<pdfrwt beam="2">  1       -1 0.44600084E-03 0.80905344E+02</pdfrwt>
<totfact> 0.30693196E+05</totfact>
</mgrwt>
</event>
<event>
 8    1  0.2603554E-024  0.8186540E+02  0.7818608E-02  0.1323840E+00
          2   -1    0    0  501    0  0.00000000000E+00  0.00000000000E+00  0.83813233082E+03  0.83813233083E+03  0.25500000000E-02 0. -1.
         -1   -1    0    0    0  501 -0.00000000000E+00 -0.00000000000E+00 -0.19990675096E+01  0.19990738629E+01  0.50400000000E-02 0.  1.
         24    2    1    2    0    0  0.35527136788E-14  0.00000000000E+00  0.83613326331E+03  0.84013140469E+03  0.81865396395E+02 0.  0.
         66    2    3    3    0    0 -0.23586734384E+02  0.15092164374E+02  0.72436300062E+03  0.72490679685E+03  0.19999982718E+01 0.  0.
        -13    1    3    3    0    0  0.23586734384E+02 -0.15092164374E+02  0.11177026270E+03  0.11522460784E+03  0.10566000000E+00 0.  1.
         13    1    4    4    0    0 -0.12470243010E+02  0.71960457244E+01  0.36753113821E+03  0.36781304865E+03  0.10566000000E+00 0. -1.
        -13    1    4    4    0    0 -0.10756216630E+02  0.76620380039E+01  0.33998011762E+03  0.34023652738E+03  0.10566000000E+00 0.  1.
        -14    1    4    4    0    0 -0.36027474454E+00  0.23408064537E+00  0.16851744783E+02  0.16857220822E+02  0.00000000000E+00 0.  1.
<mgrwt>
<rscale>  0 0.81865396E+02</rscale>
<asrwt>0</asrwt>
<pdfrwt beam="1">  1        2 0.12894382E+00 0.81865396E+02</pdfrwt>
<pdfrwt beam="2">  1       -1 0.30754841E-03 0.81865396E+02</pdfrwt>
<totfact> 0.32610120E+05</totfact>
</mgrwt>
</event>
<event>
 8    1  0.2603554E-024  0.7960745E+02  0.7818608E-02  0.1330169E+00
         -1   -1    0    0    0  501 -0.00000000000E+00  0.00000000000E+00  0.30948353254E+01  0.30948394293E+01  0.50400000000E-02 0.  1.
          2   -1    0    0  501    0  0.00000000000E+00 -0.00000000000E+00 -0.51192879821E+03  0.51192879821E+03  0.25500000000E-02 0. -1.
         24    2    1    2    0    0  0.00000000000E+00  0.00000000000E+00 -0.50883396288E+03  0.51502363764E+03  0.79607446566E+02 0.  0.
         66    2    3    3    0    0  0.11430622187E+02 -0.10057625052E+02 -0.49232869674E+03  0.49256812786E+03  0.20000003873E+01 0.  0.
        -13    1    3    3    0    0 -0.11430622187E+02  0.10057625052E+02 -0.16505266138E+02  0.22455509783E+02  0.10566000000E+00 0.  1.
         13    1    4    4    0    0  0.91654853580E+01 -0.74411850569E+01 -0.36162142645E+03  0.36181410226E+03  0.10566000000E+00 0. -1.
        -13    1    4    4    0    0  0.22405546225E+01 -0.24668531198E+01 -0.12255093699E+03  0.12259628367E+03  0.10566000000E+00 0.  1.
         14    1    4    4    0    0  0.24582206140E-01 -0.14958687511E+00 -0.81563333021E+01  0.81577419335E+01  0.00000000000E+00 0. -1.
<mgrwt>
<rscale>  0 0.79607447E+02</rscale>
<asrwt>0</asrwt>
<pdfrwt beam="1">  1        2 0.78758210E-01 0.79607447E+02</pdfrwt>
<pdfrwt beam="2">  1       -1 0.47612923E-03 0.79607447E+02</pdfrwt>
<totfact> 0.31075047E+05</totfact>
</mgrwt>
</event>
<event>
 8    1  0.2603554E-024  0.7940393E+02  0.7818608E-02  0.1330752E+00
          2   -1    0    0  501    0  0.00000000000E+00  0.00000000000E+00  0.64858395972E+01  0.64858400985E+01  0.25500000000E-02 0. -1.
         -1   -1    0    0    0  501 -0.00000000000E+00 -0.00000000000E+00 -0.24302879298E+03  0.24302879303E+03  0.50400000000E-02 0.  1.
         24    2    1    2    0    0 -0.14210854715E-13  0.55511151231E-16 -0.23654295338E+03  0.24951463313E+03  0.79403925289E+02 0.  0.
         66    2    3    3    0    0  0.39444539688E+02 -0.28825213713E+00 -0.10490892762E+03  0.11209744824E+03  0.20000017916E+01 0.  0.
        -13    1    3    3    0    0 -0.39444539688E+02  0.28825213713E+00 -0.13163402576E+03  0.13741718489E+03  0.10566000000E+00 0.  1.
         13    1    4    4    0    0  0.66830829141E+01 -0.32419627070E+00 -0.18703805436E+02  0.19864848409E+02  0.10566000000E+00 0. -1.
        -13    1    4    4    0    0  0.67582585323E+01  0.24587882601E+00 -0.19369870774E+02  0.20516763210E+02  0.10566000000E+00 0.  1.
         14    1    4    4    0    0  0.26003198242E+02 -0.20993469244E+00 -0.66835251407E+02  0.71715836619E+02  0.00000000000E+00 0. -1.
<mgrwt>
<rscale>  0 0.79403925E+02</rscale>
<asrwt>0</asrwt>
<pdfrwt beam="1">  1        2 0.99782170E-03 0.79403925E+02</pdfrwt>
<pdfrwt beam="2">  1       -1 0.37389038E-01 0.79403925E+02</pdfrwt>
<totfact> 0.95329874E+04</totfact>
</mgrwt>
</event>
<event>
 8    1  0.2603554E-024  0.7858529E+02  0.7818608E-02  0.1333115E+00
         -1   -1    0    0    0  501 -0.00000000000E+00  0.00000000000E+00  0.14583312704E+01  0.14583399796E+01  0.50400000000E-02 0.  1.
          2   -1    0    0  501    0  0.00000000000E+00 -0.00000000000E+00 -0.10586809237E+04  0.10586809237E+04  0.25500000000E-02 0. -1.
         24    2    1    2    0    0  0.00000000000E+00  0.00000000000E+00 -0.10572225925E+04  0.10601392637E+04  0.78585294160E+02 0.  0.
         66    2    3    3    0    0  0.10894151699E+02  0.50923310664E+01 -0.10332252969E+04  0.10332972121E+04  0.19999990556E+01 0.  0.
        -13    1    3    3    0    0 -0.10894151699E+02 -0.50923310664E+01 -0.23997295596E+02  0.26842051652E+02  0.10566000000E+00 0.  1.
         13    1    4    4    0    0  0.60433552612E+01  0.33582311062E+01 -0.63770314283E+03  0.63774062863E+03  0.10566000000E+00 0. -1.
        -13    1    4    4    0    0  0.18730091597E+01  0.43664482195E+00 -0.17303647379E+03  0.17304719370E+03  0.10566000000E+00 0.  1.
         14    1    4    4    0    0  0.29777872785E+01  0.12974551382E+01 -0.22248568024E+03  0.22250938973E+03  0.00000000000E+00 0. -1.
<mgrwt>
<rscale>  0 0.78585294E+02</rscale>
<asrwt>0</asrwt>
<pdfrwt beam="1">  1        2 0.16287337E+00 0.78585294E+02</pdfrwt>
<pdfrwt beam="2">  1       -1 0.22436017E-03 0.78585294E+02</pdfrwt>
<totfact> 0.36944136E+05</totfact>
</mgrwt>
</event>
<event>
 8    1  0.2603554E-024  0.7827297E+02  0.7818608E-02  0.1334025E+00
         -1   -1    0    0    0  501 -0.00000000000E+00  0.00000000000E+00  0.36104753387E+02  0.36104753738E+02  0.50400000000E-02 0.  1.
          2   -1    0    0  501    0  0.00000000000E+00 -0.00000000000E+00 -0.42422794413E+02  0.42422794489E+02  0.25500000000E-02 0. -1.
         24    2    1    2    0    0 -0.35527136788E-14  0.35527136788E-14 -0.63180410260E+01  0.78527548228E+02  0.78272972272E+02 0.  0.
         66    2    3    3    0    0 -0.21689417608E+02  0.22396907764E+02 -0.26851588789E+02  0.41195389687E+02  0.19999993412E+01 0.  0.
        -13    1    3    3    0    0  0.21689417608E+02 -0.22396907764E+02  0.20533547763E+02  0.37332158541E+02  0.10566000000E+00 0.  1.
         13    1    4    4    0    0 -0.20523037150E+02  0.21508313874E+02 -0.25674842234E+02  0.39281182611E+02  0.10566000000E+00 0. -1.
        -13    1    4    4    0    0 -0.12659137828E+00  0.15178592070E+00 -0.98214634579E-01  0.24469264971E+00  0.10566000000E+00 0. -1.
         14    1    4    4    0    0 -0.10397890790E+01  0.73680796936E+00 -0.10785319212E+01  0.16695144257E+01  0.00000000000E+00 0. -1.
<mgrwt>
<rscale>  0 0.78272972E+02</rscale>
<asrwt>0</asrwt>
<pdfrwt beam="1">  1        2 0.65265837E-02 0.78272972E+02</pdfrwt>
<pdfrwt beam="2">  1       -1 0.55545775E-02 0.78272972E+02</pdfrwt>
<totfact> 0.15323149E+05</totfact>
</mgrwt>
</event>
<event>
 8    1  0.2603554E-024  0.7803548E+02  0.7818608E-02  0.1334721E+00
         -1   -1    0    0    0  501 -0.00000000000E+00  0.00000000000E+00  0.74831273188E+01  0.74831290161E+01  0.50400000000E-02 0.  1.
          2   -1    0    0  501    0  0.00000000000E+00 -0.00000000000E+00 -0.20344217079E+03  0.20344217081E+03  0.25500000000E-02 0. -1.
         24    2    1    2    0    0  0.00000000000E+00  0.00000000000E+00 -0.19595904348E+03  0.21092529983E+03  0.78035475183E+02 0.  0.
         66    2    3    3    0    0  0.20139906897E+01  0.19868308688E+02 -0.18856491798E+03  0.18962999273E+03  0.19999998014E+01 0.  0.
        -13    1    3    3    0    0 -0.20139906897E+01 -0.19868308688E+02 -0.73941254932E+01  0.21295307100E+02  0.10566000000E+00 0.  1.
         13    1    4    4    0    0  0.82900008683E+00  0.10144492816E+02 -0.97467805830E+02  0.97997868920E+02  0.10566000000E+00 0. -1.
        -13    1    4    4    0    0 -0.51281483587E-01  0.11630220453E+01 -0.77959778538E+01  0.78831265879E+01  0.10566000000E+00 0.  1.
        -14    1    4    4    0    0  0.12362720865E+01  0.85607938265E+01 -0.83301134299E+02  0.83748997219E+02  0.00000000000E+00 0.  1.
<mgrwt>
<rscale>  0 0.78035475E+02</rscale>
<asrwt>0</asrwt>
<pdfrwt beam="1">  1        2 0.31298791E-01 0.78035475E+02</pdfrwt>
<pdfrwt beam="2">  1       -1 0.11512506E-02 0.78035475E+02</pdfrwt>
<totfact> 0.23692012E+05</totfact>
</mgrwt>
</event>
<event>
 8    1  0.2603554E-024  0.7866758E+02  0.7818608E-02  0.1332876E+00
          2   -1    0    0  501    0  0.00000000000E+00  0.00000000000E+00  0.22931978044E+02  0.22931978186E+02  0.25500000000E-02 0. -1.
         -1   -1    0    0    0  501 -0.00000000000E+00 -0.00000000000E+00 -0.67466800825E+02  0.67466801014E+02  0.50400000000E-02 0.  1.
         24    2    1    2    0    0  0.35527136788E-14  0.00000000000E+00 -0.44534822782E+02  0.90398779199E+02  0.78667584433E+02 0.  0.
         66    2    3    3    0    0  0.19553426165E+02  0.22586440040E+02  0.70751068015E+01  0.30765904507E+02  0.19999988578E+01 0.  0.
        -13    1    3    3    0    0 -0.19553426165E+02 -0.22586440040E+02 -0.51609929583E+02  0.59632874692E+02  0.10566000000E+00 0.  1.
         13    1    4    4    0    0  0.12268032414E+02  0.13089051640E+02  0.41493974205E+01  0.18413488402E+02  0.10566000000E+00 0. -1.
        -13    1    4    4    0    0  0.20583080836E+01  0.27204914451E+01  0.44724437796E+00  0.34422227469E+01  0.10566000000E+00 0.  1.
        -14    1    4    4    0    0  0.52270856671E+01  0.67768969545E+01  0.24784650030E+01  0.89101933579E+01  0.00000000000E+00 0.  1.
<mgrwt>
<rscale>  0 0.78667584E+02</rscale>
<asrwt>0</asrwt>
<pdfrwt beam="1">  1        2 0.35279967E-02 0.78667584E+02</pdfrwt>
<pdfrwt beam="2">  1       -1 0.10379508E-01 0.78667584E+02</pdfrwt>
<totfact> 0.13384369E+05</totfact>
</mgrwt>
</event>
<event>
 8    1  0.2603554E-024  0.8138829E+02  0.7818608E-02  0.1325157E+00
         -1   -1    0    0    0  501 -0.00000000000E+00  0.00000000000E+00  0.92207676159E+03  0.92207676160E+03  0.50400000000E-02 0.  1.
          2   -1    0    0  501    0  0.00000000000E+00 -0.00000000000E+00 -0.17959596554E+01  0.17959614657E+01  0.25500000000E-02 0. -1.
         24    2    1    2    0    0  0.35527136788E-14  0.00000000000E+00  0.92028080193E+03  0.92387272307E+03  0.81388291679E+02 0.  0.
         66    2    3    3    0    0  0.30810087946E+02 -0.13998489359E+02  0.71646419411E+03  0.71726575317E+03  0.19999998715E+01 0.  0.
        -13    1    3    3    0    0 -0.30810087946E+02  0.13998489359E+02  0.20381660782E+03  0.20660696990E+03  0.10566000000E+00 0.  1.
         13    1    4    4    0    0  0.14452712340E+02 -0.67016035483E+01  0.34486574875E+03  0.34523352706E+03  0.10566000000E+00 0. -1.
        -13    1    4    4    0    0  0.65569936346E+01 -0.22264919925E+01  0.14197436360E+03  0.14214317611E+03  0.10566000000E+00 0.  1.
        -14    1    4    4    0    0  0.98003819710E+01 -0.50703938181E+01  0.22962408176E+03  0.22988904999E+03  0.00000000000E+00 0.  1.
<mgrwt>
<rscale>  0 0.81388292E+02</rscale>
<asrwt>0</asrwt>
<pdfrwt beam="1">  1        2 0.27630163E-03 0.81388292E+02</pdfrwt>
<pdfrwt beam="2">  1       -1 0.14185796E+00 0.81388292E+02</pdfrwt>
<totfact> 0.38139084E+04</totfact>
</mgrwt>
</event>
<event>
 8    1  0.2603554E-024  0.7907212E+02  0.7818608E-02  0.1331705E+00
         -1   -1    0    0    0  501 -0.00000000000E+00  0.00000000000E+00  0.25359785980E+01  0.25359836063E+01  0.50400000000E-02 0.  1.
          2   -1    0    0  501    0  0.00000000000E+00 -0.00000000000E+00 -0.61636892207E+03  0.61636892208E+03  0.25500000000E-02 0. -1.
         24    2    1    2    0    0  0.35527136788E-14  0.00000000000E+00 -0.61383294347E+03  0.61890490568E+03  0.79072117622E+02 0.  0.
         66    2    3    3    0    0 -0.28813681593E+02 -0.37645972852E+01 -0.51665259815E+03  0.51747300182E+03  0.19999999751E+01 0.  0.
        -13    1    3    3    0    0  0.28813681593E+02  0.37645972852E+01 -0.97180345324E+02  0.10143190386E+03  0.10566000000E+00 0.  1.
         13    1    4    4    0    0 -0.14926578688E+02 -0.24056643482E+01 -0.26882131105E+03  0.26924616694E+03  0.10566000000E+00 0. -1.
        -13    1    4    4    0    0 -0.12113369952E+02 -0.10041677185E+01 -0.20857736453E+03  0.20893125722E+03  0.10566000000E+00 0.  1.
        -14    1    4    4    0    0 -0.17737329527E+01 -0.35476521854E+00 -0.39253922565E+02  0.39295577660E+02  0.00000000000E+00 0.  1.
<mgrwt>
<rscale>  0 0.79072118E+02</rscale>
<asrwt>0</asrwt>
<pdfrwt beam="1">  1        2 0.94825869E-01 0.79072118E+02</pdfrwt>
<pdfrwt beam="2">  1       -1 0.39015143E-03 0.79072118E+02</pdfrwt>
<totfact> 0.33399991E+05</totfact>
</mgrwt>
</event>
<event>
 8    1  0.2603554E-024  0.7986039E+02  0.7818608E-02  0.1329448E+00
          2   -1    0    0  501    0  0.00000000000E+00  0.00000000000E+00  0.32144302363E+03  0.32144302364E+03  0.25500000000E-02 0. -1.
         -1   -1    0    0    0  501 -0.00000000000E+00 -0.00000000000E+00 -0.49601954304E+01  0.49601979909E+01  0.50400000000E-02 0.  1.
         24    2    1    2    0    0  0.00000000000E+00 -0.35527136788E-14  0.31648282820E+03  0.32640322163E+03  0.79860394101E+02 0.  0.
         66    2    3    3    0    0 -0.29317847696E+02 -0.19308763148E+02  0.23589454236E+03  0.23850073300E+03  0.20000003794E+01 0.  0.
        -13    1    3    3    0    0  0.29317847696E+02  0.19308763148E+02  0.80588285843E+02  0.87902488628E+02  0.10566000000E+00 0.  1.
         13    1    4    4    0    0 -0.32875508980E+01 -0.24109265161E+01  0.28386801698E+02  0.28678253647E+02  0.10566000000E+00 0. -1.
        -13    1    4    4    0    0 -0.20987575078E+02 -0.13096213724E+02  0.16168757577E+03  0.16356916716E+03  0.10566000000E+00 0.  1.
        -14    1    4    4    0    0 -0.50427217207E+01 -0.38016229080E+01  0.45820164888E+02  0.46253312200E+02  0.00000000000E+00 0.  1.
<mgrwt>
<rscale>  0 0.79860394E+02</rscale>
<asrwt>0</asrwt>
<pdfrwt beam="1">  1        2 0.49452779E-01 0.79860394E+02</pdfrwt>
<pdfrwt beam="2">  1       -1 0.76310710E-03 0.79860394E+02</pdfrwt>
<totfact> 0.26258470E+05</totfact>
</mgrwt>
</event>
<event>
 8    1  0.2603554E-024  0.7879498E+02  0.7818608E-02  0.1332506E+00
         -1   -1    0    0    0  501 -0.00000000000E+00  0.00000000000E+00  0.13600574919E+02  0.13600575853E+02  0.50400000000E-02 0.  1.
          2   -1    0    0  501    0  0.00000000000E+00 -0.00000000000E+00 -0.11412475240E+03  0.11412475242E+03  0.25500000000E-02 0. -1.
         24    2    1    2    0    0  0.71054273576E-14  0.17763568394E-14 -0.10052417748E+03  0.12772532828E+03  0.78794982241E+02 0.  0.
         66    2    3    3    0    0 -0.29413132563E+02 -0.72035885029E+01 -0.91081782887E+02  0.96004766585E+02  0.19999946628E+01 0.  0.
        -13    1    3    3    0    0  0.29413132563E+02  0.72035885029E+01 -0.94423945902E+01  0.31720561693E+02  0.10566000000E+00 0.  1.
         13    1    4    4    0    0 -0.87696804357E+01 -0.16948863056E+01 -0.26687198307E+02  0.28142452844E+02  0.10566000000E+00 0. -1.
        -13    1    4    4    0    0 -0.36407540898E+01 -0.15489801323E+01 -0.11899825379E+02  0.12540790959E+02  0.10566000000E+00 0.  1.
        -14    1    4    4    0    0 -0.17002698038E+02 -0.39597220650E+01 -0.52494759201E+02  0.55321522782E+02  0.00000000000E+00 0.  1.
<mgrwt>
<rscale>  0 0.78794982E+02</rscale>
<asrwt>0</asrwt>
<pdfrwt beam="1">  1        2 0.17557654E-01 0.78794982E+02</pdfrwt>
<pdfrwt beam="2">  1       -1 0.20923963E-02 0.78794982E+02</pdfrwt>
<totfact> 0.19171243E+05</totfact>
</mgrwt>
</event>
<event>
 8    1  0.2603554E-024  0.7850189E+02  0.7818608E-02  0.1333357E+00
         -1   -1    0    0    0  501 -0.00000000000E+00  0.00000000000E+00  0.22112891619E+01  0.22112949055E+01  0.50400000000E-02 0.  1.
          2   -1    0    0  501    0  0.00000000000E+00 -0.00000000000E+00 -0.69671340715E+03  0.69671340715E+03  0.25500000000E-02 0. -1.
         24    2    1    2    0    0  0.00000000000E+00  0.88817841970E-15 -0.69450211798E+03  0.69892470206E+03  0.78501893353E+02 0.  0.
         66    2    3    3    0    0 -0.24534742180E+02  0.78359167742E+01 -0.61088017598E+03  0.61142615627E+03  0.20000011536E+01 0.  0.
        -13    1    3    3    0    0  0.24534742180E+02 -0.78359167742E+01 -0.83621942007E+02  0.87498545785E+02  0.10566000000E+00 0.  1.
         13    1    4    4    0    0 -0.13531914284E+02  0.45061813609E+01 -0.32703150366E+03  0.32734238028E+03  0.10566000000E+00 0. -1.
        -13    1    4    4    0    0 -0.10263619127E+02  0.28277569328E+01 -0.25766185128E+03  0.25788171485E+03  0.10566000000E+00 0.  1.
         14    1    4    4    0    0 -0.73920876830E+00  0.50197848056E+00 -0.26186821034E+02  0.26202061137E+02  0.00000000000E+00 0. -1.
<mgrwt>
<rscale>  0 0.78501893E+02</rscale>
<asrwt>0</asrwt>
<pdfrwt beam="1">  1        2 0.10718650E+00 0.78501893E+02</pdfrwt>
<pdfrwt beam="2">  1       -1 0.34019933E-03 0.78501893E+02</pdfrwt>
<totfact> 0.35097051E+05</totfact>
</mgrwt>
</event>
<event>
 8    1  0.2603554E-024  0.7949867E+02  0.7818608E-02  0.1330480E+00
         -1   -1    0    0    0  501 -0.00000000000E+00  0.00000000000E+00  0.85557874201E+01  0.85557889045E+01  0.50400000000E-02 0.  1.
          2   -1    0    0  501    0  0.00000000000E+00 -0.00000000000E+00 -0.18467144846E+03  0.18467144848E+03  0.25500000000E-02 0. -1.
         24    2    1    2    0    0  0.00000000000E+00  0.88817841970E-15 -0.17611566104E+03  0.19322723738E+03  0.79498674221E+02 0.  0.
         66    2    3    3    0    0  0.23121323670E+02 -0.63986469422E+01 -0.16506957073E+03  0.16681577082E+03  0.19999802708E+01 0.  0.
        -13    1    3    3    0    0 -0.23121323670E+02  0.63986469422E+01 -0.11046090309E+02  0.26411466565E+02  0.10566000000E+00 0.  1.
         13    1    4    4    0    0  0.11540139456E+01 -0.66522369646E+00 -0.10112381287E+02  0.10200278922E+02  0.10566000000E+00 0.  1.
        -13    1    4    4    0    0  0.41363763039E+01 -0.10569248119E+01 -0.26324799148E+02  0.26668950358E+02  0.10566000000E+00 0.  1.
         14    1    4    4    0    0  0.17830933421E+02 -0.46764984339E+01 -0.12863239030E+03  0.12994654154E+03  0.00000000000E+00 0. -1.
<mgrwt>
<rscale>  0 0.79498674E+02</rscale>
<asrwt>0</asrwt>
<pdfrwt beam="1">  1        2 0.28410989E-01 0.79498674E+02</pdfrwt>
<pdfrwt beam="2">  1       -1 0.13162752E-02 0.79498674E+02</pdfrwt>
<totfact> 0.21820222E+05</totfact>
</mgrwt>
</event>
<event>
 8    1  0.2603554E-024  0.7862375E+02  0.7818608E-02  0.1333003E+00
         -1   -1    0    0    0  501 -0.00000000000E+00  0.00000000000E+00  0.34572428033E+01  0.34572464770E+01  0.50400000000E-02 0.  1.
          2   -1    0    0  501    0  0.00000000000E+00 -0.00000000000E+00 -0.44701021939E+03  0.44701021940E+03  0.25500000000E-02 0. -1.
         24    2    1    2    0    0  0.35527136788E-14  0.00000000000E+00 -0.44355297659E+03  0.45046746587E+03  0.78623754503E+02 0.  0.
         66    2    3    3    0    0  0.21302315831E+02  0.16782661418E+02 -0.38477714643E+03  0.38573682585E+03  0.20000033605E+01 0.  0.
        -13    1    3    3    0    0 -0.21302315831E+02 -0.16782661418E+02 -0.58775830154E+02  0.64730640027E+02  0.10566000000E+00 0.  1.
         13    1    4    4    0    0  0.46360508936E+01  0.34041369964E+01 -0.74000205200E+02  0.74223464284E+02  0.10566000000E+00 0. -1.
        -13    1    4    4    0    0  0.30339014583E+01  0.19299039928E+01 -0.55481946056E+02  0.55598440533E+02  0.10566000000E+00 0.  1.
         14    1    4    4    0    0  0.13632363479E+02  0.11448620429E+02 -0.25529499517E+03  0.25591492103E+03  0.00000000000E+00 0. -1.
<mgrwt>
<rscale>  0 0.78623755E+02</rscale>
<asrwt>0</asrwt>
<pdfrwt beam="1">  1        2 0.68770757E-01 0.78623755E+02</pdfrwt>
<pdfrwt beam="2">  1       -1 0.53188415E-03 0.78623755E+02</pdfrwt>
<totfact> 0.30710946E+05</totfact>
</mgrwt>
</event>
<event>
 8    1  0.2603554E-024  0.8218835E+02  0.7818608E-02  0.1322953E+00
          2   -1    0    0  501    0  0.00000000000E+00  0.00000000000E+00  0.84309876731E+03  0.84309876731E+03  0.25500000000E-02 0. -1.
         -1   -1    0    0    0  501 -0.00000000000E+00 -0.00000000000E+00 -0.20030019308E+01  0.20030082717E+01  0.50400000000E-02 0.  1.
         24    2    1    2    0    0  0.00000000000E+00  0.00000000000E+00  0.84109576538E+03  0.84510177559E+03  0.82188348073E+02 0.  0.
         66    2    3    3    0    0  0.97646902006E+01 -0.33496163657E+02  0.64356939604E+03  0.64451757904E+03  0.20000052822E+01 0.  0.
        -13    1    3    3    0    0 -0.97646902006E+01  0.33496163657E+02  0.19752636934E+03  0.20058419655E+03  0.10566000000E+00 0.  1.
         13    1    4    4    0    0  0.38060318239E+01 -0.11902932930E+02  0.22236918641E+03  0.22272007525E+03  0.10566000000E+00 0. -1.
        -13    1    4    4    0    0  0.26719806557E+01 -0.95637303260E+01  0.19903282131E+03  0.19928040431E+03  0.10566000000E+00 0.  1.
         14    1    4    4    0    0  0.32866777209E+01 -0.12029500401E+02  0.22216738832E+03  0.22251709948E+03  0.00000000000E+00 0. -1.
<mgrwt>
<rscale>  0 0.82188348E+02</rscale>
<asrwt>0</asrwt>
<pdfrwt beam="1">  1        2 0.12970708E+00 0.82188348E+02</pdfrwt>
<pdfrwt beam="2">  1       -1 0.30815563E-03 0.82188348E+02</pdfrwt>
<totfact> 0.32305744E+05</totfact>
</mgrwt>
</event>
<event>
 8    1  0.2603554E-024  0.8053677E+02  0.7818608E-02  0.1327535E+00
         -1   -1    0    0    0  501 -0.00000000000E+00  0.00000000000E+00  0.21084542278E+02  0.21084542881E+02  0.50400000000E-02 0.  1.
          2   -1    0    0  501    0  0.00000000000E+00 -0.00000000000E+00 -0.76906718026E+02  0.76906718068E+02  0.25500000000E-02 0. -1.
         24    2    1    2    0    0  0.00000000000E+00 -0.35527136788E-14 -0.55822175747E+02  0.97991260949E+02  0.80536773695E+02 0.  0.
         66    2    3    3    0    0  0.73925692623E+01 -0.28705452839E+02 -0.61046587295E+02  0.67892112406E+02  0.20000008805E+01 0.  0.
        -13    1    3    3    0    0 -0.73925692623E+01  0.28705452839E+02  0.52244115480E+01  0.30099148543E+02  0.10566000000E+00 0.  1.
         13    1    4    4    0    0  0.26033678835E+01 -0.69711230123E+01 -0.15090942431E+02  0.16826223221E+02  0.10566000000E+00 0. -1.
        -13    1    4    4    0    0  0.37330650139E+01 -0.17533900514E+02 -0.36451552104E+02  0.40621426076E+02  0.10566000000E+00 0.  1.
        -14    1    4    4    0    0  0.10561363650E+01 -0.42004293129E+01 -0.95040927603E+01  0.10444463109E+02  0.00000000000E+00 0.  1.
<mgrwt>
<rscale>  0 0.80536774E+02</rscale>
<asrwt>0</asrwt>
<pdfrwt beam="1">  1        2 0.11831803E-01 0.80536774E+02</pdfrwt>
<pdfrwt beam="2">  1       -1 0.32437758E-02 0.80536774E+02</pdfrwt>
<totfact> 0.16232864E+05</totfact>
</mgrwt>
</event>
<event>
 8    1  0.2603554E-024  0.8111967E+02  0.7818608E-02  0.1325904E+00
          2   -1    0    0  501    0  0.00000000000E+00  0.00000000000E+00  0.11571326513E+04  0.11571326513E+04  0.25500000000E-02 0. -1.
         -1   -1    0    0    0  501 -0.00000000000E+00 -0.00000000000E+00 -0.14216995800E+01  0.14217085135E+01  0.50400000000E-02 0.  1.
         24    2    1    2    0    0  0.00000000000E+00  0.00000000000E+00  0.11557109517E+04  0.11585543598E+04  0.81119669156E+02 0.  0.
         66    2    3    3    0    0 -0.15299842326E+02  0.18539994741E+02  0.10443516352E+04  0.10446301520E+04  0.20000003967E+01 0.  0.
        -13    1    3    3    0    0  0.15299842326E+02 -0.18539994741E+02  0.11135931650E+03  0.11392420776E+03  0.10566000000E+00 0.  1.
         13    1    4    4    0    0 -0.54939485806E-01  0.45698578859E-01  0.44333594989E+01  0.44351941546E+01  0.10566000000E+00 0. -1.
        -13    1    4    4    0    0 -0.11868771542E+02  0.13727556439E+02  0.78139687415E+03  0.78160757394E+03  0.10566000000E+00 0. -1.
         14    1    4    4    0    0 -0.33761312983E+01  0.47667397230E+01  0.25852140157E+03  0.25858738395E+03  0.00000000000E+00 0. -1.
<mgrwt>
<rscale>  0 0.81119669E+02</rscale>
<asrwt>0</asrwt>
<pdfrwt beam="1">  1        2 0.17802092E+00 0.81119669E+02</pdfrwt>
<pdfrwt beam="2">  1       -1 0.21872307E-03 0.81119669E+02</pdfrwt>
<totfact> 0.33909821E+05</totfact>
</mgrwt>
</event>
<event>
 8    1  0.2603554E-024  0.7957647E+02  0.7818608E-02  0.1330258E+00
          2   -1    0    0  501    0  0.00000000000E+00  0.00000000000E+00  0.66125493363E+03  0.66125493364E+03  0.25500000000E-02 0. -1.
         -1   -1    0    0    0  501 -0.00000000000E+00 -0.00000000000E+00 -0.23940871910E+01  0.23940924961E+01  0.50400000000E-02 0.  1.
         24    2    1    2    0    0  0.00000000000E+00  0.00000000000E+00  0.65886084644E+03  0.66364902613E+03  0.79576472116E+02 0.  0.
         66    2    3    3    0    0 -0.90095616531E+01 -0.22436731271E+02  0.59290511070E+03  0.59340125498E+03  0.20000005157E+01 0.  0.
        -13    1    3    3    0    0  0.90095616531E+01  0.22436731271E+02  0.65955735742E+02  0.70247771158E+02  0.10566000000E+00 0.  1.
         13    1    4    4    0    0 -0.17716560846E+01 -0.36160061967E+01  0.10527815260E+03  0.10535518424E+03  0.10566000000E+00 0. -1.
        -13    1    4    4    0    0 -0.70861601660E+01 -0.17511203147E+02  0.45131433797E+03  0.45170952914E+03  0.10566000000E+00 0.  1.
        -14    1    4    4    0    0 -0.15174540245E+00 -0.13095219279E+01  0.36312620131E+02  0.36336541595E+02  0.00000000000E+00 0.  1.
<mgrwt>
<rscale>  0 0.79576472E+02</rscale>
<asrwt>0</asrwt>
<pdfrwt beam="1">  1        2 0.10173140E+00 0.79576472E+02</pdfrwt>
<pdfrwt beam="2">  1       -1 0.36832200E-03 0.79576472E+02</pdfrwt>
<totfact> 0.33458095E+05</totfact>
</mgrwt>
</event>
<event>
 8    1  0.2603554E-024  0.7774498E+02  0.7818608E-02  0.1335575E+00
          2   -1    0    0  501    0  0.00000000000E+00  0.00000000000E+00  0.88879317710E+02  0.88879317747E+02  0.25500000000E-02 0. -1.
         -1   -1    0    0    0  501 -0.00000000000E+00 -0.00000000000E+00 -0.17001373755E+02  0.17001374502E+02  0.50400000000E-02 0.  1.
         24    2    1    2    0    0  0.00000000000E+00  0.00000000000E+00  0.71877943955E+02  0.10588069225E+03  0.77744981599E+02 0.  0.
         66    2    3    3    0    0  0.78298281498E+01  0.37998000804E+02  0.38656131228E+02  0.54803747559E+02  0.19999977491E+01 0.  0.
        -13    1    3    3    0    0 -0.78298281498E+01 -0.37998000804E+02  0.33221812727E+02  0.51076944690E+02  0.10566000000E+00 0.  1.
         13    1    4    4    0    0  0.34547621146E+01  0.17434131376E+02  0.17394437715E+02  0.24868895142E+02  0.10566000000E+00 0. -1.
        -13    1    4    4    0    0  0.21728723144E+01  0.69893564309E+01  0.73448387436E+01  0.10369681655E+02  0.10566000000E+00 0.  1.
         14    1    4    4    0    0  0.22021937208E+01  0.13574512997E+02  0.13916854769E+02  0.19565170762E+02  0.00000000000E+00 0. -1.
<mgrwt>
<rscale>  0 0.77744982E+02</rscale>
<asrwt>0</asrwt>
<pdfrwt beam="1">  1        2 0.13673741E-01 0.77744982E+02</pdfrwt>
<pdfrwt beam="2">  1       -1 0.26155961E-02 0.77744982E+02</pdfrwt>
<totfact> 0.18531185E+05</totfact>
</mgrwt>
</event>
<event>
 8    1  0.2603554E-024  0.8003120E+02  0.7818608E-02  0.1328963E+00
         -1   -1    0    0    0  501 -0.00000000000E+00  0.00000000000E+00  0.20401892312E+02  0.20401892934E+02  0.50400000000E-02 0.  1.
          2   -1    0    0  501    0  0.00000000000E+00 -0.00000000000E+00 -0.78485285486E+02  0.78485285528E+02  0.25500000000E-02 0. -1.
         24    2    1    2    0    0  0.00000000000E+00  0.00000000000E+00 -0.58083393175E+02  0.98887178462E+02  0.80031203299E+02 0.  0.
         66    2    3    3    0    0 -0.22380048092E+02  0.11661545810E+02 -0.67391220416E+02  0.71989129922E+02  0.20000086089E+01 0.  0.
        -13    1    3    3    0    0  0.22380048092E+02 -0.11661545810E+02  0.93078272413E+01  0.26898048540E+02  0.10566000000E+00 0.  1.
         13    1    4    4    0    0 -0.12171834981E+02  0.58263424224E+01 -0.34228425778E+02  0.36792609694E+02  0.10566000000E+00 0. -1.
        -13    1    4    4    0    0 -0.31226154811E+01  0.13623243904E+01 -0.99572605955E+01  0.10524488481E+02  0.10566000000E+00 0.  1.
         14    1    4    4    0    0 -0.70855976302E+01  0.44728789969E+01 -0.23205534043E+02  0.24672031747E+02  0.00000000000E+00 0. -1.
<mgrwt>
<rscale>  0 0.80031203E+02</rscale>
<asrwt>0</asrwt>
<pdfrwt beam="1">  1        2 0.12074659E-01 0.80031203E+02</pdfrwt>
<pdfrwt beam="2">  1       -1 0.31387528E-02 0.80031203E+02</pdfrwt>
<totfact> 0.16596701E+05</totfact>
</mgrwt>
</event>
<event>
 8    1  0.2603554E-024  0.7944744E+02  0.7818608E-02  0.1330627E+00
         -1   -1    0    0    0  501 -0.00000000000E+00  0.00000000000E+00  0.13852447660E+02  0.13852448577E+02  0.50400000000E-02 0.  1.
          2   -1    0    0  501    0  0.00000000000E+00 -0.00000000000E+00 -0.11391300523E+03  0.11391300526E+03  0.25500000000E-02 0. -1.
         24    2    1    2    0    0  0.00000000000E+00  0.00000000000E+00 -0.10006055757E+03  0.12776545384E+03  0.79447441827E+02 0.  0.
         66    2    3    3    0    0  0.38670677400E+02  0.64708337473E+01 -0.40060635890E+02  0.56090529730E+02  0.19999993936E+01 0.  0.
        -13    1    3    3    0    0 -0.38670677400E+02 -0.64708337473E+01 -0.59999921683E+02  0.71674924109E+02  0.10566000000E+00 0.  1.
         13    1    4    4    0    0  0.16465160530E+02  0.24443193629E+01 -0.18279741631E+02  0.24723194101E+02  0.10566000000E+00 0. -1.
        -13    1    4    4    0    0  0.64402815432E+01  0.11935872913E+01 -0.60689765262E+01  0.89300345514E+01  0.10566000000E+00 0.  1.
         14    1    4    4    0    0  0.15765235327E+02  0.28329270931E+01 -0.15711917733E+02  0.22437301078E+02  0.00000000000E+00 0. -1.
<mgrwt>
<rscale>  0 0.79447442E+02</rscale>
<asrwt>0</asrwt>
<pdfrwt beam="1">  1        2 0.17525077E-01 0.79447442E+02</pdfrwt>
<pdfrwt beam="2">  1       -1 0.21311459E-02 0.79447442E+02</pdfrwt>
<totfact> 0.18744051E+05</totfact>
</mgrwt>
</event>
<event>
 8    1  0.2603554E-024  0.8081622E+02  0.7818608E-02  0.1326751E+00
          2   -1    0    0  501    0  0.00000000000E+00  0.00000000000E+00  0.11112090570E+04  0.11112090570E+04  0.25500000000E-02 0. -1.
         -1   -1    0    0    0  501 -0.00000000000E+00 -0.00000000000E+00 -0.14694000354E+01  0.14694086789E+01  0.50400000000E-02 0.  1.
         24    2    1    2    0    0  0.00000000000E+00 -0.17763568394E-14  0.11097396570E+04  0.11126784657E+04  0.80816222085E+02 0.  0.
         66    2    3    3    0    0 -0.23200598868E+02 -0.15441363301E+02  0.95758026064E+03  0.95798781780E+03  0.19999989508E+01 0.  0.
        -13    1    3    3    0    0  0.23200598868E+02  0.15441363301E+02  0.15215939632E+03  0.15469064788E+03  0.10566000000E+00 0.  1.
         13    1    4    4    0    0 -0.91591106811E+01 -0.59455700160E+01  0.37169127161E+03  0.37185165276E+03  0.10566000000E+00 0. -1.
        -13    1    4    4    0    0 -0.30908592176E+01 -0.22358535541E+01  0.11160016482E+03  0.11166539483E+03  0.10566000000E+00 0.  1.
        -14    1    4    4    0    0 -0.10950628969E+02 -0.72599397314E+01  0.47428882421E+03  0.47447077020E+03  0.00000000000E+00 0.  1.
<mgrwt>
<rscale>  0 0.80816222E+02</rscale>
<asrwt>0</asrwt>
<pdfrwt beam="1">  1        2 0.17095444E+00 0.80816222E+02</pdfrwt>
<pdfrwt beam="2">  1       -1 0.22606326E-03 0.80816222E+02</pdfrwt>
<totfact> 0.34322045E+05</totfact>
</mgrwt>
</event>
<event>
 8    1  0.2603554E-024  0.7914782E+02  0.7818608E-02  0.1331487E+00
         -1   -1    0    0    0  501 -0.00000000000E+00  0.00000000000E+00  0.74455328012E+02  0.74455328183E+02  0.50400000000E-02 0.  1.
          2   -1    0    0  501    0  0.00000000000E+00 -0.00000000000E+00 -0.21034013530E+02  0.21034013685E+02  0.25500000000E-02 0. -1.
         24    2    1    2    0    0  0.00000000000E+00  0.00000000000E+00  0.53421314482E+02  0.95489341868E+02  0.79147821002E+02 0.  0.
         66    2    3    3    0    0 -0.63533190457E+01  0.39017014791E+02  0.25301509605E+02  0.46977212493E+02  0.19999998063E+01 0.  0.
        -13    1    3    3    0    0  0.63533190457E+01 -0.39017014791E+02  0.28119804877E+02  0.48512129374E+02  0.10566000000E+00 0.  1.
         13    1    4    4    0    0 -0.12090002276E+00  0.33720604843E+01  0.24194457183E+01  0.41533468847E+01  0.10566000000E+00 0. -1.
        -13    1    4    4    0    0 -0.25368320487E+01  0.12518020537E+02  0.77453954611E+01  0.14937826813E+02  0.10566000000E+00 0.  1.
        -14    1    4    4    0    0 -0.36955869743E+01  0.23126933770E+02  0.15136668426E+02  0.27886038795E+02  0.00000000000E+00 0.  1.
<mgrwt>
<rscale>  0 0.79147821E+02</rscale>
<asrwt>0</asrwt>
<pdfrwt beam="1">  1        2 0.32360020E-02 0.79147821E+02</pdfrwt>
<pdfrwt beam="2">  1       -1 0.11454666E-01 0.79147821E+02</pdfrwt>
<totfact> 0.12932471E+05</totfact>
</mgrwt>
</event>
<event>
 8    1  0.2603554E-024  0.7776580E+02  0.7818608E-02  0.1335514E+00
          2   -1    0    0  501    0  0.00000000000E+00  0.00000000000E+00  0.60411262960E+03  0.60411262961E+03  0.25500000000E-02 0. -1.
         -1   -1    0    0    0  501 -0.00000000000E+00 -0.00000000000E+00 -0.25026429410E+01  0.25026480159E+01  0.50400000000E-02 0.  1.
         24    2    1    2    0    0  0.44408920985E-15 -0.71054273576E-14  0.60160998666E+03  0.60661527762E+03  0.77765795796E+02 0.  0.
         66    2    3    3    0    0  0.39380953878E+01 -0.34090962204E+02  0.44317294515E+03  0.44450417502E+03  0.20000003399E+01 0.  0.
        -13    1    3    3    0    0 -0.39380953878E+01  0.34090962204E+02  0.15843704151E+03  0.16211110260E+03  0.10566000000E+00 0.  1.
         13    1    4    4    0    0  0.28518393308E+01 -0.23262893738E+02  0.29893060769E+03  0.29984798580E+03  0.10566000000E+00 0. -1.
        -13    1    4    4    0    0  0.71434524932E-01 -0.79134648836E+00  0.14580877456E+02  0.14602892986E+02  0.10566000000E+00 0.  1.
        -14    1    4    4    0    0  0.10148215321E+01 -0.10036721977E+02  0.12966146000E+03  0.13005329623E+03  0.00000000000E+00 0.  1.
<mgrwt>
<rscale>  0 0.77765796E+02</rscale>
<asrwt>0</asrwt>
<pdfrwt beam="1">  1        2 0.92940467E-01 0.77765796E+02</pdfrwt>
<pdfrwt beam="2">  1       -1 0.38502212E-03 0.77765796E+02</pdfrwt>
<totfact> 0.34685664E+05</totfact>
</mgrwt>
</event>
<event>
 8    1  0.2603554E-024  0.7931926E+02  0.7818608E-02  0.1330994E+00
         -1   -1    0    0    0  501 -0.00000000000E+00  0.00000000000E+00  0.26105549659E+01  0.26105598311E+01  0.50400000000E-02 0.  1.
          2   -1    0    0  501    0  0.00000000000E+00 -0.00000000000E+00 -0.60250967575E+03  0.60250967575E+03  0.25500000000E-02 0. -1.
         24    2    1    2    0    0  0.22204460493E-15  0.00000000000E+00 -0.59989912078E+03  0.60512023559E+03  0.79319256166E+02 0.  0.
         66    2    3    3    0    0 -0.10700109819E+01  0.10442997460E+02 -0.59170821936E+03  0.59180471271E+03  0.19999999382E+01 0.  0.
        -13    1    3    3    0    0  0.10700109819E+01 -0.10442997460E+02 -0.81909014204E+01  0.13315522880E+02  0.10566000000E+00 0.  1.
         13    1    4    4    0    0 -0.83598927534E+00  0.85314828901E+01 -0.45757760726E+03  0.45765791036E+03  0.10566000000E+00 0. -1.
        -13    1    4    4    0    0 -0.43337939988E+00  0.16099553245E+01 -0.11972559654E+03  0.11973725153E+03  0.10566000000E+00 0.  1.
         14    1    4    4    0    0  0.19935769334E+00  0.30155924540E+00 -0.14405015557E+02  0.14409550815E+02  0.00000000000E+00 0. -1.
<mgrwt>
<rscale>  0 0.79319256E+02</rscale>
<asrwt>0</asrwt>
<pdfrwt beam="1">  1        2 0.92693686E-01 0.79319256E+02</pdfrwt>
<pdfrwt beam="2">  1       -1 0.40162470E-03 0.79319256E+02</pdfrwt>
<totfact> 0.32924570E+05</totfact>
</mgrwt>
</event>
<event>
 8    1  0.2603554E-024  0.8016252E+02  0.7818608E-02  0.1328591E+00
          2   -1    0    0  501    0  0.00000000000E+00  0.00000000000E+00  0.84074039476E+03  0.84074039476E+03  0.25500000000E-02 0. -1.
         -1   -1    0    0    0  501 -0.00000000000E+00 -0.00000000000E+00 -0.19108212801E+01  0.19108279268E+01  0.50400000000E-02 0.  1.
         24    2    1    2    0    0 -0.35527136788E-14  0.00000000000E+00  0.83882957348E+03  0.84265122269E+03  0.80162520904E+02 0.  0.
         66    2    3    3    0    0  0.30551426965E+02  0.10409730562E+02  0.66903947427E+03  0.66982055083E+03  0.20000027555E+01 0.  0.
        -13    1    3    3    0    0 -0.30551426965E+02 -0.10409730562E+02  0.16979009921E+03  0.17283067186E+03  0.10566000000E+00 0.  1.
         13    1    4    4    0    0  0.12365363467E+02  0.44239846866E+01  0.25753404067E+03  0.25786870132E+03  0.10566000000E+00 0.  1.
        -13    1    4    4    0    0  0.32577035921E+01  0.91534980131E+00  0.65585525306E+02  0.65672846685E+02  0.10566000000E+00 0. -1.
         14    1    4    4    0    0  0.14928359906E+02  0.50703960743E+01  0.34591990829E+03  0.34627900283E+03  0.00000000000E+00 0. -1.
<mgrwt>
<rscale>  0 0.80162521E+02</rscale>
<asrwt>0</asrwt>
<pdfrwt beam="1">  1        2 0.12934462E+00 0.80162521E+02</pdfrwt>
<pdfrwt beam="2">  1       -1 0.29397315E-03 0.80162521E+02</pdfrwt>
<totfact> 0.34458173E+05</totfact>
</mgrwt>
</event>
<event>
 8    1  0.2603554E-024  0.7945870E+02  0.7818608E-02  0.1330595E+00
          2   -1    0    0  501    0  0.00000000000E+00  0.00000000000E+00  0.14199332386E+03  0.14199332388E+03  0.25500000000E-02 0. -1.
         -1   -1    0    0    0  501 -0.00000000000E+00 -0.00000000000E+00 -0.11116164236E+02  0.11116165378E+02  0.50400000000E-02 0.  1.
         24    2    1    2    0    0  0.17763568394E-14 -0.17763568394E-14  0.13087715962E+03  0.15310948926E+03  0.79458698646E+02 0.  0.
         66    2    3    3    0    0 -0.94741746936E+01  0.13901011777E+02  0.13477942730E+03  0.13583995043E+03  0.19999982855E+01 0.  0.
        -13    1    3    3    0    0  0.94741746936E+01 -0.13901011777E+02 -0.39022676773E+01  0.17269538836E+02  0.10566000000E+00 0.  1.
         13    1    4    4    0    0 -0.60329939953E+01  0.72481625236E+01  0.76345757141E+02  0.76926059785E+02  0.10566000000E+00 0. -1.
        -13    1    4    4    0    0 -0.20583588986E+01  0.41036945103E+01  0.37577414116E+02  0.37856972484E+02  0.10566000000E+00 0.  1.
        -14    1    4    4    0    0 -0.13828217996E+01  0.25491547434E+01  0.20856256045E+02  0.21056918157E+02  0.00000000000E+00 0.  1.
<mgrwt>
<rscale>  0 0.79458699E+02</rscale>
<asrwt>0</asrwt>
<pdfrwt beam="1">  1        2 0.21845126E-01 0.79458699E+02</pdfrwt>
<pdfrwt beam="2">  1       -1 0.17101793E-02 0.79458699E+02</pdfrwt>
<totfact> 0.20039996E+05</totfact>
</mgrwt>
</event>
<event>
 8    1  0.2603554E-024  0.8211661E+02  0.7818608E-02  0.1323150E+00
          2   -1    0    0  501    0  0.00000000000E+00  0.00000000000E+00  0.99313977593E+02  0.99313977625E+02  0.25500000000E-02 0. -1.
         -1   -1    0    0    0  501 -0.00000000000E+00 -0.00000000000E+00 -0.16974289252E+02  0.16974290001E+02  0.50400000000E-02 0.  1.
         24    2    1    2    0    0  0.00000000000E+00  0.00000000000E+00  0.82339688340E+02  0.11628826763E+03  0.82116605577E+02 0.  0.
         66    2    3    3    0    0  0.22030880441E+02 -0.10693317677E+02  0.87820832971E+02  0.91193231335E+02  0.20000003946E+01 0.  0.
        -13    1    3    3    0    0 -0.22030880441E+02  0.10693317677E+02 -0.54811446310E+01  0.25095036291E+02  0.10566000000E+00 0.  1.
         13    1    4    4    0    0  0.56802222298E+01 -0.28595016536E+01  0.20824519394E+02  0.21774146282E+02  0.10566000000E+00 0. -1.
        -13    1    4    4    0    0  0.38364151198E+01 -0.19600880167E+01  0.18117470944E+02  0.18622941321E+02  0.10566000000E+00 0.  1.
        -14    1    4    4    0    0  0.12514243092E+02 -0.58737280064E+01  0.48878842634E+02  0.50796143732E+02  0.00000000000E+00 0.  1.
<mgrwt>
<rscale>  0 0.82116606E+02</rscale>
<asrwt>0</asrwt>
<pdfrwt beam="1">  1        2 0.15279073E-01 0.82116606E+02</pdfrwt>
<pdfrwt beam="2">  1       -1 0.26114292E-02 0.82116606E+02</pdfrwt>
<totfact> 0.16494450E+05</totfact>
</mgrwt>
</event>
<event>
 8    1  0.2603554E-024  0.8001865E+02  0.7818608E-02  0.1328999E+00
         -1   -1    0    0    0  501 -0.00000000000E+00  0.00000000000E+00  0.67641283651E+01  0.67641302427E+01  0.50400000000E-02 0.  1.
          2   -1    0    0  501    0  0.00000000000E+00 -0.00000000000E+00 -0.23665217537E+03  0.23665217538E+03  0.25500000000E-02 0. -1.
         24    2    1    2    0    0 -0.17763568394E-14  0.00000000000E+00 -0.22988804700E+03  0.24341630562E+03  0.80018645883E+02 0.  0.
         66    2    3    3    0    0  0.14104257684E+02  0.86302603969E+01 -0.22575967875E+03  0.22637324053E+03  0.20000000072E+01 0.  0.
        -13    1    3    3    0    0 -0.14104257684E+02 -0.86302603969E+01 -0.41283682547E+01  0.17043065095E+02  0.10566000000E+00 0.  1.
         13    1    4    4    0    0  0.36020349182E+01  0.13933211740E+01 -0.54047663548E+02  0.54185580171E+02  0.10566000000E+00 0. -1.
        -13    1    4    4    0    0  0.29336416310E+01  0.22547602676E+01 -0.44888098681E+02  0.45040456973E+02  0.10566000000E+00 0.  1.
        -14    1    4    4    0    0  0.75685811351E+01  0.49821789553E+01 -0.12682391652E+03  0.12714720339E+03  0.00000000000E+00 0.  1.
<mgrwt>
<rscale>  0 0.80018646E+02</rscale>
<asrwt>0</asrwt>
<pdfrwt beam="1">  1        2 0.36408021E-01 0.80018646E+02</pdfrwt>
<pdfrwt beam="2">  1       -1 0.10406355E-02 0.80018646E+02</pdfrwt>
<totfact> 0.23390702E+05</totfact>
</mgrwt>
</event>
<event>
 8    1  0.2603554E-024  0.8012644E+02  0.7818608E-02  0.1328693E+00
         -1   -1    0    0    0  501 -0.00000000000E+00  0.00000000000E+00  0.50285168310E+01  0.50285193567E+01  0.50400000000E-02 0.  1.
          2   -1    0    0  501    0  0.00000000000E+00 -0.00000000000E+00 -0.31919179942E+03  0.31919179943E+03  0.25500000000E-02 0. -1.
         24    2    1    2    0    0  0.00000000000E+00 -0.17763568394E-14 -0.31416328259E+03  0.32422031879E+03  0.80126443745E+02 0.  0.
         66    2    3    3    0    0 -0.94116563892E+01  0.11149364027E+02 -0.30804760174E+03  0.30839943669E+03  0.20000038223E+01 0.  0.
        -13    1    3    3    0    0  0.94116563892E+01 -0.11149364027E+02 -0.61156808476E+01  0.15820882101E+02  0.10566000000E+00 0.  1.
         13    1    4    4    0    0 -0.54201404532E+01  0.63624526540E+01 -0.19384235225E+03  0.19402249203E+03  0.10566000000E+00 0.  1.
        -13    1    4    4    0    0 -0.26548330765E+01  0.31532076203E+01 -0.70020215753E+02  0.70141518626E+02  0.10566000000E+00 0. -1.
         14    1    4    4    0    0 -0.13366828596E+01  0.16337037527E+01 -0.44185033744E+02  0.44235426029E+02  0.00000000000E+00 0. -1.
<mgrwt>
<rscale>  0 0.80126444E+02</rscale>
<asrwt>0</asrwt>
<pdfrwt beam="1">  1        2 0.49106415E-01 0.80126444E+02</pdfrwt>
<pdfrwt beam="2">  1       -1 0.77361842E-03 0.80126444E+02</pdfrwt>
<totfact> 0.25964792E+05</totfact>
</mgrwt>
</event>
<event>
 8    1  0.2603554E-024  0.7787877E+02  0.7818608E-02  0.1335181E+00
          2   -1    0    0  501    0  0.00000000000E+00  0.00000000000E+00  0.66169600312E+03  0.66169600312E+03  0.25500000000E-02 0. -1.
         -1   -1    0    0    0  501 -0.00000000000E+00 -0.00000000000E+00 -0.22914960341E+01  0.22915015767E+01  0.50400000000E-02 0.  1.
         24    2    1    2    0    0  0.00000000000E+00 -0.55511151231E-16  0.65940450708E+03  0.66398750470E+03  0.77878767547E+02 0.  0.
         66    2    3    3    0    0 -0.35555386935E+02  0.37496960870E+00  0.46471063707E+03  0.46607328003E+03  0.20000019232E+01 0.  0.
        -13    1    3    3    0    0  0.35555386935E+02 -0.37496960870E+00  0.19469387001E+03  0.19791422467E+03  0.10566000000E+00 0.  1.
         13    1    4    4    0    0 -0.10556503472E+02 -0.65639097452E+00  0.13240101490E+03  0.13282285393E+03  0.10566000000E+00 0. -1.
        -13    1    4    4    0    0 -0.18844739406E+01  0.71790281332E-01  0.25336146737E+02  0.25406453735E+02  0.10566000000E+00 0. -1.
         14    1    4    4    0    0 -0.23114409522E+02  0.95957030189E+00  0.30697347543E+03  0.30784397237E+03  0.00000000000E+00 0. -1.
<mgrwt>
<rscale>  0 0.77878768E+02</rscale>
<asrwt>0</asrwt>
<pdfrwt beam="1">  1        2 0.10179931E+00 0.77878768E+02</pdfrwt>
<pdfrwt beam="2">  1       -1 0.35253854E-03 0.77878768E+02</pdfrwt>
<totfact> 0.35390645E+05</totfact>
</mgrwt>
</event>
<event>
 8    1  0.2603554E-024  0.7932202E+02  0.7818608E-02  0.1330987E+00
          2   -1    0    0  501    0  0.00000000000E+00  0.00000000000E+00  0.64427476765E+03  0.64427476765E+03  0.25500000000E-02 0. -1.
         -1   -1    0    0    0  501 -0.00000000000E+00 -0.00000000000E+00 -0.24414957675E+01  0.24415009695E+01  0.50400000000E-02 0.  1.
         24    2    1    2    0    0  0.00000000000E+00 -0.35527136788E-14  0.64183327188E+03  0.64671626862E+03  0.79322022214E+02 0.  0.
         66    2    3    3    0    0 -0.66707407165E+01 -0.18373169799E+02  0.60224289439E+03  0.60256333775E+03  0.20000038103E+01 0.  0.
        -13    1    3    3    0    0  0.66707407165E+01  0.18373169799E+02  0.39590377494E+02  0.44152930869E+02  0.10566000000E+00 0.  1.
         13    1    4    4    0    0 -0.61242045788E+00 -0.15706785184E+01  0.52896738305E+02  0.52923701469E+02  0.10566000000E+00 0. -1.
        -13    1    4    4    0    0 -0.56687663498E+01 -0.14107620787E+02  0.47700944779E+03  0.47725169913E+03  0.10566000000E+00 0.  1.
        -14    1    4    4    0    0 -0.38955390875E+00 -0.26948704939E+01  0.72336708292E+02  0.72387937156E+02  0.00000000000E+00 0.  1.
<mgrwt>
<rscale>  0 0.79322022E+02</rscale>
<asrwt>0</asrwt>
<pdfrwt beam="1">  1        2 0.99119064E-01 0.79322022E+02</pdfrwt>
<pdfrwt beam="2">  1       -1 0.37561563E-03 0.79322022E+02</pdfrwt>
<totfact> 0.33516501E+05</totfact>
</mgrwt>
</event>
<event>
 8    1  0.2603554E-024  0.7830127E+02  0.7818608E-02  0.1333942E+00
          2   -1    0    0  501    0  0.00000000000E+00  0.00000000000E+00  0.41483894196E+03  0.41483894197E+03  0.25500000000E-02 0. -1.
         -1   -1    0    0    0  501 -0.00000000000E+00 -0.00000000000E+00 -0.36948592024E+01  0.36948626399E+01  0.50400000000E-02 0.  1.
         24    2    1    2    0    0  0.00000000000E+00 -0.35527136788E-14  0.41114408276E+03  0.41853380461E+03  0.78301269548E+02 0.  0.
         66    2    3    3    0    0  0.28384483764E+02 -0.23459836952E+02  0.27636007207E+03  0.27880984972E+03  0.19999995320E+01 0.  0.
        -13    1    3    3    0    0 -0.28384483764E+02  0.23459836952E+02  0.13478401069E+03  0.13972395489E+03  0.10566000000E+00 0.  1.
         13    1    4    4    0    0  0.52798547731E+01 -0.47128205424E+01  0.57150311621E+02  0.57586950139E+02  0.10566000000E+00 0. -1.
        -13    1    4    4    0    0  0.38452695734E+01 -0.25882586504E+01  0.33908767523E+02  0.34224272964E+02  0.10566000000E+00 0.  1.
         14    1    4    4    0    0  0.19259359418E+02 -0.16158757759E+02  0.18530099292E+03  0.18699862661E+03  0.00000000000E+00 0. -1.
<mgrwt>
<rscale>  0 0.78301270E+02</rscale>
<asrwt>0</asrwt>
<pdfrwt beam="1">  1        2 0.63821364E-01 0.78301270E+02</pdfrwt>
<pdfrwt beam="2">  1       -1 0.56844025E-03 0.78301270E+02</pdfrwt>
<totfact> 0.30261318E+05</totfact>
</mgrwt>
</event>
<event>
 8    1  0.2603554E-024  0.7982878E+02  0.7818608E-02  0.1329538E+00
          2   -1    0    0  501    0  0.00000000000E+00  0.00000000000E+00  0.54651570652E+01  0.54651576601E+01  0.25500000000E-02 0. -1.
         -1   -1    0    0    0  501 -0.00000000000E+00 -0.00000000000E+00 -0.29151189736E+03  0.29151189740E+03  0.50400000000E-02 0.  1.
         24    2    1    2    0    0  0.17763568394E-14  0.35527136788E-14 -0.28604674029E+03  0.29697705506E+03  0.79828776773E+02 0.  0.
         66    2    3    3    0    0  0.14003434484E+02  0.31547166507E+02 -0.21750091991E+03  0.22023162817E+03  0.19999988376E+01 0.  0.
        -13    1    3    3    0    0 -0.14003434484E+02 -0.31547166507E+02 -0.68545820387E+02  0.76745426890E+02  0.10566000000E+00 0.  1.
         13    1    4    4    0    0  0.88930592494E+01  0.20075235714E+02 -0.13939253658E+03  0.14111127527E+03  0.10566000000E+00 0. -1.
        -13    1    4    4    0    0  0.39448918949E+01  0.97803004122E+01 -0.66657578645E+02  0.67486742424E+02  0.10566000000E+00 0.  1.
        -14    1    4    4    0    0  0.11654833393E+01  0.16916303813E+01 -0.11450804687E+02  0.11633610477E+02  0.00000000000E+00 0.  1.
<mgrwt>
<rscale>  0 0.79828777E+02</rscale>
<asrwt>0</asrwt>
<pdfrwt beam="1">  1        2 0.84079367E-03 0.79828777E+02</pdfrwt>
<pdfrwt beam="2">  1       -1 0.44847972E-01 0.79828777E+02</pdfrwt>
<totfact> 0.87914358E+04</totfact>
</mgrwt>
</event>
<event>
 8    1  0.2603554E-024  0.7448853E+02  0.7818608E-02  0.1345462E+00
          2   -1    0    0  501    0  0.00000000000E+00  0.00000000000E+00  0.85137916805E+03  0.85137916805E+03  0.25500000000E-02 0. -1.
         -1   -1    0    0    0  501 -0.00000000000E+00 -0.00000000000E+00 -0.16292761418E+01  0.16292839372E+01  0.50400000000E-02 0.  1.
         24    2    1    2    0    0  0.00000000000E+00 -0.35527136788E-14  0.84974989191E+03  0.85300845199E+03  0.74488525090E+02 0.  0.
         66    2    3    3    0    0 -0.10015313759E+02  0.28936628186E+02  0.66742726211E+03  0.66813231113E+03  0.20000006716E+01 0.  0.
        -13    1    3    3    0    0  0.10015313759E+02 -0.28936628186E+02  0.18232262979E+03  0.18487614086E+03  0.10566000000E+00 0.  1.
         13    1    4    4    0    0 -0.78370177796E+01  0.21062159140E+02  0.47991150696E+03  0.48043740391E+03  0.10566000000E+00 0. -1.
        -13    1    4    4    0    0 -0.59089815365E+00  0.14669477661E+01  0.32379500360E+02  0.32418271144E+02  0.10566000000E+00 0.  1.
         14    1    4    4    0    0 -0.15873978256E+01  0.64075212805E+01  0.15513625479E+03  0.15527663607E+03  0.00000000000E+00 0. -1.
<mgrwt>
<rscale>  0 0.74488525E+02</rscale>
<asrwt>0</asrwt>
<pdfrwt beam="1">  1        2 0.13098175E+00 0.74488525E+02</pdfrwt>
<pdfrwt beam="2">  1       -1 0.25065781E-03 0.74488525E+02</pdfrwt>
<totfact> 0.41743248E+05</totfact>
</mgrwt>
</event>
<event>
 8    1  0.2603554E-024  0.8255214E+02  0.7818608E-02  0.1321961E+00
          2   -1    0    0  501    0  0.00000000000E+00  0.00000000000E+00  0.28227046811E+02  0.28227046926E+02  0.25500000000E-02 0. -1.
         -1   -1    0    0    0  501 -0.00000000000E+00 -0.00000000000E+00 -0.60357504653E+02  0.60357504863E+02  0.50400000000E-02 0.  1.
         24    2    1    2    0    0  0.00000000000E+00  0.00000000000E+00 -0.32130457842E+02  0.88584551790E+02  0.82552144095E+02 0.  0.
         66    2    3    3    0    0 -0.41015626459E+02 -0.30749360867E+01 -0.19463283906E+02  0.45547296936E+02  0.19999980118E+01 0.  0.
        -13    1    3    3    0    0  0.41015626459E+02  0.30749360867E+01 -0.12667173936E+02  0.43037254853E+02  0.10566000000E+00 0.  1.
         13    1    4    4    0    0 -0.24957672121E+02 -0.15608578936E+01 -0.11403654844E+02  0.27484107824E+02  0.10566000000E+00 0. -1.
        -13    1    4    4    0    0 -0.71796675836E+01 -0.47895258908E+00 -0.30441222154E+01  0.78137613408E+01  0.10566000000E+00 0.  1.
         14    1    4    4    0    0 -0.88782867545E+01 -0.10351256041E+01 -0.50155068467E+01  0.10249427771E+02  0.00000000000E+00 0. -1.
<mgrwt>
<rscale>  0 0.82552144E+02</rscale>
<asrwt>0</asrwt>
<pdfrwt beam="1">  1        2 0.43426226E-02 0.82552144E+02</pdfrwt>
<pdfrwt beam="2">  1       -1 0.92857700E-02 0.82552144E+02</pdfrwt>
<totfact> 0.12167938E+05</totfact>
</mgrwt>
</event>
<event>
 8    1  0.2603554E-024  0.8270827E+02  0.7818608E-02  0.1321537E+00
          2   -1    0    0  501    0  0.00000000000E+00  0.00000000000E+00  0.40322210579E+02  0.40322210660E+02  0.25500000000E-02 0. -1.
         -1   -1    0    0    0  501 -0.00000000000E+00 -0.00000000000E+00 -0.42412463437E+02  0.42412463736E+02  0.50400000000E-02 0.  1.
         24    2    1    2    0    0 -0.17763568394E-14  0.00000000000E+00 -0.20902528577E+01  0.82734674396E+02  0.82708265551E+02 0.  0.
         66    2    3    3    0    0  0.14622965969E+02  0.33646472872E+02  0.17993024414E+02  0.40910453418E+02  0.20000002040E+01 0.  0.
        -13    1    3    3    0    0 -0.14622965969E+02 -0.33646472872E+02 -0.20083277271E+02  0.41824220978E+02  0.10566000000E+00 0.  1.
         13    1    4    4    0    0  0.34884640978E+01  0.88426506582E+01  0.39599738120E+01  0.10298272139E+02  0.10566000000E+00 0. -1.
        -13    1    4    4    0    0  0.11334991732E+00  0.35855895890E+00  0.22915520737E+00  0.45286739277E+00  0.10566000000E+00 0. -1.
         14    1    4    4    0    0  0.11021151954E+02  0.24445263255E+02  0.13803895394E+02  0.30159313886E+02  0.00000000000E+00 0. -1.
<mgrwt>
<rscale>  0 0.82708266E+02</rscale>
<asrwt>0</asrwt>
<pdfrwt beam="1">  1        2 0.62034170E-02 0.82708266E+02</pdfrwt>
<pdfrwt beam="2">  1       -1 0.65249944E-02 0.82708266E+02</pdfrwt>
<totfact> 0.13020534E+05</totfact>
</mgrwt>
</event>
<event>
 8    1  0.2603554E-024  0.7819513E+02  0.7818608E-02  0.1334253E+00
          2   -1    0    0  501    0  0.00000000000E+00  0.00000000000E+00  0.32870373217E+03  0.32870373218E+03  0.25500000000E-02 0. -1.
         -1   -1    0    0    0  501 -0.00000000000E+00 -0.00000000000E+00 -0.46504467407E+01  0.46504494718E+01  0.50400000000E-02 0.  1.
         24    2    1    2    0    0  0.17763568394E-14  0.00000000000E+00  0.32405328543E+03  0.33335418165E+03  0.78195131735E+02 0.  0.
         66    2    3    3    0    0 -0.12648585535E+02  0.20906912941E+02  0.29210669511E+03  0.29313376990E+03  0.20000001121E+01 0.  0.
        -13    1    3    3    0    0  0.12648585535E+02 -0.20906912941E+02  0.31946590318E+02  0.40220411755E+02  0.10566000000E+00 0.  1.
         13    1    4    4    0    0 -0.66708112773E+01  0.10857671428E+02  0.15078787314E+03  0.15132541955E+03  0.10566000000E+00 0. -1.
        -13    1    4    4    0    0 -0.21826250629E+01  0.43185208068E+01  0.51506322528E+02  0.51733218521E+02  0.10566000000E+00 0.  1.
         14    1    4    4    0    0 -0.37951491946E+01  0.57307207055E+01  0.89812499445E+02  0.90075131828E+02  0.00000000000E+00 0. -1.
<mgrwt>
<rscale>  0 0.78195132E+02</rscale>
<asrwt>0</asrwt>
<pdfrwt beam="1">  1        2 0.50569826E-01 0.78195132E+02</pdfrwt>
<pdfrwt beam="2">  1       -1 0.71545326E-03 0.78195132E+02</pdfrwt>
<totfact> 0.27970409E+05</totfact>
</mgrwt>
</event>
<event>
 8    1  0.2603554E-024  0.8175727E+02  0.7818608E-02  0.1324137E+00
         -1   -1    0    0    0  501 -0.00000000000E+00  0.00000000000E+00  0.32912171593E+02  0.32912171979E+02  0.50400000000E-02 0.  1.
          2   -1    0    0  501    0  0.00000000000E+00 -0.00000000000E+00 -0.50773400380E+02  0.50773400444E+02  0.25500000000E-02 0. -1.
         24    2    1    2    0    0  0.88817841970E-15  0.00000000000E+00 -0.17861228786E+02  0.83685572423E+02  0.81757272080E+02 0.  0.
         66    2    3    3    0    0  0.47488710961E+01 -0.40417885862E+02 -0.12612401351E+02  0.42652431820E+02  0.19999995169E+01 0.  0.
        -13    1    3    3    0    0 -0.47488710961E+01  0.40417885862E+02 -0.52488274355E+01  0.41033140603E+02  0.10566000000E+00 0.  1.
         13    1    4    4    0    0  0.11431176231E+01 -0.10568680867E+02 -0.36050062301E+01  0.11225460664E+02  0.10566000000E+00 0. -1.
        -13    1    4    4    0    0  0.15340070752E+01 -0.13707729659E+02 -0.33171725267E+01  0.14186959777E+02  0.10566000000E+00 0.  1.
        -14    1    4    4    0    0  0.20717463978E+01 -0.16141475336E+02 -0.56902225942E+01  0.17240011379E+02  0.00000000000E+00 0.  1.
<mgrwt>
<rscale>  0 0.81757272E+02</rscale>
<asrwt>0</asrwt>
<pdfrwt beam="1">  1        2 0.78112924E-02 0.81757272E+02</pdfrwt>
<pdfrwt beam="2">  1       -1 0.50634111E-02 0.81757272E+02</pdfrwt>
<totfact> 0.14125971E+05</totfact>
</mgrwt>
</event>
<event>
 8    1  0.2603554E-024  0.8572670E+02  0.7818608E-02  0.1313543E+00
         -1   -1    0    0    0  501 -0.00000000000E+00  0.00000000000E+00  0.12243561369E+01  0.12243665103E+01  0.50400000000E-02 0.  1.
          2   -1    0    0  501    0  0.00000000000E+00 -0.00000000000E+00 -0.15005920951E+04  0.15005920951E+04  0.25500000000E-02 0. -1.
         24    2    1    2    0    0  0.17763568394E-14 -0.35527136788E-14 -0.14993677389E+04  0.15018164616E+04  0.85726703697E+02 0.  0.
         66    2    3    3    0    0 -0.10502567749E+02  0.15044456235E+02 -0.14282736666E+04  0.14283929104E+04  0.20000000505E+01 0.  0.
        -13    1    3    3    0    0  0.10502567749E+02 -0.15044456235E+02 -0.71094072318E+02  0.73423551232E+02  0.10566000000E+00 0.  1.
         13    1    4    4    0    0 -0.71842893416E+01  0.11079342182E+02 -0.10438900401E+04  0.10439735595E+04  0.10566000000E+00 0. -1.
        -13    1    4    4    0    0 -0.31595405277E+01  0.38503958963E+01 -0.37770264394E+03  0.37773549826E+03  0.10566000000E+00 0.  1.
        -14    1    4    4    0    0 -0.15873788016E+00  0.11471815656E+00 -0.66809825749E+01  0.66838526418E+01  0.00000000000E+00 0.  1.
<mgrwt>
<rscale>  0 0.85726704E+02</rscale>
<asrwt>0</asrwt>
<pdfrwt beam="1">  1        2 0.23085885E+00 0.85726704E+02</pdfrwt>
<pdfrwt beam="2">  1       -1 0.18836448E-03 0.85726704E+02</pdfrwt>
<totfact> 0.27760001E+05</totfact>
</mgrwt>
</event>
<event>
 8    1  0.2603554E-024  0.8391582E+02  0.7818608E-02  0.1318292E+00
         -1   -1    0    0    0  501 -0.00000000000E+00  0.00000000000E+00  0.14102842754E+02  0.14102843654E+02  0.50400000000E-02 0.  1.
          2   -1    0    0  501    0  0.00000000000E+00 -0.00000000000E+00 -0.12483058804E+03  0.12483058807E+03  0.25500000000E-02 0. -1.
         24    2    1    2    0    0  0.00000000000E+00  0.00000000000E+00 -0.11072774529E+03  0.13893343172E+03  0.83915820163E+02 0.  0.
         66    2    3    3    0    0 -0.83156392187E+01  0.22521369759E+02  0.15280431634E+01  0.24139114980E+02  0.20000011623E+01 0.  0.
        -13    1    3    3    0    0  0.83156392187E+01 -0.22521369759E+02 -0.11225578845E+03  0.11479431674E+03  0.10566000000E+00 0.  1.
         13    1    4    4    0    0 -0.34758146658E+01  0.96065803263E+01  0.87420336880E+00  0.10253929428E+02  0.10566000000E+00 0. -1.
        -13    1    4    4    0    0 -0.26088624391E+01  0.52209080867E+01  0.65811927446E+00  0.58743790728E+01  0.10566000000E+00 0.  1.
        -14    1    4    4    0    0 -0.22309621138E+01  0.76938813465E+01 -0.42794799004E-02  0.80108064788E+01  0.00000000000E+00 0.  1.
<mgrwt>
<rscale>  0 0.83915820E+02</rscale>
<asrwt>0</asrwt>
<pdfrwt beam="1">  1        2 0.19204705E-01 0.83915820E+02</pdfrwt>
<pdfrwt beam="2">  1       -1 0.21696683E-02 0.83915820E+02</pdfrwt>
<totfact> 0.16643816E+05</totfact>
</mgrwt>
</event>
<event>
 8    1  0.2603554E-024  0.7949629E+02  0.7818608E-02  0.1330487E+00
          2   -1    0    0  501    0  0.00000000000E+00  0.00000000000E+00  0.24794588850E+03  0.24794588851E+03  0.25500000000E-02 0. -1.
         -1   -1    0    0    0  501 -0.00000000000E+00 -0.00000000000E+00 -0.63720147517E+01  0.63720167450E+01  0.50400000000E-02 0.  1.
         24    2    1    2    0    0  0.00000000000E+00  0.00000000000E+00  0.24157387375E+03  0.25431790526E+03  0.79496292097E+02 0.  0.
         66    2    3    3    0    0  0.36045298092E+02 -0.16164969640E+02  0.13418487658E+03  0.13989335530E+03  0.19999985463E+01 0.  0.
        -13    1    3    3    0    0 -0.36045298092E+02  0.16164969640E+02  0.10738899717E+03  0.11442454996E+03  0.10566000000E+00 0.  1.
         13    1    4    4    0    0  0.37926488189E+01 -0.16529721133E+01  0.14734907239E+02  0.15305069659E+02  0.10566000000E+00 0. -1.
        -13    1    4    4    0    0  0.24898700014E+01 -0.67349566059E+00  0.93704017153E+01  0.97194979999E+01  0.10566000000E+00 0.  1.
        -14    1    4    4    0    0  0.29762779271E+02 -0.13838501866E+02  0.11007956763E+03  0.11486878764E+03  0.00000000000E+00 0.  1.
<mgrwt>
<rscale>  0 0.79496292E+02</rscale>
<asrwt>0</asrwt>
<pdfrwt beam="1">  1        2 0.38145509E-01 0.79496292E+02</pdfrwt>
<pdfrwt beam="2">  1       -1 0.98031043E-03 0.79496292E+02</pdfrwt>
<totfact> 0.24196354E+05</totfact>
</mgrwt>
</event>
<event>
 8    1  0.2603554E-024  0.8242233E+02  0.7818608E-02  0.1322314E+00
          2   -1    0    0  501    0  0.00000000000E+00  0.00000000000E+00  0.20718623949E+04  0.20718623949E+04  0.25500000000E-02 0. -1.
         -1   -1    0    0    0  501 -0.00000000000E+00 -0.00000000000E+00 -0.81971854453E+00  0.81973403848E+00  0.50400000000E-02 0.  1.
         24    2    1    2    0    0  0.00000000000E+00 -0.17763568394E-14  0.20710426764E+04  0.20726821290E+04  0.82422329147E+02 0.  0.
         66    2    3    3    0    0  0.40840820568E+01 -0.10611077952E+02  0.20316114600E+04  0.20316442600E+04  0.20000027239E+01 0.  0.
        -13    1    3    3    0    0 -0.40840820568E+01  0.10611077952E+02  0.39431216416E+02  0.41037869019E+02  0.10566000000E+00 0.  1.
         13    1    4    4    0    0  0.44711526843E+00 -0.20763888175E+01  0.38034917784E+03  0.38035512294E+03  0.10566000000E+00 0. -1.
        -13    1    4    4    0    0  0.79789698362E+00 -0.13111115918E+01  0.38450187925E+03  0.38450495701E+03  0.10566000000E+00 0. -1.
         14    1    4    4    0    0  0.28390698048E+01 -0.72235775425E+01  0.12667604029E+04  0.12667841800E+04  0.00000000000E+00 0. -1.
<mgrwt>
<rscale>  0 0.82422329E+02</rscale>
<asrwt>0</asrwt>
<pdfrwt beam="1">  1        2 0.31874818E+00 0.82422329E+02</pdfrwt>
<pdfrwt beam="2">  1       -1 0.12611169E-03 0.82422329E+02</pdfrwt>
<totfact> 0.24811865E+05</totfact>
</mgrwt>
</event>
<event>
 8    1  0.2603554E-024  0.8094368E+02  0.7818608E-02  0.1326395E+00
          2   -1    0    0  501    0  0.00000000000E+00  0.00000000000E+00  0.92524804590E+02  0.92524804625E+02  0.25500000000E-02 0. -1.
         -1   -1    0    0    0  501 -0.00000000000E+00 -0.00000000000E+00 -0.17703035252E+02  0.17703035970E+02  0.50400000000E-02 0.  1.
         24    2    1    2    0    0  0.35527136788E-14  0.17763568394E-14  0.74821769338E+02  0.11022784059E+03  0.80943682121E+02 0.  0.
         66    2    3    3    0    0  0.25988329651E+02  0.11128699367E+02  0.76824876211E+02  0.81885913546E+02  0.20000012015E+01 0.  0.
        -13    1    3    3    0    0 -0.25988329651E+02 -0.11128699367E+02 -0.20031068727E+01  0.28341927049E+02  0.10566000000E+00 0.  1.
         13    1    4    4    0    0  0.11473774364E+02  0.49389424531E+01  0.33793319517E+02  0.36028325783E+02  0.10566000000E+00 0. -1.
        -13    1    4    4    0    0  0.81676404404E+01  0.29968714802E+01  0.25372849345E+02  0.26823203332E+02  0.10566000000E+00 0.  1.
        -14    1    4    4    0    0  0.63469148472E+01  0.31928854337E+01  0.17658707348E+02  0.19034384431E+02  0.00000000000E+00 0.  1.
<mgrwt>
<rscale>  0 0.80943682E+02</rscale>
<asrwt>0</asrwt>
<pdfrwt beam="1">  1        2 0.14234585E-01 0.80943682E+02</pdfrwt>
<pdfrwt beam="2">  1       -1 0.27235439E-02 0.80943682E+02</pdfrwt>
<totfact> 0.16811974E+05</totfact>
</mgrwt>
</event>
<event>
 8    1  0.2603554E-024  0.7981635E+02  0.7818608E-02  0.1329573E+00
         -1   -1    0    0    0  501 -0.00000000000E+00  0.00000000000E+00  0.95889205761E+01  0.95889219006E+01  0.50400000000E-02 0.  1.
          2   -1    0    0  501    0  0.00000000000E+00 -0.00000000000E+00 -0.16609402962E+03  0.16609402964E+03  0.25500000000E-02 0. -1.
         24    2    1    2    0    0 -0.88817841970E-15  0.35527136788E-14 -0.15650510904E+03  0.17568295154E+03  0.79816353618E+02 0.  0.
         66    2    3    3    0    0 -0.68319419944E+01  0.22192578371E+02 -0.14967497266E+03  0.15147865660E+03  0.20000001327E+01 0.  0.
        -13    1    3    3    0    0  0.68319419944E+01 -0.22192578371E+02 -0.68301363847E+01  0.24204294934E+02  0.10566000000E+00 0.  1.
         13    1    4    4    0    0 -0.20565001167E+01  0.55382867371E+01 -0.41189661487E+02  0.41611310845E+02  0.10566000000E+00 0. -1.
        -13    1    4    4    0    0 -0.19273672501E+01  0.88361530220E+01 -0.55026217007E+02  0.55764577170E+02  0.10566000000E+00 0.  1.
        -14    1    4    4    0    0 -0.28480746276E+01  0.78181386121E+01 -0.53459094163E+02  0.54102768591E+02  0.00000000000E+00 0.  1.
<mgrwt>
<rscale>  0 0.79816354E+02</rscale>
<asrwt>0</asrwt>
<pdfrwt beam="1">  1        2 0.25552926E-01 0.79816354E+02</pdfrwt>
<pdfrwt beam="2">  1       -1 0.14752188E-02 0.79816354E+02</pdfrwt>
<totfact> 0.20835041E+05</totfact>
</mgrwt>
</event>
<event>
 8    1  0.2603554E-024  0.8132917E+02  0.7818608E-02  0.1325321E+00
          2   -1    0    0  501    0  0.00000000000E+00  0.00000000000E+00  0.89036428473E+01  0.89036432124E+01  0.25500000000E-02 0. -1.
         -1   -1    0    0    0  501 -0.00000000000E+00 -0.00000000000E+00 -0.18572267833E+03  0.18572267839E+03  0.50400000000E-02 0.  1.
         24    2    1    2    0    0  0.00000000000E+00  0.00000000000E+00 -0.17681903548E+03  0.19462632161E+03  0.81329169149E+02 0.  0.
         66    2    3    3    0    0 -0.73830314466E+00 -0.40624470387E+02 -0.86445296197E+02  0.95538902619E+02  0.19999983604E+01 0.  0.
        -13    1    3    3    0    0  0.73830314466E+00  0.40624470387E+02 -0.90373739281E+02  0.99087418987E+02  0.10566000000E+00 0.  1.
         13    1    4    4    0    0 -0.80137572299E+00 -0.71066976792E+01 -0.15521672535E+02  0.17090372648E+02  0.10566000000E+00 0. -1.
        -13    1    4    4    0    0  0.49493143152E-01 -0.14915631151E+01 -0.29242326037E+01  0.32847390237E+01  0.10566000000E+00 0. -1.
        -14    1    4    4    0    0  0.13579435173E-01 -0.32026209592E+02 -0.67999391058E+02  0.75163790947E+02  0.00000000000E+00 0.  1.
<mgrwt>
<rscale>  0 0.81329169E+02</rscale>
<asrwt>0</asrwt>
<pdfrwt beam="1">  1        2 0.13697914E-02 0.81329169E+02</pdfrwt>
<pdfrwt beam="2">  1       -1 0.28572717E-01 0.81329169E+02</pdfrwt>
<totfact> 0.97632335E+04</totfact>
</mgrwt>
</event>
<event>
 8    1  0.2603554E-024  0.7882028E+02  0.7818608E-02  0.1332433E+00
          2   -1    0    0  501    0  0.00000000000E+00  0.00000000000E+00  0.54107763314E+03  0.54107763314E+03  0.25500000000E-02 0. -1.
         -1   -1    0    0    0  501 -0.00000000000E+00 -0.00000000000E+00 -0.28704896358E+01  0.28704940604E+01  0.50400000000E-02 0.  1.
         24    2    1    2    0    0  0.00000000000E+00  0.00000000000E+00  0.53820714350E+03  0.54394812720E+03  0.78820275135E+02 0.  0.
         66    2    3    3    0    0  0.16836350299E+02 -0.31587612010E+02  0.38265526854E+03  0.38433096994E+03  0.19999980156E+01 0.  0.
        -13    1    3    3    0    0 -0.16836350299E+02  0.31587612010E+02  0.15555187496E+03  0.15961715726E+03  0.10566000000E+00 0.  1.
         13    1    4    4    0    0  0.33421982358E+01 -0.66049639203E+01  0.77406917882E+02  0.77760130771E+02  0.10566000000E+00 0. -1.
        -13    1    4    4    0    0  0.11911218612E+02 -0.20749070861E+02  0.25708984255E+03  0.25820069592E+03  0.10566000000E+00 0.  1.
        -14    1    4    4    0    0  0.15829334514E+01 -0.42335772287E+01  0.48158508112E+02  0.48370143250E+02  0.00000000000E+00 0.  1.
<mgrwt>
<rscale>  0 0.78820275E+02</rscale>
<asrwt>0</asrwt>
<pdfrwt beam="1">  1        2 0.83242706E-01 0.78820275E+02</pdfrwt>
<pdfrwt beam="2">  1       -1 0.44161417E-03 0.78820275E+02</pdfrwt>
<totfact> 0.32438674E+05</totfact>
</mgrwt>
</event>
<event>
 8    1  0.2603554E-024  0.7732499E+02  0.7818608E-02  0.1336819E+00
          2   -1    0    0  501    0  0.00000000000E+00  0.00000000000E+00  0.15466810476E+03  0.15466810478E+03  0.25500000000E-02 0. -1.
         -1   -1    0    0    0  501 -0.00000000000E+00 -0.00000000000E+00 -0.96644906641E+01  0.96644919782E+01  0.50400000000E-02 0.  1.
         24    2    1    2    0    0 -0.35527136788E-14  0.35527136788E-14  0.14500361410E+03  0.16433259676E+03  0.77324991154E+02 0.  0.
         66    2    3    3    0    0  0.24599108839E+02 -0.28401061818E+02  0.91682722199E+02  0.99103269423E+02  0.19999981395E+01 0.  0.
        -13    1    3    3    0    0 -0.24599108839E+02  0.28401061818E+02  0.53320891901E+02  0.65229327339E+02  0.10566000000E+00 0.  1.
         13    1    4    4    0    0  0.74302624441E+01 -0.90403428528E+01  0.27938668560E+02  0.30290542482E+02  0.10566000000E+00 0. -1.
        -13    1    4    4    0    0  0.16794547272E+02 -0.18524186600E+02  0.61462535540E+02  0.66354025848E+02  0.10566000000E+00 0.  1.
        -14    1    4    4    0    0  0.37429912332E+00 -0.83653236525E+00  0.22815180989E+01  0.24587010936E+01  0.00000000000E+00 0.  1.
<mgrwt>
<rscale>  0 0.77324991E+02</rscale>
<asrwt>0</asrwt>
<pdfrwt beam="1">  1        2 0.23795094E-01 0.77324991E+02</pdfrwt>
<pdfrwt beam="2">  1       -1 0.14868448E-02 0.77324991E+02</pdfrwt>
<totfact> 0.22135263E+05</totfact>
</mgrwt>
</event>
<event>
 8    1  0.2603554E-024  0.8077326E+02  0.7818608E-02  0.1326871E+00
          2   -1    0    0  501    0  0.00000000000E+00  0.00000000000E+00  0.30064627829E+03  0.30064627831E+03  0.25500000000E-02 0. -1.
         -1   -1    0    0    0  501 -0.00000000000E+00 -0.00000000000E+00 -0.54252449479E+01  0.54252472889E+01  0.50400000000E-02 0.  1.
         24    2    1    2    0    0  0.00000000000E+00  0.00000000000E+00  0.29522103335E+03  0.30607152559E+03  0.80773264447E+02 0.  0.
         66    2    3    3    0    0  0.32777497838E+02 -0.22184903895E+02  0.17766732247E+03  0.18203354580E+03  0.19999998354E+01 0.  0.
        -13    1    3    3    0    0 -0.32777497838E+02  0.22184903895E+02  0.11755371088E+03  0.12403797979E+03  0.10566000000E+00 0.  1.
         13    1    4    4    0    0  0.36273811430E+01 -0.22606182423E+01  0.18099548384E+02  0.18597663954E+02  0.10566000000E+00 0. -1.
        -13    1    4    4    0    0  0.68453596361E+01 -0.51412103209E+01  0.36032451553E+02  0.37035654727E+02  0.10566000000E+00 0.  1.
         14    1    4    4    0    0  0.22304757059E+02 -0.14783075332E+02  0.12353532253E+03  0.12640022712E+03  0.00000000000E+00 0. -1.
<mgrwt>
<rscale>  0 0.80773264E+02</rscale>
<asrwt>0</asrwt>
<pdfrwt beam="1">  1        2 0.46253274E-01 0.80773264E+02</pdfrwt>
<pdfrwt beam="2">  1       -1 0.83465325E-03 0.80773264E+02</pdfrwt>
<totfact> 0.24878651E+05</totfact>
</mgrwt>
</event>
<event>
 8    1  0.2603554E-024  0.8013849E+02  0.7818608E-02  0.1328659E+00
         -1   -1    0    0    0  501 -0.00000000000E+00  0.00000000000E+00  0.70942589909E+02  0.70942590088E+02  0.50400000000E-02 0.  1.
          2   -1    0    0  501    0  0.00000000000E+00 -0.00000000000E+00 -0.22631602440E+02  0.22631602584E+02  0.25500000000E-02 0. -1.
         24    2    1    2    0    0  0.00000000000E+00  0.00000000000E+00  0.48310987469E+02  0.93574192672E+02  0.80138492773E+02 0.  0.
         66    2    3    3    0    0 -0.44573729566E+01  0.24880961334E+02 -0.12094747195E+02  0.28092940737E+02  0.19999997431E+01 0.  0.
        -13    1    3    3    0    0  0.44573729566E+01 -0.24880961334E+02  0.60405734664E+02  0.65481251934E+02  0.10566000000E+00 0.  1.
         13    1    4    4    0    0 -0.15512575043E+01  0.11297497553E+02 -0.61549538509E+01  0.12958953343E+02  0.10566000000E+00 0. -1.
        -13    1    4    4    0    0 -0.70154571864E+00  0.32683060762E+01 -0.10319912447E+01  0.35000229953E+01  0.10566000000E+00 0.  1.
        -14    1    4    4    0    0 -0.22045697337E+01  0.10315157705E+02 -0.49078020991E+01  0.11633964399E+02  0.00000000000E+00 0.  1.
<mgrwt>
<rscale>  0 0.80138493E+02</rscale>
<asrwt>0</asrwt>
<pdfrwt beam="1">  1        2 0.34817850E-02 0.80138493E+02</pdfrwt>
<pdfrwt beam="2">  1       -1 0.10914245E-01 0.80138493E+02</pdfrwt>
<totfact> 0.12664552E+05</totfact>
</mgrwt>
</event>
<event>
 8    1  0.2603554E-024  0.7491417E+02  0.7818608E-02  0.1344137E+00
          2   -1    0    0  501    0  0.00000000000E+00  0.00000000000E+00  0.42027876824E+02  0.42027876901E+02  0.25500000000E-02 0. -1.
         -1   -1    0    0    0  501 -0.00000000000E+00 -0.00000000000E+00 -0.33383397595E+02  0.33383397975E+02  0.50400000000E-02 0.  1.
         24    2    1    2    0    0 -0.35527136788E-14 -0.35527136788E-14  0.86444792296E+01  0.75411274876E+02  0.74914173274E+02 0.  0.
         66    2    3    3    0    0 -0.16691618124E+02 -0.26149731318E+02  0.25407297617E+02  0.40149088218E+02  0.19999872379E+01 0.  0.
        -13    1    3    3    0    0  0.16691618124E+02  0.26149731318E+02 -0.16762818388E+02  0.35262186658E+02  0.10566000000E+00 0.  1.
         13    1    4    4    0    0 -0.15545146013E+01 -0.17850041340E+01  0.19882262535E+01  0.30930507715E+01  0.10566000000E+00 0. -1.
        -13    1    4    4    0    0 -0.24210864438E+01 -0.33616478801E+01  0.28966032937E+01  0.50560667238E+01  0.10566000000E+00 0.  1.
         14    1    4    4    0    0 -0.12716017079E+02 -0.21003079304E+02  0.20522468070E+02  0.31999970723E+02  0.00000000000E+00 0. -1.
<mgrwt>
<rscale>  0 0.74914173E+02</rscale>
<asrwt>0</asrwt>
<pdfrwt beam="1">  1        2 0.64658273E-02 0.74914173E+02</pdfrwt>
<pdfrwt beam="2">  1       -1 0.51359073E-02 0.74914173E+02</pdfrwt>
<totfact> 0.17246274E+05</totfact>
</mgrwt>
</event>
<event>
 8    1  0.2603554E-024  0.8128814E+02  0.7818608E-02  0.1325435E+00
          2   -1    0    0  501    0  0.00000000000E+00  0.00000000000E+00  0.52321238101E+03  0.52321238102E+03  0.25500000000E-02 0. -1.
         -1   -1    0    0    0  501 -0.00000000000E+00 -0.00000000000E+00 -0.31573016190E+01  0.31573056416E+01  0.50400000000E-02 0.  1.
         24    2    1    2    0    0  0.00000000000E+00 -0.35527136788E-14  0.52005507939E+03  0.52636968666E+03  0.81288138322E+02 0.  0.
         66    2    3    3    0    0  0.20671052955E+02 -0.26777651169E+02  0.40578651903E+03  0.40719901039E+03  0.19999998419E+01 0.  0.
        -13    1    3    3    0    0 -0.20671052955E+02  0.26777651169E+02  0.11426856036E+03  0.11917067627E+03  0.10566000000E+00 0.  1.
         13    1    4    4    0    0  0.29672196761E+01 -0.44075797949E+01  0.59718380527E+02  0.59954376730E+02  0.10566000000E+00 0. -1.
        -13    1    4    4    0    0  0.25704375487E+01 -0.28085323097E+01  0.42002666428E+02  0.42174994416E+02  0.10566000000E+00 0.  1.
         14    1    4    4    0    0  0.15133395730E+02 -0.19561539065E+02  0.30406547208E+03  0.30506963924E+03  0.00000000000E+00 0. -1.
<mgrwt>
<rscale>  0 0.81288138E+02</rscale>
<asrwt>0</asrwt>
<pdfrwt beam="1">  1        2 0.80494170E-01 0.81288138E+02</pdfrwt>
<pdfrwt beam="2">  1       -1 0.48573928E-03 0.81288138E+02</pdfrwt>
<totfact> 0.29628886E+05</totfact>
</mgrwt>
</event>
<event>
 8    1  0.2603554E-024  0.8003345E+02  0.7818608E-02  0.1328957E+00
          2   -1    0    0  501    0  0.00000000000E+00  0.00000000000E+00  0.11916960105E+04  0.11916960105E+04  0.25500000000E-02 0. -1.
         -1   -1    0    0    0  501 -0.00000000000E+00 -0.00000000000E+00 -0.13437425124E+01  0.13437519641E+01  0.50400000000E-02 0.  1.
         24    2    1    2    0    0  0.00000000000E+00 -0.88817841970E-15  0.11903522679E+04  0.11930397624E+04  0.80033448779E+02 0.  0.
         66    2    3    3    0    0 -0.90477879804E+01  0.43239814314E+01  0.11726472833E+04  0.11726918650E+04  0.20000020998E+01 0.  0.
        -13    1    3    3    0    0  0.90477879804E+01 -0.43239814314E+01  0.17704984637E+02  0.20347897380E+02  0.10566000000E+00 0.  1.
         13    1    4    4    0    0 -0.56637593740E+01  0.21202428923E+01  0.66165621132E+03  0.66168385709E+03  0.10566000000E+00 0.  1.
        -13    1    4    4    0    0 -0.16590504602E+01  0.14594515739E+01  0.32198945906E+03  0.32199705800E+03  0.10566000000E+00 0. -1.
        -14    1    4    4    0    0 -0.17249781462E+01  0.74428696529E+00  0.18900161293E+03  0.18901094995E+03  0.00000000000E+00 0.  1.
<mgrwt>
<rscale>  0 0.80033449E+02</rscale>
<asrwt>0</asrwt>
<pdfrwt beam="1">  1        2 0.18333775E+00 0.80033449E+02</pdfrwt>
<pdfrwt beam="2">  1       -1 0.20673045E-03 0.80033449E+02</pdfrwt>
<totfact> 0.35026058E+05</totfact>
</mgrwt>
</event>
<event>
 8    1  0.2603554E-024  0.8150265E+02  0.7818608E-02  0.1324840E+00
          2   -1    0    0  501    0  0.00000000000E+00  0.00000000000E+00  0.19419170878E+02  0.19419171046E+02  0.25500000000E-02 0. -1.
         -1   -1    0    0    0  501 -0.00000000000E+00 -0.00000000000E+00 -0.85517054024E+02  0.85517054172E+02  0.50400000000E-02 0.  1.
         24    2    1    2    0    0  0.00000000000E+00  0.13877787808E-16 -0.66097883145E+02  0.10493622522E+03  0.81502645397E+02 0.  0.
         66    2    3    3    0    0  0.39168576434E+02 -0.31873115593E-01 -0.18703457281E+02  0.43451095611E+02  0.19999999391E+01 0.  0.
        -13    1    3    3    0    0 -0.39168576434E+02  0.31873115593E-01 -0.47394425864E+02  0.61485129607E+02  0.10566000000E+00 0.  1.
         13    1    4    4    0    0  0.19806902946E+02  0.29001692445E+00 -0.99218589477E+01  0.22155179149E+02  0.10566000000E+00 0.  1.
        -13    1    4    4    0    0  0.18672112757E+02 -0.52004574293E+00 -0.85358354652E+01  0.20537524035E+02  0.10566000000E+00 0. -1.
         14    1    4    4    0    0  0.68956073160E+00  0.19815570289E+00 -0.24576286822E+00  0.75839242648E+00  0.00000000000E+00 0. -1.
<mgrwt>
<rscale>  0 0.81502645E+02</rscale>
<asrwt>0</asrwt>
<pdfrwt beam="1">  1        2 0.29875648E-02 0.81502645E+02</pdfrwt>
<pdfrwt beam="2">  1       -1 0.13156470E-01 0.81502645E+02</pdfrwt>
<totfact> 0.11696831E+05</totfact>
</mgrwt>
</event>
<event>
 8    1  0.2603554E-024  0.7897445E+02  0.7818608E-02  0.1331987E+00
          2   -1    0    0  501    0  0.00000000000E+00  0.00000000000E+00  0.17635101995E+02  0.17635102180E+02  0.25500000000E-02 0. -1.
         -1   -1    0    0    0  501 -0.00000000000E+00 -0.00000000000E+00 -0.88416887599E+02  0.88416887743E+02  0.50400000000E-02 0.  1.
         24    2    1    2    0    0  0.00000000000E+00  0.00000000000E+00 -0.70781785603E+02  0.10605198992E+03  0.78974447724E+02 0.  0.
         66    2    3    3    0    0  0.17435508596E+02  0.32576913925E+02 -0.16807042707E+02  0.40641468478E+02  0.19999986479E+01 0.  0.
        -13    1    3    3    0    0 -0.17435508596E+02 -0.32576913925E+02 -0.53974742896E+02  0.65410521445E+02  0.10566000000E+00 0.  1.
         13    1    4    4    0    0  0.88738383017E+01  0.15493569284E+02 -0.80997069890E+01  0.19606430392E+02  0.10566000000E+00 0. -1.
        -13    1    4    4    0    0  0.10643083497E+01  0.27571421938E+01 -0.99249307291E+00  0.31194217213E+01  0.10566000000E+00 0.  1.
         14    1    4    4    0    0  0.74973619444E+01  0.14326202447E+02 -0.77148426453E+01  0.17915616365E+02  0.00000000000E+00 0. -1.
<mgrwt>
<rscale>  0 0.78974448E+02</rscale>
<asrwt>0</asrwt>
<pdfrwt beam="1">  1        2 0.27130927E-02 0.78974448E+02</pdfrwt>
<pdfrwt beam="2">  1       -1 0.13602598E-01 0.78974448E+02</pdfrwt>
<totfact> 0.12559617E+05</totfact>
</mgrwt>
</event>
<event>
 8    1  0.2603554E-024  0.7812727E+02  0.7818608E-02  0.1334452E+00
         -1   -1    0    0    0  501 -0.00000000000E+00  0.00000000000E+00  0.11969802587E+02  0.11969803648E+02  0.50400000000E-02 0.  1.
          2   -1    0    0  501    0  0.00000000000E+00 -0.00000000000E+00 -0.12748477231E+03  0.12748477234E+03  0.25500000000E-02 0. -1.
         24    2    1    2    0    0  0.00000000000E+00 -0.35527136788E-14 -0.11551496973E+03  0.13945457599E+03  0.78127271378E+02 0.  0.
         66    2    3    3    0    0 -0.26030896676E+01 -0.29982504678E+02 -0.10217727016E+03  0.10653600894E+03  0.20000003125E+01 0.  0.
        -13    1    3    3    0    0  0.26030896676E+01  0.29982504678E+02 -0.13337699565E+02  0.32918567045E+02  0.10566000000E+00 0.  1.
         13    1    4    4    0    0 -0.21623705995E+01 -0.21270675810E+02 -0.74086351034E+02  0.77109766370E+02  0.10566000000E+00 0. -1.
        -13    1    4    4    0    0 -0.39861523132E+00 -0.87026976714E+01 -0.27833136031E+02  0.29164884128E+02  0.10566000000E+00 0.  1.
         14    1    4    4    0    0 -0.42103836731E-01 -0.91311961192E-02 -0.25778309654E+00  0.26135844480E+00  0.00000000000E+00 0. -1.
<mgrwt>
<rscale>  0 0.78127271E+02</rscale>
<asrwt>0</asrwt>
<pdfrwt beam="1">  1        2 0.19613041E-01 0.78127271E+02</pdfrwt>
<pdfrwt beam="2">  1       -1 0.18415083E-02 0.78127271E+02</pdfrwt>
<totfact> 0.20269428E+05</totfact>
</mgrwt>
</event>
<event>
 8    1  0.2603554E-024  0.8015629E+02  0.7818608E-02  0.1328608E+00
         -1   -1    0    0    0  501 -0.00000000000E+00  0.00000000000E+00  0.53159559093E+01  0.53159582985E+01  0.50400000000E-02 0.  1.
          2   -1    0    0  501    0  0.00000000000E+00 -0.00000000000E+00 -0.30215777772E+03  0.30215777773E+03  0.25500000000E-02 0. -1.
         24    2    1    2    0    0  0.00000000000E+00 -0.71054273576E-14 -0.29684182181E+03  0.30747373603E+03  0.80156292154E+02 0.  0.
         66    2    3    3    0    0 -0.13463698540E+02  0.24464218767E+02 -0.25865720269E+03  0.26016786452E+03  0.20000111284E+01 0.  0.
        -13    1    3    3    0    0  0.13463698540E+02 -0.24464218767E+02 -0.38184619117E+02  0.47305871511E+02  0.10566000000E+00 0.  1.
         13    1    4    4    0    0 -0.54270200777E+01  0.81758719151E+01 -0.93057648614E+02  0.93573685180E+02  0.10566000000E+00 0. -1.
        -13    1    4    4    0    0 -0.66808761357E+00  0.16146506963E+01 -0.17330912234E+02  0.17419102182E+02  0.10566000000E+00 0.  1.
         14    1    4    4    0    0 -0.73685908490E+01  0.14673696155E+02 -0.14826864185E+03  0.14917507716E+03  0.00000000000E+00 0. -1.
<mgrwt>
<rscale>  0 0.80156292E+02</rscale>
<asrwt>0</asrwt>
<pdfrwt beam="1">  1        2 0.46485798E-01 0.80156292E+02</pdfrwt>
<pdfrwt beam="2">  1       -1 0.81783980E-03 0.80156292E+02</pdfrwt>
<totfact> 0.25430254E+05</totfact>
</mgrwt>
</event>
<event>
 8    1  0.2603554E-024  0.7926773E+02  0.7818608E-02  0.1331142E+00
          2   -1    0    0  501    0  0.00000000000E+00  0.00000000000E+00  0.84922843585E+03  0.84922843585E+03  0.25500000000E-02 0. -1.
         -1   -1    0    0    0  501 -0.00000000000E+00 -0.00000000000E+00 -0.18497266977E+01  0.18497335640E+01  0.50400000000E-02 0.  1.
         24    2    1    2    0    0  0.00000000000E+00  0.00000000000E+00  0.84737870915E+03  0.85107816942E+03  0.79267734513E+02 0.  0.
         66    2    3    3    0    0  0.32336036617E+02  0.86177357117E+01  0.65145437004E+03  0.65231639630E+03  0.20000007017E+01 0.  0.
        -13    1    3    3    0    0 -0.32336036617E+02 -0.86177357117E+01  0.19592433911E+03  0.19876177312E+03  0.10566000000E+00 0.  1.
         13    1    4    4    0    0  0.22032326952E+02  0.58567265585E+01  0.43218522964E+03  0.43278610024E+03  0.10566000000E+00 0. -1.
        -13    1    4    4    0    0  0.52344159412E+01  0.99329147996E+00  0.11329799384E+03  0.11342324413E+03  0.10566000000E+00 0.  1.
        -14    1    4    4    0    0  0.50692937239E+01  0.17677176732E+01  0.10597114656E+03  0.10610705193E+03  0.00000000000E+00 0.  1.
<mgrwt>
<rscale>  0 0.79267735E+02</rscale>
<asrwt>0</asrwt>
<pdfrwt beam="1">  1        2 0.13065016E+00 0.79267735E+02</pdfrwt>
<pdfrwt beam="2">  1       -1 0.28457467E-03 0.79267735E+02</pdfrwt>
<totfact> 0.35528837E+05</totfact>
</mgrwt>
</event>
<event>
 8    1  0.2603554E-024  0.7884083E+02  0.7818608E-02  0.1332374E+00
         -1   -1    0    0    0  501 -0.00000000000E+00  0.00000000000E+00  0.39047777316E+01  0.39047809842E+01  0.50400000000E-02 0.  1.
          2   -1    0    0  501    0  0.00000000000E+00 -0.00000000000E+00 -0.39796587388E+03  0.39796587389E+03  0.25500000000E-02 0. -1.
         24    2    1    2    0    0  0.00000000000E+00  0.00000000000E+00 -0.39406109615E+03  0.40187065488E+03  0.78840825401E+02 0.  0.
         66    2    3    3    0    0  0.20532995628E+02 -0.26905463982E+02 -0.29992121097E+03  0.30183147731E+03  0.20000013100E+01 0.  0.
        -13    1    3    3    0    0 -0.20532995628E+02  0.26905463982E+02 -0.94139885183E+02  0.10003917757E+03  0.10566000000E+00 0.  1.
         13    1    4    4    0    0  0.80798690021E+01 -0.10359898470E+02 -0.11506793369E+03  0.11581559613E+03  0.10566000000E+00 0. -1.
        -13    1    4    4    0    0  0.10650363041E+02 -0.13414989331E+02 -0.15585737246E+03  0.15679580315E+03  0.10566000000E+00 0.  1.
        -14    1    4    4    0    0  0.18027635850E+01 -0.31305761803E+01 -0.28995904824E+02  0.29220078034E+02  0.00000000000E+00 0.  1.
<mgrwt>
<rscale>  0 0.78840825E+02</rscale>
<asrwt>0</asrwt>
<pdfrwt beam="1">  1        2 0.61225487E-01 0.78840825E+02</pdfrwt>
<pdfrwt beam="2">  1       -1 0.60073560E-03 0.78840825E+02</pdfrwt>
<totfact> 0.29298599E+05</totfact>
</mgrwt>
</event>
<event>
 8    1  0.2603554E-024  0.8251175E+02  0.7818608E-02  0.1322071E+00
         -1   -1    0    0    0  501 -0.00000000000E+00  0.00000000000E+00  0.21344797710E+01  0.21344857213E+01  0.50400000000E-02 0.  1.
          2   -1    0    0  501    0  0.00000000000E+00 -0.00000000000E+00 -0.79740497977E+03  0.79740497977E+03  0.25500000000E-02 0. -1.
         24    2    1    2    0    0 -0.71054273576E-14  0.22204460493E-15 -0.79527050000E+03  0.79953946549E+03  0.82511748956E+02 0.  0.
         66    2    3    3    0    0  0.35977175915E+02  0.14226842680E+01 -0.59255322316E+03  0.59364947859E+03  0.19999819950E+01 0.  0.
        -13    1    3    3    0    0 -0.35977175915E+02 -0.14226842680E+01 -0.20271727683E+03  0.20588998690E+03  0.10566000000E+00 0.  1.
         13    1    4    4    0    0  0.22793435413E+02  0.51371231718E+00 -0.37232917238E+03  0.37302657863E+03  0.10566000000E+00 0. -1.
        -13    1    4    4    0    0  0.12289602529E+02  0.10465755821E+01 -0.20801740933E+03  0.20838278095E+03  0.10566000000E+00 0.  1.
         14    1    4    4    0    0  0.89413797316E+00 -0.13760363133E+00 -0.12206641458E+02  0.12240119001E+02  0.00000000000E+00 0. -1.
<mgrwt>
<rscale>  0 0.82511749E+02</rscale>
<asrwt>0</asrwt>
<pdfrwt beam="1">  1        2 0.12267745E+00 0.82511749E+02</pdfrwt>
<pdfrwt beam="2">  1       -1 0.32838260E-03 0.82511749E+02</pdfrwt>
<totfact> 0.31691925E+05</totfact>
</mgrwt>
</event>
<event>
 8    1  0.2603554E-024  0.8078703E+02  0.7818608E-02  0.1326833E+00
         -1   -1    0    0    0  501 -0.00000000000E+00  0.00000000000E+00  0.16547526932E+03  0.16547526940E+03  0.50400000000E-02 0.  1.
          2   -1    0    0  501    0  0.00000000000E+00 -0.00000000000E+00 -0.98603013906E+01  0.98603017204E+01  0.25500000000E-02 0. -1.
         24    2    1    2    0    0  0.35527136788E-14  0.22204460493E-15  0.15561496793E+03  0.17533557112E+03  0.80787030243E+02 0.  0.
         66    2    3    3    0    0 -0.30229669025E+02  0.11738505780E+01  0.19844715873E+02  0.36235667013E+02  0.20000003018E+01 0.  0.
        -13    1    3    3    0    0  0.30229669025E+02 -0.11738505780E+01  0.13577025206E+03  0.13909990411E+03  0.10566000000E+00 0.  1.
         13    1    4    4    0    0 -0.11747028821E+01  0.17153548239E+00  0.56179782041E+00  0.13176236601E+01  0.10566000000E+00 0. -1.
        -13    1    4    4    0    0 -0.33364494464E+01  0.58311674357E+00  0.22032792167E+01  0.40419702359E+01  0.10566000000E+00 0.  1.
         14    1    4    4    0    0 -0.25718516697E+02  0.41919835205E+00  0.17079638836E+02  0.30876073117E+02  0.00000000000E+00 0. -1.
<mgrwt>
<rscale>  0 0.80787030E+02</rscale>
<asrwt>0</asrwt>
<pdfrwt beam="1">  1        2 0.15169696E-02 0.80787030E+02</pdfrwt>
<pdfrwt beam="2">  1       -1 0.25457732E-01 0.80787030E+02</pdfrwt>
<totfact> 0.10255871E+05</totfact>
</mgrwt>
</event>
<event>
 8    1  0.2603554E-024  0.7996031E+02  0.7818608E-02  0.1329164E+00
         -1   -1    0    0    0  501 -0.00000000000E+00  0.00000000000E+00  0.66288095200E+01  0.66288114360E+01  0.50400000000E-02 0.  1.
          2   -1    0    0  501    0  0.00000000000E+00 -0.00000000000E+00 -0.24113116967E+03  0.24113116968E+03  0.25500000000E-02 0. -1.
         24    2    1    2    0    0  0.00000000000E+00  0.35527136788E-14 -0.23450236015E+03  0.24775998112E+03  0.79960310957E+02 0.  0.
         66    2    3    3    0    0 -0.11479886461E+02 -0.24555192772E+02 -0.20827906308E+03  0.21004502708E+03  0.19999990486E+01 0.  0.
        -13    1    3    3    0    0  0.11479886461E+02  0.24555192772E+02 -0.26223297066E+02  0.37714954041E+02  0.10566000000E+00 0.  1.
         13    1    4    4    0    0 -0.34419344075E+01 -0.84766562298E+01 -0.68432130889E+02  0.69041062531E+02  0.10566000000E+00 0.  1.
        -13    1    4    4    0    0 -0.10081949284E+01 -0.20993070635E+01 -0.14944345890E+02  0.15125084637E+02  0.10566000000E+00 0. -1.
         14    1    4    4    0    0 -0.70297571251E+01 -0.13979229479E+02 -0.12490258630E+03  0.12587887991E+03  0.00000000000E+00 0. -1.
<mgrwt>
<rscale>  0 0.79960311E+02</rscale>
<asrwt>0</asrwt>
<pdfrwt beam="1">  1        2 0.37097096E-01 0.79960311E+02</pdfrwt>
<pdfrwt beam="2">  1       -1 0.10198172E-02 0.79960311E+02</pdfrwt>
<totfact> 0.23592837E+05</totfact>
</mgrwt>
</event>
<event>
 8    1  0.2603554E-024  0.7783132E+02  0.7818608E-02  0.1335321E+00
          2   -1    0    0  501    0  0.00000000000E+00  0.00000000000E+00  0.35689795405E+03  0.35689795405E+03  0.25500000000E-02 0. -1.
         -1   -1    0    0    0  501 -0.00000000000E+00 -0.00000000000E+00 -0.42433087306E+01  0.42433117237E+01  0.50400000000E-02 0.  1.
         24    2    1    2    0    0  0.00000000000E+00  0.00000000000E+00  0.35265464531E+03  0.36114126578E+03  0.77831323937E+02 0.  0.
         66    2    3    3    0    0 -0.16581055640E+02 -0.16297129613E+02  0.32109814328E+03  0.32194494166E+03  0.20000004885E+01 0.  0.
        -13    1    3    3    0    0  0.16581055640E+02  0.16297129613E+02  0.31556502032E+02  0.39196324117E+02  0.10566000000E+00 0.  1.
         13    1    4    4    0    0 -0.48749846354E+00 -0.45921705844E+00  0.11166906407E+02  0.11187470572E+02  0.10566000000E+00 0. -1.
        -13    1    4    4    0    0 -0.38236734264E+01 -0.39022381814E+01  0.65442663718E+02  0.65670399266E+02  0.10566000000E+00 0.  1.
        -14    1    4    4    0    0 -0.12269883750E+02 -0.11935674373E+02  0.24448857316E+03  0.24508707182E+03  0.00000000000E+00 0.  1.
<mgrwt>
<rscale>  0 0.77831324E+02</rscale>
<asrwt>0</asrwt>
<pdfrwt beam="1">  1        2 0.54907397E-01 0.77831324E+02</pdfrwt>
<pdfrwt beam="2">  1       -1 0.65281673E-03 0.77831324E+02</pdfrwt>
<totfact> 0.29157697E+05</totfact>
</mgrwt>
</event>
<event>
 8    1  0.2603554E-024  0.8022120E+02  0.7818608E-02  0.1328425E+00
         -1   -1    0    0    0  501 -0.00000000000E+00  0.00000000000E+00  0.23779844883E+01  0.23779898293E+01  0.50400000000E-02 0.  1.
          2   -1    0    0  501    0  0.00000000000E+00 -0.00000000000E+00 -0.67656387570E+03  0.67656387571E+03  0.25500000000E-02 0. -1.
         24    2    1    2    0    0  0.00000000000E+00  0.00000000000E+00 -0.67418589121E+03  0.67894186554E+03  0.80221199605E+02 0.  0.
         66    2    3    3    0    0  0.83817324494E+01  0.27548752108E+02 -0.57331740857E+03  0.57404358559E+03  0.20000004516E+01 0.  0.
        -13    1    3    3    0    0 -0.83817324494E+01 -0.27548752108E+02 -0.10086848264E+03  0.10489827995E+03  0.10566000000E+00 0.  1.
         13    1    4    4    0    0  0.24604848011E+01  0.10128188420E+02 -0.21751347482E+03  0.21776307556E+03  0.10566000000E+00 0.  1.
        -13    1    4    4    0    0  0.53874614150E+01  0.16231770222E+02 -0.33414924301E+03  0.33458664479E+03  0.10566000000E+00 0. -1.
        -14    1    4    4    0    0  0.53378623322E+00  0.11887934659E+01 -0.21654690747E+02  0.21693865239E+02  0.00000000000E+00 0.  1.
<mgrwt>
<rscale>  0 0.80221200E+02</rscale>
<asrwt>0</asrwt>
<pdfrwt beam="1">  1        2 0.10408660E+00 0.80221200E+02</pdfrwt>
<pdfrwt beam="2">  1       -1 0.36584472E-03 0.80221200E+02</pdfrwt>
<totfact> 0.32947646E+05</totfact>
</mgrwt>
</event>
<event>
 8    1  0.2603554E-024  0.7975624E+02  0.7818608E-02  0.1329745E+00
          2   -1    0    0  501    0  0.00000000000E+00  0.00000000000E+00  0.35097235199E+03  0.35097235200E+03  0.25500000000E-02 0. -1.
         -1   -1    0    0    0  501 -0.00000000000E+00 -0.00000000000E+00 -0.45310238211E+01  0.45310266241E+01  0.50400000000E-02 0.  1.
         24    2    1    2    0    0  0.00000000000E+00  0.88817841970E-15  0.34644132817E+03  0.35550337862E+03  0.79756243324E+02 0.  0.
         66    2    3    3    0    0  0.39023861191E+02 -0.67531172391E+01  0.19315998731E+03  0.19718835422E+03  0.20000011573E+01 0.  0.
        -13    1    3    3    0    0 -0.39023861191E+02  0.67531172391E+01  0.15328134085E+03  0.15831502441E+03  0.10566000000E+00 0.  1.
         13    1    4    4    0    0  0.57886779176E+01 -0.10664823073E+01  0.27615113934E+02  0.28235648712E+02  0.10566000000E+00 0. -1.
        -13    1    4    4    0    0  0.25960637147E+01 -0.11623062940E+00  0.11276201812E+02  0.11572249035E+02  0.10566000000E+00 0.  1.
         14    1    4    4    0    0  0.30639119559E+02 -0.55704043024E+01  0.15426867157E+03  0.15738045647E+03  0.00000000000E+00 0. -1.
<mgrwt>
<rscale>  0 0.79756243E+02</rscale>
<asrwt>0</asrwt>
<pdfrwt beam="1">  1        2 0.53995756E-01 0.79756243E+02</pdfrwt>
<pdfrwt beam="2">  1       -1 0.69708068E-03 0.79756243E+02</pdfrwt>
<totfact> 0.27192508E+05</totfact>
</mgrwt>
</event>
<event>
 8    1  0.2603554E-024  0.8185724E+02  0.7818608E-02  0.1323862E+00
         -1   -1    0    0    0  501 -0.00000000000E+00  0.00000000000E+00  0.74836866403E+01  0.74836883375E+01  0.50400000000E-02 0.  1.
          2   -1    0    0  501    0  0.00000000000E+00 -0.00000000000E+00 -0.22384045433E+03  0.22384045435E+03  0.25500000000E-02 0. -1.
         24    2    1    2    0    0  0.00000000000E+00  0.00000000000E+00 -0.21635676769E+03  0.23132414268E+03  0.81857241967E+02 0.  0.
         66    2    3    3    0    0  0.22197415456E+02 -0.93405525755E+01 -0.20167762661E+03  0.20312025071E+03  0.19999999940E+01 0.  0.
        -13    1    3    3    0    0 -0.22197415456E+02  0.93405525755E+01 -0.14679141083E+02  0.28203891971E+02  0.10566000000E+00 0.  1.
         13    1    4    4    0    0  0.10675187124E+02 -0.41983348121E+01 -0.90882793405E+02  0.91603924242E+02  0.10566000000E+00 0. -1.
        -13    1    4    4    0    0  0.26097896611E+00  0.76908913197E-02 -0.25451517706E+01  0.25606895051E+01  0.10566000000E+00 0.  1.
        -14    1    4    4    0    0  0.11261249366E+02 -0.51499086548E+01 -0.10824968143E+03  0.10895563697E+03  0.00000000000E+00 0.  1.
<mgrwt>
<rscale>  0 0.81857242E+02</rscale>
<asrwt>0</asrwt>
<pdfrwt beam="1">  1        2 0.34436988E-01 0.81857242E+02</pdfrwt>
<pdfrwt beam="2">  1       -1 0.11513367E-02 0.81857242E+02</pdfrwt>
<totfact> 0.21599678E+05</totfact>
</mgrwt>
</event>
<event>
 8    1  0.2603554E-024  0.8255170E+02  0.7818608E-02  0.1321962E+00
          2   -1    0    0  501    0  0.00000000000E+00  0.00000000000E+00  0.15585753073E+03  0.15585753075E+03  0.25500000000E-02 0. -1.
         -1   -1    0    0    0  501 -0.00000000000E+00 -0.00000000000E+00 -0.10931108323E+02  0.10931109485E+02  0.50400000000E-02 0.  1.
         24    2    1    2    0    0 -0.44408920985E-15  0.00000000000E+00  0.14492642241E+03  0.16678864023E+03  0.82551696529E+02 0.  0.
         66    2    3    3    0    0  0.23524231857E+01  0.22111403835E+02  0.14270572647E+03  0.14444158833E+03  0.19999994061E+01 0.  0.
        -13    1    3    3    0    0 -0.23524231857E+01 -0.22111403835E+02  0.22206959373E+01  0.22347051905E+02  0.10566000000E+00 0.  1.
         13    1    4    4    0    0  0.16122409880E+00  0.35003338532E+01  0.20810221627E+02  0.21103431439E+02  0.10566000000E+00 0. -1.
        -13    1    4    4    0    0  0.80111328267E+00  0.22866578173E+01  0.15418598342E+02  0.15608168545E+02  0.10566000000E+00 0.  1.
         14    1    4    4    0    0  0.13900858042E+01  0.16324412164E+02  0.10647690650E+03  0.10772998835E+03  0.00000000000E+00 0. -1.
<mgrwt>
<rscale>  0 0.82551697E+02</rscale>
<asrwt>0</asrwt>
<pdfrwt beam="1">  1        2 0.23978081E-01 0.82551697E+02</pdfrwt>
<pdfrwt beam="2">  1       -1 0.16817091E-02 0.82551697E+02</pdfrwt>
<totfact> 0.18657597E+05</totfact>
</mgrwt>
</event>
<event>
 8    1  0.2603554E-024  0.7870475E+02  0.7818608E-02  0.1332768E+00
          2   -1    0    0  501    0  0.00000000000E+00  0.00000000000E+00  0.12263727822E+03  0.12263727825E+03  0.25500000000E-02 0. -1.
         -1   -1    0    0    0  501 -0.00000000000E+00 -0.00000000000E+00 -0.12627556640E+02  0.12627557646E+02  0.50400000000E-02 0.  1.
         24    2    1    2    0    0 -0.35527136788E-14  0.00000000000E+00  0.11000972158E+03  0.13526483589E+03  0.78704745646E+02 0.  0.
         66    2    3    3    0    0  0.19075142145E+02 -0.73546844433E+01  0.11277858067E+03  0.11463402942E+03  0.20000029136E+01 0.  0.
        -13    1    3    3    0    0 -0.19075142145E+02  0.73546844433E+01 -0.27688590894E+01  0.20630806475E+02  0.10566000000E+00 0.  1.
         13    1    4    4    0    0  0.54816550654E+01 -0.30018600049E+01  0.35684331087E+02  0.36227646278E+02  0.10566000000E+00 0. -1.
        -13    1    4    4    0    0  0.87265914527E+01 -0.30417107872E+01  0.49313489978E+02  0.50172072518E+02  0.10566000000E+00 0.  1.
         14    1    4    4    0    0  0.48668956274E+01 -0.13111136512E+01  0.27780759605E+02  0.28234310621E+02  0.00000000000E+00 0. -1.
<mgrwt>
<rscale>  0 0.78704746E+02</rscale>
<asrwt>0</asrwt>
<pdfrwt beam="1">  1        2 0.18867274E-01 0.78704746E+02</pdfrwt>
<pdfrwt beam="2">  1       -1 0.19427011E-02 0.78704746E+02</pdfrwt>
<totfact> 0.19644551E+05</totfact>
</mgrwt>
</event>
<event>
 8    1  0.2603554E-024  0.7927524E+02  0.7818608E-02  0.1331121E+00
         -1   -1    0    0    0  501 -0.00000000000E+00  0.00000000000E+00  0.22035197640E+01  0.22035255278E+01  0.50400000000E-02 0.  1.
          2   -1    0    0  501    0  0.00000000000E+00 -0.00000000000E+00 -0.71301324683E+03  0.71301324684E+03  0.25500000000E-02 0. -1.
         24    2    1    2    0    0  0.17763568394E-14  0.00000000000E+00 -0.71080972707E+03  0.71521677237E+03  0.79275238107E+02 0.  0.
         66    2    3    3    0    0 -0.11389165879E+02 -0.84258514691E+01 -0.68937260862E+03  0.68952106682E+03  0.19999977353E+01 0.  0.
        -13    1    3    3    0    0  0.11389165879E+02  0.84258514691E+01 -0.21437118448E+02  0.25695705551E+02  0.10566000000E+00 0.  1.
         13    1    4    4    0    0 -0.13737740983E+01 -0.15784681346E+01 -0.93243603434E+02  0.93267140850E+02  0.10566000000E+00 0.  1.
        -13    1    4    4    0    0 -0.61236877003E+01 -0.42230613586E+01 -0.33335902811E+03  0.33344202882E+03  0.10566000000E+00 0. -1.
        -14    1    4    4    0    0 -0.38917040803E+01 -0.26243219759E+01 -0.26276997708E+03  0.26281189714E+03  0.00000000000E+00 0.  1.
<mgrwt>
<rscale>  0 0.79275238E+02</rscale>
<asrwt>0</asrwt>
<pdfrwt beam="1">  1        2 0.10969416E+00 0.79275238E+02</pdfrwt>
<pdfrwt beam="2">  1       -1 0.33900405E-03 0.79275238E+02</pdfrwt>
<totfact> 0.34394556E+05</totfact>
</mgrwt>
</event>
<event>
 8    1  0.2603554E-024  0.7870850E+02  0.7818608E-02  0.1332757E+00
         -1   -1    0    0    0  501 -0.00000000000E+00  0.00000000000E+00  0.35557654308E+02  0.35557654665E+02  0.50400000000E-02 0.  1.
          2   -1    0    0  501    0  0.00000000000E+00 -0.00000000000E+00 -0.43556224417E+02  0.43556224492E+02  0.25500000000E-02 0. -1.
         24    2    1    2    0    0  0.35527136788E-14  0.00000000000E+00 -0.79985701091E+01  0.79113879157E+02  0.78708504950E+02 0.  0.
         66    2    3    3    0    0  0.29312680156E+02 -0.97905323523E-01 -0.30357304669E+02  0.42246997290E+02  0.20000074715E+01 0.  0.
        -13    1    3    3    0    0 -0.29312680156E+02  0.97905323523E-01  0.22358734560E+02  0.36866881866E+02  0.10566000000E+00 0.  1.
         13    1    4    4    0    0  0.13262065150E+01  0.24556011372E+00 -0.12118936816E+01  0.18163077441E+01  0.10566000000E+00 0. -1.
        -13    1    4    4    0    0  0.64475670355E+01  0.15150314722E+00 -0.74686719999E+01  0.98684496938E+01  0.10566000000E+00 0.  1.
         14    1    4    4    0    0  0.21538906605E+02 -0.49496858446E+00 -0.21676738988E+02  0.30562239853E+02  0.00000000000E+00 0. -1.
<mgrwt>
<rscale>  0 0.78708505E+02</rscale>
<asrwt>0</asrwt>
<pdfrwt beam="1">  1        2 0.67009576E-02 0.78708505E+02</pdfrwt>
<pdfrwt beam="2">  1       -1 0.54704084E-02 0.78708505E+02</pdfrwt>
<totfact> 0.15173737E+05</totfact>
</mgrwt>
</event>
<event>
 8    1  0.2603554E-024  0.8065384E+02  0.7818608E-02  0.1327206E+00
         -1   -1    0    0    0  501 -0.00000000000E+00  0.00000000000E+00  0.15306112842E+03  0.15306112851E+03  0.50400000000E-02 0.  1.
          2   -1    0    0  501    0  0.00000000000E+00 -0.00000000000E+00 -0.10624908403E+02  0.10624908709E+02  0.25500000000E-02 0. -1.
         24    2    1    2    0    0  0.00000000000E+00  0.00000000000E+00  0.14243622002E+03  0.16368603722E+03  0.80653840614E+02 0.  0.
         66    2    3    3    0    0 -0.20316925751E+01  0.39429993030E+02  0.87674735130E+02  0.96175419411E+02  0.19999983814E+01 0.  0.
        -13    1    3    3    0    0  0.20316925751E+01 -0.39429993030E+02  0.54761484889E+02  0.67510617805E+02  0.10566000000E+00 0.  1.
         13    1    4    4    0    0 -0.16726534393E+01  0.35836184544E+02  0.80190463467E+02  0.87849595829E+02  0.10566000000E+00 0. -1.
        -13    1    4    4    0    0  0.10156270522E+00  0.12597562778E+01  0.26522526260E+01  0.29398824620E+01  0.10566000000E+00 0.  1.
         14    1    4    4    0    0 -0.46060184104E+00  0.23340522083E+01  0.48320190376E+01  0.53859411198E+01  0.00000000000E+00 0. -1.
<mgrwt>
<rscale>  0 0.80653841E+02</rscale>
<asrwt>0</asrwt>
<pdfrwt beam="1">  1        2 0.16346014E-02 0.80653841E+02</pdfrwt>
<pdfrwt beam="2">  1       -1 0.23547865E-01 0.80653841E+02</pdfrwt>
<totfact> 0.10512888E+05</totfact>
</mgrwt>
</event>
<event>
 8    1  0.2603554E-024  0.8183002E+02  0.7818608E-02  0.1323937E+00
         -1   -1    0    0    0  501 -0.00000000000E+00  0.00000000000E+00  0.16772036343E+03  0.16772036350E+03  0.50400000000E-02 0.  1.
          2   -1    0    0  501    0  0.00000000000E+00 -0.00000000000E+00 -0.99811259940E+01  0.99811263197E+01  0.25500000000E-02 0. -1.
         24    2    1    2    0    0  0.00000000000E+00  0.97144514655E-16  0.15773923743E+03  0.17770148982E+03  0.81830021747E+02 0.  0.
         66    2    3    3    0    0  0.40795326350E+02  0.65586770491E-01  0.72863279984E+02  0.83530356928E+02  0.20000012205E+01 0.  0.
        -13    1    3    3    0    0 -0.40795326350E+02 -0.65586770491E-01  0.84875957448E+02  0.94171132893E+02  0.10566000000E+00 0.  1.
         13    1    4    4    0    0  0.22565729176E+02  0.46142079891E+00  0.41108913386E+02  0.46897536889E+02  0.10566000000E+00 0. -1.
        -13    1    4    4    0    0  0.35615299417E+01 -0.37434736794E+00  0.56674047690E+01  0.67048692999E+01  0.10566000000E+00 0.  1.
        -14    1    4    4    0    0  0.14668067232E+02 -0.21486660478E-01  0.26086961829E+02  0.29927950739E+02  0.00000000000E+00 0.  1.
<mgrwt>
<rscale>  0 0.81830022E+02</rscale>
<asrwt>0</asrwt>
<pdfrwt beam="1">  1        2 0.15355579E-02 0.81830022E+02</pdfrwt>
<pdfrwt beam="2">  1       -1 0.25803133E-01 0.81830022E+02</pdfrwt>
<totfact> 0.98914355E+04</totfact>
</mgrwt>
</event>
<event>
 8    1  0.2603554E-024  0.7808621E+02  0.7818608E-02  0.1334572E+00
         -1   -1    0    0    0  501 -0.00000000000E+00  0.00000000000E+00  0.27314023977E+02  0.27314024442E+02  0.50400000000E-02 0.  1.
          2   -1    0    0  501    0  0.00000000000E+00 -0.00000000000E+00 -0.55808840433E+02  0.55808840491E+02  0.25500000000E-02 0. -1.
         24    2    1    2    0    0  0.00000000000E+00 -0.44408920985E-15 -0.28494816456E+02  0.83122864933E+02  0.78086209472E+02 0.  0.
         66    2    3    3    0    0 -0.20745737568E+02  0.23995115198E+01 -0.49340334533E+02  0.53615407050E+02  0.19999946304E+01 0.  0.
        -13    1    3    3    0    0  0.20745737568E+02 -0.23995115198E+01  0.20845518077E+02  0.29507457883E+02  0.10566000000E+00 0.  1.
         13    1    4    4    0    0 -0.50175955673E+01  0.12233796576E+01 -0.11979574956E+02  0.13045853871E+02  0.10566000000E+00 0. -1.
        -13    1    4    4    0    0 -0.11474697652E+02  0.11786813174E+01 -0.28268434842E+02  0.30531517295E+02  0.10566000000E+00 0.  1.
        -14    1    4    4    0    0 -0.42534443488E+01 -0.25494552166E-02 -0.90923247345E+01  0.10038035884E+02  0.00000000000E+00 0.  1.
<mgrwt>
<rscale>  0 0.78086209E+02</rscale>
<asrwt>0</asrwt>
<pdfrwt beam="1">  1        2 0.85859754E-02 0.78086209E+02</pdfrwt>
<pdfrwt beam="2">  1       -1 0.42021576E-02 0.78086209E+02</pdfrwt>
<totfact> 0.16354863E+05</totfact>
</mgrwt>
</event>
<event>
 8    1  0.2603554E-024  0.7876084E+02  0.7818608E-02  0.1332605E+00
         -1   -1    0    0    0  501 -0.00000000000E+00  0.00000000000E+00  0.15224807901E+03  0.15224807909E+03  0.50400000000E-02 0.  1.
          2   -1    0    0  501    0  0.00000000000E+00 -0.00000000000E+00 -0.10186121406E+02  0.10186121725E+02  0.25500000000E-02 0. -1.
         24    2    1    2    0    0  0.00000000000E+00 -0.35527136788E-14  0.14206195760E+03  0.16243420082E+03  0.78760839235E+02 0.  0.
         66    2    3    3    0    0  0.63922683440E+01  0.25635643357E+02  0.10921616234E+02  0.28658838350E+02  0.20000023787E+01 0.  0.
        -13    1    3    3    0    0 -0.63922683440E+01 -0.25635643357E+02  0.13114034137E+03  0.13377536247E+03  0.10566000000E+00 0.  1.
         13    1    4    4    0    0  0.42010599107E+01  0.17662202375E+02  0.77736923862E+01  0.19749525424E+02  0.10566000000E+00 0. -1.
        -13    1    4    4    0    0  0.11518605892E+01  0.53878719162E+01  0.16878547030E+01  0.57633292580E+01  0.10566000000E+00 0.  1.
         14    1    4    4    0    0  0.10393478441E+01  0.25855690650E+01  0.14600691450E+01  0.31459836680E+01  0.00000000000E+00 0. -1.
<mgrwt>
<rscale>  0 0.78760839E+02</rscale>
<asrwt>0</asrwt>
<pdfrwt beam="1">  1        2 0.15670957E-02 0.78760839E+02</pdfrwt>
<pdfrwt beam="2">  1       -1 0.23422780E-01 0.78760839E+02</pdfrwt>
<totfact> 0.11178852E+05</totfact>
</mgrwt>
</event>
<event>
 8    1  0.2603554E-024  0.8035296E+02  0.7818608E-02  0.1328053E+00
          2   -1    0    0  501    0  0.00000000000E+00  0.00000000000E+00  0.22634351669E+03  0.22634351671E+03  0.25500000000E-02 0. -1.
         -1   -1    0    0    0  501 -0.00000000000E+00 -0.00000000000E+00 -0.71314139723E+01  0.71314157533E+01  0.50400000000E-02 0.  1.
         24    2    1    2    0    0  0.71054273576E-14 -0.35527136788E-14  0.21921210272E+03  0.23347493246E+03  0.80352959549E+02 0.  0.
         66    2    3    3    0    0 -0.24322547548E+02  0.26188644652E+02  0.16283251496E+03  0.16672090256E+03  0.19999985713E+01 0.  0.
        -13    1    3    3    0    0  0.24322547548E+02 -0.26188644652E+02  0.56379587762E+02  0.66754029902E+02  0.10566000000E+00 0.  1.
         13    1    4    4    0    0 -0.76494135638E+00  0.10911271139E+01  0.59354380139E+01  0.60841007643E+01  0.10566000000E+00 0. -1.
        -13    1    4    4    0    0 -0.31887451288E+00  0.27585649247E+00  0.27465042849E+01  0.27806883288E+01  0.10566000000E+00 0.  1.
         14    1    4    4    0    0 -0.23238731678E+02  0.24821661045E+02  0.15415057266E+03  0.15785611347E+03  0.00000000000E+00 0. -1.
<mgrwt>
<rscale>  0 0.80352960E+02</rscale>
<asrwt>0</asrwt>
<pdfrwt beam="1">  1        2 0.34822085E-01 0.80352960E+02</pdfrwt>
<pdfrwt beam="2">  1       -1 0.10971406E-02 0.80352960E+02</pdfrwt>
<totfact> 0.22772052E+05</totfact>
</mgrwt>
</event>
<event>
 8    1  0.2603554E-024  0.8360369E+02  0.7818608E-02  0.1319125E+00
         -1   -1    0    0    0  501 -0.00000000000E+00  0.00000000000E+00  0.58605496579E+01  0.58605518250E+01  0.50400000000E-02 0.  1.
          2   -1    0    0  501    0  0.00000000000E+00 -0.00000000000E+00 -0.29816211262E+03  0.29816211263E+03  0.25500000000E-02 0. -1.
         24    2    1    2    0    0  0.88817841970E-15 -0.71054273576E-14 -0.29230156296E+03  0.30402266446E+03  0.83603688871E+02 0.  0.
         66    2    3    3    0    0  0.72321546769E+01 -0.36270141654E+02 -0.21689434943E+03  0.22003405657E+03  0.20000004729E+01 0.  0.
        -13    1    3    3    0    0 -0.72321546769E+01  0.36270141654E+02 -0.75407213537E+02  0.83988607884E+02  0.10566000000E+00 0.  1.
         13    1    4    4    0    0  0.24025679418E+01 -0.11838183265E+02 -0.72720913603E+02  0.73717415547E+02  0.10566000000E+00 0. -1.
        -13    1    4    4    0    0  0.76327306786E+00 -0.71192622531E+01 -0.42959772355E+02  0.43552493449E+02  0.10566000000E+00 0.  1.
        -14    1    4    4    0    0  0.40663136672E+01 -0.17312696137E+02 -0.10121366347E+03  0.10276414758E+03  0.00000000000E+00 0.  1.
<mgrwt>
<rscale>  0 0.83603689E+02</rscale>
<asrwt>0</asrwt>
<pdfrwt beam="1">  1        2 0.45871083E-01 0.83603689E+02</pdfrwt>
<pdfrwt beam="2">  1       -1 0.90162342E-03 0.83603689E+02</pdfrwt>
<totfact> 0.22656701E+05</totfact>
</mgrwt>
</event>
<event>
 8    1  0.2603554E-024  0.7570091E+02  0.7818608E-02  0.1341714E+00
         -1   -1    0    0    0  501 -0.00000000000E+00  0.00000000000E+00  0.82953940544E+01  0.82953955854E+01  0.50400000000E-02 0.  1.
          2   -1    0    0  501    0  0.00000000000E+00 -0.00000000000E+00 -0.17270508775E+03  0.17270508777E+03  0.25500000000E-02 0. -1.
         24    2    1    2    0    0  0.00000000000E+00  0.00000000000E+00 -0.16440969370E+03  0.18100048335E+03  0.75700908802E+02 0.  0.
         66    2    3    3    0    0 -0.24486859721E+02 -0.15165016053E+02 -0.14088134129E+03  0.14380937498E+03  0.19999996587E+01 0.  0.
        -13    1    3    3    0    0  0.24486859721E+02  0.15165016053E+02 -0.23528352407E+02  0.37191108371E+02  0.10566000000E+00 0.  1.
         13    1    4    4    0    0 -0.17348961234E+02 -0.10055104569E+02 -0.94871872053E+02  0.96967906313E+02  0.10566000000E+00 0. -1.
        -13    1    4    4    0    0 -0.29299569929E+01 -0.18584113337E+01 -0.17993859962E+02  0.18325624165E+02  0.10566000000E+00 0.  1.
         14    1    4    4    0    0 -0.42079414949E+01 -0.32515001503E+01 -0.28015609274E+02  0.28515844505E+02  0.00000000000E+00 0. -1.
<mgrwt>
<rscale>  0 0.75700909E+02</rscale>
<asrwt>0</asrwt>
<pdfrwt beam="1">  1        2 0.26570011E-01 0.75700909E+02</pdfrwt>
<pdfrwt beam="2">  1       -1 0.12762147E-02 0.75700909E+02</pdfrwt>
<totfact> 0.24270865E+05</totfact>
</mgrwt>
</event>
<event>
 8    1  0.2603554E-024  0.7925736E+02  0.7818608E-02  0.1331172E+00
         -1   -1    0    0    0  501 -0.00000000000E+00  0.00000000000E+00  0.40745305086E+02  0.40745305397E+02  0.50400000000E-02 0.  1.
          2   -1    0    0  501    0  0.00000000000E+00 -0.00000000000E+00 -0.38542652864E+02  0.38542652948E+02  0.25500000000E-02 0. -1.
         24    2    1    2    0    0  0.88817841970E-15  0.17763568394E-14  0.22026522222E+01  0.79287958345E+02  0.79257357146E+02 0.  0.
         66    2    3    3    0    0 -0.66798913115E+01  0.10772451030E+02 -0.36432596394E+02  0.38626425556E+02  0.20000055269E+01 0.  0.
        -13    1    3    3    0    0  0.66798913115E+01 -0.10772451030E+02  0.38635248616E+02  0.40661532789E+02  0.10566000000E+00 0.  1.
         13    1    4    4    0    0 -0.42250049502E+01  0.55848710845E+01 -0.20625549508E+02  0.21782238370E+02  0.10566000000E+00 0. -1.
        -13    1    4    4    0    0 -0.21357349804E+01  0.35869975878E+01 -0.11820993887E+02  0.12536944448E+02  0.10566000000E+00 0.  1.
        -14    1    4    4    0    0 -0.31915138095E+00  0.16005823581E+01 -0.39860529988E+01  0.43072427373E+01  0.00000000000E+00 0.  1.
<mgrwt>
<rscale>  0 0.79257357E+02</rscale>
<asrwt>0</asrwt>
<pdfrwt beam="1">  1        2 0.59296389E-02 0.79257357E+02</pdfrwt>
<pdfrwt beam="2">  1       -1 0.62685085E-02 0.79257357E+02</pdfrwt>
<totfact> 0.14517157E+05</totfact>
</mgrwt>
</event>
<event>
 8    1  0.2603554E-024  0.7426528E+02  0.7818608E-02  0.1346161E+00
         -1   -1    0    0    0  501 -0.00000000000E+00  0.00000000000E+00  0.12916319104E+03  0.12916319114E+03  0.50400000000E-02 0.  1.
          2   -1    0    0  501    0  0.00000000000E+00 -0.00000000000E+00 -0.10675123848E+02  0.10675124152E+02  0.25500000000E-02 0. -1.
         24    2    1    2    0    0  0.00000000000E+00  0.00000000000E+00  0.11848806719E+03  0.13983831529E+03  0.74265283656E+02 0.  0.
         66    2    3    3    0    0  0.23915073017E+02 -0.50668868900E+00  0.58745708932E+01  0.24712305356E+02  0.20000005020E+01 0.  0.
        -13    1    3    3    0    0 -0.23915073017E+02  0.50668868900E+00  0.11261349630E+03  0.11512600994E+03  0.10566000000E+00 0.  1.
         13    1    4    4    0    0  0.18394681560E+01 -0.77270564300E-01  0.18762002911E-01  0.18442152492E+01  0.10566000000E+00 0. -1.
        -13    1    4    4    0    0  0.18231618995E+02 -0.11533925526E+00  0.44944889064E+01  0.18778094389E+02  0.10566000000E+00 0.  1.
        -14    1    4    4    0    0  0.38439858657E+01 -0.31407886944E+00  0.13613199839E+01  0.40899957177E+01  0.00000000000E+00 0.  1.
<mgrwt>
<rscale>  0 0.74265284E+02</rscale>
<asrwt>0</asrwt>
<pdfrwt beam="1">  1        2 0.16423267E-02 0.74265284E+02</pdfrwt>
<pdfrwt beam="2">  1       -1 0.19871261E-01 0.74265284E+02</pdfrwt>
<totfact> 0.13491274E+05</totfact>
</mgrwt>
</event>
<event>
 8    1  0.2603554E-024  0.8147466E+02  0.7818608E-02  0.1324918E+00
          2   -1    0    0  501    0  0.00000000000E+00  0.00000000000E+00  0.17269811456E+02  0.17269811645E+02  0.25500000000E-02 0. -1.
         -1   -1    0    0    0  501 -0.00000000000E+00 -0.00000000000E+00 -0.96094282888E+02  0.96094283020E+02  0.50400000000E-02 0.  1.
         24    2    1    2    0    0  0.35527136788E-14  0.00000000000E+00 -0.78824471432E+02  0.11336409466E+03  0.81474662704E+02 0.  0.
         66    2    3    3    0    0 -0.18957076289E+02  0.15815058012E+02  0.56085582980E+01  0.25395722651E+02  0.20000003617E+01 0.  0.
        -13    1    3    3    0    0  0.18957076289E+02 -0.15815058012E+02 -0.84433029730E+02  0.87968372014E+02  0.10566000000E+00 0.  1.
         13    1    4    4    0    0 -0.78914728125E+01  0.64712124522E+01  0.18965318503E+01  0.10380748087E+02  0.10566000000E+00 0. -1.
        -13    1    4    4    0    0 -0.65474073875E+01  0.63928129531E+01  0.22512585919E+01  0.94242204046E+01  0.10566000000E+00 0.  1.
        -14    1    4    4    0    0 -0.45181960890E+01  0.29510326066E+01  0.14607678558E+01  0.55907541595E+01  0.00000000000E+00 0.  1.
<mgrwt>
<rscale>  0 0.81474663E+02</rscale>
<asrwt>0</asrwt>
<pdfrwt beam="1">  1        2 0.26568941E-02 0.81474663E+02</pdfrwt>
<pdfrwt beam="2">  1       -1 0.14783736E-01 0.81474663E+02</pdfrwt>
<totfact> 0.11422891E+05</totfact>
</mgrwt>
</event>
<event>
 8    1  0.2603554E-024  0.7818449E+02  0.7818608E-02  0.1334284E+00
          2   -1    0    0  501    0  0.00000000000E+00  0.00000000000E+00  0.80585883173E+03  0.80585883173E+03  0.25500000000E-02 0. -1.
         -1   -1    0    0    0  501 -0.00000000000E+00 -0.00000000000E+00 -0.18963628751E+01  0.18963695725E+01  0.50400000000E-02 0.  1.
         24    2    1    2    0    0  0.00000000000E+00  0.35527136788E-14  0.80396246885E+03  0.80775520130E+03  0.78184486379E+02 0.  0.
         66    2    3    3    0    0 -0.81505599669E+01  0.27012523678E+02  0.68139989752E+03  0.68198675090E+03  0.19999974130E+01 0.  0.
        -13    1    3    3    0    0  0.81505599669E+01 -0.27012523678E+02  0.12256257133E+03  0.12576845041E+03  0.10566000000E+00 0.  1.
         13    1    4    4    0    0 -0.39168334020E+01  0.11710044612E+02  0.30230436763E+03  0.30255645520E+03  0.10566000000E+00 0. -1.
        -13    1    4    4    0    0 -0.31354878859E+01  0.11056911536E+02  0.25951988866E+03  0.25977426807E+03  0.10566000000E+00 0.  1.
         14    1    4    4    0    0 -0.10982386790E+01  0.42455675299E+01  0.11957564124E+03  0.11965602763E+03  0.00000000000E+00 0. -1.
<mgrwt>
<rscale>  0 0.78184486E+02</rscale>
<asrwt>0</asrwt>
<pdfrwt beam="1">  1        2 0.12397814E+00 0.78184486E+02</pdfrwt>
<pdfrwt beam="2">  1       -1 0.29174899E-03 0.78184486E+02</pdfrwt>
<totfact> 0.36520064E+05</totfact>
</mgrwt>
</event>
<event>
 8    1  0.2603554E-024  0.7315114E+02  0.7818608E-02  0.1349694E+00
          2   -1    0    0  501    0  0.00000000000E+00  0.00000000000E+00  0.13473477179E+03  0.13473477181E+03  0.25500000000E-02 0. -1.
         -1   -1    0    0    0  501 -0.00000000000E+00 -0.00000000000E+00 -0.99289311132E+01  0.99289323924E+01  0.50400000000E-02 0.  1.
         24    2    1    2    0    0  0.35527136788E-14 -0.71054273576E-14  0.12480584067E+03  0.14466370420E+03  0.73151141123E+02 0.  0.
         66    2    3    3    0    0 -0.16290912990E+02  0.30138549434E+02  0.37275471986E+02  0.50667413773E+02  0.19999996622E+01 0.  0.
        -13    1    3    3    0    0  0.16290912990E+02 -0.30138549434E+02  0.87530368688E+02  0.93996290431E+02  0.10566000000E+00 0.  1.
         13    1    4    4    0    0 -0.33095239631E+01  0.62582937224E+01  0.85616137141E+01  0.11109976715E+02  0.10566000000E+00 0.  1.
        -13    1    4    4    0    0 -0.78530077884E+01  0.14634418776E+02  0.18397959015E+02  0.24785721780E+02  0.10566000000E+00 0. -1.
        -14    1    4    4    0    0 -0.51283812385E+01  0.92458369354E+01  0.10315899257E+02  0.14771715278E+02  0.00000000000E+00 0.  1.
<mgrwt>
<rscale>  0 0.73151141E+02</rscale>
<asrwt>0</asrwt>
<pdfrwt beam="1">  1        2 0.20728425E-01 0.73151141E+02</pdfrwt>
<pdfrwt beam="2">  1       -1 0.15275281E-02 0.73151141E+02</pdfrwt>
<totfact> 0.24530239E+05</totfact>
</mgrwt>
</event>
<event>
 8    1  0.2603554E-024  0.7896395E+02  0.7818608E-02  0.1332018E+00
         -1   -1    0    0    0  501 -0.00000000000E+00  0.00000000000E+00  0.50310981293E+01  0.50311006538E+01  0.50400000000E-02 0.  1.
          2   -1    0    0  501    0  0.00000000000E+00 -0.00000000000E+00 -0.30983809070E+03  0.30983809071E+03  0.25500000000E-02 0. -1.
         24    2    1    2    0    0  0.00000000000E+00  0.00000000000E+00 -0.30480699257E+03  0.31486919137E+03  0.78963947156E+02 0.  0.
         66    2    3    3    0    0 -0.24805430035E+02  0.28852993607E+01 -0.27431175225E+03  0.27545339304E+03  0.20000002650E+01 0.  0.
        -13    1    3    3    0    0  0.24805430035E+02 -0.28852993607E+01 -0.30495240322E+02  0.39415798330E+02  0.10566000000E+00 0.  1.
         13    1    4    4    0    0 -0.47228922051E+01  0.23301845847E+00 -0.47922231783E+02  0.48155077318E+02  0.10566000000E+00 0. -1.
        -13    1    4    4    0    0 -0.98678780492E+01  0.60511841667E+00 -0.11113984106E+03  0.11157874627E+03  0.10566000000E+00 0.  1.
         14    1    4    4    0    0 -0.10214659781E+02  0.20471624856E+01 -0.11524967941E+03  0.11571956945E+03  0.00000000000E+00 0. -1.
<mgrwt>
<rscale>  0 0.78963947E+02</rscale>
<asrwt>0</asrwt>
<pdfrwt beam="1">  1        2 0.47667384E-01 0.78963947E+02</pdfrwt>
<pdfrwt beam="2">  1       -1 0.77401554E-03 0.78963947E+02</pdfrwt>
<totfact> 0.26689637E+05</totfact>
</mgrwt>
</event>
<event>
 8    1  0.2603554E-024  0.7703222E+02  0.7818608E-02  0.1337691E+00
         -1   -1    0    0    0  501 -0.00000000000E+00  0.00000000000E+00  0.91999053508E+01  0.91999067314E+01  0.50400000000E-02 0.  1.
          2   -1    0    0  501    0  0.00000000000E+00 -0.00000000000E+00 -0.16125062161E+03  0.16125062163E+03  0.25500000000E-02 0. -1.
         24    2    1    2    0    0 -0.22204460493E-15 -0.71054273576E-14 -0.15205071626E+03  0.17045052836E+03  0.77032216012E+02 0.  0.
         66    2    3    3    0    0 -0.10673604399E+01  0.27353147188E+02 -0.13594884060E+03  0.13869182116E+03  0.20000190686E+01 0.  0.
        -13    1    3    3    0    0  0.10673604399E+01 -0.27353147188E+02 -0.16101875656E+02  0.31758707201E+02  0.10566000000E+00 0.  1.
         13    1    4    4    0    0 -0.32721778516E+00  0.13315993387E+01 -0.69310754028E+01  0.70662011401E+01  0.10566000000E+00 0. -1.
        -13    1    4    4    0    0 -0.70564203245E+00  0.11957701869E+02 -0.56284722367E+02  0.57545336046E+02  0.10566000000E+00 0.  1.
         14    1    4    4    0    0 -0.34500622323E-01  0.14063845980E+02 -0.72733042831E+02  0.74080283973E+02  0.00000000000E+00 0. -1.
<mgrwt>
<rscale>  0 0.77032216E+02</rscale>
<asrwt>0</asrwt>
<pdfrwt beam="1">  1        2 0.24807786E-01 0.77032216E+02</pdfrwt>
<pdfrwt beam="2">  1       -1 0.14153703E-02 0.77032216E+02</pdfrwt>
<totfact> 0.22663118E+05</totfact>
</mgrwt>
</event>
<event>
 8    1  0.2603554E-024  0.8116019E+02  0.7818608E-02  0.1325791E+00
         -1   -1    0    0    0  501 -0.00000000000E+00  0.00000000000E+00  0.35882711782E+01  0.35882747177E+01  0.50400000000E-02 0.  1.
          2   -1    0    0  501    0  0.00000000000E+00 -0.00000000000E+00 -0.45892389229E+03  0.45892389230E+03  0.25500000000E-02 0. -1.
         24    2    1    2    0    0  0.35527136788E-14 -0.17763568394E-14 -0.45533562111E+03  0.46251216701E+03  0.81160192110E+02 0.  0.
         66    2    3    3    0    0 -0.29713369881E+02  0.12792285082E+02 -0.36718802426E+03  0.36861575120E+03  0.19999921295E+01 0.  0.
        -13    1    3    3    0    0  0.29713369881E+02 -0.12792285082E+02 -0.88147596854E+02  0.93896415813E+02  0.10566000000E+00 0.  1.
         13    1    4    4    0    0 -0.10406486711E+02  0.52753721203E+01 -0.12946002392E+03  0.12998474323E+03  0.10566000000E+00 0.  1.
        -13    1    4    4    0    0 -0.12516942610E+02  0.43963927553E+01 -0.15288122767E+03  0.15345580165E+03  0.10566000000E+00 0. -1.
         14    1    4    4    0    0 -0.67899405597E+01  0.31205202063E+01 -0.84846772668E+02  0.85175206319E+02  0.00000000000E+00 0. -1.
<mgrwt>
<rscale>  0 0.81160192E+02</rscale>
<asrwt>0</asrwt>
<pdfrwt beam="1">  1        2 0.70603629E-01 0.81160192E+02</pdfrwt>
<pdfrwt beam="2">  1       -1 0.55204236E-03 0.81160192E+02</pdfrwt>
<totfact> 0.28519952E+05</totfact>
</mgrwt>
</event>
<event>
 8    1  0.2603554E-024  0.7968792E+02  0.7818608E-02  0.1329939E+00
         -1   -1    0    0    0  501 -0.00000000000E+00  0.00000000000E+00  0.12899949714E+02  0.12899950699E+02  0.50400000000E-02 0.  1.
          2   -1    0    0  501    0  0.00000000000E+00 -0.00000000000E+00 -0.12306567030E+03  0.12306567033E+03  0.25500000000E-02 0. -1.
         24    2    1    2    0    0  0.00000000000E+00  0.00000000000E+00 -0.11016572059E+03  0.13596562102E+03  0.79687916954E+02 0.  0.
         66    2    3    3    0    0 -0.11098845751E+02  0.34210392778E+02 -0.84273504531E+02  0.91649107541E+02  0.19999990604E+01 0.  0.
        -13    1    3    3    0    0  0.11098845751E+02 -0.34210392778E+02 -0.25892216054E+02  0.44316513483E+02  0.10566000000E+00 0.  1.
         13    1    4    4    0    0 -0.61628911585E+01  0.16367512775E+02 -0.40642280768E+02  0.44245709983E+02  0.10566000000E+00 0. -1.
        -13    1    4    4    0    0 -0.20421199015E+00  0.95570584385E+00 -0.19796745878E+01  0.22102831733E+01  0.10566000000E+00 0. -1.
        -14    1    4    4    0    0 -0.47317426028E+01  0.16887174159E+02 -0.41651549175E+02  0.45193114385E+02  0.00000000000E+00 0.  1.
<mgrwt>
<rscale>  0 0.79687917E+02</rscale>
<asrwt>0</asrwt>
<pdfrwt beam="1">  1        2 0.18933179E-01 0.79687917E+02</pdfrwt>
<pdfrwt beam="2">  1       -1 0.19846078E-02 0.79687917E+02</pdfrwt>
<totfact> 0.19025956E+05</totfact>
</mgrwt>
</event>
<event>
 8    1  0.2603554E-024  0.7958572E+02  0.7818608E-02  0.1330231E+00
         -1   -1    0    0    0  501 -0.00000000000E+00  0.00000000000E+00  0.21190756499E+01  0.21190816434E+01  0.50400000000E-02 0.  1.
          2   -1    0    0  501    0  0.00000000000E+00 -0.00000000000E+00 -0.74724527412E+03  0.74724527413E+03  0.25500000000E-02 0. -1.
         24    2    1    2    0    0  0.00000000000E+00  0.00000000000E+00 -0.74512619847E+03  0.74936435577E+03  0.79585715105E+02 0.  0.
         66    2    3    3    0    0  0.27612634096E+02  0.22104011265E+02 -0.54395374509E+03  0.54510615632E+03  0.19999981666E+01 0.  0.
        -13    1    3    3    0    0 -0.27612634096E+02 -0.22104011265E+02 -0.20117245339E+03  0.20425819945E+03  0.10566000000E+00 0.  1.
         13    1    4    4    0    0  0.72177132197E+01  0.67496580287E+01 -0.15206587338E+03  0.15238666043E+03  0.10566000000E+00 0.  1.
        -13    1    4    4    0    0  0.15211375473E+02  0.11699107920E+02 -0.28945521057E+03  0.29009064991E+03  0.10566000000E+00 0. -1.
         14    1    4    4    0    0  0.51835454034E+01  0.36552453161E+01 -0.10243266113E+03  0.10262884598E+03  0.00000000000E+00 0. -1.
<mgrwt>
<rscale>  0 0.79585715E+02</rscale>
<asrwt>0</asrwt>
<pdfrwt beam="1">  1        2 0.11496060E+00 0.79585715E+02</pdfrwt>
<pdfrwt beam="2">  1       -1 0.32601270E-03 0.79585715E+02</pdfrwt>
<totfact> 0.34388210E+05</totfact>
</mgrwt>
</event>
<event>
 8    1  0.2603554E-024  0.7994732E+02  0.7818608E-02  0.1329201E+00
          2   -1    0    0  501    0  0.00000000000E+00  0.00000000000E+00  0.60631593992E+02  0.60631594046E+02  0.25500000000E-02 0. -1.
         -1   -1    0    0    0  501 -0.00000000000E+00 -0.00000000000E+00 -0.26354138271E+02  0.26354138753E+02  0.50400000000E-02 0.  1.
         24    2    1    2    0    0  0.00000000000E+00  0.00000000000E+00  0.34277455721E+02  0.86985732799E+02  0.79947318528E+02 0.  0.
         66    2    3    3    0    0  0.12112668396E+02  0.14561573734E+02  0.55418871861E+02  0.58600405502E+02  0.20000003658E+01 0.  0.
        -13    1    3    3    0    0 -0.12112668396E+02 -0.14561573734E+02 -0.21141416140E+02  0.28385327296E+02  0.10566000000E+00 0.  1.
         13    1    4    4    0    0  0.30482296749E+01  0.39028755210E+01  0.14000461030E+02  0.14850865785E+02  0.10566000000E+00 0. -1.
        -13    1    4    4    0    0  0.28154315365E+01  0.23439736087E+01  0.11950529953E+02  0.12499887888E+02  0.10566000000E+00 0.  1.
        -14    1    4    4    0    0  0.62490071849E+01  0.83147246043E+01  0.29467880878E+02  0.31249651830E+02  0.00000000000E+00 0.  1.
<mgrwt>
<rscale>  0 0.79947319E+02</rscale>
<asrwt>0</asrwt>
<pdfrwt beam="1">  1        2 0.93279373E-02 0.79947319E+02</pdfrwt>
<pdfrwt beam="2">  1       -1 0.40544830E-02 0.79947319E+02</pdfrwt>
<totfact> 0.15631933E+05</totfact>
</mgrwt>
</event>
<event>
 8    1  0.2603554E-024  0.8000514E+02  0.7818608E-02  0.1329037E+00
          2   -1    0    0  501    0  0.00000000000E+00  0.00000000000E+00  0.58527259740E+02  0.58527259796E+02  0.25500000000E-02 0. -1.
         -1   -1    0    0    0  501 -0.00000000000E+00 -0.00000000000E+00 -0.27341200639E+02  0.27341201103E+02  0.50400000000E-02 0.  1.
         24    2    1    2    0    0  0.35527136788E-14  0.00000000000E+00  0.31186059101E+02  0.85868460899E+02  0.80005139178E+02 0.  0.
         66    2    3    3    0    0  0.28344824739E+02  0.18346838495E+02  0.38576225773E+02  0.51304588145E+02  0.19999994177E+01 0.  0.
        -13    1    3    3    0    0 -0.28344824739E+02 -0.18346838495E+02 -0.73901666713E+01  0.34563872753E+02  0.10566000000E+00 0.  1.
         13    1    4    4    0    0  0.14223553251E+02  0.89458773607E+01  0.17859600063E+02  0.24521718277E+02  0.10566000000E+00 0.  1.
        -13    1    4    4    0    0  0.70945518276E+01  0.43909569430E+01  0.10312764215E+02  0.13265648808E+02  0.10566000000E+00 0. -1.
        -14    1    4    4    0    0  0.70267196609E+01  0.50100041908E+01  0.10403861495E+02  0.13517221060E+02  0.00000000000E+00 0.  1.
<mgrwt>
<rscale>  0 0.80005139E+02</rscale>
<asrwt>0</asrwt>
<pdfrwt beam="1">  1        2 0.90041937E-02 0.80005139E+02</pdfrwt>
<pdfrwt beam="2">  1       -1 0.42063387E-02 0.80005139E+02</pdfrwt>
<totfact> 0.15474784E+05</totfact>
</mgrwt>
</event>
<event>
 8    1  0.2603554E-024  0.7904919E+02  0.7818608E-02  0.1331772E+00
          2   -1    0    0  501    0  0.00000000000E+00  0.00000000000E+00  0.75733476850E+03  0.75733476851E+03  0.25500000000E-02 0. -1.
         -1   -1    0    0    0  501 -0.00000000000E+00 -0.00000000000E+00 -0.20627486101E+01  0.20627547673E+01  0.50400000000E-02 0.  1.
         24    2    1    2    0    0  0.35527136788E-14  0.00000000000E+00  0.75527201989E+03  0.75939752327E+03  0.79049189259E+02 0.  0.
         66    2    3    3    0    0  0.31327864723E+02  0.77237034622E+00  0.60886784593E+03  0.60967703376E+03  0.20000043740E+01 0.  0.
        -13    1    3    3    0    0 -0.31327864723E+02 -0.77237034622E+00  0.14640417396E+03  0.14972048952E+03  0.10566000000E+00 0.  1.
         13    1    4    4    0    0  0.61923058548E+01 -0.36619718463E-01  0.13156342170E+03  0.13170911543E+03  0.10566000000E+00 0.  1.
        -13    1    4    4    0    0  0.19324870748E+02  0.13252893419E+00  0.36561262398E+03  0.36612302601E+03  0.10566000000E+00 0. -1.
        -14    1    4    4    0    0  0.58106881203E+01  0.67646113050E+00  0.11169180025E+03  0.11184489232E+03  0.00000000000E+00 0.  1.
<mgrwt>
<rscale>  0 0.79049189E+02</rscale>
<asrwt>0</asrwt>
<pdfrwt beam="1">  1        2 0.11651301E+00 0.79049189E+02</pdfrwt>
<pdfrwt beam="2">  1       -1 0.31734649E-03 0.79049189E+02</pdfrwt>
<totfact> 0.35091556E+05</totfact>
</mgrwt>
</event>
<event>
 8    1  0.2603554E-024  0.7906687E+02  0.7818608E-02  0.1331721E+00
          2   -1    0    0  501    0  0.00000000000E+00  0.00000000000E+00  0.22106929615E+03  0.22106929616E+03  0.25500000000E-02 0. -1.
         -1   -1    0    0    0  501 -0.00000000000E+00 -0.00000000000E+00 -0.70696942757E+01  0.70696960722E+01  0.50400000000E-02 0.  1.
         24    2    1    2    0    0  0.35527136788E-14  0.00000000000E+00  0.21399960187E+03  0.22813899224E+03  0.79066871549E+02 0.  0.
         66    2    3    3    0    0 -0.26441217482E+02 -0.22705175224E+02  0.16075690326E+03  0.16450363191E+03  0.20000006638E+01 0.  0.
        -13    1    3    3    0    0  0.26441217482E+02  0.22705175224E+02  0.53242698614E+02  0.63635360325E+02  0.10566000000E+00 0.  1.
         13    1    4    4    0    0 -0.48504529060E+01 -0.46049404970E+01  0.28137265574E+02  0.28921432336E+02  0.10566000000E+00 0. -1.
        -13    1    4    4    0    0 -0.10229980493E+02 -0.80516332330E+01  0.62054827888E+02  0.63405789380E+02  0.10566000000E+00 0.  1.
        -14    1    4    4    0    0 -0.11360784084E+02 -0.10048601494E+02  0.70564809796E+02  0.72176410195E+02  0.00000000000E+00 0.  1.
<mgrwt>
<rscale>  0 0.79066872E+02</rscale>
<asrwt>0</asrwt>
<pdfrwt beam="1">  1        2 0.34010656E-01 0.79066872E+02</pdfrwt>
<pdfrwt beam="2">  1       -1 0.10876456E-02 0.79066872E+02</pdfrwt>
<totfact> 0.23562962E+05</totfact>
</mgrwt>
</event>
<event>
 8    1  0.2603554E-024  0.8019783E+02  0.7818608E-02  0.1328491E+00
          2   -1    0    0  501    0  0.00000000000E+00  0.00000000000E+00  0.50076409683E+03  0.50076409684E+03  0.25500000000E-02 0. -1.
         -1   -1    0    0    0  501 -0.00000000000E+00 -0.00000000000E+00 -0.32109369974E+01  0.32109409529E+01  0.50400000000E-02 0.  1.
         24    2    1    2    0    0  0.00000000000E+00  0.00000000000E+00  0.49755315983E+03  0.50397503779E+03  0.80197829493E+02 0.  0.
         66    2    3    3    0    0  0.32744320487E+02  0.10201478923E+02  0.37918980021E+03  0.38074291226E+03  0.19999898464E+01 0.  0.
        -13    1    3    3    0    0 -0.32744320487E+02 -0.10201478923E+02  0.11836335962E+03  0.12323212553E+03  0.10566000000E+00 0.  1.
         13    1    4    4    0    0  0.22916376008E+02  0.70841109947E+01  0.26425324395E+03  0.26533965595E+03  0.10566000000E+00 0. -1.
        -13    1    4    4    0    0  0.37150354228E+01  0.95975032573E+00  0.37560370461E+02  0.37755995578E+02  0.10566000000E+00 0.  1.
         14    1    4    4    0    0  0.61129090561E+01  0.21576176022E+01  0.77376185802E+02  0.77647260738E+02  0.00000000000E+00 0. -1.
<mgrwt>
<rscale>  0 0.80197829E+02</rscale>
<asrwt>0</asrwt>
<pdfrwt beam="1">  1        2 0.77040597E-01 0.80197829E+02</pdfrwt>
<pdfrwt beam="2">  1       -1 0.49399082E-03 0.80197829E+02</pdfrwt>
<totfact> 0.30270652E+05</totfact>
</mgrwt>
</event>
<event>
 8    1  0.2603554E-024  0.7911127E+02  0.7818608E-02  0.1331593E+00
         -1   -1    0    0    0  501 -0.00000000000E+00  0.00000000000E+00  0.10706191128E+02  0.10706192314E+02  0.50400000000E-02 0.  1.
          2   -1    0    0  501    0  0.00000000000E+00 -0.00000000000E+00 -0.14614425660E+03  0.14614425662E+03  0.25500000000E-02 0. -1.
         24    2    1    2    0    0  0.44408920985E-15 -0.35527136788E-14 -0.13543806547E+03  0.15685044893E+03  0.79111274498E+02 0.  0.
         66    2    3    3    0    0  0.24500659182E+01 -0.18409088515E+02 -0.13694939398E+03  0.13821734289E+03  0.19999999102E+01 0.  0.
        -13    1    3    3    0    0 -0.24500659182E+01  0.18409088515E+02  0.15113285155E+01  0.18633106045E+02  0.10566000000E+00 0.  1.
         13    1    4    4    0    0  0.20306761314E+01 -0.12779013156E+02 -0.98827453148E+02  0.99670976129E+02  0.10566000000E+00 0. -1.
        -13    1    4    4    0    0  0.88673388590E-01 -0.21917182394E+01 -0.17479720068E+02  0.17617130002E+02  0.10566000000E+00 0.  1.
        -14    1    4    4    0    0  0.33071639822E+00 -0.34383571198E+01 -0.20642220768E+02  0.20929236757E+02  0.00000000000E+00 0.  1.
<mgrwt>
<rscale>  0 0.79111274E+02</rscale>
<asrwt>0</asrwt>
<pdfrwt beam="1">  1        2 0.22483730E-01 0.79111274E+02</pdfrwt>
<pdfrwt beam="2">  1       -1 0.16471065E-02 0.79111274E+02</pdfrwt>
<totfact> 0.20460861E+05</totfact>
</mgrwt>
</event>
<event>
 8    1  0.2603554E-024  0.8043428E+02  0.7818608E-02  0.1327824E+00
          2   -1    0    0  501    0  0.00000000000E+00  0.00000000000E+00  0.91625832069E+02  0.91625832105E+02  0.25500000000E-02 0. -1.
         -1   -1    0    0    0  501 -0.00000000000E+00 -0.00000000000E+00 -0.17652426523E+02  0.17652427243E+02  0.50400000000E-02 0.  1.
         24    2    1    2    0    0  0.71054273576E-14  0.17763568394E-14  0.73973405546E+02  0.10927825935E+03  0.80434278998E+02 0.  0.
         66    2    3    3    0    0  0.35009104669E+02  0.14610403105E+02  0.55049384800E+02  0.66884497850E+02  0.19999992896E+01 0.  0.
        -13    1    3    3    0    0 -0.35009104669E+02 -0.14610403105E+02  0.18924020746E+02  0.42393761497E+02  0.10566000000E+00 0.  1.
         13    1    4    4    0    0  0.24189031688E+00  0.22163707831E+00  0.42312403019E+00  0.54573977353E+00  0.10566000000E+00 0. -1.
        -13    1    4    4    0    0  0.13429837816E+02  0.50827726448E+01  0.20499483077E+02  0.25028685383E+02  0.10566000000E+00 0.  1.
         14    1    4    4    0    0  0.21337376537E+02  0.93059933823E+01  0.34126777693E+02  0.41310072694E+02  0.00000000000E+00 0. -1.
<mgrwt>
<rscale>  0 0.80434279E+02</rscale>
<asrwt>0</asrwt>
<pdfrwt beam="1">  1        2 0.14096281E-01 0.80434279E+02</pdfrwt>
<pdfrwt beam="2">  1       -1 0.27157581E-02 0.80434279E+02</pdfrwt>
<totfact> 0.17054313E+05</totfact>
</mgrwt>
</event>
<event>
 8    1  0.2603554E-024  0.8026373E+02  0.7818608E-02  0.1328305E+00
         -1   -1    0    0    0  501 -0.00000000000E+00  0.00000000000E+00  0.19268760821E+02  0.19268761480E+02  0.50400000000E-02 0.  1.
          2   -1    0    0  501    0  0.00000000000E+00 -0.00000000000E+00 -0.83584335480E+02  0.83584335519E+02  0.25500000000E-02 0. -1.
         24    2    1    2    0    0 -0.35527136788E-14  0.00000000000E+00 -0.64315574659E+02  0.10285309700E+03  0.80263730404E+02 0.  0.
         66    2    3    3    0    0  0.25597224509E+02 -0.22206680443E+02 -0.46877019631E+01  0.34268485567E+02  0.19999986217E+01 0.  0.
        -13    1    3    3    0    0 -0.25597224509E+02  0.22206680443E+02 -0.59627872696E+02  0.68584611431E+02  0.10566000000E+00 0.  1.
         13    1    4    4    0    0  0.83417234386E+01 -0.79566065098E+01 -0.20711255350E+01  0.11712927136E+02  0.10566000000E+00 0. -1.
        -13    1    4    4    0    0  0.65563230219E+01 -0.47858187349E+01 -0.10475779656E+01  0.81852315887E+01  0.10566000000E+00 0.  1.
         14    1    4    4    0    0  0.10699178049E+02 -0.94642551981E+01 -0.15689984625E+01  0.14370326842E+02  0.00000000000E+00 0. -1.
<mgrwt>
<rscale>  0 0.80263730E+02</rscale>
<asrwt>0</asrwt>
<pdfrwt beam="1">  1        2 0.12859128E-01 0.80263730E+02</pdfrwt>
<pdfrwt beam="2">  1       -1 0.29644248E-02 0.80263730E+02</pdfrwt>
<totfact> 0.16737287E+05</totfact>
</mgrwt>
</event>
<event>
 8    1  0.2603554E-024  0.7906803E+02  0.7818608E-02  0.1331717E+00
          2   -1    0    0  501    0  0.00000000000E+00  0.00000000000E+00  0.76517668998E+02  0.76517669041E+02  0.25500000000E-02 0. -1.
         -1   -1    0    0    0  501 -0.00000000000E+00 -0.00000000000E+00 -0.20425849922E+02  0.20425850544E+02  0.50400000000E-02 0.  1.
         24    2    1    2    0    0  0.00000000000E+00  0.00000000000E+00  0.56091819076E+02  0.96943519585E+02  0.79068032872E+02 0.  0.
         66    2    3    3    0    0  0.23364597931E+02  0.19064079802E+02  0.59360971501E+02  0.66611323872E+02  0.19999888231E+01 0.  0.
        -13    1    3    3    0    0 -0.23364597931E+02 -0.19064079802E+02 -0.32691524247E+01  0.30332195713E+02  0.10566000000E+00 0.  1.
         13    1    4    4    0    0  0.10945524943E+02  0.96235953936E+01  0.29218122711E+02  0.32651615019E+02  0.10566000000E+00 0. -1.
        -13    1    4    4    0    0  0.92221248623E+01  0.64801581999E+01  0.21103055406E+02  0.23924676565E+02  0.10566000000E+00 0.  1.
        -14    1    4    4    0    0  0.31969481257E+01  0.29603262080E+01  0.90397933842E+01  0.10035032287E+02  0.00000000000E+00 0.  1.
<mgrwt>
<rscale>  0 0.79068033E+02</rscale>
<asrwt>0</asrwt>
<pdfrwt beam="1">  1        2 0.11771949E-01 0.79068033E+02</pdfrwt>
<pdfrwt beam="2">  1       -1 0.31424385E-02 0.79068033E+02</pdfrwt>
<totfact> 0.17037578E+05</totfact>
</mgrwt>
</event>
<event>
 8    1  0.2603554E-024  0.8035419E+02  0.7818608E-02  0.1328049E+00
          2   -1    0    0  501    0  0.00000000000E+00  0.00000000000E+00  0.15439762671E+03  0.15439762674E+03  0.25500000000E-02 0. -1.
         -1   -1    0    0    0  501 -0.00000000000E+00 -0.00000000000E+00 -0.10454815391E+02  0.10454816606E+02  0.50400000000E-02 0.  1.
         24    2    1    2    0    0  0.00000000000E+00 -0.17763568394E-14  0.14394281132E+03  0.16485244334E+03  0.80354185603E+02 0.  0.
         66    2    3    3    0    0  0.38060996071E+02 -0.87225105751E+01  0.91203523778E+02  0.99231065517E+02  0.20000003778E+01 0.  0.
        -13    1    3    3    0    0 -0.38060996071E+02  0.87225105751E+01  0.52739287545E+02  0.65621377824E+02  0.10566000000E+00 0.  1.
         13    1    4    4    0    0  0.17580490233E+02 -0.45321232229E+01  0.44091612755E+02  0.47683280687E+02  0.10566000000E+00 0. -1.
        -13    1    4    4    0    0  0.36517840422E+00 -0.60116480466E-01  0.87851760475E+00  0.95912797665E+00  0.10566000000E+00 0. -1.
        -14    1    4    4    0    0  0.20115327434E+02 -0.41302708718E+01  0.46233393418E+02  0.50588656853E+02  0.00000000000E+00 0.  1.
<mgrwt>
<rscale>  0 0.80354186E+02</rscale>
<asrwt>0</asrwt>
<pdfrwt beam="1">  1        2 0.23753482E-01 0.80354186E+02</pdfrwt>
<pdfrwt beam="2">  1       -1 0.16084332E-02 0.80354186E+02</pdfrwt>
<totfact> 0.19982640E+05</totfact>
</mgrwt>
</event>
<event>
 8    1  0.2603554E-024  0.8132882E+02  0.7818608E-02  0.1325322E+00
         -1   -1    0    0    0  501 -0.00000000000E+00  0.00000000000E+00  0.39849399816E+02  0.39849400134E+02  0.50400000000E-02 0.  1.
          2   -1    0    0  501    0  0.00000000000E+00 -0.00000000000E+00 -0.41496085974E+02  0.41496086053E+02  0.25500000000E-02 0. -1.
         24    2    1    2    0    0  0.35527136788E-14  0.00000000000E+00 -0.16466861586E+01  0.81345486187E+02  0.81328817449E+02 0.  0.
         66    2    3    3    0    0  0.19037587342E+02  0.32344756610E+02 -0.16414726343E+02  0.41012879194E+02  0.20000017236E+01 0.  0.
        -13    1    3    3    0    0 -0.19037587342E+02 -0.32344756610E+02  0.14768040185E+02  0.40332606993E+02  0.10566000000E+00 0.  1.
         13    1    4    4    0    0  0.91257388734E+01  0.14620337525E+02 -0.74842886326E+01  0.18789867474E+02  0.10566000000E+00 0. -1.
        -13    1    4    4    0    0  0.96296900739E+01  0.17380426500E+02 -0.85271544791E+01  0.21622527229E+02  0.10566000000E+00 0.  1.
        -14    1    4    4    0    0  0.28215839484E+00  0.34399258487E+00 -0.40328323141E+00  0.60048449019E+00  0.00000000000E+00 0.  1.
<mgrwt>
<rscale>  0 0.81328817E+02</rscale>
<asrwt>0</asrwt>
<pdfrwt beam="1">  1        2 0.63840132E-02 0.81328817E+02</pdfrwt>
<pdfrwt beam="2">  1       -1 0.61306769E-02 0.81328817E+02</pdfrwt>
<totfact> 0.13724411E+05</totfact>
</mgrwt>
</event>
<event>
 8    1  0.2603554E-024  0.8470198E+02  0.7818608E-02  0.1316214E+00
          2   -1    0    0  501    0  0.00000000000E+00  0.00000000000E+00  0.26243836604E+02  0.26243836728E+02  0.25500000000E-02 0. -1.
         -1   -1    0    0    0  501 -0.00000000000E+00 -0.00000000000E+00 -0.68343906407E+02  0.68343906593E+02  0.50400000000E-02 0.  1.
         24    2    1    2    0    0  0.00000000000E+00  0.00000000000E+00 -0.42100069803E+02  0.94587743320E+02  0.84701979369E+02 0.  0.
         66    2    3    3    0    0 -0.24760018732E+02  0.55601880434E+01  0.16768728376E+02  0.30482199240E+02  0.20000001145E+01 0.  0.
        -13    1    3    3    0    0  0.24760018732E+02 -0.55601880434E+01 -0.58868798179E+02  0.64105544080E+02  0.10566000000E+00 0.  1.
         13    1    4    4    0    0 -0.16437189671E+02  0.37386781072E+01  0.10317594291E+02  0.19764180586E+02  0.10566000000E+00 0. -1.
        -13    1    4    4    0    0 -0.39019930517E+01  0.44389182424E+00  0.29440286975E+01  0.49092829145E+01  0.10566000000E+00 0.  1.
         14    1    4    4    0    0 -0.44208360098E+01  0.13776181119E+01  0.35071053875E+01  0.58087357391E+01  0.00000000000E+00 0. -1.
<mgrwt>
<rscale>  0 0.84701979E+02</rscale>
<asrwt>0</asrwt>
<pdfrwt beam="1">  1        2 0.40375134E-02 0.84701979E+02</pdfrwt>
<pdfrwt beam="2">  1       -1 0.10514447E-01 0.84701979E+02</pdfrwt>
<totfact> 0.11143960E+05</totfact>
</mgrwt>
</event>
<event>
 8    1  0.2603554E-024  0.8033327E+02  0.7818608E-02  0.1328108E+00
          2   -1    0    0  501    0  0.00000000000E+00  0.00000000000E+00  0.50075893333E+03  0.50075893334E+03  0.25500000000E-02 0. -1.
         -1   -1    0    0    0  501 -0.00000000000E+00 -0.00000000000E+00 -0.32218251490E+01  0.32218290911E+01  0.50400000000E-02 0.  1.
         24    2    1    2    0    0  0.44408920985E-15  0.00000000000E+00  0.49753710818E+03  0.50398076243E+03  0.80333273804E+02 0.  0.
         66    2    3    3    0    0 -0.20464701783E+01  0.26016717500E+02  0.44027259596E+03  0.44104990233E+03  0.19999887651E+01 0.  0.
        -13    1    3    3    0    0  0.20464701783E+01 -0.26016717500E+02  0.57264512216E+02  0.62930860101E+02  0.10566000000E+00 0.  1.
         13    1    4    4    0    0 -0.39785085014E+00  0.66352269436E+01  0.10316809158E+03  0.10338206230E+03  0.10566000000E+00 0.  1.
        -13    1    4    4    0    0 -0.12461190217E+01  0.14423811011E+02  0.24053452087E+03  0.24096984465E+03  0.10566000000E+00 0. -1.
        -14    1    4    4    0    0 -0.40250030644E+00  0.49576795455E+01  0.96569983510E+02  0.96697995368E+02  0.00000000000E+00 0.  1.
<mgrwt>
<rscale>  0 0.80333274E+02</rscale>
<asrwt>0</asrwt>
<pdfrwt beam="1">  1        2 0.77039771E-01 0.80333274E+02</pdfrwt>
<pdfrwt beam="2">  1       -1 0.49566613E-03 0.80333274E+02</pdfrwt>
<totfact> 0.30137673E+05</totfact>
</mgrwt>
</event>
<event>
 8    1  0.2603554E-024  0.8019491E+02  0.7818608E-02  0.1328499E+00
          2   -1    0    0  501    0  0.00000000000E+00  0.00000000000E+00  0.54629781954E+01  0.54629787905E+01  0.25500000000E-02 0. -1.
         -1   -1    0    0    0  501 -0.00000000000E+00 -0.00000000000E+00 -0.29430939336E+03  0.29430939340E+03  0.50400000000E-02 0.  1.
         24    2    1    2    0    0  0.00000000000E+00  0.71054273576E-14 -0.28884641516E+03  0.29977237219E+03  0.80194909920E+02 0.  0.
         66    2    3    3    0    0 -0.94867007960E+01  0.37650594447E+02 -0.10746343862E+03  0.11428016185E+03  0.19999995158E+01 0.  0.
        -13    1    3    3    0    0  0.94867007960E+01 -0.37650594447E+02 -0.18138297655E+03  0.18549221034E+03  0.10566000000E+00 0.  1.
         13    1    4    4    0    0 -0.19192486513E+01  0.77264684483E+01 -0.21969099938E+02  0.23367377821E+02  0.10566000000E+00 0. -1.
        -13    1    4    4    0    0 -0.19945770965E+01  0.52175222792E+01 -0.14987327646E+02  0.15994750093E+02  0.10566000000E+00 0.  1.
         14    1    4    4    0    0 -0.55728750482E+01  0.24706603719E+02 -0.70507011031E+02  0.74918033932E+02  0.00000000000E+00 0. -1.
<mgrwt>
<rscale>  0 0.80194910E+02</rscale>
<asrwt>0</asrwt>
<pdfrwt beam="1">  1        2 0.84045846E-03 0.80194910E+02</pdfrwt>
<pdfrwt beam="2">  1       -1 0.45278356E-01 0.80194910E+02</pdfrwt>
<totfact> 0.86559642E+04</totfact>
</mgrwt>
</event>
<event>
 8    1  0.2603554E-024  0.7277871E+02  0.7818608E-02  0.1350891E+00
          2   -1    0    0  501    0  0.00000000000E+00  0.00000000000E+00  0.22378199088E+03  0.22378199090E+03  0.25500000000E-02 0. -1.
         -1   -1    0    0    0  501 -0.00000000000E+00 -0.00000000000E+00 -0.59172984663E+01  0.59173006127E+01  0.50400000000E-02 0.  1.
         24    2    1    2    0    0 -0.35527136788E-14  0.00000000000E+00  0.21786469241E+03  0.22969929151E+03  0.72778707864E+02 0.  0.
         66    2    3    3    0    0  0.21139947076E+02  0.10254051860E+02  0.19660132884E+03  0.19801041749E+03  0.19999977588E+01 0.  0.
        -13    1    3    3    0    0 -0.21139947076E+02 -0.10254051860E+02  0.21263363571E+02  0.31688874014E+02  0.10566000000E+00 0.  1.
         13    1    4    4    0    0  0.97335922593E+01  0.47187612281E+01  0.88274180286E+02  0.88934535446E+02  0.10566000000E+00 0. -1.
        -13    1    4    4    0    0  0.11407027477E+02  0.55415326698E+01  0.10832937986E+03  0.10906921915E+03  0.10566000000E+00 0.  1.
        -14    1    4    4    0    0 -0.67266065083E-03 -0.62420381236E-02 -0.22313045374E-02  0.66628996860E-02  0.00000000000E+00 0.  1.
<mgrwt>
<rscale>  0 0.72778708E+02</rscale>
<asrwt>0</asrwt>
<pdfrwt beam="1">  1        2 0.34427996E-01 0.72778708E+02</pdfrwt>
<pdfrwt beam="2">  1       -1 0.91035385E-03 0.72778708E+02</pdfrwt>
<totfact> 0.29397097E+05</totfact>
</mgrwt>
</event>
<event>
 8    1  0.2603554E-024  0.7958279E+02  0.7818608E-02  0.1330240E+00
         -1   -1    0    0    0  501 -0.00000000000E+00  0.00000000000E+00  0.12779004980E+02  0.12779005974E+02  0.50400000000E-02 0.  1.
          2   -1    0    0  501    0  0.00000000000E+00 -0.00000000000E+00 -0.12390282756E+03  0.12390282759E+03  0.25500000000E-02 0. -1.
         24    2    1    2    0    0  0.00000000000E+00  0.00000000000E+00 -0.11112382258E+03  0.13668183356E+03  0.79582785076E+02 0.  0.
         66    2    3    3    0    0  0.38003113461E+02 -0.97886979069E+01 -0.44560213299E+02  0.59411007991E+02  0.20000054616E+01 0.  0.
        -13    1    3    3    0    0 -0.38003113461E+02  0.97886979069E+01 -0.66563609283E+02  0.77270825570E+02  0.10566000000E+00 0.  1.
         13    1    4    4    0    0  0.56068653227E+01 -0.18549639618E+01 -0.72412703517E+01  0.93447841274E+01  0.10566000000E+00 0. -1.
        -13    1    4    4    0    0  0.44952162023E+01 -0.14119676804E+01 -0.48641279779E+01  0.67728521656E+01  0.10566000000E+00 0.  1.
         14    1    4    4    0    0  0.27901031936E+02 -0.65217662646E+01 -0.32454814969E+02  0.43293371698E+02  0.00000000000E+00 0. -1.
<mgrwt>
<rscale>  0 0.79582785E+02</rscale>
<asrwt>0</asrwt>
<pdfrwt beam="1">  1        2 0.19061973E-01 0.79582785E+02</pdfrwt>
<pdfrwt beam="2">  1       -1 0.19660009E-02 0.79582785E+02</pdfrwt>
<totfact> 0.19132160E+05</totfact>
</mgrwt>
</event>
<event>
 8    1  0.2603554E-024  0.7827159E+02  0.7818608E-02  0.1334029E+00
          2   -1    0    0  501    0  0.00000000000E+00  0.00000000000E+00  0.20285287324E+03  0.20285287325E+03  0.25500000000E-02 0. -1.
         -1   -1    0    0    0  501 -0.00000000000E+00 -0.00000000000E+00 -0.75503512396E+01  0.75503529218E+01  0.50400000000E-02 0.  1.
         24    2    1    2    0    0 -0.88817841970E-15  0.00000000000E+00  0.19530252200E+03  0.21040322618E+03  0.78271594377E+02 0.  0.
         66    2    3    3    0    0  0.76685105965E+01  0.29139001934E+02  0.16474110312E+03  0.16748587565E+03  0.19999989320E+01 0.  0.
        -13    1    3    3    0    0 -0.76685105965E+01 -0.29139001934E+02  0.30561418879E+02  0.42917350529E+02  0.10566000000E+00 0.  1.
         13    1    4    4    0    0  0.15019592945E+00  0.14417745547E+01  0.87252541495E+01  0.88454788843E+01  0.10566000000E+00 0.  1.
        -13    1    4    4    0    0  0.42691105124E+00  0.11543269370E+01  0.54214693963E+01  0.55604152879E+01  0.10566000000E+00 0. -1.
         14    1    4    4    0    0  0.70914036158E+01  0.26542900442E+02  0.15059437957E+03  0.15307998148E+03  0.00000000000E+00 0. -1.
<mgrwt>
<rscale>  0 0.78271594E+02</rscale>
<asrwt>0</asrwt>
<pdfrwt beam="1">  1        2 0.31208137E-01 0.78271594E+02</pdfrwt>
<pdfrwt beam="2">  1       -1 0.11615925E-02 0.78271594E+02</pdfrwt>
<totfact> 0.23480732E+05</totfact>
</mgrwt>
</event>
<event>
 8    1  0.2603554E-024  0.8124180E+02  0.7818608E-02  0.1325564E+00
          2   -1    0    0  501    0  0.00000000000E+00  0.00000000000E+00  0.78669165583E+01  0.78669169715E+01  0.25500000000E-02 0. -1.
         -1   -1    0    0    0  501 -0.00000000000E+00 -0.00000000000E+00 -0.20974640673E+03  0.20974640679E+03  0.50400000000E-02 0.  1.
         24    2    1    2    0    0  0.17763568394E-14  0.00000000000E+00 -0.20187949017E+03  0.21761332376E+03  0.81241800367E+02 0.  0.
         66    2    3    3    0    0  0.15344599628E+02 -0.28545555678E+02 -0.35512304054E+02  0.48118907136E+02  0.19999995142E+01 0.  0.
        -13    1    3    3    0    0 -0.15344599628E+02  0.28545555678E+02 -0.16636718612E+03  0.16949441663E+03  0.10566000000E+00 0.  1.
         13    1    4    4    0    0  0.21059796661E+01 -0.32451759499E+01 -0.45290039594E+01  0.59572945370E+01  0.10566000000E+00 0. -1.
        -13    1    4    4    0    0  0.10258065412E+02 -0.20822055724E+02 -0.24919698170E+02  0.34055666658E+02  0.10566000000E+00 0.  1.
        -14    1    4    4    0    0  0.29805545499E+01 -0.44783240032E+01 -0.60636019248E+01  0.81059459414E+01  0.00000000000E+00 0.  1.
<mgrwt>
<rscale>  0 0.81241800E+02</rscale>
<asrwt>0</asrwt>
<pdfrwt beam="1">  1        2 0.12102950E-02 0.81241800E+02</pdfrwt>
<pdfrwt beam="2">  1       -1 0.32268674E-01 0.81241800E+02</pdfrwt>
<totfact> 0.94379170E+04</totfact>
</mgrwt>
</event>
<event>
 8    1  0.2603554E-024  0.8230182E+02  0.7818608E-02  0.1322643E+00
         -1   -1    0    0    0  501 -0.00000000000E+00  0.00000000000E+00  0.38386213653E+01  0.38386246740E+01  0.50400000000E-02 0.  1.
          2   -1    0    0  501    0  0.00000000000E+00 -0.00000000000E+00 -0.44114714628E+03  0.44114714629E+03  0.25500000000E-02 0. -1.
         24    2    1    2    0    0  0.00000000000E+00  0.35527136788E-14 -0.43730852492E+03  0.44498577096E+03  0.82301824980E+02 0.  0.
         66    2    3    3    0    0 -0.27248163751E+02 -0.27853841663E+02 -0.28991702950E+03  0.29253065295E+03  0.19999995415E+01 0.  0.
        -13    1    3    3    0    0  0.27248163751E+02  0.27853841663E+02 -0.14739149541E+03  0.15245511801E+03  0.10566000000E+00 0.  1.
         13    1    4    4    0    0 -0.13084273499E+02 -0.13114570582E+02 -0.13886674508E+03  0.14009701720E+03  0.10566000000E+00 0. -1.
        -13    1    4    4    0    0 -0.10273138490E+02 -0.10623412110E+02 -0.10440849204E+03  0.10544922301E+03  0.10566000000E+00 0.  1.
         14    1    4    4    0    0 -0.38907517621E+01 -0.41158589708E+01 -0.46641792381E+02  0.46984412743E+02  0.00000000000E+00 0. -1.
<mgrwt>
<rscale>  0 0.82301825E+02</rscale>
<asrwt>0</asrwt>
<pdfrwt beam="1">  1        2 0.67868752E-01 0.82301825E+02</pdfrwt>
<pdfrwt beam="2">  1       -1 0.59055774E-03 0.82301825E+02</pdfrwt>
<totfact> 0.27134432E+05</totfact>
</mgrwt>
</event>
<event>
 8    1  0.2603554E-024  0.7926496E+02  0.7818608E-02  0.1331150E+00
          2   -1    0    0  501    0  0.00000000000E+00  0.00000000000E+00  0.92494863497E+03  0.92494863497E+03  0.25500000000E-02 0. -1.
         -1   -1    0    0    0  501 -0.00000000000E+00 -0.00000000000E+00 -0.16981807169E+01  0.16981881959E+01  0.50400000000E-02 0.  1.
         24    2    1    2    0    0  0.00000000000E+00  0.17763568394E-14  0.92325045425E+03  0.92664682317E+03  0.79264958282E+02 0.  0.
         66    2    3    3    0    0 -0.24628623200E+02  0.10024354178E+02  0.80508403540E+03  0.80552551841E+03  0.20000001214E+01 0.  0.
        -13    1    3    3    0    0  0.24628623200E+02 -0.10024354178E+02  0.11816641886E+03  0.12112130476E+03  0.10566000000E+00 0.  1.
         13    1    4    4    0    0 -0.10259072384E+02  0.46124526449E+01  0.35254999253E+03  0.35272940292E+03  0.10566000000E+00 0. -1.
        -13    1    4    4    0    0 -0.16939327271E+01  0.66434796156E+00  0.65967123890E+02  0.65992297768E+02  0.10566000000E+00 0.  1.
        -14    1    4    4    0    0 -0.12675618089E+02  0.47475535719E+01  0.38656691898E+03  0.38680381772E+03  0.00000000000E+00 0.  1.
<mgrwt>
<rscale>  0 0.79264958E+02</rscale>
<asrwt>0</asrwt>
<pdfrwt beam="1">  1        2 0.14230023E+00 0.79264958E+02</pdfrwt>
<pdfrwt beam="2">  1       -1 0.26125835E-03 0.79264958E+02</pdfrwt>
<totfact> 0.35893648E+05</totfact>
</mgrwt>
</event>
<event>
 8    1  0.2603554E-024  0.8267335E+02  0.7818608E-02  0.1321632E+00
          2   -1    0    0  501    0  0.00000000000E+00  0.00000000000E+00  0.52715645528E+03  0.52715645529E+03  0.25500000000E-02 0. -1.
         -1   -1    0    0    0  501 -0.00000000000E+00 -0.00000000000E+00 -0.32413896587E+01  0.32413935770E+01  0.50400000000E-02 0.  1.
         24    2    1    2    0    0 -0.35527136788E-14  0.00000000000E+00  0.52391506563E+03  0.53039784887E+03  0.82673345727E+02 0.  0.
         66    2    3    3    0    0 -0.30371587350E+02  0.17241893171E+02  0.40368992604E+03  0.40520275491E+03  0.20000008081E+01 0.  0.
        -13    1    3    3    0    0  0.30371587350E+02 -0.17241893171E+02  0.12022513959E+03  0.12519509396E+03  0.10566000000E+00 0.  1.
         13    1    4    4    0    0 -0.21473506014E+02  0.12671496999E+02  0.28965975196E+03  0.29073090886E+03  0.10566000000E+00 0. -1.
        -13    1    4    4    0    0 -0.69025610614E+01  0.32386039751E+01  0.89817705744E+02  0.90140808373E+02  0.10566000000E+00 0.  1.
         14    1    4    4    0    0 -0.19955202749E+01  0.13317921969E+01  0.24212468335E+02  0.24331037678E+02  0.00000000000E+00 0. -1.
<mgrwt>
<rscale>  0 0.82673346E+02</rscale>
<asrwt>0</asrwt>
<pdfrwt beam="1">  1        2 0.81101027E-01 0.82673346E+02</pdfrwt>
<pdfrwt beam="2">  1       -1 0.49867543E-03 0.82673346E+02</pdfrwt>
<totfact> 0.28416007E+05</totfact>
</mgrwt>
</event>
<event>
 8    1  0.2603554E-024  0.8060313E+02  0.7818608E-02  0.1327349E+00
         -1   -1    0    0    0  501 -0.00000000000E+00  0.00000000000E+00  0.14809770980E+02  0.14809771838E+02  0.50400000000E-02 0.  1.
          2   -1    0    0  501    0  0.00000000000E+00 -0.00000000000E+00 -0.10967192626E+03  0.10967192629E+03  0.25500000000E-02 0. -1.
         24    2    1    2    0    0  0.00000000000E+00 -0.35527136788E-14 -0.94862155278E+02  0.12448169813E+03  0.80603130612E+02 0.  0.
         66    2    3    3    0    0  0.27467396172E+02 -0.25141565675E+02 -0.71168036053E+02  0.80345787272E+02  0.19999998930E+01 0.  0.
        -13    1    3    3    0    0 -0.27467396172E+02  0.25141565675E+02 -0.23694119225E+02  0.44135910854E+02  0.10566000000E+00 0.  1.
         13    1    4    4    0    0  0.97023700282E+01 -0.93399498588E+01 -0.26881159241E+02  0.30066235775E+02  0.10566000000E+00 0. -1.
        -13    1    4    4    0    0  0.49696194057E+01 -0.43255294886E+01 -0.13396651920E+02  0.14929459772E+02  0.10566000000E+00 0.  1.
         14    1    4    4    0    0  0.12795406738E+02 -0.11476086328E+02 -0.30890224893E+02  0.35350091724E+02  0.00000000000E+00 0. -1.
<mgrwt>
<rscale>  0 0.80603131E+02</rscale>
<asrwt>0</asrwt>
<pdfrwt beam="1">  1        2 0.16872604E-01 0.80603131E+02</pdfrwt>
<pdfrwt beam="2">  1       -1 0.22784264E-02 0.80603131E+02</pdfrwt>
<totfact> 0.17836203E+05</totfact>
</mgrwt>
</event>
<event>
 8    1  0.2603554E-024  0.7943163E+02  0.7818608E-02  0.1330672E+00
         -1   -1    0    0    0  501 -0.00000000000E+00  0.00000000000E+00  0.46469446744E+01  0.46469474075E+01  0.50400000000E-02 0.  1.
          2   -1    0    0  501    0  0.00000000000E+00 -0.00000000000E+00 -0.33943707730E+03  0.33943707731E+03  0.25500000000E-02 0. -1.
         24    2    1    2    0    0  0.71054273576E-14 -0.35527136788E-14 -0.33479013262E+03  0.34408402471E+03  0.79431625704E+02 0.  0.
         66    2    3    3    0    0  0.25481361917E+02 -0.30354950001E+02 -0.17680983067E+03  0.18120827525E+03  0.20000006432E+01 0.  0.
        -13    1    3    3    0    0 -0.25481361917E+02  0.30354950001E+02 -0.15798030195E+03  0.16287574946E+03  0.10566000000E+00 0.  1.
         13    1    4    4    0    0  0.17881918069E+02 -0.20482823929E+02 -0.12321296600E+03  0.12617747511E+03  0.10566000000E+00 0. -1.
        -13    1    4    4    0    0  0.68179332666E+01 -0.85731230576E+01 -0.47783751616E+02  0.49023267288E+02  0.10566000000E+00 0.  1.
        -14    1    4    4    0    0  0.78151058077E+00 -0.12990030141E+01 -0.58131130536E+01  0.60075328540E+01  0.00000000000E+00 0.  1.
<mgrwt>
<rscale>  0 0.79431626E+02</rscale>
<asrwt>0</asrwt>
<pdfrwt beam="1">  1        2 0.52221069E-01 0.79431626E+02</pdfrwt>
<pdfrwt beam="2">  1       -1 0.71491505E-03 0.79431626E+02</pdfrwt>
<totfact> 0.27157652E+05</totfact>
</mgrwt>
</event>
<event>
 8    1  0.2603554E-024  0.8067871E+02  0.7818608E-02  0.1327136E+00
         -1   -1    0    0    0  501 -0.00000000000E+00  0.00000000000E+00  0.43370500384E+01  0.43370529668E+01  0.50400000000E-02 0.  1.
          2   -1    0    0  501    0  0.00000000000E+00 -0.00000000000E+00 -0.37520041285E+03  0.37520041286E+03  0.25500000000E-02 0. -1.
         24    2    1    2    0    0  0.00000000000E+00  0.00000000000E+00 -0.37086336282E+03  0.37953746583E+03  0.80678709021E+02 0.  0.
         66    2    3    3    0    0 -0.25973392556E+02  0.15588457136E+02 -0.31068710025E+03  0.31216676851E+03  0.19999959865E+01 0.  0.
        -13    1    3    3    0    0  0.25973392556E+02 -0.15588457136E+02 -0.60176262563E+02  0.67370697316E+02  0.10566000000E+00 0.  1.
         13    1    4    4    0    0 -0.14316253698E+02  0.84466607142E+01 -0.16283924050E+03  0.16368546242E+03  0.10566000000E+00 0. -1.
        -13    1    4    4    0    0 -0.37997829530E+00  0.40070265659E+00 -0.61659529511E+01  0.61915334090E+01  0.10566000000E+00 0. -1.
        -14    1    4    4    0    0 -0.11277160563E+02  0.67410937653E+01 -0.14168190680E+03  0.14228977269E+03  0.00000000000E+00 0.  1.
<mgrwt>
<rscale>  0 0.80678709E+02</rscale>
<asrwt>0</asrwt>
<pdfrwt beam="1">  1        2 0.57723115E-01 0.80678709E+02</pdfrwt>
<pdfrwt beam="2">  1       -1 0.66723899E-03 0.80678709E+02</pdfrwt>
<totfact> 0.27019942E+05</totfact>
</mgrwt>
</event>
<event>
 8    1  0.2603554E-024  0.7876630E+02  0.7818608E-02  0.1332589E+00
         -1   -1    0    0    0  501 -0.00000000000E+00  0.00000000000E+00  0.25041408562E+01  0.25041459281E+01  0.50400000000E-02 0.  1.
          2   -1    0    0  501    0  0.00000000000E+00 -0.00000000000E+00 -0.61938646169E+03  0.61938646169E+03  0.25500000000E-02 0. -1.
         24    2    1    2    0    0 -0.71054273576E-14 -0.88817841970E-15 -0.61688232083E+03  0.62189060762E+03  0.78766300489E+02 0.  0.
         66    2    3    3    0    0 -0.34392178577E+02  0.50565210820E+01 -0.45435961556E+03  0.45569183733E+03  0.20000016592E+01 0.  0.
        -13    1    3    3    0    0  0.34392178577E+02 -0.50565210820E+01 -0.16252270528E+03  0.16619877029E+03  0.10566000000E+00 0.  1.
         13    1    4    4    0    0 -0.19694709560E+02  0.28403419143E+01 -0.26031520384E+03  0.26107463615E+03  0.10566000000E+00 0. -1.
        -13    1    4    4    0    0 -0.80281691131E+01  0.11503265971E+01 -0.97446171623E+02  0.97783139030E+02  0.10566000000E+00 0.  1.
        -14    1    4    4    0    0 -0.66692999043E+01  0.10658525705E+01 -0.96598240094E+02  0.96834062148E+02  0.00000000000E+00 0.  1.
<mgrwt>
<rscale>  0 0.78766300E+02</rscale>
<asrwt>0</asrwt>
<pdfrwt beam="1">  1        2 0.95290103E-01 0.78766300E+02</pdfrwt>
<pdfrwt beam="2">  1       -1 0.38525333E-03 0.78766300E+02</pdfrwt>
<totfact> 0.33782418E+05</totfact>
</mgrwt>
</event>
<event>
 8    1  0.2603554E-024  0.8044198E+02  0.7818608E-02  0.1327802E+00
          2   -1    0    0  501    0  0.00000000000E+00  0.00000000000E+00  0.24757556408E+03  0.24757556409E+03  0.25500000000E-02 0. -1.
         -1   -1    0    0    0  501 -0.00000000000E+00 -0.00000000000E+00 -0.65342786153E+01  0.65342805591E+01  0.50400000000E-02 0.  1.
         24    2    1    2    0    0  0.17763568394E-14  0.35527136788E-14  0.24104128546E+03  0.25410984465E+03  0.80441978162E+02 0.  0.
         66    2    3    3    0    0 -0.87212079182E+01 -0.13538500181E+02  0.23693471611E+03  0.23748981064E+03  0.20000009533E+01 0.  0.
        -13    1    3    3    0    0  0.87212079182E+01  0.13538500181E+02  0.41065693524E+01  0.16620034012E+02  0.10566000000E+00 0.  1.
         13    1    4    4    0    0 -0.37997838976E+01 -0.42050683457E+01  0.81527126857E+02  0.81723953252E+02  0.10566000000E+00 0. -1.
        -13    1    4    4    0    0 -0.49145953550E+01 -0.92521054957E+01  0.15416685423E+03  0.15452244112E+03  0.10566000000E+00 0.  1.
        -14    1    4    4    0    0 -0.68286656162E-02 -0.81326339173E-01  0.12407350218E+01  0.12434162611E+01  0.00000000000E+00 0.  1.
<mgrwt>
<rscale>  0 0.80441978E+02</rscale>
<asrwt>0</asrwt>
<pdfrwt beam="1">  1        2 0.38088549E-01 0.80441978E+02</pdfrwt>
<pdfrwt beam="2">  1       -1 0.10052738E-02 0.80441978E+02</pdfrwt>
<totfact> 0.23443055E+05</totfact>
</mgrwt>
</event>
<event>
 8    1  0.2603554E-024  0.7665326E+02  0.7818608E-02  0.1338827E+00
          2   -1    0    0  501    0  0.00000000000E+00  0.00000000000E+00  0.16387987382E+03  0.16387987384E+03  0.25500000000E-02 0. -1.
         -1   -1    0    0    0  501 -0.00000000000E+00 -0.00000000000E+00 -0.89634578158E+01  0.89634592328E+01  0.50400000000E-02 0.  1.
         24    2    1    2    0    0 -0.35527136788E-14  0.00000000000E+00  0.15491641600E+03  0.17284333307E+03  0.76653257205E+02 0.  0.
         66    2    3    3    0    0 -0.20209937087E+02 -0.23648161419E+02  0.12789336979E+03  0.13163734702E+03  0.19999999470E+01 0.  0.
        -13    1    3    3    0    0  0.20209937087E+02  0.23648161419E+02  0.27023046217E+02  0.41205986051E+02  0.10566000000E+00 0.  1.
         13    1    4    4    0    0 -0.13436812826E+01 -0.13003440390E+01  0.69490714845E+01  0.71970224775E+01  0.10566000000E+00 0.  1.
        -13    1    4    4    0    0 -0.61641212430E+01 -0.83099038498E+01  0.41145995551E+02  0.42427055126E+02  0.10566000000E+00 0. -1.
         14    1    4    4    0    0 -0.12702134561E+02 -0.14037913530E+02  0.79798302752E+02  0.82013269419E+02  0.00000000000E+00 0. -1.
<mgrwt>
<rscale>  0 0.76653257E+02</rscale>
<asrwt>0</asrwt>
<pdfrwt beam="1">  1        2 0.25212286E-01 0.76653257E+02</pdfrwt>
<pdfrwt beam="2">  1       -1 0.13789937E-02 0.76653257E+02</pdfrwt>
<totfact> 0.23081797E+05</totfact>
</mgrwt>
</event>
<event>
 8    1  0.2603554E-024  0.8076485E+02  0.7818608E-02  0.1326895E+00
          2   -1    0    0  501    0  0.00000000000E+00  0.00000000000E+00  0.26190779182E+03  0.26190779183E+03  0.25500000000E-02 0. -1.
         -1   -1    0    0    0  501 -0.00000000000E+00 -0.00000000000E+00 -0.62263896775E+01  0.62263917173E+01  0.50400000000E-02 0.  1.
         24    2    1    2    0    0  0.00000000000E+00  0.00000000000E+00  0.25568140214E+03  0.26813418355E+03  0.80764849943E+02 0.  0.
         66    2    3    3    0    0 -0.25223160958E+02  0.27089198854E+02  0.74520222413E+02  0.83230379510E+02  0.19999954076E+01 0.  0.
        -13    1    3    3    0    0  0.25223160958E+02 -0.27089198854E+02  0.18116117973E+03  0.18490380404E+03  0.10566000000E+00 0.  1.
         13    1    4    4    0    0 -0.12999719031E+01  0.10536827950E+01  0.34891845551E+01  0.38711428902E+01  0.10566000000E+00 0.  1.
        -13    1    4    4    0    0 -0.19546652444E+02  0.20761833750E+02  0.56142852056E+02  0.62969487559E+02  0.10566000000E+00 0. -1.
        -14    1    4    4    0    0 -0.43765366110E+01  0.52736823090E+01  0.14888185802E+02  0.16389749061E+02  0.00000000000E+00 0.  1.
<mgrwt>
<rscale>  0 0.80764850E+02</rscale>
<asrwt>0</asrwt>
<pdfrwt beam="1">  1        2 0.40293510E-01 0.80764850E+02</pdfrwt>
<pdfrwt beam="2">  1       -1 0.95790619E-03 0.80764850E+02</pdfrwt>
<totfact> 0.23671831E+05</totfact>
</mgrwt>
</event>
<event>
 8    1  0.2603554E-024  0.7803310E+02  0.7818608E-02  0.1334728E+00
         -1   -1    0    0    0  501 -0.00000000000E+00  0.00000000000E+00  0.29715098279E+01  0.29715141021E+01  0.50400000000E-02 0.  1.
          2   -1    0    0  501    0  0.00000000000E+00 -0.00000000000E+00 -0.51229510007E+03  0.51229510007E+03  0.25500000000E-02 0. -1.
         24    2    1    2    0    0 -0.71054273576E-14  0.00000000000E+00 -0.50932359024E+03  0.51526661418E+03  0.78033096246E+02 0.  0.
         66    2    3    3    0    0  0.31290562975E+02  0.21821272159E+02 -0.30807287822E+03  0.31043222375E+03  0.19999989530E+01 0.  0.
        -13    1    3    3    0    0 -0.31290562975E+02 -0.21821272159E+02 -0.20125071202E+03  0.20483439043E+03  0.10566000000E+00 0.  1.
         13    1    4    4    0    0  0.11827848544E+02  0.82382620023E+01 -0.12263826160E+03  0.12348247380E+03  0.10566000000E+00 0. -1.
        -13    1    4    4    0    0  0.67804235342E+01  0.42273080621E+01 -0.61130319748E+02  0.61650396863E+02  0.10566000000E+00 0.  1.
        -14    1    4    4    0    0  0.12682290896E+02  0.93557020949E+01 -0.12430429687E+03  0.12529935309E+03  0.00000000000E+00 0.  1.
<mgrwt>
<rscale>  0 0.78033096E+02</rscale>
<asrwt>0</asrwt>
<pdfrwt beam="1">  1        2 0.78814561E-01 0.78033096E+02</pdfrwt>
<pdfrwt beam="2">  1       -1 0.45715610E-03 0.78033096E+02</pdfrwt>
<totfact> 0.32740068E+05</totfact>
</mgrwt>
</event>
<event>
 8    1  0.2603554E-024  0.7955344E+02  0.7818608E-02  0.1330324E+00
          2   -1    0    0  501    0  0.00000000000E+00  0.00000000000E+00  0.72894326581E+03  0.72894326582E+03  0.25500000000E-02 0. -1.
         -1   -1    0    0    0  501 -0.00000000000E+00 -0.00000000000E+00 -0.21705191140E+01  0.21705249655E+01  0.50400000000E-02 0.  1.
         24    2    1    2    0    0 -0.35527136788E-14 -0.88817841970E-15  0.72677274670E+03  0.73111379078E+03  0.79553439451E+02 0.  0.
         66    2    3    3    0    0 -0.22153619074E+02 -0.79580113587E+01  0.65799957087E+03  0.65842353243E+03  0.19999998829E+01 0.  0.
        -13    1    3    3    0    0  0.22153619074E+02  0.79580113587E+01  0.68773175826E+02  0.72690258358E+02  0.10566000000E+00 0.  1.
         13    1    4    4    0    0 -0.70573576647E+00 -0.67263057108E-02  0.22506709144E+02  0.22518020089E+02  0.10566000000E+00 0.  1.
        -13    1    4    4    0    0 -0.16141406477E+02 -0.64186318132E+01  0.47374109001E+03  0.47405946396E+03  0.10566000000E+00 0. -1.
         14    1    4    4    0    0 -0.53064768303E+01 -0.15326532398E+01  0.16175177172E+03  0.16184604838E+03  0.00000000000E+00 0. -1.
<mgrwt>
<rscale>  0 0.79553439E+02</rscale>
<asrwt>0</asrwt>
<pdfrwt beam="1">  1        2 0.11214523E+00 0.79553439E+02</pdfrwt>
<pdfrwt beam="2">  1       -1 0.33392614E-03 0.79553439E+02</pdfrwt>
<totfact> 0.34247255E+05</totfact>
</mgrwt>
</event>
<event>
 8    1  0.2603554E-024  0.7756033E+02  0.7818608E-02  0.1336121E+00
          2   -1    0    0  501    0  0.00000000000E+00  0.00000000000E+00  0.13987874054E+02  0.13987874286E+02  0.25500000000E-02 0. -1.
         -1   -1    0    0    0  501 -0.00000000000E+00 -0.00000000000E+00 -0.10751462294E+03  0.10751462305E+03  0.50400000000E-02 0.  1.
         24    2    1    2    0    0  0.44408920985E-15  0.00000000000E+00 -0.93526748883E+02  0.12150249734E+03  0.77560325576E+02 0.  0.
         66    2    3    3    0    0 -0.23419049729E+01  0.35604045223E+02 -0.23100348438E+02  0.42553009700E+02  0.19999953501E+01 0.  0.
        -13    1    3    3    0    0  0.23419049729E+01 -0.35604045223E+02 -0.70426400444E+02  0.78949487641E+02  0.10566000000E+00 0.  1.
         13    1    4    4    0    0 -0.13116229850E+01  0.19237743539E+02 -0.12634094027E+02  0.23053039436E+02  0.10566000000E+00 0. -1.
        -13    1    4    4    0    0 -0.10169411843E+01  0.15988069173E+02 -0.10436666562E+02  0.19120347754E+02  0.10566000000E+00 0.  1.
        -14    1    4    4    0    0 -0.13340803558E-01  0.37823251129E+00 -0.29587849460E-01  0.37962251049E+00  0.00000000000E+00 0.  1.
<mgrwt>
<rscale>  0 0.77560326E+02</rscale>
<asrwt>0</asrwt>
<pdfrwt beam="1">  1        2 0.21519807E-02 0.77560326E+02</pdfrwt>
<pdfrwt beam="2">  1       -1 0.16540711E-01 0.77560326E+02</pdfrwt>
<totfact> 0.12607466E+05</totfact>
</mgrwt>
</event>
<event>
 8    1  0.2603554E-024  0.7961757E+02  0.7818608E-02  0.1330140E+00
         -1   -1    0    0    0  501 -0.00000000000E+00  0.00000000000E+00  0.13989611971E+01  0.13989702758E+01  0.50400000000E-02 0.  1.
          2   -1    0    0  501    0  0.00000000000E+00 -0.00000000000E+00 -0.11327934527E+04  0.11327934527E+04  0.25500000000E-02 0. -1.
         24    2    1    2    0    0  0.00000000000E+00  0.00000000000E+00 -0.11313944915E+04  0.11341924230E+04  0.79617566775E+02 0.  0.
         66    2    3    3    0    0 -0.74042190060E+01 -0.83924827755E+01 -0.11099028644E+04  0.11099610914E+04  0.19999989958E+01 0.  0.
        -13    1    3    3    0    0  0.74042190060E+01  0.83924827755E+01 -0.21491627132E+02  0.24231331516E+02  0.10566000000E+00 0.  1.
         13    1    4    4    0    0 -0.14623977918E+01 -0.16737801195E+01 -0.18200879485E+03  0.18202239619E+03  0.10566000000E+00 0. -1.
        -13    1    4    4    0    0 -0.24725580677E+01 -0.23027294830E+01 -0.28340797850E+03  0.28342813824E+03  0.10566000000E+00 0.  1.
         14    1    4    4    0    0 -0.34692631466E+01 -0.44159731730E+01 -0.64448609101E+03  0.64451055702E+03  0.00000000000E+00 0. -1.
<mgrwt>
<rscale>  0 0.79617567E+02</rscale>
<asrwt>0</asrwt>
<pdfrwt beam="1">  1        2 0.17427518E+00 0.79617567E+02</pdfrwt>
<pdfrwt beam="2">  1       -1 0.21522640E-03 0.79617567E+02</pdfrwt>
<totfact> 0.35646891E+05</totfact>
</mgrwt>
</event>
<event>
 8    1  0.2603554E-024  0.7998884E+02  0.7818608E-02  0.1329083E+00
          2   -1    0    0  501    0  0.00000000000E+00  0.00000000000E+00  0.92035909462E+02  0.92035909497E+02  0.25500000000E-02 0. -1.
         -1   -1    0    0    0  501 -0.00000000000E+00 -0.00000000000E+00 -0.17379667362E+02  0.17379668093E+02  0.50400000000E-02 0.  1.
         24    2    1    2    0    0  0.00000000000E+00  0.71054273576E-14  0.74656242100E+02  0.10941557759E+03  0.79988837564E+02 0.  0.
         66    2    3    3    0    0 -0.28516681216E+01  0.26975780897E+02  0.77505855087E+02  0.82140016655E+02  0.19999993210E+01 0.  0.
        -13    1    3    3    0    0  0.28516681216E+01 -0.26975780897E+02 -0.28496129866E+01  0.27275560935E+02  0.10566000000E+00 0.  1.
         13    1    4    4    0    0 -0.73600421885E+00  0.53667114987E+01  0.16811972102E+02  0.17663432976E+02  0.10566000000E+00 0. -1.
        -13    1    4    4    0    0 -0.50269373651E+00  0.90954560978E+01  0.23723019545E+02  0.25412060975E+02  0.10566000000E+00 0.  1.
        -14    1    4    4    0    0 -0.16129701662E+01  0.12513613301E+02  0.36970863440E+02  0.39064522704E+02  0.00000000000E+00 0.  1.
<mgrwt>
<rscale>  0 0.79988838E+02</rscale>
<asrwt>0</asrwt>
<pdfrwt beam="1">  1        2 0.14159371E-01 0.79988838E+02</pdfrwt>
<pdfrwt beam="2">  1       -1 0.26737951E-02 0.79988838E+02</pdfrwt>
<totfact> 0.17331563E+05</totfact>
</mgrwt>
</event>
<event>
 8    1  0.2603554E-024  0.7239137E+02  0.7818608E-02  0.1352145E+00
          2   -1    0    0  501    0  0.00000000000E+00  0.00000000000E+00  0.95529513394E+02  0.95529513428E+02  0.25500000000E-02 0. -1.
         -1   -1    0    0    0  501 -0.00000000000E+00 -0.00000000000E+00 -0.13714374639E+02  0.13714375565E+02  0.50400000000E-02 0.  1.
         24    2    1    2    0    0  0.22204460493E-15  0.00000000000E+00  0.81815138755E+02  0.10924388899E+03  0.72391369325E+02 0.  0.
         66    2    3    3    0    0  0.17665207171E+01 -0.24051466394E+02  0.81614578853E+02  0.85126571159E+02  0.20000011916E+01 0.  0.
        -13    1    3    3    0    0 -0.17665207171E+01  0.24051466394E+02  0.20055990148E+00  0.24117317833E+02  0.10566000000E+00 0.  1.
         13    1    4    4    0    0  0.26256623946E+00 -0.17571694028E+01  0.46398069077E+01  0.49694624977E+01  0.10566000000E+00 0. -1.
        -13    1    4    4    0    0 -0.22918887274E-01 -0.43936386528E+01  0.15446545386E+02  0.16059623728E+02  0.10566000000E+00 0.  1.
         14    1    4    4    0    0  0.15268733649E+01 -0.17900658338E+02  0.61528226559E+02  0.64097484933E+02  0.00000000000E+00 0. -1.
<mgrwt>
<rscale>  0 0.72391369E+02</rscale>
<asrwt>0</asrwt>
<pdfrwt beam="1">  1        2 0.14696849E-01 0.72391369E+02</pdfrwt>
<pdfrwt beam="2">  1       -1 0.21099038E-02 0.72391369E+02</pdfrwt>
<totfact> 0.22841246E+05</totfact>
</mgrwt>
</event>
<event>
 8    1  0.2603554E-024  0.7290491E+02  0.7818608E-02  0.1350484E+00
         -1   -1    0    0    0  501 -0.00000000000E+00  0.00000000000E+00  0.84619467462E+00  0.84620968379E+00  0.50400000000E-02 0.  1.
          2   -1    0    0  501    0  0.00000000000E+00 -0.00000000000E+00 -0.15702881941E+04  0.15702881941E+04  0.25500000000E-02 0. -1.
         24    2    1    2    0    0 -0.88817841970E-15  0.00000000000E+00 -0.15694419994E+04  0.15711344038E+04  0.72904905179E+02 0.  0.
         66    2    3    3    0    0  0.64673230624E+01 -0.15015225025E+02 -0.14867743799E+04  0.14868656093E+04  0.19999993525E+01 0.  0.
        -13    1    3    3    0    0 -0.64673230624E+01  0.15015225025E+02 -0.82667619493E+02  0.84268794502E+02  0.10566000000E+00 0.  1.
         13    1    4    4    0    0  0.27139735093E+01 -0.55317391587E+01 -0.61903393484E+03  0.61906460845E+03  0.10566000000E+00 0. -1.
        -13    1    4    4    0    0  0.41237310817E+00 -0.56374749095E+00 -0.75334004095E+02  0.75337316118E+02  0.10566000000E+00 0.  1.
        -14    1    4    4    0    0  0.33409764450E+01 -0.89197383757E+01 -0.79240644099E+03  0.79246368471E+03  0.00000000000E+00 0.  1.
<mgrwt>
<rscale>  0 0.72904905E+02</rscale>
<asrwt>0</asrwt>
<pdfrwt beam="1">  1        2 0.24158047E+00 0.72904905E+02</pdfrwt>
<pdfrwt beam="2">  1       -1 0.13018621E-03 0.72904905E+02</pdfrwt>
<totfact> 0.41500247E+05</totfact>
</mgrwt>
</event>
<event>
 8    1  0.2603554E-024  0.7973937E+02  0.7818608E-02  0.1329793E+00
         -1   -1    0    0    0  501 -0.00000000000E+00  0.00000000000E+00  0.22710297030E+01  0.22710352955E+01  0.50400000000E-02 0.  1.
          2   -1    0    0  501    0  0.00000000000E+00 -0.00000000000E+00 -0.69994241261E+03  0.69994241262E+03  0.25500000000E-02 0. -1.
         24    2    1    2    0    0  0.00000000000E+00  0.00000000000E+00 -0.69767138291E+03  0.70221344791E+03  0.79739374831E+02 0.  0.
         66    2    3    3    0    0 -0.22731430740E+02  0.64539459849E+01 -0.63157473087E+03  0.63201978768E+03  0.19999952451E+01 0.  0.
        -13    1    3    3    0    0  0.22731430740E+02 -0.64539459849E+01 -0.66096652041E+02  0.70193660236E+02  0.10566000000E+00 0.  1.
         13    1    4    4    0    0 -0.15450152049E+02  0.50457431971E+01 -0.42630540549E+03  0.42661513878E+03  0.10566000000E+00 0. -1.
        -13    1    4    4    0    0 -0.56021547931E+01  0.11892921939E+01 -0.16610778429E+03  0.16620651528E+03  0.10566000000E+00 0.  1.
         14    1    4    4    0    0 -0.16791238981E+01  0.21891059394E+00 -0.39161541081E+02  0.39198133613E+02  0.00000000000E+00 0. -1.
<mgrwt>
<rscale>  0 0.79739375E+02</rscale>
<asrwt>0</asrwt>
<pdfrwt beam="1">  1        2 0.10768328E+00 0.79739375E+02</pdfrwt>
<pdfrwt beam="2">  1       -1 0.34939018E-03 0.79739375E+02</pdfrwt>
<totfact> 0.33735974E+05</totfact>
</mgrwt>
</event>
<event>
 8    1  0.2603554E-024  0.7743650E+02  0.7818608E-02  0.1336488E+00
          2   -1    0    0  501    0  0.00000000000E+00  0.00000000000E+00  0.48965342231E+03  0.48965342232E+03  0.25500000000E-02 0. -1.
         -1   -1    0    0    0  501 -0.00000000000E+00 -0.00000000000E+00 -0.30615570046E+01  0.30615611530E+01  0.50400000000E-02 0.  1.
         24    2    1    2    0    0 -0.17763568394E-14 -0.35527136788E-14  0.48659186530E+03  0.49271498347E+03  0.77436500141E+02 0.  0.
         66    2    3    3    0    0 -0.88236459117E+01 -0.19851606598E+02  0.44718300156E+03  0.44771484216E+03  0.19999996484E+01 0.  0.
        -13    1    3    3    0    0  0.88236459117E+01  0.19851606598E+02  0.39408863744E+02  0.45000141304E+02  0.10566000000E+00 0.  1.
         13    1    4    4    0    0 -0.57893611471E+00 -0.16115037926E+01  0.27611037873E+02  0.27664285422E+02  0.10566000000E+00 0. -1.
        -13    1    4    4    0    0 -0.20533804448E+01 -0.41367233077E+01  0.10570362643E+03  0.10580452096E+03  0.10566000000E+00 0.  1.
         14    1    4    4    0    0 -0.61913293522E+01 -0.14103379498E+02  0.31386833725E+03  0.31424603578E+03  0.00000000000E+00 0. -1.
<mgrwt>
<rscale>  0 0.77436500E+02</rscale>
<asrwt>0</asrwt>
<pdfrwt beam="1">  1        2 0.75331334E-01 0.77436500E+02</pdfrwt>
<pdfrwt beam="2">  1       -1 0.47100885E-03 0.77436500E+02</pdfrwt>
<totfact> 0.32923563E+05</totfact>
</mgrwt>
</event>
<event>
 8    1  0.2603554E-024  0.8238376E+02  0.7818608E-02  0.1322420E+00
         -1   -1    0    0    0  501 -0.00000000000E+00  0.00000000000E+00  0.46118790587E+01  0.46118818126E+01  0.50400000000E-02 0.  1.
          2   -1    0    0  501    0  0.00000000000E+00 -0.00000000000E+00 -0.36791304862E+03  0.36791304863E+03  0.25500000000E-02 0. -1.
         24    2    1    2    0    0 -0.35527136788E-14 -0.35527136788E-14 -0.36330116957E+03  0.37252493045E+03  0.82383760511E+02 0.  0.
         66    2    3    3    0    0  0.22210578521E+02  0.13101084088E+02 -0.32686620172E+03  0.32788788027E+03  0.19999997039E+01 0.  0.
        -13    1    3    3    0    0 -0.22210578521E+02 -0.13101084088E+02 -0.36434967851E+02  0.44637050181E+02  0.10566000000E+00 0.  1.
         13    1    4    4    0    0  0.17861567630E+02  0.10578380650E+02 -0.25882109422E+03  0.25965228232E+03  0.10566000000E+00 0. -1.
        -13    1    4    4    0    0  0.42049053262E+01  0.25462256807E+01 -0.64333553422E+02  0.64521172912E+02  0.10566000000E+00 0.  1.
        -14    1    4    4    0    0  0.14410556470E+00 -0.23522243403E-01 -0.37115540723E+01  0.37144250351E+01  0.00000000000E+00 0.  1.
<mgrwt>
<rscale>  0 0.82383761E+02</rscale>
<asrwt>0</asrwt>
<pdfrwt beam="1">  1        2 0.56601985E-01 0.82383761E+02</pdfrwt>
<pdfrwt beam="2">  1       -1 0.70952036E-03 0.82383761E+02</pdfrwt>
<totfact> 0.25402054E+05</totfact>
</mgrwt>
</event>
<event>
 8    1  0.2603554E-024  0.7800781E+02  0.7818608E-02  0.1334802E+00
          2   -1    0    0  501    0  0.00000000000E+00  0.00000000000E+00  0.35349819061E+02  0.35349819153E+02  0.25500000000E-02 0. -1.
         -1   -1    0    0    0  501 -0.00000000000E+00 -0.00000000000E+00 -0.43035709869E+02  0.43035710164E+02  0.50400000000E-02 0.  1.
         24    2    1    2    0    0 -0.35527136788E-14  0.35527136788E-14 -0.76858908079E+01  0.78385529317E+02  0.78007809153E+02 0.  0.
         66    2    3    3    0    0  0.18523080640E+02 -0.25516573025E+02  0.19180544504E+02  0.36960699496E+02  0.20000011011E+01 0.  0.
        -13    1    3    3    0    0 -0.18523080640E+02  0.25516573025E+02 -0.26866435311E+02  0.41424829822E+02  0.10566000000E+00 0.  1.
         13    1    4    4    0    0  0.11156942597E+02 -0.14090318846E+02  0.11247955863E+02  0.21202408553E+02  0.10566000000E+00 0. -1.
        -13    1    4    4    0    0  0.26316080831E+01 -0.47524429746E+01  0.31756992506E+01  0.62934334902E+01  0.10566000000E+00 0.  1.
         14    1    4    4    0    0  0.47345299607E+01 -0.66738112042E+01  0.47568893898E+01  0.94648574529E+01  0.00000000000E+00 0. -1.
<mgrwt>
<rscale>  0 0.78007809E+02</rscale>
<asrwt>0</asrwt>
<pdfrwt beam="1">  1        2 0.54384337E-02 0.78007809E+02</pdfrwt>
<pdfrwt beam="2">  1       -1 0.66208785E-02 0.78007809E+02</pdfrwt>
<totfact> 0.14909281E+05</totfact>
</mgrwt>
</event>
<event>
 8    1  0.2603554E-024  0.7959308E+02  0.7818608E-02  0.1330210E+00
          2   -1    0    0  501    0  0.00000000000E+00  0.00000000000E+00  0.97541553752E+01  0.97541557085E+01  0.25500000000E-02 0. -1.
         -1   -1    0    0    0  501 -0.00000000000E+00 -0.00000000000E+00 -0.16236817870E+03  0.16236817878E+03  0.50400000000E-02 0.  1.
         24    2    1    2    0    0 -0.17763568394E-14  0.00000000000E+00 -0.15261402333E+03  0.17212233449E+03  0.79593077047E+02 0.  0.
         66    2    3    3    0    0  0.14014844172E+02 -0.23962306392E+02 -0.14764671152E+02  0.31505610576E+02  0.19999996942E+01 0.  0.
        -13    1    3    3    0    0 -0.14014844172E+02  0.23962306392E+02 -0.13784935218E+03  0.14061672391E+03  0.10566000000E+00 0.  1.
         13    1    4    4    0    0  0.64412548652E+01 -0.98632087729E+01 -0.68384006176E+01  0.13621583556E+02  0.10566000000E+00 0. -1.
        -13    1    4    4    0    0  0.41165787563E+01 -0.73325415602E+01 -0.46455691387E+01  0.96075419877E+01  0.10566000000E+00 0. -1.
        -14    1    4    4    0    0  0.34570105508E+01 -0.67665560585E+01 -0.32807013953E+01  0.82764850321E+01  0.00000000000E+00 0.  1.
<mgrwt>
<rscale>  0 0.79593077E+02</rscale>
<asrwt>0</asrwt>
<pdfrwt beam="1">  1        2 0.15006394E-02 0.79593077E+02</pdfrwt>
<pdfrwt beam="2">  1       -1 0.24979718E-01 0.79593077E+02</pdfrwt>
<totfact> 0.10704348E+05</totfact>
</mgrwt>
</event>
<event>
 8    1  0.2603554E-024  0.7965072E+02  0.7818608E-02  0.1330046E+00
          2   -1    0    0  501    0  0.00000000000E+00  0.00000000000E+00  0.89227436500E+03  0.89227436500E+03  0.25500000000E-02 0. -1.
         -1   -1    0    0    0  501 -0.00000000000E+00 -0.00000000000E+00 -0.17775431097E+01  0.17775502548E+01  0.50400000000E-02 0.  1.
         24    2    1    2    0    0  0.35527136788E-14  0.00000000000E+00  0.89049682189E+03  0.89405191526E+03  0.79650721155E+02 0.  0.
         66    2    3    3    0    0 -0.20984506855E+02  0.13578974765E+02  0.79318772360E+03  0.79358396088E+03  0.20000016584E+01 0.  0.
        -13    1    3    3    0    0  0.20984506855E+02 -0.13578974765E+02  0.97309098286E+02  0.10046795438E+03  0.10566000000E+00 0.  1.
         13    1    4    4    0    0 -0.18128933124E+02  0.12082549324E+02  0.68650487481E+03  0.68685049357E+03  0.10566000000E+00 0. -1.
        -13    1    4    4    0    0 -0.24110918804E+01  0.97918737924E+00  0.83956094480E+02  0.83996482881E+02  0.10566000000E+00 0.  1.
        -14    1    4    4    0    0 -0.44448185027E+00  0.51723806140E+00  0.22726754316E+02  0.22736984432E+02  0.00000000000E+00 0.  1.
<mgrwt>
<rscale>  0 0.79650721E+02</rscale>
<asrwt>0</asrwt>
<pdfrwt beam="1">  1        2 0.13727329E+00 0.79650721E+02</pdfrwt>
<pdfrwt beam="2">  1       -1 0.27346810E-03 0.79650721E+02</pdfrwt>
<totfact> 0.35311538E+05</totfact>
</mgrwt>
</event>
<event>
 8    1  0.2603554E-024  0.7985477E+02  0.7818608E-02  0.1329464E+00
         -1   -1    0    0    0  501 -0.00000000000E+00  0.00000000000E+00  0.20476212708E+02  0.20476213328E+02  0.50400000000E-02 0.  1.
          2   -1    0    0  501    0  0.00000000000E+00 -0.00000000000E+00 -0.77856001881E+02  0.77856001922E+02  0.25500000000E-02 0. -1.
         24    2    1    2    0    0  0.88817841970E-15  0.00000000000E+00 -0.57379789172E+02  0.98332215251E+02  0.79854770369E+02 0.  0.
         66    2    3    3    0    0  0.34890770649E+01  0.36182767993E+02 -0.48972492754E+02  0.61021892879E+02  0.20000014046E+01 0.  0.
        -13    1    3    3    0    0 -0.34890770649E+01 -0.36182767993E+02 -0.84072964186E+01  0.37310322372E+02  0.10566000000E+00 0.  1.
         13    1    4    4    0    0  0.24717934103E+01  0.24447875677E+02 -0.34110661823E+02  0.42039942933E+02  0.10566000000E+00 0. -1.
        -13    1    4    4    0    0  0.24411692982E+00  0.41197565219E+01 -0.46177099861E+01  0.61940613838E+01  0.10566000000E+00 0.  1.
        -14    1    4    4    0    0  0.77316672474E+00  0.76151357938E+01 -0.10244120945E+02  0.12787888562E+02  0.00000000000E+00 0.  1.
<mgrwt>
<rscale>  0 0.79854770E+02</rscale>
<asrwt>0</asrwt>
<pdfrwt beam="1">  1        2 0.11977846E-01 0.79854770E+02</pdfrwt>
<pdfrwt beam="2">  1       -1 0.31501867E-02 0.79854770E+02</pdfrwt>
<totfact> 0.16661623E+05</totfact>
</mgrwt>
</event>
<event>
 8    1  0.2603554E-024  0.7870336E+02  0.7818608E-02  0.1332772E+00
          2   -1    0    0  501    0  0.00000000000E+00  0.00000000000E+00  0.50317311619E+03  0.50317311619E+03  0.25500000000E-02 0. -1.
         -1   -1    0    0    0  501 -0.00000000000E+00 -0.00000000000E+00 -0.30775762103E+01  0.30775803372E+01  0.50400000000E-02 0.  1.
         24    2    1    2    0    0  0.00000000000E+00  0.00000000000E+00  0.50009553998E+03  0.50625069653E+03  0.78703358462E+02 0.  0.
         66    2    3    3    0    0  0.30967740266E+02  0.12113694141E+02  0.38525944929E+03  0.38669702068E+03  0.20000017106E+01 0.  0.
        -13    1    3    3    0    0 -0.30967740266E+02 -0.12113694141E+02  0.11483609068E+03  0.11955367585E+03  0.10566000000E+00 0.  1.
         13    1    4    4    0    0  0.58275935320E+01  0.26675419021E+01  0.72310938940E+02  0.72594487949E+02  0.10566000000E+00 0. -1.
        -13    1    4    4    0    0  0.95477697670E+01  0.37679698861E+01  0.12817763817E+03  0.12858800720E+03  0.10566000000E+00 0.  1.
         14    1    4    4    0    0  0.15592376967E+02  0.56781823528E+01  0.18477087218E+03  0.18551452553E+03  0.00000000000E+00 0. -1.
<mgrwt>
<rscale>  0 0.78703358E+02</rscale>
<asrwt>0</asrwt>
<pdfrwt beam="1">  1        2 0.77411239E-01 0.78703358E+02</pdfrwt>
<pdfrwt beam="2">  1       -1 0.47347364E-03 0.78703358E+02</pdfrwt>
<totfact> 0.31839035E+05</totfact>
</mgrwt>
</event>
<event>
 8    1  0.2603554E-024  0.7951733E+02  0.7818608E-02  0.1330427E+00
         -1   -1    0    0    0  501 -0.00000000000E+00  0.00000000000E+00  0.49837039793E+01  0.49837065277E+01  0.50400000000E-02 0.  1.
          2   -1    0    0  501    0  0.00000000000E+00 -0.00000000000E+00 -0.31718399544E+03  0.31718399545E+03  0.25500000000E-02 0. -1.
         24    2    1    2    0    0  0.35527136788E-14 -0.35527136788E-14 -0.31220029146E+03  0.32216770197E+03  0.79517332762E+02 0.  0.
         66    2    3    3    0    0  0.20963000091E+02 -0.23370402713E+02 -0.25487035511E+03  0.25680444119E+03  0.20000002012E+01 0.  0.
        -13    1    3    3    0    0 -0.20963000091E+02  0.23370402713E+02 -0.57329936343E+02  0.65363260789E+02  0.10566000000E+00 0.  1.
         13    1    4    4    0    0  0.15989673403E+02 -0.18508877119E+02 -0.19861933221E+03  0.20011971037E+03  0.10566000000E+00 0. -1.
        -13    1    4    4    0    0  0.22362996768E+01 -0.20079792533E+01 -0.27237201938E+02  0.27402725236E+02  0.10566000000E+00 0.  1.
         14    1    4    4    0    0  0.27370270114E+01 -0.28535463406E+01 -0.29013820970E+02  0.29282005581E+02  0.00000000000E+00 0. -1.
<mgrwt>
<rscale>  0 0.79517333E+02</rscale>
<asrwt>0</asrwt>
<pdfrwt beam="1">  1        2 0.48797522E-01 0.79517333E+02</pdfrwt>
<pdfrwt beam="2">  1       -1 0.76672414E-03 0.79517333E+02</pdfrwt>
<totfact> 0.26428715E+05</totfact>
</mgrwt>
</event>
<event>
 8    1  0.2603554E-024  0.7959832E+02  0.7818608E-02  0.1330195E+00
          2   -1    0    0  501    0  0.00000000000E+00  0.00000000000E+00  0.96129323525E+02  0.96129323558E+02  0.25500000000E-02 0. -1.
         -1   -1    0    0    0  501 -0.00000000000E+00 -0.00000000000E+00 -0.16477524012E+02  0.16477524783E+02  0.50400000000E-02 0.  1.
         24    2    1    2    0    0  0.35527136788E-14 -0.17763568394E-14  0.79651799512E+02  0.11260684834E+03  0.79598323650E+02 0.  0.
         66    2    3    3    0    0  0.25103354619E+02 -0.14509320827E+02  0.78367662261E+02  0.83583427170E+02  0.20000013215E+01 0.  0.
        -13    1    3    3    0    0 -0.25103354619E+02  0.14509320827E+02  0.12841372515E+01  0.29023421172E+02  0.10566000000E+00 0.  1.
         13    1    4    4    0    0  0.10760114028E+02 -0.66691500251E+01  0.32731546652E+02  0.35094485696E+02  0.10566000000E+00 0. -1.
        -13    1    4    4    0    0  0.74805399114E+00 -0.70030787133E+00  0.27767354585E+01  0.29616616502E+01  0.10566000000E+00 0.  1.
        -14    1    4    4    0    0  0.13595186600E+02 -0.71398629306E+01  0.42859380150E+02  0.45527279824E+02  0.00000000000E+00 0.  1.
<mgrwt>
<rscale>  0 0.79598324E+02</rscale>
<asrwt>0</asrwt>
<pdfrwt beam="1">  1        2 0.14789127E-01 0.79598324E+02</pdfrwt>
<pdfrwt beam="2">  1       -1 0.25350037E-02 0.79598324E+02</pdfrwt>
<totfact> 0.17770694E+05</totfact>
</mgrwt>
</event>
<event>
 8    1  0.2603554E-024  0.7990768E+02  0.7818608E-02  0.1329314E+00
         -1   -1    0    0    0  501 -0.00000000000E+00  0.00000000000E+00  0.23821427709E+01  0.23821481026E+01  0.50400000000E-02 0.  1.
          2   -1    0    0  501    0  0.00000000000E+00 -0.00000000000E+00 -0.67011410736E+03  0.67011410736E+03  0.25500000000E-02 0. -1.
         24    2    1    2    0    0  0.00000000000E+00  0.00000000000E+00 -0.66773196459E+03  0.67249625547E+03  0.79907678503E+02 0.  0.
         66    2    3    3    0    0  0.11562229579E+02  0.26622140939E+01 -0.65493310123E+03  0.65504361658E+03  0.20000003449E+01 0.  0.
        -13    1    3    3    0    0 -0.11562229579E+02 -0.26622140939E+01 -0.12798863356E+02  0.17452638882E+02  0.10566000000E+00 0.  1.
         13    1    4    4    0    0  0.48342199161E+00  0.84915611427E-01 -0.23874575821E+02  0.23879854316E+02  0.10566000000E+00 0.  1.
        -13    1    4    4    0    0  0.25657516077E+01  0.13757425945E+01 -0.14628340640E+03  0.14631241198E+03  0.10566000000E+00 0.  1.
         14    1    4    4    0    0  0.85130559795E+01  0.12015558879E+01 -0.48477511901E+03  0.48485135028E+03  0.00000000000E+00 0. -1.
<mgrwt>
<rscale>  0 0.79907679E+02</rscale>
<asrwt>0</asrwt>
<pdfrwt beam="1">  1        2 0.10309433E+00 0.79907679E+02</pdfrwt>
<pdfrwt beam="2">  1       -1 0.36648445E-03 0.79907679E+02</pdfrwt>
<totfact> 0.33207562E+05</totfact>
</mgrwt>
</event>
<event>
 8    1  0.2603554E-024  0.7911664E+02  0.7818608E-02  0.1331577E+00
         -1   -1    0    0    0  501 -0.00000000000E+00  0.00000000000E+00  0.68880801820E+01  0.68880820259E+01  0.50400000000E-02 0.  1.
          2   -1    0    0  501    0  0.00000000000E+00 -0.00000000000E+00 -0.22718382656E+03  0.22718382657E+03  0.25500000000E-02 0. -1.
         24    2    1    2    0    0  0.00000000000E+00  0.00000000000E+00 -0.22029574637E+03  0.23407190860E+03  0.79116638727E+02 0.  0.
         66    2    3    3    0    0  0.28691157393E+02  0.22873850809E+02 -0.15374623587E+03  0.15807688194E+03  0.19999995161E+01 0.  0.
        -13    1    3    3    0    0 -0.28691157393E+02 -0.22873850809E+02 -0.66549510509E+02  0.75995026655E+02  0.10566000000E+00 0.  1.
         13    1    4    4    0    0  0.62798855733E+01  0.57606494681E+01 -0.36743908699E+02  0.37719332385E+02  0.10566000000E+00 0.  1.
        -13    1    4    4    0    0  0.12350955708E+02  0.97958113283E+01 -0.67406153371E+02  0.69225029453E+02  0.10566000000E+00 0. -1.
        -14    1    4    4    0    0  0.10060316111E+02  0.73173900125E+01 -0.49596173797E+02  0.51132520104E+02  0.00000000000E+00 0.  1.
<mgrwt>
<rscale>  0 0.79116639E+02</rscale>
<asrwt>0</asrwt>
<pdfrwt beam="1">  1        2 0.34951352E-01 0.79116639E+02</pdfrwt>
<pdfrwt beam="2">  1       -1 0.10597050E-02 0.79116639E+02</pdfrwt>
<totfact> 0.23751847E+05</totfact>
</mgrwt>
</event>
<event>
 8    1  0.2603554E-024  0.7854813E+02  0.7818608E-02  0.1333223E+00
          2   -1    0    0  501    0  0.00000000000E+00  0.00000000000E+00  0.25225626316E+02  0.25225626445E+02  0.25500000000E-02 0. -1.
         -1   -1    0    0    0  501 -0.00000000000E+00 -0.00000000000E+00 -0.61146231767E+02  0.61146231974E+02  0.50400000000E-02 0.  1.
         24    2    1    2    0    0  0.00000000000E+00  0.00000000000E+00 -0.35920605451E+02  0.86371858419E+02  0.78548125571E+02 0.  0.
         66    2    3    3    0    0  0.19560654733E+02  0.30446236513E+02 -0.12646390885E+01  0.36265574382E+02  0.20000104545E+01 0.  0.
        -13    1    3    3    0    0 -0.19560654733E+02 -0.30446236513E+02 -0.34655966363E+02  0.50106284037E+02  0.10566000000E+00 0.  1.
         13    1    4    4    0    0  0.43649868516E+01  0.72040447729E+01 -0.29976887261E+00  0.84292583729E+01  0.10566000000E+00 0. -1.
        -13    1    4    4    0    0  0.50917497425E+01  0.92675741089E+01 -0.31939599904E+00  0.10579556850E+02  0.10566000000E+00 0.  1.
        -14    1    4    4    0    0  0.10103918139E+02  0.13974617632E+02 -0.64547421682E+00  0.17256759159E+02  0.00000000000E+00 0.  1.
<mgrwt>
<rscale>  0 0.78548126E+02</rscale>
<asrwt>0</asrwt>
<pdfrwt beam="1">  1        2 0.38808656E-02 0.78548126E+02</pdfrwt>
<pdfrwt beam="2">  1       -1 0.94071126E-02 0.78548126E+02</pdfrwt>
<totfact> 0.13694038E+05</totfact>
</mgrwt>
</event>
<event>
 8    1  0.2603554E-024  0.8204066E+02  0.7818608E-02  0.1323358E+00
         -1   -1    0    0    0  501 -0.00000000000E+00  0.00000000000E+00  0.80805612617E+01  0.80805628335E+01  0.50400000000E-02 0.  1.
          2   -1    0    0  501    0  0.00000000000E+00 -0.00000000000E+00 -0.20823643934E+03  0.20823643935E+03  0.25500000000E-02 0. -1.
         24    2    1    2    0    0  0.00000000000E+00 -0.88817841970E-15 -0.20015587808E+03  0.21631700219E+03  0.82040660083E+02 0.  0.
         66    2    3    3    0    0 -0.35961102059E+02  0.77448437065E+01 -0.14785206399E+03  0.15237262325E+03  0.20000063409E+01 0.  0.
        -13    1    3    3    0    0  0.35961102059E+02 -0.77448437065E+01 -0.52303814088E+02  0.63944378936E+02  0.10566000000E+00 0.  1.
         13    1    4    4    0    0 -0.15097417088E+02  0.32963440499E+01 -0.60101696334E+02  0.62056610873E+02  0.10566000000E+00 0. -1.
        -13    1    4    4    0    0 -0.58004014608E+01  0.11548338583E+01 -0.21934940955E+02  0.22718518813E+02  0.10566000000E+00 0.  1.
        -14    1    4    4    0    0 -0.15063283511E+02  0.32936657982E+01 -0.65815426701E+02  0.67597493565E+02  0.00000000000E+00 0.  1.
<mgrwt>
<rscale>  0 0.82040660E+02</rscale>
<asrwt>0</asrwt>
<pdfrwt beam="1">  1        2 0.32036371E-01 0.82040660E+02</pdfrwt>
<pdfrwt beam="2">  1       -1 0.12431636E-02 0.82040660E+02</pdfrwt>
<totfact> 0.20931682E+05</totfact>
</mgrwt>
</event>
<event>
 8    1  0.2603554E-024  0.8191553E+02  0.7818608E-02  0.1323702E+00
         -1   -1    0    0    0  501 -0.00000000000E+00  0.00000000000E+00  0.79487210298E+01  0.79487226277E+01  0.50400000000E-02 0.  1.
          2   -1    0    0  501    0  0.00000000000E+00 -0.00000000000E+00 -0.21104506147E+03  0.21104506148E+03  0.25500000000E-02 0. -1.
         24    2    1    2    0    0 -0.71054273576E-14  0.00000000000E+00 -0.20309634044E+03  0.21899378411E+03  0.81915529540E+02 0.  0.
         66    2    3    3    0    0 -0.39157018870E+02 -0.27675141394E+01 -0.13262495773E+03  0.13832682553E+03  0.19999970032E+01 0.  0.
        -13    1    3    3    0    0  0.39157018870E+02  0.27675141394E+01 -0.70471382707E+02  0.80666958576E+02  0.10566000000E+00 0.  1.
         13    1    4    4    0    0 -0.10994704497E+02 -0.11467576625E+01 -0.38253812336E+02  0.39819139900E+02  0.10566000000E+00 0. -1.
        -13    1    4    4    0    0 -0.27889170964E+02 -0.17497024651E+01 -0.93367314676E+02  0.97459396312E+02  0.10566000000E+00 0.  1.
        -14    1    4    4    0    0 -0.27314340896E+00  0.12894598819E+00 -0.10038307189E+01  0.10482893217E+01  0.00000000000E+00 0.  1.
<mgrwt>
<rscale>  0 0.81915530E+02</rscale>
<asrwt>0</asrwt>
<pdfrwt beam="1">  1        2 0.32468467E-01 0.81915530E+02</pdfrwt>
<pdfrwt beam="2">  1       -1 0.12228804E-02 0.81915530E+02</pdfrwt>
<totfact> 0.21115453E+05</totfact>
</mgrwt>
</event>
<event>
 8    1  0.2603554E-024  0.7987325E+02  0.7818608E-02  0.1329412E+00
         -1   -1    0    0    0  501 -0.00000000000E+00  0.00000000000E+00  0.24890007357E+01  0.24890058385E+01  0.50400000000E-02 0.  1.
          2   -1    0    0  501    0  0.00000000000E+00 -0.00000000000E+00 -0.64079230615E+03  0.64079230616E+03  0.25500000000E-02 0. -1.
         24    2    1    2    0    0  0.00000000000E+00  0.17763568394E-14 -0.63830330542E+03  0.64328131200E+03  0.79873253704E+02 0.  0.
         66    2    3    3    0    0  0.64613914845E+01  0.13177877343E+02 -0.61826709683E+03  0.61844450766E+03  0.19999997147E+01 0.  0.
        -13    1    3    3    0    0 -0.64613914845E+01 -0.13177877343E+02 -0.20036208591E+02  0.24836804342E+02  0.10566000000E+00 0.  1.
         13    1    4    4    0    0  0.32109041949E+01  0.71604403960E+01 -0.31839197329E+03  0.31848868368E+03  0.10566000000E+00 0. -1.
        -13    1    4    4    0    0  0.18332921702E+01  0.21697476637E+01 -0.11334218919E+03  0.11337782755E+03  0.10566000000E+00 0.  1.
         14    1    4    4    0    0  0.14171951195E+01  0.38476892835E+01 -0.18653293435E+03  0.18657799643E+03  0.00000000000E+00 0. -1.
<mgrwt>
<rscale>  0 0.79873254E+02</rscale>
<asrwt>0</asrwt>
<pdfrwt beam="1">  1        2 0.98583300E-01 0.79873254E+02</pdfrwt>
<pdfrwt beam="2">  1       -1 0.38292410E-03 0.79873254E+02</pdfrwt>
<totfact> 0.32872518E+05</totfact>
</mgrwt>
</event>
<event>
 8    1  0.2603554E-024  0.8074454E+02  0.7818608E-02  0.1326952E+00
          2   -1    0    0  501    0  0.00000000000E+00  0.00000000000E+00  0.28169969423E+03  0.28169969424E+03  0.25500000000E-02 0. -1.
         -1   -1    0    0    0  501 -0.00000000000E+00 -0.00000000000E+00 -0.57860188049E+01  0.57860210000E+01  0.50400000000E-02 0.  1.
         24    2    1    2    0    0 -0.17763568394E-14  0.00000000000E+00  0.27591367543E+03  0.28748571524E+03  0.80744536542E+02 0.  0.
         66    2    3    3    0    0 -0.12200831873E+02  0.13630411168E+02  0.26608168410E+03  0.26671728669E+03  0.19999999201E+01 0.  0.
        -13    1    3    3    0    0  0.12200831873E+02 -0.13630411168E+02  0.98319913265E+01  0.20768428551E+02  0.10566000000E+00 0.  1.
         13    1    4    4    0    0 -0.45453475942E+01  0.51686240139E+01  0.97815906318E+02  0.98057827591E+02  0.10566000000E+00 0. -1.
        -13    1    4    4    0    0 -0.70817164346E+01  0.71169933875E+01  0.14391655880E+03  0.14426638335E+03  0.10566000000E+00 0.  1.
        -14    1    4    4    0    0 -0.57376784459E+00  0.13447937666E+01  0.24349218979E+02  0.24393075753E+02  0.00000000000E+00 0.  1.
<mgrwt>
<rscale>  0 0.80744537E+02</rscale>
<asrwt>0</asrwt>
<pdfrwt beam="1">  1        2 0.43338427E-01 0.80744537E+02</pdfrwt>
<pdfrwt beam="2">  1       -1 0.89015666E-03 0.80744537E+02</pdfrwt>
<totfact> 0.24321023E+05</totfact>
</mgrwt>
</event>
<event>
 8    1  0.2603554E-024  0.7781912E+02  0.7818608E-02  0.1335357E+00
         -1   -1    0    0    0  501 -0.00000000000E+00  0.00000000000E+00  0.17241532382E+01  0.17241606046E+01  0.50400000000E-02 0.  1.
          2   -1    0    0  501    0  0.00000000000E+00 -0.00000000000E+00 -0.87808346892E+03  0.87808346893E+03  0.25500000000E-02 0. -1.
         24    2    1    2    0    0  0.17763568394E-14  0.00000000000E+00 -0.87635931568E+03  0.87980762953E+03  0.77819115865E+02 0.  0.
         66    2    3    3    0    0  0.11476643943E+02 -0.12852468063E+02 -0.83256099885E+03  0.83274168629E+03  0.19999974513E+01 0.  0.
        -13    1    3    3    0    0 -0.11476643943E+02  0.12852468063E+02 -0.43798316838E+02  0.47065943243E+02  0.10566000000E+00 0.  1.
         13    1    4    4    0    0  0.97007481378E+01 -0.10035272533E+02 -0.65784528466E+03  0.65799334413E+03  0.10566000000E+00 0. -1.
        -13    1    4    4    0    0  0.14711469437E+01 -0.26178473947E+01 -0.15181074127E+03  0.15184047460E+03  0.10566000000E+00 0.  1.
        -14    1    4    4    0    0  0.30474886146E+00 -0.19934813531E+00 -0.22904972920E+02  0.22907867558E+02  0.00000000000E+00 0.  1.
<mgrwt>
<rscale>  0 0.77819116E+02</rscale>
<asrwt>0</asrwt>
<pdfrwt beam="1">  1        2 0.13508941E+00 0.77819116E+02</pdfrwt>
<pdfrwt beam="2">  1       -1 0.26525561E-03 0.77819116E+02</pdfrwt>
<totfact> 0.37434968E+05</totfact>
</mgrwt>
</event>
<event>
 8    1  0.2603554E-024  0.7901548E+02  0.7818608E-02  0.1331869E+00
          2   -1    0    0  501    0  0.00000000000E+00  0.00000000000E+00  0.62133221537E+02  0.62133221589E+02  0.25500000000E-02 0. -1.
         -1   -1    0    0    0  501 -0.00000000000E+00 -0.00000000000E+00 -0.25121204946E+02  0.25121205452E+02  0.50400000000E-02 0.  1.
         24    2    1    2    0    0  0.00000000000E+00  0.00000000000E+00  0.37012016591E+02  0.87254427041E+02  0.79015477383E+02 0.  0.
         66    2    3    3    0    0  0.27213332801E+02  0.13272737247E+02  0.46500249377E+02  0.55524807415E+02  0.20000025354E+01 0.  0.
        -13    1    3    3    0    0 -0.27213332801E+02 -0.13272737247E+02 -0.94882327867E+01  0.31729619626E+02  0.10566000000E+00 0.  1.
         13    1    4    4    0    0  0.81284206806E+01  0.33506715114E+01  0.13718731271E+02  0.16294568851E+02  0.10566000000E+00 0. -1.
        -13    1    4    4    0    0  0.70496644873E+01  0.29996380144E+01  0.11322130166E+02  0.13671042138E+02  0.10566000000E+00 0.  1.
         14    1    4    4    0    0  0.12035247633E+02  0.69224277212E+01  0.21459387940E+02  0.25559196425E+02  0.00000000000E+00 0. -1.
<mgrwt>
<rscale>  0 0.79015477E+02</rscale>
<asrwt>0</asrwt>
<pdfrwt beam="1">  1        2 0.95589572E-02 0.79015477E+02</pdfrwt>
<pdfrwt beam="2">  1       -1 0.38648008E-02 0.79015477E+02</pdfrwt>
<totfact> 0.16229676E+05</totfact>
</mgrwt>
</event>
<event>
 8    1  0.2603554E-024  0.8033357E+02  0.7818608E-02  0.1328107E+00
         -1   -1    0    0    0  501 -0.00000000000E+00  0.00000000000E+00  0.18264789495E+01  0.18264859032E+01  0.50400000000E-02 0.  1.
          2   -1    0    0  501    0  0.00000000000E+00 -0.00000000000E+00 -0.88332120058E+03  0.88332120058E+03  0.25500000000E-02 0. -1.
         24    2    1    2    0    0  0.00000000000E+00  0.00000000000E+00 -0.88149472163E+03  0.88514768649E+03  0.80333571006E+02 0.  0.
         66    2    3    3    0    0 -0.21893583769E+02 -0.17325039644E+02 -0.75881614593E+03  0.75933222596E+03  0.20000101816E+01 0.  0.
        -13    1    3    3    0    0  0.21893583769E+02  0.17325039644E+02 -0.12267857570E+03  0.12581546053E+03  0.10566000000E+00 0.  1.
         13    1    4    4    0    0 -0.95191746885E+01 -0.86380284940E+01 -0.34401135882E+03  0.34425144355E+03  0.10566000000E+00 0. -1.
        -13    1    4    4    0    0 -0.10167293430E+02 -0.74402134396E+01 -0.34514530259E+03  0.34537518975E+03  0.10566000000E+00 0.  1.
        -14    1    4    4    0    0 -0.22071156504E+01 -0.12467977105E+01 -0.69659484521E+02  0.69705592657E+02  0.00000000000E+00 0.  1.
<mgrwt>
<rscale>  0 0.80333571E+02</rscale>
<asrwt>0</asrwt>
<pdfrwt beam="1">  1        2 0.13589523E+00 0.80333571E+02</pdfrwt>
<pdfrwt beam="2">  1       -1 0.28099800E-03 0.80333571E+02</pdfrwt>
<totfact> 0.34496337E+05</totfact>
</mgrwt>
</event>
<event>
 8    1  0.2603554E-024  0.7777184E+02  0.7818608E-02  0.1335496E+00
         -1   -1    0    0    0  501 -0.00000000000E+00  0.00000000000E+00  0.28180177567E+01  0.28180222637E+01  0.50400000000E-02 0.  1.
          2   -1    0    0  501    0  0.00000000000E+00 -0.00000000000E+00 -0.53658761103E+03  0.53658761104E+03  0.25500000000E-02 0. -1.
         24    2    1    2    0    0  0.00000000000E+00  0.00000000000E+00 -0.53376959327E+03  0.53940563330E+03  0.77771836370E+02 0.  0.
         66    2    3    3    0    0 -0.53081358249E+01 -0.10507968354E+02 -0.52391907804E+03  0.52405514408E+03  0.19999997884E+01 0.  0.
        -13    1    3    3    0    0  0.53081358249E+01  0.10507968354E+02 -0.98505152362E+01  0.15350489221E+02  0.10566000000E+00 0.  1.
         13    1    4    4    0    0 -0.25752995311E+01 -0.63334702101E+01 -0.30273979124E+03  0.30281700311E+03  0.10566000000E+00 0. -1.
        -13    1    4    4    0    0 -0.10829185266E+00 -0.84921348402E+00 -0.40785278774E+02  0.40794399363E+02  0.10566000000E+00 0.  1.
         14    1    4    4    0    0 -0.26245444411E+01 -0.33252846603E+01 -0.18039400803E+03  0.18044374160E+03  0.00000000000E+00 0. -1.
<mgrwt>
<rscale>  0 0.77771836E+02</rscale>
<asrwt>0</asrwt>
<pdfrwt beam="1">  1        2 0.82551859E-01 0.77771836E+02</pdfrwt>
<pdfrwt beam="2">  1       -1 0.43354197E-03 0.77771836E+02</pdfrwt>
<totfact> 0.33502540E+05</totfact>
</mgrwt>
</event>
<event>
 8    1  0.2603554E-024  0.7935007E+02  0.7818608E-02  0.1330906E+00
         -1   -1    0    0    0  501 -0.00000000000E+00  0.00000000000E+00  0.11435356328E+02  0.11435357439E+02  0.50400000000E-02 0.  1.
          2   -1    0    0  501    0  0.00000000000E+00 -0.00000000000E+00 -0.13765275158E+03  0.13765275161E+03  0.25500000000E-02 0. -1.
         24    2    1    2    0    0 -0.35527136788E-14  0.88817841970E-15 -0.12621739525E+03  0.14908810905E+03  0.79350068645E+02 0.  0.
         66    2    3    3    0    0  0.25702338488E+02 -0.72944563600E+01 -0.11819283550E+03  0.12119144221E+03  0.20000008800E+01 0.  0.
        -13    1    3    3    0    0 -0.25702338488E+02  0.72944563600E+01 -0.80245597538E+01  0.27896666837E+02  0.10566000000E+00 0.  1.
         13    1    4    4    0    0  0.48031714223E+01 -0.14761152874E+01 -0.22023691006E+02  0.22589898221E+02  0.10566000000E+00 0. -1.
        -13    1    4    4    0    0  0.30052145884E+01 -0.13520094355E+01 -0.16397473905E+02  0.16725655704E+02  0.10566000000E+00 0.  1.
        -14    1    4    4    0    0  0.17893952478E+02 -0.44663316372E+01 -0.79771670590E+02  0.81875888284E+02  0.00000000000E+00 0.  1.
<mgrwt>
<rscale>  0 0.79350069E+02</rscale>
<asrwt>0</asrwt>
<pdfrwt beam="1">  1        2 0.21177345E-01 0.79350069E+02</pdfrwt>
<pdfrwt beam="2">  1       -1 0.17592858E-02 0.79350069E+02</pdfrwt>
<totfact> 0.19917208E+05</totfact>
</mgrwt>
</event>
<event>
 8    1  0.2603554E-024  0.8023063E+02  0.7818608E-02  0.1328398E+00
          2   -1    0    0  501    0  0.00000000000E+00  0.00000000000E+00  0.94215804864E+02  0.94215804899E+02  0.25500000000E-02 0. -1.
         -1   -1    0    0    0  501 -0.00000000000E+00 -0.00000000000E+00 -0.17080344993E+02  0.17080345736E+02  0.50400000000E-02 0.  1.
         24    2    1    2    0    0  0.14210854715E-13 -0.88817841970E-15  0.77135459871E+02  0.11129615063E+03  0.80230629915E+02 0.  0.
         66    2    3    3    0    0 -0.38519744390E+02  0.31890254864E+01  0.53356898405E+02  0.65915849392E+02  0.20000005633E+01 0.  0.
        -13    1    3    3    0    0  0.38519744390E+02 -0.31890254864E+01  0.23778561466E+02  0.45380301243E+02  0.10566000000E+00 0.  1.
         13    1    4    4    0    0 -0.12421837102E+02  0.12483089193E+01  0.17277997378E+02  0.21316675857E+02  0.10566000000E+00 0. -1.
        -13    1    4    4    0    0 -0.31762109001E+01  0.70241594278E+00  0.48638521123E+01  0.58523435685E+01  0.10566000000E+00 0.  1.
        -14    1    4    4    0    0 -0.22921696388E+02  0.12383006243E+01  0.31215048914E+02  0.38746829967E+02  0.00000000000E+00 0.  1.
<mgrwt>
<rscale>  0 0.80230630E+02</rscale>
<asrwt>0</asrwt>
<pdfrwt beam="1">  1        2 0.14494739E-01 0.80230630E+02</pdfrwt>
<pdfrwt beam="2">  1       -1 0.26277455E-02 0.80230630E+02</pdfrwt>
<totfact> 0.17301750E+05</totfact>
</mgrwt>
</event>
<event>
 8    1  0.2603554E-024  0.8012678E+02  0.7818608E-02  0.1328692E+00
          2   -1    0    0  501    0  0.00000000000E+00  0.00000000000E+00  0.19000342214E+03  0.19000342215E+03  0.25500000000E-02 0. -1.
         -1   -1    0    0    0  501 -0.00000000000E+00 -0.00000000000E+00 -0.84476103982E+01  0.84476119017E+01  0.50400000000E-02 0.  1.
         24    2    1    2    0    0  0.00000000000E+00  0.00000000000E+00  0.18155581174E+03  0.19845103406E+03  0.80126775436E+02 0.  0.
         66    2    3    3    0    0 -0.72040743078E+00 -0.21155749953E+02  0.17500558539E+03  0.17629248329E+03  0.20000008574E+01 0.  0.
        -13    1    3    3    0    0  0.72040743078E+00  0.21155749953E+02  0.65502263521E+01  0.22158550770E+02  0.10566000000E+00 0.  1.
         13    1    4    4    0    0 -0.10547231167E+01 -0.12306307002E+02  0.10380679829E+03  0.10453908441E+03  0.10566000000E+00 0. -1.
        -13    1    4    4    0    0 -0.22383170117E+00 -0.16977719155E+01  0.12173124761E+02  0.12293439738E+02  0.10566000000E+00 0.  1.
        -14    1    4    4    0    0  0.55814738708E+00 -0.71516710356E+01  0.59025662334E+02  0.59459959141E+02  0.00000000000E+00 0.  1.
<mgrwt>
<rscale>  0 0.80126775E+02</rscale>
<asrwt>0</asrwt>
<pdfrwt beam="1">  1        2 0.29231294E-01 0.80126775E+02</pdfrwt>
<pdfrwt beam="2">  1       -1 0.12996326E-02 0.80126775E+02</pdfrwt>
<totfact> 0.21580755E+05</totfact>
</mgrwt>
</event>
<event>
 8    1  0.2603554E-024  0.8017362E+02  0.7818608E-02  0.1328559E+00
          2   -1    0    0  501    0  0.00000000000E+00  0.00000000000E+00  0.11550676771E+03  0.11550676774E+03  0.25500000000E-02 0. -1.
         -1   -1    0    0    0  501 -0.00000000000E+00 -0.00000000000E+00 -0.13912190483E+02  0.13912191396E+02  0.50400000000E-02 0.  1.
         24    2    1    2    0    0  0.35527136788E-14  0.35527136788E-14  0.10159457723E+03  0.12941895913E+03  0.80173616990E+02 0.  0.
         66    2    3    3    0    0 -0.26216520886E+02 -0.27087676598E+02  0.72719336583E+02  0.81933815382E+02  0.19999997681E+01 0.  0.
        -13    1    3    3    0    0  0.26216520886E+02  0.27087676598E+02  0.28875240643E+02  0.47485143751E+02  0.10566000000E+00 0.  1.
         13    1    4    4    0    0 -0.10666315895E+02 -0.10602671749E+02  0.27562780184E+02  0.31399123531E+02  0.10566000000E+00 0. -1.
        -13    1    4    4    0    0 -0.66511720769E+01 -0.74177765952E+01  0.20837331926E+02  0.23096905971E+02  0.10566000000E+00 0.  1.
        -14    1    4    4    0    0 -0.88990329140E+01 -0.90672282538E+01  0.24319224473E+02  0.27437785880E+02  0.00000000000E+00 0.  1.
<mgrwt>
<rscale>  0 0.80173617E+02</rscale>
<asrwt>0</asrwt>
<pdfrwt beam="1">  1        2 0.17770272E-01 0.80173617E+02</pdfrwt>
<pdfrwt beam="2">  1       -1 0.21403370E-02 0.80173617E+02</pdfrwt>
<totfact> 0.18369271E+05</totfact>
</mgrwt>
</event>
<event>
 8    1  0.2603554E-024  0.8054665E+02  0.7818608E-02  0.1327507E+00
         -1   -1    0    0    0  501 -0.00000000000E+00  0.00000000000E+00  0.63178900653E+01  0.63178920755E+01  0.50400000000E-02 0.  1.
          2   -1    0    0  501    0  0.00000000000E+00 -0.00000000000E+00 -0.25672185630E+03  0.25672185632E+03  0.25500000000E-02 0. -1.
         24    2    1    2    0    0  0.00000000000E+00  0.00000000000E+00 -0.25040396624E+03  0.26303974839E+03  0.80546650620E+02 0.  0.
         66    2    3    3    0    0  0.12213884793E+02  0.35452821108E+02 -0.17303549926E+03  0.17706316813E+03  0.19999998014E+01 0.  0.
        -13    1    3    3    0    0 -0.12213884793E+02 -0.35452821108E+02 -0.77368466981E+02  0.85976580260E+02  0.10566000000E+00 0.  1.
         13    1    4    4    0    0  0.11333848765E+02  0.32434301228E+02 -0.15888922348E+03  0.16256148537E+03  0.10566000000E+00 0. -1.
        -13    1    4    4    0    0  0.59920358299E+00  0.25313318113E+01 -0.12259823605E+02  0.12533200890E+02  0.10566000000E+00 0.  1.
         14    1    4    4    0    0  0.28083244531E+00  0.48718806918E+00 -0.18864521703E+01  0.19684818689E+01  0.00000000000E+00 0. -1.
<mgrwt>
<rscale>  0 0.80546651E+02</rscale>
<asrwt>0</asrwt>
<pdfrwt beam="1">  1        2 0.39495662E-01 0.80546651E+02</pdfrwt>
<pdfrwt beam="2">  1       -1 0.97198344E-03 0.80546651E+02</pdfrwt>
<totfact> 0.23669067E+05</totfact>
</mgrwt>
</event>
<event>
 8    1  0.2603554E-024  0.8318729E+02  0.7818608E-02  0.1320242E+00
         -1   -1    0    0    0  501 -0.00000000000E+00  0.00000000000E+00  0.19362063298E+02  0.19362063954E+02  0.50400000000E-02 0.  1.
          2   -1    0    0  501    0  0.00000000000E+00 -0.00000000000E+00 -0.89351600077E+02  0.89351600113E+02  0.25500000000E-02 0. -1.
         24    2    1    2    0    0 -0.17763568394E-14  0.00000000000E+00 -0.69989536779E+02  0.10871366407E+03  0.83187291676E+02 0.  0.
         66    2    3    3    0    0 -0.80524044052E+01  0.39953206990E+02 -0.45706127553E+02  0.61271118887E+02  0.19999870823E+01 0.  0.
        -13    1    3    3    0    0  0.80524044052E+01 -0.39953206990E+02 -0.24283409226E+02  0.47442545180E+02  0.10566000000E+00 0.  1.
         13    1    4    4    0    0 -0.54001741695E+00  0.34602187813E+01 -0.34737295127E+01  0.49338315322E+01  0.10566000000E+00 0. -1.
        -13    1    4    4    0    0 -0.33718665714E+01  0.13080158910E+02 -0.15621381705E+02  0.20651846690E+02  0.10566000000E+00 0.  1.
         14    1    4    4    0    0 -0.41405204168E+01  0.23412829298E+02 -0.26611016335E+02  0.35685440665E+02  0.00000000000E+00 0. -1.
<mgrwt>
<rscale>  0 0.83187292E+02</rscale>
<asrwt>0</asrwt>
<pdfrwt beam="1">  1        2 0.13746400E-01 0.83187292E+02</pdfrwt>
<pdfrwt beam="2">  1       -1 0.29787791E-02 0.83187292E+02</pdfrwt>
<totfact> 0.15470614E+05</totfact>
</mgrwt>
</event>
<event>
 8    1  0.2603554E-024  0.7340714E+02  0.7818608E-02  0.1348876E+00
          2   -1    0    0  501    0  0.00000000000E+00  0.00000000000E+00  0.37974058524E+03  0.37974058524E+03  0.25500000000E-02 0. -1.
         -1   -1    0    0    0  501 -0.00000000000E+00 -0.00000000000E+00 -0.35475566945E+01  0.35475602747E+01  0.50400000000E-02 0.  1.
         24    2    1    2    0    0  0.00000000000E+00  0.00000000000E+00  0.37619302854E+03  0.38328814552E+03  0.73407137067E+02 0.  0.
         66    2    3    3    0    0  0.24672150448E+02  0.26766401088E+02  0.21158183101E+03  0.21469985188E+03  0.19999873451E+01 0.  0.
        -13    1    3    3    0    0 -0.24672150448E+02 -0.26766401088E+02  0.16461119754E+03  0.16858829364E+03  0.10566000000E+00 0.  1.
         13    1    4    4    0    0  0.44143737787E+01  0.39155392156E+01  0.34507538648E+02  0.35008563678E+02  0.10566000000E+00 0. -1.
        -13    1    4    4    0    0  0.73229674165E+01  0.79215764830E+01  0.65182417870E+02  0.66069175787E+02  0.10566000000E+00 0.  1.
         14    1    4    4    0    0  0.12934809253E+02  0.14929285390E+02  0.11189187449E+03  0.11362211241E+03  0.00000000000E+00 0. -1.
<mgrwt>
<rscale>  0 0.73407137E+02</rscale>
<asrwt>0</asrwt>
<pdfrwt beam="1">  1        2 0.58421603E-01 0.73407137E+02</pdfrwt>
<pdfrwt beam="2">  1       -1 0.54577847E-03 0.73407137E+02</pdfrwt>
<totfact> 0.34698540E+05</totfact>
</mgrwt>
</event>
<event>
 8    1  0.2603554E-024  0.8124968E+02  0.7818608E-02  0.1325542E+00
         -1   -1    0    0    0  501 -0.00000000000E+00  0.00000000000E+00  0.11473060689E+02  0.11473061796E+02  0.50400000000E-02 0.  1.
          2   -1    0    0  501    0  0.00000000000E+00 -0.00000000000E+00 -0.14384806233E+03  0.14384806235E+03  0.25500000000E-02 0. -1.
         24    2    1    2    0    0  0.00000000000E+00  0.00000000000E+00 -0.13237500164E+03  0.15532112415E+03  0.81249680290E+02 0.  0.
         66    2    3    3    0    0 -0.53700290896E+01  0.38450695764E+02 -0.43521488495E+02  0.58355918123E+02  0.20000004988E+01 0.  0.
        -13    1    3    3    0    0  0.53700290896E+01 -0.38450695764E+02 -0.88853513143E+02  0.96965206023E+02  0.10566000000E+00 0.  1.
         13    1    4    4    0    0 -0.15646179490E+01  0.10898082011E+02 -0.12520492939E+02  0.16673035966E+02  0.10566000000E+00 0. -1.
        -13    1    4    4    0    0 -0.27820933275E+01  0.15278047247E+02 -0.18013273007E+02  0.23783354251E+02  0.10566000000E+00 0.  1.
        -14    1    4    4    0    0 -0.10233178131E+01  0.12274566506E+02 -0.12987722548E+02  0.17899527905E+02  0.00000000000E+00 0.  1.
<mgrwt>
<rscale>  0 0.81249680E+02</rscale>
<asrwt>0</asrwt>
<pdfrwt beam="1">  1        2 0.22130470E-01 0.81249680E+02</pdfrwt>
<pdfrwt beam="2">  1       -1 0.17650864E-02 0.81249680E+02</pdfrwt>
<totfact> 0.18965506E+05</totfact>
</mgrwt>
</event>
<event>
 8    1  0.2603554E-024  0.7153248E+02  0.7818608E-02  0.1354958E+00
          2   -1    0    0  501    0  0.00000000000E+00  0.00000000000E+00  0.12315107613E+03  0.12315107615E+03  0.25500000000E-02 0. -1.
         -1   -1    0    0    0  501 -0.00000000000E+00 -0.00000000000E+00 -0.10387434455E+02  0.10387435677E+02  0.50400000000E-02 0.  1.
         24    2    1    2    0    0  0.71054273576E-14  0.00000000000E+00  0.11276364167E+03  0.13353851183E+03  0.71532476951E+02 0.  0.
         66    2    3    3    0    0 -0.32103347779E+02 -0.12290119844E+02  0.74673627995E+02  0.82230303030E+02  0.20000084926E+01 0.  0.
        -13    1    3    3    0    0  0.32103347779E+02  0.12290119844E+02  0.38090013678E+02  0.51308208802E+02  0.10566000000E+00 0.  1.
         13    1    4    4    0    0 -0.51988324365E+01 -0.16090470640E+01  0.11020709921E+02  0.12291627327E+02  0.10566000000E+00 0. -1.
        -13    1    4    4    0    0 -0.23591007578E+02 -0.94312636762E+01  0.54771862148E+02  0.60377582100E+02  0.10566000000E+00 0.  1.
        -14    1    4    4    0    0 -0.33135077650E+01 -0.12498091043E+01  0.88810559265E+01  0.95610936025E+01  0.00000000000E+00 0.  1.
<mgrwt>
<rscale>  0 0.71532477E+02</rscale>
<asrwt>0</asrwt>
<pdfrwt beam="1">  1        2 0.18946319E-01 0.71532477E+02</pdfrwt>
<pdfrwt beam="2">  1       -1 0.15980670E-02 0.71532477E+02</pdfrwt>
<totfact> 0.25320094E+05</totfact>
</mgrwt>
</event>
<event>
 8    1  0.2603554E-024  0.7854501E+02  0.7818608E-02  0.1333232E+00
         -1   -1    0    0    0  501 -0.00000000000E+00  0.00000000000E+00  0.54100083883E+02  0.54100084118E+02  0.50400000000E-02 0.  1.
          2   -1    0    0  501    0  0.00000000000E+00 -0.00000000000E+00 -0.28508823545E+02  0.28508823659E+02  0.25500000000E-02 0. -1.
         24    2    1    2    0    0  0.00000000000E+00  0.71054273576E-14  0.25591260338E+02  0.82608907778E+02  0.78545012818E+02 0.  0.
         66    2    3    3    0    0 -0.13367897093E+02 -0.32366256397E+02  0.31442249905E+02  0.47105098563E+02  0.20000014123E+01 0.  0.
        -13    1    3    3    0    0  0.13367897093E+02  0.32366256397E+02 -0.58509895670E+01  0.35503809215E+02  0.10566000000E+00 0.  1.
         13    1    4    4    0    0 -0.46246679934E+01 -0.99972686806E+01  0.90437330253E+01  0.14252480703E+02  0.10566000000E+00 0. -1.
        -13    1    4    4    0    0 -0.31824844061E+01 -0.82689892614E+01  0.88369465402E+01  0.12514278988E+02  0.10566000000E+00 0.  1.
        -14    1    4    4    0    0 -0.55607446936E+01 -0.14099998455E+02  0.13561570340E+02  0.20338338871E+02  0.00000000000E+00 0.  1.
<mgrwt>
<rscale>  0 0.78545013E+02</rscale>
<asrwt>0</asrwt>
<pdfrwt beam="1">  1        2 0.43859729E-02 0.78545013E+02</pdfrwt>
<pdfrwt beam="2">  1       -1 0.83230898E-02 0.78545013E+02</pdfrwt>
<totfact> 0.14024699E+05</totfact>
</mgrwt>
</event>
<event>
 8    1  0.2603554E-024  0.8160104E+02  0.7818608E-02  0.1324568E+00
          2   -1    0    0  501    0  0.00000000000E+00  0.00000000000E+00  0.12259212815E+04  0.12259212816E+04  0.25500000000E-02 0. -1.
         -1   -1    0    0    0  501 -0.00000000000E+00 -0.00000000000E+00 -0.13578986172E+01  0.13579079704E+01  0.50400000000E-02 0.  1.
         24    2    1    2    0    0 -0.35527136788E-14  0.17763568394E-14  0.12245633829E+04  0.12272791895E+04  0.81601042987E+02 0.  0.
         66    2    3    3    0    0  0.20162667781E+02 -0.13282164369E+02  0.11068509789E+04  0.11071160908E+04  0.20000002483E+01 0.  0.
        -13    1    3    3    0    0 -0.20162667781E+02  0.13282164369E+02  0.11771240402E+03  0.12016309869E+03  0.10566000000E+00 0.  1.
         13    1    4    4    0    0  0.44202708297E+01 -0.29098755207E+01  0.26266640124E+03  0.26271972836E+03  0.10566000000E+00 0. -1.
        -13    1    4    4    0    0  0.15501190124E+01 -0.53912261684E+00  0.74574338597E+02  0.74592470554E+02  0.10566000000E+00 0.  1.
         14    1    4    4    0    0  0.14192277939E+02 -0.98331662311E+01  0.76961023908E+03  0.76980389192E+03  0.00000000000E+00 0. -1.
<mgrwt>
<rscale>  0 0.81601043E+02</rscale>
<asrwt>0</asrwt>
<pdfrwt beam="1">  1        2 0.18860344E+00 0.81601043E+02</pdfrwt>
<pdfrwt beam="2">  1       -1 0.20890802E-03 0.81601043E+02</pdfrwt>
<totfact> 0.33193398E+05</totfact>
</mgrwt>
</event>
<event>
 8    1  0.2603554E-024  0.8092667E+02  0.7818608E-02  0.1326442E+00
         -1   -1    0    0    0  501 -0.00000000000E+00  0.00000000000E+00  0.43373650270E+01  0.43373679552E+01  0.50400000000E-02 0.  1.
          2   -1    0    0  501    0  0.00000000000E+00 -0.00000000000E+00 -0.37748284942E+03  0.37748284943E+03  0.25500000000E-02 0. -1.
         24    2    1    2    0    0  0.00000000000E+00  0.17763568394E-14 -0.37314548440E+03  0.38182021739E+03  0.80926669771E+02 0.  0.
         66    2    3    3    0    0  0.32217316692E+02 -0.10064242820E+02 -0.29176687081E+03  0.29371951142E+03  0.20000023169E+01 0.  0.
        -13    1    3    3    0    0 -0.32217316692E+02  0.10064242820E+02 -0.81378613590E+02  0.88100705969E+02  0.10566000000E+00 0.  1.
         13    1    4    4    0    0  0.12601741845E+02 -0.33818863201E+01 -0.11327870134E+03  0.11402770012E+03  0.10566000000E+00 0. -1.
        -13    1    4    4    0    0  0.12842814704E+02 -0.46418624909E+01 -0.12233977097E+03  0.12309961617E+03  0.10566000000E+00 0.  1.
        -14    1    4    4    0    0  0.67727601432E+01 -0.20404940087E+01 -0.56148398495E+02  0.56592195127E+02  0.00000000000E+00 0.  1.
<mgrwt>
<rscale>  0 0.80926670E+02</rscale>
<asrwt>0</asrwt>
<pdfrwt beam="1">  1        2 0.58074259E-01 0.80926670E+02</pdfrwt>
<pdfrwt beam="2">  1       -1 0.66728745E-03 0.80926670E+02</pdfrwt>
<totfact> 0.26861620E+05</totfact>
</mgrwt>
</event>
<event>
 8    1  0.2603554E-024  0.7930639E+02  0.7818608E-02  0.1331031E+00
          2   -1    0    0  501    0  0.00000000000E+00  0.00000000000E+00  0.14444874334E+02  0.14444874559E+02  0.25500000000E-02 0. -1.
         -1   -1    0    0    0  501 -0.00000000000E+00 -0.00000000000E+00 -0.10885354060E+03  0.10885354072E+03  0.50400000000E-02 0.  1.
         24    2    1    2    0    0  0.00000000000E+00  0.55511151231E-16 -0.94408666268E+02  0.12329841528E+03  0.79306386524E+02 0.  0.
         66    2    3    3    0    0 -0.36870562071E+02  0.48062576476E+00 -0.24666789010E+02  0.44408555625E+02  0.19999960110E+01 0.  0.
        -13    1    3    3    0    0  0.36870562071E+02 -0.48062576476E+00 -0.69741877257E+02  0.78889859653E+02  0.10566000000E+00 0.  1.
         13    1    4    4    0    0 -0.49317648521E+01  0.11671456590E+00 -0.39800187245E+01  0.63393722031E+01  0.10566000000E+00 0. -1.
        -13    1    4    4    0    0 -0.20055594231E+02  0.49674053453E+00 -0.13496250192E+02  0.24179196520E+02  0.10566000000E+00 0.  1.
        -14    1    4    4    0    0 -0.11883202989E+02 -0.13282933567E+00 -0.71905200939E+01  0.13889986901E+02  0.00000000000E+00 0.  1.
<mgrwt>
<rscale>  0 0.79306387E+02</rscale>
<asrwt>0</asrwt>
<pdfrwt beam="1">  1        2 0.22222884E-02 0.79306387E+02</pdfrwt>
<pdfrwt beam="2">  1       -1 0.16746698E-01 0.79306387E+02</pdfrwt>
<totfact> 0.11892712E+05</totfact>
</mgrwt>
</event>
<event>
 8    1  0.2603554E-024  0.8471340E+02  0.7818608E-02  0.1316184E+00
         -1   -1    0    0    0  501 -0.00000000000E+00  0.00000000000E+00  0.59800870577E+01  0.59800891816E+01  0.50400000000E-02 0.  1.
          2   -1    0    0  501    0  0.00000000000E+00 -0.00000000000E+00 -0.30001065074E+03  0.30001065075E+03  0.25500000000E-02 0. -1.
         24    2    1    2    0    0  0.00000000000E+00  0.35527136788E-14 -0.29403056368E+03  0.30599073993E+03  0.84713402393E+02 0.  0.
         66    2    3    3    0    0  0.14583648468E+02  0.21423725439E+02 -0.26800298386E+03  0.26926057671E+03  0.20000005782E+01 0.  0.
        -13    1    3    3    0    0 -0.14583648468E+02 -0.21423725439E+02 -0.26027579823E+02  0.36730163215E+02  0.10566000000E+00 0.  1.
         13    1    4    4    0    0  0.27381268457E+01  0.43269354218E+01 -0.56327139446E+02  0.56559504162E+02  0.10566000000E+00 0. -1.
        -13    1    4    4    0    0  0.86759727421E+01  0.11286956991E+02 -0.14256358689E+03  0.14327266094E+03  0.10566000000E+00 0.  1.
        -14    1    4    4    0    0  0.31695488801E+01  0.58098330265E+01 -0.69112257515E+02  0.69428411610E+02  0.00000000000E+00 0.  1.
<mgrwt>
<rscale>  0 0.84713402E+02</rscale>
<asrwt>0</asrwt>
<pdfrwt beam="1">  1        2 0.46155473E-01 0.84713402E+02</pdfrwt>
<pdfrwt beam="2">  1       -1 0.92001379E-03 0.84713402E+02</pdfrwt>
<totfact> 0.21932252E+05</totfact>
</mgrwt>
</event>
<event>
 8    1  0.2603554E-024  0.7939002E+02  0.7818608E-02  0.1330791E+00
         -1   -1    0    0    0  501 -0.00000000000E+00  0.00000000000E+00  0.18320688513E+02  0.18320689206E+02  0.50400000000E-02 0.  1.
          2   -1    0    0  501    0  0.00000000000E+00 -0.00000000000E+00 -0.86006243076E+02  0.86006243114E+02  0.25500000000E-02 0. -1.
         24    2    1    2    0    0  0.00000000000E+00  0.00000000000E+00 -0.67685554563E+02  0.10432693232E+03  0.79390015182E+02 0.  0.
         66    2    3    3    0    0 -0.18599247424E+02  0.34247572588E+02 -0.24130892897E+02  0.45881676312E+02  0.19999990700E+01 0.  0.
        -13    1    3    3    0    0  0.18599247424E+02 -0.34247572588E+02 -0.43554661667E+02  0.58445256008E+02  0.10566000000E+00 0.  1.
         13    1    4    4    0    0 -0.30933116075E+01  0.53354610018E+01 -0.46216834228E+01  0.77075834409E+01  0.10566000000E+00 0.  1.
        -13    1    4    4    0    0 -0.11626711069E+02  0.21306802942E+02 -0.14617674028E+02  0.28334569344E+02  0.10566000000E+00 0. -1.
        -14    1    4    4    0    0 -0.38792247472E+01  0.76053086447E+01 -0.48915354460E+01  0.98395235271E+01  0.00000000000E+00 0.  1.
<mgrwt>
<rscale>  0 0.79390015E+02</rscale>
<asrwt>0</asrwt>
<pdfrwt beam="1">  1        2 0.13231729E-01 0.79390015E+02</pdfrwt>
<pdfrwt beam="2">  1       -1 0.28185676E-02 0.79390015E+02</pdfrwt>
<totfact> 0.17367296E+05</totfact>
</mgrwt>
</event>
<event>
 8    1  0.2603554E-024  0.7917687E+02  0.7818608E-02  0.1331404E+00
         -1   -1    0    0    0  501 -0.00000000000E+00  0.00000000000E+00  0.27194474585E+01  0.27194521288E+01  0.50400000000E-02 0.  1.
          2   -1    0    0  501    0  0.00000000000E+00 -0.00000000000E+00 -0.57630923550E+03  0.57630923551E+03  0.25500000000E-02 0. -1.
         24    2    1    2    0    0  0.88817841970E-15  0.00000000000E+00 -0.57358978804E+03  0.57902868764E+03  0.79176866307E+02 0.  0.
         66    2    3    3    0    0  0.73067594872E+01 -0.28651246722E+02 -0.47921000207E+03  0.48012551359E+03  0.20000096247E+01 0.  0.
        -13    1    3    3    0    0 -0.73067594872E+01  0.28651246722E+02 -0.94379785969E+02  0.98903174047E+02  0.10566000000E+00 0.  1.
         13    1    4    4    0    0  0.32483075703E+01 -0.13153082682E+02 -0.22082294112E+03  0.22123819194E+03  0.10566000000E+00 0. -1.
        -13    1    4    4    0    0 -0.53797406497E-01 -0.15935353855E+00 -0.41741196537E+01  0.41788427381E+01  0.10566000000E+00 0.  1.
        -14    1    4    4    0    0  0.41122493234E+01 -0.15338810502E+02 -0.25421294130E+03  0.25470847891E+03  0.00000000000E+00 0.  1.
<mgrwt>
<rscale>  0 0.79176866E+02</rscale>
<asrwt>0</asrwt>
<pdfrwt beam="1">  1        2 0.88662862E-01 0.79176866E+02</pdfrwt>
<pdfrwt beam="2">  1       -1 0.41837735E-03 0.79176866E+02</pdfrwt>
<totfact> 0.32665198E+05</totfact>
</mgrwt>
</event>
<event>
 8    1  0.2603554E-024  0.7841696E+02  0.7818608E-02  0.1333605E+00
          2   -1    0    0  501    0  0.00000000000E+00  0.00000000000E+00  0.48916795204E+03  0.48916795205E+03  0.25500000000E-02 0. -1.
         -1   -1    0    0    0  501 -0.00000000000E+00 -0.00000000000E+00 -0.31426911028E+01  0.31426951442E+01  0.50400000000E-02 0.  1.
         24    2    1    2    0    0  0.11102230246E-15  0.17763568394E-14  0.48602526094E+03  0.49231064720E+03  0.78416956511E+02 0.  0.
         66    2    3    3    0    0 -0.89038560206E+00 -0.12104063767E+02  0.47706679330E+03  0.47722534134E+03  0.20000005100E+01 0.  0.
        -13    1    3    3    0    0  0.89038560206E+00  0.12104063767E+02  0.89584676404E+01  0.15085305853E+02  0.10566000000E+00 0.  1.
         13    1    4    4    0    0 -0.86509956335E+00 -0.33081651241E+01  0.14355134847E+03  0.14359210690E+03  0.10566000000E+00 0. -1.
        -13    1    4    4    0    0  0.43097559575E+00 -0.31518984444E+01  0.10964903149E+03  0.10969522084E+03  0.10566000000E+00 0.  1.
         14    1    4    4    0    0 -0.45626163446E+00 -0.56440001982E+01  0.22386641334E+03  0.22393801360E+03  0.00000000000E+00 0. -1.
<mgrwt>
<rscale>  0 0.78416957E+02</rscale>
<asrwt>0</asrwt>
<pdfrwt beam="1">  1        2 0.75256600E-01 0.78416957E+02</pdfrwt>
<pdfrwt beam="2">  1       -1 0.48349131E-03 0.78416957E+02</pdfrwt>
<totfact> 0.31853792E+05</totfact>
</mgrwt>
</event>
<event>
 8    1  0.2603554E-024  0.8117454E+02  0.7818608E-02  0.1325751E+00
         -1   -1    0    0    0  501 -0.00000000000E+00  0.00000000000E+00  0.37161496110E+03  0.37161496113E+03  0.50400000000E-02 0.  1.
          2   -1    0    0  501    0  0.00000000000E+00 -0.00000000000E+00 -0.44328848523E+01  0.44328855858E+01  0.25500000000E-02 0. -1.
         24    2    1    2    0    0 -0.35527136788E-14  0.00000000000E+00  0.36718207624E+03  0.37604784672E+03  0.81174539759E+02 0.  0.
         66    2    3    3    0    0 -0.29868606635E+02 -0.12551857443E+02  0.29676367114E+03  0.29853368202E+03  0.20000006130E+01 0.  0.
        -13    1    3    3    0    0  0.29868606635E+02  0.12551857443E+02  0.70418405102E+02  0.77514164698E+02  0.10566000000E+00 0.  1.
         13    1    4    4    0    0 -0.13535144569E+02 -0.64691008417E+01  0.13424427856E+03  0.13507992780E+03  0.10566000000E+00 0. -1.
        -13    1    4    4    0    0 -0.97278860990E+01 -0.36921279864E+01  0.10098242296E+03  0.10151711426E+03  0.10566000000E+00 0.  1.
         14    1    4    4    0    0 -0.66055759672E+01 -0.23906286153E+01  0.61536969623E+02  0.61936639959E+02  0.00000000000E+00 0. -1.
<mgrwt>
<rscale>  0 0.81174540E+02</rscale>
<asrwt>0</asrwt>
<pdfrwt beam="1">  1        2 0.68198246E-03 0.81174540E+02</pdfrwt>
<pdfrwt beam="2">  1       -1 0.57171522E-01 0.81174540E+02</pdfrwt>
<totfact> 0.75738064E+04</totfact>
</mgrwt>
</event>
<event>
 8    1  0.2603554E-024  0.7994654E+02  0.7818608E-02  0.1329203E+00
          2   -1    0    0  501    0  0.00000000000E+00  0.00000000000E+00  0.64204827240E+02  0.64204827291E+02  0.25500000000E-02 0. -1.
         -1   -1    0    0    0  501 -0.00000000000E+00 -0.00000000000E+00 -0.24886946933E+02  0.24886947443E+02  0.50400000000E-02 0.  1.
         24    2    1    2    0    0  0.00000000000E+00  0.35527136788E-14  0.39317880308E+02  0.89091774734E+02  0.79946535969E+02 0.  0.
         66    2    3    3    0    0  0.28200058571E+02  0.28159218488E+02  0.22757954833E+02  0.45935927100E+02  0.20000002915E+01 0.  0.
        -13    1    3    3    0    0 -0.28200058571E+02 -0.28159218488E+02  0.16559925475E+02  0.43155847634E+02  0.10566000000E+00 0.  1.
         13    1    4    4    0    0  0.15273758472E+02  0.14976843085E+02  0.11541007111E+02  0.24306368215E+02  0.10566000000E+00 0. -1.
        -13    1    4    4    0    0  0.73700492296E+01  0.68547079896E+01  0.58051309738E+01  0.11619610877E+02  0.10566000000E+00 0.  1.
        -14    1    4    4    0    0  0.55562508695E+01  0.63276674134E+01  0.54118167479E+01  0.10009948008E+02  0.00000000000E+00 0.  1.
<mgrwt>
<rscale>  0 0.79946536E+02</rscale>
<asrwt>0</asrwt>
<pdfrwt beam="1">  1        2 0.98776656E-02 0.79946536E+02</pdfrwt>
<pdfrwt beam="2">  1       -1 0.38287612E-02 0.79946536E+02</pdfrwt>
<totfact> 0.15843317E+05</totfact>
</mgrwt>
</event>
<event>
 8    1  0.2603554E-024  0.8407304E+02  0.7818608E-02  0.1317875E+00
          2   -1    0    0  501    0  0.00000000000E+00  0.00000000000E+00  0.11261714049E+03  0.11261714052E+03  0.25500000000E-02 0. -1.
         -1   -1    0    0    0  501 -0.00000000000E+00 -0.00000000000E+00 -0.15690941707E+02  0.15690942517E+02  0.50400000000E-02 0.  1.
         24    2    1    2    0    0 -0.17763568394E-14 -0.71054273576E-14  0.96926198782E+02  0.12830808303E+03  0.84073040636E+02 0.  0.
         66    2    3    3    0    0  0.87447901154E+01  0.34077514266E+02  0.13444920733E+02  0.37716233062E+02  0.20000025367E+01 0.  0.
        -13    1    3    3    0    0 -0.87447901154E+01 -0.34077514266E+02  0.83481278049E+02  0.90591849972E+02  0.10566000000E+00 0.  1.
         13    1    4    4    0    0  0.21712258758E+01  0.62237139700E+01  0.28995547882E+01  0.72019038725E+01  0.10566000000E+00 0. -1.
        -13    1    4    4    0    0  0.18447448427E+01  0.61678047927E+01  0.23822575132E+01  0.68652177235E+01  0.10566000000E+00 0. -1.
         14    1    4    4    0    0  0.47288193969E+01  0.21685995504E+02  0.81631084317E+01  0.23649111466E+02  0.00000000000E+00 0. -1.
<mgrwt>
<rscale>  0 0.84073041E+02</rscale>
<asrwt>0</asrwt>
<pdfrwt beam="1">  1        2 0.17325713E-01 0.84073041E+02</pdfrwt>
<pdfrwt beam="2">  1       -1 0.24139912E-02 0.84073041E+02</pdfrwt>
<totfact> 0.16054793E+05</totfact>
</mgrwt>
</event>
<event>
 8    1  0.2603554E-024  0.7999819E+02  0.7818608E-02  0.1329057E+00
          2   -1    0    0  501    0  0.00000000000E+00  0.00000000000E+00  0.28339485312E+02  0.28339485427E+02  0.25500000000E-02 0. -1.
         -1   -1    0    0    0  501 -0.00000000000E+00 -0.00000000000E+00 -0.56455772933E+02  0.56455773158E+02  0.50400000000E-02 0.  1.
         24    2    1    2    0    0 -0.44408920985E-15  0.71054273576E-14 -0.28116287621E+02  0.84795258585E+02  0.79998189036E+02 0.  0.
         66    2    3    3    0    0 -0.21162180912E+01  0.39111301982E+02 -0.22530064539E+02  0.45230256701E+02  0.19999978503E+01 0.  0.
        -13    1    3    3    0    0  0.21162180912E+01 -0.39111301982E+02 -0.55862230825E+01  0.39565001884E+02  0.10566000000E+00 0.  1.
         13    1    4    4    0    0 -0.84298971366E+00  0.24404016892E+02 -0.14672295443E+02  0.28487788431E+02  0.10566000000E+00 0. -1.
        -13    1    4    4    0    0 -0.41372250845E+00  0.42919607215E+01 -0.26969130989E+01  0.50869045055E+01  0.10566000000E+00 0.  1.
         14    1    4    4    0    0 -0.85950586905E+00  0.10415324369E+02 -0.51608559969E+01  0.11655563764E+02  0.00000000000E+00 0. -1.
<mgrwt>
<rscale>  0 0.79998189E+02</rscale>
<asrwt>0</asrwt>
<pdfrwt beam="1">  1        2 0.43599208E-02 0.79998189E+02</pdfrwt>
<pdfrwt beam="2">  1       -1 0.86855036E-02 0.79998189E+02</pdfrwt>
<totfact> 0.13305907E+05</totfact>
</mgrwt>
</event>
<event>
 8    1  0.3132450E-024  0.8078063E+02  0.7818608E-02  0.1326851E+00
         -1   -1    0    0    0  501 -0.00000000000E+00  0.00000000000E+00  0.14839632546E+02  0.14839633402E+02  0.50400000000E-02 0.  1.
          2   -1    0    0  501    0  0.00000000000E+00 -0.00000000000E+00 -0.10993382465E+03  0.10993382468E+03  0.25500000000E-02 0. -1.
         24    2    1    2    0    0  0.00000000000E+00 -0.35527136788E-14 -0.95094192101E+02  0.12477345808E+03  0.80780631773E+02 0.  0.
         66    2    3    3    0    0 -0.22223849914E+02 -0.28475957172E+02 -0.75404323334E+02  0.83633675168E+02  0.20000007157E+01 0.  0.
        -13    1    3    3    0    0  0.22223849914E+02  0.28475957172E+02 -0.19689868767E+02  0.41139782911E+02  0.10566000000E+00 0.  1.
         13    1    4    4    0    0 -0.10858875206E+02 -0.13809122231E+02 -0.36650211031E+02  0.40643033353E+02  0.10566000000E+00 0. -1.
        -13    1    4    4    0    0 -0.53894950761E+01 -0.61682854337E+01 -0.15907779782E+02  0.17893099899E+02  0.10566000000E+00 0.  1.
        -14    1    4    4    0    0 -0.59754796327E+01 -0.84985495068E+01 -0.22846332521E+02  0.25097541916E+02  0.00000000000E+00 0.  1.
<mgrwt>
<rscale>  0 0.80780632E+02</rscale>
<asrwt>0</asrwt>
<pdfrwt beam="1">  1        2 0.16912896E-01 0.80780632E+02</pdfrwt>
<pdfrwt beam="2">  1       -1 0.22830205E-02 0.80780632E+02</pdfrwt>
<totfact> 0.17743830E+05</totfact>
</mgrwt>
</event>
<event>
 8    1  0.2603554E-024  0.8173295E+02  0.7818608E-02  0.1324204E+00
          2   -1    0    0  501    0  0.00000000000E+00  0.00000000000E+00  0.57178146258E+03  0.57178146259E+03  0.25500000000E-02 0. -1.
         -1   -1    0    0    0  501 -0.00000000000E+00 -0.00000000000E+00 -0.29208147019E+01  0.29208190502E+01  0.50400000000E-02 0.  1.
         24    2    1    2    0    0  0.00000000000E+00  0.00000000000E+00  0.56886064788E+03  0.57470228164E+03  0.81732954267E+02 0.  0.
         66    2    3    3    0    0  0.13294714540E+02  0.32515164943E+02  0.43109755387E+03  0.43253102357E+03  0.20000024536E+01 0.  0.
        -13    1    3    3    0    0 -0.13294714540E+02 -0.32515164943E+02  0.13776309401E+03  0.14217125807E+03  0.10566000000E+00 0.  1.
         13    1    4    4    0    0  0.61313039912E+01  0.14712372777E+02  0.19598040396E+03  0.19662750749E+03  0.10566000000E+00 0. -1.
        -13    1    4    4    0    0  0.19456667873E+01  0.61439260388E+01  0.73067694650E+02  0.73351432242E+02  0.10566000000E+00 0.  1.
         14    1    4    4    0    0  0.52177437619E+01  0.11658866127E+02  0.16204945526E+03  0.16255208384E+03  0.00000000000E+00 0. -1.
<mgrwt>
<rscale>  0 0.81732954E+02</rscale>
<asrwt>0</asrwt>
<pdfrwt beam="1">  1        2 0.87966305E-01 0.81732954E+02</pdfrwt>
<pdfrwt beam="2">  1       -1 0.44935682E-03 0.81732954E+02</pdfrwt>
<totfact> 0.30002191E+05</totfact>
</mgrwt>
</event>
<event>
 8    1  0.2603554E-024  0.8121385E+02  0.7818608E-02  0.1325642E+00
          2   -1    0    0  501    0  0.00000000000E+00  0.00000000000E+00  0.25745002188E+03  0.25745002190E+03  0.25500000000E-02 0. -1.
         -1   -1    0    0    0  501 -0.00000000000E+00 -0.00000000000E+00 -0.64048241402E+01  0.64048261232E+01  0.50400000000E-02 0.  1.
         24    2    1    2    0    0  0.00000000000E+00  0.00000000000E+00  0.25104519774E+03  0.26385484802E+03  0.81213850502E+02 0.  0.
         66    2    3    3    0    0  0.85862780930E+01  0.18308620160E+02  0.23991085534E+03  0.24076990729E+03  0.20000009590E+01 0.  0.
        -13    1    3    3    0    0 -0.85862780930E+01 -0.18308620160E+02  0.11134342406E+02  0.23084940730E+02  0.10566000000E+00 0.  1.
         13    1    4    4    0    0  0.16237245190E+01  0.25759528151E+01  0.35261650183E+02  0.35393038184E+02  0.10566000000E+00 0. -1.
        -13    1    4    4    0    0  0.33931212852E+01  0.76038250390E+01  0.10816704689E+03  0.10848710811E+03  0.10566000000E+00 0.  1.
        -14    1    4    4    0    0  0.35694322888E+01  0.81288423060E+01  0.96482158261E+02  0.96889761000E+02  0.00000000000E+00 0.  1.
<mgrwt>
<rscale>  0 0.81213851E+02</rscale>
<asrwt>0</asrwt>
<pdfrwt beam="1">  1        2 0.39607699E-01 0.81213851E+02</pdfrwt>
<pdfrwt beam="2">  1       -1 0.98535764E-03 0.81213851E+02</pdfrwt>
<totfact> 0.23184665E+05</totfact>
</mgrwt>
</event>
<event>
 8    1  0.2603554E-024  0.7800124E+02  0.7818608E-02  0.1334821E+00
          2   -1    0    0  501    0  0.00000000000E+00  0.00000000000E+00  0.47260452922E+02  0.47260452991E+02  0.25500000000E-02 0. -1.
         -1   -1    0    0    0  501 -0.00000000000E+00 -0.00000000000E+00 -0.32184380535E+02  0.32184380929E+02  0.50400000000E-02 0.  1.
         24    2    1    2    0    0  0.35527136788E-14  0.00000000000E+00  0.15076072388E+02  0.79444833920E+02  0.78001241516E+02 0.  0.
         66    2    3    3    0    0  0.28987269601E+02  0.16985057378E+02  0.27664350265E+02  0.43566847954E+02  0.19999979843E+01 0.  0.
        -13    1    3    3    0    0 -0.28987269601E+02 -0.16985057378E+02 -0.12588277878E+02  0.35877985967E+02  0.10566000000E+00 0.  1.
         13    1    4    4    0    0  0.13965805741E+02  0.82294181475E+01  0.13844683952E+02  0.21317914785E+02  0.10566000000E+00 0. -1.
        -13    1    4    4    0    0  0.92098436967E+01  0.52150684962E+01  0.76071830177E+01  0.13034514101E+02  0.10566000000E+00 0.  1.
        -14    1    4    4    0    0  0.58116201636E+01  0.35405707344E+01  0.62124832961E+01  0.92144190678E+01  0.00000000000E+00 0.  1.
<mgrwt>
<rscale>  0 0.78001242E+02</rscale>
<asrwt>0</asrwt>
<pdfrwt beam="1">  1        2 0.72708389E-02 0.78001242E+02</pdfrwt>
<pdfrwt beam="2">  1       -1 0.49514432E-02 0.78001242E+02</pdfrwt>
<totfact> 0.15822159E+05</totfact>
</mgrwt>
</event>
<event>
 8    1  0.2603554E-024  0.8031472E+02  0.7818608E-02  0.1328161E+00
          2   -1    0    0  501    0  0.00000000000E+00  0.00000000000E+00  0.10171250005E+03  0.10171250009E+03  0.25500000000E-02 0. -1.
         -1   -1    0    0    0  501 -0.00000000000E+00 -0.00000000000E+00 -0.15854623145E+02  0.15854623946E+02  0.50400000000E-02 0.  1.
         24    2    1    2    0    0  0.88817841970E-15  0.00000000000E+00  0.85857876909E+02  0.11756712403E+03  0.80314716124E+02 0.  0.
         66    2    3    3    0    0  0.72465079415E+01  0.20813723806E+02  0.92051350147E+02  0.94674040999E+02  0.19999997804E+01 0.  0.
        -13    1    3    3    0    0 -0.72465079415E+01 -0.20813723806E+02 -0.61934732375E+01  0.22893083034E+02  0.10566000000E+00 0.  1.
         13    1    4    4    0    0  0.52606564844E+01  0.12869338641E+02  0.59709734091E+02  0.61307078653E+02  0.10566000000E+00 0. -1.
        -13    1    4    4    0    0  0.38020448571E+00  0.16470752678E+01  0.58863505053E+01  0.61251692789E+01  0.10566000000E+00 0.  1.
         14    1    4    4    0    0  0.16056469714E+01  0.62973098979E+01  0.26455265551E+02  0.27241793067E+02  0.00000000000E+00 0. -1.
<mgrwt>
<rscale>  0 0.80314716E+02</rscale>
<asrwt>0</asrwt>
<pdfrwt beam="1">  1        2 0.15648077E-01 0.80314716E+02</pdfrwt>
<pdfrwt beam="2">  1       -1 0.24391729E-02 0.80314716E+02</pdfrwt>
<totfact> 0.17624256E+05</totfact>
</mgrwt>
</event>
<event>
 8    1  0.2603554E-024  0.8222056E+02  0.7818608E-02  0.1322865E+00
         -1   -1    0    0    0  501 -0.00000000000E+00  0.00000000000E+00  0.26663712030E+01  0.26663759664E+01  0.50400000000E-02 0.  1.
          2   -1    0    0  501    0  0.00000000000E+00 -0.00000000000E+00 -0.63384026189E+03  0.63384026190E+03  0.25500000000E-02 0. -1.
         24    2    1    2    0    0  0.00000000000E+00  0.00000000000E+00 -0.63117389069E+03  0.63650663786E+03  0.82220555562E+02 0.  0.
         66    2    3    3    0    0  0.38005683834E+02  0.63745077976E+01 -0.42606744326E+03  0.42781132815E+03  0.19999845795E+01 0.  0.
        -13    1    3    3    0    0 -0.38005683834E+02 -0.63745077976E+01 -0.20510644743E+03  0.20869530971E+03  0.10566000000E+00 0.  1.
         13    1    4    4    0    0  0.11583526447E+02  0.15413146000E+01 -0.12893097588E+03  0.12945949730E+03  0.10566000000E+00 0. -1.
        -13    1    4    4    0    0  0.86347217166E+01  0.18680875856E+01 -0.10491717045E+03  0.10528851784E+03  0.10566000000E+00 0.  1.
         14    1    4    4    0    0  0.17787435670E+02  0.29651056120E+01 -0.19221929693E+03  0.19306331301E+03  0.00000000000E+00 0. -1.
<mgrwt>
<rscale>  0 0.82220556E+02</rscale>
<asrwt>0</asrwt>
<pdfrwt beam="1">  1        2 0.97513766E-01 0.82220556E+02</pdfrwt>
<pdfrwt beam="2">  1       -1 0.41021183E-03 0.82220556E+02</pdfrwt>
<totfact> 0.30397440E+05</totfact>
</mgrwt>
</event>
<event>
 8    1  0.2603554E-024  0.7875474E+02  0.7818608E-02  0.1332623E+00
         -1   -1    0    0    0  501 -0.00000000000E+00  0.00000000000E+00  0.34351857068E+02  0.34351857438E+02  0.50400000000E-02 0.  1.
          2   -1    0    0  501    0  0.00000000000E+00 -0.00000000000E+00 -0.45138096030E+02  0.45138096102E+02  0.25500000000E-02 0. -1.
         24    2    1    2    0    0  0.71054273576E-14 -0.35527136788E-14 -0.10786238961E+02  0.79489953540E+02  0.78754744383E+02 0.  0.
         66    2    3    3    0    0 -0.26280931538E+02  0.28658059894E+02 -0.11502920339E+02  0.40599124857E+02  0.20000008543E+01 0.  0.
        -13    1    3    3    0    0  0.26280931538E+02 -0.28658059894E+02  0.71668137778E+00  0.38890828683E+02  0.10566000000E+00 0.  1.
         13    1    4    4    0    0 -0.59509137521E+01  0.74472891171E+01 -0.29192753306E+01  0.99703972925E+01  0.10566000000E+00 0. -1.
        -13    1    4    4    0    0 -0.67894613685E+01  0.63501622404E+01 -0.27540665192E+01  0.96962566273E+01  0.10566000000E+00 0.  1.
        -14    1    4    4    0    0 -0.13540556417E+02  0.14860608537E+02 -0.58295784891E+01  0.20932470937E+02  0.00000000000E+00 0.  1.
<mgrwt>
<rscale>  0 0.78754744E+02</rscale>
<asrwt>0</asrwt>
<pdfrwt beam="1">  1        2 0.69443225E-02 0.78754744E+02</pdfrwt>
<pdfrwt beam="2">  1       -1 0.52849011E-02 0.78754744E+02</pdfrwt>
<totfact> 0.15262500E+05</totfact>
</mgrwt>
</event>
<event>
 8    1  0.2603554E-024  0.7782864E+02  0.7818608E-02  0.1335329E+00
         -1   -1    0    0    0  501 -0.00000000000E+00  0.00000000000E+00  0.54301187906E+01  0.54301211295E+01  0.50400000000E-02 0.  1.
          2   -1    0    0  501    0  0.00000000000E+00 -0.00000000000E+00 -0.27887495017E+03  0.27887495018E+03  0.25500000000E-02 0. -1.
         24    2    1    2    0    0  0.00000000000E+00  0.00000000000E+00 -0.27344483138E+03  0.28430507131E+03  0.77828643603E+02 0.  0.
         66    2    3    3    0    0 -0.47683507793E+01 -0.38113572896E+02 -0.11461100138E+03  0.12089277580E+03  0.19999987662E+01 0.  0.
        -13    1    3    3    0    0  0.47683507793E+01  0.38113572896E+02 -0.15883383000E+03  0.16341229551E+03  0.10566000000E+00 0.  1.
         13    1    4    4    0    0 -0.15138382628E+01 -0.91054691275E+01 -0.26948703344E+02  0.28485874574E+02  0.10566000000E+00 0.  1.
        -13    1    4    4    0    0 -0.25654625702E+01 -0.26561600038E+02 -0.80358719813E+02  0.84673698448E+02  0.10566000000E+00 0. -1.
        -14    1    4    4    0    0 -0.68904994626E+00 -0.24465037306E+01 -0.73035782195E+01  0.77332027738E+01  0.00000000000E+00 0.  1.
<mgrwt>
<rscale>  0 0.77828644E+02</rscale>
<asrwt>0</asrwt>
<pdfrwt beam="1">  1        2 0.42903827E-01 0.77828644E+02</pdfrwt>
<pdfrwt beam="2">  1       -1 0.83540329E-03 0.77828644E+02</pdfrwt>
<totfact> 0.26685722E+05</totfact>
</mgrwt>
</event>
<event>
 8    1  0.2603554E-024  0.7961370E+02  0.7818608E-02  0.1330151E+00
          2   -1    0    0  501    0  0.00000000000E+00  0.00000000000E+00  0.40911322254E+02  0.40911322333E+02  0.25500000000E-02 0. -1.
         -1   -1    0    0    0  501 -0.00000000000E+00 -0.00000000000E+00 -0.38732195761E+02  0.38732196089E+02  0.50400000000E-02 0.  1.
         24    2    1    2    0    0  0.00000000000E+00  0.00000000000E+00  0.21791264928E+01  0.79643518422E+02  0.79613701298E+02 0.  0.
         66    2    3    3    0    0  0.17552450652E+02 -0.17167906201E+02  0.32403008266E+02  0.40703568233E+02  0.19999987549E+01 0.  0.
        -13    1    3    3    0    0 -0.17552450652E+02  0.17167906201E+02 -0.30223881773E+02  0.38939950189E+02  0.10566000000E+00 0.  1.
         13    1    4    4    0    0  0.26920953739E+01 -0.29038942664E+01  0.58373406529E+01  0.70544800904E+01  0.10566000000E+00 0. -1.
        -13    1    4    4    0    0  0.34859067711E+01 -0.35314788601E+01  0.54255794338E+01  0.73532962122E+01  0.10566000000E+00 0.  1.
        -14    1    4    4    0    0  0.11374448507E+02 -0.10732533075E+02  0.21140088179E+02  0.26295791931E+02  0.00000000000E+00 0.  1.
<mgrwt>
<rscale>  0 0.79613701E+02</rscale>
<asrwt>0</asrwt>
<pdfrwt beam="1">  1        2 0.62940496E-02 0.79613701E+02</pdfrwt>
<pdfrwt beam="2">  1       -1 0.59587994E-02 0.79613701E+02</pdfrwt>
<totfact> 0.14514201E+05</totfact>
</mgrwt>
</event>
<event>
 8    1  0.2603554E-024  0.8008563E+02  0.7818608E-02  0.1328809E+00
          2   -1    0    0  501    0  0.00000000000E+00  0.00000000000E+00  0.97127198988E+03  0.97127198989E+03  0.25500000000E-02 0. -1.
         -1   -1    0    0    0  501 -0.00000000000E+00 -0.00000000000E+00 -0.16508490274E+01  0.16508567209E+01  0.50400000000E-02 0.  1.
         24    2    1    2    0    0  0.17763568394E-14  0.35527136788E-14  0.96962114086E+03  0.97292284661E+03  0.80085633269E+02 0.  0.
         66    2    3    3    0    0 -0.12168635841E+02 -0.26784948855E+02  0.81467401041E+03  0.81520749041E+03  0.19999994693E+01 0.  0.
        -13    1    3    3    0    0  0.12168635841E+02  0.26784948855E+02  0.15494713045E+03  0.15771535620E+03  0.10566000000E+00 0.  1.
         13    1    4    4    0    0 -0.51284062314E+01 -0.11156316254E+02  0.31976681203E+03  0.32000248309E+03  0.10566000000E+00 0. -1.
        -13    1    4    4    0    0 -0.58874175877E-01 -0.40553678761E+00  0.12973356646E+02  0.12980257045E+02  0.10566000000E+00 0.  1.
         14    1    4    4    0    0 -0.69813554341E+01 -0.15223095814E+02  0.48193384173E+03  0.48222475028E+03  0.00000000000E+00 0. -1.
<mgrwt>
<rscale>  0 0.80085633E+02</rscale>
<asrwt>0</asrwt>
<pdfrwt beam="1">  1        2 0.14942688E+00 0.80085633E+02</pdfrwt>
<pdfrwt beam="2">  1       -1 0.25397666E-03 0.80085633E+02</pdfrwt>
<totfact> 0.35080239E+05</totfact>
</mgrwt>
</event>
<event>
 8    1  0.2603554E-024  0.8256444E+02  0.7818608E-02  0.1321928E+00
          2   -1    0    0  501    0  0.00000000000E+00  0.00000000000E+00  0.22793704247E+03  0.22793704248E+03  0.25500000000E-02 0. -1.
         -1   -1    0    0    0  501 -0.00000000000E+00 -0.00000000000E+00 -0.74767208825E+01  0.74767225812E+01  0.50400000000E-02 0.  1.
         24    2    1    2    0    0  0.00000000000E+00 -0.71054273576E-14  0.22046032158E+03  0.23541376506E+03  0.82564443846E+02 0.  0.
         66    2    3    3    0    0 -0.13075997872E+02 -0.35098339857E+02  0.15962594044E+03  0.16397352238E+03  0.19999998935E+01 0.  0.
        -13    1    3    3    0    0  0.13075997872E+02  0.35098339857E+02  0.60834381140E+02  0.71440242677E+02  0.10566000000E+00 0.  1.
         13    1    4    4    0    0 -0.24042034162E+01 -0.53504121421E+01  0.25852652209E+02  0.26509958402E+02  0.10566000000E+00 0. -1.
        -13    1    4    4    0    0 -0.68888487549E+01 -0.17115039423E+02  0.77540593332E+02  0.79705304653E+02  0.10566000000E+00 0.  1.
         14    1    4    4    0    0 -0.37829457012E+01 -0.12632888292E+02  0.56232694902E+02  0.57758259329E+02  0.00000000000E+00 0. -1.
<mgrwt>
<rscale>  0 0.82564444E+02</rscale>
<asrwt>0</asrwt>
<pdfrwt beam="1">  1        2 0.35067234E-01 0.82564444E+02</pdfrwt>
<pdfrwt beam="2">  1       -1 0.11502650E-02 0.82564444E+02</pdfrwt>
<totfact> 0.21251092E+05</totfact>
</mgrwt>
</event>
<event>
 8    1  0.2603554E-024  0.7863436E+02  0.7818608E-02  0.1332972E+00
          2   -1    0    0  501    0  0.00000000000E+00  0.00000000000E+00  0.21235137461E+04  0.21235137461E+04  0.25500000000E-02 0. -1.
         -1   -1    0    0    0  501 -0.00000000000E+00 -0.00000000000E+00 -0.72795485953E+00  0.72797230656E+00  0.50400000000E-02 0.  1.
         24    2    1    2    0    0  0.22204460493E-15  0.00000000000E+00  0.21227857912E+04  0.21242417184E+04  0.78634361019E+02 0.  0.
         66    2    3    3    0    0  0.15296678735E+01  0.15851240520E+02  0.20324218006E+04  0.20324851727E+04  0.20000059783E+01 0.  0.
        -13    1    3    3    0    0 -0.15296678735E+01 -0.15851240520E+02  0.90363990629E+02  0.91756545687E+02  0.10566000000E+00 0.  1.
         13    1    4    4    0    0  0.52893076947E+00  0.75518091508E+01  0.93191568323E+03  0.93194643698E+03  0.10566000000E+00 0. -1.
        -13    1    4    4    0    0  0.10649327085E+00  0.18230234388E+01  0.17612095600E+03  0.17613045466E+03  0.10566000000E+00 0.  1.
        -14    1    4    4    0    0  0.89424383318E+00  0.64764079303E+01  0.92438516136E+03  0.92440828105E+03  0.00000000000E+00 0.  1.
<mgrwt>
<rscale>  0 0.78634361E+02</rscale>
<asrwt>0</asrwt>
<pdfrwt beam="1">  1        2 0.32668925E+00 0.78634361E+02</pdfrwt>
<pdfrwt beam="2">  1       -1 0.11199617E-03 0.78634361E+02</pdfrwt>
<totfact> 0.27339227E+05</totfact>
</mgrwt>
</event>
<event>
 8    1  0.2603554E-024  0.7942218E+02  0.7818608E-02  0.1330699E+00
          2   -1    0    0  501    0  0.00000000000E+00  0.00000000000E+00  0.10418582920E+04  0.10418582920E+04  0.25500000000E-02 0. -1.
         -1   -1    0    0    0  501 -0.00000000000E+00 -0.00000000000E+00 -0.15136091602E+01  0.15136175512E+01  0.50400000000E-02 0.  1.
         24    2    1    2    0    0  0.00000000000E+00 -0.17763568394E-14  0.10403446828E+04  0.10433719095E+04  0.79422179105E+02 0.  0.
         66    2    3    3    0    0 -0.18417395100E+02  0.13056521465E+02  0.94927856477E+03  0.94954908600E+03  0.19999994290E+01 0.  0.
        -13    1    3    3    0    0  0.18417395100E+02 -0.13056521465E+02  0.91066118024E+02  0.93822823508E+02  0.10566000000E+00 0.  1.
         13    1    4    4    0    0 -0.50284951307E+01  0.40297461983E+01  0.25007514419E+03  0.25015817700E+03  0.10566000000E+00 0. -1.
        -13    1    4    4    0    0 -0.87201795805E+01  0.53012310169E+01  0.42659421968E+03  0.42671628046E+03  0.10566000000E+00 0.  1.
         14    1    4    4    0    0 -0.46687203886E+01  0.37255442493E+01  0.27260920091E+03  0.27267462854E+03  0.00000000000E+00 0. -1.
<mgrwt>
<rscale>  0 0.79422179E+02</rscale>
<asrwt>0</asrwt>
<pdfrwt beam="1">  1        2 0.16028658E+00 0.79422179E+02</pdfrwt>
<pdfrwt beam="2">  1       -1 0.23286259E-03 0.79422179E+02</pdfrwt>
<totfact> 0.35940026E+05</totfact>
</mgrwt>
</event>
<event>
 8    1  0.2603554E-024  0.8001918E+02  0.7818608E-02  0.1328997E+00
          2   -1    0    0  501    0  0.00000000000E+00  0.00000000000E+00  0.46740378004E+03  0.46740378005E+03  0.25500000000E-02 0. -1.
         -1   -1    0    0    0  501 -0.00000000000E+00 -0.00000000000E+00 -0.34248038247E+01  0.34248075332E+01  0.50400000000E-02 0.  1.
         24    2    1    2    0    0 -0.35527136788E-14  0.88817841970E-15  0.46397897621E+03  0.47082858758E+03  0.80019175907E+02 0.  0.
         66    2    3    3    0    0  0.24963863495E+02 -0.45507794830E+01  0.41395254774E+03  0.41473439194E+03  0.20000007471E+01 0.  0.
        -13    1    3    3    0    0 -0.24963863495E+02  0.45507794830E+01  0.50026428477E+02  0.56094195642E+02  0.10566000000E+00 0.  1.
         13    1    4    4    0    0  0.37964337113E+01 -0.54793736219E+00  0.56773594811E+02  0.56903122727E+02  0.10566000000E+00 0. -1.
        -13    1    4    4    0    0  0.82860369914E+01 -0.16371110755E+01  0.12801161134E+03  0.12828999315E+03  0.10566000000E+00 0.  1.
         14    1    4    4    0    0  0.12881392792E+02 -0.23657310453E+01  0.22916734159E+03  0.22954127606E+03  0.00000000000E+00 0. -1.
<mgrwt>
<rscale>  0 0.80019176E+02</rscale>
<asrwt>0</asrwt>
<pdfrwt beam="1">  1        2 0.71908356E-01 0.80019176E+02</pdfrwt>
<pdfrwt beam="2">  1       -1 0.52689258E-03 0.80019176E+02</pdfrwt>
<totfact> 0.29773843E+05</totfact>
</mgrwt>
</event>
<event>
 8    1  0.2603554E-024  0.8026088E+02  0.7818608E-02  0.1328313E+00
          2   -1    0    0  501    0  0.00000000000E+00  0.00000000000E+00  0.30296920747E+03  0.30296920748E+03  0.25500000000E-02 0. -1.
         -1   -1    0    0    0  501 -0.00000000000E+00 -0.00000000000E+00 -0.53155622900E+01  0.53155646794E+01  0.50400000000E-02 0.  1.
         24    2    1    2    0    0  0.35527136788E-14 -0.71054273576E-14  0.29765364518E+03  0.30828477216E+03  0.80260876253E+02 0.  0.
         66    2    3    3    0    0  0.30766104131E+02 -0.24953983909E+02  0.17296539266E+03  0.17745501271E+03  0.20000007259E+01 0.  0.
        -13    1    3    3    0    0 -0.30766104131E+02  0.24953983909E+02  0.12468825253E+03  0.13082975945E+03  0.10566000000E+00 0.  1.
         13    1    4    4    0    0  0.19459641460E+02 -0.15456067015E+02  0.10896486281E+03  0.11176278515E+03  0.10566000000E+00 0. -1.
        -13    1    4    4    0    0  0.75954450128E+01 -0.56710143473E+01  0.40461379601E+02  0.41557016157E+02  0.10566000000E+00 0.  1.
        -14    1    4    4    0    0  0.37110176578E+01 -0.38269025472E+01  0.23539150243E+02  0.24135211400E+02  0.00000000000E+00 0.  1.
<mgrwt>
<rscale>  0 0.80260876E+02</rscale>
<asrwt>0</asrwt>
<pdfrwt beam="1">  1        2 0.46610645E-01 0.80260876E+02</pdfrwt>
<pdfrwt beam="2">  1       -1 0.81777905E-03 0.80260876E+02</pdfrwt>
<totfact> 0.25368075E+05</totfact>
</mgrwt>
</event>
<event>
 8    1  0.2603554E-024  0.7939965E+02  0.7818608E-02  0.1330764E+00
         -1   -1    0    0    0  501 -0.00000000000E+00  0.00000000000E+00  0.46148769267E+01  0.46148796788E+01  0.50400000000E-02 0.  1.
          2   -1    0    0  501    0  0.00000000000E+00 -0.00000000000E+00 -0.34152061445E+03  0.34152061445E+03  0.25500000000E-02 0. -1.
         24    2    1    2    0    0 -0.35527136788E-14 -0.44408920985E-15 -0.33690573752E+03  0.34613549413E+03  0.79399649408E+02 0.  0.
         66    2    3    3    0    0  0.22553666478E+02  0.32873299214E+01 -0.31012929763E+03  0.31097211394E+03  0.19999971094E+01 0.  0.
        -13    1    3    3    0    0 -0.22553666478E+02 -0.32873299214E+01 -0.26776439884E+02  0.35163380192E+02  0.10566000000E+00 0.  1.
         13    1    4    4    0    0  0.17791741097E+02  0.28353325450E+01 -0.23553393615E+03  0.23622199602E+03  0.10566000000E+00 0. -1.
        -13    1    4    4    0    0  0.55419211887E+00  0.13958096243E+00 -0.10432555833E+02  0.10448731837E+02  0.10566000000E+00 0.  1.
         14    1    4    4    0    0  0.42077332625E+01  0.31241641397E+00 -0.64162805648E+02  0.64301386081E+02  0.00000000000E+00 0. -1.
<mgrwt>
<rscale>  0 0.79399649E+02</rscale>
<asrwt>0</asrwt>
<pdfrwt beam="1">  1        2 0.52541613E-01 0.79399649E+02</pdfrwt>
<pdfrwt beam="2">  1       -1 0.70998155E-03 0.79399649E+02</pdfrwt>
<totfact> 0.27245919E+05</totfact>
</mgrwt>
</event>
<event>
 8    1  0.2603554E-024  0.8038219E+02  0.7818608E-02  0.1327970E+00
         -1   -1    0    0    0  501 -0.00000000000E+00  0.00000000000E+00  0.16580797275E+02  0.16580798041E+02  0.50400000000E-02 0.  1.
          2   -1    0    0  501    0  0.00000000000E+00 -0.00000000000E+00 -0.97421364104E+02  0.97421364137E+02  0.25500000000E-02 0. -1.
         24    2    1    2    0    0 -0.71054273576E-14  0.00000000000E+00 -0.80840566829E+02  0.11400216218E+03  0.80382185439E+02 0.  0.
         66    2    3    3    0    0  0.34658508552E+02  0.18047444329E+02 -0.27262627691E+02  0.47688293431E+02  0.19999999528E+01 0.  0.
        -13    1    3    3    0    0 -0.34658508552E+02 -0.18047444329E+02 -0.53577939138E+02  0.66313868747E+02  0.10566000000E+00 0.  1.
         13    1    4    4    0    0  0.14509328655E+02  0.72388946671E+01 -0.10369669542E+02  0.19247426437E+02  0.10566000000E+00 0. -1.
        -13    1    4    4    0    0  0.98443083719E+01  0.48464193344E+01 -0.79197454697E+01  0.13532616895E+02  0.10566000000E+00 0.  1.
        -14    1    4    4    0    0  0.10304871526E+02  0.59621303278E+01 -0.89732126789E+01  0.14908250098E+02  0.00000000000E+00 0.  1.
<mgrwt>
<rscale>  0 0.80382185E+02</rscale>
<asrwt>0</asrwt>
<pdfrwt beam="1">  1        2 0.14987902E-01 0.80382185E+02</pdfrwt>
<pdfrwt beam="2">  1       -1 0.25508920E-02 0.80382185E+02</pdfrwt>
<totfact> 0.17373881E+05</totfact>
</mgrwt>
</event>
<event>
 8    1  0.2603554E-024  0.8042482E+02  0.7818608E-02  0.1327850E+00
         -1   -1    0    0    0  501 -0.00000000000E+00  0.00000000000E+00  0.37119472566E+02  0.37119472908E+02  0.50400000000E-02 0.  1.
          2   -1    0    0  501    0  0.00000000000E+00 -0.00000000000E+00 -0.43563066619E+02  0.43563066694E+02  0.25500000000E-02 0. -1.
         24    2    1    2    0    0  0.00000000000E+00  0.17763568394E-14 -0.64435940529E+01  0.80682539602E+02  0.80424823856E+02 0.  0.
         66    2    3    3    0    0 -0.37190091384E+02  0.10201308565E+02 -0.14567693371E+02  0.41272112715E+02  0.20000010604E+01 0.  0.
        -13    1    3    3    0    0  0.37190091384E+02 -0.10201308565E+02  0.81240993183E+01  0.39410426886E+02  0.10566000000E+00 0.  1.
         13    1    4    4    0    0 -0.27795011596E+02  0.71697184241E+01 -0.10899071886E+02  0.30704534908E+02  0.10566000000E+00 0. -1.
        -13    1    4    4    0    0 -0.58128352923E+01  0.20033387399E+01 -0.18560294239E+01  0.64232724915E+01  0.10566000000E+00 0.  1.
        -14    1    4    4    0    0 -0.35822444959E+01  0.10282514006E+01 -0.18125920610E+01  0.41443053158E+01  0.00000000000E+00 0.  1.
<mgrwt>
<rscale>  0 0.80424824E+02</rscale>
<asrwt>0</asrwt>
<pdfrwt beam="1">  1        2 0.67020103E-02 0.80424824E+02</pdfrwt>
<pdfrwt beam="2">  1       -1 0.57106881E-02 0.80424824E+02</pdfrwt>
<totfact> 0.14299610E+05</totfact>
</mgrwt>
</event>
<event>
 8    1  0.2603554E-024  0.7910601E+02  0.7818608E-02  0.1331608E+00
         -1   -1    0    0    0  501 -0.00000000000E+00  0.00000000000E+00  0.14660150396E+01  0.14660237031E+01  0.50400000000E-02 0.  1.
          2   -1    0    0  501    0  0.00000000000E+00 -0.00000000000E+00 -0.10671346105E+04  0.10671346105E+04  0.25500000000E-02 0. -1.
         24    2    1    2    0    0  0.00000000000E+00  0.35527136788E-14 -0.10656685955E+04  0.10686006342E+04  0.79106005305E+02 0.  0.
         66    2    3    3    0    0 -0.60315973071E+01 -0.27483571579E+02 -0.90819094438E+03  0.90862892225E+03  0.20000050277E+01 0.  0.
        -13    1    3    3    0    0  0.60315973071E+01  0.27483571579E+02 -0.15747765109E+03  0.15997171196E+03  0.10566000000E+00 0.  1.
         13    1    4    4    0    0 -0.26840241228E+01 -0.11155584044E+02 -0.39161526829E+03  0.39178333369E+03  0.10566000000E+00 0. -1.
        -13    1    4    4    0    0 -0.10511217422E+01 -0.76664407969E+01 -0.24296318541E+03  0.24308640398E+03  0.10566000000E+00 0. -1.
         14    1    4    4    0    0 -0.22964514421E+01 -0.86615467377E+01 -0.27361249068E+03  0.27375918458E+03  0.00000000000E+00 0. -1.
<mgrwt>
<rscale>  0 0.79106005E+02</rscale>
<asrwt>0</asrwt>
<pdfrwt beam="1">  1        2 0.16417393E+00 0.79106005E+02</pdfrwt>
<pdfrwt beam="2">  1       -1 0.22554230E-03 0.79106005E+02</pdfrwt>
<totfact> 0.36315977E+05</totfact>
</mgrwt>
</event>
<event>
 8    1  0.2603554E-024  0.8653157E+02  0.7818608E-02  0.1311475E+00
          2   -1    0    0  501    0  0.00000000000E+00  0.00000000000E+00  0.45002213522E+03  0.45002213523E+03  0.25500000000E-02 0. -1.
         -1   -1    0    0    0  501 -0.00000000000E+00 -0.00000000000E+00 -0.41596344987E+01  0.41596375520E+01  0.50400000000E-02 0.  1.
         24    2    1    2    0    0  0.00000000000E+00  0.00000000000E+00  0.44586250072E+03  0.45418177278E+03  0.86531573287E+02 0.  0.
         66    2    3    3    0    0 -0.19715749031E+02 -0.27051926318E+02  0.36673573227E+03  0.36826568507E+03  0.20000001331E+01 0.  0.
        -13    1    3    3    0    0  0.19715749031E+02  0.27051926318E+02  0.79126768455E+02  0.85916087711E+02  0.10566000000E+00 0.  1.
         13    1    4    4    0    0 -0.48424634482E+01 -0.64781737344E+01  0.83291301594E+02  0.83683142104E+02  0.10566000000E+00 0. -1.
        -13    1    4    4    0    0 -0.85255919944E+01 -0.12759219947E+02  0.17546198372E+03  0.17613177541E+03  0.10566000000E+00 0.  1.
        -14    1    4    4    0    0 -0.63476935882E+01 -0.78145326375E+01  0.10798244695E+03  0.10845076756E+03  0.00000000000E+00 0.  1.
<mgrwt>
<rscale>  0 0.86531573E+02</rscale>
<asrwt>0</asrwt>
<pdfrwt beam="1">  1        2 0.69234168E-01 0.86531573E+02</pdfrwt>
<pdfrwt beam="2">  1       -1 0.63994407E-03 0.86531573E+02</pdfrwt>
<totfact> 0.23953190E+05</totfact>
</mgrwt>
</event>
<event>
 8    1  0.2603554E-024  0.7824522E+02  0.7818608E-02  0.1334106E+00
         -1   -1    0    0    0  501 -0.00000000000E+00  0.00000000000E+00  0.12106934558E+02  0.12106935607E+02  0.50400000000E-02 0.  1.
          2   -1    0    0  501    0  0.00000000000E+00 -0.00000000000E+00 -0.12642164390E+03  0.12642164393E+03  0.25500000000E-02 0. -1.
         24    2    1    2    0    0  0.88817841970E-15 -0.71054273576E-14 -0.11431470935E+03  0.13852857954E+03  0.78245220786E+02 0.  0.
         66    2    3    3    0    0 -0.60149263603E+01  0.35742692963E+02 -0.83145561759E+02  0.90724329049E+02  0.20000004628E+01 0.  0.
        -13    1    3    3    0    0  0.60149263603E+01 -0.35742692963E+02 -0.31169147587E+02  0.47804250488E+02  0.10566000000E+00 0.  1.
         13    1    4    4    0    0 -0.36973602321E+01  0.17698994660E+02 -0.41761916589E+02  0.45508172078E+02  0.10566000000E+00 0. -1.
        -13    1    4    4    0    0 -0.11241412141E+00  0.34590113924E+00 -0.10156856115E+01  0.10840045340E+01  0.10566000000E+00 0.  1.
         14    1    4    4    0    0 -0.22051520067E+01  0.17697797164E+02 -0.40367959558E+02  0.44132152437E+02  0.00000000000E+00 0. -1.
<mgrwt>
<rscale>  0 0.78245221E+02</rscale>
<asrwt>0</asrwt>
<pdfrwt beam="1">  1        2 0.19449483E-01 0.78245221E+02</pdfrwt>
<pdfrwt beam="2">  1       -1 0.18626055E-02 0.78245221E+02</pdfrwt>
<totfact> 0.20136996E+05</totfact>
</mgrwt>
</event>
<event>
 8    1  0.2603554E-024  0.7872499E+02  0.7818608E-02  0.1332709E+00
          2   -1    0    0  501    0  0.00000000000E+00  0.00000000000E+00  0.11148327001E+03  0.11148327004E+03  0.25500000000E-02 0. -1.
         -1   -1    0    0    0  501 -0.00000000000E+00 -0.00000000000E+00 -0.13898102843E+02  0.13898103757E+02  0.50400000000E-02 0.  1.
         24    2    1    2    0    0  0.00000000000E+00  0.00000000000E+00  0.97585167171E+02  0.12538137380E+03  0.78724989960E+02 0.  0.
         66    2    3    3    0    0  0.22354771356E+01 -0.21794570132E+02  0.10085761343E+03  0.10322915690E+03  0.20000005251E+01 0.  0.
        -13    1    3    3    0    0 -0.22354771356E+01  0.21794570132E+02 -0.32724462552E+01  0.22152216905E+02  0.10566000000E+00 0.  1.
         13    1    4    4    0    0  0.76301517020E+00 -0.47801526968E+01  0.24539056448E+02  0.25012167186E+02  0.10566000000E+00 0. -1.
        -13    1    4    4    0    0  0.10736231915E+01 -0.53877148605E+01  0.24490857302E+02  0.25099669193E+02  0.10566000000E+00 0.  1.
         14    1    4    4    0    0  0.39883877390E+00 -0.11626702575E+02  0.51827699676E+02  0.53117320517E+02  0.00000000000E+00 0. -1.
<mgrwt>
<rscale>  0 0.78724990E+02</rscale>
<asrwt>0</asrwt>
<pdfrwt beam="1">  1        2 0.17151272E-01 0.78724990E+02</pdfrwt>
<pdfrwt beam="2">  1       -1 0.21381698E-02 0.78724990E+02</pdfrwt>
<totfact> 0.19085957E+05</totfact>
</mgrwt>
</event>
<event>
 8    1  0.2603554E-024  0.7992386E+02  0.7818608E-02  0.1329268E+00
          2   -1    0    0  501    0  0.00000000000E+00  0.00000000000E+00  0.52529468169E+02  0.52529468231E+02  0.25500000000E-02 0. -1.
         -1   -1    0    0    0  501 -0.00000000000E+00 -0.00000000000E+00 -0.30401143880E+02  0.30401144298E+02  0.50400000000E-02 0.  1.
         24    2    1    2    0    0  0.00000000000E+00  0.00000000000E+00  0.22128324289E+02  0.82930612528E+02  0.79923862260E+02 0.  0.
         66    2    3    3    0    0  0.35311062358E+02 -0.16770832097E+02  0.25892611288E+01  0.39228002912E+02  0.20000013102E+01 0.  0.
        -13    1    3    3    0    0 -0.35311062358E+02  0.16770832097E+02  0.19539063160E+02  0.43702609616E+02  0.10566000000E+00 0.  1.
         13    1    4    4    0    0  0.13610757782E+02 -0.66071212384E+01  0.17467577100E+01  0.15230532000E+02  0.10566000000E+00 0. -1.
        -13    1    4    4    0    0  0.19729502287E+02 -0.93841203629E+01  0.52238300891E+00  0.21854039067E+02  0.10566000000E+00 0.  1.
        -14    1    4    4    0    0  0.19708022883E+01 -0.77959049522E+00  0.32012040987E+00  0.21434318456E+01  0.00000000000E+00 0.  1.
<mgrwt>
<rscale>  0 0.79923862E+02</rscale>
<asrwt>0</asrwt>
<pdfrwt beam="1">  1        2 0.80814566E-02 0.79923862E+02</pdfrwt>
<pdfrwt beam="2">  1       -1 0.46770991E-02 0.79923862E+02</pdfrwt>
<totfact> 0.15144991E+05</totfact>
</mgrwt>
</event>
<event>
 8    1  0.2603554E-024  0.7969988E+02  0.7818608E-02  0.1329905E+00
         -1   -1    0    0    0  501 -0.00000000000E+00  0.00000000000E+00  0.14861417677E+03  0.14861417686E+03  0.50400000000E-02 0.  1.
          2   -1    0    0  501    0  0.00000000000E+00 -0.00000000000E+00 -0.10685506513E+02  0.10685506817E+02  0.25500000000E-02 0. -1.
         24    2    1    2    0    0  0.17763568394E-14 -0.35527136788E-14  0.13792867026E+03  0.15929968368E+03  0.79699881678E+02 0.  0.
         66    2    3    3    0    0  0.14565144907E+02  0.30715159788E+02  0.27539196215E+02  0.43794655080E+02  0.19999996129E+01 0.  0.
        -13    1    3    3    0    0 -0.14565144907E+02 -0.30715159788E+02  0.11038947405E+03  0.11550502860E+03  0.10566000000E+00 0.  1.
         13    1    4    4    0    0  0.75423780842E+00  0.17163332133E+01  0.12387733410E+01  0.22495327952E+01  0.10566000000E+00 0. -1.
        -13    1    4    4    0    0  0.14124803331E+01  0.40029494086E+01  0.30926006010E+01  0.52530036333E+01  0.10566000000E+00 0.  1.
        -14    1    4    4    0    0  0.12398426765E+02  0.24995877166E+02  0.23207822273E+02  0.36292118651E+02  0.00000000000E+00 0.  1.
<mgrwt>
<rscale>  0 0.79699882E+02</rscale>
<asrwt>0</asrwt>
<pdfrwt beam="1">  1        2 0.16439241E-02 0.79699882E+02</pdfrwt>
<pdfrwt beam="2">  1       -1 0.22863720E-01 0.79699882E+02</pdfrwt>
<totfact> 0.10915925E+05</totfact>
</mgrwt>
</event>
<event>
 8    1  0.2603554E-024  0.8014788E+02  0.7818608E-02  0.1328632E+00
          2   -1    0    0  501    0  0.00000000000E+00  0.00000000000E+00  0.84929997176E+03  0.84929997176E+03  0.25500000000E-02 0. -1.
         -1   -1    0    0    0  501 -0.00000000000E+00 -0.00000000000E+00 -0.18908725228E+01  0.18908792397E+01  0.50400000000E-02 0.  1.
         24    2    1    2    0    0  0.00000000000E+00  0.00000000000E+00  0.84740909924E+03  0.85119085100E+03  0.80147884327E+02 0.  0.
         66    2    3    3    0    0  0.31881587969E+02 -0.47094036523E+01  0.67647559645E+03  0.67724578015E+03  0.20000020030E+01 0.  0.
        -13    1    3    3    0    0 -0.31881587969E+02  0.47094036523E+01  0.17093350279E+03  0.17394507085E+03  0.10566000000E+00 0.  1.
         13    1    4    4    0    0  0.20018141512E+02 -0.31246276066E+01  0.42886041027E+03  0.42933873800E+03  0.10566000000E+00 0. -1.
        -13    1    4    4    0    0  0.46074397502E+01 -0.84879205961E+00  0.10769667616E+03  0.10779858148E+03  0.10566000000E+00 0.  1.
        -14    1    4    4    0    0  0.72560067061E+01 -0.73598398609E+00  0.13991851002E+03  0.14010846067E+03  0.00000000000E+00 0.  1.
<mgrwt>
<rscale>  0 0.80147884E+02</rscale>
<asrwt>0</asrwt>
<pdfrwt beam="1">  1        2 0.13066216E+00 0.80147884E+02</pdfrwt>
<pdfrwt beam="2">  1       -1 0.29090260E-03 0.80147884E+02</pdfrwt>
<totfact> 0.34525245E+05</totfact>
</mgrwt>
</event>
<event>
 8    1  0.2603554E-024  0.7924964E+02  0.7818608E-02  0.1331194E+00
         -1   -1    0    0    0  501 -0.00000000000E+00  0.00000000000E+00  0.77967367282E+01  0.77967383572E+01  0.50400000000E-02 0.  1.
          2   -1    0    0  501    0  0.00000000000E+00 -0.00000000000E+00 -0.20138247002E+03  0.20138247004E+03  0.25500000000E-02 0. -1.
         24    2    1    2    0    0  0.00000000000E+00  0.00000000000E+00 -0.19358573330E+03  0.20917920840E+03  0.79249637791E+02 0.  0.
         66    2    3    3    0    0  0.19312016570E+02  0.58660966976E+01 -0.18678168053E+03  0.18787964567E+03  0.19999997969E+01 0.  0.
        -13    1    3    3    0    0 -0.19312016570E+02 -0.58660966976E+01 -0.68040527646E+01  0.21299562731E+02  0.10566000000E+00 0.  1.
         13    1    4    4    0    0  0.10077520627E+01  0.28907154714E+00 -0.65591583822E+01  0.66432559259E+01  0.10566000000E+00 0. -1.
        -13    1    4    4    0    0  0.37420759794E+01  0.11174444436E+01 -0.38794752968E+02  0.38990971219E+02  0.10566000000E+00 0.  1.
         14    1    4    4    0    0  0.14562188528E+02  0.44595807069E+01 -0.14142776918E+03  0.14224541852E+03  0.00000000000E+00 0. -1.
<mgrwt>
<rscale>  0 0.79249638E+02</rscale>
<asrwt>0</asrwt>
<pdfrwt beam="1">  1        2 0.30981915E-01 0.79249638E+02</pdfrwt>
<pdfrwt beam="2">  1       -1 0.11994982E-02 0.79249638E+02</pdfrwt>
<totfact> 0.22667804E+05</totfact>
</mgrwt>
</event>
<event>
 8    1  0.2603554E-024  0.8267450E+02  0.7818608E-02  0.1321628E+00
          2   -1    0    0  501    0  0.00000000000E+00  0.00000000000E+00  0.95533636129E+02  0.95533636163E+02  0.25500000000E-02 0. -1.
         -1   -1    0    0    0  501 -0.00000000000E+00 -0.00000000000E+00 -0.17886560645E+02  0.17886561355E+02  0.50400000000E-02 0.  1.
         24    2    1    2    0    0 -0.71054273576E-14  0.00000000000E+00  0.77647075484E+02  0.11342019752E+03  0.82674499539E+02 0.  0.
         66    2    3    3    0    0  0.39418272910E+02 -0.99123846744E+01  0.48993313849E+02  0.63689876496E+02  0.19999892498E+01 0.  0.
        -13    1    3    3    0    0 -0.39418272910E+02  0.99123846744E+01  0.28653761635E+02  0.49730321023E+02  0.10566000000E+00 0.  1.
         13    1    4    4    0    0  0.26407711603E+02 -0.64119279518E+01  0.33515910182E+02  0.43148666857E+02  0.10566000000E+00 0. -1.
        -13    1    4    4    0    0  0.68198867606E+01 -0.16209965095E+01  0.74256754297E+01  0.10212262469E+02  0.10566000000E+00 0.  1.
        -14    1    4    4    0    0  0.61906745470E+01 -0.18794602131E+01  0.80517282371E+01  0.10328947170E+02  0.00000000000E+00 0.  1.
<mgrwt>
<rscale>  0 0.82674500E+02</rscale>
<asrwt>0</asrwt>
<pdfrwt beam="1">  1        2 0.14697482E-01 0.82674500E+02</pdfrwt>
<pdfrwt beam="2">  1       -1 0.27517787E-02 0.82674500E+02</pdfrwt>
<totfact> 0.16022141E+05</totfact>
</mgrwt>
</event>
<event>
 8    1  0.2603554E-024  0.7356653E+02  0.7818608E-02  0.1348368E+00
         -1   -1    0    0    0  501 -0.00000000000E+00  0.00000000000E+00  0.16276051469E+02  0.16276052249E+02  0.50400000000E-02 0.  1.
          2   -1    0    0  501    0  0.00000000000E+00 -0.00000000000E+00 -0.83128791113E+02  0.83128791152E+02  0.25500000000E-02 0. -1.
         24    2    1    2    0    0  0.00000000000E+00  0.17763568394E-14 -0.66852739644E+02  0.99404843402E+02  0.73566528352E+02 0.  0.
         66    2    3    3    0    0  0.25315815260E+02  0.13617286911E+02 -0.64402074435E+02  0.70554576000E+02  0.19999994842E+01 0.  0.
        -13    1    3    3    0    0 -0.25315815260E+02 -0.13617286911E+02 -0.24506652094E+01  0.28850267401E+02  0.10566000000E+00 0.  1.
         13    1    4    4    0    0  0.19907802038E+02  0.10776524285E+02 -0.51035008517E+02  0.55830433601E+02  0.10566000000E+00 0. -1.
        -13    1    4    4    0    0  0.17815050034E+01  0.49352538696E+00 -0.42171988012E+01  0.46057851827E+01  0.10566000000E+00 0.  1.
        -14    1    4    4    0    0  0.36265082188E+01  0.23472372391E+01 -0.91498671168E+01  0.10118357217E+02  0.00000000000E+00 0.  1.
<mgrwt>
<rscale>  0 0.73566528E+02</rscale>
<asrwt>0</asrwt>
<pdfrwt beam="1">  1        2 0.12789045E-01 0.73566528E+02</pdfrwt>
<pdfrwt beam="2">  1       -1 0.25040080E-02 0.73566528E+02</pdfrwt>
<totfact> 0.21104751E+05</totfact>
</mgrwt>
</event>
<event>
 8    1  0.2603554E-024  0.7872411E+02  0.7818608E-02  0.1332712E+00
         -1   -1    0    0    0  501 -0.00000000000E+00  0.00000000000E+00  0.12435005315E+01  0.12435107452E+01  0.50400000000E-02 0.  1.
          2   -1    0    0  501    0  0.00000000000E+00 -0.00000000000E+00 -0.12459705005E+04  0.12459705005E+04  0.25500000000E-02 0. -1.
         24    2    1    2    0    0  0.00000000000E+00  0.00000000000E+00 -0.12447269999E+04  0.12472140112E+04  0.78724109409E+02 0.  0.
         66    2    3    3    0    0 -0.11948554998E+02 -0.62545933159E+01 -0.12081949903E+04  0.12082719158E+04  0.19999974496E+01 0.  0.
        -13    1    3    3    0    0  0.11948554998E+02  0.62545933159E+01 -0.36532009601E+02  0.38942095393E+02  0.10566000000E+00 0.  1.
         13    1    4    4    0    0 -0.28973332242E+01 -0.11220373382E+01 -0.25775489383E+03  0.25777364094E+03  0.10566000000E+00 0. -1.
        -13    1    4    4    0    0 -0.60354609027E+01 -0.39247264891E+01 -0.60277451145E+03  0.60281751226E+03  0.10566000000E+00 0.  1.
        -14    1    4    4    0    0 -0.30157608713E+01 -0.12078294886E+01 -0.34766558505E+03  0.34768076262E+03  0.00000000000E+00 0.  1.
<mgrwt>
<rscale>  0 0.78724109E+02</rscale>
<asrwt>0</asrwt>
<pdfrwt beam="1">  1        2 0.19168677E+00 0.78724109E+02</pdfrwt>
<pdfrwt beam="2">  1       -1 0.19130956E-03 0.78724109E+02</pdfrwt>
<totfact> 0.36353746E+05</totfact>
</mgrwt>
</event>
<event>
 8    1  0.2603554E-024  0.7835928E+02  0.7818608E-02  0.1333773E+00
          2   -1    0    0  501    0  0.00000000000E+00  0.00000000000E+00  0.25810808770E+02  0.25810808896E+02  0.25500000000E-02 0. -1.
         -1   -1    0    0    0  501 -0.00000000000E+00 -0.00000000000E+00 -0.59472914483E+02  0.59472914696E+02  0.50400000000E-02 0.  1.
         24    2    1    2    0    0  0.00000000000E+00  0.00000000000E+00 -0.33662105713E+02  0.85283723592E+02  0.78359276086E+02 0.  0.
         66    2    3    3    0    0 -0.26837551442E+02 -0.10413864323E+02  0.12042575708E+02  0.31268616396E+02  0.20000010282E+01 0.  0.
        -13    1    3    3    0    0  0.26837551442E+02  0.10413864323E+02 -0.45704681421E+02  0.54015107196E+02  0.10566000000E+00 0.  1.
         13    1    4    4    0    0 -0.96525536901E+01 -0.32577435668E+01  0.35956065061E+01  0.10803899114E+02  0.10566000000E+00 0.  1.
        -13    1    4    4    0    0 -0.11485313720E+02 -0.43819075662E+01  0.58532907630E+01  0.13615642547E+02  0.10566000000E+00 0. -1.
        -14    1    4    4    0    0 -0.56996840322E+01 -0.27742131902E+01  0.25936784388E+01  0.68490747357E+01  0.00000000000E+00 0.  1.
<mgrwt>
<rscale>  0 0.78359276E+02</rscale>
<asrwt>0</asrwt>
<pdfrwt beam="1">  1        2 0.39708937E-02 0.78359276E+02</pdfrwt>
<pdfrwt beam="2">  1       -1 0.91496792E-02 0.78359276E+02</pdfrwt>
<totfact> 0.13848743E+05</totfact>
</mgrwt>
</event>
<event>
 8    1  0.2603554E-024  0.8363573E+02  0.7818608E-02  0.1319039E+00
         -1   -1    0    0    0  501 -0.00000000000E+00  0.00000000000E+00  0.40338485411E+01  0.40338516897E+01  0.50400000000E-02 0.  1.
          2   -1    0    0  501    0  0.00000000000E+00 -0.00000000000E+00 -0.43351478749E+03  0.43351478749E+03  0.25500000000E-02 0. -1.
         24    2    1    2    0    0  0.00000000000E+00  0.71054273576E-14 -0.42948093894E+03  0.43754863918E+03  0.83635726422E+02 0.  0.
         66    2    3    3    0    0 -0.30935658734E+01 -0.40533453418E+02 -0.26563846957E+03  0.26873839977E+03  0.19999999411E+01 0.  0.
        -13    1    3    3    0    0  0.30935658734E+01  0.40533453418E+02 -0.16384246938E+03  0.16881023942E+03  0.10566000000E+00 0.  1.
         13    1    4    4    0    0 -0.10577221628E+00 -0.10535560742E+02 -0.69008807173E+02  0.69808565803E+02  0.10566000000E+00 0. -1.
        -13    1    4    4    0    0 -0.33773982345E+00 -0.75940636045E+01 -0.50419323289E+02  0.50989245877E+02  0.10566000000E+00 0.  1.
         14    1    4    4    0    0 -0.26500538336E+01 -0.22403829071E+02 -0.14621033911E+03  0.14794058809E+03  0.00000000000E+00 0. -1.
<mgrwt>
<rscale>  0 0.83635726E+02</rscale>
<asrwt>0</asrwt>
<pdfrwt beam="1">  1        2 0.66694546E-01 0.83635726E+02</pdfrwt>
<pdfrwt beam="2">  1       -1 0.62059267E-03 0.83635726E+02</pdfrwt>
<totfact> 0.25861479E+05</totfact>
</mgrwt>
</event>
<event>
 8    1  0.2603554E-024  0.8030492E+02  0.7818608E-02  0.1328188E+00
         -1   -1    0    0    0  501 -0.00000000000E+00  0.00000000000E+00  0.28771904785E+01  0.28771948928E+01  0.50400000000E-02 0.  1.
          2   -1    0    0  501    0  0.00000000000E+00 -0.00000000000E+00 -0.56034486910E+03  0.56034486911E+03  0.25500000000E-02 0. -1.
         24    2    1    2    0    0  0.00000000000E+00  0.00000000000E+00 -0.55746767862E+03  0.56322206400E+03  0.80304923058E+02 0.  0.
         66    2    3    3    0    0  0.39080178972E+02 -0.33048368593E+01 -0.33843171412E+03  0.34070252048E+03  0.20000023517E+01 0.  0.
        -13    1    3    3    0    0 -0.39080178972E+02  0.33048368593E+01 -0.21903596451E+03  0.22251954351E+03  0.10566000000E+00 0.  1.
         13    1    4    4    0    0  0.51524208049E+01 -0.40231648722E+00 -0.47404725608E+02  0.47685726090E+02  0.10566000000E+00 0. -1.
        -13    1    4    4    0    0  0.45280998481E+01 -0.84111214804E+00 -0.42012906138E+02  0.42264720561E+02  0.10566000000E+00 0.  1.
         14    1    4    4    0    0  0.29399658319E+02 -0.20614082240E+01 -0.24901408237E+03  0.25075207383E+03  0.00000000000E+00 0. -1.
<mgrwt>
<rscale>  0 0.80304923E+02</rscale>
<asrwt>0</asrwt>
<pdfrwt beam="1">  1        2 0.86206816E-01 0.80304923E+02</pdfrwt>
<pdfrwt beam="2">  1       -1 0.44264548E-03 0.80304923E+02</pdfrwt>
<totfact> 0.31226898E+05</totfact>
</mgrwt>
</event>
<event>
 8    1  0.2603554E-024  0.7446183E+02  0.7818608E-02  0.1345546E+00
          2   -1    0    0  501    0  0.00000000000E+00  0.00000000000E+00  0.27516376660E+03  0.27516376662E+03  0.25500000000E-02 0. -1.
         -1   -1    0    0    0  501 -0.00000000000E+00 -0.00000000000E+00 -0.50375116471E+01  0.50375141683E+01  0.50400000000E-02 0.  1.
         24    2    1    2    0    0  0.00000000000E+00 -0.35527136788E-14  0.27012625496E+03  0.28020128078E+03  0.74461830061E+02 0.  0.
         66    2    3    3    0    0 -0.17373085929E+02  0.31570509644E+02  0.16997889219E+03  0.17376807813E+03  0.19999983064E+01 0.  0.
        -13    1    3    3    0    0  0.17373085929E+02 -0.31570509644E+02  0.10014736276E+03  0.10643320265E+03  0.10566000000E+00 0.  1.
         13    1    4    4    0    0 -0.48025764631E+01  0.93478286270E+01  0.50880640019E+02  0.51954762375E+02  0.10566000000E+00 0. -1.
        -13    1    4    4    0    0 -0.48245885801E+01  0.71256240100E+01  0.40593800649E+02  0.41496011708E+02  0.10566000000E+00 0.  1.
        -14    1    4    4    0    0 -0.77459208856E+01  0.15097057007E+02  0.78504451525E+02  0.80317304050E+02  0.00000000000E+00 0.  1.
<mgrwt>
<rscale>  0 0.74461830E+02</rscale>
<asrwt>0</asrwt>
<pdfrwt beam="1">  1        2 0.42332891E-01 0.74461830E+02</pdfrwt>
<pdfrwt beam="2">  1       -1 0.77500192E-03 0.74461830E+02</pdfrwt>
<totfact> 0.29807210E+05</totfact>
</mgrwt>
</event>
<event>
 8    1  0.2603554E-024  0.7750413E+02  0.7818608E-02  0.1336287E+00
         -1   -1    0    0    0  501 -0.00000000000E+00  0.00000000000E+00  0.42949135516E+01  0.42949165087E+01  0.50400000000E-02 0.  1.
          2   -1    0    0  501    0  0.00000000000E+00 -0.00000000000E+00 -0.34965127493E+03  0.34965127494E+03  0.25500000000E-02 0. -1.
         24    2    1    2    0    0  0.00000000000E+00 -0.44408920985E-15 -0.34535636138E+03  0.35394619145E+03  0.77504129542E+02 0.  0.
         66    2    3    3    0    0 -0.23458016644E+02  0.35579795498E+01 -0.31256838327E+03  0.31347397337E+03  0.20000000887E+01 0.  0.
        -13    1    3    3    0    0  0.23458016644E+02 -0.35579795498E+01 -0.32787978114E+02  0.40472218078E+02  0.10566000000E+00 0.  1.
         13    1    4    4    0    0 -0.92100645787E+01  0.19806684716E+01 -0.12915311559E+03  0.12949628090E+03  0.10566000000E+00 0. -1.
        -13    1    4    4    0    0 -0.96162212483E+01  0.71524586924E+00 -0.12768899064E+03  0.12805261724E+03  0.10566000000E+00 0.  1.
         14    1    4    4    0    0 -0.46317308168E+01  0.86206520892E+00 -0.55726277045E+02  0.55925075235E+02  0.00000000000E+00 0. -1.
<mgrwt>
<rscale>  0 0.77504130E+02</rscale>
<asrwt>0</asrwt>
<pdfrwt beam="1">  1        2 0.53792481E-01 0.77504130E+02</pdfrwt>
<pdfrwt beam="2">  1       -1 0.66075644E-03 0.77504130E+02</pdfrwt>
<totfact> 0.29265629E+05</totfact>
</mgrwt>
</event>
<event>
 8    1  0.2603554E-024  0.7900112E+02  0.7818608E-02  0.1331910E+00
         -1   -1    0    0    0  501 -0.00000000000E+00  0.00000000000E+00  0.12670059595E+03  0.12670059605E+03  0.50400000000E-02 0.  1.
          2   -1    0    0  501    0  0.00000000000E+00 -0.00000000000E+00 -0.12314812753E+02  0.12314813017E+02  0.25500000000E-02 0. -1.
         24    2    1    2    0    0 -0.71054273576E-14  0.00000000000E+00  0.11438578319E+03  0.13901540907E+03  0.79001117464E+02 0.  0.
         66    2    3    3    0    0  0.33649936961E+02  0.19530768475E+01  0.21074607239E+02  0.39802912429E+02  0.20000002196E+01 0.  0.
        -13    1    3    3    0    0 -0.33649936961E+02 -0.19530768475E+01  0.93311175955E+02  0.99212496637E+02  0.10566000000E+00 0.  1.
         13    1    4    4    0    0  0.22539215617E+02  0.11907740756E+01  0.14621991325E+02  0.26893270122E+02  0.10566000000E+00 0. -1.
        -13    1    4    4    0    0  0.10503337306E+02  0.56991278581E+00  0.58699477701E+01  0.12046258590E+02  0.10566000000E+00 0.  1.
        -14    1    4    4    0    0  0.60738403770E+00  0.19238998615E+00  0.58266814429E+00  0.86338371677E+00  0.00000000000E+00 0.  1.
<mgrwt>
<rscale>  0 0.79001117E+02</rscale>
<asrwt>0</asrwt>
<pdfrwt beam="1">  1        2 0.18945866E-02 0.79001117E+02</pdfrwt>
<pdfrwt beam="2">  1       -1 0.19492399E-01 0.79001117E+02</pdfrwt>
<totfact> 0.11602623E+05</totfact>
</mgrwt>
</event>
<event>
 8    1  0.2603554E-024  0.8110951E+02  0.7818608E-02  0.1325932E+00
          2   -1    0    0  501    0  0.00000000000E+00  0.00000000000E+00  0.66359909756E+02  0.66359909805E+02  0.25500000000E-02 0. -1.
         -1   -1    0    0    0  501 -0.00000000000E+00 -0.00000000000E+00 -0.24784363351E+02  0.24784363864E+02  0.50400000000E-02 0.  1.
         24    2    1    2    0    0 -0.71054273576E-14  0.00000000000E+00  0.41575546405E+02  0.91144273669E+02  0.81109509700E+02 0.  0.
         66    2    3    3    0    0  0.39459535403E+02  0.92286581699E+01  0.21562602491E+02  0.45947457919E+02  0.19999992941E+01 0.  0.
        -13    1    3    3    0    0 -0.39459535403E+02 -0.92286581699E+01  0.20012943914E+02  0.45196815750E+02  0.10566000000E+00 0.  1.
         13    1    4    4    0    0  0.12431003412E+02  0.33374698911E+01  0.74416202030E+01  0.14868000080E+02  0.10566000000E+00 0. -1.
        -13    1    4    4    0    0  0.10749951264E+02  0.19877825799E+01  0.60556350537E+01  0.12497784271E+02  0.10566000000E+00 0.  1.
        -14    1    4    4    0    0  0.16278580728E+02  0.39034056989E+01  0.80653472343E+01  0.18581673567E+02  0.00000000000E+00 0.  1.
<mgrwt>
<rscale>  0 0.81109510E+02</rscale>
<asrwt>0</asrwt>
<pdfrwt beam="1">  1        2 0.10209217E-01 0.81109510E+02</pdfrwt>
<pdfrwt beam="2">  1       -1 0.38129791E-02 0.81109510E+02</pdfrwt>
<totfact> 0.15354515E+05</totfact>
</mgrwt>
</event>
<event>
 8    1  0.2603554E-024  0.8378838E+02  0.7818608E-02  0.1318632E+00
         -1   -1    0    0    0  501 -0.00000000000E+00  0.00000000000E+00  0.27550865292E+01  0.27550911392E+01  0.50400000000E-02 0.  1.
          2   -1    0    0  501    0  0.00000000000E+00 -0.00000000000E+00 -0.63704780641E+03  0.63704780641E+03  0.25500000000E-02 0. -1.
         24    2    1    2    0    0  0.00000000000E+00  0.00000000000E+00 -0.63429271988E+03  0.63980289755E+03  0.83788383592E+02 0.  0.
         66    2    3    3    0    0  0.22975250434E+02  0.78770167985E+01 -0.57775668044E+03  0.57827043095E+03  0.19999993622E+01 0.  0.
        -13    1    3    3    0    0 -0.22975250434E+02 -0.78770167985E+01 -0.56536039442E+02  0.61532466600E+02  0.10566000000E+00 0.  1.
         13    1    4    4    0    0  0.75687694201E+01  0.27430454532E+01 -0.20538378300E+03  0.20554152877E+03  0.10566000000E+00 0. -1.
        -13    1    4    4    0    0  0.29312627791E+00  0.57632481712E-01 -0.48319149178E+01  0.48422939116E+01  0.10566000000E+00 0.  1.
         14    1    4    4    0    0  0.15113354736E+02  0.50763388635E+01 -0.36754098252E+03  0.36788660827E+03  0.00000000000E+00 0. -1.
<mgrwt>
<rscale>  0 0.83788384E+02</rscale>
<asrwt>0</asrwt>
<pdfrwt beam="1">  1        2 0.98007238E-01 0.83788384E+02</pdfrwt>
<pdfrwt beam="2">  1       -1 0.42386033E-03 0.83788384E+02</pdfrwt>
<totfact> 0.28973194E+05</totfact>
</mgrwt>
</event>
<event>
 8    1  0.2603554E-024  0.7947387E+02  0.7818608E-02  0.1330551E+00
          2   -1    0    0  501    0  0.00000000000E+00  0.00000000000E+00  0.15865633741E+02  0.15865633946E+02  0.25500000000E-02 0. -1.
         -1   -1    0    0    0  501 -0.00000000000E+00 -0.00000000000E+00 -0.99524808855E+02  0.99524808983E+02  0.50400000000E-02 0.  1.
         24    2    1    2    0    0  0.71054273576E-14  0.00000000000E+00 -0.83659175114E+02  0.11539044293E+03  0.79473874567E+02 0.  0.
         66    2    3    3    0    0  0.36148858713E+02  0.55022303748E+01 -0.19362592653E+02  0.41423719292E+02  0.20000000954E+01 0.  0.
        -13    1    3    3    0    0 -0.36148858713E+02 -0.55022303748E+01 -0.64296582461E+02  0.73966723637E+02  0.10566000000E+00 0.  1.
         13    1    4    4    0    0  0.28248355987E+02  0.45981025436E+01 -0.15309425629E+02  0.32457693080E+02  0.10566000000E+00 0. -1.
        -13    1    4    4    0    0  0.59014572457E+01  0.94855303956E+00 -0.33065244484E+01  0.68316336593E+01  0.10566000000E+00 0.  1.
         14    1    4    4    0    0  0.19990454806E+01 -0.44425208305E-01 -0.74664257520E+00  0.21343925524E+01  0.00000000000E+00 0. -1.
<mgrwt>
<rscale>  0 0.79473875E+02</rscale>
<asrwt>0</asrwt>
<pdfrwt beam="1">  1        2 0.24408668E-02 0.79473875E+02</pdfrwt>
<pdfrwt beam="2">  1       -1 0.15311509E-01 0.79473875E+02</pdfrwt>
<totfact> 0.12061814E+05</totfact>
</mgrwt>
</event>
<event>
 8    1  0.2603554E-024  0.7950140E+02  0.7818608E-02  0.1330472E+00
         -1   -1    0    0    0  501 -0.00000000000E+00  0.00000000000E+00  0.65664769355E+02  0.65664769549E+02  0.50400000000E-02 0.  1.
          2   -1    0    0  501    0  0.00000000000E+00 -0.00000000000E+00 -0.24063410373E+02  0.24063410508E+02  0.25500000000E-02 0. -1.
         24    2    1    2    0    0 -0.35527136788E-14  0.00000000000E+00  0.41601358982E+02  0.89728180057E+02  0.79501403932E+02 0.  0.
         66    2    3    3    0    0  0.15905483928E+02  0.84361243927E+01 -0.19152685335E+02  0.26362434746E+02  0.19999991092E+01 0.  0.
        -13    1    3    3    0    0 -0.15905483928E+02 -0.84361243927E+01  0.60754044318E+02  0.63365745311E+02  0.10566000000E+00 0.  1.
         13    1    4    4    0    0  0.83357694268E+01  0.52398774718E+01 -0.11391032820E+02  0.15056831028E+02  0.10566000000E+00 0. -1.
        -13    1    4    4    0    0  0.59448719326E+01  0.25712070907E+01 -0.62034071952E+01  0.89691712585E+01  0.10566000000E+00 0.  1.
         14    1    4    4    0    0  0.16248425689E+01  0.62503983018E+00 -0.15582453203E+01  0.23364324602E+01  0.00000000000E+00 0. -1.
<mgrwt>
<rscale>  0 0.79501404E+02</rscale>
<asrwt>0</asrwt>
<pdfrwt beam="1">  1        2 0.37020632E-02 0.79501404E+02</pdfrwt>
<pdfrwt beam="2">  1       -1 0.10102272E-01 0.79501404E+02</pdfrwt>
<totfact> 0.13113339E+05</totfact>
</mgrwt>
</event>
<event>
 8    1  0.2603554E-024  0.8077550E+02  0.7818608E-02  0.1326865E+00
         -1   -1    0    0    0  501 -0.00000000000E+00  0.00000000000E+00  0.85976860427E+02  0.85976860575E+02  0.50400000000E-02 0.  1.
          2   -1    0    0  501    0  0.00000000000E+00 -0.00000000000E+00 -0.18972201914E+02  0.18972202085E+02  0.25500000000E-02 0. -1.
         24    2    1    2    0    0  0.00000000000E+00  0.00000000000E+00  0.67004658513E+02  0.10494906266E+03  0.80775500560E+02 0.  0.
         66    2    3    3    0    0 -0.21697049171E+01 -0.28403538253E+02 -0.36302892648E+01  0.28786239600E+02  0.19999963730E+01 0.  0.
        -13    1    3    3    0    0  0.21697049171E+01  0.28403538253E+02  0.70634947778E+02  0.76162823059E+02  0.10566000000E+00 0.  1.
         13    1    4    4    0    0 -0.20385247711E+01 -0.24705774179E+02 -0.33177981964E+01  0.25010993781E+02  0.10566000000E+00 0. -1.
        -13    1    4    4    0    0 -0.39291680890E+00 -0.18840067902E+01 -0.94149157597E-01  0.19297391803E+01  0.10566000000E+00 0.  1.
         14    1    4    4    0    0  0.26173666283E+00 -0.18137572837E+01 -0.21834191082E+00  0.18455066390E+01  0.00000000000E+00 0. -1.
<mgrwt>
<rscale>  0 0.80775501E+02</rscale>
<asrwt>0</asrwt>
<pdfrwt beam="1">  1        2 0.29188003E-02 0.80775501E+02</pdfrwt>
<pdfrwt beam="2">  1       -1 0.13227209E-01 0.80775501E+02</pdfrwt>
<totfact> 0.11945926E+05</totfact>
</mgrwt>
</event>
<event>
 8    1  0.2603554E-024  0.7046445E+02  0.7818608E-02  0.1358521E+00
          2   -1    0    0  501    0  0.00000000000E+00  0.00000000000E+00  0.61126094974E+01  0.61126100293E+01  0.25500000000E-02 0. -1.
         -1   -1    0    0    0  501 -0.00000000000E+00 -0.00000000000E+00 -0.20307359832E+03  0.20307359839E+03  0.50400000000E-02 0.  1.
         24    2    1    2    0    0  0.00000000000E+00  0.00000000000E+00 -0.19696098883E+03  0.20918620842E+03  0.70464449703E+02 0.  0.
         66    2    3    3    0    0 -0.49348132572E+01  0.34796909123E+02 -0.92528282027E+02  0.98998284032E+02  0.20000000244E+01 0.  0.
        -13    1    3    3    0    0  0.49348132572E+01 -0.34796909123E+02 -0.10443270680E+03  0.11018792438E+03  0.10566000000E+00 0.  1.
         13    1    4    4    0    0 -0.66466384159E+00  0.43180378853E+01 -0.13289783170E+02  0.13989879555E+02  0.10566000000E+00 0. -1.
        -13    1    4    4    0    0 -0.42022360729E+00  0.43918773796E+01 -0.11040433170E+02  0.11889806702E+02  0.10566000000E+00 0.  1.
        -14    1    4    4    0    0 -0.38499258083E+01  0.26086993858E+02 -0.68198065686E+02  0.73118597775E+02  0.00000000000E+00 0.  1.
<mgrwt>
<rscale>  0 0.70464450E+02</rscale>
<asrwt>0</asrwt>
<pdfrwt beam="1">  1        2 0.94040166E-03 0.70464450E+02</pdfrwt>
<pdfrwt beam="2">  1       -1 0.31242087E-01 0.70464450E+02</pdfrwt>
<totfact> 0.13680484E+05</totfact>
</mgrwt>
</event>
<event>
 8    1  0.2603554E-024  0.8094288E+02  0.7818608E-02  0.1326397E+00
         -1   -1    0    0    0  501 -0.00000000000E+00  0.00000000000E+00  0.39640464814E+01  0.39640496854E+01  0.50400000000E-02 0.  1.
          2   -1    0    0  501    0  0.00000000000E+00 -0.00000000000E+00 -0.41319816220E+03  0.41319816221E+03  0.25500000000E-02 0. -1.
         24    2    1    2    0    0  0.71054273576E-14  0.88817841970E-15 -0.40923411572E+03  0.41716221189E+03  0.80942878400E+02 0.  0.
         66    2    3    3    0    0 -0.33333230906E+02 -0.49712881165E+01 -0.31999696043E+03  0.32177301420E+03  0.19999989489E+01 0.  0.
        -13    1    3    3    0    0  0.33333230906E+02  0.49712881165E+01 -0.89237155285E+02  0.95389197688E+02  0.10566000000E+00 0.  1.
         13    1    4    4    0    0 -0.11297198637E+02 -0.98327234764E+00 -0.10661011429E+03  0.10721157192E+03  0.10566000000E+00 0. -1.
        -13    1    4    4    0    0 -0.11606844394E+01 -0.39565558109E-01 -0.98555677472E+01  0.99243203020E+01  0.10566000000E+00 0.  1.
        -14    1    4    4    0    0 -0.20875347829E+02 -0.39484502108E+01 -0.20353127840E+03  0.20463712198E+03  0.00000000000E+00 0.  1.
<mgrwt>
<rscale>  0 0.80942878E+02</rscale>
<asrwt>0</asrwt>
<pdfrwt beam="1">  1        2 0.63568914E-01 0.80942878E+02</pdfrwt>
<pdfrwt beam="2">  1       -1 0.60985388E-03 0.80942878E+02</pdfrwt>
<totfact> 0.27712995E+05</totfact>
</mgrwt>
</event>
<event>
 8    1  0.2603554E-024  0.8054237E+02  0.7818608E-02  0.1327519E+00
         -1   -1    0    0    0  501 -0.00000000000E+00  0.00000000000E+00  0.97629669721E+01  0.97629682731E+01  0.50400000000E-02 0.  1.
          2   -1    0    0  501    0  0.00000000000E+00 -0.00000000000E+00 -0.16611428179E+03  0.16611428181E+03  0.25500000000E-02 0. -1.
         24    2    1    2    0    0  0.00000000000E+00  0.00000000000E+00 -0.15635131482E+03  0.17587725008E+03  0.80542370534E+02 0.  0.
         66    2    3    3    0    0 -0.28101220697E+02  0.18268239829E+02 -0.12687363064E+03  0.13124147721E+03  0.19999995072E+01 0.  0.
        -13    1    3    3    0    0  0.28101220697E+02 -0.18268239829E+02 -0.29477684177E+02  0.44635772869E+02  0.10566000000E+00 0.  1.
         13    1    4    4    0    0 -0.57110926103E+01  0.33099505569E+01 -0.24880398086E+02  0.25741362133E+02  0.10566000000E+00 0. -1.
        -13    1    4    4    0    0 -0.95346005191E+01  0.65210288699E+01 -0.40719194486E+02  0.42326072204E+02  0.10566000000E+00 0.  1.
        -14    1    4    4    0    0 -0.12855527568E+02  0.84372604025E+01 -0.61274038067E+02  0.63174042875E+02  0.00000000000E+00 0.  1.
<mgrwt>
<rscale>  0 0.80542371E+02</rscale>
<asrwt>0</asrwt>
<pdfrwt beam="1">  1        2 0.25556041E-01 0.80542371E+02</pdfrwt>
<pdfrwt beam="2">  1       -1 0.15019952E-02 0.80542371E+02</pdfrwt>
<totfact> 0.20342106E+05</totfact>
</mgrwt>
</event>
<event>
 8    1  0.2603554E-024  0.7979807E+02  0.7818608E-02  0.1329625E+00
          2   -1    0    0  501    0  0.00000000000E+00  0.00000000000E+00  0.60235488674E+03  0.60235488675E+03  0.25500000000E-02 0. -1.
         -1   -1    0    0    0  501 -0.00000000000E+00 -0.00000000000E+00 -0.26428468594E+01  0.26428516651E+01  0.50400000000E-02 0.  1.
         24    2    1    2    0    0 -0.35527136788E-14  0.35527136788E-14  0.59971203988E+03  0.60499773841E+03  0.79798074564E+02 0.  0.
         66    2    3    3    0    0  0.29825963565E+02  0.23700785228E+02  0.38930514588E+03  0.39116979933E+03  0.19999947348E+01 0.  0.
        -13    1    3    3    0    0 -0.29825963565E+02 -0.23700785228E+02  0.21040689401E+03  0.21382793908E+03  0.10566000000E+00 0.  1.
         13    1    4    4    0    0  0.92184469457E+01  0.73794030584E+01  0.11511565616E+03  0.11571975117E+03  0.10566000000E+00 0. -1.
        -13    1    4    4    0    0  0.14372127194E+01  0.94447665558E+00  0.15279543586E+02  0.15376385557E+02  0.10566000000E+00 0. -1.
         14    1    4    4    0    0  0.19170303900E+02  0.15376905514E+02  0.25890994613E+03  0.26007366261E+03  0.00000000000E+00 0. -1.
<mgrwt>
<rscale>  0 0.79798075E+02</rscale>
<asrwt>0</asrwt>
<pdfrwt beam="1">  1        2 0.92670039E-01 0.79798075E+02</pdfrwt>
<pdfrwt beam="2">  1       -1 0.40659195E-03 0.79798075E+02</pdfrwt>
<totfact> 0.32410958E+05</totfact>
</mgrwt>
</event>
<event>
 8    1  0.2603554E-024  0.8071795E+02  0.7818608E-02  0.1327026E+00
         -1   -1    0    0    0  501 -0.00000000000E+00  0.00000000000E+00  0.47725234047E+01  0.47725260659E+01  0.50400000000E-02 0.  1.
          2   -1    0    0  501    0  0.00000000000E+00 -0.00000000000E+00 -0.34129665254E+03  0.34129665255E+03  0.25500000000E-02 0. -1.
         24    2    1    2    0    0 -0.35527136788E-14  0.35527136788E-14 -0.33652412914E+03  0.34606917862E+03  0.80717946563E+02 0.  0.
         66    2    3    3    0    0 -0.20436553497E+02 -0.22785693940E+02 -0.28098565145E+03  0.28265487238E+03  0.19999987152E+01 0.  0.
        -13    1    3    3    0    0  0.20436553497E+02  0.22785693940E+02 -0.55538477690E+02  0.63414306236E+02  0.10566000000E+00 0.  1.
         13    1    4    4    0    0 -0.12225158549E+02 -0.14582315033E+02 -0.17216785202E+03  0.17321627766E+03  0.10566000000E+00 0. -1.
        -13    1    4    4    0    0 -0.28590466663E+01 -0.23003758394E+01 -0.33741970660E+02  0.33941090509E+02  0.10566000000E+00 0.  1.
        -14    1    4    4    0    0 -0.53523482810E+01 -0.59030030680E+01 -0.75075828773E+02  0.75497504219E+02  0.00000000000E+00 0.  1.
<mgrwt>
<rscale>  0 0.80717947E+02</rscale>
<asrwt>0</asrwt>
<pdfrwt beam="1">  1        2 0.52507158E-01 0.80717947E+02</pdfrwt>
<pdfrwt beam="2">  1       -1 0.73423484E-03 0.80717947E+02</pdfrwt>
<totfact> 0.26090373E+05</totfact>
</mgrwt>
</event>
<event>
 8    1  0.2603554E-024  0.8104022E+02  0.7818608E-02  0.1326125E+00
         -1   -1    0    0    0  501 -0.00000000000E+00  0.00000000000E+00  0.18024898862E+02  0.18024899567E+02  0.50400000000E-02 0.  1.
          2   -1    0    0  501    0  0.00000000000E+00 -0.00000000000E+00 -0.91089503730E+02  0.91089503765E+02  0.25500000000E-02 0. -1.
         24    2    1    2    0    0  0.35527136788E-14 -0.35527136788E-14 -0.73064604867E+02  0.10911440333E+03  0.81040215511E+02 0.  0.
         66    2    3    3    0    0  0.18231263791E+02  0.29605973288E+02 -0.64506357444E+02  0.73307317486E+02  0.20000031227E+01 0.  0.
        -13    1    3    3    0    0 -0.18231263791E+02 -0.29605973288E+02 -0.85582474229E+01  0.35807085846E+02  0.10566000000E+00 0.  1.
         13    1    4    4    0    0  0.42520096314E+01  0.69988867528E+01 -0.14568383034E+02  0.16712658375E+02  0.10566000000E+00 0. -1.
        -13    1    4    4    0    0  0.60123583617E+01  0.10692054660E+02 -0.21700128144E+02  0.24927398810E+02  0.10566000000E+00 0.  1.
        -14    1    4    4    0    0  0.79668957983E+01  0.11915031876E+02 -0.28237846267E+02  0.31667260302E+02  0.00000000000E+00 0.  1.
<mgrwt>
<rscale>  0 0.81040216E+02</rscale>
<asrwt>0</asrwt>
<pdfrwt beam="1">  1        2 0.14013770E-01 0.81040216E+02</pdfrwt>
<pdfrwt beam="2">  1       -1 0.27730615E-02 0.81040216E+02</pdfrwt>
<totfact> 0.16687094E+05</totfact>
</mgrwt>
</event>
<event>
 8    1  0.2603554E-024  0.8549250E+02  0.7818608E-02  0.1314150E+00
          2   -1    0    0  501    0  0.00000000000E+00  0.00000000000E+00  0.95258672426E+02  0.95258672460E+02  0.25500000000E-02 0. -1.
         -1   -1    0    0    0  501 -0.00000000000E+00 -0.00000000000E+00 -0.19181894631E+02  0.19181895293E+02  0.50400000000E-02 0.  1.
         24    2    1    2    0    0 -0.35527136788E-14 -0.71054273576E-14  0.76076777796E+02  0.11444056775E+03  0.85492499250E+02 0.  0.
         66    2    3    3    0    0 -0.27651795948E+02 -0.32079939382E+02  0.30547150026E+02  0.52257752613E+02  0.20000008793E+01 0.  0.
        -13    1    3    3    0    0  0.27651795948E+02  0.32079939382E+02  0.45529627769E+02  0.62182815140E+02  0.10566000000E+00 0.  1.
         13    1    4    4    0    0 -0.13669169456E+01 -0.15447994753E+01  0.11653886601E+01  0.23715315979E+01  0.10566000000E+00 0. -1.
        -13    1    4    4    0    0 -0.11384707880E+02 -0.12955907704E+02  0.11734709871E+02  0.20861009029E+02  0.10566000000E+00 0.  1.
         14    1    4    4    0    0 -0.14900171122E+02 -0.17579232203E+02  0.17647051495E+02  0.29025211986E+02  0.00000000000E+00 0. -1.
<mgrwt>
<rscale>  0 0.85492499E+02</rscale>
<asrwt>0</asrwt>
<pdfrwt beam="1">  1        2 0.14655180E-01 0.85492499E+02</pdfrwt>
<pdfrwt beam="2">  1       -1 0.29510608E-02 0.85492499E+02</pdfrwt>
<totfact> 0.14624914E+05</totfact>
</mgrwt>
</event>
<event>
 8    1  0.2603554E-024  0.7899089E+02  0.7818608E-02  0.1331940E+00
          2   -1    0    0  501    0  0.00000000000E+00  0.00000000000E+00  0.75411790055E+03  0.75411790056E+03  0.25500000000E-02 0. -1.
         -1   -1    0    0    0  501 -0.00000000000E+00 -0.00000000000E+00 -0.20684933802E+01  0.20684995203E+01  0.50400000000E-02 0.  1.
         24    2    1    2    0    0 -0.17763568394E-14  0.35527136788E-14  0.75204940717E+03  0.75618640008E+03  0.78990890826E+02 0.  0.
         66    2    3    3    0    0 -0.12365403660E+02  0.28366317317E+02  0.61082206649E+03  0.61160865599E+03  0.20000005255E+01 0.  0.
        -13    1    3    3    0    0  0.12365403660E+02 -0.28366317317E+02  0.14122734068E+03  0.14457774409E+03  0.10566000000E+00 0.  1.
         13    1    4    4    0    0 -0.90742116877E+01  0.19321010373E+02  0.41434294655E+03  0.41489243338E+03  0.10566000000E+00 0. -1.
        -13    1    4    4    0    0 -0.48042419085E+00  0.94299285259E+00  0.25469531368E+02  0.25491728758E+02  0.10566000000E+00 0.  1.
         14    1    4    4    0    0 -0.28107677817E+01  0.81023140911E+01  0.17100958857E+03  0.17122449385E+03  0.00000000000E+00 0. -1.
<mgrwt>
<rscale>  0 0.78990891E+02</rscale>
<asrwt>0</asrwt>
<pdfrwt beam="1">  1        2 0.11601816E+00 0.78990891E+02</pdfrwt>
<pdfrwt beam="2">  1       -1 0.31823016E-03 0.78990891E+02</pdfrwt>
<totfact> 0.35129167E+05</totfact>
</mgrwt>
</event>
<event>
 8    1  0.2603554E-024  0.7278015E+02  0.7818608E-02  0.1350886E+00
          2   -1    0    0  501    0  0.00000000000E+00  0.00000000000E+00  0.10825413125E+03  0.10825413128E+03  0.25500000000E-02 0. -1.
         -1   -1    0    0    0  501 -0.00000000000E+00 -0.00000000000E+00 -0.12232674534E+02  0.12232675572E+02  0.50400000000E-02 0.  1.
         24    2    1    2    0    0  0.22204460493E-15 -0.17763568394E-14  0.96021456719E+02  0.12048680686E+03  0.72780151660E+02 0.  0.
         66    2    3    3    0    0  0.14196875577E+01 -0.10885344940E+02  0.10543597604E+03  0.10602476740E+03  0.20000030413E+01 0.  0.
        -13    1    3    3    0    0 -0.14196875577E+01  0.10885344940E+02 -0.94145193170E+01  0.14462039456E+02  0.10566000000E+00 0.  1.
         13    1    4    4    0    0  0.11187123795E+01 -0.73040981689E+01  0.70369415873E+02  0.70756393504E+02  0.10566000000E+00 0. -1.
        -13    1    4    4    0    0 -0.10760423021E+00 -0.21261994409E+00  0.57816530556E+01  0.57875264148E+01  0.10566000000E+00 0.  1.
        -14    1    4    4    0    0  0.40857940845E+00 -0.33686268269E+01  0.29284907108E+02  0.29480847480E+02  0.00000000000E+00 0.  1.
<mgrwt>
<rscale>  0 0.72780152E+02</rscale>
<asrwt>0</asrwt>
<pdfrwt beam="1">  1        2 0.16654482E-01 0.72780152E+02</pdfrwt>
<pdfrwt beam="2">  1       -1 0.18819500E-02 0.72780152E+02</pdfrwt>
<totfact> 0.23309064E+05</totfact>
</mgrwt>
</event>
<event>
 8    1  0.2603554E-024  0.7999092E+02  0.7818608E-02  0.1329077E+00
         -1   -1    0    0    0  501 -0.00000000000E+00  0.00000000000E+00  0.90701493278E+01  0.90701507281E+01  0.50400000000E-02 0.  1.
          2   -1    0    0  501    0  0.00000000000E+00 -0.00000000000E+00 -0.17636278207E+03  0.17636278209E+03  0.25500000000E-02 0. -1.
         24    2    1    2    0    0 -0.35527136788E-14  0.00000000000E+00 -0.16729263274E+03  0.18543293282E+03  0.79990922005E+02 0.  0.
         66    2    3    3    0    0 -0.27149984873E+02  0.39569131347E+01 -0.15107935472E+03  0.15356350564E+03  0.20000007465E+01 0.  0.
        -13    1    3    3    0    0  0.27149984873E+02 -0.39569131347E+01 -0.16213278026E+02  0.31869427176E+02  0.10566000000E+00 0.  1.
         13    1    4    4    0    0 -0.18567101233E+02  0.32079310605E+01 -0.10488774870E+03  0.10656678216E+03  0.10566000000E+00 0. -1.
        -13    1    4    4    0    0 -0.50635509391E+01  0.81723127211E+00 -0.26184375007E+02  0.26682205186E+02  0.10566000000E+00 0.  1.
         14    1    4    4    0    0 -0.35193327003E+01 -0.68249197982E-01 -0.20007231014E+02  0.20314518292E+02  0.00000000000E+00 0. -1.
<mgrwt>
<rscale>  0 0.79990922E+02</rscale>
<asrwt>0</asrwt>
<pdfrwt beam="1">  1        2 0.27132733E-01 0.79990922E+02</pdfrwt>
<pdfrwt beam="2">  1       -1 0.13954078E-02 0.79990922E+02</pdfrwt>
<totfact> 0.21134222E+05</totfact>
</mgrwt>
</event>
<event>
 8    1  0.2603554E-024  0.7957485E+02  0.7818608E-02  0.1330262E+00
          2   -1    0    0  501    0  0.00000000000E+00  0.00000000000E+00  0.11765765801E+02  0.11765766077E+02  0.25500000000E-02 0. -1.
         -1   -1    0    0    0  501 -0.00000000000E+00 -0.00000000000E+00 -0.13454621897E+03  0.13454621907E+03  0.50400000000E-02 0.  1.
         24    2    1    2    0    0  0.00000000000E+00 -0.17763568394E-14 -0.12278045317E+03  0.14631198515E+03  0.79574853540E+02 0.  0.
         66    2    3    3    0    0 -0.28310766461E+02 -0.10561078234E+02 -0.13907217582E+02  0.33323364201E+02  0.20000074195E+01 0.  0.
        -13    1    3    3    0    0  0.28310766461E+02  0.10561078234E+02 -0.10887323559E+03  0.11298862094E+03  0.10566000000E+00 0.  1.
         13    1    4    4    0    0 -0.22141120815E+02 -0.83197448214E+01 -0.10363979302E+02  0.25823838131E+02  0.10566000000E+00 0. -1.
        -13    1    4    4    0    0 -0.18650282396E+01 -0.50962203875E+00 -0.70636460029E+00  0.20611064847E+01  0.10566000000E+00 0.  1.
        -14    1    4    4    0    0 -0.43046174070E+01 -0.17317113739E+01 -0.28368736801E+01  0.54384195848E+01  0.00000000000E+00 0.  1.
<mgrwt>
<rscale>  0 0.79574854E+02</rscale>
<asrwt>0</asrwt>
<pdfrwt beam="1">  1        2 0.18101179E-02 0.79574854E+02</pdfrwt>
<pdfrwt beam="2">  1       -1 0.20699417E-01 0.79574854E+02</pdfrwt>
<totfact> 0.11231882E+05</totfact>
</mgrwt>
</event>
<event>
 8    1  0.2603554E-024  0.8047475E+02  0.7818608E-02  0.1327710E+00
          2   -1    0    0  501    0  0.00000000000E+00  0.00000000000E+00  0.16227909141E+03  0.16227909143E+03  0.25500000000E-02 0. -1.
         -1   -1    0    0    0  501 -0.00000000000E+00 -0.00000000000E+00 -0.99769245288E+01  0.99769258019E+01  0.50400000000E-02 0.  1.
         24    2    1    2    0    0  0.00000000000E+00  0.00000000000E+00  0.15230216688E+03  0.17225601723E+03  0.80474750299E+02 0.  0.
         66    2    3    3    0    0 -0.28835414903E+02  0.17475203403E+02  0.12310261167E+03  0.12765232820E+03  0.20000020975E+01 0.  0.
        -13    1    3    3    0    0  0.28835414903E+02 -0.17475203403E+02  0.29199555210E+02  0.44603689030E+02  0.10566000000E+00 0.  1.
         13    1    4    4    0    0 -0.15980523585E+02  0.98445206982E+01  0.68850013733E+02  0.71362646230E+02  0.10566000000E+00 0. -1.
        -13    1    4    4    0    0 -0.10624627911E+02  0.60445058018E+01  0.42533882612E+02  0.44255633571E+02  0.10566000000E+00 0.  1.
         14    1    4    4    0    0 -0.22302634074E+01  0.15861769027E+01  0.11718715321E+02  0.12034048397E+02  0.00000000000E+00 0. -1.
<mgrwt>
<rscale>  0 0.80474750E+02</rscale>
<asrwt>0</asrwt>
<pdfrwt beam="1">  1        2 0.24966014E-01 0.80474750E+02</pdfrwt>
<pdfrwt beam="2">  1       -1 0.15349115E-02 0.80474750E+02</pdfrwt>
<totfact> 0.20230504E+05</totfact>
</mgrwt>
</event>
<event>
 8    1  0.2603554E-024  0.8120176E+02  0.7818608E-02  0.1325675E+00
         -1   -1    0    0    0  501 -0.00000000000E+00  0.00000000000E+00  0.35895512277E+02  0.35895512631E+02  0.50400000000E-02 0.  1.
          2   -1    0    0  501    0  0.00000000000E+00 -0.00000000000E+00 -0.45923050891E+02  0.45923050962E+02  0.25500000000E-02 0. -1.
         24    2    1    2    0    0  0.17763568394E-14  0.71054273576E-14 -0.10027538614E+02  0.81818563593E+02  0.81201759943E+02 0.  0.
         66    2    3    3    0    0 -0.14037862608E+02 -0.34467754827E+02 -0.21305573758E+02  0.42930352653E+02  0.19999990915E+01 0.  0.
        -13    1    3    3    0    0  0.14037862608E+02  0.34467754827E+02  0.11278035144E+02  0.38888210940E+02  0.10566000000E+00 0.  1.
         13    1    4    4    0    0 -0.35190910892E+01 -0.88086253421E+01 -0.47770799157E+01  0.10621089354E+02  0.10566000000E+00 0. -1.
        -13    1    4    4    0    0 -0.10292100574E+01 -0.21269785256E+01 -0.10552111509E+01  0.25899701928E+01  0.10566000000E+00 0.  1.
         14    1    4    4    0    0 -0.94895614612E+01 -0.23532150959E+02 -0.15473282691E+02  0.29719293106E+02  0.00000000000E+00 0. -1.
<mgrwt>
<rscale>  0 0.81201760E+02</rscale>
<asrwt>0</asrwt>
<pdfrwt beam="1">  1        2 0.70650847E-02 0.81201760E+02</pdfrwt>
<pdfrwt beam="2">  1       -1 0.55223866E-02 0.81201760E+02</pdfrwt>
<totfact> 0.14082477E+05</totfact>
</mgrwt>
</event>
<event>
 8    1  0.2603554E-024  0.7958891E+02  0.7818608E-02  0.1330222E+00
          2   -1    0    0  501    0  0.00000000000E+00  0.00000000000E+00  0.19599350856E+03  0.19599350857E+03  0.25500000000E-02 0. -1.
         -1   -1    0    0    0  501 -0.00000000000E+00 -0.00000000000E+00 -0.80798511394E+01  0.80798527113E+01  0.50400000000E-02 0.  1.
         24    2    1    2    0    0  0.00000000000E+00  0.00000000000E+00  0.18791365742E+03  0.20407336128E+03  0.79588907154E+02 0.  0.
         66    2    3    3    0    0  0.13018679424E+02  0.35657667025E+02  0.12442384046E+03  0.13010091200E+03  0.19999993011E+01 0.  0.
        -13    1    3    3    0    0 -0.13018679424E+02 -0.35657667025E+02  0.63489816956E+02  0.73972449282E+02  0.10566000000E+00 0.  1.
         13    1    4    4    0    0  0.11080953729E+02  0.29971693039E+02  0.10570616441E+03  0.11043049523E+03  0.10566000000E+00 0. -1.
        -13    1    4    4    0    0  0.34226078716E+00  0.50209673292E+00  0.22158758253E+01  0.23001115808E+01  0.10566000000E+00 0.  1.
         14    1    4    4    0    0  0.15954649082E+01  0.51838772526E+01  0.16501800228E+02  0.17370305190E+02  0.00000000000E+00 0. -1.
<mgrwt>
<rscale>  0 0.79588907E+02</rscale>
<asrwt>0</asrwt>
<pdfrwt beam="1">  1        2 0.30152844E-01 0.79588907E+02</pdfrwt>
<pdfrwt beam="2">  1       -1 0.12430543E-02 0.79588907E+02</pdfrwt>
<totfact> 0.22204223E+05</totfact>
</mgrwt>
</event>
<event>
 8    1  0.2603554E-024  0.7985091E+02  0.7818608E-02  0.1329475E+00
         -1   -1    0    0    0  501 -0.00000000000E+00  0.00000000000E+00  0.31829938235E+03  0.31829938239E+03  0.50400000000E-02 0.  1.
          2   -1    0    0  501    0  0.00000000000E+00 -0.00000000000E+00 -0.50079951704E+01  0.50079958197E+01  0.25500000000E-02 0. -1.
         24    2    1    2    0    0 -0.22204460493E-15  0.00000000000E+00  0.31329138718E+03  0.32330737821E+03  0.79850908097E+02 0.  0.
         66    2    3    3    0    0  0.16420513767E+01 -0.38253872240E+02  0.11129830790E+03  0.11771732418E+03  0.19999992964E+01 0.  0.
        -13    1    3    3    0    0 -0.16420513767E+01  0.38253872240E+02  0.20199307928E+03  0.20559005403E+03  0.10566000000E+00 0.  1.
         13    1    4    4    0    0 -0.41055382307E-01 -0.31824478056E+01  0.89070799865E+01  0.94592228804E+01  0.10566000000E+00 0. -1.
        -13    1    4    4    0    0 -0.34905107112E+00 -0.72251577611E+01  0.21018675124E+02  0.22228823840E+02  0.10566000000E+00 0.  1.
         14    1    4    4    0    0  0.20321578302E+01 -0.27846266673E+02  0.81372552791E+02  0.86029277463E+02  0.00000000000E+00 0. -1.
<mgrwt>
<rscale>  0 0.79850908E+02</rscale>
<asrwt>0</asrwt>
<pdfrwt beam="1">  1        2 0.77046080E-03 0.79850908E+02</pdfrwt>
<pdfrwt beam="2">  1       -1 0.48969139E-01 0.79850908E+02</pdfrwt>
<totfact> 0.84739580E+04</totfact>
</mgrwt>
</event>
<event>
 8    1  0.2603554E-024  0.7989482E+02  0.7818608E-02  0.1329350E+00
         -1   -1    0    0    0  501 -0.00000000000E+00  0.00000000000E+00  0.12771811034E+01  0.12771910478E+01  0.50400000000E-02 0.  1.
          2   -1    0    0  501    0  0.00000000000E+00 -0.00000000000E+00 -0.12494620900E+04  0.12494620900E+04  0.25500000000E-02 0. -1.
         24    2    1    2    0    0  0.00000000000E+00  0.00000000000E+00 -0.12481849089E+04  0.12507392811E+04  0.79894820643E+02 0.  0.
         66    2    3    3    0    0  0.19604635551E+02 -0.13016776794E+02 -0.11293383363E+04  0.11295852584E+04  0.20000082972E+01 0.  0.
        -13    1    3    3    0    0 -0.19604635551E+02  0.13016776794E+02 -0.11884657266E+03  0.12115402268E+03  0.10566000000E+00 0.  1.
         13    1    4    4    0    0  0.13724337919E+02 -0.94894138591E+01 -0.76651602558E+03  0.76669761644E+03  0.10566000000E+00 0. -1.
        -13    1    4    4    0    0  0.57527090108E+01 -0.35066982456E+01 -0.35136080912E+03  0.35142541163E+03  0.10566000000E+00 0.  1.
         14    1    4    4    0    0  0.12758862144E+00 -0.20664689659E-01 -0.11461501582E+02  0.11462230341E+02  0.00000000000E+00 0. -1.
<mgrwt>
<rscale>  0 0.79894821E+02</rscale>
<asrwt>0</asrwt>
<pdfrwt beam="1">  1        2 0.19222396E+00 0.79894821E+02</pdfrwt>
<pdfrwt beam="2">  1       -1 0.19649117E-03 0.79894821E+02</pdfrwt>
<totfact> 0.34973282E+05</totfact>
</mgrwt>
</event>
<event>
 8    1  0.2603554E-024  0.7614313E+02  0.7818608E-02  0.1340367E+00
         -1   -1    0    0    0  501 -0.00000000000E+00  0.00000000000E+00  0.40497224291E+02  0.40497224605E+02  0.50400000000E-02 0.  1.
          2   -1    0    0  501    0  0.00000000000E+00 -0.00000000000E+00 -0.35791199383E+02  0.35791199474E+02  0.25500000000E-02 0. -1.
         24    2    1    2    0    0  0.00000000000E+00  0.83266726847E-16  0.47060249082E+01  0.76288424079E+02  0.76143134805E+02 0.  0.
         66    2    3    3    0    0  0.23635199286E+02 -0.17442446959E+00 -0.27514772955E+02  0.36327892949E+02  0.20000015494E+01 0.  0.
        -13    1    3    3    0    0 -0.23635199286E+02  0.17442446959E+00  0.32220797863E+02  0.39960531129E+02  0.10566000000E+00 0.  1.
         13    1    4    4    0    0  0.23371769321E+01 -0.20955005757E+00 -0.26199897554E+01  0.35187806969E+01  0.10566000000E+00 0. -1.
        -13    1    4    4    0    0  0.29215075127E+01  0.58408742534E+00 -0.32480127856E+01  0.44087543998E+01  0.10566000000E+00 0.  1.
         14    1    4    4    0    0  0.18376514841E+02 -0.54896183736E+00 -0.21646770414E+02  0.28400357853E+02  0.00000000000E+00 0. -1.
<mgrwt>
<rscale>  0 0.76143135E+02</rscale>
<asrwt>0</asrwt>
<pdfrwt beam="1">  1        2 0.55063384E-02 0.76143135E+02</pdfrwt>
<pdfrwt beam="2">  1       -1 0.62303422E-02 0.76143135E+02</pdfrwt>
<totfact> 0.15978915E+05</totfact>
</mgrwt>
</event>
<event>
 8    1  0.2603554E-024  0.8096238E+02  0.7818608E-02  0.1326342E+00
          2   -1    0    0  501    0  0.00000000000E+00  0.00000000000E+00  0.13064057999E+03  0.13064058002E+03  0.25500000000E-02 0. -1.
         -1   -1    0    0    0  501 -0.00000000000E+00 -0.00000000000E+00 -0.12543778626E+02  0.12543779639E+02  0.50400000000E-02 0.  1.
         24    2    1    2    0    0 -0.35527136788E-14  0.00000000000E+00  0.11809680137E+03  0.14318435966E+03  0.80962376183E+02 0.  0.
         66    2    3    3    0    0 -0.21133609318E+02  0.12186180334E+02  0.11616125791E+03  0.11871213200E+03  0.20000025757E+01 0.  0.
        -13    1    3    3    0    0  0.21133609318E+02 -0.12186180334E+02  0.19355434538E+01  0.24472227656E+02  0.10566000000E+00 0.  1.
         13    1    4    4    0    0 -0.16323500598E+02  0.99794816988E+01  0.90344168286E+02  0.92347856684E+02  0.10566000000E+00 0. -1.
        -13    1    4    4    0    0 -0.26431470456E+01  0.86708496149E+00  0.12590366703E+02  0.12894439126E+02  0.10566000000E+00 0.  1.
         14    1    4    4    0    0 -0.21669616746E+01  0.13396136733E+01  0.13226722924E+02  0.13469836191E+02  0.00000000000E+00 0. -1.
<mgrwt>
<rscale>  0 0.80962376E+02</rscale>
<asrwt>0</asrwt>
<pdfrwt beam="1">  1        2 0.20098550E-01 0.80962376E+02</pdfrwt>
<pdfrwt beam="2">  1       -1 0.19298122E-02 0.80962376E+02</pdfrwt>
<totfact> 0.18574546E+05</totfact>
</mgrwt>
</event>
<event>
 8    1  0.2603554E-024  0.7967903E+02  0.7818608E-02  0.1329965E+00
         -1   -1    0    0    0  501 -0.00000000000E+00  0.00000000000E+00  0.27053414432E+01  0.27053461379E+01  0.50400000000E-02 0.  1.
          2   -1    0    0  501    0  0.00000000000E+00 -0.00000000000E+00 -0.58668585855E+03  0.58668585856E+03  0.25500000000E-02 0. -1.
         24    2    1    2    0    0  0.00000000000E+00  0.00000000000E+00 -0.58398051711E+03  0.58939120470E+03  0.79679029924E+02 0.  0.
         66    2    3    3    0    0  0.20168648286E+02  0.16801182547E+02 -0.51360786717E+03  0.51428211648E+03  0.20000017447E+01 0.  0.
        -13    1    3    3    0    0 -0.20168648286E+02 -0.16801182547E+02 -0.70372649941E+02  0.75109088215E+02  0.10566000000E+00 0.  1.
         13    1    4    4    0    0  0.76116512611E+00  0.78573619864E+00 -0.22296075690E+02  0.22323147379E+02  0.10566000000E+00 0. -1.
        -13    1    4    4    0    0  0.42737665461E+01  0.45168321273E+01 -0.12219576909E+03  0.12235392924E+03  0.10566000000E+00 0.  1.
        -14    1    4    4    0    0  0.15133716613E+02  0.11498614221E+02 -0.36911602239E+03  0.36960503986E+03  0.00000000000E+00 0.  1.
<mgrwt>
<rscale>  0 0.79679030E+02</rscale>
<asrwt>0</asrwt>
<pdfrwt beam="1">  1        2 0.90259262E-01 0.79679030E+02</pdfrwt>
<pdfrwt beam="2">  1       -1 0.41620721E-03 0.79679030E+02</pdfrwt>
<totfact> 0.32297181E+05</totfact>
</mgrwt>
</event>
<event>
 8    1  0.2603554E-024  0.8693208E+02  0.7818608E-02  0.1310456E+00
         -1   -1    0    0    0  501 -0.00000000000E+00  0.00000000000E+00  0.32632311008E+01  0.32632349929E+01  0.50400000000E-02 0.  1.
          2   -1    0    0  501    0  0.00000000000E+00 -0.00000000000E+00 -0.57896464231E+03  0.57896464231E+03  0.25500000000E-02 0. -1.
         24    2    1    2    0    0 -0.88817841970E-15 -0.71054273576E-14 -0.57570141121E+03  0.58222787731E+03  0.86932078353E+02 0.  0.
         66    2    3    3    0    0  0.43297804686E+01  0.39947176502E+02 -0.39861644136E+03  0.40064147468E+03  0.20000002669E+01 0.  0.
        -13    1    3    3    0    0 -0.43297804686E+01 -0.39947176502E+02 -0.17708496984E+03  0.18158640262E+03  0.10566000000E+00 0.  1.
         13    1    4    4    0    0  0.57510107727E+00  0.48571735500E+01 -0.45320432342E+02  0.45583721084E+02  0.10566000000E+00 0.  1.
        -13    1    4    4    0    0  0.35049730192E+01  0.27185248861E+02 -0.27119895420E+03  0.27258064222E+03  0.10566000000E+00 0. -1.
        -14    1    4    4    0    0  0.24970637206E+00  0.79047540909E+01 -0.82097054823E+02  0.82477111377E+02  0.00000000000E+00 0.  1.
<mgrwt>
<rscale>  0 0.86932078E+02</rscale>
<asrwt>0</asrwt>
<pdfrwt beam="1">  1        2 0.89071402E-01 0.86932078E+02</pdfrwt>
<pdfrwt beam="2">  1       -1 0.50203631E-03 0.86932078E+02</pdfrwt>
<totfact> 0.25624370E+05</totfact>
</mgrwt>
</event>
<event>
 8    1  0.2603554E-024  0.8034752E+02  0.7818608E-02  0.1328068E+00
         -1   -1    0    0    0  501 -0.00000000000E+00  0.00000000000E+00  0.10142508813E+02  0.10142510065E+02  0.50400000000E-02 0.  1.
          2   -1    0    0  501    0  0.00000000000E+00 -0.00000000000E+00 -0.15912541088E+03  0.15912541090E+03  0.25500000000E-02 0. -1.
         24    2    1    2    0    0  0.00000000000E+00  0.35527136788E-14 -0.14898290207E+03  0.16926792096E+03  0.80347519933E+02 0.  0.
         66    2    3    3    0    0  0.25174306904E+02 -0.21709743310E+02 -0.12196706400E+03  0.12643189228E+03  0.20000007571E+01 0.  0.
        -13    1    3    3    0    0 -0.25174306904E+02  0.21709743310E+02 -0.27015838067E+02  0.42836028681E+02  0.10566000000E+00 0.  1.
         13    1    4    4    0    0  0.58795741123E+01 -0.50832279292E+01 -0.26949773023E+02  0.28048351609E+02  0.10566000000E+00 0. -1.
        -13    1    4    4    0    0  0.32867473218E+01 -0.36048340018E+01 -0.18433169599E+02  0.19068047662E+02  0.10566000000E+00 0.  1.
         14    1    4    4    0    0  0.16007985470E+02 -0.13021681379E+02 -0.76584121378E+02  0.79315493013E+02  0.00000000000E+00 0. -1.
<mgrwt>
<rscale>  0 0.80347520E+02</rscale>
<asrwt>0</asrwt>
<pdfrwt beam="1">  1        2 0.24480831E-01 0.80347520E+02</pdfrwt>
<pdfrwt beam="2">  1       -1 0.15603862E-02 0.80347520E+02</pdfrwt>
<totfact> 0.20184861E+05</totfact>
</mgrwt>
</event>
<event>
 8    1  0.2603554E-024  0.8019824E+02  0.7818608E-02  0.1328490E+00
          2   -1    0    0  501    0  0.00000000000E+00  0.00000000000E+00  0.12440041768E+03  0.12440041771E+03  0.25500000000E-02 0. -1.
         -1   -1    0    0    0  501 -0.00000000000E+00 -0.00000000000E+00 -0.12925513805E+02  0.12925514788E+02  0.50400000000E-02 0.  1.
         24    2    1    2    0    0  0.35527136788E-14  0.71054273576E-14  0.11147490388E+03  0.13732593250E+03  0.80198239018E+02 0.  0.
         66    2    3    3    0    0  0.22915101552E+02  0.30044419177E+02  0.32916060873E+02  0.50152129201E+02  0.19999992952E+01 0.  0.
        -13    1    3    3    0    0 -0.22915101552E+02 -0.30044419177E+02  0.78558843006E+02  0.87173803297E+02  0.10566000000E+00 0.  1.
         13    1    4    4    0    0  0.19836239988E+02  0.25478976756E+02  0.27341645510E+02  0.42311126393E+02  0.10566000000E+00 0. -1.
        -13    1    4    4    0    0  0.14985201789E+01  0.20475735747E+01  0.26735009080E+01  0.36873962916E+01  0.10566000000E+00 0.  1.
         14    1    4    4    0    0  0.15803413849E+01  0.25178688460E+01  0.29009144541E+01  0.41536065158E+01  0.00000000000E+00 0. -1.
<mgrwt>
<rscale>  0 0.80198239E+02</rscale>
<asrwt>0</asrwt>
<pdfrwt beam="1">  1        2 0.19138525E-01 0.80198239E+02</pdfrwt>
<pdfrwt beam="2">  1       -1 0.19885407E-02 0.80198239E+02</pdfrwt>
<totfact> 0.18766311E+05</totfact>
</mgrwt>
</event>
<event>
 8    1  0.2603554E-024  0.7886694E+02  0.7818608E-02  0.1332298E+00
         -1   -1    0    0    0  501 -0.00000000000E+00  0.00000000000E+00  0.25893394405E+01  0.25893443456E+01  0.50400000000E-02 0.  1.
          2   -1    0    0  501    0  0.00000000000E+00 -0.00000000000E+00 -0.60053808578E+03  0.60053808578E+03  0.25500000000E-02 0. -1.
         24    2    1    2    0    0  0.35527136788E-14  0.00000000000E+00 -0.59794874634E+03  0.60312743013E+03  0.78866936846E+02 0.  0.
         66    2    3    3    0    0  0.18179148324E+02  0.16198624985E+02 -0.53612667964E+03  0.53668304752E+03  0.19999976437E+01 0.  0.
        -13    1    3    3    0    0 -0.18179148324E+02 -0.16198624985E+02 -0.61822066693E+02  0.66444382602E+02  0.10566000000E+00 0.  1.
         13    1    4    4    0    0  0.32496821346E+01  0.22948111280E+01 -0.87592801674E+02  0.87683160648E+02  0.10566000000E+00 0. -1.
        -13    1    4    4    0    0  0.12265132533E+02  0.10773660640E+02 -0.35110091214E+03  0.35148025110E+03  0.10566000000E+00 0.  1.
        -14    1    4    4    0    0  0.26643336572E+01  0.31301532166E+01 -0.97432965828E+02  0.97519635781E+02  0.00000000000E+00 0.  1.
<mgrwt>
<rscale>  0 0.78866937E+02</rscale>
<asrwt>0</asrwt>
<pdfrwt beam="1">  1        2 0.92390364E-01 0.78866937E+02</pdfrwt>
<pdfrwt beam="2">  1       -1 0.39836077E-03 0.78866937E+02</pdfrwt>
<totfact> 0.33387255E+05</totfact>
</mgrwt>
</event>
<event>
 8    1  0.2603554E-024  0.7836993E+02  0.7818608E-02  0.1333742E+00
         -1   -1    0    0    0  501 -0.00000000000E+00  0.00000000000E+00  0.24774099045E+02  0.24774099557E+02  0.50400000000E-02 0.  1.
          2   -1    0    0  501    0  0.00000000000E+00 -0.00000000000E+00 -0.61978500824E+02  0.61978500877E+02  0.25500000000E-02 0. -1.
         24    2    1    2    0    0  0.00000000000E+00 -0.17763568394E-14 -0.37204401780E+02  0.86752600434E+02  0.78369931545E+02 0.  0.
         66    2    3    3    0    0  0.28313210182E+02  0.10682855302E+02 -0.46126157472E+02  0.55203113007E+02  0.20000035791E+01 0.  0.
        -13    1    3    3    0    0 -0.28313210182E+02 -0.10682855302E+02  0.89217556928E+01  0.31549487427E+02  0.10566000000E+00 0.  1.
         13    1    4    4    0    0  0.70618542534E+01  0.29403157253E+01 -0.11463350437E+02  0.13781683835E+02  0.10566000000E+00 0. -1.
        -13    1    4    4    0    0  0.30744456057E+00  0.28319147492E+00 -0.48704085173E+00  0.65045552972E+00  0.10566000000E+00 0.  1.
        -14    1    4    4    0    0  0.20943911368E+02  0.74593481023E+01 -0.34175766184E+02  0.40770973643E+02  0.00000000000E+00 0.  1.
<mgrwt>
<rscale>  0 0.78369932E+02</rscale>
<asrwt>0</asrwt>
<pdfrwt beam="1">  1        2 0.95351539E-02 0.78369932E+02</pdfrwt>
<pdfrwt beam="2">  1       -1 0.38113999E-02 0.78369932E+02</pdfrwt>
<totfact> 0.16585131E+05</totfact>
</mgrwt>
</event>
<event>
 8    1  0.2603554E-024  0.8110301E+02  0.7818608E-02  0.1325950E+00
          2   -1    0    0  501    0  0.00000000000E+00  0.00000000000E+00  0.28095584034E+02  0.28095584150E+02  0.25500000000E-02 0. -1.
         -1   -1    0    0    0  501 -0.00000000000E+00 -0.00000000000E+00 -0.58529649306E+02  0.58529649523E+02  0.50400000000E-02 0.  1.
         24    2    1    2    0    0  0.00000000000E+00  0.00000000000E+00 -0.30434065273E+02  0.86625233673E+02  0.81103013384E+02 0.  0.
         66    2    3    3    0    0  0.31357352371E+02  0.37762504804E+01  0.11897229399E+02  0.33809579857E+02  0.20000018223E+01 0.  0.
        -13    1    3    3    0    0 -0.31357352371E+02 -0.37762504804E+01 -0.42331294672E+02  0.52815653816E+02  0.10566000000E+00 0.  1.
         13    1    4    4    0    0  0.45313292683E+01  0.77660566025E+00  0.17669396046E+01  0.49263882197E+01  0.10566000000E+00 0. -1.
        -13    1    4    4    0    0  0.22639390548E+02  0.18986298952E+01  0.84586723051E+01  0.24242671079E+02  0.10566000000E+00 0.  1.
        -14    1    4    4    0    0  0.41866325553E+01  0.11010149249E+01  0.16716174897E+01  0.46405205580E+01  0.00000000000E+00 0.  1.
<mgrwt>
<rscale>  0 0.81103013E+02</rscale>
<asrwt>0</asrwt>
<pdfrwt beam="1">  1        2 0.43223976E-02 0.81103013E+02</pdfrwt>
<pdfrwt beam="2">  1       -1 0.90045615E-02 0.81103013E+02</pdfrwt>
<totfact> 0.12779975E+05</totfact>
</mgrwt>
</event>
<event>
 8    1  0.2603554E-024  0.8264515E+02  0.7818608E-02  0.1321708E+00
         -1   -1    0    0    0  501 -0.00000000000E+00  0.00000000000E+00  0.38406771301E+02  0.38406771631E+02  0.50400000000E-02 0.  1.
          2   -1    0    0  501    0  0.00000000000E+00 -0.00000000000E+00 -0.44459747028E+02  0.44459747101E+02  0.25500000000E-02 0. -1.
         24    2    1    2    0    0  0.00000000000E+00 -0.35527136788E-14 -0.60529757274E+01  0.82866518732E+02  0.82645153589E+02 0.  0.
         66    2    3    3    0    0 -0.18375969896E+02 -0.20084238817E+02 -0.34167798829E+02  0.43732040832E+02  0.19999999996E+01 0.  0.
        -13    1    3    3    0    0  0.18375969896E+02  0.20084238817E+02  0.28114823102E+02  0.39134477901E+02  0.10566000000E+00 0.  1.
         13    1    4    4    0    0 -0.10053319657E+02 -0.10556823636E+02 -0.19708984393E+02  0.24514709691E+02  0.10566000000E+00 0. -1.
        -13    1    4    4    0    0 -0.33690628010E+01 -0.36897074342E+01 -0.59808797584E+01  0.77940112796E+01  0.10566000000E+00 0.  1.
        -14    1    4    4    0    0 -0.49535874378E+01 -0.58377077467E+01 -0.84779346784E+01  0.11423319861E+02  0.00000000000E+00 0.  1.
<mgrwt>
<rscale>  0 0.82645154E+02</rscale>
<asrwt>0</asrwt>
<pdfrwt beam="1">  1        2 0.68399611E-02 0.82645154E+02</pdfrwt>
<pdfrwt beam="2">  1       -1 0.59087341E-02 0.82645154E+02</pdfrwt>
<totfact> 0.13321338E+05</totfact>
</mgrwt>
</event>
<event>
 8    1  0.2603554E-024  0.7964553E+02  0.7818608E-02  0.1330060E+00
          2   -1    0    0  501    0  0.00000000000E+00  0.00000000000E+00  0.35703184250E+03  0.35703184251E+03  0.25500000000E-02 0. -1.
         -1   -1    0    0    0  501 -0.00000000000E+00 -0.00000000000E+00 -0.44417668969E+01  0.44417697563E+01  0.50400000000E-02 0.  1.
         24    2    1    2    0    0 -0.17763568394E-14  0.17763568394E-14  0.35259007560E+03  0.36147361226E+03  0.79645533147E+02 0.  0.
         66    2    3    3    0    0 -0.15983847599E+02  0.12663042833E+02  0.33151553140E+03  0.33214813503E+03  0.20000011895E+01 0.  0.
        -13    1    3    3    0    0  0.15983847599E+02 -0.12663042833E+02  0.21074544203E+02  0.29325477238E+02  0.10566000000E+00 0.  1.
         13    1    4    4    0    0 -0.16975098433E+01  0.15733454914E+01  0.30025070122E+02  0.30114331398E+02  0.10566000000E+00 0.  1.
        -13    1    4    4    0    0 -0.37916618447E+01  0.24730427355E+01  0.77155610773E+02  0.77288369615E+02  0.10566000000E+00 0. -1.
         14    1    4    4    0    0 -0.10494675911E+02  0.86166546056E+01  0.22433485050E+03  0.22474543401E+03  0.00000000000E+00 0. -1.
<mgrwt>
<rscale>  0 0.79645533E+02</rscale>
<asrwt>0</asrwt>
<pdfrwt beam="1">  1        2 0.54927986E-01 0.79645533E+02</pdfrwt>
<pdfrwt beam="2">  1       -1 0.68334885E-03 0.79645533E+02</pdfrwt>
<totfact> 0.27458436E+05</totfact>
</mgrwt>
</event>
<event>
 8    1  0.2603554E-024  0.7723605E+02  0.7818608E-02  0.1337083E+00
         -1   -1    0    0    0  501 -0.00000000000E+00  0.00000000000E+00  0.33807717270E+03  0.33807717274E+03  0.50400000000E-02 0.  1.
          2   -1    0    0  501    0  0.00000000000E+00 -0.00000000000E+00 -0.44112760486E+01  0.44112767856E+01  0.25500000000E-02 0. -1.
         24    2    1    2    0    0  0.00000000000E+00  0.00000000000E+00  0.33366589665E+03  0.34248844952E+03  0.77236050317E+02 0.  0.
         66    2    3    3    0    0  0.36911554902E+02  0.63887516862E+01  0.12580618630E+03  0.13128014148E+03  0.20000008300E+01 0.  0.
        -13    1    3    3    0    0 -0.36911554902E+02 -0.63887516862E+01  0.20785971036E+03  0.21120830804E+03  0.10566000000E+00 0.  1.
         13    1    4    4    0    0  0.19955738096E+02  0.33093166697E+01  0.69094538107E+02  0.71994787450E+02  0.10566000000E+00 0. -1.
        -13    1    4    4    0    0  0.16188273438E+02  0.27353428540E+01  0.54494750774E+02  0.56914245347E+02  0.10566000000E+00 0.  1.
        -14    1    4    4    0    0  0.76754336808E+00  0.34409216260E+00  0.22168974156E+01  0.23711086836E+01  0.00000000000E+00 0.  1.
<mgrwt>
<rscale>  0 0.77236050E+02</rscale>
<asrwt>0</asrwt>
<pdfrwt beam="1">  1        2 0.67865788E-03 0.77236050E+02</pdfrwt>
<pdfrwt beam="2">  1       -1 0.52011875E-01 0.77236050E+02</pdfrwt>
<totfact> 0.89907355E+04</totfact>
</mgrwt>
</event>
<event>
 8    1  0.2603554E-024  0.8009123E+02  0.7818608E-02  0.1328793E+00
         -1   -1    0    0    0  501 -0.00000000000E+00  0.00000000000E+00  0.52299518631E+01  0.52299542916E+01  0.50400000000E-02 0.  1.
          2   -1    0    0  501    0  0.00000000000E+00 -0.00000000000E+00 -0.30662820575E+03  0.30662820576E+03  0.25500000000E-02 0. -1.
         24    2    1    2    0    0  0.00000000000E+00  0.00000000000E+00 -0.30139825389E+03  0.31185816005E+03  0.80091226393E+02 0.  0.
         66    2    3    3    0    0 -0.22822561210E+02 -0.16930899150E+02 -0.26052037978E+03  0.26207325871E+03  0.20000008089E+01 0.  0.
        -13    1    3    3    0    0  0.22822561210E+02  0.16930899150E+02 -0.40877874104E+02  0.49784901341E+02  0.10566000000E+00 0.  1.
         13    1    4    4    0    0 -0.18140704138E+02 -0.13116040962E+02 -0.20416641477E+03  0.20538999918E+03  0.10566000000E+00 0. -1.
        -13    1    4    4    0    0 -0.35045494059E+01 -0.27312273372E+01 -0.37785821508E+02  0.38046299957E+02  0.10566000000E+00 0.  1.
         14    1    4    4    0    0 -0.11773076660E+01 -0.10836308513E+01 -0.18568143502E+02  0.18636959577E+02  0.00000000000E+00 0. -1.
<mgrwt>
<rscale>  0 0.80091226E+02</rscale>
<asrwt>0</asrwt>
<pdfrwt beam="1">  1        2 0.47173556E-01 0.80091226E+02</pdfrwt>
<pdfrwt beam="2">  1       -1 0.80460841E-03 0.80091226E+02</pdfrwt>
<totfact> 0.25620263E+05</totfact>
</mgrwt>
</event>
<event>
 8    1  0.2603554E-024  0.7896556E+02  0.7818608E-02  0.1332013E+00
         -1   -1    0    0    0  501 -0.00000000000E+00  0.00000000000E+00  0.39870657550E+01  0.39870689405E+01  0.50400000000E-02 0.  1.
          2   -1    0    0  501    0  0.00000000000E+00 -0.00000000000E+00 -0.39098657200E+03  0.39098657201E+03  0.25500000000E-02 0. -1.
         24    2    1    2    0    0  0.35527136788E-14  0.00000000000E+00 -0.38699950625E+03  0.39497364095E+03  0.78965557115E+02 0.  0.
         66    2    3    3    0    0 -0.30296611143E+02  0.22462577262E+02 -0.25161753636E+03  0.25443631154E+03  0.20000002857E+01 0.  0.
        -13    1    3    3    0    0  0.30296611143E+02 -0.22462577262E+02 -0.13538196989E+03  0.14053732941E+03  0.10566000000E+00 0.  1.
         13    1    4    4    0    0 -0.10081037580E+01  0.76115324544E+00 -0.80742873778E+01  0.81731822533E+01  0.10566000000E+00 0.  1.
        -13    1    4    4    0    0 -0.14589262419E+02  0.11470930913E+02 -0.11882805369E+03  0.12026864239E+03  0.10566000000E+00 0.  1.
         14    1    4    4    0    0 -0.14699244966E+02  0.10230493103E+02 -0.12471519529E+03  0.12599448690E+03  0.00000000000E+00 0. -1.
<mgrwt>
<rscale>  0 0.78965557E+02</rscale>
<asrwt>0</asrwt>
<pdfrwt beam="1">  1        2 0.60151750E-01 0.78965557E+02</pdfrwt>
<pdfrwt beam="2">  1       -1 0.61339529E-03 0.78965557E+02</pdfrwt>
<totfact> 0.28997664E+05</totfact>
</mgrwt>
</event>
<event>
 8    1  0.2603554E-024  0.7768185E+02  0.7818608E-02  0.1335762E+00
          2   -1    0    0  501    0  0.00000000000E+00  0.00000000000E+00  0.13952185148E+03  0.13952185150E+03  0.25500000000E-02 0. -1.
         -1   -1    0    0    0  501 -0.00000000000E+00 -0.00000000000E+00 -0.10812767188E+02  0.10812768363E+02  0.50400000000E-02 0.  1.
         24    2    1    2    0    0  0.00000000000E+00  0.00000000000E+00  0.12870908429E+03  0.15033461986E+03  0.77681848273E+02 0.  0.
         66    2    3    3    0    0 -0.36282189392E+02 -0.13537728705E+02  0.59296980790E+02  0.70850541950E+02  0.19999995718E+01 0.  0.
        -13    1    3    3    0    0  0.36282189392E+02  0.13537728705E+02  0.69412103499E+02  0.79484077913E+02  0.10566000000E+00 0.  1.
         13    1    4    4    0    0 -0.10151763477E+02 -0.43798121598E+01  0.16773955750E+02  0.20090241706E+02  0.10566000000E+00 0. -1.
        -13    1    4    4    0    0 -0.15145056198E+02 -0.58461673664E+01  0.25639414258E+02  0.30347011841E+02  0.10566000000E+00 0.  1.
         14    1    4    4    0    0 -0.10985369717E+02 -0.33117491786E+01  0.16883610781E+02  0.20413288404E+02  0.00000000000E+00 0. -1.
<mgrwt>
<rscale>  0 0.77681848E+02</rscale>
<asrwt>0</asrwt>
<pdfrwt beam="1">  1        2 0.21464901E-01 0.77681848E+02</pdfrwt>
<pdfrwt beam="2">  1       -1 0.16635027E-02 0.77681848E+02</pdfrwt>
<totfact> 0.21161204E+05</totfact>
</mgrwt>
</event>
<event>
 8    1  0.2603554E-024  0.8045093E+02  0.7818608E-02  0.1327777E+00
         -1   -1    0    0    0  501 -0.00000000000E+00  0.00000000000E+00  0.44012961214E+01  0.44012990071E+01  0.50400000000E-02 0.  1.
          2   -1    0    0  501    0  0.00000000000E+00 -0.00000000000E+00 -0.36763882981E+03  0.36763882982E+03  0.25500000000E-02 0. -1.
         24    2    1    2    0    0  0.00000000000E+00  0.00000000000E+00 -0.36323753369E+03  0.37204012883E+03  0.80450926513E+02 0.  0.
         66    2    3    3    0    0  0.21646401413E+02  0.17701341872E+02 -0.31529435036E+03  0.31653819922E+03  0.19999998411E+01 0.  0.
        -13    1    3    3    0    0 -0.21646401413E+02 -0.17701341872E+02 -0.47943183336E+02  0.55501929612E+02  0.10566000000E+00 0.  1.
         13    1    4    4    0    0  0.59079985367E+01  0.41169837796E+01 -0.82144094527E+02  0.82459186461E+02  0.10566000000E+00 0. -1.
        -13    1    4    4    0    0  0.37010820788E+01  0.25579089221E+01 -0.52898880811E+02  0.53089958200E+02  0.10566000000E+00 0.  1.
        -14    1    4    4    0    0  0.12037320797E+02  0.11026449171E+02 -0.18025137502E+03  0.18098905456E+03  0.00000000000E+00 0.  1.
<mgrwt>
<rscale>  0 0.80450927E+02</rscale>
<asrwt>0</asrwt>
<pdfrwt beam="1">  1        2 0.56559796E-01 0.80450927E+02</pdfrwt>
<pdfrwt beam="2">  1       -1 0.67712299E-03 0.80450927E+02</pdfrwt>
<totfact> 0.27024740E+05</totfact>
</mgrwt>
</event>
<event>
 8    1  0.2603554E-024  0.8067883E+02  0.7818608E-02  0.1327136E+00
          2   -1    0    0  501    0  0.00000000000E+00  0.00000000000E+00  0.15279108693E+03  0.15279108695E+03  0.25500000000E-02 0. -1.
         -1   -1    0    0    0  501 -0.00000000000E+00 -0.00000000000E+00 -0.10650281997E+02  0.10650283190E+02  0.50400000000E-02 0.  1.
         24    2    1    2    0    0  0.00000000000E+00  0.44408920985E-15  0.14214080493E+03  0.16344137014E+03  0.80678826507E+02 0.  0.
         66    2    3    3    0    0 -0.19594817797E+02 -0.34008752731E+01  0.14215496916E+03  0.14355332846E+03  0.20000045408E+01 0.  0.
        -13    1    3    3    0    0  0.19594817797E+02  0.34008752731E+01 -0.14164230047E-01  0.19888041678E+02  0.10566000000E+00 0.  1.
         13    1    4    4    0    0 -0.15090149759E+02 -0.25549890628E+01  0.10655721144E+03  0.10765078292E+03  0.10566000000E+00 0. -1.
        -13    1    4    4    0    0 -0.20292845871E+01 -0.66825408788E+00  0.13961129693E+02  0.14124052740E+02  0.10566000000E+00 0.  1.
         14    1    4    4    0    0 -0.24753834501E+01 -0.17763212235E+00  0.21636628029E+02  0.21778492805E+02  0.00000000000E+00 0. -1.
<mgrwt>
<rscale>  0 0.80678827E+02</rscale>
<asrwt>0</asrwt>
<pdfrwt beam="1">  1        2 0.23506319E-01 0.80678827E+02</pdfrwt>
<pdfrwt beam="2">  1       -1 0.16385052E-02 0.80678827E+02</pdfrwt>
<totfact> 0.19702897E+05</totfact>
</mgrwt>
</event>
<event>
 8    1  0.2603554E-024  0.7911371E+02  0.7818608E-02  0.1331586E+00
         -1   -1    0    0    0  501 -0.00000000000E+00  0.00000000000E+00  0.92476459574E+01  0.92476473308E+01  0.50400000000E-02 0.  1.
          2   -1    0    0  501    0  0.00000000000E+00 -0.00000000000E+00 -0.16920466574E+03  0.16920466576E+03  0.25500000000E-02 0. -1.
         24    2    1    2    0    0  0.17763568394E-14  0.00000000000E+00 -0.15995701979E+03  0.17845231309E+03  0.79113714801E+02 0.  0.
         66    2    3    3    0    0  0.15603230495E+02  0.34840032358E+02 -0.56866389104E+02  0.68520616322E+02  0.19999987002E+01 0.  0.
        -13    1    3    3    0    0 -0.15603230495E+02 -0.34840032358E+02 -0.10309063068E+03  0.10993169677E+03  0.10566000000E+00 0.  1.
         13    1    4    4    0    0  0.10470336658E+02  0.21369124832E+02 -0.35397994952E+02  0.42653213906E+02  0.10566000000E+00 0. -1.
        -13    1    4    4    0    0  0.32747176075E+01  0.78953548528E+01 -0.12387126454E+02  0.15050331209E+02  0.10566000000E+00 0.  1.
         14    1    4    4    0    0  0.18581762299E+01  0.55755526730E+01 -0.90812676982E+01  0.10817071208E+02  0.00000000000E+00 0. -1.
<mgrwt>
<rscale>  0 0.79113715E+02</rscale>
<asrwt>0</asrwt>
<pdfrwt beam="1">  1        2 0.26031485E-01 0.79113715E+02</pdfrwt>
<pdfrwt beam="2">  1       -1 0.14227150E-02 0.79113715E+02</pdfrwt>
<totfact> 0.21459976E+05</totfact>
</mgrwt>
</event>
<event>
 8    1  0.2603554E-024  0.7876199E+02  0.7818608E-02  0.1332602E+00
          2   -1    0    0  501    0  0.00000000000E+00  0.00000000000E+00  0.51645889879E+02  0.51645889942E+02  0.25500000000E-02 0. -1.
         -1   -1    0    0    0  501 -0.00000000000E+00 -0.00000000000E+00 -0.30028774538E+02  0.30028774961E+02  0.50400000000E-02 0.  1.
         24    2    1    2    0    0  0.00000000000E+00  0.00000000000E+00  0.21617115340E+02  0.81674664903E+02  0.78761990905E+02 0.  0.
         66    2    3    3    0    0  0.15564965857E+02 -0.27138431872E+02  0.35575150326E+02  0.47416811041E+02  0.20000005003E+01 0.  0.
        -13    1    3    3    0    0 -0.15564965857E+02  0.27138431872E+02 -0.13958034985E+02  0.34257853862E+02  0.10566000000E+00 0.  1.
         13    1    4    4    0    0  0.12450812322E+02 -0.22370198057E+02  0.29102553400E+02  0.38761040582E+02  0.10566000000E+00 0. -1.
        -13    1    4    4    0    0  0.31417443854E+01 -0.47625502664E+01  0.63832890049E+01  0.85621250505E+01  0.10566000000E+00 0.  1.
         14    1    4    4    0    0 -0.27590850674E-01 -0.56835487411E-02  0.89307921025E-01  0.93645408457E-01  0.00000000000E+00 0. -1.
<mgrwt>
<rscale>  0 0.78761991E+02</rscale>
<asrwt>0</asrwt>
<pdfrwt beam="1">  1        2 0.79455215E-02 0.78761991E+02</pdfrwt>
<pdfrwt beam="2">  1       -1 0.46198116E-02 0.78761991E+02</pdfrwt>
<totfact> 0.15704542E+05</totfact>
</mgrwt>
</event>
<event>
 8    1  0.2603554E-024  0.7995971E+02  0.7818608E-02  0.1329166E+00
          2   -1    0    0  501    0  0.00000000000E+00  0.00000000000E+00  0.11012334018E+03  0.11012334020E+03  0.25500000000E-02 0. -1.
         -1   -1    0    0    0  501 -0.00000000000E+00 -0.00000000000E+00 -0.14514531949E+02  0.14514532824E+02  0.50400000000E-02 0.  1.
         24    2    1    2    0    0  0.00000000000E+00 -0.88817841970E-15  0.95608808227E+02  0.12463787303E+03  0.79959709746E+02 0.  0.
         66    2    3    3    0    0 -0.95926805394E+01  0.66924869606E+01  0.10738563434E+03  0.10803926769E+03  0.19999997100E+01 0.  0.
        -13    1    3    3    0    0  0.95926805394E+01 -0.66924869606E+01 -0.11776826117E+02  0.16598605335E+02  0.10566000000E+00 0.  1.
         13    1    4    4    0    0 -0.71085409392E+01  0.47319558424E+01  0.77086820741E+02  0.77558441555E+02  0.10566000000E+00 0. -1.
        -13    1    4    4    0    0 -0.11226040337E+01  0.15052087269E+01  0.18323150365E+02  0.18419416290E+02  0.10566000000E+00 0.  1.
        -14    1    4    4    0    0 -0.13615355665E+01  0.45532239132E+00  0.11975663237E+02  0.12061409849E+02  0.00000000000E+00 0.  1.
<mgrwt>
<rscale>  0 0.79959710E+02</rscale>
<asrwt>0</asrwt>
<pdfrwt beam="1">  1        2 0.16942052E-01 0.79959710E+02</pdfrwt>
<pdfrwt beam="2">  1       -1 0.22330050E-02 0.79959710E+02</pdfrwt>
<totfact> 0.18244242E+05</totfact>
</mgrwt>
</event>
<event>
 8    1  0.2603554E-024  0.8090542E+02  0.7818608E-02  0.1326501E+00
          2   -1    0    0  501    0  0.00000000000E+00  0.00000000000E+00  0.60142507987E+03  0.60142507987E+03  0.25500000000E-02 0. -1.
         -1   -1    0    0    0  501 -0.00000000000E+00 -0.00000000000E+00 -0.27209050330E+01  0.27209097008E+01  0.50400000000E-02 0.  1.
         24    2    1    2    0    0  0.00000000000E+00  0.00000000000E+00  0.59870417483E+03  0.60414598957E+03  0.80905424748E+02 0.  0.
         66    2    3    3    0    0 -0.21448752066E+02 -0.14164055108E+02  0.53255141936E+03  0.53317509665E+03  0.19999992230E+01 0.  0.
        -13    1    3    3    0    0  0.21448752066E+02  0.14164055108E+02  0.66152755471E+02  0.70970892926E+02  0.10566000000E+00 0.  1.
         13    1    4    4    0    0 -0.10516619696E+01 -0.67140480487E+00  0.20344875571E+02  0.20383373208E+02  0.10566000000E+00 0. -1.
        -13    1    4    4    0    0 -0.44523806799E+00 -0.36856145603E+00  0.93775521355E+01  0.93959418141E+01  0.10566000000E+00 0.  1.
         14    1    4    4    0    0 -0.19951852028E+02 -0.13124088847E+02  0.50282899166E+03  0.50339578162E+03  0.00000000000E+00 0. -1.
<mgrwt>
<rscale>  0 0.80905425E+02</rscale>
<asrwt>0</asrwt>
<pdfrwt beam="1">  1        2 0.92527085E-01 0.80905425E+02</pdfrwt>
<pdfrwt beam="2">  1       -1 0.41860046E-03 0.80905425E+02</pdfrwt>
<totfact> 0.31255391E+05</totfact>
</mgrwt>
</event>
<event>
 8    1  0.2603554E-024  0.8071378E+02  0.7818608E-02  0.1327038E+00
          2   -1    0    0  501    0  0.00000000000E+00  0.00000000000E+00  0.38617044906E+03  0.38617044907E+03  0.25500000000E-02 0. -1.
         -1   -1    0    0    0  501 -0.00000000000E+00 -0.00000000000E+00 -0.42175101554E+01  0.42175131668E+01  0.50400000000E-02 0.  1.
         24    2    1    2    0    0  0.71054273576E-14  0.00000000000E+00  0.38195293890E+03  0.39038796223E+03  0.80713775282E+02 0.  0.
         66    2    3    3    0    0  0.38735972239E+02 -0.35374257621E+01  0.24266366506E+03  0.24576949212E+03  0.19999975647E+01 0.  0.
        -13    1    3    3    0    0 -0.38735972239E+02  0.35374257621E+01  0.13928927385E+03  0.14461847012E+03  0.10566000000E+00 0.  1.
         13    1    4    4    0    0  0.27701892693E+02 -0.28341664628E+01  0.17539571981E+03  0.17759250280E+03  0.10566000000E+00 0. -1.
        -13    1    4    4    0    0  0.30323924976E+01 -0.28817202005E-01  0.20836033352E+02  0.21055823056E+02  0.10566000000E+00 0.  1.
         14    1    4    4    0    0  0.80016870484E+01 -0.67444209727E+00  0.46431911898E+02  0.47121166266E+02  0.00000000000E+00 0. -1.
<mgrwt>
<rscale>  0 0.80713775E+02</rscale>
<asrwt>0</asrwt>
<pdfrwt beam="1">  1        2 0.59410814E-01 0.80713775E+02</pdfrwt>
<pdfrwt beam="2">  1       -1 0.64884822E-03 0.80713775E+02</pdfrwt>
<totfact> 0.27266081E+05</totfact>
</mgrwt>
</event>
<event>
 8    1  0.2603554E-024  0.7962276E+02  0.7818608E-02  0.1330125E+00
         -1   -1    0    0    0  501 -0.00000000000E+00  0.00000000000E+00  0.32087718086E+01  0.32087757667E+01  0.50400000000E-02 0.  1.
          2   -1    0    0  501    0  0.00000000000E+00 -0.00000000000E+00 -0.49394129271E+03  0.49394129271E+03  0.25500000000E-02 0. -1.
         24    2    1    2    0    0  0.35527136788E-14  0.00000000000E+00 -0.49073252090E+03  0.49715006848E+03  0.79622757568E+02 0.  0.
         66    2    3    3    0    0  0.23943563437E+02  0.23860487619E+02 -0.37654027307E+03  0.37805977615E+03  0.19999995895E+01 0.  0.
        -13    1    3    3    0    0 -0.23943563437E+02 -0.23860487619E+02 -0.11419224782E+03  0.11909029233E+03  0.10566000000E+00 0.  1.
         13    1    4    4    0    0  0.11522782242E+02  0.10753537993E+02 -0.17497935775E+03  0.17568779096E+03  0.10566000000E+00 0. -1.
        -13    1    4    4    0    0  0.43614104337E+01  0.53513363031E+01 -0.73544012990E+02  0.73867392751E+02  0.10566000000E+00 0.  1.
        -14    1    4    4    0    0  0.80593707610E+01  0.77556133230E+01 -0.12801690234E+03  0.12850459245E+03  0.00000000000E+00 0.  1.
<mgrwt>
<rscale>  0 0.79622758E+02</rscale>
<asrwt>0</asrwt>
<pdfrwt beam="1">  1        2 0.75990908E-01 0.79622758E+02</pdfrwt>
<pdfrwt beam="2">  1       -1 0.49365790E-03 0.79622758E+02</pdfrwt>
<totfact> 0.30708789E+05</totfact>
</mgrwt>
</event>
<event>
 8    1  0.2603554E-024  0.8036733E+02  0.7818608E-02  0.1328012E+00
         -1   -1    0    0    0  501 -0.00000000000E+00  0.00000000000E+00  0.31851131123E+02  0.31851131522E+02  0.50400000000E-02 0.  1.
          2   -1    0    0  501    0  0.00000000000E+00 -0.00000000000E+00 -0.50696064584E+02  0.50696064648E+02  0.25500000000E-02 0. -1.
         24    2    1    2    0    0  0.00000000000E+00  0.17763568394E-14 -0.18844933461E+02  0.82547196169E+02  0.80367332159E+02 0.  0.
         66    2    3    3    0    0  0.35677614787E+02  0.10601906673E+02 -0.24918096395E+02  0.44835300247E+02  0.19999995654E+01 0.  0.
        -13    1    3    3    0    0 -0.35677614787E+02 -0.10601906673E+02  0.60731629341E+01  0.37711895923E+02  0.10566000000E+00 0.  1.
         13    1    4    4    0    0  0.19740700218E+02  0.64996274222E+01 -0.13975594025E+02  0.25045334777E+02  0.10566000000E+00 0. -1.
        -13    1    4    4    0    0  0.84850206517E+01  0.22387730306E+01 -0.64496992995E+01  0.10891164549E+02  0.10566000000E+00 0.  1.
         14    1    4    4    0    0  0.74518939182E+01  0.18635062201E+01 -0.44928030698E+01  0.88988009206E+01  0.00000000000E+00 0. -1.
<mgrwt>
<rscale>  0 0.80367332E+02</rscale>
<asrwt>0</asrwt>
<pdfrwt beam="1">  1        2 0.77993946E-02 0.80367332E+02</pdfrwt>
<pdfrwt beam="2">  1       -1 0.49001741E-02 0.80367332E+02</pdfrwt>
<totfact> 0.14801255E+05</totfact>
</mgrwt>
</event>
<event>
 8    1  0.2603554E-024  0.7860838E+02  0.7818608E-02  0.1333048E+00
         -1   -1    0    0    0  501 -0.00000000000E+00  0.00000000000E+00  0.83452333853E+01  0.83452349072E+01  0.50400000000E-02 0.  1.
          2   -1    0    0  501    0  0.00000000000E+00 -0.00000000000E+00 -0.18511394119E+03  0.18511394121E+03  0.25500000000E-02 0. -1.
         24    2    1    2    0    0  0.00000000000E+00 -0.31225022568E-16 -0.17676870781E+03  0.19345917612E+03  0.78608375916E+02 0.  0.
         66    2    3    3    0    0  0.24522252813E+02  0.12124693785E-01 -0.16395488961E+03  0.16579067180E+03  0.20000003038E+01 0.  0.
        -13    1    3    3    0    0 -0.24522252813E+02 -0.12124693785E-01 -0.12813818201E+02  0.27668504313E+02  0.10566000000E+00 0.  1.
         13    1    4    4    0    0  0.63401380338E+01 -0.69515369221E+00 -0.40780490018E+02  0.41276386943E+02  0.10566000000E+00 0. -1.
        -13    1    4    4    0    0  0.37387378201E+01  0.19507064193E+00 -0.23090004890E+02  0.23391787082E+02  0.10566000000E+00 0. -1.
         14    1    4    4    0    0  0.14443376959E+02  0.51220774406E+00 -0.10008439470E+03  0.10112249778E+03  0.00000000000E+00 0. -1.
<mgrwt>
<rscale>  0 0.78608376E+02</rscale>
<asrwt>0</asrwt>
<pdfrwt beam="1">  1        2 0.28479065E-01 0.78608376E+02</pdfrwt>
<pdfrwt beam="2">  1       -1 0.12838823E-02 0.78608376E+02</pdfrwt>
<totfact> 0.22496845E+05</totfact>
</mgrwt>
</event>
<event>
 8    1  0.2603554E-024  0.7781926E+02  0.7818608E-02  0.1335356E+00
          2   -1    0    0  501    0  0.00000000000E+00  0.00000000000E+00  0.21105764521E+01  0.21105779926E+01  0.25500000000E-02 0. -1.
         -1   -1    0    0    0  501 -0.00000000000E+00 -0.00000000000E+00 -0.71731998550E+03  0.71731998552E+03  0.50400000000E-02 0.  1.
         24    2    1    2    0    0  0.00000000000E+00 -0.71054273576E-14 -0.71520940905E+03  0.71943056351E+03  0.77819258041E+02 0.  0.
         66    2    3    3    0    0  0.62390566281E+01  0.34181539405E+02 -0.51920288979E+03  0.52036808533E+03  0.19999999692E+01 0.  0.
        -13    1    3    3    0    0 -0.62390566281E+01 -0.34181539405E+02 -0.19600651925E+03  0.19906247818E+03  0.10566000000E+00 0.  1.
         13    1    4    4    0    0  0.50749781505E+00  0.41363425412E+01 -0.65251569262E+02  0.65384595578E+02  0.10566000000E+00 0. -1.
        -13    1    4    4    0    0  0.20863009464E+01  0.84624300504E+01 -0.13769965127E+03  0.13797525321E+03  0.10566000000E+00 0.  1.
         14    1    4    4    0    0  0.36452578666E+01  0.21582766813E+02 -0.31625166926E+03  0.31700823655E+03  0.00000000000E+00 0. -1.
<mgrwt>
<rscale>  0 0.77819258E+02</rscale>
<asrwt>0</asrwt>
<pdfrwt beam="1">  1        2 0.32470476E-03 0.77819258E+02</pdfrwt>
<pdfrwt beam="2">  1       -1 0.11035673E+00 0.77819258E+02</pdfrwt>
<totfact> 0.54897884E+04</totfact>
</mgrwt>
</event>
<event>
 8    1  0.2603554E-024  0.7952152E+02  0.7818608E-02  0.1330415E+00
          2   -1    0    0  501    0  0.00000000000E+00  0.00000000000E+00  0.97902521203E+02  0.97902521236E+02  0.25500000000E-02 0. -1.
         -1   -1    0    0    0  501 -0.00000000000E+00 -0.00000000000E+00 -0.16147879496E+02  0.16147880282E+02  0.50400000000E-02 0.  1.
         24    2    1    2    0    0  0.35527136788E-14 -0.35527136788E-14  0.81754641707E+02  0.11405040152E+03  0.79521523160E+02 0.  0.
         66    2    3    3    0    0 -0.25452186092E+02  0.29668838188E+02  0.51131277863E+02  0.64393022273E+02  0.20000013056E+01 0.  0.
        -13    1    3    3    0    0  0.25452186092E+02 -0.29668838188E+02  0.30623363844E+02  0.49657379245E+02  0.10566000000E+00 0.  1.
         13    1    4    4    0    0 -0.12392558991E+02  0.13526541211E+02  0.23788505063E+02  0.30040755194E+02  0.10566000000E+00 0. -1.
        -13    1    4    4    0    0 -0.19829674008E+01  0.25532440704E+01  0.36229427596E+01  0.48567574853E+01  0.10566000000E+00 0.  1.
        -14    1    4    4    0    0 -0.11076659701E+02  0.13589052907E+02  0.23719830041E+02  0.29495509594E+02  0.00000000000E+00 0.  1.
<mgrwt>
<rscale>  0 0.79521523E+02</rscale>
<asrwt>0</asrwt>
<pdfrwt beam="1">  1        2 0.15061926E-01 0.79521523E+02</pdfrwt>
<pdfrwt beam="2">  1       -1 0.24842892E-02 0.79521523E+02</pdfrwt>
<totfact> 0.17906931E+05</totfact>
</mgrwt>
</event>
<event>
 8    1  0.2603554E-024  0.7952914E+02  0.7818608E-02  0.1330393E+00
          2   -1    0    0  501    0  0.00000000000E+00  0.00000000000E+00  0.51421123844E+03  0.51421123845E+03  0.25500000000E-02 0. -1.
         -1   -1    0    0    0  501 -0.00000000000E+00 -0.00000000000E+00 -0.30750395022E+01  0.30750436325E+01  0.50400000000E-02 0.  1.
         24    2    1    2    0    0  0.88817841970E-15  0.00000000000E+00  0.51113619894E+03  0.51728628208E+03  0.79529137820E+02 0.  0.
         66    2    3    3    0    0  0.58893802599E+01  0.25034262852E+02  0.45278211865E+03  0.45351631292E+03  0.19999994654E+01 0.  0.
        -13    1    3    3    0    0 -0.58893802599E+01 -0.25034262852E+02  0.58354080288E+02  0.63769969161E+02  0.10566000000E+00 0.  1.
         13    1    4    4    0    0  0.17771263896E+01  0.89292413973E+01  0.15896053579E+03  0.15922108099E+03  0.10566000000E+00 0. -1.
        -13    1    4    4    0    0 -0.93027851354E-01  0.59986973242E+00  0.91997138812E+01  0.92203252334E+01  0.10566000000E+00 0. -1.
        -14    1    4    4    0    0  0.42052817216E+01  0.15505151723E+02  0.28462186898E+03  0.28507490670E+03  0.00000000000E+00 0.  1.
<mgrwt>
<rscale>  0 0.79529138E+02</rscale>
<asrwt>0</asrwt>
<pdfrwt beam="1">  1        2 0.79109455E-01 0.79529138E+02</pdfrwt>
<pdfrwt beam="2">  1       -1 0.47308312E-03 0.79529138E+02</pdfrwt>
<totfact> 0.31198311E+05</totfact>
</mgrwt>
</event>
<event>
 8    1  0.2603554E-024  0.7985248E+02  0.7818608E-02  0.1329471E+00
          2   -1    0    0  501    0  0.00000000000E+00  0.00000000000E+00  0.12010420740E+04  0.12010420740E+04  0.25500000000E-02 0. -1.
         -1   -1    0    0    0  501 -0.00000000000E+00 -0.00000000000E+00 -0.13272632315E+01  0.13272728007E+01  0.50400000000E-02 0.  1.
         24    2    1    2    0    0 -0.17763568394E-14  0.00000000000E+00  0.11997148108E+04  0.12023693468E+04  0.79852482460E+02 0.  0.
         66    2    3    3    0    0  0.87606763679E+01  0.21609882145E+02  0.10877671856E+04  0.10880189275E+04  0.20000019401E+01 0.  0.
        -13    1    3    3    0    0 -0.87606763679E+01 -0.21609882145E+02  0.11194762514E+03  0.11435041931E+03  0.10566000000E+00 0.  1.
         13    1    4    4    0    0  0.37196583559E+01  0.86652194910E+01  0.44881052864E+03  0.44890959410E+03  0.10566000000E+00 0. -1.
        -13    1    4    4    0    0  0.34096665904E+01  0.93281184892E+01  0.42650763605E+03  0.42662326987E+03  0.10566000000E+00 0.  1.
        -14    1    4    4    0    0  0.16313514216E+01  0.36165441645E+01  0.21244902092E+03  0.21248606352E+03  0.00000000000E+00 0.  1.
<mgrwt>
<rscale>  0 0.79852482E+02</rscale>
<asrwt>0</asrwt>
<pdfrwt beam="1">  1        2 0.18477609E+00 0.79852482E+02</pdfrwt>
<pdfrwt beam="2">  1       -1 0.20419466E-03 0.79852482E+02</pdfrwt>
<totfact> 0.35202965E+05</totfact>
</mgrwt>
</event>
<event>
 8    1  0.2603554E-024  0.7800028E+02  0.7818608E-02  0.1334824E+00
          2   -1    0    0  501    0  0.00000000000E+00  0.00000000000E+00  0.54868369198E+01  0.54868375123E+01  0.25500000000E-02 0. -1.
         -1   -1    0    0    0  501 -0.00000000000E+00 -0.00000000000E+00 -0.27721087348E+03  0.27721087352E+03  0.50400000000E-02 0.  1.
         24    2    1    2    0    0  0.00000000000E+00  0.00000000000E+00 -0.27172403656E+03  0.28269771104E+03  0.78000280651E+02 0.  0.
         66    2    3    3    0    0  0.26709194497E+01  0.38876332717E+02 -0.13852145045E+03  0.14391210960E+03  0.19999996025E+01 0.  0.
        -13    1    3    3    0    0 -0.26709194497E+01 -0.38876332717E+02 -0.13320258611E+03  0.13878560144E+03  0.10566000000E+00 0.  1.
         13    1    4    4    0    0  0.18214494931E+01  0.26794578388E+02 -0.97243038002E+02  0.10088353044E+03  0.10566000000E+00 0. -1.
        -13    1    4    4    0    0  0.27082406568E+00  0.46339637990E+01 -0.17407789879E+02  0.18016361416E+02  0.10566000000E+00 0.  1.
         14    1    4    4    0    0  0.57864589093E+00  0.74477905293E+01 -0.23870622569E+02  0.25012217748E+02  0.00000000000E+00 0. -1.
<mgrwt>
<rscale>  0 0.78000281E+02</rscale>
<asrwt>0</asrwt>
<pdfrwt beam="1">  1        2 0.84412902E-03 0.78000281E+02</pdfrwt>
<pdfrwt beam="2">  1       -1 0.42647816E-01 0.78000281E+02</pdfrwt>
<totfact> 0.95128072E+04</totfact>
</mgrwt>
</event>
<event>
 8    1  0.2603554E-024  0.8413383E+02  0.7818608E-02  0.1317713E+00
          2   -1    0    0  501    0  0.00000000000E+00  0.00000000000E+00  0.10445060752E+03  0.10445060755E+03  0.25500000000E-02 0. -1.
         -1   -1    0    0    0  501 -0.00000000000E+00 -0.00000000000E+00 -0.16942222827E+02  0.16942223577E+02  0.50400000000E-02 0.  1.
         24    2    1    2    0    0  0.00000000000E+00  0.00000000000E+00  0.87508384695E+02  0.12139283113E+03  0.84133834205E+02 0.  0.
         66    2    3    3    0    0  0.36007442406E+02 -0.21191475875E+02  0.37010354587E+02  0.55851418518E+02  0.20000113594E+01 0.  0.
        -13    1    3    3    0    0 -0.36007442406E+02  0.21191475875E+02  0.50498030108E+02  0.65541412612E+02  0.10566000000E+00 0.  1.
         13    1    4    4    0    0  0.97256227692E+01 -0.51364791553E+01  0.10391385932E+02  0.15131530722E+02  0.10566000000E+00 0. -1.
        -13    1    4    4    0    0  0.15721785088E+02 -0.90911975383E+01  0.16003158935E+02  0.24206128541E+02  0.10566000000E+00 0. -1.
         14    1    4    4    0    0  0.10560034549E+02 -0.69637991819E+01  0.10615809720E+02  0.16513759255E+02  0.00000000000E+00 0. -1.
<mgrwt>
<rscale>  0 0.84133834E+02</rscale>
<asrwt>0</asrwt>
<pdfrwt beam="1">  1        2 0.16069324E-01 0.84133834E+02</pdfrwt>
<pdfrwt beam="2">  1       -1 0.26064959E-02 0.84133834E+02</pdfrwt>
<totfact> 0.15675428E+05</totfact>
</mgrwt>
</event>
<event>
 8    1  0.2603554E-024  0.7902812E+02  0.7818608E-02  0.1331832E+00
          2   -1    0    0  501    0  0.00000000000E+00  0.00000000000E+00  0.18723006234E+04  0.18723006234E+04  0.25500000000E-02 0. -1.
         -1   -1    0    0    0  501 -0.00000000000E+00 -0.00000000000E+00 -0.83391882541E+00  0.83393405553E+00  0.50400000000E-02 0.  1.
         24    2    1    2    0    0  0.35527136788E-14  0.00000000000E+00  0.18714667045E+04  0.18731345574E+04  0.79028121635E+02 0.  0.
         66    2    3    3    0    0 -0.13099205933E+02  0.24975018197E+01  0.18173136729E+04  0.18173636984E+04  0.20000001496E+01 0.  0.
        -13    1    3    3    0    0  0.13099205933E+02 -0.24975018197E+01  0.54153031642E+02  0.55770858981E+02  0.10566000000E+00 0.  1.
         13    1    4    4    0    0 -0.57486708273E+01  0.13539297927E+01  0.72808981532E+03  0.72811377592E+03  0.10566000000E+00 0. -1.
        -13    1    4    4    0    0 -0.59929111876E+01  0.10886865956E+01  0.94622185763E+03  0.94624146773E+03  0.10566000000E+00 0.  1.
        -14    1    4    4    0    0 -0.13576239181E+01  0.54885431500E-01  0.14300199993E+03  0.14300845478E+03  0.00000000000E+00 0.  1.
<mgrwt>
<rscale>  0 0.79028122E+02</rscale>
<asrwt>0</asrwt>
<pdfrwt beam="1">  1        2 0.28804692E+00 0.79028122E+02</pdfrwt>
<pdfrwt beam="2">  1       -1 0.12829608E-03 0.79028122E+02</pdfrwt>
<totfact> 0.30310077E+05</totfact>
</mgrwt>
</event>
<event>
 8    1  0.2603554E-024  0.7550311E+02  0.7818608E-02  0.1342320E+00
          2   -1    0    0  501    0  0.00000000000E+00  0.00000000000E+00  0.87841122713E+02  0.87841122750E+02  0.25500000000E-02 0. -1.
         -1   -1    0    0    0  501 -0.00000000000E+00 -0.00000000000E+00 -0.16224518306E+02  0.16224519088E+02  0.50400000000E-02 0.  1.
         24    2    1    2    0    0  0.00000000000E+00  0.00000000000E+00  0.71616604407E+02  0.10406564184E+03  0.75503111091E+02 0.  0.
         66    2    3    3    0    0  0.12046561868E+02 -0.25287993421E+02  0.70662896612E+02  0.76038458842E+02  0.20000003508E+01 0.  0.
        -13    1    3    3    0    0 -0.12046561868E+02  0.25287993421E+02  0.95370779584E+00  0.28027182996E+02  0.10566000000E+00 0.  1.
         13    1    4    4    0    0  0.10163379659E+02 -0.21509307169E+02  0.59908182176E+02  0.64458870892E+02  0.10566000000E+00 0. -1.
        -13    1    4    4    0    0  0.18758697623E+01 -0.37932310181E+01  0.10455060732E+02  0.11279492359E+02  0.10566000000E+00 0.  1.
        -14    1    4    4    0    0  0.73124463385E-02  0.14544765298E-01  0.29965370298E+00  0.30009559107E+00  0.00000000000E+00 0.  1.
<mgrwt>
<rscale>  0 0.75503111E+02</rscale>
<asrwt>0</asrwt>
<pdfrwt beam="1">  1        2 0.13514019E-01 0.75503111E+02</pdfrwt>
<pdfrwt beam="2">  1       -1 0.24960798E-02 0.75503111E+02</pdfrwt>
<totfact> 0.19977107E+05</totfact>
</mgrwt>
</event>
<event>
 8    1  0.2603554E-024  0.8066949E+02  0.7818608E-02  0.1327162E+00
         -1   -1    0    0    0  501 -0.00000000000E+00  0.00000000000E+00  0.32778614355E+01  0.32778653102E+01  0.50400000000E-02 0.  1.
          2   -1    0    0  501    0  0.00000000000E+00 -0.00000000000E+00 -0.49632689969E+03  0.49632689969E+03  0.25500000000E-02 0. -1.
         24    2    1    2    0    0 -0.88817841970E-15  0.00000000000E+00 -0.49304903825E+03  0.49960476500E+03  0.80669492956E+02 0.  0.
         66    2    3    3    0    0 -0.53801008473E+01 -0.21009939463E+02 -0.45711097034E+03  0.45762954695E+03  0.19999989646E+01 0.  0.
        -13    1    3    3    0    0  0.53801008473E+01  0.21009939463E+02 -0.35938067915E+02  0.41975218056E+02  0.10566000000E+00 0.  1.
         13    1    4    4    0    0 -0.11628326516E+01 -0.33037678945E+01 -0.74602854238E+02  0.74685099495E+02  0.10566000000E+00 0. -1.
        -13    1    4    4    0    0 -0.91243425602E+00 -0.28229035346E+01 -0.51616703349E+02  0.51701997536E+02  0.10566000000E+00 0.  1.
        -14    1    4    4    0    0 -0.33048339397E+01 -0.14883268034E+02 -0.33089141275E+03  0.33124244992E+03  0.00000000000E+00 0.  1.
<mgrwt>
<rscale>  0 0.80669493E+02</rscale>
<asrwt>0</asrwt>
<pdfrwt beam="1">  1        2 0.76357925E-01 0.80669493E+02</pdfrwt>
<pdfrwt beam="2">  1       -1 0.50428707E-03 0.80669493E+02</pdfrwt>
<totfact> 0.29726685E+05</totfact>
</mgrwt>
</event>
<event>
 8    1  0.2603554E-024  0.8120697E+02  0.7818608E-02  0.1325661E+00
         -1   -1    0    0    0  501 -0.00000000000E+00  0.00000000000E+00  0.75533618241E+01  0.75533635056E+01  0.50400000000E-02 0.  1.
          2   -1    0    0  501    0  0.00000000000E+00 -0.00000000000E+00 -0.21826607153E+03  0.21826607154E+03  0.25500000000E-02 0. -1.
         24    2    1    2    0    0  0.00000000000E+00  0.00000000000E+00 -0.21071270970E+03  0.22581943505E+03  0.81206965310E+02 0.  0.
         66    2    3    3    0    0  0.38892537843E+02  0.22370971847E+01 -0.13700422848E+03  0.14244926369E+03  0.20000003083E+01 0.  0.
        -13    1    3    3    0    0 -0.38892537843E+02 -0.22370971847E+01 -0.73708481228E+02  0.83370171361E+02  0.10566000000E+00 0.  1.
         13    1    4    4    0    0  0.74688394910E+00  0.25730658272E+00 -0.29557206543E+01  0.30612890966E+01  0.10566000000E+00 0.  1.
        -13    1    4    4    0    0  0.31865654992E+02  0.19967109648E+01 -0.11249421242E+03  0.11693744403E+03  0.10566000000E+00 0. -1.
        -14    1    4    4    0    0  0.62799989025E+01 -0.16920362794E-01 -0.21554295398E+02  0.22450530565E+02  0.00000000000E+00 0.  1.
<mgrwt>
<rscale>  0 0.81206965E+02</rscale>
<asrwt>0</asrwt>
<pdfrwt beam="1">  1        2 0.33579391E-01 0.81206965E+02</pdfrwt>
<pdfrwt beam="2">  1       -1 0.11620560E-02 0.81206965E+02</pdfrwt>
<totfact> 0.21863153E+05</totfact>
</mgrwt>
</event>
<event>
 8    1  0.2603554E-024  0.7321952E+02  0.7818608E-02  0.1349475E+00
          2   -1    0    0  501    0  0.00000000000E+00  0.00000000000E+00  0.77744626315E+02  0.77744626357E+02  0.25500000000E-02 0. -1.
         -1   -1    0    0    0  501 -0.00000000000E+00 -0.00000000000E+00 -0.17239449017E+02  0.17239449753E+02  0.50400000000E-02 0.  1.
         24    2    1    2    0    0 -0.71054273576E-14 -0.17763568394E-14  0.60505177299E+02  0.94984076111E+02  0.73219520858E+02 0.  0.
         66    2    3    3    0    0 -0.35871252296E+02  0.68352905366E+01  0.33117758036E+02  0.49338158047E+02  0.20000010301E+01 0.  0.
        -13    1    3    3    0    0  0.35871252296E+02 -0.68352905366E+01  0.27387419262E+02  0.45645918064E+02  0.10566000000E+00 0.  1.
         13    1    4    4    0    0 -0.20964374030E+02  0.47136021282E+01  0.19659172773E+02  0.29124169716E+02  0.10566000000E+00 0. -1.
        -13    1    4    4    0    0 -0.29028052465E+01  0.40193563014E+00  0.30768626745E+01  0.42504209795E+01  0.10566000000E+00 0.  1.
        -14    1    4    4    0    0 -0.12004073019E+02  0.17197527783E+01  0.10381722589E+02  0.15963567351E+02  0.00000000000E+00 0.  1.
<mgrwt>
<rscale>  0 0.73219521E+02</rscale>
<asrwt>0</asrwt>
<pdfrwt beam="1">  1        2 0.11960711E-01 0.73219521E+02</pdfrwt>
<pdfrwt beam="2">  1       -1 0.26522231E-02 0.73219521E+02</pdfrwt>
<totfact> 0.21016144E+05</totfact>
</mgrwt>
</event>
<event>
 8    1  0.2603554E-024  0.7958756E+02  0.7818608E-02  0.1330226E+00
          2   -1    0    0  501    0  0.00000000000E+00  0.00000000000E+00  0.14421464485E+02  0.14421464710E+02  0.25500000000E-02 0. -1.
         -1   -1    0    0    0  501 -0.00000000000E+00 -0.00000000000E+00 -0.10980472882E+03  0.10980472893E+03  0.50400000000E-02 0.  1.
         24    2    1    2    0    0  0.00000000000E+00  0.35527136788E-14 -0.95383264331E+02  0.12422619364E+03  0.79587562297E+02 0.  0.
         66    2    3    3    0    0  0.13866186872E+01  0.30918597469E+02 -0.87417296452E+01  0.32222666114E+02  0.19999983675E+01 0.  0.
        -13    1    3    3    0    0 -0.13866186872E+01 -0.30918597469E+02 -0.86641534686E+02  0.92003527528E+02  0.10566000000E+00 0.  1.
         13    1    4    4    0    0  0.12650621123E+01  0.25180124047E+02 -0.71399774932E+01  0.26203615625E+02  0.10566000000E+00 0. -1.
        -13    1    4    4    0    0  0.96268993041E-01  0.28877479364E+01 -0.37510599215E+00  0.29155144321E+01  0.10566000000E+00 0.  1.
        -14    1    4    4    0    0  0.25287581901E-01  0.28507254853E+01 -0.12266461599E+01  0.31035360568E+01  0.00000000000E+00 0.  1.
<mgrwt>
<rscale>  0 0.79587562E+02</rscale>
<asrwt>0</asrwt>
<pdfrwt beam="1">  1        2 0.22186869E-02 0.79587562E+02</pdfrwt>
<pdfrwt beam="2">  1       -1 0.16893035E-01 0.79587562E+02</pdfrwt>
<totfact> 0.11765332E+05</totfact>
</mgrwt>
</event>
<event>
 8    1  0.2603554E-024  0.8036884E+02  0.7818608E-02  0.1328008E+00
         -1   -1    0    0    0  501 -0.00000000000E+00  0.00000000000E+00  0.17532342444E+03  0.17532342451E+03  0.50400000000E-02 0.  1.
          2   -1    0    0  501    0  0.00000000000E+00 -0.00000000000E+00 -0.92103362181E+01  0.92103365711E+01  0.25500000000E-02 0. -1.
         24    2    1    2    0    0  0.00000000000E+00  0.00000000000E+00  0.16611308822E+03  0.18453376108E+03  0.80368842850E+02 0.  0.
         66    2    3    3    0    0 -0.19748788325E+02  0.26408730409E+02  0.30480509818E+02  0.44949939777E+02  0.19999812573E+01 0.  0.
        -13    1    3    3    0    0  0.19748788325E+02 -0.26408730409E+02  0.13563257840E+03  0.13958382131E+03  0.10566000000E+00 0.  1.
         13    1    4    4    0    0 -0.94489089447E+01  0.11718933587E+02  0.14362203193E+02  0.20806232943E+02  0.10566000000E+00 0. -1.
        -13    1    4    4    0    0 -0.76936983963E+01  0.11342441084E+02  0.12860068967E+02  0.18794587057E+02  0.10566000000E+00 0.  1.
        -14    1    4    4    0    0 -0.26061809837E+01  0.33473557383E+01  0.32582376579E+01  0.53491197775E+01  0.00000000000E+00 0.  1.
<mgrwt>
<rscale>  0 0.80368843E+02</rscale>
<asrwt>0</asrwt>
<pdfrwt beam="1">  1        2 0.14169749E-02 0.80368843E+02</pdfrwt>
<pdfrwt beam="2">  1       -1 0.26972834E-01 0.80368843E+02</pdfrwt>
<totfact> 0.10228493E+05</totfact>
</mgrwt>
</event>
<event>
 8    1  0.2603554E-024  0.8174221E+02  0.7818608E-02  0.1324179E+00
         -1   -1    0    0    0  501 -0.00000000000E+00  0.00000000000E+00  0.13328283800E+02  0.13328284753E+02  0.50400000000E-02 0.  1.
          2   -1    0    0  501    0  0.00000000000E+00 -0.00000000000E+00 -0.12533101285E+03  0.12533101287E+03  0.25500000000E-02 0. -1.
         24    2    1    2    0    0  0.00000000000E+00  0.00000000000E+00 -0.11200272905E+03  0.13865929762E+03  0.81742213720E+02 0.  0.
         66    2    3    3    0    0  0.10228394515E+02 -0.27919431947E+02 -0.10354111300E+03  0.10774449786E+03  0.20000004181E+01 0.  0.
        -13    1    3    3    0    0 -0.10228394515E+02  0.27919431947E+02 -0.84616160424E+01  0.30914799768E+02  0.10566000000E+00 0.  1.
         13    1    4    4    0    0  0.47382363131E+01 -0.11509382211E+02 -0.40983665242E+02  0.42832099446E+02  0.10566000000E+00 0. -1.
        -13    1    4    4    0    0  0.45031993817E+01 -0.13421711468E+02 -0.49888005503E+02  0.51857934788E+02  0.10566000000E+00 0.  1.
         14    1    4    4    0    0  0.98695882001E+00 -0.29883382681E+01 -0.12669442258E+02  0.13054463621E+02  0.00000000000E+00 0. -1.
<mgrwt>
<rscale>  0 0.81742214E+02</rscale>
<asrwt>0</asrwt>
<pdfrwt beam="1">  1        2 0.19281693E-01 0.81742214E+02</pdfrwt>
<pdfrwt beam="2">  1       -1 0.20505054E-02 0.81742214E+02</pdfrwt>
<totfact> 0.17876024E+05</totfact>
</mgrwt>
</event>
<event>
 8    1  0.2603554E-024  0.8054159E+02  0.7818608E-02  0.1327521E+00
         -1   -1    0    0    0  501 -0.00000000000E+00  0.00000000000E+00  0.16140919942E+03  0.16140919950E+03  0.50400000000E-02 0.  1.
          2   -1    0    0  501    0  0.00000000000E+00 -0.00000000000E+00 -0.10047362250E+02  0.10047362574E+02  0.25500000000E-02 0. -1.
         24    2    1    2    0    0  0.00000000000E+00  0.44408920985E-15  0.15136183717E+03  0.17145656207E+03  0.80541585075E+02 0.  0.
         66    2    3    3    0    0 -0.27015431211E+02  0.33508326384E+01  0.12624909514E+02  0.30074074252E+02  0.19999997497E+01 0.  0.
        -13    1    3    3    0    0  0.27015431211E+02 -0.33508326384E+01  0.13873692765E+03  0.14138248782E+03  0.10566000000E+00 0.  1.
         13    1    4    4    0    0 -0.34247853573E+01  0.53936449521E+00  0.10369631581E+01  0.36202935557E+01  0.10566000000E+00 0. -1.
        -13    1    4    4    0    0 -0.14387923959E+02  0.13085692873E+01  0.73845615129E+01  0.16225523789E+02  0.10566000000E+00 0.  1.
         14    1    4    4    0    0 -0.92027218946E+01  0.15028988560E+01  0.42033848430E+01  0.10228256908E+02  0.00000000000E+00 0. -1.
<mgrwt>
<rscale>  0 0.80541585E+02</rscale>
<asrwt>0</asrwt>
<pdfrwt beam="1">  1        2 0.15457481E-02 0.80541585E+02</pdfrwt>
<pdfrwt beam="2">  1       -1 0.24832184E-01 0.80541585E+02</pdfrwt>
<totfact> 0.10404297E+05</totfact>
</mgrwt>
</event>
<event>
 8    1  0.2603554E-024  0.7579902E+02  0.7818608E-02  0.1341414E+00
          2   -1    0    0  501    0  0.00000000000E+00  0.00000000000E+00  0.62756471150E+03  0.62756471151E+03  0.25500000000E-02 0. -1.
         -1   -1    0    0    0  501 -0.00000000000E+00 -0.00000000000E+00 -0.22888017534E+01  0.22888073025E+01  0.50400000000E-02 0.  1.
         24    2    1    2    0    0  0.00000000000E+00  0.00000000000E+00  0.62527590975E+03  0.62985351881E+03  0.75799022718E+02 0.  0.
         66    2    3    3    0    0 -0.14377940956E+02  0.24740018003E+02  0.51902061703E+03  0.51981265335E+03  0.20000002504E+01 0.  0.
        -13    1    3    3    0    0  0.14377940956E+02 -0.24740018003E+02  0.10625529272E+03  0.11004086546E+03  0.10566000000E+00 0.  1.
         13    1    4    4    0    0 -0.36552669873E+01  0.65789448777E+01  0.12878785861E+03  0.12900762451E+03  0.10566000000E+00 0.  1.
        -13    1    4    4    0    0 -0.51269580775E+01  0.10107661128E+02  0.21095557648E+03  0.21125983272E+03  0.10566000000E+00 0. -1.
         14    1    4    4    0    0 -0.55957158913E+01  0.80534119971E+01  0.17927718194E+03  0.17954519611E+03  0.00000000000E+00 0. -1.
<mgrwt>
<rscale>  0 0.75799023E+02</rscale>
<asrwt>0</asrwt>
<pdfrwt beam="1">  1        2 0.96548249E-01 0.75799023E+02</pdfrwt>
<pdfrwt beam="2">  1       -1 0.35212439E-03 0.75799023E+02</pdfrwt>
<totfact> 0.37449229E+05</totfact>
</mgrwt>
</event>
<event>
 8    1  0.2603554E-024  0.8094210E+02  0.7818608E-02  0.1326399E+00
          2   -1    0    0  501    0  0.00000000000E+00  0.00000000000E+00  0.25843383182E+02  0.25843383308E+02  0.25500000000E-02 0. -1.
         -1   -1    0    0    0  501 -0.00000000000E+00 -0.00000000000E+00 -0.63378154080E+02  0.63378154280E+02  0.50400000000E-02 0.  1.
         24    2    1    2    0    0  0.00000000000E+00  0.35527136788E-14 -0.37534770897E+02  0.89221537588E+02  0.80942101179E+02 0.  0.
         66    2    3    3    0    0 -0.20550981569E+02 -0.26354993960E+02  0.63323823540E+01  0.34073855421E+02  0.20000017175E+01 0.  0.
        -13    1    3    3    0    0  0.20550981569E+02  0.26354993960E+02 -0.43867153251E+02  0.55147682168E+02  0.10566000000E+00 0.  1.
         13    1    4    4    0    0 -0.12787840353E+02 -0.16718895716E+02  0.43202219540E+01  0.21487806231E+02  0.10566000000E+00 0. -1.
        -13    1    4    4    0    0 -0.74216546681E+01 -0.93774631233E+01  0.17581091983E+01  0.12088005817E+02  0.10566000000E+00 0.  1.
         14    1    4    4    0    0 -0.34148654759E+00 -0.25863512075E+00  0.25405120158E+00  0.49804337251E+00  0.00000000000E+00 0. -1.
<mgrwt>
<rscale>  0 0.80942101E+02</rscale>
<asrwt>0</asrwt>
<pdfrwt beam="1">  1        2 0.39759051E-02 0.80942101E+02</pdfrwt>
<pdfrwt beam="2">  1       -1 0.97504852E-02 0.80942101E+02</pdfrwt>
<totfact> 0.12639914E+05</totfact>
</mgrwt>
</event>
<event>
 8    1  0.2603554E-024  0.7999306E+02  0.7818608E-02  0.1329071E+00
         -1   -1    0    0    0  501 -0.00000000000E+00  0.00000000000E+00  0.15953954114E+01  0.15954033723E+01  0.50400000000E-02 0.  1.
          2   -1    0    0  501    0  0.00000000000E+00 -0.00000000000E+00 -0.10027096248E+04  0.10027096249E+04  0.25500000000E-02 0. -1.
         24    2    1    2    0    0 -0.17763568394E-14  0.00000000000E+00 -0.10011142294E+04  0.10043050282E+04  0.79993058041E+02 0.  0.
         66    2    3    3    0    0 -0.11357729432E+02  0.63379535543E+01 -0.97539623806E+03  0.97548500190E+03  0.20000065350E+01 0.  0.
        -13    1    3    3    0    0  0.11357729432E+02 -0.63379535543E+01 -0.25717991373E+02  0.28820026325E+02  0.10566000000E+00 0.  1.
         13    1    4    4    0    0 -0.24446040323E+01  0.20343338420E+01 -0.28354258508E+03  0.28356044033E+03  0.10566000000E+00 0. -1.
        -13    1    4    4    0    0 -0.98828434980E+00  0.40001980531E+00 -0.76043473887E+02  0.76051021075E+02  0.10566000000E+00 0. -1.
         14    1    4    4    0    0 -0.79248410501E+01  0.39035999070E+01 -0.61581017910E+03  0.61587354049E+03  0.00000000000E+00 0. -1.
<mgrwt>
<rscale>  0 0.79993058E+02</rscale>
<asrwt>0</asrwt>
<pdfrwt beam="1">  1        2 0.15426252E+00 0.79993058E+02</pdfrwt>
<pdfrwt beam="2">  1       -1 0.24544686E-03 0.79993058E+02</pdfrwt>
<totfact> 0.35243012E+05</totfact>
</mgrwt>
</event>
<event>
 8    1  0.2603554E-024  0.8381403E+02  0.7818608E-02  0.1318563E+00
         -1   -1    0    0    0  501 -0.00000000000E+00  0.00000000000E+00  0.13567866051E+03  0.13567866060E+03  0.50400000000E-02 0.  1.
          2   -1    0    0  501    0  0.00000000000E+00 -0.00000000000E+00 -0.12943802999E+02  0.12943803250E+02  0.25500000000E-02 0. -1.
         24    2    1    2    0    0  0.44408920985E-15  0.00000000000E+00  0.12273485751E+03  0.14862246385E+03  0.83814029336E+02 0.  0.
         66    2    3    3    0    0 -0.38650822468E+01 -0.38598437169E+02  0.33397717299E+02  0.51226806877E+02  0.20000023356E+01 0.  0.
        -13    1    3    3    0    0  0.38650822468E+01  0.38598437169E+02  0.89337140208E+02  0.97395656973E+02  0.10566000000E+00 0.  1.
         13    1    4    4    0    0 -0.34249379729E+00 -0.48965383204E+01  0.43563974201E+01  0.65637452755E+01  0.10566000000E+00 0. -1.
        -13    1    4    4    0    0 -0.22243107684E+01 -0.19904079445E+02  0.16025112341E+02  0.25650250028E+02  0.10566000000E+00 0.  1.
         14    1    4    4    0    0 -0.12982776811E+01 -0.13797819404E+02  0.13016207538E+02  0.19012811573E+02  0.00000000000E+00 0. -1.
<mgrwt>
<rscale>  0 0.83814029E+02</rscale>
<asrwt>0</asrwt>
<pdfrwt beam="1">  1        2 0.19913544E-02 0.83814029E+02</pdfrwt>
<pdfrwt beam="2">  1       -1 0.20873640E-01 0.83814029E+02</pdfrwt>
<totfact> 0.98346249E+04</totfact>
</mgrwt>
</event>
<event>
 8    1  0.2603554E-024  0.8095542E+02  0.7818608E-02  0.1326362E+00
          2   -1    0    0  501    0  0.00000000000E+00  0.00000000000E+00  0.86406289644E+02  0.86406289682E+02  0.25500000000E-02 0. -1.
         -1   -1    0    0    0  501 -0.00000000000E+00 -0.00000000000E+00 -0.18962103784E+02  0.18962104454E+02  0.50400000000E-02 0.  1.
         24    2    1    2    0    0 -0.11102230246E-15 -0.17763568394E-14  0.67444185860E+02  0.10536839414E+03  0.80955421539E+02 0.  0.
         66    2    3    3    0    0  0.61228059708E+00  0.15427426206E+02  0.82408800313E+02  0.83866505460E+02  0.20000005420E+01 0.  0.
        -13    1    3    3    0    0 -0.61228059708E+00 -0.15427426206E+02 -0.14964614453E+02  0.21501888676E+02  0.10566000000E+00 0.  1.
         13    1    4    4    0    0 -0.43283156184E-01  0.67923045175E+01  0.40634477848E+02  0.41198412931E+02  0.10566000000E+00 0. -1.
        -13    1    4    4    0    0  0.13259214521E+00  0.34015326587E+01  0.14956806585E+02  0.15339662068E+02  0.10566000000E+00 0.  1.
        -14    1    4    4    0    0  0.52297160806E+00  0.52335890298E+01  0.26817515881E+02  0.27328430461E+02  0.00000000000E+00 0.  1.
<mgrwt>
<rscale>  0 0.80955422E+02</rscale>
<asrwt>0</asrwt>
<pdfrwt beam="1">  1        2 0.13293275E-01 0.80955422E+02</pdfrwt>
<pdfrwt beam="2">  1       -1 0.29172468E-02 0.80955422E+02</pdfrwt>
<totfact> 0.16498773E+05</totfact>
</mgrwt>
</event>
<event>
 8    1  0.2603554E-024  0.7835013E+02  0.7818608E-02  0.1333800E+00
          2   -1    0    0  501    0  0.00000000000E+00  0.00000000000E+00  0.74795643136E+03  0.74795643136E+03  0.25500000000E-02 0. -1.
         -1   -1    0    0    0  501 -0.00000000000E+00 -0.00000000000E+00 -0.20518352832E+01  0.20518414732E+01  0.50400000000E-02 0.  1.
         24    2    1    2    0    0 -0.17763568394E-14  0.00000000000E+00  0.74590459608E+03  0.75000827284E+03  0.78350130034E+02 0.  0.
         66    2    3    3    0    0 -0.13519781625E+02  0.81615753286E+01  0.71611074442E+03  0.71628764759E+03  0.19999994235E+01 0.  0.
        -13    1    3    3    0    0  0.13519781625E+02 -0.81615753286E+01  0.29793851653E+02  0.33720625252E+02  0.10566000000E+00 0.  1.
         13    1    4    4    0    0 -0.40734760538E+01  0.22206710426E+01  0.20791359066E+03  0.20796537436E+03  0.10566000000E+00 0. -1.
        -13    1    4    4    0    0 -0.79075437206E+01  0.42016524929E+01  0.40196919415E+03  0.40206893357E+03  0.10566000000E+00 0.  1.
        -14    1    4    4    0    0 -0.15387618502E+01  0.17392517931E+01  0.10622795961E+03  0.10625333966E+03  0.00000000000E+00 0.  1.
<mgrwt>
<rscale>  0 0.78350130E+02</rscale>
<asrwt>0</asrwt>
<pdfrwt beam="1">  1        2 0.11507029E+00 0.78350130E+02</pdfrwt>
<pdfrwt beam="2">  1       -1 0.31566725E-03 0.78350130E+02</pdfrwt>
<totfact> 0.35820266E+05</totfact>
</mgrwt>
</event>
<event>
 8    1  0.2603554E-024  0.8147556E+02  0.7818608E-02  0.1324915E+00
         -1   -1    0    0    0  501 -0.00000000000E+00  0.00000000000E+00  0.24446626700E+02  0.24446627220E+02  0.50400000000E-02 0.  1.
          2   -1    0    0  501    0  0.00000000000E+00 -0.00000000000E+00 -0.67885312314E+02  0.67885312362E+02  0.25500000000E-02 0. -1.
         24    2    1    2    0    0  0.00000000000E+00  0.88817841970E-15 -0.43438685614E+02  0.92331939581E+02  0.81475564797E+02 0.  0.
         66    2    3    3    0    0  0.27529077801E+02 -0.64744832522E+01 -0.54923046579E+02  0.61808657176E+02  0.19999995888E+01 0.  0.
        -13    1    3    3    0    0 -0.27529077801E+02  0.64744832522E+01  0.11484360966E+02  0.30523282405E+02  0.10566000000E+00 0.  1.
         13    1    4    4    0    0  0.13817673056E+02 -0.39080114723E+01 -0.27970639869E+02  0.31441509204E+02  0.10566000000E+00 0. -1.
        -13    1    4    4    0    0  0.10106035721E+01 -0.46262487871E+00 -0.21762224611E+01  0.24459046577E+01  0.10566000000E+00 0.  1.
        -14    1    4    4    0    0  0.12700801173E+02 -0.21038469012E+01 -0.24776184250E+02  0.27921243314E+02  0.00000000000E+00 0.  1.
<mgrwt>
<rscale>  0 0.81475565E+02</rscale>
<asrwt>0</asrwt>
<pdfrwt beam="1">  1        2 0.10443894E-01 0.81475565E+02</pdfrwt>
<pdfrwt beam="2">  1       -1 0.37610196E-02 0.81475565E+02</pdfrwt>
<totfact> 0.15251457E+05</totfact>
</mgrwt>
</event>
<event>
 8    1  0.2603554E-024  0.7943124E+02  0.7818608E-02  0.1330673E+00
          2   -1    0    0  501    0  0.00000000000E+00  0.00000000000E+00  0.12953575312E+04  0.12953575312E+04  0.25500000000E-02 0. -1.
         -1   -1    0    0    0  501 -0.00000000000E+00 -0.00000000000E+00 -0.12176744723E+01  0.12176849026E+01  0.50400000000E-02 0.  1.
         24    2    1    2    0    0 -0.35527136788E-14  0.00000000000E+00  0.12941398567E+04  0.12965752161E+04  0.79431242258E+02 0.  0.
         66    2    3    3    0    0 -0.19283704994E+02  0.13170441198E+02  0.11713517260E+04  0.11715861846E+04  0.20000008855E+01 0.  0.
        -13    1    3    3    0    0  0.19283704994E+02 -0.13170441198E+02  0.12278813069E+03  0.12498903153E+03  0.10566000000E+00 0.  1.
         13    1    4    4    0    0 -0.83356964891E+01  0.52743831530E+01  0.49492855246E+03  0.49502685397E+03  0.10566000000E+00 0. -1.
        -13    1    4    4    0    0 -0.99645861607E+01  0.75600258397E+01  0.61247328790E+03  0.61260100108E+03  0.10566000000E+00 0.  1.
        -14    1    4    4    0    0 -0.98342234418E+00  0.33603220500E+00  0.63949885677E+02  0.63958329522E+02  0.00000000000E+00 0.  1.
<mgrwt>
<rscale>  0 0.79431242E+02</rscale>
<asrwt>0</asrwt>
<pdfrwt beam="1">  1        2 0.19928489E+00 0.79431242E+02</pdfrwt>
<pdfrwt beam="2">  1       -1 0.18733617E-03 0.79431242E+02</pdfrwt>
<totfact> 0.35288362E+05</totfact>
</mgrwt>
</event>
<event>
 8    1  0.2603554E-024  0.8905522E+02  0.7818608E-02  0.1305156E+00
         -1   -1    0    0    0  501 -0.00000000000E+00  0.00000000000E+00  0.17952529452E+02  0.17952530159E+02  0.50400000000E-02 0.  1.
          2   -1    0    0  501    0  0.00000000000E+00 -0.00000000000E+00 -0.11044170789E+03  0.11044170791E+03  0.25500000000E-02 0. -1.
         24    2    1    2    0    0 -0.35527136788E-14  0.00000000000E+00 -0.92489178433E+02  0.12839423807E+03  0.89055220192E+02 0.  0.
         66    2    3    3    0    0  0.27198140668E+02 -0.29337822570E+02 -0.74381959299E+02  0.84481492342E+02  0.19999975623E+01 0.  0.
        -13    1    3    3    0    0 -0.27198140668E+02  0.29337822570E+02 -0.18107219135E+02  0.43912745732E+02  0.10566000000E+00 0.  1.
         13    1    4    4    0    0  0.32035802567E+01 -0.32647687573E+01 -0.77536907486E+01  0.90029176249E+01  0.10566000000E+00 0. -1.
        -13    1    4    4    0    0  0.10784485109E+02 -0.10799123714E+02 -0.29455616443E+02  0.33174850356E+02  0.10566000000E+00 0.  1.
        -14    1    4    4    0    0  0.13210075302E+02 -0.15273930099E+02 -0.37172652107E+02  0.42303724361E+02  0.00000000000E+00 0.  1.
<mgrwt>
<rscale>  0 0.89055220E+02</rscale>
<asrwt>0</asrwt>
<pdfrwt beam="1">  1        2 0.16991032E-01 0.89055220E+02</pdfrwt>
<pdfrwt beam="2">  1       -1 0.27619277E-02 0.89055220E+02</pdfrwt>
<totfact> 0.13667277E+05</totfact>
</mgrwt>
</event>
<event>
 8    1  0.2603554E-024  0.8004826E+02  0.7818608E-02  0.1328915E+00
          2   -1    0    0  501    0  0.00000000000E+00  0.00000000000E+00  0.10409093145E+04  0.10409093145E+04  0.25500000000E-02 0. -1.
         -1   -1    0    0    0  501 -0.00000000000E+00 -0.00000000000E+00 -0.15389683417E+01  0.15389765945E+01  0.50400000000E-02 0.  1.
         24    2    1    2    0    0  0.35527136788E-14 -0.22204460493E-15  0.10393703461E+04  0.10424482911E+04  0.80048255064E+02 0.  0.
         66    2    3    3    0    0 -0.20134431426E+02  0.18553056708E+01  0.96945169737E+03  0.96966459718E+03  0.19999996516E+01 0.  0.
        -13    1    3    3    0    0  0.20134431426E+02 -0.18553056708E+01  0.69918648752E+02  0.72783693883E+02  0.10566000000E+00 0.  1.
         13    1    4    4    0    0 -0.13080533394E+02  0.79870028708E+00  0.62772165346E+03  0.62785844238E+03  0.10566000000E+00 0. -1.
        -13    1    4    4    0    0 -0.35533008571E+01  0.10158946947E+01  0.18644125075E+03  0.18647790522E+03  0.10566000000E+00 0.  1.
        -14    1    4    4    0    0 -0.35005971750E+01  0.40710688977E-01  0.15528879315E+03  0.15532824957E+03  0.00000000000E+00 0.  1.
<mgrwt>
<rscale>  0 0.80048255E+02</rscale>
<asrwt>0</asrwt>
<pdfrwt beam="1">  1        2 0.16014053E+00 0.80048255E+02</pdfrwt>
<pdfrwt beam="2">  1       -1 0.23676406E-03 0.80048255E+02</pdfrwt>
<totfact> 0.35214671E+05</totfact>
</mgrwt>
</event>
<event>
 8    1  0.2603554E-024  0.6970630E+02  0.7818608E-02  0.1361095E+00
          2   -1    0    0  501    0  0.00000000000E+00  0.00000000000E+00  0.31390375802E+02  0.31390375906E+02  0.25500000000E-02 0. -1.
         -1   -1    0    0    0  501 -0.00000000000E+00 -0.00000000000E+00 -0.38697909232E+02  0.38697909560E+02  0.50400000000E-02 0.  1.
         24    2    1    2    0    0  0.00000000000E+00  0.00000000000E+00 -0.73075334298E+01  0.70088285466E+02  0.69706296091E+02 0.  0.
         66    2    3    3    0    0  0.19000528371E+02  0.11528438624E+02  0.23300828776E+02  0.32262262989E+02  0.20000040053E+01 0.  0.
        -13    1    3    3    0    0 -0.19000528371E+02 -0.11528438624E+02 -0.30608362206E+02  0.37826022477E+02  0.10566000000E+00 0.  1.
         13    1    4    4    0    0  0.36182153498E+01  0.25351267499E+01  0.40294253222E+01  0.59804500180E+01  0.10566000000E+00 0.  1.
        -13    1    4    4    0    0  0.68609555316E+00  0.68172861929E+00  0.83003236531E+00  0.12789053059E+01  0.10566000000E+00 0.  1.
         14    1    4    4    0    0  0.14696217468E+02  0.83115832544E+01  0.18441371088E+02  0.25002907665E+02  0.00000000000E+00 0. -1.
<mgrwt>
<rscale>  0 0.69706296E+02</rscale>
<asrwt>0</asrwt>
<pdfrwt beam="1">  1        2 0.48292886E-02 0.69706296E+02</pdfrwt>
<pdfrwt beam="2">  1       -1 0.59535246E-02 0.69706296E+02</pdfrwt>
<totfact> 0.19859406E+05</totfact>
</mgrwt>
</event>
<event>
 8    1  0.2603554E-024  0.7303856E+02  0.7818608E-02  0.1350055E+00
         -1   -1    0    0    0  501 -0.00000000000E+00  0.00000000000E+00  0.26622436359E+02  0.26622436836E+02  0.50400000000E-02 0.  1.
          2   -1    0    0  501    0  0.00000000000E+00 -0.00000000000E+00 -0.50095260838E+02  0.50095260903E+02  0.25500000000E-02 0. -1.
         24    2    1    2    0    0  0.35527136788E-14  0.00000000000E+00 -0.23472824478E+02  0.76717697739E+02  0.73038562810E+02 0.  0.
         66    2    3    3    0    0  0.14416597722E+02 -0.33148518370E+02 -0.64943214352E+01  0.36780956640E+02  0.20000001016E+01 0.  0.
        -13    1    3    3    0    0 -0.14416597722E+02  0.33148518370E+02 -0.16978503043E+02  0.39936741099E+02  0.10566000000E+00 0.  1.
         13    1    4    4    0    0  0.12968507676E+02 -0.28770899952E+02 -0.57918037092E+01  0.32085869625E+02  0.10566000000E+00 0. -1.
        -13    1    4    4    0    0  0.17828141289E+00 -0.11107886741E+01 -0.28520151102E+00  0.11653924997E+01  0.10566000000E+00 0.  1.
        -14    1    4    4    0    0  0.12698086330E+01 -0.32668297446E+01 -0.41731621503E+00  0.35296945148E+01  0.00000000000E+00 0.  1.
<mgrwt>
<rscale>  0 0.73038563E+02</rscale>
<asrwt>0</asrwt>
<pdfrwt beam="1">  1        2 0.77069632E-02 0.73038563E+02</pdfrwt>
<pdfrwt beam="2">  1       -1 0.40957595E-02 0.73038563E+02</pdfrwt>
<totfact> 0.19148374E+05</totfact>
</mgrwt>
</event>
<event>
 8    1  0.2603554E-024  0.7643207E+02  0.7818608E-02  0.1339493E+00
          2   -1    0    0  501    0  0.00000000000E+00  0.00000000000E+00  0.56585611058E+02  0.56585611116E+02  0.25500000000E-02 0. -1.
         -1   -1    0    0    0  501 -0.00000000000E+00 -0.00000000000E+00 -0.25809835595E+02  0.25809836088E+02  0.50400000000E-02 0.  1.
         24    2    1    2    0    0 -0.22204460493E-15  0.00000000000E+00  0.30775775463E+02  0.82395447203E+02  0.76432070262E+02 0.  0.
         66    2    3    3    0    0  0.10010803251E+01  0.30275215518E+02  0.40469522827E+02  0.50590247338E+02  0.20000028556E+01 0.  0.
        -13    1    3    3    0    0 -0.10010803251E+01 -0.30275215518E+02 -0.96937473636E+01  0.31805199865E+02  0.10566000000E+00 0.  1.
         13    1    4    4    0    0  0.22886391891E+00  0.11340882512E+02  0.15765302810E+02  0.19422253514E+02  0.10566000000E+00 0. -1.
        -13    1    4    4    0    0  0.10306772018E+00  0.12233821715E+02  0.15012518094E+02  0.19366566042E+02  0.10566000000E+00 0.  1.
        -14    1    4    4    0    0  0.66914868601E+00  0.67005112906E+01  0.96917019229E+01  0.11801427782E+02  0.00000000000E+00 0.  1.
<mgrwt>
<rscale>  0 0.76432070E+02</rscale>
<asrwt>0</asrwt>
<pdfrwt beam="1">  1        2 0.87054786E-02 0.76432070E+02</pdfrwt>
<pdfrwt beam="2">  1       -1 0.39707440E-02 0.76432070E+02</pdfrwt>
<totfact> 0.17386716E+05</totfact>
</mgrwt>
</event>
<event>
 8    1  0.2603554E-024  0.7925143E+02  0.7818608E-02  0.1331189E+00
         -1   -1    0    0    0  501 -0.00000000000E+00  0.00000000000E+00  0.37143296663E+01  0.37143330857E+01  0.50400000000E-02 0.  1.
          2   -1    0    0  501    0  0.00000000000E+00 -0.00000000000E+00 -0.42274018354E+03  0.42274018354E+03  0.25500000000E-02 0. -1.
         24    2    1    2    0    0  0.17763568394E-14 -0.35527136788E-14 -0.41902585387E+03  0.42645451663E+03  0.79251426122E+02 0.  0.
         66    2    3    3    0    0 -0.10313342633E+02 -0.24187905641E+02 -0.36898020612E+03  0.36992135965E+03  0.19999998279E+01 0.  0.
        -13    1    3    3    0    0  0.10313342633E+02  0.24187905641E+02 -0.50045647744E+02  0.56533156977E+02  0.10566000000E+00 0.  1.
         13    1    4    4    0    0 -0.10066256445E+01 -0.37105856456E+01 -0.56296926985E+02  0.56428156917E+02  0.10566000000E+00 0. -1.
        -13    1    4    4    0    0 -0.13766275483E+01 -0.40476841498E+01 -0.59038540504E+02  0.59193236770E+02  0.10566000000E+00 0.  1.
         14    1    4    4    0    0 -0.79300894399E+01 -0.16429635846E+02 -0.25364473864E+03  0.25429996597E+03  0.00000000000E+00 0. -1.
<mgrwt>
<rscale>  0 0.79251426E+02</rscale>
<asrwt>0</asrwt>
<pdfrwt beam="1">  1        2 0.65036913E-01 0.79251426E+02</pdfrwt>
<pdfrwt beam="2">  1       -1 0.57143593E-03 0.79251426E+02</pdfrwt>
<totfact> 0.29515711E+05</totfact>
</mgrwt>
</event>
<event>
 8    1  0.2603554E-024  0.8053876E+02  0.7818608E-02  0.1327529E+00
         -1   -1    0    0    0  501 -0.00000000000E+00  0.00000000000E+00  0.23042107670E+01  0.23042162790E+01  0.50400000000E-02 0.  1.
          2   -1    0    0  501    0  0.00000000000E+00 -0.00000000000E+00 -0.70376421901E+03  0.70376421902E+03  0.25500000000E-02 0. -1.
         24    2    1    2    0    0 -0.35527136788E-14  0.00000000000E+00 -0.70146000825E+03  0.70606843530E+03  0.80538761809E+02 0.  0.
         66    2    3    3    0    0  0.23515866349E+02  0.27731375082E+02 -0.50218097760E+03  0.50349951282E+03  0.20000031385E+01 0.  0.
        -13    1    3    3    0    0 -0.23515866349E+02 -0.27731375082E+02 -0.19927903064E+03  0.20256892247E+03  0.10566000000E+00 0.  1.
         13    1    4    4    0    0  0.42599752382E+00  0.48013955739E+00 -0.92797729038E+01  0.93025457304E+01  0.10566000000E+00 0. -1.
        -13    1    4    4    0    0  0.14920108518E+02  0.17653284974E+02 -0.33069207889E+03  0.33149888433E+03  0.10566000000E+00 0.  1.
        -14    1    4    4    0    0  0.81697603078E+01  0.95979505506E+01 -0.16220912581E+03  0.16269808276E+03  0.00000000000E+00 0.  1.
<mgrwt>
<rscale>  0 0.80538762E+02</rscale>
<asrwt>0</asrwt>
<pdfrwt beam="1">  1        2 0.10827125E+00 0.80538762E+02</pdfrwt>
<pdfrwt beam="2">  1       -1 0.35449495E-03 0.80538762E+02</pdfrwt>
<totfact> 0.32913114E+05</totfact>
</mgrwt>
</event>
<event>
 8    1  0.2603554E-024  0.7887537E+02  0.7818608E-02  0.1332274E+00
          2   -1    0    0  501    0  0.00000000000E+00  0.00000000000E+00  0.50788704171E+02  0.50788704235E+02  0.25500000000E-02 0. -1.
         -1   -1    0    0    0  501 -0.00000000000E+00 -0.00000000000E+00 -0.30623560061E+02  0.30623560475E+02  0.50400000000E-02 0.  1.
         24    2    1    2    0    0 -0.35527136788E-14  0.00000000000E+00  0.20165144110E+02  0.81412264710E+02  0.78875368831E+02 0.  0.
         66    2    3    3    0    0 -0.21205989079E+02  0.80545929988E+01  0.43355383703E+02  0.48972030161E+02  0.20000002113E+01 0.  0.
        -13    1    3    3    0    0  0.21205989079E+02 -0.80545929988E+01 -0.23190239593E+02  0.32440234549E+02  0.10566000000E+00 0.  1.
         13    1    4    4    0    0 -0.17909782765E+01  0.74178339909E+00  0.46685078701E+01  0.50560830261E+01  0.10566000000E+00 0. -1.
        -13    1    4    4    0    0 -0.17855472492E+02  0.68736767849E+01  0.36252442226E+02  0.40991658443E+02  0.10566000000E+00 0.  1.
        -14    1    4    4    0    0 -0.15595383104E+01  0.43913281481E+00  0.24344336065E+01  0.29242886922E+01  0.00000000000E+00 0.  1.
<mgrwt>
<rscale>  0 0.78875369E+02</rscale>
<asrwt>0</asrwt>
<pdfrwt beam="1">  1        2 0.78136467E-02 0.78875369E+02</pdfrwt>
<pdfrwt beam="2">  1       -1 0.47113171E-02 0.78875369E+02</pdfrwt>
<totfact> 0.15586064E+05</totfact>
</mgrwt>
</event>
<event>
 8    1  0.2603554E-024  0.7066316E+02  0.7818608E-02  0.1357852E+00
          2   -1    0    0  501    0  0.00000000000E+00  0.00000000000E+00  0.21847402699E+02  0.21847402848E+02  0.25500000000E-02 0. -1.
         -1   -1    0    0    0  501 -0.00000000000E+00 -0.00000000000E+00 -0.57138165893E+02  0.57138166115E+02  0.50400000000E-02 0.  1.
         24    2    1    2    0    0  0.35527136788E-14 -0.17763568394E-14 -0.35290763194E+02  0.78985568963E+02  0.70663159691E+02 0.  0.
         66    2    3    3    0    0  0.28027334972E+02 -0.77595721312E+01  0.47120523660E+01  0.29528730385E+02  0.20000038397E+01 0.  0.
        -13    1    3    3    0    0 -0.28027334972E+02  0.77595721312E+01 -0.40002815560E+02  0.49456838578E+02  0.10566000000E+00 0.  1.
         13    1    4    4    0    0  0.19956288254E+02 -0.57702247646E+01  0.33064415619E+01  0.21035509372E+02  0.10566000000E+00 0. -1.
        -13    1    4    4    0    0  0.16963394927E+01 -0.23033713615E-01  0.40681528087E+00  0.17477874398E+01  0.10566000000E+00 0.  1.
        -14    1    4    4    0    0  0.63747072253E+01 -0.19663136530E+01  0.99879552329E+00  0.67454335730E+01  0.00000000000E+00 0.  1.
<mgrwt>
<rscale>  0 0.70663160E+02</rscale>
<asrwt>0</asrwt>
<pdfrwt beam="1">  1        2 0.33611389E-02 0.70663160E+02</pdfrwt>
<pdfrwt beam="2">  1       -1 0.87904870E-02 0.70663160E+02</pdfrwt>
<totfact> 0.17930749E+05</totfact>
</mgrwt>
</event>
<event>
 8    1  0.2603554E-024  0.7782565E+02  0.7818608E-02  0.1335338E+00
         -1   -1    0    0    0  501 -0.00000000000E+00  0.00000000000E+00  0.38206200387E+03  0.38206200390E+03  0.50400000000E-02 0.  1.
          2   -1    0    0  501    0  0.00000000000E+00 -0.00000000000E+00 -0.39632511085E+01  0.39632519288E+01  0.25500000000E-02 0. -1.
         24    2    1    2    0    0  0.88817841970E-15  0.00000000000E+00  0.37809875276E+03  0.38602525583E+03  0.77825646803E+02 0.  0.
         66    2    3    3    0    0 -0.42999677556E+01 -0.38608649511E+02  0.18046131840E+03  0.18460608057E+03  0.20000009010E+01 0.  0.
        -13    1    3    3    0    0  0.42999677556E+01  0.38608649511E+02  0.19763743436E+03  0.20141917526E+03  0.10566000000E+00 0.  1.
         13    1    4    4    0    0 -0.93315318192E+00 -0.14985125681E+02  0.70240026376E+02  0.71826855952E+02  0.10566000000E+00 0. -1.
        -13    1    4    4    0    0 -0.30976669680E+00 -0.32825647518E+01  0.13893663790E+02  0.14279924520E+02  0.10566000000E+00 0.  1.
         14    1    4    4    0    0 -0.30570478769E+01 -0.20340959078E+02  0.96327628236E+02  0.98499300096E+02  0.00000000000E+00 0. -1.
<mgrwt>
<rscale>  0 0.77825647E+02</rscale>
<asrwt>0</asrwt>
<pdfrwt beam="1">  1        2 0.60973115E-03 0.77825647E+02</pdfrwt>
<pdfrwt beam="2">  1       -1 0.58778756E-01 0.77825647E+02</pdfrwt>
<totfact> 0.83264820E+04</totfact>
</mgrwt>
</event>
<event>
 8    1  0.2603554E-024  0.7968219E+02  0.7818608E-02  0.1329956E+00
          2   -1    0    0  501    0  0.00000000000E+00  0.00000000000E+00  0.32952555485E+03  0.32952555486E+03  0.25500000000E-02 0. -1.
         -1   -1    0    0    0  501 -0.00000000000E+00 -0.00000000000E+00 -0.48169624843E+01  0.48169651210E+01  0.50400000000E-02 0.  1.
         24    2    1    2    0    0  0.35527136788E-14 -0.17763568394E-14  0.32470859236E+03  0.33434251998E+03  0.79682185656E+02 0.  0.
         66    2    3    3    0    0  0.30760743364E+02 -0.11648588221E+02  0.25659857681E+03  0.25870589973E+03  0.19999985638E+01 0.  0.
        -13    1    3    3    0    0 -0.30760743364E+02  0.11648588221E+02  0.68110015549E+02  0.75636620245E+02  0.10566000000E+00 0.  1.
         13    1    4    4    0    0  0.68831583256E+01 -0.27402096781E+01  0.61737297277E+02  0.62180315669E+02  0.10566000000E+00 0. -1.
        -13    1    4    4    0    0  0.16124599716E+02 -0.53892814754E+01  0.13188188253E+03  0.13297326489E+03  0.10566000000E+00 0.  1.
        -14    1    4    4    0    0  0.77529853224E+01 -0.35190970677E+01  0.62979397005E+02  0.63552319177E+02  0.00000000000E+00 0.  1.
<mgrwt>
<rscale>  0 0.79682186E+02</rscale>
<asrwt>0</asrwt>
<pdfrwt beam="1">  1        2 0.50696261E-01 0.79682186E+02</pdfrwt>
<pdfrwt beam="2">  1       -1 0.74107104E-03 0.79682186E+02</pdfrwt>
<totfact> 0.26649755E+05</totfact>
</mgrwt>
</event>
<event>
 8    1  0.2603554E-024  0.8003315E+02  0.7818608E-02  0.1328957E+00
         -1   -1    0    0    0  501 -0.00000000000E+00  0.00000000000E+00  0.13036076523E+03  0.13036076533E+03  0.50400000000E-02 0.  1.
          2   -1    0    0  501    0  0.00000000000E+00 -0.00000000000E+00 -0.12283806081E+02  0.12283806346E+02  0.25500000000E-02 0. -1.
         24    2    1    2    0    0  0.00000000000E+00  0.00000000000E+00  0.11807695915E+03  0.14264457167E+03  0.80033152793E+02 0.  0.
         66    2    3    3    0    0  0.18552383289E+02  0.20718455428E+02  0.78548677416E+01  0.28967986929E+02  0.19999996179E+01 0.  0.
        -13    1    3    3    0    0 -0.18552383289E+02 -0.20718455428E+02  0.11022209141E+03  0.11367658474E+03  0.10566000000E+00 0.  1.
         13    1    4    4    0    0  0.63665430341E+01  0.83153573641E+01  0.27459577203E+01  0.10827256630E+02  0.10566000000E+00 0.  1.
        -13    1    4    4    0    0  0.57844260063E+01  0.58841636224E+01  0.28378658864E+01  0.87262599425E+01  0.10566000000E+00 0. -1.
         14    1    4    4    0    0  0.64014142483E+01  0.65189344411E+01  0.22710441348E+01  0.94144703562E+01  0.00000000000E+00 0. -1.
<mgrwt>
<rscale>  0 0.80033153E+02</rscale>
<asrwt>0</asrwt>
<pdfrwt beam="1">  1        2 0.18898164E-02 0.80033153E+02</pdfrwt>
<pdfrwt beam="2">  1       -1 0.20055502E-01 0.80033153E+02</pdfrwt>
<totfact> 0.11154758E+05</totfact>
</mgrwt>
</event>
<event>
 8    1  0.2603554E-024  0.8079726E+02  0.7818608E-02  0.1326804E+00
         -1   -1    0    0    0  501 -0.00000000000E+00  0.00000000000E+00  0.25208795900E+01  0.25208846283E+01  0.50400000000E-02 0.  1.
          2   -1    0    0  501    0  0.00000000000E+00 -0.00000000000E+00 -0.64741196264E+03  0.64741196265E+03  0.25500000000E-02 0. -1.
         24    2    1    2    0    0  0.00000000000E+00  0.00000000000E+00 -0.64489108305E+03  0.64993284728E+03  0.80797258415E+02 0.  0.
         66    2    3    3    0    0  0.13416421956E+02  0.91674908354E+01 -0.61994424625E+03  0.62016039194E+03  0.20000012667E+01 0.  0.
        -13    1    3    3    0    0 -0.13416421956E+02 -0.91674908354E+01 -0.24946836804E+02  0.29772455338E+02  0.10566000000E+00 0.  1.
         13    1    4    4    0    0  0.56336200323E+01  0.33252440274E+01 -0.26401180801E+03  0.26409286408E+03  0.10566000000E+00 0. -1.
        -13    1    4    4    0    0  0.17970997797E+01  0.11452300710E+01 -0.96271819175E+02  0.96295459139E+02  0.10566000000E+00 0.  1.
         14    1    4    4    0    0  0.59857021439E+01  0.46970167370E+01 -0.25966061906E+03  0.25977206872E+03  0.00000000000E+00 0. -1.
<mgrwt>
<rscale>  0 0.80797258E+02</rscale>
<asrwt>0</asrwt>
<pdfrwt beam="1">  1        2 0.99601708E-01 0.80797258E+02</pdfrwt>
<pdfrwt beam="2">  1       -1 0.38782853E-03 0.80797258E+02</pdfrwt>
<totfact> 0.31987792E+05</totfact>
</mgrwt>
</event>
<event>
 8    1  0.2603554E-024  0.8442736E+02  0.7818608E-02  0.1316937E+00
          2   -1    0    0  501    0  0.00000000000E+00  0.00000000000E+00  0.31520250212E+03  0.31520250213E+03  0.25500000000E-02 0. -1.
         -1   -1    0    0    0  501 -0.00000000000E+00 -0.00000000000E+00 -0.56534906155E+01  0.56534928621E+01  0.50400000000E-02 0.  1.
         24    2    1    2    0    0  0.00000000000E+00  0.00000000000E+00  0.30954901151E+03  0.32085599499E+03  0.84427359305E+02 0.  0.
         66    2    3    3    0    0 -0.32654883581E+01 -0.28884479201E+02  0.27106906194E+03  0.27263054284E+03  0.19999985662E+01 0.  0.
        -13    1    3    3    0    0  0.32654883581E+01  0.28884479201E+02  0.38479949562E+02  0.48225452152E+02  0.10566000000E+00 0.  1.
         13    1    4    4    0    0 -0.10586581183E+01 -0.16259707748E+02  0.14853857566E+03  0.14942964390E+03  0.10566000000E+00 0.  1.
        -13    1    4    4    0    0 -0.15467492033E+01 -0.10302583103E+02  0.98533123770E+02  0.99082406590E+02  0.10566000000E+00 0. -1.
        -14    1    4    4    0    0 -0.66008103648E+00 -0.23221883492E+01  0.23997362514E+02  0.24118492352E+02  0.00000000000E+00 0.  1.
<mgrwt>
<rscale>  0 0.84427359E+02</rscale>
<asrwt>0</asrwt>
<pdfrwt beam="1">  1        2 0.48492689E-01 0.84427359E+02</pdfrwt>
<pdfrwt beam="2">  1       -1 0.86976803E-03 0.84427359E+02</pdfrwt>
<totfact> 0.22529711E+05</totfact>
</mgrwt>
</event>
<event>
 8    1  0.2603554E-024  0.8003401E+02  0.7818608E-02  0.1328955E+00
          2   -1    0    0  501    0  0.00000000000E+00  0.00000000000E+00  0.19065756198E+03  0.19065756199E+03  0.25500000000E-02 0. -1.
         -1   -1    0    0    0  501 -0.00000000000E+00 -0.00000000000E+00 -0.83991460879E+01  0.83991476001E+01  0.50400000000E-02 0.  1.
         24    2    1    2    0    0  0.00000000000E+00  0.00000000000E+00  0.18225841589E+03  0.19905670959E+03  0.80034014469E+02 0.  0.
         66    2    3    3    0    0  0.38332611416E+02 -0.96303444843E+01  0.76011627826E+02  0.85696558877E+02  0.20000014411E+01 0.  0.
        -13    1    3    3    0    0 -0.38332611416E+02  0.96303444843E+01  0.10624678806E+03  0.11336015072E+03  0.10566000000E+00 0.  1.
         13    1    4    4    0    0  0.54442023301E+01 -0.16872836274E+01  0.10153916610E+02  0.11644717756E+02  0.10566000000E+00 0. -1.
        -13    1    4    4    0    0  0.16330838587E+02 -0.33279545893E+01  0.32956181357E+02  0.36930916918E+02  0.10566000000E+00 0.  1.
        -14    1    4    4    0    0  0.16557570498E+02 -0.46151062676E+01  0.32901529859E+02  0.37120924203E+02  0.00000000000E+00 0.  1.
<mgrwt>
<rscale>  0 0.80034014E+02</rscale>
<asrwt>0</asrwt>
<pdfrwt beam="1">  1        2 0.29331930E-01 0.80034014E+02</pdfrwt>
<pdfrwt beam="2">  1       -1 0.12921765E-02 0.80034014E+02</pdfrwt>
<totfact> 0.21672480E+05</totfact>
</mgrwt>
</event>
<event>
 8    1  0.2603554E-024  0.7960910E+02  0.7818608E-02  0.1330164E+00
         -1   -1    0    0    0  501 -0.00000000000E+00  0.00000000000E+00  0.60238936361E+02  0.60238936571E+02  0.50400000000E-02 0.  1.
          2   -1    0    0  501    0  0.00000000000E+00 -0.00000000000E+00 -0.26301960597E+02  0.26301960720E+02  0.25500000000E-02 0. -1.
         24    2    1    2    0    0  0.00000000000E+00  0.88817841970E-15  0.33936975764E+02  0.86540897292E+02  0.79609098601E+02 0.  0.
         66    2    3    3    0    0 -0.23690529793E+02 -0.19939301552E+01 -0.17691135740E+02  0.29701738072E+02  0.20000003488E+01 0.  0.
        -13    1    3    3    0    0  0.23690529793E+02  0.19939301552E+01  0.51628111504E+02  0.56839159220E+02  0.10566000000E+00 0.  1.
         13    1    4    4    0    0 -0.10544271367E+02 -0.14047992386E+01 -0.70033813967E+01  0.12736311655E+02  0.10566000000E+00 0. -1.
        -13    1    4    4    0    0 -0.16400309505E+01  0.43875206586E-01 -0.11437027121E+01  0.20027097847E+01  0.10566000000E+00 0.  1.
        -14    1    4    4    0    0 -0.11506227476E+02 -0.63300612318E+00 -0.95440516310E+01  0.14962716632E+02  0.00000000000E+00 0.  1.
<mgrwt>
<rscale>  0 0.79609099E+02</rscale>
<asrwt>0</asrwt>
<pdfrwt beam="1">  1        2 0.40464555E-02 0.79609099E+02</pdfrwt>
<pdfrwt beam="2">  1       -1 0.92675287E-02 0.79609099E+02</pdfrwt>
<totfact> 0.13293470E+05</totfact>
</mgrwt>
</event>
<event>
 8    1  0.2603554E-024  0.8329411E+02  0.7818608E-02  0.1319955E+00
          2   -1    0    0  501    0  0.00000000000E+00  0.00000000000E+00  0.50088740628E+02  0.50088740692E+02  0.25500000000E-02 0. -1.
         -1   -1    0    0    0  501 -0.00000000000E+00 -0.00000000000E+00 -0.34628081461E+02  0.34628081827E+02  0.50400000000E-02 0.  1.
         24    2    1    2    0    0  0.00000000000E+00  0.00000000000E+00  0.15460659167E+02  0.84716822520E+02  0.83294105650E+02 0.  0.
         66    2    3    3    0    0 -0.69471144124E+00  0.37838909410E+02  0.25357183818E+02  0.45598820864E+02  0.20000009306E+01 0.  0.
        -13    1    3    3    0    0  0.69471144124E+00 -0.37838909410E+02 -0.98965246507E+01  0.39118001655E+02  0.10566000000E+00 0.  1.
         13    1    4    4    0    0 -0.72736757494E-01  0.17827240183E+02  0.11510340942E+02  0.21220624304E+02  0.10566000000E+00 0. -1.
        -13    1    4    4    0    0 -0.65388050113E+00  0.13327158379E+02  0.85311678285E+01  0.15837698656E+02  0.10566000000E+00 0.  1.
        -14    1    4    4    0    0  0.31905817382E-01  0.66845108476E+01  0.53156750468E+01  0.85404979045E+01  0.00000000000E+00 0.  1.
<mgrwt>
<rscale>  0 0.83294106E+02</rscale>
<asrwt>0</asrwt>
<pdfrwt beam="1">  1        2 0.77059600E-02 0.83294106E+02</pdfrwt>
<pdfrwt beam="2">  1       -1 0.53273972E-02 0.83294106E+02</pdfrwt>
<totfact> 0.13380291E+05</totfact>
</mgrwt>
</event>
<event>
 8    1  0.2603554E-024  0.7998591E+02  0.7818608E-02  0.1329091E+00
          2   -1    0    0  501    0  0.00000000000E+00  0.00000000000E+00  0.53128003964E+01  0.53128010084E+01  0.25500000000E-02 0. -1.
         -1   -1    0    0    0  501 -0.00000000000E+00 -0.00000000000E+00 -0.30105334259E+03  0.30105334263E+03  0.50400000000E-02 0.  1.
         24    2    1    2    0    0  0.00000000000E+00 -0.17763568394E-14 -0.29574054219E+03  0.30636614364E+03  0.79985909211E+02 0.  0.
         66    2    3    3    0    0 -0.38807765051E+02  0.95182153009E+01 -0.15137204907E+03  0.15656990863E+03  0.19999999781E+01 0.  0.
        -13    1    3    3    0    0  0.38807765051E+02 -0.95182153009E+01 -0.14436849313E+03  0.14979623501E+03  0.10566000000E+00 0.  1.
         13    1    4    4    0    0 -0.18324012667E+02  0.49175762638E+01 -0.69406005568E+02  0.71952461872E+02  0.10566000000E+00 0. -1.
        -13    1    4    4    0    0 -0.12455765028E+02  0.32412535711E+01 -0.50888503649E+02  0.52490978032E+02  0.10566000000E+00 0.  1.
         14    1    4    4    0    0 -0.80279873559E+01  0.13593854660E+01 -0.31077539851E+02  0.32126468729E+02  0.00000000000E+00 0. -1.
<mgrwt>
<rscale>  0 0.79985909E+02</rscale>
<asrwt>0</asrwt>
<pdfrwt beam="1">  1        2 0.81735419E-03 0.79985909E+02</pdfrwt>
<pdfrwt beam="2">  1       -1 0.46315886E-01 0.79985909E+02</pdfrwt>
<totfact> 0.86348597E+04</totfact>
</mgrwt>
</event>
<event>
 8    1  0.2603554E-024  0.8024842E+02  0.7818608E-02  0.1328348E+00
          2   -1    0    0  501    0  0.00000000000E+00  0.00000000000E+00  0.71531503188E+01  0.71531507734E+01  0.25500000000E-02 0. -1.
         -1   -1    0    0    0  501 -0.00000000000E+00 -0.00000000000E+00 -0.22506899181E+03  0.22506899187E+03  0.50400000000E-02 0.  1.
         24    2    1    2    0    0 -0.44408920985E-15 -0.71054273576E-14 -0.21791584149E+03  0.23222214264E+03  0.80248424031E+02 0.  0.
         66    2    3    3    0    0 -0.29305909998E+01 -0.36930040426E+02 -0.15343648773E+03  0.15785807554E+03  0.19999995856E+01 0.  0.
        -13    1    3    3    0    0  0.29305909998E+01  0.36930040426E+02 -0.64479353766E+02  0.74364067100E+02  0.10566000000E+00 0.  1.
         13    1    4    4    0    0 -0.23568987795E+01 -0.22737441316E+02 -0.93179396895E+02  0.95942469111E+02  0.10566000000E+00 0. -1.
        -13    1    4    4    0    0 -0.39806842072E+00 -0.13728343869E+02 -0.57878702952E+02  0.59485975685E+02  0.10566000000E+00 0.  1.
         14    1    4    4    0    0 -0.17562379953E+00 -0.46425524125E+00 -0.23783878797E+01  0.24296307445E+01  0.00000000000E+00 0. -1.
<mgrwt>
<rscale>  0 0.80248424E+02</rscale>
<asrwt>0</asrwt>
<pdfrwt beam="1">  1        2 0.11004849E-02 0.80248424E+02</pdfrwt>
<pdfrwt beam="2">  1       -1 0.34625993E-01 0.80248424E+02</pdfrwt>
<totfact> 0.95214596E+04</totfact>
</mgrwt>
</event>
<event>
 8    1  0.2603554E-024  0.7942910E+02  0.7818608E-02  0.1330679E+00
          2   -1    0    0  501    0  0.00000000000E+00  0.00000000000E+00  0.90989268583E+01  0.90989272156E+01  0.25500000000E-02 0. -1.
         -1   -1    0    0    0  501 -0.00000000000E+00 -0.00000000000E+00 -0.17334410886E+03  0.17334410893E+03  0.50400000000E-02 0.  1.
         24    2    1    2    0    0 -0.22204460493E-15  0.00000000000E+00 -0.16424518200E+03  0.18244303615E+03  0.79429098122E+02 0.  0.
         66    2    3    3    0    0  0.10050197733E+01  0.39584243515E+02 -0.75960880610E+02  0.85685341697E+02  0.19999998314E+01 0.  0.
        -13    1    3    3    0    0 -0.10050197733E+01 -0.39584243515E+02 -0.88284301393E+02  0.96757694453E+02  0.10566000000E+00 0.  1.
         13    1    4    4    0    0  0.97116907762E+00  0.28780626504E+02 -0.54208097152E+02  0.61382380145E+02  0.10566000000E+00 0. -1.
        -13    1    4    4    0    0  0.60076504350E-01  0.17742746762E+01 -0.29518454531E+01  0.34461885363E+01  0.10566000000E+00 0.  1.
         14    1    4    4    0    0 -0.26225808704E-01  0.90293423347E+01 -0.18800938004E+02  0.20856773016E+02  0.00000000000E+00 0. -1.
<mgrwt>
<rscale>  0 0.79429098E+02</rscale>
<asrwt>0</asrwt>
<pdfrwt beam="1">  1        2 0.13998351E-02 0.79429098E+02</pdfrwt>
<pdfrwt beam="2">  1       -1 0.26668322E-01 0.79429098E+02</pdfrwt>
<totfact> 0.10571577E+05</totfact>
</mgrwt>
</event>
<event>
 8    1  0.2603554E-024  0.8111080E+02  0.7818608E-02  0.1325928E+00
         -1   -1    0    0    0  501 -0.00000000000E+00  0.00000000000E+00  0.18164634884E+03  0.18164634891E+03  0.50400000000E-02 0.  1.
          2   -1    0    0  501    0  0.00000000000E+00 -0.00000000000E+00 -0.90546287259E+01  0.90546290850E+01  0.25500000000E-02 0. -1.
         24    2    1    2    0    0  0.88817841970E-15  0.00000000000E+00  0.17259172012E+03  0.19070097800E+03  0.81110795560E+02 0.  0.
         66    2    3    3    0    0  0.73064602362E+01  0.33217488349E+02  0.34519543843E+02  0.48501389678E+02  0.20000000342E+01 0.  0.
        -13    1    3    3    0    0 -0.73064602362E+01 -0.33217488349E+02  0.13807217628E+03  0.14219958832E+03  0.10566000000E+00 0.  1.
         13    1    4    4    0    0  0.76814400956E+00  0.45050381558E+01  0.45341739904E+01  0.64385799533E+01  0.10566000000E+00 0. -1.
        -13    1    4    4    0    0  0.82732235612E+00  0.24267520245E+01  0.32050966694E+01  0.41057759760E+01  0.10566000000E+00 0.  1.
         14    1    4    4    0    0  0.57109938705E+01  0.26285698169E+02  0.26780273184E+02  0.37957033749E+02  0.00000000000E+00 0. -1.
<mgrwt>
<rscale>  0 0.81110796E+02</rscale>
<asrwt>0</asrwt>
<pdfrwt beam="1">  1        2 0.13930199E-02 0.81110796E+02</pdfrwt>
<pdfrwt beam="2">  1       -1 0.27945590E-01 0.81110796E+02</pdfrwt>
<totfact> 0.98931476E+04</totfact>
</mgrwt>
</event>
<event>
 8    1  0.2603554E-024  0.7941041E+02  0.7818608E-02  0.1330733E+00
          2   -1    0    0  501    0  0.00000000000E+00  0.00000000000E+00  0.10557732169E+04  0.10557732169E+04  0.25500000000E-02 0. -1.
         -1   -1    0    0    0  501 -0.00000000000E+00 -0.00000000000E+00 -0.14932173522E+01  0.14932258578E+01  0.50400000000E-02 0.  1.
         24    2    1    2    0    0 -0.88817841970E-15 -0.35527136788E-14  0.10542799995E+04  0.10572664427E+04  0.79410412048E+02 0.  0.
         66    2    3    3    0    0  0.62008781776E+01  0.25044167033E+02  0.92884819683E+03  0.92920860625E+03  0.19999994288E+01 0.  0.
        -13    1    3    3    0    0 -0.62008781776E+01 -0.25044167033E+02  0.12543180270E+03  0.12805783649E+03  0.10566000000E+00 0.  1.
         13    1    4    4    0    0  0.54101045813E+00  0.44511399919E+01  0.15148592390E+03  0.15155230662E+03  0.10566000000E+00 0. -1.
        -13    1    4    4    0    0  0.14229544814E+00  0.89288594084E+00  0.39305625302E+02  0.39316165095E+02  0.10566000000E+00 0.  1.
        -14    1    4    4    0    0  0.55175722714E+01  0.19700141100E+02  0.73805664763E+03  0.73834013454E+03  0.00000000000E+00 0.  1.
<mgrwt>
<rscale>  0 0.79410412E+02</rscale>
<asrwt>0</asrwt>
<pdfrwt beam="1">  1        2 0.16242670E+00 0.79410412E+02</pdfrwt>
<pdfrwt beam="2">  1       -1 0.22972633E-03 0.79410412E+02</pdfrwt>
<totfact> 0.35957032E+05</totfact>
</mgrwt>
</event>
<event>
 8    1  0.2603554E-024  0.7880628E+02  0.7818608E-02  0.1332474E+00
         -1   -1    0    0    0  501 -0.00000000000E+00  0.00000000000E+00  0.91827359501E+01  0.91827373333E+01  0.50400000000E-02 0.  1.
          2   -1    0    0  501    0  0.00000000000E+00 -0.00000000000E+00 -0.16907894695E+03  0.16907894697E+03  0.25500000000E-02 0. -1.
         24    2    1    2    0    0  0.35527136788E-14 -0.88817841970E-15 -0.15989621100E+03  0.17826168430E+03  0.78806280196E+02 0.  0.
         66    2    3    3    0    0 -0.28504120402E+02  0.71576885935E+01 -0.13928369121E+03  0.14236454623E+03  0.19999999215E+01 0.  0.
        -13    1    3    3    0    0  0.28504120402E+02 -0.71576885935E+01 -0.20612519792E+02  0.35897138077E+02  0.10566000000E+00 0.  1.
         13    1    4    4    0    0 -0.26421393733E+02  0.64550222357E+01 -0.12676814338E+03  0.12965311681E+03  0.10566000000E+00 0. -1.
        -13    1    4    4    0    0 -0.18202568518E+01  0.52658201324E+00 -0.11094960120E+02  0.11256106242E+02  0.10566000000E+00 0. -1.
         14    1    4    4    0    0 -0.26246981678E+00  0.17608434451E+00 -0.14205877064E+01  0.14553231712E+01  0.00000000000E+00 0. -1.
<mgrwt>
<rscale>  0 0.78806280E+02</rscale>
<asrwt>0</asrwt>
<pdfrwt beam="1">  1        2 0.26012143E-01 0.78806280E+02</pdfrwt>
<pdfrwt beam="2">  1       -1 0.14127288E-02 0.78806280E+02</pdfrwt>
<totfact> 0.21676633E+05</totfact>
</mgrwt>
</event>
<event>
 8    1  0.2603554E-024  0.8101002E+02  0.7818608E-02  0.1326209E+00
          2   -1    0    0  501    0  0.00000000000E+00  0.00000000000E+00  0.13298486748E+03  0.13298486751E+03  0.25500000000E-02 0. -1.
         -1   -1    0    0    0  501 -0.00000000000E+00 -0.00000000000E+00 -0.12337160412E+02  0.12337161441E+02  0.50400000000E-02 0.  1.
         24    2    1    2    0    0  0.17763568394E-14 -0.55511151231E-16  0.12064770707E+03  0.14532202895E+03  0.81010017134E+02 0.  0.
         66    2    3    3    0    0 -0.13931172515E+02 -0.27758339320E+00  0.12853956490E+03  0.12930805991E+03  0.19999984509E+01 0.  0.
        -13    1    3    3    0    0  0.13931172515E+02  0.27758339320E+00 -0.78918578292E+01  0.16013969034E+02  0.10566000000E+00 0.  1.
         13    1    4    4    0    0 -0.94359353457E+01 -0.10143859252E+00  0.79742041081E+02  0.80298514591E+02  0.10566000000E+00 0. -1.
        -13    1    4    4    0    0 -0.16627086504E+01 -0.47556794108E-01  0.21764110064E+02  0.21827838019E+02  0.10566000000E+00 0.  1.
        -14    1    4    4    0    0 -0.28325285192E+01 -0.12858800658E+00  0.27033413754E+02  0.27181707303E+02  0.00000000000E+00 0.  1.
<mgrwt>
<rscale>  0 0.81010017E+02</rscale>
<asrwt>0</asrwt>
<pdfrwt beam="1">  1        2 0.20459211E-01 0.81010017E+02</pdfrwt>
<pdfrwt beam="2">  1       -1 0.18980247E-02 0.81010017E+02</pdfrwt>
<totfact> 0.18648056E+05</totfact>
</mgrwt>
</event>
<event>
 8    1  0.2603554E-024  0.8215185E+02  0.7818608E-02  0.1323053E+00
         -1   -1    0    0    0  501 -0.00000000000E+00  0.00000000000E+00  0.44243548100E+01  0.44243576807E+01  0.50400000000E-02 0.  1.
          2   -1    0    0  501    0  0.00000000000E+00 -0.00000000000E+00 -0.38135074132E+03  0.38135074132E+03  0.25500000000E-02 0. -1.
         24    2    1    2    0    0  0.00000000000E+00  0.35527136788E-14 -0.37692638651E+03  0.38577509901E+03  0.82151848232E+02 0.  0.
         66    2    3    3    0    0  0.87393337180E+01 -0.21036577636E+02 -0.34894505428E+03  0.34969352934E+03  0.20000004091E+01 0.  0.
        -13    1    3    3    0    0 -0.87393337180E+01  0.21036577636E+02 -0.27981332223E+02  0.36081569665E+02  0.10566000000E+00 0.  1.
         13    1    4    4    0    0  0.55039581163E+00 -0.18624604894E+01 -0.28986065010E+02  0.29051244783E+02  0.10566000000E+00 0. -1.
        -13    1    4    4    0    0  0.12523957649E+01 -0.17691593509E+01 -0.37144619796E+02  0.37207961027E+02  0.10566000000E+00 0.  1.
        -14    1    4    4    0    0  0.69365421415E+01 -0.17404957795E+02 -0.28281436948E+03  0.28343432353E+03  0.00000000000E+00 0.  1.
<mgrwt>
<rscale>  0 0.82151848E+02</rscale>
<asrwt>0</asrwt>
<pdfrwt beam="1">  1        2 0.58669319E-01 0.82151848E+02</pdfrwt>
<pdfrwt beam="2">  1       -1 0.68067049E-03 0.82151848E+02</pdfrwt>
<totfact> 0.25918695E+05</totfact>
</mgrwt>
</event>
<event>
 8    1  0.2603554E-024  0.7983038E+02  0.7818608E-02  0.1329533E+00
         -1   -1    0    0    0  501 -0.00000000000E+00  0.00000000000E+00  0.74359155858E+02  0.74359156029E+02  0.50400000000E-02 0.  1.
          2   -1    0    0  501    0  0.00000000000E+00 -0.00000000000E+00 -0.21426043953E+02  0.21426044105E+02  0.25500000000E-02 0. -1.
         24    2    1    2    0    0  0.00000000000E+00  0.00000000000E+00  0.52933111905E+02  0.95785200134E+02  0.79830384120E+02 0.  0.
         66    2    3    3    0    0  0.10689705873E+02 -0.13237998430E+02 -0.16806737876E+02  0.23999601121E+02  0.20000004596E+01 0.  0.
        -13    1    3    3    0    0 -0.10689705873E+02  0.13237998430E+02  0.69739849782E+02  0.71785599013E+02  0.10566000000E+00 0.  1.
         13    1    4    4    0    0  0.19294494788E+01 -0.18846310297E+01 -0.20817534229E+01  0.34087344806E+01  0.10566000000E+00 0. -1.
        -13    1    4    4    0    0  0.52736681270E+01 -0.63573956898E+01 -0.92269898327E+01  0.12384529094E+02  0.10566000000E+00 0.  1.
        -14    1    4    4    0    0  0.34865882667E+01 -0.49959717108E+01 -0.54979946206E+01  0.82063375463E+01  0.00000000000E+00 0.  1.
<mgrwt>
<rscale>  0 0.79830384E+02</rscale>
<asrwt>0</asrwt>
<pdfrwt beam="1">  1        2 0.32963145E-02 0.79830384E+02</pdfrwt>
<pdfrwt beam="2">  1       -1 0.11439870E-01 0.79830384E+02</pdfrwt>
<totfact> 0.12665551E+05</totfact>
</mgrwt>
</event>
<event>
 8    1  0.2603554E-024  0.7898860E+02  0.7818608E-02  0.1331946E+00
          2   -1    0    0  501    0  0.00000000000E+00  0.00000000000E+00  0.69010257670E+01  0.69010262381E+01  0.25500000000E-02 0. -1.
         -1   -1    0    0    0  501 -0.00000000000E+00 -0.00000000000E+00 -0.22602433142E+03  0.22602433147E+03  0.50400000000E-02 0.  1.
         24    2    1    2    0    0  0.00000000000E+00  0.00000000000E+00 -0.21912330565E+03  0.23292535771E+03  0.78988601621E+02 0.  0.
         66    2    3    3    0    0  0.26255698985E+02  0.15828352616E+02 -0.36330650702E+02  0.47579561042E+02  0.19999932145E+01 0.  0.
        -13    1    3    3    0    0 -0.26255698985E+02 -0.15828352616E+02 -0.18279265495E+03  0.18534579667E+03  0.10566000000E+00 0.  1.
         13    1    4    4    0    0  0.92361113786E+01  0.49950648029E+01 -0.12802665850E+02  0.16558256028E+02  0.10566000000E+00 0. -1.
        -13    1    4    4    0    0  0.10664021569E+02  0.71804881197E+01 -0.15795287872E+02  0.20366223230E+02  0.10566000000E+00 0.  1.
        -14    1    4    4    0    0  0.63555660370E+01  0.36527996937E+01 -0.77326969800E+01  0.10655081785E+02  0.00000000000E+00 0.  1.
<mgrwt>
<rscale>  0 0.78988602E+02</rscale>
<asrwt>0</asrwt>
<pdfrwt beam="1">  1        2 0.10616965E-02 0.78988602E+02</pdfrwt>
<pdfrwt beam="2">  1       -1 0.34772969E-01 0.78988602E+02</pdfrwt>
<totfact> 0.98999466E+04</totfact>
</mgrwt>
</event>
<event>
 8    1  0.2603554E-024  0.8341128E+02  0.7818608E-02  0.1319640E+00
          2   -1    0    0  501    0  0.00000000000E+00  0.00000000000E+00  0.13475162535E+03  0.13475162538E+03  0.25500000000E-02 0. -1.
         -1   -1    0    0    0  501 -0.00000000000E+00 -0.00000000000E+00 -0.12907899337E+02  0.12907900321E+02  0.50400000000E-02 0.  1.
         24    2    1    2    0    0  0.00000000000E+00  0.00000000000E+00  0.12184372601E+03  0.14765952570E+03  0.83411281971E+02 0.  0.
         66    2    3    3    0    0  0.18624929105E+02  0.17847657555E+02  0.11891562002E+03  0.12169778783E+03  0.20000035942E+01 0.  0.
        -13    1    3    3    0    0 -0.18624929105E+02 -0.17847657555E+02  0.29281059985E+01  0.25961737868E+02  0.10566000000E+00 0.  1.
         13    1    4    4    0    0  0.64632469080E+00  0.66061609748E+00  0.55407087195E+01  0.56182529655E+01  0.10566000000E+00 0. -1.
        -13    1    4    4    0    0  0.47237809432E+01  0.53366274329E+01  0.31510690014E+02  0.32306786407E+02  0.10566000000E+00 0.  1.
         14    1    4    4    0    0  0.13254823471E+02  0.11850414024E+02  0.81864221282E+02  0.83772748456E+02  0.00000000000E+00 0. -1.
<mgrwt>
<rscale>  0 0.83411282E+02</rscale>
<asrwt>0</asrwt>
<pdfrwt beam="1">  1        2 0.20731020E-01 0.83411282E+02</pdfrwt>
<pdfrwt beam="2">  1       -1 0.19858307E-02 0.83411282E+02</pdfrwt>
<totfact> 0.17321281E+05</totfact>
</mgrwt>
</event>
<event>
 8    1  0.2603554E-024  0.7927664E+02  0.7818608E-02  0.1331117E+00
         -1   -1    0    0    0  501 -0.00000000000E+00  0.00000000000E+00  0.92671520256E+02  0.92671520393E+02  0.50400000000E-02 0.  1.
          2   -1    0    0  501    0  0.00000000000E+00 -0.00000000000E+00 -0.16954466985E+02  0.16954467177E+02  0.25500000000E-02 0. -1.
         24    2    1    2    0    0 -0.44408920985E-15  0.00000000000E+00  0.75717053271E+02  0.10962598757E+03  0.79276635869E+02 0.  0.
         66    2    3    3    0    0 -0.24517845742E+01  0.38256709265E+02  0.51683449864E+02  0.64379857258E+02  0.19999948393E+01 0.  0.
        -13    1    3    3    0    0  0.24517845742E+01 -0.38256709265E+02  0.24033603407E+02  0.45246130312E+02  0.10566000000E+00 0.  1.
         13    1    4    4    0    0 -0.17949620462E+00  0.45274790439E+01  0.58408633659E+01  0.73930463461E+01  0.10566000000E+00 0. -1.
        -13    1    4    4    0    0 -0.11833790287E+01  0.26423871141E+02  0.35116162941E+02  0.43963364472E+02  0.10566000000E+00 0.  1.
        -14    1    4    4    0    0 -0.10889093409E+01  0.73053590808E+01  0.10726423557E+02  0.13023446440E+02  0.00000000000E+00 0.  1.
<mgrwt>
<rscale>  0 0.79276636E+02</rscale>
<asrwt>0</asrwt>
<pdfrwt beam="1">  1        2 0.26083796E-02 0.79276636E+02</pdfrwt>
<pdfrwt beam="2">  1       -1 0.14257157E-01 0.79276636E+02</pdfrwt>
<totfact> 0.12320617E+05</totfact>
</mgrwt>
</event>
<event>
 8    1  0.2603554E-024  0.7980720E+02  0.7818608E-02  0.1329599E+00
          2   -1    0    0  501    0  0.00000000000E+00  0.00000000000E+00  0.32427870666E+04  0.32427870666E+04  0.25500000000E-02 0. -1.
         -1   -1    0    0    0  501 -0.00000000000E+00 -0.00000000000E+00 -0.49101444394E+00  0.49104030971E+00  0.50400000000E-02 0.  1.
         24    2    1    2    0    0  0.00000000000E+00  0.00000000000E+00  0.32422960521E+04  0.32432781069E+04  0.79807198545E+02 0.  0.
         66    2    3    3    0    0 -0.20932622275E+01 -0.10383480294E+02  0.31845665472E+04  0.31845847911E+04  0.19999986379E+01 0.  0.
        -13    1    3    3    0    0  0.20932622275E+01  0.10383480294E+02  0.57729504916E+02  0.58693315733E+02  0.10566000000E+00 0.  1.
         13    1    4    4    0    0 -0.12646465619E+01 -0.90775544170E+01  0.26130222485E+04  0.26130383241E+04  0.10566000000E+00 0. -1.
        -13    1    4    4    0    0 -0.12940230020E+00 -0.33860632288E+00  0.15349123875E+03  0.15349170315E+03  0.10566000000E+00 0.  1.
         14    1    4    4    0    0 -0.69921336540E+00 -0.96731955423E+00  0.41805306000E+03  0.41805476385E+03  0.00000000000E+00 0. -1.
<mgrwt>
<rscale>  0 0.79807199E+02</rscale>
<asrwt>0</asrwt>
<pdfrwt beam="1">  1        2 0.49888145E+00 0.79807199E+02</pdfrwt>
<pdfrwt beam="2">  1       -1 0.75544017E-04 0.79807199E+02</pdfrwt>
<totfact> 0.11673925E+05</totfact>
</mgrwt>
</event>
<event>
 8    1  0.2603554E-024  0.7977478E+02  0.7818608E-02  0.1329692E+00
          2   -1    0    0  501    0  0.00000000000E+00  0.00000000000E+00  0.68445757893E+02  0.68445757941E+02  0.25500000000E-02 0. -1.
         -1   -1    0    0    0  501 -0.00000000000E+00 -0.00000000000E+00 -0.23244741313E+02  0.23244741860E+02  0.50400000000E-02 0.  1.
         24    2    1    2    0    0  0.17763568394E-14  0.00000000000E+00  0.45201016580E+02  0.91690499801E+02  0.79774782067E+02 0.  0.
         66    2    3    3    0    0  0.74879695401E+01 -0.25687414528E+02  0.56576203133E+02  0.62616129883E+02  0.20000019269E+01 0.  0.
        -13    1    3    3    0    0 -0.74879695401E+01  0.25687414528E+02 -0.11375186553E+02  0.29074369917E+02  0.10566000000E+00 0.  1.
         13    1    4    4    0    0  0.45135576623E+01 -0.14708111928E+02  0.33214617570E+02  0.36604955179E+02  0.10566000000E+00 0. -1.
        -13    1    4    4    0    0  0.26071888491E+01 -0.77276244386E+01  0.17129280978E+02  0.18972006853E+02  0.10566000000E+00 0.  1.
        -14    1    4    4    0    0  0.36722302865E+00 -0.32516781607E+01  0.62323045842E+01  0.70391678516E+01  0.00000000000E+00 0.  1.
<mgrwt>
<rscale>  0 0.79774782E+02</rscale>
<asrwt>0</asrwt>
<pdfrwt beam="1">  1        2 0.10530116E-01 0.79774782E+02</pdfrwt>
<pdfrwt beam="2">  1       -1 0.35761142E-02 0.79774782E+02</pdfrwt>
<totfact> 0.16181657E+05</totfact>
</mgrwt>
</event>
<event>
 8    1  0.2603554E-024  0.8055013E+02  0.7818608E-02  0.1327497E+00
         -1   -1    0    0    0  501 -0.00000000000E+00  0.00000000000E+00  0.54002110688E+01  0.54002134207E+01  0.50400000000E-02 0.  1.
          2   -1    0    0  501    0  0.00000000000E+00 -0.00000000000E+00 -0.30037356092E+03  0.30037356093E+03  0.25500000000E-02 0. -1.
         24    2    1    2    0    0  0.00000000000E+00 -0.22204460493E-15 -0.29497334985E+03  0.30577377435E+03  0.80550133201E+02 0.  0.
         66    2    3    3    0    0 -0.21223545386E+02 -0.17543031646E+01 -0.27723179636E+03  0.27805572351E+03  0.20000004745E+01 0.  0.
        -13    1    3    3    0    0  0.21223545386E+02  0.17543031646E+01 -0.17741553485E+02  0.27718050842E+02  0.10566000000E+00 0.  1.
         13    1    4    4    0    0 -0.70491703148E+01 -0.79878173386E+00 -0.91513262006E+02  0.91787892129E+02  0.10566000000E+00 0. -1.
        -13    1    4    4    0    0 -0.70287362961E+01  0.25208781326E+00 -0.95512831637E+02  0.95771492906E+02  0.10566000000E+00 0.  1.
        -14    1    4    4    0    0 -0.71456387754E+01 -0.12076092440E+01 -0.90205702720E+02  0.90496338472E+02  0.00000000000E+00 0.  1.
<mgrwt>
<rscale>  0 0.80550133E+02</rscale>
<asrwt>0</asrwt>
<pdfrwt beam="1">  1        2 0.46211304E-01 0.80550133E+02</pdfrwt>
<pdfrwt beam="2">  1       -1 0.83080212E-03 0.80550133E+02</pdfrwt>
<totfact> 0.25051644E+05</totfact>
</mgrwt>
</event>
<event>
 8    1  0.2603554E-024  0.8174191E+02  0.7818608E-02  0.1324180E+00
         -1   -1    0    0    0  501 -0.00000000000E+00  0.00000000000E+00  0.82478611441E+01  0.82478626839E+01  0.50400000000E-02 0.  1.
          2   -1    0    0  501    0  0.00000000000E+00 -0.00000000000E+00 -0.20252946431E+03  0.20252946433E+03  0.25500000000E-02 0. -1.
         24    2    1    2    0    0 -0.44408920985E-15  0.00000000000E+00 -0.19428160317E+03  0.21077732701E+03  0.81741912462E+02 0.  0.
         66    2    3    3    0    0  0.39221120226E+01 -0.18304036095E+02 -0.19081226327E+03  0.19173872981E+03  0.19999983979E+01 0.  0.
        -13    1    3    3    0    0 -0.39221120226E+01  0.18304036095E+02 -0.34693398954E+01  0.19038597203E+02  0.10566000000E+00 0.  1.
         13    1    4    4    0    0  0.81605145348E+00 -0.51289243104E+01 -0.55484078516E+02  0.55726707577E+02  0.10566000000E+00 0. -1.
        -13    1    4    4    0    0  0.15225571551E+01 -0.35082781063E+01 -0.38357071556E+02  0.38547403258E+02  0.10566000000E+00 0.  1.
        -14    1    4    4    0    0  0.15835034140E+01 -0.96668336787E+01 -0.96971113202E+02  0.97464618976E+02  0.00000000000E+00 0.  1.
<mgrwt>
<rscale>  0 0.81741912E+02</rscale>
<asrwt>0</asrwt>
<pdfrwt beam="1">  1        2 0.31158375E-01 0.81741912E+02</pdfrwt>
<pdfrwt beam="2">  1       -1 0.12689020E-02 0.81741912E+02</pdfrwt>
<totfact> 0.20929965E+05</totfact>
</mgrwt>
</event>
<event>
 8    1  0.2603554E-024  0.7961414E+02  0.7818608E-02  0.1330150E+00
         -1   -1    0    0    0  501 -0.00000000000E+00  0.00000000000E+00  0.20486820822E+02  0.20486821442E+02  0.50400000000E-02 0.  1.
          2   -1    0    0  501    0  0.00000000000E+00 -0.00000000000E+00 -0.77347417101E+02  0.77347417143E+02  0.25500000000E-02 0. -1.
         24    2    1    2    0    0  0.00000000000E+00  0.00000000000E+00 -0.56860596279E+02  0.97834238586E+02  0.79614137127E+02 0.  0.
         66    2    3    3    0    0  0.13998853030E+02 -0.37177839744E+02 -0.25859385348E+02  0.47443307879E+02  0.19999994458E+01 0.  0.
        -13    1    3    3    0    0 -0.13998853030E+02  0.37177839744E+02 -0.31001210931E+02  0.50390930706E+02  0.10566000000E+00 0.  1.
         13    1    4    4    0    0  0.24008469147E+01 -0.67751808274E+01 -0.53548105802E+01  0.89639445300E+01  0.10566000000E+00 0. -1.
        -13    1    4    4    0    0  0.59801398304E+00 -0.21654104771E+01 -0.12048843717E+01  0.25513787729E+01  0.10566000000E+00 0.  1.
        -14    1    4    4    0    0  0.10999992133E+02 -0.28237248439E+02 -0.19299690396E+02  0.35927984576E+02  0.00000000000E+00 0.  1.
<mgrwt>
<rscale>  0 0.79614137E+02</rscale>
<asrwt>0</asrwt>
<pdfrwt beam="1">  1        2 0.11899603E-01 0.79614137E+02</pdfrwt>
<pdfrwt beam="2">  1       -1 0.31518187E-02 0.79614137E+02</pdfrwt>
<totfact> 0.16769901E+05</totfact>
</mgrwt>
</event>
<event>
 8    1  0.2603554E-024  0.7894081E+02  0.7818608E-02  0.1332084E+00
          2   -1    0    0  501    0  0.00000000000E+00  0.00000000000E+00  0.19146599111E+03  0.19146599113E+03  0.25500000000E-02 0. -1.
         -1   -1    0    0    0  501 -0.00000000000E+00 -0.00000000000E+00 -0.81367600079E+01  0.81367615688E+01  0.50400000000E-02 0.  1.
         24    2    1    2    0    0  0.00000000000E+00  0.00000000000E+00  0.18332923110E+03  0.19960275270E+03  0.78940812684E+02 0.  0.
         66    2    3    3    0    0 -0.10055920850E+02 -0.37714844197E+02  0.10611072343E+03  0.11307969156E+03  0.19999999546E+01 0.  0.
        -13    1    3    3    0    0  0.10055920850E+02  0.37714844197E+02  0.77218507677E+02  0.86523061139E+02  0.10566000000E+00 0.  1.
         13    1    4    4    0    0 -0.52349538624E+01 -0.17851831770E+02  0.50770567794E+02  0.54071751938E+02  0.10566000000E+00 0. -1.
        -13    1    4    4    0    0 -0.55337620519E+00 -0.13393417888E+01  0.33432948535E+01  0.36453869705E+01  0.10566000000E+00 0.  1.
        -14    1    4    4    0    0 -0.42675907827E+01 -0.18523670639E+02  0.51996860779E+02  0.55362552650E+02  0.00000000000E+00 0.  1.
<mgrwt>
<rscale>  0 0.78940813E+02</rscale>
<asrwt>0</asrwt>
<pdfrwt beam="1">  1        2 0.29456306E-01 0.78940813E+02</pdfrwt>
<pdfrwt beam="2">  1       -1 0.12518094E-02 0.78940813E+02</pdfrwt>
<totfact> 0.22506263E+05</totfact>
</mgrwt>
</event>
<event>
 8    1  0.2603554E-024  0.7814926E+02  0.7818608E-02  0.1334387E+00
          2   -1    0    0  501    0  0.00000000000E+00  0.00000000000E+00  0.59273891560E+03  0.59273891561E+03  0.25500000000E-02 0. -1.
         -1   -1    0    0    0  501 -0.00000000000E+00 -0.00000000000E+00 -0.25758813859E+01  0.25758863165E+01  0.50400000000E-02 0.  1.
         24    2    1    2    0    0  0.35527136788E-14  0.88817841970E-15  0.59016303422E+03  0.59531480193E+03  0.78149257416E+02 0.  0.
         66    2    3    3    0    0  0.12170986014E+02  0.37140005405E+01  0.57649865662E+03  0.57664254765E+03  0.19999935380E+01 0.  0.
        -13    1    3    3    0    0 -0.12170986014E+02 -0.37140005405E+01  0.13664377595E+02  0.18672254274E+02  0.10566000000E+00 0.  1.
         13    1    4    4    0    0  0.56433980335E+01  0.21047149309E+01  0.26498589454E+03  0.26505435902E+03  0.10566000000E+00 0. -1.
        -13    1    4    4    0    0  0.73176770950E+00  0.47673465247E+00  0.57888054303E+02  0.57894738577E+02  0.10566000000E+00 0.  1.
        -14    1    4    4    0    0  0.57958202709E+01  0.11325509571E+01  0.25362470778E+03  0.25369345005E+03  0.00000000000E+00 0.  1.
<mgrwt>
<rscale>  0 0.78149257E+02</rscale>
<asrwt>0</asrwt>
<pdfrwt beam="1">  1        2 0.91190703E-01 0.78149257E+02</pdfrwt>
<pdfrwt beam="2">  1       -1 0.39628939E-03 0.78149257E+02</pdfrwt>
<totfact> 0.34064839E+05</totfact>
</mgrwt>
</event>
<event>
 8    1  0.2603554E-024  0.7965858E+02  0.7818608E-02  0.1330023E+00
         -1   -1    0    0    0  501 -0.00000000000E+00  0.00000000000E+00  0.39643741105E+03  0.39643741108E+03  0.50400000000E-02 0.  1.
          2   -1    0    0  501    0  0.00000000000E+00 -0.00000000000E+00 -0.40015703559E+01  0.40015711684E+01  0.25500000000E-02 0. -1.
         24    2    1    2    0    0 -0.17763568394E-14  0.00000000000E+00  0.39243584069E+03  0.40043898225E+03  0.79658580482E+02 0.  0.
         66    2    3    3    0    0  0.15735820480E+02 -0.32901443261E+02  0.27649636929E+03  0.27889848197E+03  0.20000000005E+01 0.  0.
        -13    1    3    3    0    0 -0.15735820480E+02  0.32901443261E+02  0.11593947140E+03  0.12154050028E+03  0.10566000000E+00 0.  1.
         13    1    4    4    0    0  0.82408620146E+00 -0.15570402773E+01  0.11130430038E+02  0.11269477777E+02  0.10566000000E+00 0.  1.
        -13    1    4    4    0    0  0.46504361727E+01 -0.87598504799E+01  0.73615624406E+02  0.74280770444E+02  0.10566000000E+00 0. -1.
        -14    1    4    4    0    0  0.10261298106E+02 -0.22584552504E+02  0.19175031484E+03  0.19334823375E+03  0.00000000000E+00 0.  1.
<mgrwt>
<rscale>  0 0.79658580E+02</rscale>
<asrwt>0</asrwt>
<pdfrwt beam="1">  1        2 0.61562636E-03 0.79658580E+02</pdfrwt>
<pdfrwt beam="2">  1       -1 0.60990363E-01 0.79658580E+02</pdfrwt>
<totfact> 0.76989007E+04</totfact>
</mgrwt>
</event>
<event>
 8    1  0.2603554E-024  0.8065862E+02  0.7818608E-02  0.1327193E+00
         -1   -1    0    0    0  501 -0.00000000000E+00  0.00000000000E+00  0.14112662725E+01  0.14112752720E+01  0.50400000000E-02 0.  1.
          2   -1    0    0  501    0  0.00000000000E+00 -0.00000000000E+00 -0.11524743110E+04  0.11524743110E+04  0.25500000000E-02 0. -1.
         24    2    1    2    0    0  0.00000000000E+00  0.22204460493E-15 -0.11510630448E+04  0.11538855863E+04  0.80658621831E+02 0.  0.
         66    2    3    3    0    0 -0.24803257744E+02  0.15982445550E+01 -0.10297845552E+04  0.10300863974E+04  0.19999993409E+01 0.  0.
        -13    1    3    3    0    0  0.24803257744E+02 -0.15982445550E+01 -0.12127848955E+03  0.12379918890E+03  0.10566000000E+00 0.  1.
         13    1    4    4    0    0 -0.19387160450E+02  0.74204845474E+00 -0.77945747440E+03  0.77969890226E+03  0.10566000000E+00 0. -1.
        -13    1    4    4    0    0 -0.17437502362E+01  0.10142196210E+00 -0.81935255323E+02  0.81953939382E+02  0.10566000000E+00 0.  1.
        -14    1    4    4    0    0 -0.36723470576E+01  0.75477413817E+00 -0.16839182548E+03  0.16843355576E+03  0.00000000000E+00 0.  1.
<mgrwt>
<rscale>  0 0.80658622E+02</rscale>
<asrwt>0</asrwt>
<pdfrwt beam="1">  1        2 0.17730299E+00 0.80658622E+02</pdfrwt>
<pdfrwt beam="2">  1       -1 0.21711950E-03 0.80658622E+02</pdfrwt>
<totfact> 0.34426241E+05</totfact>
</mgrwt>
</event>
<event>
 8    1  0.2603554E-024  0.7463562E+02  0.7818608E-02  0.1345003E+00
         -1   -1    0    0    0  501 -0.00000000000E+00  0.00000000000E+00  0.12580555664E+02  0.12580556673E+02  0.50400000000E-02 0.  1.
          2   -1    0    0  501    0  0.00000000000E+00 -0.00000000000E+00 -0.11069612803E+03  0.11069612806E+03  0.25500000000E-02 0. -1.
         24    2    1    2    0    0  0.00000000000E+00 -0.17763568394E-14 -0.98115572364E+02  0.12327668473E+03  0.74635617890E+02 0.  0.
         66    2    3    3    0    0 -0.28325934395E+02 -0.12871908182E+02 -0.83046359809E+02  0.88705932487E+02  0.20000003310E+01 0.  0.
        -13    1    3    3    0    0  0.28325934395E+02  0.12871908182E+02 -0.15069212555E+02  0.34570752243E+02  0.10566000000E+00 0.  1.
         13    1    4    4    0    0 -0.38003646016E+01 -0.16735045748E+01 -0.11023296037E+02  0.11779966393E+02  0.10566000000E+00 0. -1.
        -13    1    4    4    0    0 -0.16116234224E+02 -0.68041163503E+01 -0.48698623245E+02  0.51745493281E+02  0.10566000000E+00 0.  1.
        -14    1    4    4    0    0 -0.84093355689E+01 -0.43942872573E+01 -0.23324440526E+02  0.25180472813E+02  0.00000000000E+00 0.  1.
<mgrwt>
<rscale>  0 0.74635618E+02</rscale>
<asrwt>0</asrwt>
<pdfrwt beam="1">  1        2 0.17030173E-01 0.74635618E+02</pdfrwt>
<pdfrwt beam="2">  1       -1 0.19354703E-02 0.74635618E+02</pdfrwt>
<totfact> 0.21947853E+05</totfact>
</mgrwt>
</event>
<event>
 8    1  0.2603554E-024  0.7454866E+02  0.7818608E-02  0.1345274E+00
          2   -1    0    0  501    0  0.00000000000E+00  0.00000000000E+00  0.17715090320E+02  0.17715090504E+02  0.25500000000E-02 0. -1.
         -1   -1    0    0    0  501 -0.00000000000E+00 -0.00000000000E+00 -0.78428943635E+02  0.78428943797E+02  0.50400000000E-02 0.  1.
         24    2    1    2    0    0  0.00000000000E+00  0.00000000000E+00 -0.60713853314E+02  0.96144034301E+02  0.74548664289E+02 0.  0.
         66    2    3    3    0    0 -0.16524115960E+02  0.13071830795E+02  0.92347048028E+01  0.23091100648E+02  0.19999969293E+01 0.  0.
        -13    1    3    3    0    0  0.16524115960E+02 -0.13071830795E+02 -0.69948558117E+02  0.73052933653E+02  0.10566000000E+00 0.  1.
         13    1    4    4    0    0 -0.13412976236E+02  0.10886101980E+02  0.68937866473E+01  0.18599747477E+02  0.10566000000E+00 0. -1.
        -13    1    4    4    0    0 -0.25708866107E+01  0.16072036068E+01  0.17380790485E+01  0.34963758684E+01  0.10566000000E+00 0.  1.
         14    1    4    4    0    0 -0.54025311375E+00  0.57852520817E+00  0.60283910697E+00  0.99497730240E+00  0.00000000000E+00 0. -1.
<mgrwt>
<rscale>  0 0.74548664E+02</rscale>
<asrwt>0</asrwt>
<pdfrwt beam="1">  1        2 0.27253986E-02 0.74548664E+02</pdfrwt>
<pdfrwt beam="2">  1       -1 0.12065991E-01 0.74548664E+02</pdfrwt>
<totfact> 0.14834943E+05</totfact>
</mgrwt>
</event>
<event>
 8    1  0.2603554E-024  0.7910536E+02  0.7818608E-02  0.1331610E+00
          2   -1    0    0  501    0  0.00000000000E+00  0.00000000000E+00  0.39103004168E+02  0.39103004251E+02  0.25500000000E-02 0. -1.
         -1   -1    0    0    0  501 -0.00000000000E+00 -0.00000000000E+00 -0.40007524543E+02  0.40007524860E+02  0.50400000000E-02 0.  1.
         24    2    1    2    0    0  0.00000000000E+00  0.00000000000E+00 -0.90452037506E+00  0.79110529111E+02  0.79105357967E+02 0.  0.
         66    2    3    3    0    0 -0.30834863748E+02 -0.12020934523E+02  0.21161772047E+02  0.39333348285E+02  0.20000004876E+01 0.  0.
        -13    1    3    3    0    0  0.30834863748E+02  0.12020934523E+02 -0.22066292422E+02  0.39777180826E+02  0.10566000000E+00 0.  1.
         13    1    4    4    0    0 -0.13437709391E+02 -0.50961591869E+01  0.91087745104E+01  0.17015399180E+02  0.10566000000E+00 0. -1.
        -13    1    4    4    0    0 -0.11571654247E+02 -0.47322075103E+01  0.72186182232E+01  0.14436640295E+02  0.10566000000E+00 0.  1.
        -14    1    4    4    0    0 -0.58255001107E+01 -0.21925678257E+01  0.48343793132E+01  0.78813088097E+01  0.00000000000E+00 0.  1.
<mgrwt>
<rscale>  0 0.79105358E+02</rscale>
<asrwt>0</asrwt>
<pdfrwt beam="1">  1        2 0.60158468E-02 0.79105358E+02</pdfrwt>
<pdfrwt beam="2">  1       -1 0.61550038E-02 0.79105358E+02</pdfrwt>
<totfact> 0.14637232E+05</totfact>
</mgrwt>
</event>
<event>
 8    1  0.2603554E-024  0.7673135E+02  0.7818608E-02  0.1338592E+00
         -1   -1    0    0    0  501 -0.00000000000E+00  0.00000000000E+00  0.10106672345E+01  0.10106798011E+01  0.50400000000E-02 0.  1.
          2   -1    0    0  501    0  0.00000000000E+00 -0.00000000000E+00 -0.14563803820E+04  0.14563803820E+04  0.25500000000E-02 0. -1.
         24    2    1    2    0    0  0.00000000000E+00 -0.35527136788E-14 -0.14553697147E+04  0.14573910618E+04  0.76731351921E+02 0.  0.
         66    2    3    3    0    0  0.69950581719E+01  0.18710215939E+02 -0.13497351829E+04  0.13498844643E+04  0.19999982860E+01 0.  0.
        -13    1    3    3    0    0 -0.69950581719E+01 -0.18710215939E+02 -0.10563453186E+03  0.10750659750E+03  0.10566000000E+00 0.  1.
         13    1    4    4    0    0  0.14788423931E+01  0.54254257724E+01 -0.42780937614E+03  0.42784634590E+03  0.10566000000E+00 0. -1.
        -13    1    4    4    0    0  0.10067719737E+01  0.21732132524E+01 -0.14832384351E+03  0.14834321745E+03  0.10566000000E+00 0.  1.
         14    1    4    4    0    0  0.45094438050E+01  0.11111576914E+02 -0.77360196323E+03  0.77369490094E+03  0.00000000000E+00 0. -1.
<mgrwt>
<rscale>  0 0.76731352E+02</rscale>
<asrwt>0</asrwt>
<pdfrwt beam="1">  1        2 0.22405684E+00 0.76731352E+02</pdfrwt>
<pdfrwt beam="2">  1       -1 0.15548940E-03 0.76731352E+02</pdfrwt>
<totfact> 0.37440949E+05</totfact>
</mgrwt>
</event>
<event>
 8    1  0.2603554E-024  0.8025487E+02  0.7818608E-02  0.1328330E+00
         -1   -1    0    0    0  501 -0.00000000000E+00  0.00000000000E+00  0.19900199716E+03  0.19900199722E+03  0.50400000000E-02 0.  1.
          2   -1    0    0  501    0  0.00000000000E+00 -0.00000000000E+00 -0.80914314334E+01  0.80914318352E+01  0.25500000000E-02 0. -1.
         24    2    1    2    0    0 -0.35527136788E-14  0.00000000000E+00  0.19091056573E+03  0.20709342906E+03  0.80254870590E+02 0.  0.
         66    2    3    3    0    0 -0.30637798662E+02  0.14100488018E+02  0.39529545951E+02  0.52000802601E+02  0.19999997305E+01 0.  0.
        -13    1    3    3    0    0  0.30637798662E+02 -0.14100488018E+02  0.15138101978E+03  0.15509262646E+03  0.10566000000E+00 0.  1.
         13    1    4    4    0    0 -0.34373291274E+01  0.17550813411E+01  0.54062212613E+01  0.66433375954E+01  0.10566000000E+00 0.  1.
        -13    1    4    4    0    0 -0.18282677881E+02  0.83975285334E+01  0.23516243063E+02  0.30948338369E+02  0.10566000000E+00 0. -1.
        -14    1    4    4    0    0 -0.89177916534E+01  0.39478781434E+01  0.10607081626E+02  0.14409126637E+02  0.00000000000E+00 0.  1.
<mgrwt>
<rscale>  0 0.80254871E+02</rscale>
<asrwt>0</asrwt>
<pdfrwt beam="1">  1        2 0.12448357E-02 0.80254871E+02</pdfrwt>
<pdfrwt beam="2">  1       -1 0.30615691E-01 0.80254871E+02</pdfrwt>
<totfact> 0.98950154E+04</totfact>
</mgrwt>
</event>
<event>
 8    1  0.2603554E-024  0.8101170E+02  0.7818608E-02  0.1326205E+00
          2   -1    0    0  501    0  0.00000000000E+00  0.00000000000E+00  0.47959909564E+03  0.47959909565E+03  0.25500000000E-02 0. -1.
         -1   -1    0    0    0  501 -0.00000000000E+00 -0.00000000000E+00 -0.34210303493E+01  0.34210340619E+01  0.50400000000E-02 0.  1.
         24    2    1    2    0    0  0.00000000000E+00  0.17763568394E-14  0.47617806529E+03  0.48302012971E+03  0.81011701870E+02 0.  0.
         66    2    3    3    0    0  0.23538965605E+01 -0.15830302212E+02  0.45993214061E+03  0.46021485554E+03  0.19999991503E+01 0.  0.
        -13    1    3    3    0    0 -0.23538965605E+01  0.15830302212E+02  0.16245924682E+02  0.22805274170E+02  0.10566000000E+00 0.  1.
         13    1    4    4    0    0  0.34510683091E+00 -0.61257354411E+01  0.19262580672E+03  0.19272352298E+03  0.10566000000E+00 0. -1.
        -13    1    4    4    0    0  0.18525786356E-01 -0.43303940166E+00  0.91013941839E+01  0.91123216830E+01  0.10566000000E+00 0.  1.
         14    1    4    4    0    0  0.19902639433E+01 -0.92715273697E+01  0.25820493971E+03  0.25837901087E+03  0.00000000000E+00 0. -1.
<mgrwt>
<rscale>  0 0.81011702E+02</rscale>
<asrwt>0</asrwt>
<pdfrwt beam="1">  1        2 0.73784436E-01 0.81011702E+02</pdfrwt>
<pdfrwt beam="2">  1       -1 0.52631293E-03 0.81011702E+02</pdfrwt>
<totfact> 0.29076113E+05</totfact>
</mgrwt>
</event>
<event>
 8    1  0.2603554E-024  0.8027925E+02  0.7818608E-02  0.1328261E+00
         -1   -1    0    0    0  501 -0.00000000000E+00  0.00000000000E+00  0.13100699349E+01  0.13100796296E+01  0.50400000000E-02 0.  1.
          2   -1    0    0  501    0  0.00000000000E+00 -0.00000000000E+00 -0.12298454305E+04  0.12298454305E+04  0.25500000000E-02 0. -1.
         24    2    1    2    0    0  0.00000000000E+00  0.44408920985E-15 -0.12285353606E+04  0.12311555102E+04  0.80279249936E+02 0.  0.
         66    2    3    3    0    0  0.18304273607E+02  0.34385032157E+01 -0.11595185520E+04  0.11596698419E+04  0.20000001747E+01 0.  0.
        -13    1    3    3    0    0 -0.18304273607E+02 -0.34385032157E+01 -0.69016808557E+02  0.71485668243E+02  0.10566000000E+00 0.  1.
         13    1    4    4    0    0  0.10771653294E+02  0.20512827060E+01 -0.72463707132E+03  0.72472003738E+03  0.10566000000E+00 0. -1.
        -13    1    4    4    0    0  0.18699707213E+01 -0.40144637750E-02 -0.11265531969E+03  0.11267088810E+03  0.10566000000E+00 0.  1.
         14    1    4    4    0    0  0.56626495921E+01  0.13912349735E+01 -0.32222616103E+03  0.32227891645E+03  0.00000000000E+00 0. -1.
<mgrwt>
<rscale>  0 0.80279250E+02</rscale>
<asrwt>0</asrwt>
<pdfrwt beam="1">  1        2 0.18920607E+00 0.80279250E+02</pdfrwt>
<pdfrwt beam="2">  1       -1 0.20155095E-03 0.80279250E+02</pdfrwt>
<totfact> 0.34618198E+05</totfact>
</mgrwt>
</event>
<event>
 8    1  0.2603554E-024  0.8130214E+02  0.7818608E-02  0.1325396E+00
          2   -1    0    0  501    0  0.00000000000E+00  0.00000000000E+00  0.55942453796E+03  0.55942453796E+03  0.25500000000E-02 0. -1.
         -1   -1    0    0    0  501 -0.00000000000E+00 -0.00000000000E+00 -0.29539428732E+01  0.29539471728E+01  0.50400000000E-02 0.  1.
         24    2    1    2    0    0  0.35527136788E-14  0.00000000000E+00  0.55647059508E+03  0.56237848514E+03  0.81302136199E+02 0.  0.
         66    2    3    3    0    0  0.22807138699E+02 -0.63644269490E+01  0.50675618128E+03  0.50731301856E+03  0.20000055293E+01 0.  0.
        -13    1    3    3    0    0 -0.22807138699E+02  0.63644269490E+01  0.49714413801E+02  0.55065466580E+02  0.10566000000E+00 0.  1.
         13    1    4    4    0    0  0.15494892183E+02 -0.52420445026E+01  0.34692610480E+03  0.34731153749E+03  0.10566000000E+00 0. -1.
        -13    1    4    4    0    0  0.34814168485E+01 -0.60243151906E+00  0.73918650582E+02  0.74003116522E+02  0.10566000000E+00 0. -1.
         14    1    4    4    0    0  0.38308296669E+01 -0.51995092731E+00  0.85911425900E+02  0.85998364549E+02  0.00000000000E+00 0. -1.
<mgrwt>
<rscale>  0 0.81302136E+02</rscale>
<asrwt>0</asrwt>
<pdfrwt beam="1">  1        2 0.86065231E-01 0.81302136E+02</pdfrwt>
<pdfrwt beam="2">  1       -1 0.45445352E-03 0.81302136E+02</pdfrwt>
<totfact> 0.30223799E+05</totfact>
</mgrwt>
</event>
<event>
 8    1  0.2603554E-024  0.7923239E+02  0.7818608E-02  0.1331244E+00
         -1   -1    0    0    0  501 -0.00000000000E+00  0.00000000000E+00  0.92523167765E+02  0.92523167902E+02  0.50400000000E-02 0.  1.
          2   -1    0    0  501    0  0.00000000000E+00 -0.00000000000E+00 -0.16962703584E+02  0.16962703776E+02  0.25500000000E-02 0. -1.
         24    2    1    2    0    0  0.00000000000E+00  0.00000000000E+00  0.75560464180E+02  0.10948587168E+03  0.79232394574E+02 0.  0.
         66    2    3    3    0    0  0.73190807554E+01  0.18490200935E+02 -0.95017061584E+01  0.22130044966E+02  0.19999991436E+01 0.  0.
        -13    1    3    3    0    0 -0.73190807554E+01 -0.18490200935E+02  0.85062170339E+02  0.87355826712E+02  0.10566000000E+00 0.  1.
         13    1    4    4    0    0  0.36826794210E+01  0.89646799074E+01 -0.36147245593E+01  0.10344322657E+02  0.10566000000E+00 0. -1.
        -13    1    4    4    0    0  0.34879932200E+01  0.88355039699E+01 -0.53868846559E+01  0.10920710482E+02  0.10566000000E+00 0.  1.
        -14    1    4    4    0    0  0.14840811445E+00  0.69001705773E+00 -0.50009694324E+00  0.86501182711E+00  0.00000000000E+00 0.  1.
<mgrwt>
<rscale>  0 0.79232395E+02</rscale>
<asrwt>0</asrwt>
<pdfrwt beam="1">  1        2 0.26096468E-02 0.79232395E+02</pdfrwt>
<pdfrwt beam="2">  1       -1 0.14234333E-01 0.79232395E+02</pdfrwt>
<totfact> 0.12341839E+05</totfact>
</mgrwt>
</event>
<event>
 8    1  0.2603554E-024  0.8027293E+02  0.7818608E-02  0.1328279E+00
         -1   -1    0    0    0  501 -0.00000000000E+00  0.00000000000E+00  0.25413795064E+01  0.25413845040E+01  0.50400000000E-02 0.  1.
          2   -1    0    0  501    0  0.00000000000E+00 -0.00000000000E+00 -0.63388183119E+03  0.63388183120E+03  0.25500000000E-02 0. -1.
         24    2    1    2    0    0  0.00000000000E+00  0.00000000000E+00 -0.63134045169E+03  0.63642321570E+03  0.80272931608E+02 0.  0.
         66    2    3    3    0    0 -0.26397882766E+02 -0.61179145263E+00 -0.55525500935E+03  0.55588609257E+03  0.19999994170E+01 0.  0.
        -13    1    3    3    0    0  0.26397882766E+02  0.61179145263E+00 -0.76085442336E+02  0.80537123135E+02  0.10566000000E+00 0.  1.
         13    1    4    4    0    0 -0.29059526439E+01  0.54548294005E-02 -0.66812699764E+02  0.66875949371E+02  0.10566000000E+00 0. -1.
        -13    1    4    4    0    0 -0.20700778798E+02 -0.31866539577E+00 -0.43955789489E+03  0.44004519986E+03  0.10566000000E+00 0.  1.
        -14    1    4    4    0    0 -0.27911513241E+01 -0.29858088627E+00 -0.48884414694E+02  0.48964943339E+02  0.00000000000E+00 0.  1.
<mgrwt>
<rscale>  0 0.80272932E+02</rscale>
<asrwt>0</asrwt>
<pdfrwt beam="1">  1        2 0.97520156E-01 0.80272932E+02</pdfrwt>
<pdfrwt beam="2">  1       -1 0.39098235E-03 0.80272932E+02</pdfrwt>
<totfact> 0.32356902E+05</totfact>
</mgrwt>
</event>
<event>
 8    1  0.2603554E-024  0.7981621E+02  0.7818608E-02  0.1329574E+00
          2   -1    0    0  501    0  0.00000000000E+00  0.00000000000E+00  0.15419056899E+02  0.15419057109E+02  0.25500000000E-02 0. -1.
         -1   -1    0    0    0  501 -0.00000000000E+00 -0.00000000000E+00 -0.10329144832E+03  0.10329144844E+03  0.50400000000E-02 0.  1.
         24    2    1    2    0    0  0.88817841970E-15  0.00000000000E+00 -0.87872391419E+02  0.11871050555E+03  0.79816207341E+02 0.  0.
         66    2    3    3    0    0 -0.78933817464E+01 -0.17844323711E+02  0.77704717744E+01  0.21097525840E+02  0.20000002169E+01 0.  0.
        -13    1    3    3    0    0  0.78933817464E+01  0.17844323711E+02 -0.95642863194E+02  0.97612979711E+02  0.10566000000E+00 0.  1.
         13    1    4    4    0    0 -0.54110859274E+01 -0.12808819036E+02  0.54874887175E+01  0.14948892684E+02  0.10566000000E+00 0. -1.
        -13    1    4    4    0    0 -0.15542604035E+01 -0.20285184238E+01  0.11446161979E+01  0.28021282401E+01  0.10566000000E+00 0.  1.
        -14    1    4    4    0    0 -0.92803541554E+00 -0.30069862505E+01  0.11383668590E+01  0.33465049154E+01  0.00000000000E+00 0.  1.
<mgrwt>
<rscale>  0 0.79816207E+02</rscale>
<asrwt>0</asrwt>
<pdfrwt beam="1">  1        2 0.23721627E-02 0.79816207E+02</pdfrwt>
<pdfrwt beam="2">  1       -1 0.15890992E-01 0.79816207E+02</pdfrwt>
<totfact> 0.11838374E+05</totfact>
</mgrwt>
</event>
<event>
 8    1  0.2603554E-024  0.7966351E+02  0.7818608E-02  0.1330009E+00
         -1   -1    0    0    0  501 -0.00000000000E+00  0.00000000000E+00  0.21628680913E+01  0.21628739635E+01  0.50400000000E-02 0.  1.
          2   -1    0    0  501    0  0.00000000000E+00 -0.00000000000E+00 -0.73354758865E+03  0.73354758865E+03  0.25500000000E-02 0. -1.
         24    2    1    2    0    0  0.00000000000E+00  0.00000000000E+00 -0.73138472055E+03  0.73571046261E+03  0.79663513221E+02 0.  0.
         66    2    3    3    0    0 -0.19849622369E+01  0.33554626687E+02 -0.56285368150E+03  0.56386001793E+03  0.20000002997E+01 0.  0.
        -13    1    3    3    0    0  0.19849622369E+01 -0.33554626687E+02 -0.16853103906E+03  0.17185044468E+03  0.10566000000E+00 0.  1.
         13    1    4    4    0    0 -0.14960923816E+01  0.24020895139E+02 -0.41548043198E+03  0.41617693619E+03  0.10566000000E+00 0. -1.
        -13    1    4    4    0    0 -0.25848480766E+00  0.83612894073E+01 -0.12942886369E+03  0.12969895873E+03  0.10566000000E+00 0.  1.
         14    1    4    4    0    0 -0.23038504761E+00  0.11724421409E+01 -0.17944385826E+02  0.17984123012E+02  0.00000000000E+00 0. -1.
<mgrwt>
<rscale>  0 0.79663513E+02</rscale>
<asrwt>0</asrwt>
<pdfrwt beam="1">  1        2 0.11285328E+00 0.79663513E+02</pdfrwt>
<pdfrwt beam="2">  1       -1 0.33274998E-03 0.79663513E+02</pdfrwt>
<totfact> 0.34170016E+05</totfact>
</mgrwt>
</event>
<event>
 8    1  0.2603554E-024  0.8304288E+02  0.7818608E-02  0.1320631E+00
          2   -1    0    0  501    0  0.00000000000E+00  0.00000000000E+00  0.61522272093E+03  0.61522272093E+03  0.25500000000E-02 0. -1.
         -1   -1    0    0    0  501 -0.00000000000E+00 -0.00000000000E+00 -0.28022833689E+01  0.28022879012E+01  0.50400000000E-02 0.  1.
         24    2    1    2    0    0  0.00000000000E+00  0.00000000000E+00  0.61242043756E+03  0.61802500883E+03  0.83042875702E+02 0.  0.
         66    2    3    3    0    0 -0.36351278575E+02 -0.76732216581E+01  0.44396434589E+03  0.44552063275E+03  0.19999993934E+01 0.  0.
        -13    1    3    3    0    0  0.36351278575E+02  0.76732216581E+01  0.16845609167E+03  0.17250437608E+03  0.10566000000E+00 0.  1.
         13    1    4    4    0    0 -0.17420738910E+02 -0.42551447822E+01  0.22260307531E+03  0.22332426805E+03  0.10566000000E+00 0. -1.
        -13    1    4    4    0    0 -0.29741187773E+01 -0.37205209292E+00  0.35786314816E+02  0.35911771015E+02  0.10566000000E+00 0.  1.
         14    1    4    4    0    0 -0.15956420888E+02 -0.30460247830E+01  0.18557495577E+03  0.18628459368E+03  0.00000000000E+00 0. -1.
<mgrwt>
<rscale>  0 0.83042876E+02</rscale>
<asrwt>0</asrwt>
<pdfrwt beam="1">  1        2 0.94649677E-01 0.83042876E+02</pdfrwt>
<pdfrwt beam="2">  1       -1 0.43112074E-03 0.83042876E+02</pdfrwt>
<totfact> 0.29383017E+05</totfact>
</mgrwt>
</event>
<event>
 8    1  0.2603554E-024  0.8071489E+02  0.7818608E-02  0.1327035E+00
         -1   -1    0    0    0  501 -0.00000000000E+00  0.00000000000E+00  0.81031916112E+01  0.81031931786E+01  0.50400000000E-02 0.  1.
          2   -1    0    0  501    0  0.00000000000E+00 -0.00000000000E+00 -0.20099772351E+03  0.20099772353E+03  0.25500000000E-02 0. -1.
         24    2    1    2    0    0  0.00000000000E+00 -0.44408920985E-15 -0.19289453190E+03  0.20910091671E+03  0.80714886672E+02 0.  0.
         66    2    3    3    0    0 -0.30749299465E+02 -0.38715365087E+01 -0.16337270836E+03  0.16629837657E+03  0.20000005676E+01 0.  0.
        -13    1    3    3    0    0  0.30749299465E+02  0.38715365087E+01 -0.29521823543E+02  0.42802540133E+02  0.10566000000E+00 0.  1.
         13    1    4    4    0    0 -0.13307918279E+02 -0.13865259761E+01 -0.70321387599E+02  0.71583041714E+02  0.10566000000E+00 0. -1.
        -13    1    4    4    0    0 -0.71232444625E+01 -0.10159385635E+01 -0.34297831711E+02  0.35044616804E+02  0.10566000000E+00 0.  1.
         14    1    4    4    0    0 -0.10318136724E+02 -0.14690719691E+01 -0.58753489049E+02  0.59670718056E+02  0.00000000000E+00 0. -1.
<mgrwt>
<rscale>  0 0.80714887E+02</rscale>
<asrwt>0</asrwt>
<pdfrwt beam="1">  1        2 0.30922723E-01 0.80714887E+02</pdfrwt>
<pdfrwt beam="2">  1       -1 0.12466451E-02 0.80714887E+02</pdfrwt>
<totfact> 0.21583868E+05</totfact>
</mgrwt>
</event>
<event>
 8    1  0.2603554E-024  0.8277120E+02  0.7818608E-02  0.1321366E+00
         -1   -1    0    0    0  501 -0.00000000000E+00  0.00000000000E+00  0.69767231185E+01  0.69767249390E+01  0.50400000000E-02 0.  1.
          2   -1    0    0  501    0  0.00000000000E+00 -0.00000000000E+00 -0.24549745523E+03  0.24549745525E+03  0.25500000000E-02 0. -1.
         24    2    1    2    0    0  0.35527136788E-14  0.00000000000E+00 -0.23852073211E+03  0.25247418018E+03  0.82771202793E+02 0.  0.
         66    2    3    3    0    0  0.16709600786E+02  0.85374179595E+01 -0.23176281681E+03  0.23252978631E+03  0.19999997472E+01 0.  0.
        -13    1    3    3    0    0 -0.16709600786E+02 -0.85374179595E+01 -0.67579152987E+01  0.19944393876E+02  0.10566000000E+00 0.  1.
         13    1    4    4    0    0  0.82240115851E+01  0.45521360447E+01 -0.12084912828E+03  0.12121418761E+03  0.10566000000E+00 0. -1.
        -13    1    4    4    0    0  0.15431863410E+01  0.12408420820E+01 -0.24348890420E+02  0.24429505559E+02  0.10566000000E+00 0.  1.
         14    1    4    4    0    0  0.69424028600E+01  0.27444398329E+01 -0.86564798117E+02  0.86886093137E+02  0.00000000000E+00 0. -1.
<mgrwt>
<rscale>  0 0.82771203E+02</rscale>
<asrwt>0</asrwt>
<pdfrwt beam="1">  1        2 0.37768833E-01 0.82771203E+02</pdfrwt>
<pdfrwt beam="2">  1       -1 0.10733424E-02 0.82771203E+02</pdfrwt>
<totfact> 0.21678981E+05</totfact>
</mgrwt>
</event>
<event>
 8    1  0.2603554E-024  0.8797934E+02  0.7818608E-02  0.1307820E+00
          2   -1    0    0  501    0  0.00000000000E+00  0.00000000000E+00  0.96871062496E+02  0.96871062529E+02  0.25500000000E-02 0. -1.
         -1   -1    0    0    0  501 -0.00000000000E+00 -0.00000000000E+00 -0.19975944615E+02  0.19975945251E+02  0.50400000000E-02 0.  1.
         24    2    1    2    0    0  0.00000000000E+00  0.35527136788E-14  0.76895117880E+02  0.11684700778E+03  0.87979338900E+02 0.  0.
         66    2    3    3    0    0 -0.43103763292E+01  0.31858576406E+02  0.78300699893E+02  0.84667277211E+02  0.19999979356E+01 0.  0.
        -13    1    3    3    0    0  0.43103763292E+01 -0.31858576406E+02 -0.14055820130E+01  0.32179730570E+02  0.10566000000E+00 0.  1.
         13    1    4    4    0    0 -0.33572387890E+01  0.24719129133E+02  0.60493066389E+02  0.65434919138E+02  0.10566000000E+00 0. -1.
        -13    1    4    4    0    0 -0.58570985922E+00  0.15146577994E+01  0.40561296123E+01  0.43704228349E+01  0.10566000000E+00 0.  1.
         14    1    4    4    0    0 -0.36742768099E+00  0.56247894733E+01  0.13751503892E+02  0.14861935238E+02  0.00000000000E+00 0. -1.
<mgrwt>
<rscale>  0 0.87979339E+02</rscale>
<asrwt>0</asrwt>
<pdfrwt beam="1">  1        2 0.14903240E-01 0.87979339E+02</pdfrwt>
<pdfrwt beam="2">  1       -1 0.30732223E-02 0.87979339E+02</pdfrwt>
<totfact> 0.13596312E+05</totfact>
</mgrwt>
</event>
<event>
 8    1  0.2603554E-024  0.7918422E+02  0.7818608E-02  0.1331383E+00
          2   -1    0    0  501    0  0.00000000000E+00  0.00000000000E+00  0.70791181575E+03  0.70791181576E+03  0.25500000000E-02 0. -1.
         -1   -1    0    0    0  501 -0.00000000000E+00 -0.00000000000E+00 -0.22143057618E+01  0.22143114976E+01  0.50400000000E-02 0.  1.
         24    2    1    2    0    0 -0.88817841970E-15  0.00000000000E+00  0.70569750999E+03  0.71012612726E+03  0.79184221931E+02 0.  0.
         66    2    3    3    0    0 -0.57550563114E+01  0.18237726144E+02  0.66370820326E+03  0.66398668239E+03  0.19999995635E+01 0.  0.
        -13    1    3    3    0    0  0.57550563114E+01 -0.18237726144E+02  0.41989306736E+02  0.46139444863E+02  0.10566000000E+00 0.  1.
         13    1    4    4    0    0 -0.23712574453E+01  0.89144022985E+01  0.31949072141E+03  0.31962387530E+03  0.10566000000E+00 0. -1.
        -13    1    4    4    0    0  0.41429995030E-01  0.79816938555E+00  0.23911371670E+02  0.23924958725E+02  0.10566000000E+00 0.  1.
        -14    1    4    4    0    0 -0.34252288611E+01  0.85251544598E+01  0.32030611017E+03  0.32043784836E+03  0.00000000000E+00 0.  1.
<mgrwt>
<rscale>  0 0.79184222E+02</rscale>
<asrwt>0</asrwt>
<pdfrwt beam="1">  1        2 0.10890948E+00 0.79184222E+02</pdfrwt>
<pdfrwt beam="2">  1       -1 0.34066296E-03 0.79184222E+02</pdfrwt>
<totfact> 0.34442096E+05</totfact>
</mgrwt>
</event>
<event>
 8    1  0.2603554E-024  0.8200151E+02  0.7818608E-02  0.1323466E+00
         -1   -1    0    0    0  501 -0.00000000000E+00  0.00000000000E+00  0.26872874520E+02  0.26872874992E+02  0.50400000000E-02 0.  1.
          2   -1    0    0  501    0  0.00000000000E+00 -0.00000000000E+00 -0.62556087479E+02  0.62556087531E+02  0.25500000000E-02 0. -1.
         24    2    1    2    0    0  0.00000000000E+00  0.00000000000E+00 -0.35683212959E+02  0.89428962523E+02  0.82001510053E+02 0.  0.
         66    2    3    3    0    0  0.20584279684E+02 -0.26254863202E+02 -0.43798448081E+02  0.55093869441E+02  0.19999959343E+01 0.  0.
        -13    1    3    3    0    0 -0.20584279684E+02  0.26254863202E+02  0.81152351219E+01  0.34335093083E+02  0.10566000000E+00 0.  1.
         13    1    4    4    0    0  0.20356284917E+01 -0.30233503215E+01 -0.41831116621E+01  0.55492357795E+01  0.10566000000E+00 0. -1.
        -13    1    4    4    0    0  0.62638664808E+01 -0.79453524415E+01 -0.12530372167E+02  0.16105466134E+02  0.10566000000E+00 0.  1.
         14    1    4    4    0    0  0.12284784711E+02 -0.15286160439E+02 -0.27084964252E+02  0.33439167527E+02  0.00000000000E+00 0. -1.
<mgrwt>
<rscale>  0 0.82001510E+02</rscale>
<asrwt>0</asrwt>
<pdfrwt beam="1">  1        2 0.96240134E-02 0.82001510E+02</pdfrwt>
<pdfrwt beam="2">  1       -1 0.41342885E-02 0.82001510E+02</pdfrwt>
<totfact> 0.14695787E+05</totfact>
</mgrwt>
</event>
<event>
 8    1  0.2603554E-024  0.8136803E+02  0.7818608E-02  0.1325213E+00
         -1   -1    0    0    0  501 -0.00000000000E+00  0.00000000000E+00  0.48396873898E+02  0.48396874161E+02  0.50400000000E-02 0.  1.
          2   -1    0    0  501    0  0.00000000000E+00 -0.00000000000E+00 -0.34200328709E+02  0.34200328804E+02  0.25500000000E-02 0. -1.
         24    2    1    2    0    0 -0.35527136788E-14 -0.88817841970E-15  0.14196545189E+02  0.82597202965E+02  0.81368028379E+02 0.  0.
         66    2    3    3    0    0 -0.30274447316E+02  0.56754288854E+01 -0.19839516752E+02  0.36692766035E+02  0.20000002474E+01 0.  0.
        -13    1    3    3    0    0  0.30274447316E+02 -0.56754288854E+01  0.34036061942E+02  0.45904436930E+02  0.10566000000E+00 0.  1.
         13    1    4    4    0    0 -0.21929060417E+02  0.47415819805E+01 -0.13872399536E+02  0.26378417757E+02  0.10566000000E+00 0. -1.
        -13    1    4    4    0    0 -0.35215553666E+01  0.20793838382E+00 -0.23193656198E+01  0.42231755215E+01  0.10566000000E+00 0.  1.
         14    1    4    4    0    0 -0.48238315328E+01  0.72590852101E+00 -0.36477515966E+01  0.60911727564E+01  0.00000000000E+00 0. -1.
<mgrwt>
<rscale>  0 0.81368028E+02</rscale>
<asrwt>0</asrwt>
<pdfrwt beam="1">  1        2 0.52615891E-02 0.81368028E+02</pdfrwt>
<pdfrwt beam="2">  1       -1 0.74456729E-02 0.81368028E+02</pdfrwt>
<totfact> 0.13172168E+05</totfact>
</mgrwt>
</event>
<event>
 8    1  0.2603554E-024  0.7869462E+02  0.7818608E-02  0.1332797E+00
          2   -1    0    0  501    0  0.00000000000E+00  0.00000000000E+00  0.60366757468E+02  0.60366757522E+02  0.25500000000E-02 0. -1.
         -1   -1    0    0    0  501 -0.00000000000E+00 -0.00000000000E+00 -0.25646742302E+02  0.25646742797E+02  0.50400000000E-02 0.  1.
         24    2    1    2    0    0 -0.17763568394E-14  0.35527136788E-14  0.34720015166E+02  0.86013500320E+02  0.78694617250E+02 0.  0.
         66    2    3    3    0    0  0.12576547446E+02 -0.29379605537E+02  0.42412066164E+02  0.53142394774E+02  0.19999997248E+01 0.  0.
        -13    1    3    3    0    0 -0.12576547446E+02  0.29379605537E+02 -0.76920509973E+01  0.32871105545E+02  0.10566000000E+00 0.  1.
         13    1    4    4    0    0  0.28820922784E+01 -0.88061642590E+01  0.12033874544E+02  0.15188162675E+02  0.10566000000E+00 0. -1.
        -13    1    4    4    0    0  0.44398359029E+01 -0.87520915535E+01  0.13341251919E+02  0.16562349356E+02  0.10566000000E+00 0.  1.
         14    1    4    4    0    0  0.52546192650E+01 -0.11821349725E+02  0.17036939701E+02  0.21391882743E+02  0.00000000000E+00 0. -1.
<mgrwt>
<rscale>  0 0.78694617E+02</rscale>
<asrwt>0</asrwt>
<pdfrwt beam="1">  1        2 0.92871933E-02 0.78694617E+02</pdfrwt>
<pdfrwt beam="2">  1       -1 0.39456528E-02 0.78694617E+02</pdfrwt>
<totfact> 0.16300758E+05</totfact>
</mgrwt>
</event>
<event>
 8    1  0.2603554E-024  0.7892333E+02  0.7818608E-02  0.1332135E+00
         -1   -1    0    0    0  501 -0.00000000000E+00  0.00000000000E+00  0.70013029102E+01  0.70013047243E+01  0.50400000000E-02 0.  1.
          2   -1    0    0  501    0  0.00000000000E+00 -0.00000000000E+00 -0.22241900722E+03  0.22241900723E+03  0.25500000000E-02 0. -1.
         24    2    1    2    0    0  0.00000000000E+00  0.00000000000E+00 -0.21541770431E+03  0.22942031196E+03  0.78923331209E+02 0.  0.
         66    2    3    3    0    0  0.24099564830E+02  0.26446178380E+01 -0.19819217834E+03  0.19967954974E+03  0.19999998253E+01 0.  0.
        -13    1    3    3    0    0 -0.24099564830E+02 -0.26446178380E+01 -0.17225525965E+02  0.29740762218E+02  0.10566000000E+00 0.  1.
         13    1    4    4    0    0  0.43768811523E+01  0.69150861490E+00 -0.39719454302E+02  0.39966004139E+02  0.10566000000E+00 0. -1.
        -13    1    4    4    0    0  0.19526836763E+01  0.51796289212E+00 -0.18389696116E+02  0.18500630972E+02  0.10566000000E+00 0.  1.
        -14    1    4    4    0    0  0.17770000001E+02  0.14351463310E+01 -0.14008302792E+03  0.14121291463E+03  0.00000000000E+00 0.  1.
<mgrwt>
<rscale>  0 0.78923331E+02</rscale>
<asrwt>0</asrwt>
<pdfrwt beam="1">  1        2 0.34218303E-01 0.78923331E+02</pdfrwt>
<pdfrwt beam="2">  1       -1 0.10771238E-02 0.78923331E+02</pdfrwt>
<totfact> 0.23726752E+05</totfact>
</mgrwt>
</event>
<event>
 8    1  0.2603554E-024  0.7899688E+02  0.7818608E-02  0.1331922E+00
          2   -1    0    0  501    0  0.00000000000E+00  0.00000000000E+00  0.41964459205E+02  0.41964459282E+02  0.25500000000E-02 0. -1.
         -1   -1    0    0    0  501 -0.00000000000E+00 -0.00000000000E+00 -0.37177337839E+02  0.37177338180E+02  0.50400000000E-02 0.  1.
         24    2    1    2    0    0  0.00000000000E+00  0.00000000000E+00  0.47871213664E+01  0.79141797463E+02  0.78996883322E+02 0.  0.
         66    2    3    3    0    0 -0.28620811880E+02 -0.70058875536E+01  0.28709004046E+02  0.41187865281E+02  0.19999999980E+01 0.  0.
        -13    1    3    3    0    0  0.28620811880E+02  0.70058875536E+01 -0.23921882680E+02  0.37953932182E+02  0.10566000000E+00 0.  1.
         13    1    4    4    0    0 -0.96887321931E+01 -0.22461653634E+01  0.96823188790E+01  0.13880751178E+02  0.10566000000E+00 0. -1.
        -13    1    4    4    0    0 -0.65410164049E+00  0.67582895511E-01  0.86764195920E+00  0.10937929460E+01  0.10566000000E+00 0.  1.
        -14    1    4    4    0    0 -0.18277978046E+02 -0.48273050857E+01  0.18159043208E+02  0.26213321157E+02  0.00000000000E+00 0.  1.
<mgrwt>
<rscale>  0 0.78996883E+02</rscale>
<asrwt>0</asrwt>
<pdfrwt beam="1">  1        2 0.64560706E-02 0.78996883E+02</pdfrwt>
<pdfrwt beam="2">  1       -1 0.57195905E-02 0.78996883E+02</pdfrwt>
<totfact> 0.14906586E+05</totfact>
</mgrwt>
</event>
<event>
 8    1  0.2603554E-024  0.8088069E+02  0.7818608E-02  0.1326571E+00
         -1   -1    0    0    0  501 -0.00000000000E+00  0.00000000000E+00  0.12817728625E+02  0.12817729616E+02  0.50400000000E-02 0.  1.
          2   -1    0    0  501    0  0.00000000000E+00 -0.00000000000E+00 -0.12759056977E+03  0.12759056980E+03  0.25500000000E-02 0. -1.
         24    2    1    2    0    0 -0.17763568394E-14  0.00000000000E+00 -0.11477284114E+03  0.14040829941E+03  0.80880686689E+02 0.  0.
         66    2    3    3    0    0  0.93890369662E+01  0.37031267905E+02 -0.34525542180E+02  0.51531367799E+02  0.19999966567E+01 0.  0.
        -13    1    3    3    0    0 -0.93890369662E+01 -0.37031267905E+02 -0.80247298964E+02  0.88876931613E+02  0.10566000000E+00 0.  1.
         13    1    4    4    0    0  0.25072288313E+01  0.78247486108E+01 -0.76276569512E+01  0.11211833117E+02  0.10566000000E+00 0. -1.
        -13    1    4    4    0    0  0.31598854799E+01  0.14194975663E+02 -0.13894001672E+02  0.20113096649E+02  0.10566000000E+00 0.  1.
        -14    1    4    4    0    0  0.37219226551E+01  0.15011543631E+02 -0.13003883557E+02  0.20206438034E+02  0.00000000000E+00 0.  1.
<mgrwt>
<rscale>  0 0.80880687E+02</rscale>
<asrwt>0</asrwt>
<pdfrwt beam="1">  1        2 0.19629318E-01 0.80880687E+02</pdfrwt>
<pdfrwt beam="2">  1       -1 0.19719584E-02 0.80880687E+02</pdfrwt>
<totfact> 0.18489551E+05</totfact>
</mgrwt>
</event>
<event>
 8    1  0.2603554E-024  0.7813659E+02  0.7818608E-02  0.1334424E+00
         -1   -1    0    0    0  501 -0.00000000000E+00  0.00000000000E+00  0.14895379973E+01  0.14895465239E+01  0.50400000000E-02 0.  1.
          2   -1    0    0  501    0  0.00000000000E+00 -0.00000000000E+00 -0.10246984527E+04  0.10246984527E+04  0.25500000000E-02 0. -1.
         24    2    1    2    0    0  0.00000000000E+00  0.00000000000E+00 -0.10232089147E+04  0.10261879992E+04  0.78136589576E+02 0.  0.
         66    2    3    3    0    0 -0.38470028356E+01 -0.20481973840E+02 -0.94553835963E+03  0.94577010959E+03  0.19999980148E+01 0.  0.
        -13    1    3    3    0    0  0.38470028356E+01  0.20481973840E+02 -0.77670555068E+02  0.80417889625E+02  0.10566000000E+00 0.  1.
         13    1    4    4    0    0 -0.30336785602E+01 -0.15183261860E+02 -0.67028975226E+03  0.67046856585E+03  0.10566000000E+00 0. -1.
        -13    1    4    4    0    0  0.70585201346E-01 -0.42791724805E+00 -0.24801990025E+02  0.24806006706E+02  0.10566000000E+00 0. -1.
         14    1    4    4    0    0 -0.88390947674E+00 -0.48707947318E+01 -0.25044661734E+03  0.25049553704E+03  0.00000000000E+00 0. -1.
<mgrwt>
<rscale>  0 0.78136590E+02</rscale>
<asrwt>0</asrwt>
<pdfrwt beam="1">  1        2 0.15764535E+00 0.78136590E+02</pdfrwt>
<pdfrwt beam="2">  1       -1 0.22916117E-03 0.78136590E+02</pdfrwt>
<totfact> 0.37481653E+05</totfact>
</mgrwt>
</event>
<event>
 8    1  0.2603554E-024  0.7062474E+02  0.7818608E-02  0.1357981E+00
         -1   -1    0    0    0  501 -0.00000000000E+00  0.00000000000E+00  0.14303238533E+02  0.14303239421E+02  0.50400000000E-02 0.  1.
          2   -1    0    0  501    0  0.00000000000E+00 -0.00000000000E+00 -0.87180497962E+02  0.87180497999E+02  0.25500000000E-02 0. -1.
         24    2    1    2    0    0  0.00000000000E+00  0.00000000000E+00 -0.72877259429E+02  0.10148373742E+03  0.70624740841E+02 0.  0.
         66    2    3    3    0    0  0.10645676707E+01  0.16479141629E+02 -0.81273291161E+02  0.82958081534E+02  0.20000056213E+01 0.  0.
        -13    1    3    3    0    0 -0.10645676707E+01 -0.16479141629E+02  0.83960317317E+01  0.18525655886E+02  0.10566000000E+00 0.  1.
         13    1    4    4    0    0 -0.10895077553E-01  0.13763314909E+01 -0.71350521218E+01  0.72673612744E+01  0.10566000000E+00 0. -1.
        -13    1    4    4    0    0  0.11829590413E+01  0.82493611704E+01 -0.37238823490E+02  0.38160090288E+02  0.10566000000E+00 0.  1.
        -14    1    4    4    0    0 -0.10749629310E+00  0.68534489674E+01 -0.36899415549E+02  0.37530629971E+02  0.00000000000E+00 0.  1.
<mgrwt>
<rscale>  0 0.70624741E+02</rscale>
<asrwt>0</asrwt>
<pdfrwt beam="1">  1        2 0.13412384E-01 0.70624741E+02</pdfrwt>
<pdfrwt beam="2">  1       -1 0.22004984E-02 0.70624741E+02</pdfrwt>
<totfact> 0.23804200E+05</totfact>
</mgrwt>
</event>
<event>
 8    1  0.2603554E-024  0.7988551E+02  0.7818608E-02  0.1329377E+00
         -1   -1    0    0    0  501 -0.00000000000E+00  0.00000000000E+00  0.30475202257E+01  0.30475243933E+01  0.50400000000E-02 0.  1.
          2   -1    0    0  501    0  0.00000000000E+00 -0.00000000000E+00 -0.52351500684E+03  0.52351500685E+03  0.25500000000E-02 0. -1.
         24    2    1    2    0    0  0.00000000000E+00  0.00000000000E+00 -0.52046748662E+03  0.52656253124E+03  0.79885509842E+02 0.  0.
         66    2    3    3    0    0  0.31141133825E+02  0.90856908090E+00 -0.42489577907E+03  0.42604109989E+03  0.20000024812E+01 0.  0.
        -13    1    3    3    0    0 -0.31141133825E+02 -0.90856908090E+00 -0.95571707545E+02  0.10052143135E+03  0.10566000000E+00 0.  1.
         13    1    4    4    0    0  0.20082767895E+02 -0.20335705228E-01 -0.28151272066E+03  0.28222817194E+03  0.10566000000E+00 0. -1.
        -13    1    4    4    0    0  0.95930890724E+01  0.62713651663E+00 -0.12470461275E+03  0.12507466675E+03  0.10566000000E+00 0.  1.
        -14    1    4    4    0    0  0.14652768572E+01  0.30176826950E+00 -0.18678445658E+02  0.18738261193E+02  0.00000000000E+00 0.  1.
<mgrwt>
<rscale>  0 0.79885510E+02</rscale>
<asrwt>0</asrwt>
<pdfrwt beam="1">  1        2 0.80540699E-01 0.79885510E+02</pdfrwt>
<pdfrwt beam="2">  1       -1 0.46885000E-03 0.79885510E+02</pdfrwt>
<totfact> 0.31009867E+05</totfact>
</mgrwt>
</event>
<event>
 8    1  0.2603554E-024  0.7803580E+02  0.7818608E-02  0.1334720E+00
         -1   -1    0    0    0  501 -0.00000000000E+00  0.00000000000E+00  0.20479824218E+01  0.20479886234E+01  0.50400000000E-02 0.  1.
          2   -1    0    0  501    0  0.00000000000E+00 -0.00000000000E+00 -0.74336289704E+03  0.74336289704E+03  0.25500000000E-02 0. -1.
         24    2    1    2    0    0  0.00000000000E+00  0.00000000000E+00 -0.74131491462E+03  0.74541088567E+03  0.78035798430E+02 0.  0.
         66    2    3    3    0    0 -0.17031679718E+02 -0.78831013437E+01 -0.69737898401E+03  0.69763433741E+03  0.19999992577E+01 0.  0.
        -13    1    3    3    0    0  0.17031679718E+02  0.78831013437E+01 -0.43935930612E+02  0.47776548260E+02  0.10566000000E+00 0.  1.
         13    1    4    4    0    0 -0.85084701811E+01 -0.38112095130E+01 -0.34810954144E+03  0.34823437996E+03  0.10566000000E+00 0. -1.
        -13    1    4    4    0    0 -0.34598207549E+01 -0.14577037511E+01 -0.16351868316E+03  0.16356181146E+03  0.10566000000E+00 0.  1.
         14    1    4    4    0    0 -0.50633887816E+01 -0.26141880797E+01 -0.18575075940E+03  0.18583814599E+03  0.00000000000E+00 0. -1.
<mgrwt>
<rscale>  0 0.78035798E+02</rscale>
<asrwt>0</asrwt>
<pdfrwt beam="1">  1        2 0.11436331E+00 0.78035798E+02</pdfrwt>
<pdfrwt beam="2">  1       -1 0.31507529E-03 0.78035798E+02</pdfrwt>
<totfact> 0.36150138E+05</totfact>
</mgrwt>
</event>
<event>
 8    1  0.2603554E-024  0.8066870E+02  0.7818608E-02  0.1327164E+00
         -1   -1    0    0    0  501 -0.00000000000E+00  0.00000000000E+00  0.62594246608E+02  0.62594246811E+02  0.50400000000E-02 0.  1.
          2   -1    0    0  501    0  0.00000000000E+00 -0.00000000000E+00 -0.25990561549E+02  0.25990561674E+02  0.25500000000E-02 0. -1.
         24    2    1    2    0    0  0.35527136788E-14  0.88817841970E-15  0.36603685059E+02  0.88584808485E+02  0.80668696125E+02 0.  0.
         66    2    3    3    0    0  0.19038326627E+02  0.76713697864E+01 -0.19783495444E+02  0.28577866518E+02  0.19999918942E+01 0.  0.
        -13    1    3    3    0    0 -0.19038326627E+02 -0.76713697864E+01  0.56387180503E+02  0.60006941968E+02  0.10566000000E+00 0.  1.
         13    1    4    4    0    0  0.39497880835E+01  0.11368144497E+01 -0.39329171316E+01  0.56896550157E+01  0.10566000000E+00 0.  1.
        -13    1    4    4    0    0  0.99452883904E+01  0.45642345677E+01 -0.11449769278E+02  0.15838225245E+02  0.10566000000E+00 0. -1.
        -14    1    4    4    0    0  0.51432501526E+01  0.19703207690E+01 -0.44008090345E+01  0.70499862569E+01  0.00000000000E+00 0.  1.
<mgrwt>
<rscale>  0 0.80668696E+02</rscale>
<asrwt>0</asrwt>
<pdfrwt beam="1">  1        2 0.39985480E-02 0.80668696E+02</pdfrwt>
<pdfrwt beam="2">  1       -1 0.96298841E-02 0.80668696E+02</pdfrwt>
<totfact> 0.12775979E+05</totfact>
</mgrwt>
</event>
<event>
 8    1  0.2603554E-024  0.7982080E+02  0.7818608E-02  0.1329561E+00
         -1   -1    0    0    0  501 -0.00000000000E+00  0.00000000000E+00  0.28317414286E+02  0.28317414734E+02  0.50400000000E-02 0.  1.
          2   -1    0    0  501    0  0.00000000000E+00 -0.00000000000E+00 -0.56249484406E+02  0.56249484464E+02  0.25500000000E-02 0. -1.
         24    2    1    2    0    0  0.00000000000E+00  0.00000000000E+00 -0.27932070120E+02  0.84566899198E+02  0.79820798661E+02 0.  0.
         66    2    3    3    0    0  0.11120665187E+01 -0.33176316522E+02 -0.37401301541E+02  0.50047597676E+02  0.20000015602E+01 0.  0.
        -13    1    3    3    0    0 -0.11120665187E+01  0.33176316522E+02  0.94692314211E+01  0.34519301523E+02  0.10566000000E+00 0.  1.
         13    1    4    4    0    0  0.29245085886E+00 -0.20264401455E+02 -0.22654792318E+02  0.30397076715E+02  0.10566000000E+00 0. -1.
        -13    1    4    4    0    0 -0.12041294309E+00 -0.32283032318E+00 -0.33997542072E+00  0.49544527117E+00  0.10566000000E+00 0.  1.
         14    1    4    4    0    0  0.94002860294E+00 -0.12589084744E+02 -0.14406533802E+02  0.19155075689E+02  0.00000000000E+00 0. -1.
<mgrwt>
<rscale>  0 0.79820799E+02</rscale>
<asrwt>0</asrwt>
<pdfrwt beam="1">  1        2 0.86537668E-02 0.79820799E+02</pdfrwt>
<pdfrwt beam="2">  1       -1 0.43565253E-02 0.79820799E+02</pdfrwt>
<totfact> 0.15432430E+05</totfact>
</mgrwt>
</event>
<event>
 8    1  0.2603554E-024  0.7914895E+02  0.7818608E-02  0.1331484E+00
          2   -1    0    0  501    0  0.00000000000E+00  0.00000000000E+00  0.16292360492E+03  0.16292360494E+03  0.25500000000E-02 0. -1.
         -1   -1    0    0    0  501 -0.00000000000E+00 -0.00000000000E+00 -0.96127207016E+01  0.96127220229E+01  0.50400000000E-02 0.  1.
         24    2    1    2    0    0  0.00000000000E+00 -0.17763568394E-14  0.15331088421E+03  0.17253632696E+03  0.79148953890E+02 0.  0.
         66    2    3    3    0    0  0.32021274924E+02  0.11972901163E+02  0.12005191624E+03  0.12484059838E+03  0.20000001586E+01 0.  0.
        -13    1    3    3    0    0 -0.32021274924E+02 -0.11972901163E+02  0.33258967973E+02  0.47695728579E+02  0.10566000000E+00 0.  1.
         13    1    4    4    0    0  0.47527639651E+01  0.18208458117E+01  0.16038442092E+02  0.16826973392E+02  0.10566000000E+00 0. -1.
        -13    1    4    4    0    0  0.20277112745E+02  0.71170105138E+01  0.75458097637E+02  0.78458580175E+02  0.10566000000E+00 0.  1.
        -14    1    4    4    0    0  0.69913982142E+01  0.30350448372E+01  0.28555376513E+02  0.29555044814E+02  0.00000000000E+00 0.  1.
<mgrwt>
<rscale>  0 0.79148954E+02</rscale>
<asrwt>0</asrwt>
<pdfrwt beam="1">  1        2 0.25065170E-01 0.79148954E+02</pdfrwt>
<pdfrwt beam="2">  1       -1 0.14788802E-02 0.79148954E+02</pdfrwt>
<totfact> 0.21168073E+05</totfact>
</mgrwt>
</event>
<event>
 8    1  0.2603554E-024  0.7911209E+02  0.7818608E-02  0.1331590E+00
         -1   -1    0    0    0  501 -0.00000000000E+00  0.00000000000E+00  0.24876120280E+02  0.24876120791E+02  0.50400000000E-02 0.  1.
          2   -1    0    0  501    0  0.00000000000E+00 -0.00000000000E+00 -0.62898910285E+02  0.62898910337E+02  0.25500000000E-02 0. -1.
         24    2    1    2    0    0  0.00000000000E+00  0.00000000000E+00 -0.38022790005E+02  0.87775031127E+02  0.79112094711E+02 0.  0.
         66    2    3    3    0    0 -0.11294432760E+02  0.29076510567E+02 -0.45965644895E+02  0.55586402919E+02  0.20000001885E+01 0.  0.
        -13    1    3    3    0    0  0.11294432760E+02 -0.29076510567E+02  0.79428548896E+01  0.32188628209E+02  0.10566000000E+00 0.  1.
         13    1    4    4    0    0 -0.73684110950E+01  0.18327505663E+02 -0.29462713495E+02  0.35471870495E+02  0.10566000000E+00 0. -1.
        -13    1    4    4    0    0 -0.72436953287E+00  0.32818626185E+01 -0.44064703966E+01  0.55428764065E+01  0.10566000000E+00 0. -1.
        -14    1    4    4    0    0 -0.32016521319E+01  0.74671422857E+01 -0.12096461003E+02  0.14571656017E+02  0.00000000000E+00 0.  1.
<mgrwt>
<rscale>  0 0.79112095E+02</rscale>
<asrwt>0</asrwt>
<pdfrwt beam="1">  1        2 0.96767554E-02 0.79112095E+02</pdfrwt>
<pdfrwt beam="2">  1       -1 0.38270955E-02 0.79112095E+02</pdfrwt>
<totfact> 0.16222245E+05</totfact>
</mgrwt>
</event>
<event>
 8    1  0.2603554E-024  0.7943711E+02  0.7818608E-02  0.1330656E+00
         -1   -1    0    0    0  501 -0.00000000000E+00  0.00000000000E+00  0.15525972649E+02  0.15525973467E+02  0.50400000000E-02 0.  1.
          2   -1    0    0  501    0  0.00000000000E+00 -0.00000000000E+00 -0.10160804347E+03  0.10160804350E+03  0.25500000000E-02 0. -1.
         24    2    1    2    0    0  0.00000000000E+00  0.17763568394E-14 -0.86082070818E+02  0.11713401697E+03  0.79437113583E+02 0.  0.
         66    2    3    3    0    0  0.80029887900E+01 -0.13218508617E+02 -0.96980792856E+02  0.98224492759E+02  0.19999988213E+01 0.  0.
        -13    1    3    3    0    0 -0.80029887900E+01  0.13218508617E+02  0.10898722038E+02  0.18909524207E+02  0.10566000000E+00 0.  1.
         13    1    4    4    0    0  0.36527639276E+01 -0.45478658170E+01 -0.36228252717E+02  0.36695002749E+02  0.10566000000E+00 0.  1.
        -13    1    4    4    0    0  0.34309254442E+01 -0.58993429127E+01 -0.43124538983E+02  0.43661316091E+02  0.10566000000E+00 0. -1.
        -14    1    4    4    0    0  0.91929941811E+00 -0.27712998876E+01 -0.17628001155E+02  0.17868173920E+02  0.00000000000E+00 0.  1.
<mgrwt>
<rscale>  0 0.79437114E+02</rscale>
<asrwt>0</asrwt>
<pdfrwt beam="1">  1        2 0.15632006E-01 0.79437114E+02</pdfrwt>
<pdfrwt beam="2">  1       -1 0.23886113E-02 0.79437114E+02</pdfrwt>
<totfact> 0.18145129E+05</totfact>
</mgrwt>
</event>
<event>
 8    1  0.2811164E-024  0.8104736E+02  0.7818608E-02  0.1326105E+00
         -1   -1    0    0    0  501 -0.00000000000E+00  0.00000000000E+00  0.10140609545E+02  0.10140610798E+02  0.50400000000E-02 0.  1.
          2   -1    0    0  501    0  0.00000000000E+00 -0.00000000000E+00 -0.16193984269E+03  0.16193984271E+03  0.25500000000E-02 0. -1.
         24    2    1    2    0    0 -0.35527136788E-14  0.00000000000E+00 -0.15179923314E+03  0.17208045350E+03  0.81047364523E+02 0.  0.
         66    2    3    3    0    0  0.17859234940E+02 -0.10610816772E+02 -0.14975956689E+03  0.15120671144E+03  0.20000012124E+01 0.  0.
        -13    1    3    3    0    0 -0.17859234940E+02  0.10610816772E+02 -0.20396662502E+01  0.20873742062E+02  0.10566000000E+00 0.  1.
         13    1    4    4    0    0  0.89059241988E+01 -0.54394691647E+01 -0.73537712437E+02  0.74274555704E+02  0.10566000000E+00 0. -1.
        -13    1    4    4    0    0  0.85778153298E+01 -0.50627634401E+01 -0.70949154631E+02  0.71644987239E+02  0.10566000000E+00 0.  1.
        -14    1    4    4    0    0  0.37549541120E+00 -0.10858416721E+00 -0.52726998226E+01  0.52871684997E+01  0.00000000000E+00 0.  1.
<mgrwt>
<rscale>  0 0.81047365E+02</rscale>
<asrwt>0</asrwt>
<pdfrwt beam="1">  1        2 0.24913820E-01 0.81047365E+02</pdfrwt>
<pdfrwt beam="2">  1       -1 0.15600940E-02 0.81047365E+02</pdfrwt>
<totfact> 0.19839954E+05</totfact>
</mgrwt>
</event>
<event>
 8    1  0.2603554E-024  0.7750576E+02  0.7818608E-02  0.1336283E+00
          2   -1    0    0  501    0  0.00000000000E+00  0.00000000000E+00  0.10562650819E+03  0.10562650822E+03  0.25500000000E-02 0. -1.
         -1   -1    0    0    0  501 -0.00000000000E+00 -0.00000000000E+00 -0.14217884988E+02  0.14217885882E+02  0.50400000000E-02 0.  1.
         24    2    1    2    0    0 -0.17763568394E-14  0.00000000000E+00  0.91408623203E+02  0.11984439410E+03  0.77505757220E+02 0.  0.
         66    2    3    3    0    0  0.13268473185E+02  0.36323173623E+02  0.42507684515E+02  0.57500683183E+02  0.20000002549E+01 0.  0.
        -13    1    3    3    0    0 -0.13268473185E+02 -0.36323173623E+02  0.48900938688E+02  0.62343710921E+02  0.10566000000E+00 0.  1.
         13    1    4    4    0    0  0.23543353265E+01  0.86556098707E+01  0.97774178188E+01  0.13269195164E+02  0.10566000000E+00 0. -1.
        -13    1    4    4    0    0  0.40618068831E+00  0.11620351601E+01  0.12260161923E+01  0.17405712293E+01  0.10566000000E+00 0. -1.
        -14    1    4    4    0    0  0.10507957170E+02  0.26505528593E+02  0.31504250504E+02  0.42490916790E+02  0.00000000000E+00 0.  1.
<mgrwt>
<rscale>  0 0.77505757E+02</rscale>
<asrwt>0</asrwt>
<pdfrwt beam="1">  1        2 0.16250231E-01 0.77505757E+02</pdfrwt>
<pdfrwt beam="2">  1       -1 0.21873671E-02 0.77505757E+02</pdfrwt>
<totfact> 0.19591189E+05</totfact>
</mgrwt>
</event>
<event>
 8    1  0.2603554E-024  0.7844843E+02  0.7818608E-02  0.1333513E+00
         -1   -1    0    0    0  501 -0.00000000000E+00  0.00000000000E+00  0.53196030245E+02  0.53196030484E+02  0.50400000000E-02 0.  1.
          2   -1    0    0  501    0  0.00000000000E+00 -0.00000000000E+00 -0.28922067398E+02  0.28922067510E+02  0.25500000000E-02 0. -1.
         24    2    1    2    0    0  0.35527136788E-14 -0.35527136788E-14  0.24273962847E+02  0.82118097994E+02  0.78448433674E+02 0.  0.
         66    2    3    3    0    0 -0.22490318926E+02  0.25006941277E+02 -0.89308443068E+01  0.34855724592E+02  0.19999998341E+01 0.  0.
        -13    1    3    3    0    0  0.22490318926E+02 -0.25006941277E+02  0.33204807154E+02  0.47262373402E+02  0.10566000000E+00 0.  1.
         13    1    4    4    0    0 -0.16185102679E+02  0.16833110463E+02 -0.65738775315E+01  0.24259805985E+02  0.10566000000E+00 0. -1.
        -13    1    4    4    0    0 -0.22485811090E+01  0.31848488344E+01 -0.92748641449E+00  0.40088370117E+01  0.10566000000E+00 0.  1.
         14    1    4    4    0    0 -0.40566351387E+01  0.49889819795E+01 -0.14294803608E+01  0.65870815952E+01  0.00000000000E+00 0. -1.
<mgrwt>
<rscale>  0 0.78448434E+02</rscale>
<asrwt>0</asrwt>
<pdfrwt beam="1">  1        2 0.44495488E-02 0.78448434E+02</pdfrwt>
<pdfrwt beam="2">  1       -1 0.81840047E-02 0.78448434E+02</pdfrwt>
<totfact> 0.14112473E+05</totfact>
</mgrwt>
</event>
<event>
 8    1  0.2603554E-024  0.8227326E+02  0.7818608E-02  0.1322721E+00
         -1   -1    0    0    0  501 -0.00000000000E+00  0.00000000000E+00  0.34088795777E+02  0.34088796149E+02  0.50400000000E-02 0.  1.
          2   -1    0    0  501    0  0.00000000000E+00 -0.00000000000E+00 -0.49641598526E+02  0.49641598592E+02  0.25500000000E-02 0. -1.
         24    2    1    2    0    0  0.00000000000E+00 -0.17763568394E-14 -0.15552802749E+02  0.83730394741E+02  0.82273260116E+02 0.  0.
         66    2    3    3    0    0 -0.39119782992E+02  0.11547022352E+02 -0.25394081266E+01  0.40916252800E+02  0.20000007650E+01 0.  0.
        -13    1    3    3    0    0  0.39119782992E+02 -0.11547022352E+02 -0.13013394623E+02  0.42814141941E+02  0.10566000000E+00 0.  1.
         13    1    4    4    0    0 -0.95331612950E+01  0.25039642028E+01 -0.80592876014E+00  0.98899790802E+01  0.10566000000E+00 0. -1.
        -13    1    4    4    0    0 -0.28138596522E+01  0.57943960824E+00 -0.51901550518E+00  0.29213177732E+01  0.10566000000E+00 0.  1.
        -14    1    4    4    0    0 -0.26772762045E+02  0.84636185406E+01 -0.12144638613E+01  0.28104955947E+02  0.00000000000E+00 0.  1.
<mgrwt>
<rscale>  0 0.82273260E+02</rscale>
<asrwt>0</asrwt>
<pdfrwt beam="1">  1        2 0.76371691E-02 0.82273260E+02</pdfrwt>
<pdfrwt beam="2">  1       -1 0.52444301E-02 0.82273260E+02</pdfrwt>
<totfact> 0.13814926E+05</totfact>
</mgrwt>
</event>
<event>
 8    1  0.2603554E-024  0.7467696E+02  0.7818608E-02  0.1344874E+00
         -1   -1    0    0    0  501 -0.00000000000E+00  0.00000000000E+00  0.13944281565E+02  0.13944282476E+02  0.50400000000E-02 0.  1.
          2   -1    0    0  501    0  0.00000000000E+00 -0.00000000000E+00 -0.99980903864E+02  0.99980903896E+02  0.25500000000E-02 0. -1.
         24    2    1    2    0    0 -0.71054273576E-14  0.00000000000E+00 -0.86036622299E+02  0.11392518637E+03  0.74676955705E+02 0.  0.
         66    2    3    3    0    0  0.35790871728E+02  0.91522509715E+01 -0.51035697272E+02  0.63034852185E+02  0.19999992691E+01 0.  0.
        -13    1    3    3    0    0 -0.35790871728E+02 -0.91522509715E+01 -0.35000925026E+02  0.50890334187E+02  0.10566000000E+00 0.  1.
         13    1    4    4    0    0  0.60047112113E+01  0.16829652234E+01 -0.79892485726E+01  0.10135491378E+02  0.10566000000E+00 0. -1.
        -13    1    4    4    0    0  0.67647240995E+01  0.19095321930E+01 -0.88429898697E+01  0.11296788889E+02  0.10566000000E+00 0.  1.
         14    1    4    4    0    0  0.23021436417E+02  0.55597535551E+01 -0.34203458830E+02  0.41602571919E+02  0.00000000000E+00 0. -1.
<mgrwt>
<rscale>  0 0.74676956E+02</rscale>
<asrwt>0</asrwt>
<pdfrwt beam="1">  1        2 0.15381677E-01 0.74676956E+02</pdfrwt>
<pdfrwt beam="2">  1       -1 0.21452742E-02 0.74676956E+02</pdfrwt>
<totfact> 0.21298251E+05</totfact>
</mgrwt>
</event>
<event>
 8    1  0.2603554E-024  0.8211290E+02  0.7818608E-02  0.1323160E+00
          2   -1    0    0  501    0  0.00000000000E+00  0.00000000000E+00  0.14922833035E+03  0.14922833038E+03  0.25500000000E-02 0. -1.
         -1   -1    0    0    0  501 -0.00000000000E+00 -0.00000000000E+00 -0.11295656080E+02  0.11295657204E+02  0.50400000000E-02 0.  1.
         24    2    1    2    0    0  0.00000000000E+00  0.35527136788E-14  0.13793267428E+03  0.16052398758E+03  0.82112897623E+02 0.  0.
         66    2    3    3    0    0 -0.25675218872E+02  0.30638338881E+02  0.87104898638E+02  0.95860252660E+02  0.19999999773E+01 0.  0.
        -13    1    3    3    0    0  0.25675218872E+02 -0.30638338881E+02  0.50827775638E+02  0.64663734920E+02  0.10566000000E+00 0.  1.
         13    1    4    4    0    0 -0.14806319398E+02  0.17172290630E+02  0.50587834242E+02  0.55436944332E+02  0.10566000000E+00 0. -1.
        -13    1    4    4    0    0 -0.79390347248E+00  0.11237765543E+01  0.23746743950E+01  0.27465248926E+01  0.10566000000E+00 0.  1.
        -14    1    4    4    0    0 -0.10074996002E+02  0.12342271697E+02  0.34142390001E+02  0.37676783436E+02  0.00000000000E+00 0.  1.
<mgrwt>
<rscale>  0 0.82112898E+02</rscale>
<asrwt>0</asrwt>
<pdfrwt beam="1">  1        2 0.22958204E-01 0.82112898E+02</pdfrwt>
<pdfrwt beam="2">  1       -1 0.17377934E-02 0.82112898E+02</pdfrwt>
<totfact> 0.18658349E+05</totfact>
</mgrwt>
</event>
<event>
 8    1  0.2603554E-024  0.8006733E+02  0.7818608E-02  0.1328860E+00
          2   -1    0    0  501    0  0.00000000000E+00  0.00000000000E+00  0.91440051681E+01  0.91440055237E+01  0.25500000000E-02 0. -1.
         -1   -1    0    0    0  501 -0.00000000000E+00 -0.00000000000E+00 -0.17527266043E+03  0.17527266050E+03  0.50400000000E-02 0.  1.
         24    2    1    2    0    0  0.00000000000E+00  0.35527136788E-14 -0.16612865526E+03  0.18441666603E+03  0.80067325477E+02 0.  0.
         66    2    3    3    0    0 -0.99927655276E+01  0.27252995721E+02 -0.19698324868E+02  0.35136948844E+02  0.20000081967E+01 0.  0.
        -13    1    3    3    0    0  0.99927655276E+01 -0.27252995721E+02 -0.14643033039E+03  0.14927971718E+03  0.10566000000E+00 0.  1.
         13    1    4    4    0    0 -0.26619741122E+01  0.74791421316E+01 -0.55528499845E+01  0.96886005276E+01  0.10566000000E+00 0. -1.
        -13    1    4    4    0    0 -0.67962714397E+01  0.17131869047E+02 -0.12766028548E+02  0.22420367782E+02  0.10566000000E+00 0.  1.
        -14    1    4    4    0    0 -0.53451997571E+00  0.26419845424E+01 -0.13794463356E+01  0.30279805349E+01  0.00000000000E+00 0.  1.
<mgrwt>
<rscale>  0 0.80067325E+02</rscale>
<asrwt>0</asrwt>
<pdfrwt beam="1">  1        2 0.14067702E-02 0.80067325E+02</pdfrwt>
<pdfrwt beam="2">  1       -1 0.26965022E-01 0.80067325E+02</pdfrwt>
<totfact> 0.10327373E+05</totfact>
</mgrwt>
</event>
<event>
 8    1  0.2603554E-024  0.7989045E+02  0.7818608E-02  0.1329363E+00
         -1   -1    0    0    0  501 -0.00000000000E+00  0.00000000000E+00  0.90445424610E+01  0.90445438653E+01  0.50400000000E-02 0.  1.
          2   -1    0    0  501    0  0.00000000000E+00 -0.00000000000E+00 -0.17641807294E+03  0.17641807296E+03  0.25500000000E-02 0. -1.
         24    2    1    2    0    0  0.00000000000E+00  0.00000000000E+00 -0.16737353048E+03  0.18546261682E+03  0.79890447076E+02 0.  0.
         66    2    3    3    0    0 -0.37913413741E+02 -0.11088771493E+02 -0.97120864713E+02  0.10486586747E+03  0.20000008526E+01 0.  0.
        -13    1    3    3    0    0  0.37913413741E+02  0.11088771493E+02 -0.70252665763E+02  0.80596749348E+02  0.10566000000E+00 0.  1.
         13    1    4    4    0    0 -0.77908414631E+01 -0.26196987043E+01 -0.21715492851E+02  0.23219255496E+02  0.10566000000E+00 0. -1.
        -13    1    4    4    0    0 -0.68854422603E+01 -0.16264304214E+01 -0.17865611713E+02  0.19215770528E+02  0.10566000000E+00 0.  1.
         14    1    4    4    0    0 -0.23237130017E+02 -0.68426423676E+01 -0.57539760149E+02  0.62430841449E+02  0.00000000000E+00 0. -1.
<mgrwt>
<rscale>  0 0.79890447E+02</rscale>
<asrwt>0</asrwt>
<pdfrwt beam="1">  1        2 0.27141239E-01 0.79890447E+02</pdfrwt>
<pdfrwt beam="2">  1       -1 0.13914683E-02 0.79890447E+02</pdfrwt>
<totfact> 0.21206829E+05</totfact>
</mgrwt>
</event>
<event>
 8    1  0.2603554E-024  0.7929811E+02  0.7818608E-02  0.1331055E+00
         -1   -1    0    0    0  501 -0.00000000000E+00  0.00000000000E+00  0.10398618129E+02  0.10398619351E+02  0.50400000000E-02 0.  1.
          2   -1    0    0  501    0  0.00000000000E+00 -0.00000000000E+00 -0.15117851470E+03  0.15117851472E+03  0.25500000000E-02 0. -1.
         24    2    1    2    0    0  0.17763568394E-14  0.00000000000E+00 -0.14077989657E+03  0.16157713407E+03  0.79298114583E+02 0.  0.
         66    2    3    3    0    0  0.14179705223E+02  0.98046603646E+01 -0.14312971081E+03  0.14417804800E+03  0.20000009474E+01 0.  0.
        -13    1    3    3    0    0 -0.14179705223E+02 -0.98046603646E+01  0.23498142401E+01  0.17399086070E+02  0.10566000000E+00 0.  1.
         13    1    4    4    0    0  0.82796153941E+01  0.61599155241E+01 -0.79533267693E+02  0.80200052520E+02  0.10566000000E+00 0. -1.
        -13    1    4    4    0    0  0.20979875120E+01  0.10178439907E+01 -0.23764512545E+02  0.23878877246E+02  0.10566000000E+00 0.  1.
         14    1    4    4    0    0  0.38021023169E+01  0.26269008499E+01 -0.39831930572E+02  0.40099118235E+02  0.00000000000E+00 0. -1.
<mgrwt>
<rscale>  0 0.79298115E+02</rscale>
<asrwt>0</asrwt>
<pdfrwt beam="1">  1        2 0.23258232E-01 0.79298115E+02</pdfrwt>
<pdfrwt beam="2">  1       -1 0.15997876E-02 0.79298115E+02</pdfrwt>
<totfact> 0.20555417E+05</totfact>
</mgrwt>
</event>
<event>
 8    1  0.2603554E-024  0.7835420E+02  0.7818608E-02  0.1333788E+00
          2   -1    0    0  501    0  0.00000000000E+00  0.00000000000E+00  0.25809191282E+03  0.25809191284E+03  0.25500000000E-02 0. -1.
         -1   -1    0    0    0  501 -0.00000000000E+00 -0.00000000000E+00 -0.59468918984E+01  0.59468940341E+01  0.50400000000E-02 0.  1.
         24    2    1    2    0    0 -0.17763568394E-14  0.35527136788E-14  0.25214502093E+03  0.26403880687E+03  0.78354195523E+02 0.  0.
         66    2    3    3    0    0 -0.12985152587E+02  0.26400167492E+02  0.21320107556E+03  0.21523076372E+03  0.20000002944E+01 0.  0.
        -13    1    3    3    0    0  0.12985152587E+02 -0.26400167492E+02  0.38943945367E+02  0.48808043149E+02  0.10566000000E+00 0.  1.
         13    1    4    4    0    0 -0.27887389364E+01  0.53179450286E+01  0.47818409648E+02  0.48194077120E+02  0.10566000000E+00 0. -1.
        -13    1    4    4    0    0 -0.37532549492E+01  0.66359265735E+01  0.55553748202E+02  0.56074526726E+02  0.10566000000E+00 0.  1.
        -14    1    4    4    0    0 -0.64431587019E+01  0.14446295890E+02  0.10982891771E+03  0.11096215988E+03  0.00000000000E+00 0.  1.
<mgrwt>
<rscale>  0 0.78354196E+02</rscale>
<asrwt>0</asrwt>
<pdfrwt beam="1">  1        2 0.39706438E-01 0.78354196E+02</pdfrwt>
<pdfrwt beam="2">  1       -1 0.91490685E-03 0.78354196E+02</pdfrwt>
<totfact> 0.25496806E+05</totfact>
</mgrwt>
</event>
<event>
 8    1  0.2603554E-024  0.8133849E+02  0.7818608E-02  0.1325295E+00
         -1   -1    0    0    0  501 -0.00000000000E+00  0.00000000000E+00  0.51616278287E+02  0.51616278533E+02  0.50400000000E-02 0.  1.
          2   -1    0    0  501    0  0.00000000000E+00 -0.00000000000E+00 -0.32043909684E+02  0.32043909785E+02  0.25500000000E-02 0. -1.
         24    2    1    2    0    0 -0.17763568394E-14  0.00000000000E+00  0.19572368603E+02  0.83660188318E+02  0.81338487179E+02 0.  0.
         66    2    3    3    0    0  0.15399179749E+02  0.30163598019E+02 -0.13321674730E+02  0.36447831533E+02  0.20000058696E+01 0.  0.
        -13    1    3    3    0    0 -0.15399179749E+02 -0.30163598019E+02  0.32894043333E+02  0.47212356785E+02  0.10566000000E+00 0.  1.
         13    1    4    4    0    0  0.85385541402E+01  0.17780295012E+02 -0.85895600639E+01  0.21513658537E+02  0.10566000000E+00 0. -1.
        -13    1    4    4    0    0  0.24467522902E+01  0.48536763664E+01 -0.18452661243E+01  0.57411620901E+01  0.10566000000E+00 0.  1.
         14    1    4    4    0    0  0.44138733189E+01  0.75296266401E+01 -0.28868485413E+01  0.91930109059E+01  0.00000000000E+00 0. -1.
<mgrwt>
<rscale>  0 0.81338487E+02</rscale>
<asrwt>0</asrwt>
<pdfrwt beam="1">  1        2 0.49298324E-02 0.81338487E+02</pdfrwt>
<pdfrwt beam="2">  1       -1 0.79409658E-02 0.81338487E+02</pdfrwt>
<totfact> 0.13013611E+05</totfact>
</mgrwt>
</event>
<event>
 8    1  0.2603554E-024  0.7888052E+02  0.7818608E-02  0.1332259E+00
          2   -1    0    0  501    0  0.00000000000E+00  0.00000000000E+00  0.68717634287E+03  0.68717634287E+03  0.25500000000E-02 0. -1.
         -1   -1    0    0    0  501 -0.00000000000E+00 -0.00000000000E+00 -0.22636580326E+01  0.22636636433E+01  0.50400000000E-02 0.  1.
         24    2    1    2    0    0  0.00000000000E+00  0.35527136788E-14  0.68491268484E+03  0.68944000652E+03  0.78880521908E+02 0.  0.
         66    2    3    3    0    0 -0.23617670664E+01 -0.29286338115E+02  0.57230850815E+03  0.57306569958E+03  0.19999975354E+01 0.  0.
        -13    1    3    3    0    0  0.23617670664E+01  0.29286338115E+02  0.11260417668E+03  0.11637430694E+03  0.10566000000E+00 0.  1.
         13    1    4    4    0    0 -0.28398932893E+00 -0.36939873064E+01  0.73580930915E+02  0.73674220393E+02  0.10566000000E+00 0. -1.
        -13    1    4    4    0    0  0.27023897767E+00 -0.39617215885E+01  0.71640669539E+02  0.71750714025E+02  0.10566000000E+00 0.  1.
        -14    1    4    4    0    0 -0.23480167151E+01 -0.21630629220E+02  0.42708690770E+03  0.42764076516E+03  0.00000000000E+00 0.  1.
<mgrwt>
<rscale>  0 0.78880522E+02</rscale>
<asrwt>0</asrwt>
<pdfrwt beam="1">  1        2 0.10571945E+00 0.78880522E+02</pdfrwt>
<pdfrwt beam="2">  1       -1 0.34825546E-03 0.78880522E+02</pdfrwt>
<totfact> 0.34550453E+05</totfact>
</mgrwt>
</event>
<event>
 8    1  0.2603554E-024  0.7924348E+02  0.7818608E-02  0.1331212E+00
         -1   -1    0    0    0  501 -0.00000000000E+00  0.00000000000E+00  0.59062483989E+01  0.59062505493E+01  0.50400000000E-02 0.  1.
          2   -1    0    0  501    0  0.00000000000E+00 -0.00000000000E+00 -0.26580021183E+03  0.26580021185E+03  0.25500000000E-02 0. -1.
         24    2    1    2    0    0  0.00000000000E+00  0.00000000000E+00 -0.25989396344E+03  0.27170646240E+03  0.79243482240E+02 0.  0.
         66    2    3    3    0    0 -0.16428643859E+02  0.18589082865E+02 -0.23584553331E+03  0.23715516001E+03  0.19999996488E+01 0.  0.
        -13    1    3    3    0    0  0.16428643859E+02 -0.18589082865E+02 -0.24048430130E+02  0.34551302386E+02  0.10566000000E+00 0.  1.
         13    1    4    4    0    0 -0.36230711225E+01  0.37243655186E+01 -0.47286312686E+02  0.47571042393E+02  0.10566000000E+00 0. -1.
        -13    1    4    4    0    0 -0.96184174954E+01  0.10071700128E+02 -0.13179370148E+03  0.13252752171E+03  0.10566000000E+00 0.  1.
        -14    1    4    4    0    0 -0.31871552409E+01  0.47930172188E+01 -0.56765519142E+02  0.57056595903E+02  0.00000000000E+00 0.  1.
<mgrwt>
<rscale>  0 0.79243482E+02</rscale>
<asrwt>0</asrwt>
<pdfrwt beam="1">  1        2 0.40892331E-01 0.79243482E+02</pdfrwt>
<pdfrwt beam="2">  1       -1 0.90865398E-03 0.79243482E+02</pdfrwt>
<totfact> 0.25017331E+05</totfact>
</mgrwt>
</event>
<event>
 8    1  0.2603554E-024  0.8016742E+02  0.7818608E-02  0.1328577E+00
         -1   -1    0    0    0  501 -0.00000000000E+00  0.00000000000E+00  0.10037034191E+02  0.10037035456E+02  0.50400000000E-02 0.  1.
          2   -1    0    0  501    0  0.00000000000E+00 -0.00000000000E+00 -0.16007754229E+03  0.16007754231E+03  0.25500000000E-02 0. -1.
         24    2    1    2    0    0  0.00000000000E+00 -0.17763568394E-14 -0.15004050810E+03  0.17011457776E+03  0.80167421675E+02 0.  0.
         66    2    3    3    0    0  0.32828145066E+02 -0.89353542526E+01 -0.11993934523E+03  0.12468750616E+03  0.19999988726E+01 0.  0.
        -13    1    3    3    0    0 -0.32828145066E+02  0.89353542526E+01 -0.30101162868E+02  0.45427071600E+02  0.10566000000E+00 0.  1.
         13    1    4    4    0    0  0.35924125835E+01 -0.73930536841E+00 -0.12604041474E+02  0.13127262705E+02  0.10566000000E+00 0. -1.
        -13    1    4    4    0    0  0.10530918405E+02 -0.25599805567E+01 -0.35693048731E+02  0.37302260449E+02  0.10566000000E+00 0.  1.
         14    1    4    4    0    0  0.18704814078E+02 -0.56360683275E+01 -0.71642255024E+02  0.74257983010E+02  0.00000000000E+00 0. -1.
<mgrwt>
<rscale>  0 0.80167422E+02</rscale>
<asrwt>0</asrwt>
<pdfrwt beam="1">  1        2 0.24627312E-01 0.80167422E+02</pdfrwt>
<pdfrwt beam="2">  1       -1 0.15441593E-02 0.80167422E+02</pdfrwt>
<totfact> 0.20345085E+05</totfact>
</mgrwt>
</event>
<event>
 8    1  0.2603554E-024  0.8157625E+02  0.7818608E-02  0.1324637E+00
          2   -1    0    0  501    0  0.00000000000E+00  0.00000000000E+00  0.17913581381E+03  0.17913581383E+03  0.25500000000E-02 0. -1.
         -1   -1    0    0    0  501 -0.00000000000E+00 -0.00000000000E+00 -0.92872052135E+01  0.92872065811E+01  0.50400000000E-02 0.  1.
         24    2    1    2    0    0  0.35527136788E-14  0.00000000000E+00  0.16984860860E+03  0.18842302041E+03  0.81576251311E+02 0.  0.
         66    2    3    3    0    0  0.27610042669E+02  0.26729364900E+02  0.53567935759E+02  0.65956782434E+02  0.20000008720E+01 0.  0.
        -13    1    3    3    0    0 -0.27610042669E+02 -0.26729364900E+02  0.11628067284E+03  0.12246623798E+03  0.10566000000E+00 0.  1.
         13    1    4    4    0    0  0.10934455401E+02  0.11261648071E+02  0.23085823955E+02  0.27916902835E+02  0.10566000000E+00 0.  1.
        -13    1    4    4    0    0  0.20266271930E+01  0.18687962754E+01  0.33386940774E+01  0.43310113688E+01  0.10566000000E+00 0. -1.
        -14    1    4    4    0    0  0.14648960075E+02  0.13598920553E+02  0.27143417726E+02  0.33708868230E+02  0.00000000000E+00 0.  1.
<mgrwt>
<rscale>  0 0.81576251E+02</rscale>
<asrwt>0</asrwt>
<pdfrwt beam="1">  1        2 0.27559356E-01 0.81576251E+02</pdfrwt>
<pdfrwt beam="2">  1       -1 0.14288009E-02 0.81576251E+02</pdfrwt>
<totfact> 0.20170641E+05</totfact>
</mgrwt>
</event>
<event>
 8    1  0.2603554E-024  0.7947978E+02  0.7818608E-02  0.1330534E+00
          2   -1    0    0  501    0  0.00000000000E+00  0.00000000000E+00  0.22393129892E+02  0.22393130037E+02  0.25500000000E-02 0. -1.
         -1   -1    0    0    0  501 -0.00000000000E+00 -0.00000000000E+00 -0.70524253004E+02  0.70524253184E+02  0.50400000000E-02 0.  1.
         24    2    1    2    0    0  0.00000000000E+00  0.55511151231E-16 -0.48131123112E+02  0.92917383220E+02  0.79479777884E+02 0.  0.
         66    2    3    3    0    0  0.25309904247E+02  0.41481104383E+00  0.11695261564E+02  0.27956080981E+02  0.19999998850E+01 0.  0.
        -13    1    3    3    0    0 -0.25309904247E+02 -0.41481104383E+00 -0.59826384676E+02  0.64961302240E+02  0.10566000000E+00 0.  1.
         13    1    4    4    0    0  0.74802937216E+01 -0.37343568363E+00  0.28910530495E+01  0.80289227261E+01  0.10566000000E+00 0. -1.
        -13    1    4    4    0    0  0.98306664922E+01 -0.69058594199E-01  0.49162522627E+01  0.10992155071E+02  0.10566000000E+00 0.  1.
        -14    1    4    4    0    0  0.79989440333E+01  0.85730532166E+00  0.38879562522E+01  0.89350031831E+01  0.00000000000E+00 0.  1.
<mgrwt>
<rscale>  0 0.79479778E+02</rscale>
<asrwt>0</asrwt>
<pdfrwt beam="1">  1        2 0.34450970E-02 0.79479778E+02</pdfrwt>
<pdfrwt beam="2">  1       -1 0.10849885E-01 0.79479778E+02</pdfrwt>
<totfact> 0.12938605E+05</totfact>
</mgrwt>
</event>
<event>
 8    1  0.2603554E-024  0.7930874E+02  0.7818608E-02  0.1331025E+00
          2   -1    0    0  501    0  0.00000000000E+00  0.00000000000E+00  0.49912910378E+02  0.49912910443E+02  0.25500000000E-02 0. -1.
         -1   -1    0    0    0  501 -0.00000000000E+00 -0.00000000000E+00 -0.31504257553E+02  0.31504257956E+02  0.50400000000E-02 0.  1.
         24    2    1    2    0    0  0.19081958236E-16  0.00000000000E+00  0.18408652825E+02  0.81417168399E+02  0.79308743599E+02 0.  0.
         66    2    3    3    0    0  0.13846895168E-01 -0.32539044496E+02  0.32431749193E+02  0.45984866693E+02  0.20000001497E+01 0.  0.
        -13    1    3    3    0    0 -0.13846895168E-01  0.32539044496E+02 -0.14023096368E+02  0.35432301706E+02  0.10566000000E+00 0.  1.
         13    1    4    4    0    0  0.69615739242E+00 -0.11928580686E+02  0.12075564190E+02  0.16988410368E+02  0.10566000000E+00 0. -1.
        -13    1    4    4    0    0 -0.52250815200E+00 -0.74126886755E+01  0.79411558157E+01  0.10876308560E+02  0.10566000000E+00 0.  1.
         14    1    4    4    0    0 -0.15980234525E+00 -0.13197775134E+02  0.12415029188E+02  0.18120147765E+02  0.00000000000E+00 0. -1.
<mgrwt>
<rscale>  0 0.79308744E+02</rscale>
<asrwt>0</asrwt>
<pdfrwt beam="1">  1        2 0.76789093E-02 0.79308744E+02</pdfrwt>
<pdfrwt beam="2">  1       -1 0.48468089E-02 0.79308744E+02</pdfrwt>
<totfact> 0.15296473E+05</totfact>
</mgrwt>
</event>
<event>
 8    1  0.2603554E-024  0.7428170E+02  0.7818608E-02  0.1346110E+00
         -1   -1    0    0    0  501 -0.00000000000E+00  0.00000000000E+00  0.13507893526E+02  0.13507894466E+02  0.50400000000E-02 0.  1.
          2   -1    0    0  501    0  0.00000000000E+00 -0.00000000000E+00 -0.10212124221E+03  0.10212124224E+03  0.25500000000E-02 0. -1.
         24    2    1    2    0    0 -0.88817841970E-15  0.35527136788E-14 -0.88613348687E+02  0.11562913671E+03  0.74281704954E+02 0.  0.
         66    2    3    3    0    0  0.41425759320E+01 -0.24859536927E+02 -0.86748819923E+02  0.90357707326E+02  0.20000008933E+01 0.  0.
        -13    1    3    3    0    0 -0.41425759320E+01  0.24859536927E+02 -0.18645287636E+01  0.25271429384E+02  0.10566000000E+00 0.  1.
         13    1    4    4    0    0  0.14269588124E+01 -0.12267305702E+02 -0.42061068502E+02  0.43836829815E+02  0.10566000000E+00 0. -1.
        -13    1    4    4    0    0  0.22178799185E+01 -0.11576287367E+02 -0.41304278446E+02  0.42953276970E+02  0.10566000000E+00 0.  1.
        -14    1    4    4    0    0  0.49773720113E+00 -0.10159438581E+01 -0.33834729752E+01  0.35676005407E+01  0.00000000000E+00 0.  1.
<mgrwt>
<rscale>  0 0.74281705E+02</rscale>
<asrwt>0</asrwt>
<pdfrwt beam="1">  1        2 0.15710960E-01 0.74281705E+02</pdfrwt>
<pdfrwt beam="2">  1       -1 0.20781376E-02 0.74281705E+02</pdfrwt>
<totfact> 0.21726704E+05</totfact>
</mgrwt>
</event>
<event>
 8    1  0.2603554E-024  0.7973388E+02  0.7818608E-02  0.1329808E+00
         -1   -1    0    0    0  501 -0.00000000000E+00  0.00000000000E+00  0.78201903082E+01  0.78201919323E+01  0.50400000000E-02 0.  1.
          2   -1    0    0  501    0  0.00000000000E+00 -0.00000000000E+00 -0.20323965314E+03  0.20323965316E+03  0.25500000000E-02 0. -1.
         24    2    1    2    0    0 -0.17763568394E-14  0.00000000000E+00 -0.19541946283E+03  0.21105984509E+03  0.79733880849E+02 0.  0.
         66    2    3    3    0    0 -0.14482998657E+02  0.34995130531E+02 -0.13050809758E+03  0.13590724757E+03  0.19999992233E+01 0.  0.
        -13    1    3    3    0    0  0.14482998657E+02 -0.34995130531E+02 -0.64911365253E+02  0.75152597520E+02  0.10566000000E+00 0.  1.
         13    1    4    4    0    0 -0.82904859452E+01  0.18878234168E+02 -0.73899743195E+02  0.76722246388E+02  0.10566000000E+00 0.  1.
        -13    1    4    4    0    0 -0.20614332822E+01  0.59975487144E+01 -0.20668159351E+02  0.21619529892E+02  0.10566000000E+00 0. -1.
        -14    1    4    4    0    0 -0.41310794300E+01  0.10119347648E+02 -0.35940195034E+02  0.37565471289E+02  0.00000000000E+00 0.  1.
<mgrwt>
<rscale>  0 0.79733881E+02</rscale>
<asrwt>0</asrwt>
<pdfrwt beam="1">  1        2 0.31267635E-01 0.79733881E+02</pdfrwt>
<pdfrwt beam="2">  1       -1 0.12031065E-02 0.79733881E+02</pdfrwt>
<totfact> 0.22377978E+05</totfact>
</mgrwt>
</event>
<event>
 8    1  0.2603554E-024  0.7556251E+02  0.7818608E-02  0.1342138E+00
          2   -1    0    0  501    0  0.00000000000E+00  0.00000000000E+00  0.10150038327E+03  0.10150038330E+03  0.25500000000E-02 0. -1.
         -1   -1    0    0    0  501 -0.00000000000E+00 -0.00000000000E+00 -0.14063228674E+02  0.14063229577E+02  0.50400000000E-02 0.  1.
         24    2    1    2    0    0  0.00000000000E+00  0.17763568394E-14  0.87437154593E+02  0.11556361288E+03  0.75562508015E+02 0.  0.
         66    2    3    3    0    0 -0.30742085804E+02 -0.15513407661E+02  0.67426168538E+02  0.75736582058E+02  0.20000003111E+01 0.  0.
        -13    1    3    3    0    0  0.30742085804E+02  0.15513407661E+02  0.20010986054E+02  0.39827030817E+02  0.10566000000E+00 0.  1.
         13    1    4    4    0    0 -0.22599750064E+02 -0.10919352183E+02  0.50102890060E+02  0.56038305751E+02  0.10566000000E+00 0. -1.
        -13    1    4    4    0    0 -0.59478323125E+01 -0.30328943113E+01  0.12008940065E+02  0.13740486260E+02  0.10566000000E+00 0.  1.
        -14    1    4    4    0    0 -0.21945034275E+01 -0.15611611662E+01  0.53143384127E+01  0.59577900470E+01  0.00000000000E+00 0.  1.
<mgrwt>
<rscale>  0 0.75562508E+02</rscale>
<asrwt>0</asrwt>
<pdfrwt beam="1">  1        2 0.15615444E-01 0.75562508E+02</pdfrwt>
<pdfrwt beam="2">  1       -1 0.21635737E-02 0.75562508E+02</pdfrwt>
<totfact> 0.20728472E+05</totfact>
</mgrwt>
</event>
<event>
 8    1  0.2603554E-024  0.7409701E+02  0.7818608E-02  0.1346690E+00
         -1   -1    0    0    0  501 -0.00000000000E+00  0.00000000000E+00  0.85032374445E+02  0.85032374595E+02  0.50400000000E-02 0.  1.
          2   -1    0    0  501    0  0.00000000000E+00 -0.00000000000E+00 -0.16141991255E+02  0.16141991456E+02  0.25500000000E-02 0. -1.
         24    2    1    2    0    0  0.00000000000E+00 -0.71054273576E-14  0.68890383190E+02  0.10117436605E+03  0.74097013770E+02 0.  0.
         66    2    3    3    0    0  0.20102294227E+02 -0.29144906508E+02  0.19697085497E+02  0.40564799887E+02  0.20000010551E+01 0.  0.
        -13    1    3    3    0    0 -0.20102294227E+02  0.29144906508E+02  0.49193297694E+02  0.60609566164E+02  0.10566000000E+00 0.  1.
         13    1    4    4    0    0  0.67727551583E+01 -0.10305917736E+02  0.62211234273E+01  0.13812881435E+02  0.10566000000E+00 0. -1.
        -13    1    4    4    0    0  0.29794769700E+01 -0.44817874756E+01  0.25941267772E+01  0.59753125242E+01  0.10566000000E+00 0.  1.
        -14    1    4    4    0    0  0.10350062099E+02 -0.14357201297E+02  0.10881835292E+02  0.20776605927E+02  0.00000000000E+00 0.  1.
<mgrwt>
<rscale>  0 0.74097014E+02</rscale>
<asrwt>0</asrwt>
<pdfrwt beam="1">  1        2 0.24833833E-02 0.74097014E+02</pdfrwt>
<pdfrwt beam="2">  1       -1 0.13081904E-01 0.74097014E+02</pdfrwt>
<totfact> 0.14823557E+05</totfact>
</mgrwt>
</event>
<event>
 8    1  0.2603554E-024  0.7815951E+02  0.7818608E-02  0.1334357E+00
          2   -1    0    0  501    0  0.00000000000E+00  0.00000000000E+00  0.70000736652E+03  0.70000736652E+03  0.25500000000E-02 0. -1.
         -1   -1    0    0    0  501 -0.00000000000E+00 -0.00000000000E+00 -0.21817270679E+01  0.21817328893E+01  0.50400000000E-02 0.  1.
         24    2    1    2    0    0 -0.35527136788E-14  0.00000000000E+00  0.69782563945E+03  0.70218909941E+03  0.78159505238E+02 0.  0.
         66    2    3    3    0    0  0.28189164034E+02  0.67560373076E+01  0.58426706706E+03  0.58498912698E+03  0.20000083695E+01 0.  0.
        -13    1    3    3    0    0 -0.28189164034E+02 -0.67560373076E+01  0.11355857240E+03  0.11719997243E+03  0.10566000000E+00 0.  1.
         13    1    4    4    0    0  0.70452049326E+01  0.12318862890E+01  0.14446208242E+03  0.14463905723E+03  0.10566000000E+00 0. -1.
        -13    1    4    4    0    0  0.11919323280E+02  0.38650010070E+01  0.25177140793E+03  0.25208304488E+03  0.10566000000E+00 0.  1.
        -14    1    4    4    0    0  0.92246358217E+01  0.16591500116E+01  0.18803357671E+03  0.18826702487E+03  0.00000000000E+00 0.  1.
<mgrwt>
<rscale>  0 0.78159505E+02</rscale>
<asrwt>0</asrwt>
<pdfrwt beam="1">  1        2 0.10769341E+00 0.78159505E+02</pdfrwt>
<pdfrwt beam="2">  1       -1 0.33565087E-03 0.78159505E+02</pdfrwt>
<totfact> 0.35535708E+05</totfact>
</mgrwt>
</event>
<event>
 8    1  0.2603554E-024  0.7613611E+02  0.7818608E-02  0.1340389E+00
          2   -1    0    0  501    0  0.00000000000E+00  0.00000000000E+00  0.15613541705E+02  0.15613541913E+02  0.25500000000E-02 0. -1.
         -1   -1    0    0    0  501 -0.00000000000E+00 -0.00000000000E+00 -0.92815374384E+02  0.92815374520E+02  0.50400000000E-02 0.  1.
         24    2    1    2    0    0  0.00000000000E+00  0.71054273576E-14 -0.77201832678E+02  0.10842891643E+03  0.76136108057E+02 0.  0.
         66    2    3    3    0    0  0.51353380574E+01  0.35257894617E+02 -0.57610920275E+02  0.67768052663E+02  0.19999992491E+01 0.  0.
        -13    1    3    3    0    0 -0.51353380574E+01 -0.35257894617E+02 -0.19590912404E+02  0.40660863771E+02  0.10566000000E+00 0.  1.
         13    1    4    4    0    0  0.31424621716E+01  0.19026828240E+02 -0.32446257356E+02  0.37744748533E+02  0.10566000000E+00 0. -1.
        -13    1    4    4    0    0  0.19241497703E+01  0.13030474615E+02 -0.20399396681E+02  0.24282548672E+02  0.10566000000E+00 0.  1.
         14    1    4    4    0    0  0.68726115478E-01  0.32005917618E+01 -0.47652662382E+01  0.57407554578E+01  0.00000000000E+00 0. -1.
<mgrwt>
<rscale>  0 0.76136108E+02</rscale>
<asrwt>0</asrwt>
<pdfrwt beam="1">  1        2 0.24020834E-02 0.76136108E+02</pdfrwt>
<pdfrwt beam="2">  1       -1 0.14279288E-01 0.76136108E+02</pdfrwt>
<totfact> 0.13618162E+05</totfact>
</mgrwt>
</event>
<event>
 8    1  0.2603554E-024  0.8256214E+02  0.7818608E-02  0.1321934E+00
          2   -1    0    0  501    0  0.00000000000E+00  0.00000000000E+00  0.91104704222E+01  0.91104707790E+01  0.25500000000E-02 0. -1.
         -1   -1    0    0    0  501 -0.00000000000E+00 -0.00000000000E+00 -0.18705142721E+03  0.18705142728E+03  0.50400000000E-02 0.  1.
         24    2    1    2    0    0  0.35527136788E-14  0.71054273576E-14 -0.17794095679E+03  0.19616189806E+03  0.82562135067E+02 0.  0.
         66    2    3    3    0    0  0.19392239312E+02  0.35929106825E+02 -0.74933879822E+02  0.85358338855E+02  0.20000010357E+01 0.  0.
        -13    1    3    3    0    0 -0.19392239312E+02 -0.35929106825E+02 -0.10300707697E+03  0.11080355920E+03  0.10566000000E+00 0.  1.
         13    1    4    4    0    0  0.85694021833E+01  0.16412636735E+02 -0.35088098614E+02  0.39673607433E+02  0.10566000000E+00 0. -1.
        -13    1    4    4    0    0  0.73624035361E+01  0.13232632498E+02 -0.25903092514E+02  0.30004814855E+02  0.10566000000E+00 0.  1.
        -14    1    4    4    0    0  0.34604335921E+01  0.62838375919E+01 -0.13942688694E+02  0.15679916566E+02  0.00000000000E+00 0.  1.
<mgrwt>
<rscale>  0 0.82562135E+02</rscale>
<asrwt>0</asrwt>
<pdfrwt beam="1">  1        2 0.14016110E-02 0.82562135E+02</pdfrwt>
<pdfrwt beam="2">  1       -1 0.28777140E-01 0.82562135E+02</pdfrwt>
<totfact> 0.93771991E+04</totfact>
</mgrwt>
</event>
<event>
 8    1  0.2603554E-024  0.8017665E+02  0.7818608E-02  0.1328551E+00
         -1   -1    0    0    0  501 -0.00000000000E+00  0.00000000000E+00  0.10133872341E+01  0.10133997671E+01  0.50400000000E-02 0.  1.
          2   -1    0    0  501    0  0.00000000000E+00 -0.00000000000E+00 -0.15858338855E+04  0.15858338855E+04  0.25500000000E-02 0. -1.
         24    2    1    2    0    0  0.11102230246E-15 -0.35527136788E-14 -0.15848204982E+04  0.15868472852E+04  0.80176648982E+02 0.  0.
         66    2    3    3    0    0 -0.75493909314E+00  0.18172551905E+02 -0.14994078350E+04  0.14995194788E+04  0.20000010690E+01 0.  0.
        -13    1    3    3    0    0  0.75493909314E+00 -0.18172551905E+02 -0.85412663193E+02  0.87327806417E+02  0.10566000000E+00 0.  1.
         13    1    4    4    0    0 -0.15650984766E+00  0.84708700764E+01 -0.70961750326E+03  0.70966808597E+03  0.10566000000E+00 0. -1.
        -13    1    4    4    0    0 -0.42225317141E+00  0.36526816148E+01 -0.24830350111E+03  0.24833074761E+03  0.10566000000E+00 0.  1.
        -14    1    4    4    0    0 -0.17617607407E+00  0.60490002140E+01 -0.54148683065E+03  0.54152064523E+03  0.00000000000E+00 0.  1.
<mgrwt>
<rscale>  0 0.80176649E+02</rscale>
<asrwt>0</asrwt>
<pdfrwt beam="1">  1        2 0.24397246E+00 0.80176649E+02</pdfrwt>
<pdfrwt beam="2">  1       -1 0.15590796E-03 0.80176649E+02</pdfrwt>
<totfact> 0.32301246E+05</totfact>
</mgrwt>
</event>
<event>
 8    1  0.2603554E-024  0.8108650E+02  0.7818608E-02  0.1325996E+00
          2   -1    0    0  501    0  0.00000000000E+00  0.00000000000E+00  0.11492087764E+04  0.11492087764E+04  0.25500000000E-02 0. -1.
         -1   -1    0    0    0  501 -0.00000000000E+00 -0.00000000000E+00 -0.14303318977E+01  0.14303407773E+01  0.50400000000E-02 0.  1.
         24    2    1    2    0    0  0.17763568394E-14 -0.35527136788E-14  0.11477784445E+04  0.11506391172E+04  0.81086499006E+02 0.  0.
         66    2    3    3    0    0 -0.87640158977E+01  0.27423052950E+02  0.97882634569E+03  0.97925167696E+03  0.20000017088E+01 0.  0.
        -13    1    3    3    0    0  0.87640158977E+01 -0.27423052950E+02  0.16895209882E+03  0.17138744023E+03  0.10566000000E+00 0.  1.
         13    1    4    4    0    0 -0.25785934895E+00  0.13719378485E+01  0.56991933628E+02  0.57009125301E+02  0.10566000000E+00 0. -1.
        -13    1    4    4    0    0 -0.55703065202E+01  0.18039026513E+02  0.65151207233E+03  0.65178556776E+03  0.10566000000E+00 0.  1.
         14    1    4    4    0    0 -0.29358500286E+01  0.80120885876E+01  0.27032233973E+03  0.27045698390E+03  0.00000000000E+00 0. -1.
<mgrwt>
<rscale>  0 0.81086499E+02</rscale>
<asrwt>0</asrwt>
<pdfrwt beam="1">  1        2 0.17680098E+00 0.81086499E+02</pdfrwt>
<pdfrwt beam="2">  1       -1 0.22005220E-03 0.81086499E+02</pdfrwt>
<totfact> 0.33962878E+05</totfact>
</mgrwt>
</event>
<event>
 8    1  0.2603554E-024  0.8045015E+02  0.7818608E-02  0.1327779E+00
          2   -1    0    0  501    0  0.00000000000E+00  0.00000000000E+00  0.17196842808E+03  0.17196842810E+03  0.25500000000E-02 0. -1.
         -1   -1    0    0    0  501 -0.00000000000E+00 -0.00000000000E+00 -0.94090326246E+01  0.94090339745E+01  0.50400000000E-02 0.  1.
         24    2    1    2    0    0  0.35527136788E-14 -0.88817841970E-15  0.16255939545E+03  0.18137746207E+03  0.80450150387E+02 0.  0.
         66    2    3    3    0    0  0.24075429174E+02  0.66657604162E+01  0.15233836203E+03  0.15438599416E+03  0.19999987252E+01 0.  0.
        -13    1    3    3    0    0 -0.24075429174E+02 -0.66657604162E+01  0.10221033427E+02  0.26991467915E+02  0.10566000000E+00 0.  1.
         13    1    4    4    0    0  0.43298077024E+01  0.15894332650E+01  0.26892982068E+02  0.27285842142E+02  0.10566000000E+00 0. -1.
        -13    1    4    4    0    0  0.54350300506E+01  0.20801971558E+01  0.36391186564E+02  0.36853716169E+02  0.10566000000E+00 0.  1.
        -14    1    4    4    0    0  0.14310591421E+02  0.29961299953E+01  0.89054193393E+02  0.90246435844E+02  0.00000000000E+00 0.  1.
<mgrwt>
<rscale>  0 0.80450150E+02</rscale>
<asrwt>0</asrwt>
<pdfrwt beam="1">  1        2 0.26456679E-01 0.80450150E+02</pdfrwt>
<pdfrwt beam="2">  1       -1 0.14475437E-02 0.80450150E+02</pdfrwt>
<totfact> 0.20640869E+05</totfact>
</mgrwt>
</event>
<event>
 8    1  0.2603554E-024  0.7672149E+02  0.7818608E-02  0.1338622E+00
         -1   -1    0    0    0  501 -0.00000000000E+00  0.00000000000E+00  0.22452570267E+03  0.22452570273E+03  0.50400000000E-02 0.  1.
          2   -1    0    0  501    0  0.00000000000E+00 -0.00000000000E+00 -0.65540234764E+01  0.65540239725E+01  0.25500000000E-02 0. -1.
         24    2    1    2    0    0  0.00000000000E+00  0.69388939039E-17  0.21797167920E+03  0.23107972670E+03  0.76721490867E+02 0.  0.
         66    2    3    3    0    0  0.34363407915E+02  0.18117340652E-01  0.57883674880E+02  0.67345110870E+02  0.20000021565E+01 0.  0.
        -13    1    3    3    0    0 -0.34363407915E+02 -0.18117340652E-01  0.16008800432E+03  0.16373461583E+03  0.10566000000E+00 0.  1.
         13    1    4    4    0    0  0.17665747127E+01 -0.12405285612E+00  0.31428619637E+01  0.36090054981E+01  0.10566000000E+00 0.  1.
        -13    1    4    4    0    0  0.17741791786E+02 -0.50034846382E+00  0.31085846511E+02  0.35796124674E+02  0.10566000000E+00 0. -1.
        -14    1    4    4    0    0  0.14855041417E+02  0.64251866060E+00  0.23654966406E+02  0.27939980698E+02  0.00000000000E+00 0.  1.
<mgrwt>
<rscale>  0 0.76721491E+02</rscale>
<asrwt>0</asrwt>
<pdfrwt beam="1">  1        2 0.10083116E-02 0.76721491E+02</pdfrwt>
<pdfrwt beam="2">  1       -1 0.34542409E-01 0.76721491E+02</pdfrwt>
<totfact> 0.10685830E+05</totfact>
</mgrwt>
</event>
<event>
 8    1  0.2603554E-024  0.8200866E+02  0.7818608E-02  0.1323446E+00
         -1   -1    0    0    0  501 -0.00000000000E+00  0.00000000000E+00  0.11532296209E+02  0.11532297310E+02  0.50400000000E-02 0.  1.
          2   -1    0    0  501    0  0.00000000000E+00 -0.00000000000E+00 -0.14579534266E+03  0.14579534268E+03  0.25500000000E-02 0. -1.
         24    2    1    2    0    0  0.00000000000E+00  0.00000000000E+00 -0.13426304645E+03  0.15732763999E+03  0.82008662124E+02 0.  0.
         66    2    3    3    0    0  0.10749919101E+02 -0.20200632537E+02 -0.13239006935E+03  0.13436799011E+03  0.19999970639E+01 0.  0.
        -13    1    3    3    0    0 -0.10749919101E+02  0.20200632537E+02 -0.18729771040E+01  0.22959649885E+02  0.10566000000E+00 0.  1.
         13    1    4    4    0    0  0.69662344643E+01 -0.12361300423E+02 -0.78804095142E+02  0.80071385313E+02  0.10566000000E+00 0. -1.
        -13    1    4    4    0    0  0.10520526652E+01 -0.14910002361E+01 -0.12640618134E+02  0.12772090172E+02  0.10566000000E+00 0.  1.
        -14    1    4    4    0    0  0.27316319712E+01 -0.63483318782E+01 -0.40945356073E+02  0.41524514624E+02  0.00000000000E+00 0.  1.
<mgrwt>
<rscale>  0 0.82008662E+02</rscale>
<asrwt>0</asrwt>
<pdfrwt beam="1">  1        2 0.22430051E-01 0.82008662E+02</pdfrwt>
<pdfrwt beam="2">  1       -1 0.17741996E-02 0.82008662E+02</pdfrwt>
<totfact> 0.18581750E+05</totfact>
</mgrwt>
</event>
<event>
 8    1  0.2603554E-024  0.7958943E+02  0.7818608E-02  0.1330221E+00
         -1   -1    0    0    0  501 -0.00000000000E+00  0.00000000000E+00  0.72796289238E+02  0.72796289413E+02  0.50400000000E-02 0.  1.
          2   -1    0    0  501    0  0.00000000000E+00 -0.00000000000E+00 -0.21754121932E+02  0.21754122081E+02  0.25500000000E-02 0. -1.
         24    2    1    2    0    0  0.00000000000E+00  0.17763568394E-14  0.51042167306E+02  0.94550411494E+02  0.79589430645E+02 0.  0.
         66    2    3    3    0    0  0.37776338111E+02 -0.12431990732E+02  0.25428799210E+02  0.47246480326E+02  0.19999898206E+01 0.  0.
        -13    1    3    3    0    0 -0.37776338111E+02  0.12431990732E+02  0.25613368097E+02  0.47303931168E+02  0.10566000000E+00 0.  1.
         13    1    4    4    0    0  0.35309804760E+02 -0.11917506267E+02  0.23867496481E+02  0.44254692633E+02  0.10566000000E+00 0. -1.
        -13    1    4    4    0    0  0.23139880037E+01 -0.57259888846E+00  0.14938089208E+01  0.28151445959E+01  0.10566000000E+00 0.  1.
         14    1    4    4    0    0  0.15254534811E+00  0.58114423641E-01  0.67493808274E-01  0.17664309672E+00  0.00000000000E+00 0. -1.
<mgrwt>
<rscale>  0 0.79589431E+02</rscale>
<asrwt>0</asrwt>
<pdfrwt beam="1">  1        2 0.33467880E-02 0.79589431E+02</pdfrwt>
<pdfrwt beam="2">  1       -1 0.11199429E-01 0.79589431E+02</pdfrwt>
<totfact> 0.12814088E+05</totfact>
</mgrwt>
</event>
<event>
 8    1  0.2603554E-024  0.7898541E+02  0.7818608E-02  0.1331956E+00
          2   -1    0    0  501    0  0.00000000000E+00  0.00000000000E+00  0.95109363465E+03  0.95109363466E+03  0.25500000000E-02 0. -1.
         -1   -1    0    0    0  501 -0.00000000000E+00 -0.00000000000E+00 -0.16398699611E+01  0.16398777061E+01  0.50400000000E-02 0.  1.
         24    2    1    2    0    0 -0.35527136788E-14 -0.17763568394E-14  0.94945376469E+03  0.95273351236E+03  0.78985405557E+02 0.  0.
         66    2    3    3    0    0  0.24399875926E+02 -0.12351470776E+02  0.81827336709E+03  0.81873268903E+03  0.20000043083E+01 0.  0.
        -13    1    3    3    0    0 -0.24399875926E+02  0.12351470776E+02  0.13118039760E+03  0.13400082334E+03  0.10566000000E+00 0.  1.
         13    1    4    4    0    0  0.13822665218E+02 -0.73236007556E+01  0.46256588891E+03  0.46283032955E+03  0.10566000000E+00 0. -1.
        -13    1    4    4    0    0  0.58043811426E+01 -0.21184336678E+01  0.18074875112E+03  0.18085436350E+03  0.10566000000E+00 0.  1.
        -14    1    4    4    0    0  0.47728295658E+01 -0.29094363524E+01  0.17495872706E+03  0.17504799598E+03  0.00000000000E+00 0.  1.
<mgrwt>
<rscale>  0 0.78985406E+02</rscale>
<asrwt>0</asrwt>
<pdfrwt beam="1">  1        2 0.14632170E+00 0.78985406E+02</pdfrwt>
<pdfrwt beam="2">  1       -1 0.25228897E-03 0.78985406E+02</pdfrwt>
<totfact> 0.36309673E+05</totfact>
</mgrwt>
</event>
<event>
 8    1  0.2603554E-024  0.7988396E+02  0.7818608E-02  0.1329381E+00
          2   -1    0    0  501    0  0.00000000000E+00  0.00000000000E+00  0.11000817966E+02  0.11000818261E+02  0.25500000000E-02 0. -1.
         -1   -1    0    0    0  501 -0.00000000000E+00 -0.00000000000E+00 -0.14502209438E+03  0.14502209447E+03  0.50400000000E-02 0.  1.
         24    2    1    2    0    0  0.71054273576E-14 -0.88817841970E-15 -0.13402127641E+03  0.15602291273E+03  0.79883958118E+02 0.  0.
         66    2    3    3    0    0 -0.36051313135E+02  0.57059392268E+01 -0.35492759722E+02  0.50950867508E+02  0.19999964889E+01 0.  0.
        -13    1    3    3    0    0  0.36051313135E+02 -0.57059392268E+01 -0.98528516691E+02  0.10507204522E+03  0.10566000000E+00 0.  1.
         13    1    4    4    0    0 -0.12267077301E+02  0.17559698677E+01 -0.12975351246E+02  0.17942561681E+02  0.10566000000E+00 0. -1.
        -13    1    4    4    0    0 -0.77055741231E+01  0.16580988199E+01 -0.68836570412E+01  0.10465231128E+02  0.10566000000E+00 0.  1.
         14    1    4    4    0    0 -0.16078661711E+02  0.22918705392E+01 -0.15633751435E+02  0.22543074700E+02  0.00000000000E+00 0. -1.
<mgrwt>
<rscale>  0 0.79883958E+02</rscale>
<asrwt>0</asrwt>
<pdfrwt beam="1">  1        2 0.16924337E-02 0.79883958E+02</pdfrwt>
<pdfrwt beam="2">  1       -1 0.22311090E-01 0.79883958E+02</pdfrwt>
<totfact> 0.10919601E+05</totfact>
</mgrwt>
</event>
<event>
 8    1  0.2603554E-024  0.7955225E+02  0.7818608E-02  0.1330327E+00
          2   -1    0    0  501    0  0.00000000000E+00  0.00000000000E+00  0.19909402721E+03  0.19909402723E+03  0.25500000000E-02 0. -1.
         -1   -1    0    0    0  501 -0.00000000000E+00 -0.00000000000E+00 -0.79466976794E+01  0.79466992776E+01  0.50400000000E-02 0.  1.
         24    2    1    2    0    0 -0.35527136788E-14 -0.44408920985E-15  0.19114732953E+03  0.20704072651E+03  0.79552252291E+02 0.  0.
         66    2    3    3    0    0 -0.22101121651E+02 -0.33828491093E+01  0.18117244224E+03  0.18255781845E+03  0.20000007062E+01 0.  0.
        -13    1    3    3    0    0  0.22101121651E+02  0.33828491093E+01  0.99748872880E+01  0.24482908054E+02  0.10566000000E+00 0.  1.
         13    1    4    4    0    0 -0.83532551880E+01 -0.13518268083E+01  0.64175774410E+02  0.64731333163E+02  0.10566000000E+00 0. -1.
        -13    1    4    4    0    0 -0.94743776242E+01 -0.97754269226E+00  0.83660990476E+02  0.84201495904E+02  0.10566000000E+00 0.  1.
         14    1    4    4    0    0 -0.42734888386E+01 -0.10534796087E+01  0.33335677359E+02  0.33624989384E+02  0.00000000000E+00 0. -1.
<mgrwt>
<rscale>  0 0.79552252E+02</rscale>
<asrwt>0</asrwt>
<pdfrwt beam="1">  1        2 0.30629848E-01 0.79552252E+02</pdfrwt>
<pdfrwt beam="2">  1       -1 0.12225691E-02 0.79552252E+02</pdfrwt>
<totfact> 0.22352346E+05</totfact>
</mgrwt>
</event>
<event>
 8    1  0.2603554E-024  0.8099671E+02  0.7818608E-02  0.1326246E+00
          2   -1    0    0  501    0  0.00000000000E+00  0.00000000000E+00  0.25767247675E+02  0.25767247802E+02  0.25500000000E-02 0. -1.
         -1   -1    0    0    0  501 -0.00000000000E+00 -0.00000000000E+00 -0.63651227377E+02  0.63651227576E+02  0.50400000000E-02 0.  1.
         24    2    1    2    0    0  0.00000000000E+00 -0.17763568394E-14 -0.37883979701E+02  0.89418475378E+02  0.80996714877E+02 0.  0.
         66    2    3    3    0    0 -0.33669721109E+02  0.13479085723E+02  0.88050431649E+00  0.36333333797E+02  0.19999963629E+01 0.  0.
        -13    1    3    3    0    0  0.33669721109E+02 -0.13479085723E+02 -0.38764484018E+02  0.53085141581E+02  0.10566000000E+00 0.  1.
         13    1    4    4    0    0 -0.93160997763E+01  0.41349263166E+01 -0.37505640274E-01  0.10193130108E+02  0.10566000000E+00 0. -1.
        -13    1    4    4    0    0 -0.88303072807E+01  0.35849088416E+01 -0.32483166502E+00  0.95363817940E+01  0.10566000000E+00 0.  1.
        -14    1    4    4    0    0 -0.15523314052E+02  0.57592505651E+01  0.12428416218E+01  0.16603821895E+02  0.00000000000E+00 0.  1.
<mgrwt>
<rscale>  0 0.80996715E+02</rscale>
<asrwt>0</asrwt>
<pdfrwt beam="1">  1        2 0.39641920E-02 0.80996715E+02</pdfrwt>
<pdfrwt beam="2">  1       -1 0.97924966E-02 0.80996715E+02</pdfrwt>
<totfact> 0.12608378E+05</totfact>
</mgrwt>
</event>
<event>
 8    1  0.2603554E-024  0.7846477E+02  0.7818608E-02  0.1333466E+00
         -1   -1    0    0    0  501 -0.00000000000E+00  0.00000000000E+00  0.35177542173E+01  0.35177578278E+01  0.50400000000E-02 0.  1.
          2   -1    0    0  501    0  0.00000000000E+00 -0.00000000000E+00 -0.43754602686E+03  0.43754602687E+03  0.25500000000E-02 0. -1.
         24    2    1    2    0    0 -0.71054273576E-14  0.17763568394E-14 -0.43402827265E+03  0.44106378470E+03  0.78464773730E+02 0.  0.
         66    2    3    3    0    0  0.35788251440E+02 -0.12088691622E+02 -0.27617429304E+03  0.27875289336E+03  0.20000032686E+01 0.  0.
        -13    1    3    3    0    0 -0.35788251440E+02  0.12088691622E+02 -0.15785397960E+03  0.16231089134E+03  0.10566000000E+00 0.  1.
         13    1    4    4    0    0  0.10396185681E+02 -0.43009994999E+01 -0.85556889821E+02  0.86293521387E+02  0.10566000000E+00 0. -1.
        -13    1    4    4    0    0  0.15231605988E+01 -0.50490812643E+00 -0.11630770822E+02  0.11741420032E+02  0.10566000000E+00 0. -1.
         14    1    4    4    0    0  0.23868905160E+02 -0.72827839953E+01 -0.17898663240E+03  0.18071795194E+03  0.00000000000E+00 0. -1.
<mgrwt>
<rscale>  0 0.78464774E+02</rscale>
<asrwt>0</asrwt>
<pdfrwt beam="1">  1        2 0.67314730E-01 0.78464774E+02</pdfrwt>
<pdfrwt beam="2">  1       -1 0.54119358E-03 0.78464774E+02</pdfrwt>
<totfact> 0.30651101E+05</totfact>
</mgrwt>
</event>
<event>
 8    1  0.2603554E-024  0.8482522E+02  0.7818608E-02  0.1315890E+00
          2   -1    0    0  501    0  0.00000000000E+00  0.00000000000E+00  0.51160933529E+02  0.51160933592E+02  0.25500000000E-02 0. -1.
         -1   -1    0    0    0  501 -0.00000000000E+00 -0.00000000000E+00 -0.35160215730E+02  0.35160216091E+02  0.50400000000E-02 0.  1.
         24    2    1    2    0    0 -0.14210854715E-13  0.88817841970E-15  0.16000717798E+02  0.86321149684E+02  0.84825219791E+02 0.  0.
         66    2    3    3    0    0  0.40219547230E+02 -0.76243903083E+01  0.19202536493E+02  0.45260144898E+02  0.20000003642E+01 0.  0.
        -13    1    3    3    0    0 -0.40219547230E+02  0.76243903083E+01 -0.32018186946E+01  0.41061004785E+02  0.10566000000E+00 0.  1.
         13    1    4    4    0    0  0.27367288418E+02 -0.48273264888E+01  0.12936566042E+02  0.30653506511E+02  0.10566000000E+00 0.  1.
        -13    1    4    4    0    0  0.42860154684E+01 -0.10890369225E+01  0.26218473990E+01  0.51420985826E+01  0.10566000000E+00 0. -1.
        -14    1    4    4    0    0  0.85662433436E+01 -0.17080268970E+01  0.36441230522E+01  0.94645398051E+01  0.00000000000E+00 0.  1.
<mgrwt>
<rscale>  0 0.84825220E+02</rscale>
<asrwt>0</asrwt>
<pdfrwt beam="1">  1        2 0.78709129E-02 0.84825220E+02</pdfrwt>
<pdfrwt beam="2">  1       -1 0.54092640E-02 0.84825220E+02</pdfrwt>
<totfact> 0.12785273E+05</totfact>
</mgrwt>
</event>
<event>
 8    1  0.2603554E-024  0.8152418E+02  0.7818608E-02  0.1324781E+00
          2   -1    0    0  501    0  0.00000000000E+00  0.00000000000E+00  0.19567607423E+02  0.19567607589E+02  0.25500000000E-02 0. -1.
         -1   -1    0    0    0  501 -0.00000000000E+00 -0.00000000000E+00 -0.84913180890E+02  0.84913181040E+02  0.50400000000E-02 0.  1.
         24    2    1    2    0    0  0.00000000000E+00  0.00000000000E+00 -0.65345573467E+02  0.10448078863E+03  0.81524175682E+02 0.  0.
         66    2    3    3    0    0  0.14722296781E+02  0.19460007036E+02  0.91139543740E+01  0.26124740063E+02  0.19999956719E+01 0.  0.
        -13    1    3    3    0    0 -0.14722296781E+02 -0.19460007036E+02 -0.74459527841E+02  0.78356048565E+02  0.10566000000E+00 0.  1.
         13    1    4    4    0    0  0.77308543865E+01  0.92322019447E+01  0.38965428779E+01  0.12656771813E+02  0.10566000000E+00 0. -1.
        -13    1    4    4    0    0  0.50609500377E+01  0.68771016357E+01  0.38400671983E+01  0.93629601257E+01  0.10566000000E+00 0.  1.
        -14    1    4    4    0    0  0.19304923569E+01  0.33507034557E+01  0.13773442978E+01  0.41050081246E+01  0.00000000000E+00 0.  1.
<mgrwt>
<rscale>  0 0.81524176E+02</rscale>
<asrwt>0</asrwt>
<pdfrwt beam="1">  1        2 0.30104012E-02 0.81524176E+02</pdfrwt>
<pdfrwt beam="2">  1       -1 0.13063566E-01 0.81524176E+02</pdfrwt>
<totfact> 0.11706381E+05</totfact>
</mgrwt>
</event>
<event>
 8    1  0.2603554E-024  0.7682144E+02  0.7818608E-02  0.1338322E+00
          2   -1    0    0  501    0  0.00000000000E+00  0.00000000000E+00  0.10035628854E+03  0.10035628857E+03  0.25500000000E-02 0. -1.
         -1   -1    0    0    0  501 -0.00000000000E+00 -0.00000000000E+00 -0.14701452154E+02  0.14701453018E+02  0.50400000000E-02 0.  1.
         24    2    1    2    0    0  0.00000000000E+00  0.35527136788E-14  0.85654836385E+02  0.11505774159E+03  0.76821435182E+02 0.  0.
         66    2    3    3    0    0 -0.19365136524E+02 -0.24917303676E+02  0.75584338213E+02  0.81932122612E+02  0.19999994040E+01 0.  0.
        -13    1    3    3    0    0  0.19365136524E+02  0.24917303676E+02  0.10070498172E+02  0.33125618976E+02  0.10566000000E+00 0.  1.
         13    1    4    4    0    0 -0.28856768923E+01 -0.35188285990E+01  0.11062751745E+02  0.11962647117E+02  0.10566000000E+00 0. -1.
        -13    1    4    4    0    0 -0.15268707781E+02 -0.20150614503E+02  0.61292195292E+02  0.66301772750E+02  0.10566000000E+00 0.  1.
        -14    1    4    4    0    0 -0.12107518513E+01 -0.12478605743E+01  0.32293911758E+01  0.36677027449E+01  0.00000000000E+00 0.  1.
<mgrwt>
<rscale>  0 0.76821435E+02</rscale>
<asrwt>0</asrwt>
<pdfrwt beam="1">  1        2 0.15439428E-01 0.76821435E+02</pdfrwt>
<pdfrwt beam="2">  1       -1 0.22617621E-02 0.76821435E+02</pdfrwt>
<totfact> 0.19773852E+05</totfact>
</mgrwt>
</event>
<event>
 8    1  0.2603554E-024  0.7969214E+02  0.7818608E-02  0.1329927E+00
          2   -1    0    0  501    0  0.00000000000E+00  0.00000000000E+00  0.60253489114E+03  0.60253489114E+03  0.25500000000E-02 0. -1.
         -1   -1    0    0    0  501 -0.00000000000E+00 -0.00000000000E+00 -0.26350473773E+01  0.26350521973E+01  0.50400000000E-02 0.  1.
         24    2    1    2    0    0  0.00000000000E+00  0.00000000000E+00  0.59989984376E+03  0.60516994334E+03  0.79692143771E+02 0.  0.
         66    2    3    3    0    0 -0.19774427602E+02  0.29702210271E+02  0.43437020922E+03  0.43583796066E+03  0.20000040546E+01 0.  0.
        -13    1    3    3    0    0  0.19774427602E+02 -0.29702210271E+02  0.16552963455E+03  0.16933198268E+03  0.10566000000E+00 0.  1.
         13    1    4    4    0    0 -0.40165891499E+01  0.68248021378E+01  0.10314544278E+03  0.10344904274E+03  0.10566000000E+00 0. -1.
        -13    1    4    4    0    0 -0.38609592806E+01  0.54954894627E+01  0.84738825776E+02  0.85004630280E+02  0.10566000000E+00 0.  1.
         14    1    4    4    0    0 -0.11896879171E+02  0.17381918670E+02  0.24648594066E+03  0.24738428764E+03  0.00000000000E+00 0. -1.
<mgrwt>
<rscale>  0 0.79692144E+02</rscale>
<asrwt>0</asrwt>
<pdfrwt beam="1">  1        2 0.92697893E-01 0.79692144E+02</pdfrwt>
<pdfrwt beam="2">  1       -1 0.40539133E-03 0.79692144E+02</pdfrwt>
<totfact> 0.32525854E+05</totfact>
</mgrwt>
</event>
<event>
 8    1  0.2603554E-024  0.8241842E+02  0.7818608E-02  0.1322325E+00
          2   -1    0    0  501    0  0.00000000000E+00  0.00000000000E+00  0.62405535115E+03  0.62405535116E+03  0.25500000000E-02 0. -1.
         -1   -1    0    0    0  501 -0.00000000000E+00 -0.00000000000E+00 -0.27212290495E+01  0.27212337167E+01  0.50400000000E-02 0.  1.
         24    2    1    2    0    0  0.00000000000E+00 -0.88817841970E-15  0.62133412210E+03  0.62677658487E+03  0.82418420619E+02 0.  0.
         66    2    3    3    0    0  0.36949624848E+02 -0.75710155387E+01  0.43663937007E+03  0.43826993341E+03  0.19999964959E+01 0.  0.
        -13    1    3    3    0    0 -0.36949624848E+02  0.75710155387E+01  0.18469475204E+03  0.18850665146E+03  0.10566000000E+00 0.  1.
         13    1    4    4    0    0  0.30872253116E+02 -0.68632104252E+01  0.36485849402E+03  0.36622661221E+03  0.10566000000E+00 0. -1.
        -13    1    4    4    0    0  0.48885260135E+01 -0.64452028026E+00  0.55295132295E+02  0.55514645928E+02  0.10566000000E+00 0.  1.
        -14    1    4    4    0    0  0.11888457182E+01 -0.63284833225E-01  0.16485743753E+02  0.16528675271E+02  0.00000000000E+00 0.  1.
<mgrwt>
<rscale>  0 0.82418421E+02</rscale>
<asrwt>0</asrwt>
<pdfrwt beam="1">  1        2 0.96008527E-01 0.82418421E+02</pdfrwt>
<pdfrwt beam="2">  1       -1 0.41865093E-03 0.82418421E+02</pdfrwt>
<totfact> 0.30083092E+05</totfact>
</mgrwt>
</event>
<event>
 8    1  0.2603554E-024  0.7721849E+02  0.7818608E-02  0.1337136E+00
         -1   -1    0    0    0  501 -0.00000000000E+00  0.00000000000E+00  0.84291119527E+01  0.84291134594E+01  0.50400000000E-02 0.  1.
          2   -1    0    0  501    0  0.00000000000E+00 -0.00000000000E+00 -0.17684825692E+03  0.17684825694E+03  0.25500000000E-02 0. -1.
         24    2    1    2    0    0  0.00000000000E+00  0.00000000000E+00 -0.16841914497E+03  0.18527737040E+03  0.77218492539E+02 0.  0.
         66    2    3    3    0    0  0.19645738595E+02  0.32773546923E+02 -0.97099520729E+02  0.10436655290E+03  0.20000038159E+01 0.  0.
        -13    1    3    3    0    0 -0.19645738595E+02 -0.32773546923E+02 -0.71319624239E+02  0.80910817500E+02  0.10566000000E+00 0.  1.
         13    1    4    4    0    0  0.32561778398E+01  0.57927385598E+01 -0.16357571739E+02  0.17656155623E+02  0.10566000000E+00 0. -1.
        -13    1    4    4    0    0  0.96500089464E+01  0.14795894625E+02 -0.43459748688E+02  0.46912707132E+02  0.10566000000E+00 0.  1.
        -14    1    4    4    0    0  0.67395518088E+01  0.12184913739E+02 -0.37282200302E+02  0.39797690144E+02  0.00000000000E+00 0.  1.
<mgrwt>
<rscale>  0 0.77218493E+02</rscale>
<asrwt>0</asrwt>
<pdfrwt beam="1">  1        2 0.27207421E-01 0.77218493E+02</pdfrwt>
<pdfrwt beam="2">  1       -1 0.12967867E-02 0.77218493E+02</pdfrwt>
<totfact> 0.23218088E+05</totfact>
</mgrwt>
</event>
<event>
 8    1  0.2603554E-024  0.7979281E+02  0.7818608E-02  0.1329640E+00
          2   -1    0    0  501    0  0.00000000000E+00  0.00000000000E+00  0.18525096057E+03  0.18525096059E+03  0.25500000000E-02 0. -1.
         -1   -1    0    0    0  501 -0.00000000000E+00 -0.00000000000E+00 -0.85922520264E+01  0.85922535046E+01  0.50400000000E-02 0.  1.
         24    2    1    2    0    0 -0.22204460493E-15  0.35527136788E-14  0.17665870854E+03  0.19384321409E+03  0.79792808857E+02 0.  0.
         66    2    3    3    0    0  0.15746097765E+01 -0.18032715743E+02  0.17468787904E+03  0.17563460168E+03  0.19999977014E+01 0.  0.
        -13    1    3    3    0    0 -0.15746097765E+01  0.18032715743E+02  0.19708295043E+01  0.18208612413E+02  0.10566000000E+00 0.  1.
         13    1    4    4    0    0  0.80744691648E+00 -0.76182961659E+01  0.64738670224E+02  0.65190467044E+02  0.10566000000E+00 0. -1.
        -13    1    4    4    0    0  0.65278033335E+00 -0.82598792859E+01  0.86974018334E+02  0.87367858834E+02  0.10566000000E+00 0.  1.
         14    1    4    4    0    0  0.11438252666E+00 -0.21545402915E+01  0.22975190482E+02  0.23076275803E+02  0.00000000000E+00 0. -1.
<mgrwt>
<rscale>  0 0.79792809E+02</rscale>
<asrwt>0</asrwt>
<pdfrwt beam="1">  1        2 0.28500147E-01 0.79792809E+02</pdfrwt>
<pdfrwt beam="2">  1       -1 0.13218851E-02 0.79792809E+02</pdfrwt>
<totfact> 0.21631557E+05</totfact>
</mgrwt>
</event>
<event>
 8    1  0.2603554E-024  0.8057715E+02  0.7818608E-02  0.1327422E+00
         -1   -1    0    0    0  501 -0.00000000000E+00  0.00000000000E+00  0.15800487507E+01  0.15800567889E+01  0.50400000000E-02 0.  1.
          2   -1    0    0  501    0  0.00000000000E+00 -0.00000000000E+00 -0.10272878974E+04  0.10272878974E+04  0.25500000000E-02 0. -1.
         24    2    1    2    0    0  0.00000000000E+00  0.00000000000E+00 -0.10257078486E+04  0.10288679541E+04  0.80577145534E+02 0.  0.
         66    2    3    3    0    0 -0.30359039647E+02 -0.31485285224E+01 -0.84847395232E+03  0.84902510698E+03  0.20000001971E+01 0.  0.
        -13    1    3    3    0    0  0.30359039647E+02  0.31485285224E+01 -0.17723389628E+03  0.17984284716E+03  0.10566000000E+00 0.  1.
         13    1    4    4    0    0 -0.15254805688E+01 -0.32435511840E+00 -0.49692522390E+02  0.49717102115E+02  0.10566000000E+00 0. -1.
        -13    1    4    4    0    0 -0.20146619591E+02 -0.20246243213E+01 -0.57633553772E+03  0.57669112061E+03  0.10566000000E+00 0.  1.
        -14    1    4    4    0    0 -0.86869394877E+01 -0.79954908267E+00 -0.22244589221E+03  0.22261688426E+03  0.00000000000E+00 0.  1.
<mgrwt>
<rscale>  0 0.80577146E+02</rscale>
<asrwt>0</asrwt>
<pdfrwt beam="1">  1        2 0.15804376E+00 0.80577146E+02</pdfrwt>
<pdfrwt beam="2">  1       -1 0.24308586E-03 0.80577146E+02</pdfrwt>
<totfact> 0.34609539E+05</totfact>
</mgrwt>
</event>
<event>
 8    1  0.2603554E-024  0.7876854E+02  0.7818608E-02  0.1332583E+00
         -1   -1    0    0    0  501 -0.00000000000E+00  0.00000000000E+00  0.11274770326E+03  0.11274770337E+03  0.50400000000E-02 0.  1.
          2   -1    0    0  501    0  0.00000000000E+00 -0.00000000000E+00 -0.13757448537E+02  0.13757448773E+02  0.25500000000E-02 0. -1.
         24    2    1    2    0    0  0.00000000000E+00  0.17763568394E-14  0.98990254724E+02  0.12650515215E+03  0.78768540607E+02 0.  0.
         66    2    3    3    0    0 -0.28128788823E+02  0.14194394677E+02  0.11643334063E+02  0.33649321345E+02  0.19999994851E+01 0.  0.
        -13    1    3    3    0    0  0.28128788823E+02 -0.14194394677E+02  0.87346920661E+02  0.92855830802E+02  0.10566000000E+00 0.  1.
         13    1    4    4    0    0 -0.14524364530E+02  0.71584312719E+01  0.66722082075E+01  0.17513704054E+02  0.10566000000E+00 0.  1.
        -13    1    4    4    0    0 -0.12812732404E+02  0.68662771526E+01  0.47915201149E+01  0.15306263510E+02  0.10566000000E+00 0. -1.
         14    1    4    4    0    0 -0.79169188960E+00  0.16968625224E+00  0.17960574038E+00  0.82935378111E+00  0.00000000000E+00 0. -1.
<mgrwt>
<rscale>  0 0.78768541E+02</rscale>
<asrwt>0</asrwt>
<pdfrwt beam="1">  1        2 0.21165304E-02 0.78768541E+02</pdfrwt>
<pdfrwt beam="2">  1       -1 0.17345802E-01 0.78768541E+02</pdfrwt>
<totfact> 0.12003464E+05</totfact>
</mgrwt>
</event>
<event>
 8    1  0.2603554E-024  0.7461789E+02  0.7818608E-02  0.1345058E+00
         -1   -1    0    0    0  501 -0.00000000000E+00  0.00000000000E+00  0.15855286112E+02  0.15855286913E+02  0.50400000000E-02 0.  1.
          2   -1    0    0  501    0  0.00000000000E+00 -0.00000000000E+00 -0.87791370170E+02  0.87791370207E+02  0.25500000000E-02 0. -1.
         24    2    1    2    0    0 -0.44408920985E-15 -0.17763568394E-14 -0.71936084058E+02  0.10364665712E+03  0.74617888892E+02 0.  0.
         66    2    3    3    0    0 -0.39980417438E+01 -0.14012365237E+02 -0.83660527876E+02  0.84943596830E+02  0.20000001361E+01 0.  0.
        -13    1    3    3    0    0  0.39980417438E+01  0.14012365237E+02  0.11724443819E+02  0.18703060290E+02  0.10566000000E+00 0.  1.
         13    1    4    4    0    0 -0.15451308394E+01 -0.49007870182E+01 -0.28823610927E+02  0.29278265891E+02  0.10566000000E+00 0. -1.
        -13    1    4    4    0    0 -0.17716691769E+00 -0.33832289727E+01 -0.20939807936E+02  0.21212363066E+02  0.10566000000E+00 0.  1.
        -14    1    4    4    0    0 -0.22757439867E+01 -0.57283492460E+01 -0.33897109013E+02  0.34452967873E+02  0.00000000000E+00 0.  1.
<mgrwt>
<rscale>  0 0.74617889E+02</rscale>
<asrwt>0</asrwt>
<pdfrwt beam="1">  1        2 0.13506364E-01 0.74617889E+02</pdfrwt>
<pdfrwt beam="2">  1       -1 0.24392749E-02 0.74617889E+02</pdfrwt>
<totfact> 0.20611258E+05</totfact>
</mgrwt>
</event>
<event>
 8    1  0.2603554E-024  0.7900845E+02  0.7818608E-02  0.1331889E+00
         -1   -1    0    0    0  501 -0.00000000000E+00  0.00000000000E+00  0.49517655662E+02  0.49517655918E+02  0.50400000000E-02 0.  1.
          2   -1    0    0  501    0  0.00000000000E+00 -0.00000000000E+00 -0.31515700346E+02  0.31515700449E+02  0.25500000000E-02 0. -1.
         24    2    1    2    0    0  0.00000000000E+00  0.17763568394E-14  0.18001955316E+02  0.81033356367E+02  0.79008445427E+02 0.  0.
         66    2    3    3    0    0  0.38049276478E+02 -0.88354914598E+01  0.14877532053E+02  0.41846795729E+02  0.20000007245E+01 0.  0.
        -13    1    3    3    0    0 -0.38049276478E+02  0.88354914598E+01  0.31244232626E+01  0.39186560638E+02  0.10566000000E+00 0.  1.
         13    1    4    4    0    0  0.12183106932E+02 -0.29127500458E+01  0.45062630052E+01  0.13312767468E+02  0.10566000000E+00 0. -1.
        -13    1    4    4    0    0  0.15701134843E+02 -0.39450086010E+01  0.70594353757E+01  0.17661696410E+02  0.10566000000E+00 0.  1.
        -14    1    4    4    0    0  0.10165034704E+02 -0.19777328130E+01  0.33118336724E+01  0.10872331851E+02  0.00000000000E+00 0.  1.
<mgrwt>
<rscale>  0 0.79008445E+02</rscale>
<asrwt>0</asrwt>
<pdfrwt beam="1">  1        2 0.48485693E-02 0.79008445E+02</pdfrwt>
<pdfrwt beam="2">  1       -1 0.76181009E-02 0.79008445E+02</pdfrwt>
<totfact> 0.14068620E+05</totfact>
</mgrwt>
</event>
<event>
 8    1  0.2603554E-024  0.7964132E+02  0.7818608E-02  0.1330072E+00
         -1   -1    0    0    0  501 -0.00000000000E+00  0.00000000000E+00  0.64790622288E+01  0.64790641891E+01  0.50400000000E-02 0.  1.
          2   -1    0    0  501    0  0.00000000000E+00 -0.00000000000E+00 -0.24473982508E+03  0.24473982510E+03  0.25500000000E-02 0. -1.
         24    2    1    2    0    0  0.35527136788E-14 -0.35527136788E-14 -0.23826076286E+03  0.25121888929E+03  0.79641316024E+02 0.  0.
         66    2    3    3    0    0  0.30056574891E+02 -0.25192897248E+02 -0.14050613699E+03  0.14589055593E+03  0.20000028244E+01 0.  0.
        -13    1    3    3    0    0 -0.30056574891E+02  0.25192897248E+02 -0.97754625862E+02  0.10532833336E+03  0.10566000000E+00 0.  1.
         13    1    4    4    0    0  0.68088848811E+01 -0.53364526635E+01 -0.31773067774E+02  0.32929889768E+02  0.10566000000E+00 0. -1.
        -13    1    4    4    0    0  0.67271723184E+01 -0.66813408797E+01 -0.34205133420E+02  0.35495034578E+02  0.10566000000E+00 0.  1.
        -14    1    4    4    0    0  0.16520517691E+02 -0.13175103705E+02 -0.74527935799E+02  0.77465631585E+02  0.00000000000E+00 0.  1.
<mgrwt>
<rscale>  0 0.79641316E+02</rscale>
<asrwt>0</asrwt>
<pdfrwt beam="1">  1        2 0.37652274E-01 0.79641316E+02</pdfrwt>
<pdfrwt beam="2">  1       -1 0.99677915E-03 0.79641316E+02</pdfrwt>
<totfact> 0.23968950E+05</totfact>
</mgrwt>
</event>
<event>
 8    1  0.2603554E-024  0.8141811E+02  0.7818608E-02  0.1325075E+00
         -1   -1    0    0    0  501 -0.00000000000E+00  0.00000000000E+00  0.31441994376E+02  0.31441994780E+02  0.50400000000E-02 0.  1.
          2   -1    0    0  501    0  0.00000000000E+00 -0.00000000000E+00 -0.52707442730E+02  0.52707442792E+02  0.25500000000E-02 0. -1.
         24    2    1    2    0    0 -0.35527136788E-14  0.35527136788E-14 -0.21265448354E+02  0.84149437572E+02  0.81418109472E+02 0.  0.
         66    2    3    3    0    0  0.22588477339E+02 -0.25376836078E+02 -0.33773011242E+02  0.47946213803E+02  0.20000029623E+01 0.  0.
        -13    1    3    3    0    0 -0.22588477339E+02  0.25376836078E+02  0.12507562888E+02  0.36203223769E+02  0.10566000000E+00 0.  1.
         13    1    4    4    0    0  0.51542019483E+01 -0.53370374505E+01 -0.66767003950E+01  0.99819466373E+01  0.10566000000E+00 0. -1.
        -13    1    4    4    0    0  0.70142616157E+00 -0.10596052004E+01 -0.10587193126E+01  0.16573510368E+01  0.10566000000E+00 0.  1.
         14    1    4    4    0    0  0.16732849229E+02 -0.18980193427E+02 -0.26037591534E+02  0.36306916129E+02  0.00000000000E+00 0. -1.
<mgrwt>
<rscale>  0 0.81418109E+02</rscale>
<asrwt>0</asrwt>
<pdfrwt beam="1">  1        2 0.81088374E-02 0.81418109E+02</pdfrwt>
<pdfrwt beam="2">  1       -1 0.48372300E-02 0.81418109E+02</pdfrwt>
<totfact> 0.14407062E+05</totfact>
</mgrwt>
</event>
<event>
 8    1  0.2603554E-024  0.7891637E+02  0.7818608E-02  0.1332155E+00
          2   -1    0    0  501    0  0.00000000000E+00  0.00000000000E+00  0.63990470316E+01  0.63990475396E+01  0.25500000000E-02 0. -1.
         -1   -1    0    0    0  501 -0.00000000000E+00 -0.00000000000E+00 -0.24330941973E+03  0.24330941978E+03  0.50400000000E-02 0.  1.
         24    2    1    2    0    0  0.00000000000E+00  0.00000000000E+00 -0.23691037269E+03  0.24970846732E+03  0.78916373206E+02 0.  0.
         66    2    3    3    0    0  0.24334945965E+02  0.25266992736E+02 -0.17551621154E+03  0.17899874588E+03  0.19999996328E+01 0.  0.
        -13    1    3    3    0    0 -0.24334945965E+02 -0.25266992736E+02 -0.61394161158E+02  0.70709721435E+02  0.10566000000E+00 0.  1.
         13    1    4    4    0    0  0.19833279868E+02  0.20764980395E+02 -0.14195254806E+03  0.14482776138E+03  0.10566000000E+00 0. -1.
        -13    1    4    4    0    0  0.22975021534E+01  0.28255327852E+01 -0.19402295803E+02  0.19741387949E+02  0.10566000000E+00 0.  1.
        -14    1    4    4    0    0  0.22041639436E+01  0.16764795556E+01 -0.14161367671E+02  0.14429596554E+02  0.00000000000E+00 0.  1.
<mgrwt>
<rscale>  0 0.78916373E+02</rscale>
<asrwt>0</asrwt>
<pdfrwt beam="1">  1        2 0.98446900E-03 0.78916373E+02</pdfrwt>
<pdfrwt beam="2">  1       -1 0.37432211E-01 0.78916373E+02</pdfrwt>
<totfact> 0.96802770E+04</totfact>
</mgrwt>
</event>
<event>
 8    1  0.2603554E-024  0.7888458E+02  0.7818608E-02  0.1332247E+00
          2   -1    0    0  501    0  0.00000000000E+00  0.00000000000E+00  0.94647757348E+01  0.94647760783E+01  0.25500000000E-02 0. -1.
         -1   -1    0    0    0  501 -0.00000000000E+00 -0.00000000000E+00 -0.16436673597E+03  0.16436673605E+03  0.50400000000E-02 0.  1.
         24    2    1    2    0    0  0.00000000000E+00  0.00000000000E+00 -0.15490196024E+03  0.17383151213E+03  0.78884582291E+02 0.  0.
         66    2    3    3    0    0 -0.27022485641E+02 -0.22240792512E+02 -0.37541436419E+02  0.51363674323E+02  0.20000024204E+01 0.  0.
        -13    1    3    3    0    0  0.27022485641E+02  0.22240792512E+02 -0.11736052382E+03  0.12246783781E+03  0.10566000000E+00 0.  1.
         13    1    4    4    0    0 -0.13932169551E+02 -0.12475279627E+02 -0.20080348989E+02  0.27440290263E+02  0.10566000000E+00 0. -1.
        -13    1    4    4    0    0 -0.44876075703E+01 -0.30464249291E+01 -0.53548797190E+01  0.76226784922E+01  0.10566000000E+00 0.  1.
        -14    1    4    4    0    0 -0.86027085199E+01 -0.67190879561E+01 -0.12106207711E+02  0.16300705567E+02  0.00000000000E+00 0.  1.
<mgrwt>
<rscale>  0 0.78884582E+02</rscale>
<asrwt>0</asrwt>
<pdfrwt beam="1">  1        2 0.14561195E-02 0.78884582E+02</pdfrwt>
<pdfrwt beam="2">  1       -1 0.25287188E-01 0.78884582E+02</pdfrwt>
<totfact> 0.10913898E+05</totfact>
</mgrwt>
</event>
<event>
 8    1  0.2603554E-024  0.7824348E+02  0.7818608E-02  0.1334111E+00
         -1   -1    0    0    0  501 -0.00000000000E+00  0.00000000000E+00  0.88838255514E+01  0.88838269811E+01  0.50400000000E-02 0.  1.
          2   -1    0    0  501    0  0.00000000000E+00 -0.00000000000E+00 -0.17228057003E+03  0.17228057005E+03  0.25500000000E-02 0. -1.
         24    2    1    2    0    0  0.00000000000E+00  0.35527136788E-14 -0.16339674448E+03  0.18116439703E+03  0.78243483084E+02 0.  0.
         66    2    3    3    0    0  0.65743011142E+01  0.29196463307E+02 -0.13999884325E+03  0.14317587441E+03  0.19999994740E+01 0.  0.
        -13    1    3    3    0    0 -0.65743011142E+01 -0.29196463307E+02 -0.23397901234E+02  0.37988522622E+02  0.10566000000E+00 0.  1.
         13    1    4    4    0    0  0.25964199750E+01  0.80097833450E+01 -0.38145348496E+02  0.39063753044E+02  0.10566000000E+00 0. -1.
        -13    1    4    4    0    0  0.80967743864E+00  0.49220508604E+01 -0.22336383255E+02  0.22886837772E+02  0.10566000000E+00 0.  1.
         14    1    4    4    0    0  0.31682037006E+01  0.16264629102E+02 -0.79517111494E+02  0.81225283594E+02  0.00000000000E+00 0. -1.
<mgrwt>
<rscale>  0 0.78243483E+02</rscale>
<asrwt>0</asrwt>
<pdfrwt beam="1">  1        2 0.26504701E-01 0.78243483E+02</pdfrwt>
<pdfrwt beam="2">  1       -1 0.13667426E-02 0.78243483E+02</pdfrwt>
<totfact> 0.22229266E+05</totfact>
</mgrwt>
</event>
<event>
 8    1  0.2603554E-024  0.8305653E+02  0.7818608E-02  0.1320595E+00
         -1   -1    0    0    0  501 -0.00000000000E+00  0.00000000000E+00  0.48483874897E+02  0.48483875159E+02  0.50400000000E-02 0.  1.
          2   -1    0    0  501    0  0.00000000000E+00 -0.00000000000E+00 -0.35570524082E+02  0.35570524173E+02  0.25500000000E-02 0. -1.
         24    2    1    2    0    0  0.00000000000E+00  0.00000000000E+00  0.12913350815E+02  0.84054399332E+02  0.83056531457E+02 0.  0.
         66    2    3    3    0    0 -0.24864848137E+02  0.23352550998E+02 -0.17466604806E+02  0.38375572962E+02  0.20000014347E+01 0.  0.
        -13    1    3    3    0    0  0.24864848137E+02 -0.23352550998E+02  0.30379955621E+02  0.45678826370E+02  0.10566000000E+00 0.  1.
         13    1    4    4    0    0 -0.18625743108E+02  0.17670713617E+02 -0.13556522048E+02  0.29033823037E+02  0.10566000000E+00 0. -1.
        -13    1    4    4    0    0 -0.33757413963E+01  0.34402071158E+01 -0.18608337262E+01  0.51676417413E+01  0.10566000000E+00 0.  1.
        -14    1    4    4    0    0 -0.28633636320E+01  0.22416302656E+01 -0.20492490312E+01  0.41741081836E+01  0.00000000000E+00 0.  1.
<mgrwt>
<rscale>  0 0.83056531E+02</rscale>
<asrwt>0</asrwt>
<pdfrwt beam="1">  1        2 0.54723884E-02 0.83056531E+02</pdfrwt>
<pdfrwt beam="2">  1       -1 0.74590577E-02 0.83056531E+02</pdfrwt>
<totfact> 0.12537668E+05</totfact>
</mgrwt>
</event>
<event>
 8    1  0.2603554E-024  0.8987895E+02  0.7818608E-02  0.1303145E+00
          2   -1    0    0  501    0  0.00000000000E+00  0.00000000000E+00  0.13666657325E+04  0.13666657325E+04  0.25500000000E-02 0. -1.
         -1   -1    0    0    0  501 -0.00000000000E+00 -0.00000000000E+00 -0.14777208069E+01  0.14777294017E+01  0.50400000000E-02 0.  1.
         24    2    1    2    0    0  0.00000000000E+00  0.00000000000E+00  0.13651880117E+04  0.13681434619E+04  0.89878946813E+02 0.  0.
         66    2    3    3    0    0 -0.29323312193E+02 -0.39007069037E+01  0.11974457495E+04  0.11978127546E+04  0.19999991998E+01 0.  0.
        -13    1    3    3    0    0  0.29323312193E+02  0.39007069037E+01  0.16774226222E+03  0.17033070730E+03  0.10566000000E+00 0.  1.
         13    1    4    4    0    0 -0.11647803175E+02 -0.17971584640E+01  0.44358766485E+03  0.44374421537E+03  0.10566000000E+00 0.  1.
        -13    1    4    4    0    0 -0.46314529712E+01 -0.76618874132E+00  0.20773802457E+03  0.20779108599E+03  0.10566000000E+00 0. -1.
        -14    1    4    4    0    0 -0.13044056046E+02 -0.13373596983E+01  0.54612006004E+03  0.54627745323E+03  0.00000000000E+00 0.  1.
<mgrwt>
<rscale>  0 0.89878947E+02</rscale>
<asrwt>0</asrwt>
<pdfrwt beam="1">  1        2 0.21025693E+00 0.89878947E+02</pdfrwt>
<pdfrwt beam="2">  1       -1 0.22734161E-03 0.89878947E+02</pdfrwt>
<totfact> 0.25252270E+05</totfact>
</mgrwt>
</event>
<event>
 8    1  0.2603554E-024  0.8139105E+02  0.7818608E-02  0.1325150E+00
         -1   -1    0    0    0  501 -0.00000000000E+00  0.00000000000E+00  0.13231138940E+02  0.13231139899E+02  0.50400000000E-02 0.  1.
          2   -1    0    0  501    0  0.00000000000E+00 -0.00000000000E+00 -0.12516877784E+03  0.12516877787E+03  0.25500000000E-02 0. -1.
         24    2    1    2    0    0  0.00000000000E+00 -0.35527136788E-14 -0.11193763890E+03  0.13839991777E+03  0.81391045177E+02 0.  0.
         66    2    3    3    0    0 -0.27226605490E+02  0.29507822327E+02 -0.44966606117E+02  0.60315796325E+02  0.19999989255E+01 0.  0.
        -13    1    3    3    0    0  0.27226605490E+02 -0.29507822327E+02 -0.66971032785E+02  0.78084121441E+02  0.10566000000E+00 0.  1.
         13    1    4    4    0    0 -0.15393212470E+02  0.16152872110E+02 -0.25925977875E+02  0.34205756246E+02  0.10566000000E+00 0. -1.
        -13    1    4    4    0    0 -0.56975138787E+01  0.69879850238E+01 -0.99675865665E+01  0.13440890785E+02  0.10566000000E+00 0.  1.
         14    1    4    4    0    0 -0.61358791409E+01  0.63669651927E+01 -0.90730416758E+01  0.12669149295E+02  0.00000000000E+00 0. -1.
<mgrwt>
<rscale>  0 0.81391045E+02</rscale>
<asrwt>0</asrwt>
<pdfrwt beam="1">  1        2 0.19256734E-01 0.81391045E+02</pdfrwt>
<pdfrwt beam="2">  1       -1 0.20355600E-02 0.81391045E+02</pdfrwt>
<totfact> 0.18075546E+05</totfact>
</mgrwt>
</event>
<event>
 8    1  0.2603554E-024  0.7566281E+02  0.7818608E-02  0.1341831E+00
         -1   -1    0    0    0  501 -0.00000000000E+00  0.00000000000E+00  0.21691532957E+03  0.21691532962E+03  0.50400000000E-02 0.  1.
          2   -1    0    0  501    0  0.00000000000E+00 -0.00000000000E+00 -0.65980357820E+01  0.65980362748E+01  0.25500000000E-02 0. -1.
         24    2    1    2    0    0  0.00000000000E+00  0.00000000000E+00  0.21031729378E+03  0.22351336590E+03  0.75662809035E+02 0.  0.
         66    2    3    3    0    0  0.51239529346E+01 -0.31765472567E+02  0.46601953562E+02  0.56666058672E+02  0.19999971390E+01 0.  0.
        -13    1    3    3    0    0 -0.51239529346E+01  0.31765472567E+02  0.16371534022E+03  0.16684730723E+03  0.10566000000E+00 0.  1.
         13    1    4    4    0    0  0.75005419639E+00 -0.84062411173E+01  0.11604817339E+02  0.14349579107E+02  0.10566000000E+00 0. -1.
        -13    1    4    4    0    0  0.21667154769E+01 -0.89781245567E+01  0.13881136547E+02  0.16673286790E+02  0.10566000000E+00 0.  1.
         14    1    4    4    0    0  0.22071832613E+01 -0.14381106893E+02  0.21115999676E+02  0.25643192775E+02  0.00000000000E+00 0. -1.
<mgrwt>
<rscale>  0 0.75662809E+02</rscale>
<asrwt>0</asrwt>
<pdfrwt beam="1">  1        2 0.10150824E-02 0.75662809E+02</pdfrwt>
<pdfrwt beam="2">  1       -1 0.33371592E-01 0.75662809E+02</pdfrwt>
<totfact> 0.11193566E+05</totfact>
</mgrwt>
</event>
<event>
 8    1  0.2603554E-024  0.7880350E+02  0.7818608E-02  0.1332482E+00
         -1   -1    0    0    0  501 -0.00000000000E+00  0.00000000000E+00  0.82173184878E+00  0.82174730477E+00  0.50400000000E-02 0.  1.
          2   -1    0    0  501    0  0.00000000000E+00 -0.00000000000E+00 -0.18892822290E+04  0.18892822290E+04  0.25500000000E-02 0. -1.
         24    2    1    2    0    0  0.88817841970E-15  0.00000000000E+00 -0.18884604971E+04  0.18901039763E+04  0.78803502136E+02 0.  0.
         66    2    3    3    0    0 -0.62174519314E+01  0.10451040119E+02 -0.18431110375E+04  0.18431522394E+04  0.19999827787E+01 0.  0.
        -13    1    3    3    0    0  0.62174519314E+01 -0.10451040119E+02 -0.45349459609E+02  0.46951736911E+02  0.10566000000E+00 0.  1.
         13    1    4    4    0    0 -0.21565616719E+01  0.34196979823E+01 -0.69536545240E+03  0.69537721320E+03  0.10566000000E+00 0. -1.
        -13    1    4    4    0    0 -0.26655232684E+01  0.44364346253E+01 -0.64273250020E+03  0.64275334690E+03  0.10566000000E+00 0.  1.
         14    1    4    4    0    0 -0.13953669911E+01  0.25949075111E+01 -0.50501308490E+03  0.50502167925E+03  0.00000000000E+00 0. -1.
<mgrwt>
<rscale>  0 0.78803502E+02</rscale>
<asrwt>0</asrwt>
<pdfrwt beam="1">  1        2 0.29065533E+00 0.78803502E+02</pdfrwt>
<pdfrwt beam="2">  1       -1 0.12642299E-03 0.78803502E+02</pdfrwt>
<totfact> 0.30320639E+05</totfact>
</mgrwt>
</event>
<event>
 8    1  0.2603554E-024  0.8007012E+02  0.7818608E-02  0.1328853E+00
         -1   -1    0    0    0  501 -0.00000000000E+00  0.00000000000E+00  0.27989554179E+02  0.27989554632E+02  0.50400000000E-02 0.  1.
          2   -1    0    0  501    0  0.00000000000E+00 -0.00000000000E+00 -0.57264439612E+02  0.57264439669E+02  0.25500000000E-02 0. -1.
         24    2    1    2    0    0  0.00000000000E+00  0.17763568394E-14 -0.29274885433E+02  0.85253994301E+02  0.80070123187E+02 0.  0.
         66    2    3    3    0    0  0.34676565183E+02 -0.15513977261E+02 -0.28015462399E+02  0.47244193279E+02  0.20000004445E+01 0.  0.
        -13    1    3    3    0    0 -0.34676565183E+02  0.15513977261E+02 -0.12594230341E+01  0.38009801022E+02  0.10566000000E+00 0.  1.
         13    1    4    4    0    0  0.38114914583E+01 -0.12050421983E+01 -0.28948384599E+01  0.49366838648E+01  0.10566000000E+00 0.  1.
        -13    1    4    4    0    0  0.37750405484E+01 -0.19765954202E+01 -0.35678946418E+01  0.55586776132E+01  0.10566000000E+00 0. -1.
         14    1    4    4    0    0  0.27090033177E+02 -0.12332339642E+02 -0.21552729297E+02  0.36748831801E+02  0.00000000000E+00 0. -1.
<mgrwt>
<rscale>  0 0.80070123E+02</rscale>
<asrwt>0</asrwt>
<pdfrwt beam="1">  1        2 0.88099138E-02 0.80070123E+02</pdfrwt>
<pdfrwt beam="2">  1       -1 0.43060853E-02 0.80070123E+02</pdfrwt>
<totfact> 0.15363903E+05</totfact>
</mgrwt>
</event>
<event>
 8    1  0.2603554E-024  0.8133656E+02  0.7818608E-02  0.1325301E+00
         -1   -1    0    0    0  501 -0.00000000000E+00  0.00000000000E+00  0.77918002100E+00  0.77919632104E+00  0.50400000000E-02 0.  1.
          2   -1    0    0  501    0  0.00000000000E+00 -0.00000000000E+00 -0.21226055983E+04  0.21226055983E+04  0.25500000000E-02 0. -1.
         24    2    1    2    0    0  0.00000000000E+00  0.17763568394E-14 -0.21218264183E+04  0.21233847946E+04  0.81336564518E+02 0.  0.
         66    2    3    3    0    0 -0.29850599672E+01  0.12690439525E+02 -0.20665368150E+04  0.20665789038E+04  0.20000000973E+01 0.  0.
        -13    1    3    3    0    0  0.29850599672E+01 -0.12690439525E+02 -0.55289603218E+02  0.56805890772E+02  0.10566000000E+00 0.  1.
         13    1    4    4    0    0  0.16952504045E+00  0.19086126845E+01 -0.32899529516E+03  0.32900089201E+03  0.10566000000E+00 0. -1.
        -13    1    4    4    0    0 -0.26708328635E+01  0.95136778887E+01 -0.14898124423E+04  0.14898452161E+04  0.10566000000E+00 0.  1.
        -14    1    4    4    0    0 -0.48375214420E+00  0.12681489515E+01 -0.24772907759E+03  0.24773279577E+03  0.00000000000E+00 0.  1.
<mgrwt>
<rscale>  0 0.81336565E+02</rscale>
<asrwt>0</asrwt>
<pdfrwt beam="1">  1        2 0.32655008E+00 0.81336565E+02</pdfrwt>
<pdfrwt beam="2">  1       -1 0.11987680E-03 0.81336565E+02</pdfrwt>
<totfact> 0.25042211E+05</totfact>
</mgrwt>
</event>
<event>
 8    1  0.2603554E-024  0.7818229E+02  0.7818608E-02  0.1334290E+00
          2   -1    0    0  501    0  0.00000000000E+00  0.00000000000E+00  0.78338792630E+02  0.78338792672E+02  0.25500000000E-02 0. -1.
         -1   -1    0    0    0  501 -0.00000000000E+00 -0.00000000000E+00 -0.19506523663E+02  0.19506524315E+02  0.50400000000E-02 0.  1.
         24    2    1    2    0    0  0.00000000000E+00  0.00000000000E+00  0.58832268967E+02  0.97845316986E+02  0.78182288175E+02 0.  0.
         66    2    3    3    0    0 -0.20778449900E+02 -0.16794607697E+02  0.65104460164E+02  0.70401658805E+02  0.20000003206E+01 0.  0.
        -13    1    3    3    0    0  0.20778449900E+02  0.16794607697E+02 -0.62721911974E+01  0.27443658181E+02  0.10566000000E+00 0.  1.
         13    1    4    4    0    0 -0.55564312444E+01 -0.43406868708E+01  0.16474110264E+02  0.17919904121E+02  0.10566000000E+00 0. -1.
        -13    1    4    4    0    0 -0.73383871595E+01 -0.53996754914E+01  0.24244980066E+02  0.25900552966E+02  0.10566000000E+00 0.  1.
         14    1    4    4    0    0 -0.78836314958E+01 -0.70542453346E+01  0.24385369834E+02  0.26581201718E+02  0.00000000000E+00 0. -1.
<mgrwt>
<rscale>  0 0.78182288E+02</rscale>
<asrwt>0</asrwt>
<pdfrwt beam="1">  1        2 0.12052122E-01 0.78182288E+02</pdfrwt>
<pdfrwt beam="2">  1       -1 0.30010037E-02 0.78182288E+02</pdfrwt>
<totfact> 0.17666838E+05</totfact>
</mgrwt>
</event>
<event>
 8    1  0.2603554E-024  0.8042255E+02  0.7818608E-02  0.1327857E+00
          2   -1    0    0  501    0  0.00000000000E+00  0.00000000000E+00  0.85847337134E+02  0.85847337172E+02  0.25500000000E-02 0. -1.
         -1   -1    0    0    0  501 -0.00000000000E+00 -0.00000000000E+00 -0.18835141870E+02  0.18835142545E+02  0.50400000000E-02 0.  1.
         24    2    1    2    0    0  0.35527136788E-14  0.00000000000E+00  0.67012195264E+02  0.10468247972E+03  0.80422554334E+02 0.  0.
         66    2    3    3    0    0  0.22886722203E+02  0.19270239088E+02  0.68448942646E+02  0.74728855984E+02  0.19999999070E+01 0.  0.
        -13    1    3    3    0    0 -0.22886722203E+02 -0.19270239088E+02 -0.14367473815E+01  0.29953623733E+02  0.10566000000E+00 0.  1.
         13    1    4    4    0    0  0.11405632268E+02  0.98055415138E+01  0.32543211213E+02  0.35851204330E+02  0.10566000000E+00 0. -1.
        -13    1    4    4    0    0  0.94472268454E+01  0.73582602205E+01  0.29235564191E+02  0.31593092063E+02  0.10566000000E+00 0.  1.
        -14    1    4    4    0    0  0.20338630892E+01  0.21064373533E+01  0.66701672420E+01  0.72845595904E+01  0.00000000000E+00 0.  1.
<mgrwt>
<rscale>  0 0.80422554E+02</rscale>
<asrwt>0</asrwt>
<pdfrwt beam="1">  1        2 0.13207283E-01 0.80422554E+02</pdfrwt>
<pdfrwt beam="2">  1       -1 0.28977142E-02 0.80422554E+02</pdfrwt>
<totfact> 0.16765900E+05</totfact>
</mgrwt>
</event>
<event>
 8    1  0.2603554E-024  0.7906724E+02  0.7818608E-02  0.1331719E+00
          2   -1    0    0  501    0  0.00000000000E+00  0.00000000000E+00  0.19505163836E+02  0.19505164003E+02  0.25500000000E-02 0. -1.
         -1   -1    0    0    0  501 -0.00000000000E+00 -0.00000000000E+00 -0.80127864477E+02  0.80127864636E+02  0.50400000000E-02 0.  1.
         24    2    1    2    0    0  0.35527136788E-14  0.00000000000E+00 -0.60622700641E+02  0.99633028639E+02  0.79067240769E+02 0.  0.
         66    2    3    3    0    0 -0.16104637958E+02 -0.34140587156E+02 -0.45023922817E+02  0.58788542001E+02  0.19999974203E+01 0.  0.
        -13    1    3    3    0    0  0.16104637958E+02  0.34140587156E+02 -0.15598777824E+02  0.40844486638E+02  0.10566000000E+00 0.  1.
         13    1    4    4    0    0 -0.36820057806E+01 -0.61362169026E+01 -0.82877515667E+01  0.10950265500E+02  0.10566000000E+00 0.  1.
        -13    1    4    4    0    0 -0.16531798603E+01 -0.32974718008E+01 -0.44720779004E+01  0.57980142040E+01  0.10566000000E+00 0. -1.
        -14    1    4    4    0    0 -0.10769452317E+02 -0.24706898452E+02 -0.32264093350E+02  0.42040262297E+02  0.00000000000E+00 0.  1.
<mgrwt>
<rscale>  0 0.79067241E+02</rscale>
<asrwt>0</asrwt>
<pdfrwt beam="1">  1        2 0.30007945E-02 0.79067241E+02</pdfrwt>
<pdfrwt beam="2">  1       -1 0.12327364E-01 0.79067241E+02</pdfrwt>
<totfact> 0.12776232E+05</totfact>
</mgrwt>
</event>
<event>
 8    1  0.2603554E-024  0.8093063E+02  0.7818608E-02  0.1326431E+00
         -1   -1    0    0    0  501 -0.00000000000E+00  0.00000000000E+00  0.29113841524E+02  0.29113841960E+02  0.50400000000E-02 0.  1.
          2   -1    0    0  501    0  0.00000000000E+00 -0.00000000000E+00 -0.56242725557E+02  0.56242725615E+02  0.25500000000E-02 0. -1.
         24    2    1    2    0    0  0.00000000000E+00  0.71054273576E-14 -0.27128884033E+02  0.85356567575E+02  0.80930632516E+02 0.  0.
         66    2    3    3    0    0  0.38997122667E+01 -0.39140987965E+02 -0.23478472297E+02  0.45852626449E+02  0.19999990380E+01 0.  0.
        -13    1    3    3    0    0 -0.38997122667E+01  0.39140987965E+02 -0.36504117356E+01  0.39503941127E+02  0.10566000000E+00 0.  1.
         13    1    4    4    0    0  0.18053472695E+01 -0.19039557832E+02 -0.11227495050E+02  0.22177282303E+02  0.10566000000E+00 0. -1.
        -13    1    4    4    0    0  0.12273428426E+01 -0.98670685234E+01 -0.52425235255E+01  0.11241024359E+02  0.10566000000E+00 0.  1.
        -14    1    4    4    0    0  0.86702215458E+00 -0.10234361610E+02 -0.70084537218E+01  0.12434319786E+02  0.00000000000E+00 0.  1.
<mgrwt>
<rscale>  0 0.80930633E+02</rscale>
<asrwt>0</asrwt>
<pdfrwt beam="1">  1        2 0.86527270E-02 0.80930633E+02</pdfrwt>
<pdfrwt beam="2">  1       -1 0.44790526E-02 0.80930633E+02</pdfrwt>
<totfact> 0.14861286E+05</totfact>
</mgrwt>
</event>
<event>
 8    1  0.2603554E-024  0.7874580E+02  0.7818608E-02  0.1332649E+00
          2   -1    0    0  501    0  0.00000000000E+00  0.00000000000E+00  0.16634685936E+04  0.16634685936E+04  0.25500000000E-02 0. -1.
         -1   -1    0    0    0  501 -0.00000000000E+00 -0.00000000000E+00 -0.93191654387E+00  0.93193017246E+00  0.50400000000E-02 0.  1.
         24    2    1    2    0    0  0.00000000000E+00  0.00000000000E+00  0.16625366771E+04  0.16644005238E+04  0.78745799785E+02 0.  0.
         66    2    3    3    0    0 -0.13022348941E+02  0.37652289206E+00  0.16165567309E+04  0.16166104625E+04  0.19999994091E+01 0.  0.
        -13    1    3    3    0    0  0.13022348941E+02 -0.37652289206E+00  0.45979946190E+02  0.47790061280E+02  0.10566000000E+00 0.  1.
         13    1    4    4    0    0 -0.51233083620E+01  0.22600152606E+00  0.72356070197E+03  0.72357888303E+03  0.10566000000E+00 0. -1.
        -13    1    4    4    0    0 -0.61857753211E+01  0.34804163301E+00  0.65539735102E+03  0.65542664260E+03  0.10566000000E+00 0.  1.
        -14    1    4    4    0    0 -0.17132652582E+01 -0.19752026701E+00  0.23759867789E+03  0.23760493688E+03  0.00000000000E+00 0.  1.
<mgrwt>
<rscale>  0 0.78745800E+02</rscale>
<asrwt>0</asrwt>
<pdfrwt beam="1">  1        2 0.25591509E+00 0.78745800E+02</pdfrwt>
<pdfrwt beam="2">  1       -1 0.14337459E-03 0.78745800E+02</pdfrwt>
<totfact> 0.33048864E+05</totfact>
</mgrwt>
</event>
<event>
 8    1  0.2603554E-024  0.8006366E+02  0.7818608E-02  0.1328871E+00
         -1   -1    0    0    0  501 -0.00000000000E+00  0.00000000000E+00  0.34491603150E+02  0.34491603518E+02  0.50400000000E-02 0.  1.
          2   -1    0    0  501    0  0.00000000000E+00 -0.00000000000E+00 -0.46461956781E+02  0.46461956851E+02  0.25500000000E-02 0. -1.
         24    2    1    2    0    0  0.00000000000E+00  0.00000000000E+00 -0.11970353631E+02  0.80953560369E+02  0.80063659486E+02 0.  0.
         66    2    3    3    0    0 -0.17209652077E+01 -0.25236908630E+02 -0.37328230684E+02  0.45136017584E+02  0.19999997341E+01 0.  0.
        -13    1    3    3    0    0  0.17209652077E+01  0.25236908630E+02  0.25357877053E+02  0.35817542784E+02  0.10566000000E+00 0.  1.
         13    1    4    4    0    0  0.17781679790E+00 -0.84941118265E+01 -0.11682809874E+02  0.14445787107E+02  0.10566000000E+00 0. -1.
        -13    1    4    4    0    0 -0.30978430630E+00 -0.33652805271E+01 -0.54669687630E+01  0.64280627590E+01  0.10566000000E+00 0.  1.
         14    1    4    4    0    0 -0.15889976993E+01 -0.13377516276E+02 -0.20178452046E+02  0.24262167718E+02  0.00000000000E+00 0. -1.
<mgrwt>
<rscale>  0 0.80063659E+02</rscale>
<asrwt>0</asrwt>
<pdfrwt beam="1">  1        2 0.71479933E-02 0.80063659E+02</pdfrwt>
<pdfrwt beam="2">  1       -1 0.53064006E-02 0.80063659E+02</pdfrwt>
<totfact> 0.14676576E+05</totfact>
</mgrwt>
</event>
<event>
 8    1  0.2603554E-024  0.8003149E+02  0.7818608E-02  0.1328962E+00
         -1   -1    0    0    0  501 -0.00000000000E+00  0.00000000000E+00  0.30256723193E+01  0.30256765170E+01  0.50400000000E-02 0.  1.
          2   -1    0    0  501    0  0.00000000000E+00 -0.00000000000E+00 -0.52922407778E+03  0.52922407779E+03  0.25500000000E-02 0. -1.
         24    2    1    2    0    0  0.00000000000E+00  0.00000000000E+00 -0.52619840546E+03  0.53224975431E+03  0.80031487844E+02 0.  0.
         66    2    3    3    0    0 -0.15220896153E+02  0.26603087688E+02 -0.43409881171E+03  0.43518407403E+03  0.20000013615E+01 0.  0.
        -13    1    3    3    0    0  0.15220896153E+02 -0.26603087688E+02 -0.92099593756E+02  0.97065680280E+02  0.10566000000E+00 0.  1.
         13    1    4    4    0    0 -0.67066235296E+01  0.10475557282E+02 -0.17428688611E+03  0.17473020899E+03  0.10566000000E+00 0. -1.
        -13    1    4    4    0    0 -0.79733218553E+01  0.15271103794E+02 -0.24863711139E+03  0.24923323373E+03  0.10566000000E+00 0.  1.
        -14    1    4    4    0    0 -0.54095076778E+00  0.85642661231E+00 -0.11174814209E+02  0.11220631305E+02  0.00000000000E+00 0.  1.
<mgrwt>
<rscale>  0 0.80031488E+02</rscale>
<asrwt>0</asrwt>
<pdfrwt beam="1">  1        2 0.81419016E-01 0.80031488E+02</pdfrwt>
<pdfrwt beam="2">  1       -1 0.46548879E-03 0.80031488E+02</pdfrwt>
<totfact> 0.30966261E+05</totfact>
</mgrwt>
</event>
<event>
 8    1  0.2603554E-024  0.8017958E+02  0.7818608E-02  0.1328543E+00
         -1   -1    0    0    0  501 -0.00000000000E+00  0.00000000000E+00  0.60987132216E+01  0.60987153041E+01  0.50400000000E-02 0.  1.
          2   -1    0    0  501    0  0.00000000000E+00 -0.00000000000E+00 -0.26352954766E+03  0.26352954768E+03  0.25500000000E-02 0. -1.
         24    2    1    2    0    0  0.00000000000E+00  0.71054273576E-14 -0.25743083444E+03  0.26962826298E+03  0.80179583911E+02 0.  0.
         66    2    3    3    0    0  0.74944089810E+01 -0.33073770611E+02 -0.57052703382E+02  0.66400688474E+02  0.19999995599E+01 0.  0.
        -13    1    3    3    0    0 -0.74944089810E+01  0.33073770611E+02 -0.20037813106E+03  0.20322757451E+03  0.10566000000E+00 0.  1.
         13    1    4    4    0    0  0.26099219747E+01 -0.10678256620E+02 -0.18307827903E+02  0.21354732115E+02  0.10566000000E+00 0. -1.
        -13    1    4    4    0    0  0.35011902894E+01 -0.18055380426E+02 -0.30098173076E+02  0.35272741350E+02  0.10566000000E+00 0.  1.
         14    1    4    4    0    0  0.13832967169E+01 -0.43401335649E+01 -0.86467024023E+01  0.97732150085E+01  0.00000000000E+00 0. -1.
<mgrwt>
<rscale>  0 0.80179584E+02</rscale>
<asrwt>0</asrwt>
<pdfrwt beam="1">  1        2 0.40542999E-01 0.80179584E+02</pdfrwt>
<pdfrwt beam="2">  1       -1 0.93826394E-03 0.80179584E+02</pdfrwt>
<totfact> 0.24182621E+05</totfact>
</mgrwt>
</event>
<event>
 8    1  0.2603554E-024  0.7633906E+02  0.7818608E-02  0.1339774E+00
          2   -1    0    0  501    0  0.00000000000E+00  0.00000000000E+00  0.40277619753E+03  0.40277619754E+03  0.25500000000E-02 0. -1.
         -1   -1    0    0    0  501 -0.00000000000E+00 -0.00000000000E+00 -0.36171756365E+01  0.36171791477E+01  0.50400000000E-02 0.  1.
         24    2    1    2    0    0 -0.35527136788E-14  0.35527136788E-14  0.39915902189E+03  0.40639337668E+03  0.76339058515E+02 0.  0.
         66    2    3    3    0    0  0.23595833762E+02  0.18104351936E+02  0.32685572669E+03  0.32821212195E+03  0.19999995623E+01 0.  0.
        -13    1    3    3    0    0 -0.23595833762E+02 -0.18104351936E+02  0.72303295205E+02  0.78181254732E+02  0.10566000000E+00 0.  1.
         13    1    4    4    0    0  0.10251011298E+02  0.70808045908E+01  0.13956283993E+03  0.14011787352E+03  0.10566000000E+00 0. -1.
        -13    1    4    4    0    0  0.37166409239E+01  0.34509035379E+01  0.50633659907E+02  0.50887138204E+02  0.10566000000E+00 0.  1.
        -14    1    4    4    0    0  0.96281815407E+01  0.75726438071E+01  0.13665922685E+03  0.13720711022E+03  0.00000000000E+00 0.  1.
<mgrwt>
<rscale>  0 0.76339059E+02</rscale>
<asrwt>0</asrwt>
<pdfrwt beam="1">  1        2 0.61965571E-01 0.76339059E+02</pdfrwt>
<pdfrwt beam="2">  1       -1 0.55648881E-03 0.76339059E+02</pdfrwt>
<totfact> 0.31999018E+05</totfact>
</mgrwt>
</event>
<event>
 8    1  0.2603554E-024  0.7993464E+02  0.7818608E-02  0.1329237E+00
         -1   -1    0    0    0  501 -0.00000000000E+00  0.00000000000E+00  0.34870107743E+01  0.34870144166E+01  0.50400000000E-02 0.  1.
          2   -1    0    0  501    0  0.00000000000E+00 -0.00000000000E+00 -0.45809598975E+03  0.45809598976E+03  0.25500000000E-02 0. -1.
         24    2    1    2    0    0 -0.71054273576E-14  0.17763568394E-14 -0.45460897898E+03  0.46158300418E+03  0.79934635652E+02 0.  0.
         66    2    3    3    0    0 -0.38025751084E+02  0.10262520910E+02 -0.26579556340E+03  0.26870533790E+03  0.20000032780E+01 0.  0.
        -13    1    3    3    0    0  0.38025751084E+02 -0.10262520910E+02 -0.18881341558E+03  0.19287766627E+03  0.10566000000E+00 0.  1.
         13    1    4    4    0    0 -0.69969652713E+01  0.21035900964E+01 -0.54278876040E+02  0.54768514335E+02  0.10566000000E+00 0.  1.
        -13    1    4    4    0    0 -0.15523769716E+02  0.38980301643E+01 -0.10681839185E+03  0.10801093494E+03  0.10566000000E+00 0. -1.
        -14    1    4    4    0    0 -0.15505016097E+02  0.42609006491E+01 -0.10469829551E+03  0.10592588863E+03  0.00000000000E+00 0.  1.
<mgrwt>
<rscale>  0 0.79934636E+02</rscale>
<asrwt>0</asrwt>
<pdfrwt beam="1">  1        2 0.70476259E-01 0.79934636E+02</pdfrwt>
<pdfrwt beam="2">  1       -1 0.53646384E-03 0.79934636E+02</pdfrwt>
<totfact> 0.29657573E+05</totfact>
</mgrwt>
</event>
<event>
 8    1  0.2603554E-024  0.8063012E+02  0.7818608E-02  0.1327273E+00
         -1   -1    0    0    0  501 -0.00000000000E+00  0.00000000000E+00  0.48681320346E+01  0.48681346436E+01  0.50400000000E-02 0.  1.
          2   -1    0    0  501    0  0.00000000000E+00 -0.00000000000E+00 -0.33386596127E+03  0.33386596128E+03  0.25500000000E-02 0. -1.
         24    2    1    2    0    0  0.00000000000E+00  0.00000000000E+00 -0.32899782924E+03  0.33873409593E+03  0.80630119059E+02 0.  0.
         66    2    3    3    0    0  0.37546733026E+02 -0.12288013517E+02 -0.13137495544E+03  0.13720106178E+03  0.20000003532E+01 0.  0.
        -13    1    3    3    0    0 -0.37546733026E+02  0.12288013517E+02 -0.19762287380E+03  0.20153303415E+03  0.10566000000E+00 0.  1.
         13    1    4    4    0    0  0.14806617778E+02 -0.45683128384E+01 -0.51055189039E+02  0.53354933268E+02  0.10566000000E+00 0. -1.
        -13    1    4    4    0    0  0.59251997255E+01 -0.13495650433E+01 -0.20706180720E+02  0.21579768341E+02  0.10566000000E+00 0.  1.
        -14    1    4    4    0    0  0.16814915522E+02 -0.63701356354E+01 -0.59613585677E+02  0.62266360174E+02  0.00000000000E+00 0.  1.
<mgrwt>
<rscale>  0 0.80630119E+02</rscale>
<asrwt>0</asrwt>
<pdfrwt beam="1">  1        2 0.51363976E-01 0.80630119E+02</pdfrwt>
<pdfrwt beam="2">  1       -1 0.74894386E-03 0.80630119E+02</pdfrwt>
<totfact> 0.25958902E+05</totfact>
</mgrwt>
</event>
<event>
 8    1  0.2603554E-024  0.7996806E+02  0.7818608E-02  0.1329142E+00
         -1   -1    0    0    0  501 -0.00000000000E+00  0.00000000000E+00  0.70670064282E+02  0.70670064462E+02  0.50400000000E-02 0.  1.
          2   -1    0    0  501    0  0.00000000000E+00 -0.00000000000E+00 -0.22622345685E+02  0.22622345828E+02  0.25500000000E-02 0. -1.
         24    2    1    2    0    0  0.44408920985E-15  0.00000000000E+00  0.48047718598E+02  0.93292410290E+02  0.79968059595E+02 0.  0.
         66    2    3    3    0    0 -0.35437550149E+01  0.36192950241E+02  0.47197348635E+01  0.36725519044E+02  0.20000012751E+01 0.  0.
        -13    1    3    3    0    0  0.35437550149E+01 -0.36192950241E+02  0.43327983734E+02  0.56566891246E+02  0.10566000000E+00 0.  1.
         13    1    4    4    0    0 -0.13435171431E+01  0.74261649285E+01  0.14328515189E+01  0.76822647292E+01  0.10566000000E+00 0. -1.
        -13    1    4    4    0    0 -0.14121300535E+00  0.33418499312E+01  0.27217948129E+00  0.33575508605E+01  0.10566000000E+00 0.  1.
         14    1    4    4    0    0 -0.20590248665E+01  0.25424935382E+02  0.30147038633E+01  0.25685703454E+02  0.00000000000E+00 0. -1.
<mgrwt>
<rscale>  0 0.79968060E+02</rscale>
<asrwt>0</asrwt>
<pdfrwt beam="1">  1        2 0.34803608E-02 0.79968060E+02</pdfrwt>
<pdfrwt beam="2">  1       -1 0.10872318E-01 0.79968060E+02</pdfrwt>
<totfact> 0.12740574E+05</totfact>
</mgrwt>
</event>
<event>
 8    1  0.2603554E-024  0.8081534E+02  0.7818608E-02  0.1326753E+00
          2   -1    0    0  501    0  0.00000000000E+00  0.00000000000E+00  0.85445465046E+02  0.85445465084E+02  0.25500000000E-02 0. -1.
         -1   -1    0    0    0  501 -0.00000000000E+00 -0.00000000000E+00 -0.19109025381E+02  0.19109026045E+02  0.50400000000E-02 0.  1.
         24    2    1    2    0    0  0.35527136788E-14  0.00000000000E+00  0.66336439665E+02  0.10455449113E+03  0.80815335103E+02 0.  0.
         66    2    3    3    0    0  0.29257581122E+02  0.19327630610E+02  0.72744163143E+01  0.35867540953E+02  0.20000008036E+01 0.  0.
        -13    1    3    3    0    0 -0.29257581122E+02 -0.19327630610E+02  0.59062023351E+02  0.68686950176E+02  0.10566000000E+00 0.  1.
         13    1    4    4    0    0  0.12658057299E+02  0.92143430096E+01  0.31083338847E+01  0.15962563555E+02  0.10566000000E+00 0. -1.
        -13    1    4    4    0    0  0.12689106769E+01  0.98151465485E+00  0.15231563972E+00  0.16148899075E+01  0.10566000000E+00 0.  1.
         14    1    4    4    0    0  0.15330613147E+02  0.91317729457E+01  0.40137667899E+01  0.18290087491E+02  0.00000000000E+00 0. -1.
<mgrwt>
<rscale>  0 0.80815335E+02</rscale>
<asrwt>0</asrwt>
<pdfrwt beam="1">  1        2 0.13145456E-01 0.80815335E+02</pdfrwt>
<pdfrwt beam="2">  1       -1 0.29398501E-02 0.80815335E+02</pdfrwt>
<totfact> 0.16526834E+05</totfact>
</mgrwt>
</event>
<event>
 8    1  0.2603554E-024  0.8004749E+02  0.7818608E-02  0.1328917E+00
          2   -1    0    0  501    0  0.00000000000E+00  0.00000000000E+00  0.13095893082E+02  0.13095893330E+02  0.25500000000E-02 0. -1.
         -1   -1    0    0    0  501 -0.00000000000E+00 -0.00000000000E+00 -0.12232079199E+03  0.12232079210E+03  0.50400000000E-02 0.  1.
         24    2    1    2    0    0  0.00000000000E+00  0.44408920985E-15 -0.10922489891E+03  0.13541668543E+03  0.80047486844E+02 0.  0.
         66    2    3    3    0    0  0.35625582316E+02 -0.30351045146E+01 -0.24313422400E+02  0.43284367633E+02  0.19999994615E+01 0.  0.
        -13    1    3    3    0    0 -0.35625582316E+02  0.30351045146E+01 -0.84911476513E+02  0.92132317796E+02  0.10566000000E+00 0.  1.
         13    1    4    4    0    0  0.23341655334E+02 -0.23565398952E+01 -0.16657591819E+02  0.28772776774E+02  0.10566000000E+00 0. -1.
        -13    1    4    4    0    0  0.93860343082E+01 -0.28302028261E+00 -0.55596827288E+01  0.10913247757E+02  0.10566000000E+00 0.  1.
         14    1    4    4    0    0  0.28978926733E+01 -0.39554433672E+00 -0.20961478513E+01  0.35983431025E+01  0.00000000000E+00 0. -1.
<mgrwt>
<rscale>  0 0.80047487E+02</rscale>
<asrwt>0</asrwt>
<pdfrwt beam="1">  1        2 0.20147529E-02 0.80047487E+02</pdfrwt>
<pdfrwt beam="2">  1       -1 0.18818583E-01 0.80047487E+02</pdfrwt>
<totfact> 0.11317536E+05</totfact>
</mgrwt>
</event>
<event>
 8    1  0.2603554E-024  0.7878228E+02  0.7818608E-02  0.1332543E+00
         -1   -1    0    0    0  501 -0.00000000000E+00  0.00000000000E+00  0.22776907622E+01  0.22776963383E+01  0.50400000000E-02 0.  1.
          2   -1    0    0  501    0  0.00000000000E+00 -0.00000000000E+00 -0.68124269632E+03  0.68124269633E+03  0.25500000000E-02 0. -1.
         24    2    1    2    0    0 -0.17763568394E-14  0.00000000000E+00 -0.67896500556E+03  0.68352039267E+03  0.78782284901E+02 0.  0.
         66    2    3    3    0    0  0.14841082714E+02 -0.14848396876E+02 -0.62861821308E+03  0.62897185187E+03  0.20000006526E+01 0.  0.
        -13    1    3    3    0    0 -0.14841082714E+02  0.14848396876E+02 -0.50346792484E+02  0.54548540800E+02  0.10566000000E+00 0.  1.
         13    1    4    4    0    0  0.11194628628E+02 -0.10952382172E+02 -0.46760504971E+03  0.46786725474E+03  0.10566000000E+00 0. -1.
        -13    1    4    4    0    0  0.33149179803E+01 -0.33888736281E+01 -0.14984902265E+03  0.14992402709E+03  0.10566000000E+00 0.  1.
        -14    1    4    4    0    0  0.33153610605E+00 -0.50714107553E+00 -0.11164140727E+02  0.11180570041E+02  0.00000000000E+00 0.  1.
<mgrwt>
<rscale>  0 0.78782285E+02</rscale>
<asrwt>0</asrwt>
<pdfrwt beam="1">  1        2 0.10480641E+00 0.78782285E+02</pdfrwt>
<pdfrwt beam="2">  1       -1 0.35041494E-03 0.78782285E+02</pdfrwt>
<totfact> 0.34591266E+05</totfact>
</mgrwt>
</event>
<event>
 8    1  0.2603554E-024  0.7735471E+02  0.7818608E-02  0.1336731E+00
          2   -1    0    0  501    0  0.00000000000E+00  0.00000000000E+00  0.36848881457E+03  0.36848881458E+03  0.25500000000E-02 0. -1.
         -1   -1    0    0    0  501 -0.00000000000E+00 -0.00000000000E+00 -0.40596539697E+01  0.40596570982E+01  0.50400000000E-02 0.  1.
         24    2    1    2    0    0 -0.13877787808E-16  0.00000000000E+00  0.36442916060E+03  0.37254847168E+03  0.77354706729E+02 0.  0.
         66    2    3    3    0    0  0.10848762445E+00  0.17612239364E+02  0.34803599360E+03  0.34848709530E+03  0.20000005394E+01 0.  0.
        -13    1    3    3    0    0 -0.10848762445E+00 -0.17612239364E+02  0.16393166999E+02  0.24061376379E+02  0.10566000000E+00 0.  1.
         13    1    4    4    0    0  0.28387033748E+00  0.10876825790E+02  0.20732992793E+03  0.20761525980E+03  0.10566000000E+00 0.  1.
        -13    1    4    4    0    0  0.45801293759E+00  0.20012691699E+01  0.42442786130E+02  0.42492541847E+02  0.10566000000E+00 0. -1.
        -14    1    4    4    0    0 -0.63339565063E+00  0.47341444033E+01  0.98263279540E+02  0.98379293651E+02  0.00000000000E+00 0.  1.
<mgrwt>
<rscale>  0 0.77354707E+02</rscale>
<asrwt>0</asrwt>
<pdfrwt beam="1">  1        2 0.56690578E-01 0.77354707E+02</pdfrwt>
<pdfrwt beam="2">  1       -1 0.62456249E-03 0.77354707E+02</pdfrwt>
<totfact> 0.29965512E+05</totfact>
</mgrwt>
</event>
<event>
 8    1  0.2603554E-024  0.7947018E+02  0.7818608E-02  0.1330562E+00
          2   -1    0    0  501    0  0.00000000000E+00  0.00000000000E+00  0.17889644863E+02  0.17889645045E+02  0.25500000000E-02 0. -1.
         -1   -1    0    0    0  501 -0.00000000000E+00 -0.00000000000E+00 -0.88256502272E+02  0.88256502416E+02  0.50400000000E-02 0.  1.
         24    2    1    2    0    0  0.00000000000E+00  0.00000000000E+00 -0.70366857409E+02  0.10614614746E+03  0.79470183083E+02 0.  0.
         66    2    3    3    0    0 -0.33862158680E+02  0.96161777020E+01 -0.10658477207E+02  0.36833677484E+02  0.19999991303E+01 0.  0.
        -13    1    3    3    0    0  0.33862158680E+02 -0.96161777020E+01 -0.59708380201E+02  0.69312469977E+02  0.10566000000E+00 0.  1.
         13    1    4    4    0    0 -0.52605694087E+01  0.15870472874E+01 -0.12288010912E+01  0.56314674601E+01  0.10566000000E+00 0. -1.
        -13    1    4    4    0    0 -0.14389823167E+01  0.64130927095E+00 -0.72687385780E+00  0.17382339686E+01  0.10566000000E+00 0.  1.
         14    1    4    4    0    0 -0.27162606955E+02  0.73878211436E+01 -0.87028022582E+01  0.29463976055E+02  0.00000000000E+00 0. -1.
<mgrwt>
<rscale>  0 0.79470183E+02</rscale>
<asrwt>0</asrwt>
<pdfrwt beam="1">  1        2 0.27522531E-02 0.79470183E+02</pdfrwt>
<pdfrwt beam="2">  1       -1 0.13577923E-01 0.79470183E+02</pdfrwt>
<totfact> 0.12370885E+05</totfact>
</mgrwt>
</event>
<event>
 8    1  0.2603554E-024  0.8034783E+02  0.7818608E-02  0.1328067E+00
          2   -1    0    0  501    0  0.00000000000E+00  0.00000000000E+00  0.16844963470E+03  0.16844963472E+03  0.25500000000E-02 0. -1.
         -1   -1    0    0    0  501 -0.00000000000E+00 -0.00000000000E+00 -0.95811630088E+01  0.95811643344E+01  0.50400000000E-02 0.  1.
         24    2    1    2    0    0  0.00000000000E+00  0.17763568394E-14  0.15886847169E+03  0.17803079905E+03  0.80347832043E+02 0.  0.
         66    2    3    3    0    0 -0.34057367494E+02  0.14017396009E+02  0.11490394623E+03  0.12067853376E+03  0.19999947198E+01 0.  0.
        -13    1    3    3    0    0  0.34057367494E+02 -0.14017396009E+02  0.43964525453E+02  0.57352265290E+02  0.10566000000E+00 0.  1.
         13    1    4    4    0    0 -0.60173221734E+01  0.27988858179E+01  0.21849371621E+02  0.22835238825E+02  0.10566000000E+00 0. -1.
        -13    1    4    4    0    0 -0.87804832613E+01  0.40653248213E+01  0.31171925702E+02  0.32639299445E+02  0.10566000000E+00 0.  1.
         14    1    4    4    0    0 -0.19259562059E+02  0.71531853696E+01  0.61882648912E+02  0.65203995491E+02  0.00000000000E+00 0. -1.
<mgrwt>
<rscale>  0 0.80347832E+02</rscale>
<asrwt>0</asrwt>
<pdfrwt beam="1">  1        2 0.25915328E-01 0.80347832E+02</pdfrwt>
<pdfrwt beam="2">  1       -1 0.14740252E-02 0.80347832E+02</pdfrwt>
<totfact> 0.20568082E+05</totfact>
</mgrwt>
</event>
<event>
 8    1  0.2603554E-024  0.8097708E+02  0.7818608E-02  0.1326301E+00
          2   -1    0    0  501    0  0.00000000000E+00  0.00000000000E+00  0.39063279647E+02  0.39063279730E+02  0.25500000000E-02 0. -1.
         -1   -1    0    0    0  501 -0.00000000000E+00 -0.00000000000E+00 -0.41965800991E+02  0.41965801293E+02  0.50400000000E-02 0.  1.
         24    2    1    2    0    0  0.00000000000E+00  0.00000000000E+00 -0.29025213439E+01  0.81029081023E+02  0.80977079111E+02 0.  0.
         66    2    3    3    0    0  0.21827359057E+02 -0.24219478211E+02  0.22527806023E+02  0.39680206284E+02  0.19999995711E+01 0.  0.
        -13    1    3    3    0    0 -0.21827359057E+02  0.24219478211E+02 -0.25430327367E+02  0.41348874740E+02  0.10566000000E+00 0.  1.
         13    1    4    4    0    0  0.18911305374E+02 -0.20269553693E+02  0.18563386416E+02  0.33363194648E+02  0.10566000000E+00 0. -1.
        -13    1    4    4    0    0  0.18611958197E+01 -0.23763696001E+01  0.23214459235E+01  0.38093907081E+01  0.10566000000E+00 0.  1.
         14    1    4    4    0    0  0.10548578640E+01 -0.15735549178E+01  0.16429736835E+01  0.25076209277E+01  0.00000000000E+00 0. -1.
<mgrwt>
<rscale>  0 0.80977079E+02</rscale>
<asrwt>0</asrwt>
<pdfrwt beam="1">  1        2 0.60097354E-02 0.80977079E+02</pdfrwt>
<pdfrwt beam="2">  1       -1 0.64562771E-02 0.80977079E+02</pdfrwt>
<totfact> 0.13717005E+05</totfact>
</mgrwt>
</event>
<event>
 8    1  0.2603554E-024  0.8001734E+02  0.7818608E-02  0.1329002E+00
          2   -1    0    0  501    0  0.00000000000E+00  0.00000000000E+00  0.27572355677E+03  0.27572355678E+03  0.25500000000E-02 0. -1.
         -1   -1    0    0    0  501 -0.00000000000E+00 -0.00000000000E+00 -0.58054284797E+01  0.58054306674E+01  0.50400000000E-02 0.  1.
         24    2    1    2    0    0  0.00000000000E+00  0.00000000000E+00  0.26991812829E+03  0.28152898745E+03  0.80017340586E+02 0.  0.
         66    2    3    3    0    0  0.24013711815E+02  0.28831864773E+02  0.18363637322E+03  0.18744133043E+03  0.20000005635E+01 0.  0.
        -13    1    3    3    0    0 -0.24013711815E+02 -0.28831864773E+02  0.86281755067E+02  0.94087657017E+02  0.10566000000E+00 0.  1.
         13    1    4    4    0    0  0.10499034293E+02  0.13097803341E+02  0.81617642364E+02  0.83326063644E+02  0.10566000000E+00 0. -1.
        -13    1    4    4    0    0  0.10827608893E+02  0.12769386663E+02  0.79496437165E+02  0.81240316568E+02  0.10566000000E+00 0.  1.
         14    1    4    4    0    0  0.26870686283E+01  0.29646747693E+01  0.22522293694E+02  0.22874950219E+02  0.00000000000E+00 0. -1.
<mgrwt>
<rscale>  0 0.80017341E+02</rscale>
<asrwt>0</asrwt>
<pdfrwt beam="1">  1        2 0.42419014E-01 0.80017341E+02</pdfrwt>
<pdfrwt beam="2">  1       -1 0.89314290E-03 0.80017341E+02</pdfrwt>
<totfact> 0.24712880E+05</totfact>
</mgrwt>
</event>
<event>
 8    1  0.2603554E-024  0.7865161E+02  0.7818608E-02  0.1332922E+00
         -1   -1    0    0    0  501 -0.00000000000E+00  0.00000000000E+00  0.12059935448E+02  0.12059936501E+02  0.50400000000E-02 0.  1.
          2   -1    0    0  501    0  0.00000000000E+00 -0.00000000000E+00 -0.12823607403E+03  0.12823607405E+03  0.25500000000E-02 0. -1.
         24    2    1    2    0    0  0.00000000000E+00  0.00000000000E+00 -0.11617613858E+03  0.14029601055E+03  0.78651607753E+02 0.  0.
         66    2    3    3    0    0  0.98128641839E+01 -0.34820792263E+02 -0.85512802419E+02  0.92872058527E+02  0.20000000479E+01 0.  0.
        -13    1    3    3    0    0 -0.98128641839E+01  0.34820792263E+02 -0.30663336160E+02  0.47423952026E+02  0.10566000000E+00 0.  1.
         13    1    4    4    0    0  0.30465174405E+01 -0.12366733539E+02 -0.28388311740E+02  0.31114703509E+02  0.10566000000E+00 0.  1.
        -13    1    4    4    0    0  0.35342146955E+01 -0.12857877686E+02 -0.33229829320E+02  0.35805703635E+02  0.10566000000E+00 0. -1.
         14    1    4    4    0    0  0.32321320479E+01 -0.95961810380E+01 -0.23894661359E+02  0.25951651384E+02  0.00000000000E+00 0. -1.
<mgrwt>
<rscale>  0 0.78651608E+02</rscale>
<asrwt>0</asrwt>
<pdfrwt beam="1">  1        2 0.19728626E-01 0.78651608E+02</pdfrwt>
<pdfrwt beam="2">  1       -1 0.18553749E-02 0.78651608E+02</pdfrwt>
<totfact> 0.19948168E+05</totfact>
</mgrwt>
</event>
<event>
 8    1  0.2603554E-024  0.7850140E+02  0.7818608E-02  0.1333359E+00
         -1   -1    0    0    0  501 -0.00000000000E+00  0.00000000000E+00  0.14896494174E+03  0.14896494182E+03  0.50400000000E-02 0.  1.
          2   -1    0    0  501    0  0.00000000000E+00 -0.00000000000E+00 -0.10342148743E+02  0.10342149058E+02  0.25500000000E-02 0. -1.
         24    2    1    2    0    0  0.00000000000E+00  0.35527136788E-14  0.13862279299E+03  0.15930709088E+03  0.78501404237E+02 0.  0.
         66    2    3    3    0    0  0.42558471382E+01 -0.24499167402E+02  0.77931811117E+01  0.26135322297E+02  0.19999903668E+01 0.  0.
        -13    1    3    3    0    0 -0.42558471382E+01  0.24499167402E+02  0.13082961188E+03  0.13317176858E+03  0.10566000000E+00 0.  1.
         13    1    4    4    0    0  0.17293347329E+01 -0.90263748088E+01  0.22151582452E+01  0.94543181084E+01  0.10566000000E+00 0. -1.
        -13    1    4    4    0    0 -0.13424459653E-01 -0.13591400922E+00  0.91815844280E-01  0.19556845063E+00  0.10566000000E+00 0. -1.
         14    1    4    4    0    0  0.25399368649E+01 -0.15336878584E+02  0.54862070222E+01  0.16485435738E+02  0.00000000000E+00 0. -1.
<mgrwt>
<rscale>  0 0.78501404E+02</rscale>
<asrwt>0</asrwt>
<pdfrwt beam="1">  1        2 0.15910999E-02 0.78501404E+02</pdfrwt>
<pdfrwt beam="2">  1       -1 0.22917683E-01 0.78501404E+02</pdfrwt>
<totfact> 0.11335085E+05</totfact>
</mgrwt>
</event>
<event>
 8    1  0.2603554E-024  0.8188537E+02  0.7818608E-02  0.1323785E+00
         -1   -1    0    0    0  501 -0.00000000000E+00  0.00000000000E+00  0.28672663113E+02  0.28672663556E+02  0.50400000000E-02 0.  1.
          2   -1    0    0  501    0  0.00000000000E+00 -0.00000000000E+00 -0.58463474175E+02  0.58463474231E+02  0.25500000000E-02 0. -1.
         24    2    1    2    0    0  0.00000000000E+00  0.71054273576E-14 -0.29790811062E+02  0.87136137787E+02  0.81885371616E+02 0.  0.
         66    2    3    3    0    0 -0.26942407870E+01  0.40806545723E+02 -0.13450882262E+02  0.43097092106E+02  0.20000017621E+01 0.  0.
        -13    1    3    3    0    0  0.26942407870E+01 -0.40806545723E+02 -0.16339928800E+02  0.44039045681E+02  0.10566000000E+00 0.  1.
         13    1    4    4    0    0 -0.86864415589E+00  0.12767918034E+02 -0.34596039415E+01  0.13257235649E+02  0.10566000000E+00 0. -1.
        -13    1    4    4    0    0 -0.62591187275E+00  0.14922427358E+02 -0.57176272996E+01  0.15992905612E+02  0.10566000000E+00 0.  1.
        -14    1    4    4    0    0 -0.11996847583E+01  0.13116200332E+02 -0.42736510210E+01  0.13846950845E+02  0.00000000000E+00 0.  1.
<mgrwt>
<rscale>  0 0.81885372E+02</rscale>
<asrwt>0</asrwt>
<pdfrwt beam="1">  1        2 0.89943806E-02 0.81885372E+02</pdfrwt>
<pdfrwt beam="2">  1       -1 0.44111790E-02 0.81885372E+02</pdfrwt>
<totfact> 0.14520973E+05</totfact>
</mgrwt>
</event>
<event>
 8    1  0.2603554E-024  0.7901123E+02  0.7818608E-02  0.1331881E+00
         -1   -1    0    0    0  501 -0.00000000000E+00  0.00000000000E+00  0.17001134979E+01  0.17001209684E+01  0.50400000000E-02 0.  1.
          2   -1    0    0  501    0  0.00000000000E+00 -0.00000000000E+00 -0.91799172243E+03  0.91799172243E+03  0.25500000000E-02 0. -1.
         24    2    1    2    0    0  0.00000000000E+00  0.00000000000E+00 -0.91629160893E+03  0.91969184340E+03  0.79011228447E+02 0.  0.
         66    2    3    3    0    0 -0.31545702596E+02  0.20227235162E+01 -0.73376015425E+03  0.73444345373E+03  0.20000007442E+01 0.  0.
        -13    1    3    3    0    0  0.31545702596E+02 -0.20227235162E+01 -0.18253145468E+03  0.18524838967E+03  0.10566000000E+00 0.  1.
         13    1    4    4    0    0 -0.14390587627E+02  0.13969082425E+01 -0.31869702681E+03  0.31902483669E+03  0.10566000000E+00 0. -1.
        -13    1    4    4    0    0 -0.32220229178E+01 -0.43860872031E-01 -0.83297718201E+02  0.83360088633E+02  0.10566000000E+00 0.  1.
         14    1    4    4    0    0 -0.13933092051E+02  0.66967614573E+00 -0.33176540924E+03  0.33205852841E+03  0.00000000000E+00 0. -1.
<mgrwt>
<rscale>  0 0.79011228E+02</rscale>
<asrwt>0</asrwt>
<pdfrwt beam="1">  1        2 0.14122910E+00 0.79011228E+02</pdfrwt>
<pdfrwt beam="2">  1       -1 0.26155723E-03 0.79011228E+02</pdfrwt>
<totfact> 0.36167186E+05</totfact>
</mgrwt>
</event>
<event>
 8    1  0.2603554E-024  0.7423650E+02  0.7818608E-02  0.1346252E+00
          2   -1    0    0  501    0  0.00000000000E+00  0.00000000000E+00  0.22628085601E+03  0.22628085603E+03  0.25500000000E-02 0. -1.
         -1   -1    0    0    0  501 -0.00000000000E+00 -0.00000000000E+00 -0.60887353249E+01  0.60887374109E+01  0.50400000000E-02 0.  1.
         24    2    1    2    0    0  0.00000000000E+00  0.00000000000E+00  0.22019212069E+03  0.23236959344E+03  0.74236500063E+02 0.  0.
         66    2    3    3    0    0  0.35258032546E+02 -0.57853161759E+01  0.14134540198E+03  0.14580508017E+03  0.20000000864E+01 0.  0.
        -13    1    3    3    0    0 -0.35258032546E+02  0.57853161759E+01  0.78846718709E+02  0.86564513269E+02  0.10566000000E+00 0.  1.
         13    1    4    4    0    0  0.68468241896E+01 -0.85680794282E+00  0.28802396661E+02  0.29617601840E+02  0.10566000000E+00 0. -1.
        -13    1    4    4    0    0  0.16202128699E+02 -0.21843391157E+01  0.62271845820E+02  0.64382251107E+02  0.10566000000E+00 0.  1.
        -14    1    4    4    0    0  0.12209079657E+02 -0.27441691175E+01  0.50271159498E+02  0.51805227222E+02  0.00000000000E+00 0.  1.
<mgrwt>
<rscale>  0 0.74236500E+02</rscale>
<asrwt>0</asrwt>
<pdfrwt beam="1">  1        2 0.34812442E-01 0.74236500E+02</pdfrwt>
<pdfrwt beam="2">  1       -1 0.93672861E-03 0.74236500E+02</pdfrwt>
<totfact> 0.28024966E+05</totfact>
</mgrwt>
</event>
<event>
 8    1  0.2603554E-024  0.7931337E+02  0.7818608E-02  0.1331011E+00
         -1   -1    0    0    0  501 -0.00000000000E+00  0.00000000000E+00  0.90863637731E+02  0.90863637871E+02  0.50400000000E-02 0.  1.
          2   -1    0    0  501    0  0.00000000000E+00 -0.00000000000E+00 -0.17307832775E+02  0.17307832963E+02  0.25500000000E-02 0. -1.
         24    2    1    2    0    0  0.00000000000E+00  0.00000000000E+00  0.73555804956E+02  0.10817147083E+03  0.79313369993E+02 0.  0.
         66    2    3    3    0    0 -0.95996489278E+01  0.16344734629E+02 -0.10666685253E+02  0.21842202155E+02  0.20000027690E+01 0.  0.
        -13    1    3    3    0    0  0.95996489278E+01 -0.16344734629E+02  0.84222490208E+02  0.86329268678E+02  0.10566000000E+00 0.  1.
         13    1    4    4    0    0 -0.28201248567E+01  0.49889228194E+01 -0.41876105116E+01  0.70985703446E+01  0.10566000000E+00 0. -1.
        -13    1    4    4    0    0 -0.45221834579E+01  0.81657790287E+01 -0.44907507446E+01  0.10358962142E+02  0.10566000000E+00 0.  1.
         14    1    4    4    0    0 -0.22573406132E+01  0.31900327812E+01 -0.19883239964E+01  0.43846696688E+01  0.00000000000E+00 0. -1.
<mgrwt>
<rscale>  0 0.79313370E+02</rscale>
<asrwt>0</asrwt>
<pdfrwt beam="1">  1        2 0.26627435E-02 0.79313370E+02</pdfrwt>
<pdfrwt beam="2">  1       -1 0.13979021E-01 0.79313370E+02</pdfrwt>
<totfact> 0.12357001E+05</totfact>
</mgrwt>
</event>
<event>
 8    1  0.2603554E-024  0.8104846E+02  0.7818608E-02  0.1326102E+00
         -1   -1    0    0    0  501 -0.00000000000E+00  0.00000000000E+00  0.83495963258E+02  0.83495963410E+02  0.50400000000E-02 0.  1.
          2   -1    0    0  501    0  0.00000000000E+00 -0.00000000000E+00 -0.19668172461E+02  0.19668172626E+02  0.25500000000E-02 0. -1.
         24    2    1    2    0    0  0.00000000000E+00  0.00000000000E+00  0.63827790797E+02  0.10316413604E+03  0.81048455174E+02 0.  0.
         66    2    3    3    0    0 -0.12186334641E+02 -0.30197815206E+02  0.12839730867E+01  0.32650626033E+02  0.19999995669E+01 0.  0.
        -13    1    3    3    0    0  0.12186334641E+02  0.30197815206E+02  0.62543817710E+02  0.70513510003E+02  0.10566000000E+00 0.  1.
         13    1    4    4    0    0 -0.89151529350E+01 -0.23377363054E+02  0.11828755006E+01  0.25047782611E+02  0.10566000000E+00 0. -1.
        -13    1    4    4    0    0 -0.18839401658E+01 -0.31243590558E+01 -0.80425332673E-01  0.36508194049E+01  0.10566000000E+00 0.  1.
        -14    1    4    4    0    0 -0.13872415400E+01 -0.36960930957E+01  0.18152291883E+00  0.39520240172E+01  0.00000000000E+00 0.  1.
<mgrwt>
<rscale>  0 0.81048455E+02</rscale>
<asrwt>0</asrwt>
<pdfrwt beam="1">  1        2 0.30258727E-02 0.81048455E+02</pdfrwt>
<pdfrwt beam="2">  1       -1 0.12845533E-01 0.81048455E+02</pdfrwt>
<totfact> 0.11918384E+05</totfact>
</mgrwt>
</event>
<event>
 8    1  0.2603554E-024  0.8183108E+02  0.7818608E-02  0.1323934E+00
         -1   -1    0    0    0  501 -0.00000000000E+00  0.00000000000E+00  0.17047943604E+02  0.17047944349E+02  0.50400000000E-02 0.  1.
          2   -1    0    0  501    0  0.00000000000E+00 -0.00000000000E+00 -0.98198425518E+02  0.98198425551E+02  0.25500000000E-02 0. -1.
         24    2    1    2    0    0  0.00000000000E+00 -0.17763568394E-14 -0.81150481914E+02  0.11524636990E+03  0.81831076373E+02 0.  0.
         66    2    3    3    0    0  0.39865940961E+02 -0.86988778154E+01 -0.36843445296E+02  0.55012754852E+02  0.20000027904E+01 0.  0.
        -13    1    3    3    0    0 -0.39865940961E+02  0.86988778154E+01 -0.44307036618E+02  0.60233615049E+02  0.10566000000E+00 0.  1.
         13    1    4    4    0    0  0.25391951205E+02 -0.58402360209E+01 -0.24678077283E+02  0.35887020010E+02  0.10566000000E+00 0. -1.
        -13    1    4    4    0    0  0.85145987394E+01 -0.18297878375E+01 -0.70829657050E+01  0.11226133904E+02  0.10566000000E+00 0.  1.
         14    1    4    4    0    0  0.59593910161E+01 -0.10288539570E+01 -0.50824023088E+01  0.78996009377E+01  0.00000000000E+00 0. -1.
<mgrwt>
<rscale>  0 0.81831076E+02</rscale>
<asrwt>0</asrwt>
<pdfrwt beam="1">  1        2 0.15107450E-01 0.81831076E+02</pdfrwt>
<pdfrwt beam="2">  1       -1 0.26227607E-02 0.81831076E+02</pdfrwt>
<totfact> 0.16596945E+05</totfact>
</mgrwt>
</event>
<event>
 8    1  0.2603554E-024  0.8059771E+02  0.7818608E-02  0.1327364E+00
         -1   -1    0    0    0  501 -0.00000000000E+00  0.00000000000E+00  0.54073557035E+01  0.54073580523E+01  0.50400000000E-02 0.  1.
          2   -1    0    0  501    0  0.00000000000E+00 -0.00000000000E+00 -0.30033112538E+03  0.30033112539E+03  0.25500000000E-02 0. -1.
         24    2    1    2    0    0  0.00000000000E+00  0.00000000000E+00 -0.29492376968E+03  0.30573848345E+03  0.80597706779E+02 0.  0.
         66    2    3    3    0    0 -0.28973078583E+02 -0.24427651287E+02 -0.19926555329E+03  0.20284701170E+03  0.20000000769E+01 0.  0.
        -13    1    3    3    0    0  0.28973078583E+02  0.24427651287E+02 -0.95658216394E+02  0.10289147174E+03  0.10566000000E+00 0.  1.
         13    1    4    4    0    0 -0.14307822288E+02 -0.12845470284E+02 -0.97894996755E+02  0.99765532320E+02  0.10566000000E+00 0. -1.
        -13    1    4    4    0    0 -0.21100102556E+01 -0.16728768762E+01 -0.16048714728E+02  0.16273385289E+02  0.10566000000E+00 0.  1.
         14    1    4    4    0    0 -0.12555246039E+02 -0.99093041267E+01 -0.85321841804E+02  0.86808094094E+02  0.00000000000E+00 0. -1.
<mgrwt>
<rscale>  0 0.80597707E+02</rscale>
<asrwt>0</asrwt>
<pdfrwt beam="1">  1        2 0.46204775E-01 0.80597707E+02</pdfrwt>
<pdfrwt beam="2">  1       -1 0.83190130E-03 0.80597707E+02</pdfrwt>
<totfact> 0.25011587E+05</totfact>
</mgrwt>
</event>
<event>
 8    1  0.2603554E-024  0.7940333E+02  0.7818608E-02  0.1330753E+00
         -1   -1    0    0    0  501 -0.00000000000E+00  0.00000000000E+00  0.75155056159E+01  0.75155073058E+01  0.50400000000E-02 0.  1.
          2   -1    0    0  501    0  0.00000000000E+00 -0.00000000000E+00 -0.20972932836E+03  0.20972932837E+03  0.25500000000E-02 0. -1.
         24    2    1    2    0    0  0.00000000000E+00  0.00000000000E+00 -0.20221382274E+03  0.21724483568E+03  0.79403328150E+02 0.  0.
         66    2    3    3    0    0  0.48408071965E+01 -0.91545393381E+01 -0.20596153882E+03  0.20623141002E+03  0.19999999819E+01 0.  0.
        -13    1    3    3    0    0 -0.48408071965E+01  0.91545393381E+01  0.37477160834E+01  0.11013425656E+02  0.10566000000E+00 0.  1.
         13    1    4    4    0    0  0.28348376538E-01 -0.50881778747E+00 -0.13703480680E+02  0.13713360127E+02  0.10566000000E+00 0. -1.
        -13    1    4    4    0    0  0.28365482836E+01 -0.51523279248E+01 -0.10017338759E+03  0.10034595774E+03  0.10566000000E+00 0.  1.
        -14    1    4    4    0    0  0.19759105364E+01 -0.34933936258E+01 -0.92084670554E+02  0.92172092157E+02  0.00000000000E+00 0.  1.
<mgrwt>
<rscale>  0 0.79403328E+02</rscale>
<asrwt>0</asrwt>
<pdfrwt beam="1">  1        2 0.32266046E-01 0.79403328E+02</pdfrwt>
<pdfrwt beam="2">  1       -1 0.11562319E-02 0.79403328E+02</pdfrwt>
<totfact> 0.22873936E+05</totfact>
</mgrwt>
</event>
<event>
 8    1  0.2603554E-024  0.8029164E+02  0.7818608E-02  0.1328226E+00
         -1   -1    0    0    0  501 -0.00000000000E+00  0.00000000000E+00  0.78450524992E+01  0.78450541181E+01  0.50400000000E-02 0.  1.
          2   -1    0    0  501    0  0.00000000000E+00 -0.00000000000E+00 -0.20543988766E+03  0.20543988767E+03  0.25500000000E-02 0. -1.
         24    2    1    2    0    0 -0.17763568394E-14  0.00000000000E+00 -0.19759483516E+03  0.21328494179E+03  0.80291640373E+02 0.  0.
         66    2    3    3    0    0 -0.12058608206E+02  0.20238623069E+02 -0.18512623620E+03  0.18662994189E+03  0.19999965195E+01 0.  0.
        -13    1    3    3    0    0  0.12058608206E+02 -0.20238623069E+02 -0.12468598961E+02  0.26654999901E+02  0.10566000000E+00 0.  1.
         13    1    4    4    0    0 -0.90413692773E+01  0.16497311642E+02 -0.14480021652E+03  0.14601719597E+03  0.10566000000E+00 0. -1.
        -13    1    4    4    0    0 -0.87922276584E+00  0.99799264979E+00 -0.10363488016E+02  0.10449022438E+02  0.10566000000E+00 0.  1.
         14    1    4    4    0    0 -0.21380161627E+01  0.27433187776E+01 -0.29962531664E+02  0.30163723489E+02  0.00000000000E+00 0. -1.
<mgrwt>
<rscale>  0 0.80291640E+02</rscale>
<asrwt>0</asrwt>
<pdfrwt beam="1">  1        2 0.31606133E-01 0.80291640E+02</pdfrwt>
<pdfrwt beam="2">  1       -1 0.12069314E-02 0.80291640E+02</pdfrwt>
<totfact> 0.22052902E+05</totfact>
</mgrwt>
</event>
<event>
 8    1  0.2603554E-024  0.7927368E+02  0.7818608E-02  0.1331125E+00
         -1   -1    0    0    0  501 -0.00000000000E+00  0.00000000000E+00  0.17624346738E+02  0.17624347459E+02  0.50400000000E-02 0.  1.
          2   -1    0    0  501    0  0.00000000000E+00 -0.00000000000E+00 -0.89142539720E+02  0.89142539756E+02  0.25500000000E-02 0. -1.
         24    2    1    2    0    0  0.00000000000E+00  0.71054273576E-14 -0.71518192982E+02  0.10676688722E+03  0.79273679606E+02 0.  0.
         66    2    3    3    0    0  0.57383738676E+01 -0.39120651438E+02 -0.39002853856E+02  0.55574966504E+02  0.19999973615E+01 0.  0.
        -13    1    3    3    0    0 -0.57383738676E+01  0.39120651438E+02 -0.32515339125E+02  0.51191920711E+02  0.10566000000E+00 0.  1.
         13    1    4    4    0    0  0.44672248655E+01 -0.27002581013E+02 -0.26288835053E+02  0.37950092119E+02  0.10566000000E+00 0. -1.
        -13    1    4    4    0    0 -0.50767117916E-01 -0.59801589755E+00 -0.58439309286E+00  0.84432199816E+00  0.10566000000E+00 0.  1.
         14    1    4    4    0    0  0.13219161200E+01 -0.11520054528E+02 -0.12129625710E+02  0.16780552387E+02  0.00000000000E+00 0. -1.
<mgrwt>
<rscale>  0 0.79273680E+02</rscale>
<asrwt>0</asrwt>
<pdfrwt beam="1">  1        2 0.13714237E-01 0.79273680E+02</pdfrwt>
<pdfrwt beam="2">  1       -1 0.27114381E-02 0.79273680E+02</pdfrwt>
<totfact> 0.17602428E+05</totfact>
</mgrwt>
</event>
<event>
 8    1  0.2603554E-024  0.8301131E+02  0.7818608E-02  0.1320717E+00
          2   -1    0    0  501    0  0.00000000000E+00  0.00000000000E+00  0.51643790876E+03  0.51643790876E+03  0.25500000000E-02 0. -1.
         -1   -1    0    0    0  501 -0.00000000000E+00 -0.00000000000E+00 -0.33357709620E+01  0.33357747694E+01  0.50400000000E-02 0.  1.
         24    2    1    2    0    0  0.00000000000E+00  0.00000000000E+00  0.51310213780E+03  0.51977368353E+03  0.83011314189E+02 0.  0.
         66    2    3    3    0    0 -0.27799134822E+02  0.22612886764E+02  0.38753005238E+03  0.38918848397E+03  0.20000036487E+01 0.  0.
        -13    1    3    3    0    0  0.27799134822E+02 -0.22612886764E+02  0.12557208542E+03  0.13058519956E+03  0.10566000000E+00 0.  1.
         13    1    4    4    0    0 -0.18073595297E+02  0.15648708394E+02  0.25343899804E+03  0.25456408587E+03  0.10566000000E+00 0. -1.
        -13    1    4    4    0    0 -0.37752325698E+01  0.26687914355E+01  0.49408854324E+02  0.49624801040E+02  0.10566000000E+00 0.  1.
         14    1    4    4    0    0 -0.59503069550E+01  0.42953869353E+01  0.84682200013E+02  0.84999597063E+02  0.00000000000E+00 0. -1.
<mgrwt>
<rscale>  0 0.83011314E+02</rscale>
<asrwt>0</asrwt>
<pdfrwt beam="1">  1        2 0.79451970E-01 0.83011314E+02</pdfrwt>
<pdfrwt beam="2">  1       -1 0.51319593E-03 0.83011314E+02</pdfrwt>
<totfact> 0.27935345E+05</totfact>
</mgrwt>
</event>
<event>
 8    1  0.2603554E-024  0.8121680E+02  0.7818608E-02  0.1325633E+00
          2   -1    0    0  501    0  0.00000000000E+00  0.00000000000E+00  0.19789861346E+03  0.19789861348E+03  0.25500000000E-02 0. -1.
         -1   -1    0    0    0  501 -0.00000000000E+00 -0.00000000000E+00 -0.83327623084E+01  0.83327638326E+01  0.50400000000E-02 0.  1.
         24    2    1    2    0    0  0.00000000000E+00 -0.88817841970E-15  0.18956585115E+03  0.20623137731E+03  0.81216802843E+02 0.  0.
         66    2    3    3    0    0 -0.11225241425E+02  0.57901190392E+01  0.19277529999E+03  0.19319898500E+03  0.19999982106E+01 0.  0.
        -13    1    3    3    0    0  0.11225241425E+02 -0.57901190392E+01 -0.32094488399E+01  0.13032392314E+02  0.10566000000E+00 0.  1.
         13    1    4    4    0    0 -0.71322896901E+01  0.29317525482E+01  0.11912976903E+03  0.11937913454E+03  0.10566000000E+00 0. -1.
        -13    1    4    4    0    0 -0.35122240106E+01  0.20299470191E+01  0.58575410713E+02  0.58715809682E+02  0.10566000000E+00 0.  1.
        -14    1    4    4    0    0 -0.58072772396E+00  0.82841947199E+00  0.15070120250E+02  0.15104040779E+02  0.00000000000E+00 0.  1.
<mgrwt>
<rscale>  0 0.81216803E+02</rscale>
<asrwt>0</asrwt>
<pdfrwt beam="1">  1        2 0.30445939E-01 0.81216803E+02</pdfrwt>
<pdfrwt beam="2">  1       -1 0.12819636E-02 0.81216803E+02</pdfrwt>
<totfact> 0.21118843E+05</totfact>
</mgrwt>
</event>
<event>
 8    1  0.2603554E-024  0.8963879E+02  0.7818608E-02  0.1303729E+00
         -1   -1    0    0    0  501 -0.00000000000E+00  0.00000000000E+00  0.22407230033E+02  0.22407230600E+02  0.50400000000E-02 0.  1.
          2   -1    0    0  501    0  0.00000000000E+00 -0.00000000000E+00 -0.89648658882E+02  0.89648658918E+02  0.25500000000E-02 0. -1.
         24    2    1    2    0    0  0.00000000000E+00 -0.35527136788E-14 -0.67241428849E+02  0.11205588952E+03  0.89638789719E+02 0.  0.
         66    2    3    3    0    0  0.19896925572E+02 -0.18920676238E+02 -0.77885621071E+02  0.82607805904E+02  0.19999975297E+01 0.  0.
        -13    1    3    3    0    0 -0.19896925572E+02  0.18920676238E+02  0.10644192222E+02  0.29448083615E+02  0.10566000000E+00 0.  1.
         13    1    4    4    0    0  0.22983101194E+01 -0.18669162341E+01 -0.91191331914E+01  0.95883971459E+01  0.10566000000E+00 0. -1.
        -13    1    4    4    0    0  0.17492827947E+02 -0.16761327111E+02 -0.68163299779E+02  0.72340774926E+02  0.10566000000E+00 0.  1.
        -14    1    4    4    0    0  0.10578750503E+00 -0.29243289223E+00 -0.60318810036E+00  0.67863383138E+00  0.00000000000E+00 0.  1.
<mgrwt>
<rscale>  0 0.89638790E+02</rscale>
<asrwt>0</asrwt>
<pdfrwt beam="1">  1        2 0.13792101E-01 0.89638790E+02</pdfrwt>
<pdfrwt beam="2">  1       -1 0.34472662E-02 0.89638790E+02</pdfrwt>
<totfact> 0.12644615E+05</totfact>
</mgrwt>
</event>
<event>
 8    1  0.2603554E-024  0.7917476E+02  0.7818608E-02  0.1331410E+00
         -1   -1    0    0    0  501 -0.00000000000E+00  0.00000000000E+00  0.31153390187E+01  0.31153430955E+01  0.50400000000E-02 0.  1.
          2   -1    0    0  501    0  0.00000000000E+00 -0.00000000000E+00 -0.50304621783E+03  0.50304621783E+03  0.25500000000E-02 0. -1.
         24    2    1    2    0    0  0.00000000000E+00 -0.71054273576E-14 -0.49993087881E+03  0.50616156093E+03  0.79174757190E+02 0.  0.
         66    2    3    3    0    0  0.10593729587E+02  0.34907066440E+02 -0.34800688828E+03  0.34991931166E+03  0.19999973605E+01 0.  0.
        -13    1    3    3    0    0 -0.10593729587E+02 -0.34907066440E+02 -0.15192399053E+03  0.15624224927E+03  0.10566000000E+00 0.  1.
         13    1    4    4    0    0  0.79174286718E+01  0.27397588257E+02 -0.26616060187E+03  0.26768412480E+03  0.10566000000E+00 0. -1.
        -13    1    4    4    0    0  0.10476880965E+00  0.33471417243E+00 -0.36267622534E+01  0.36452131020E+01  0.10566000000E+00 0. -1.
        -14    1    4    4    0    0  0.25715321056E+01  0.71747640109E+01 -0.78219524159E+02  0.78589973760E+02  0.00000000000E+00 0.  1.
<mgrwt>
<rscale>  0 0.79174757E+02</rscale>
<asrwt>0</asrwt>
<pdfrwt beam="1">  1        2 0.77391662E-01 0.79174757E+02</pdfrwt>
<pdfrwt beam="2">  1       -1 0.47928364E-03 0.79174757E+02</pdfrwt>
<totfact> 0.31345499E+05</totfact>
</mgrwt>
</event>
<event>
 8    1  0.2603554E-024  0.7768968E+02  0.7818608E-02  0.1335739E+00
          2   -1    0    0  501    0  0.00000000000E+00  0.00000000000E+00  0.16640148056E+03  0.16640148058E+03  0.25500000000E-02 0. -1.
         -1   -1    0    0    0  501 -0.00000000000E+00 -0.00000000000E+00 -0.90679570005E+01  0.90679584011E+01  0.50400000000E-02 0.  1.
         24    2    1    2    0    0 -0.17763568394E-14  0.00000000000E+00  0.15733352356E+03  0.17546943898E+03  0.77689680013E+02 0.  0.
         66    2    3    3    0    0 -0.14895207235E+02 -0.98915452438E+00  0.15965306324E+03  0.16036192252E+03  0.19999917052E+01 0.  0.
        -13    1    3    3    0    0  0.14895207235E+02  0.98915452438E+00 -0.23195396812E+01  0.15107516461E+02  0.10566000000E+00 0.  1.
         13    1    4    4    0    0 -0.86652653196E+01 -0.13794431323E+01  0.88612739142E+02  0.89046158754E+02  0.10566000000E+00 0. -1.
        -13    1    4    4    0    0 -0.18564441052E+01  0.31475049832E+00  0.20629365522E+02  0.20715388929E+02  0.10566000000E+00 0.  1.
         14    1    4    4    0    0 -0.43734978104E+01  0.75538109561E-01  0.50410958576E+02  0.50600374837E+02  0.00000000000E+00 0. -1.
<mgrwt>
<rscale>  0 0.77689680E+02</rscale>
<asrwt>0</asrwt>
<pdfrwt beam="1">  1        2 0.25600224E-01 0.77689680E+02</pdfrwt>
<pdfrwt beam="2">  1       -1 0.13950706E-02 0.77689680E+02</pdfrwt>
<totfact> 0.22390560E+05</totfact>
</mgrwt>
</event>
<event>
 8    1  0.2603554E-024  0.7993617E+02  0.7818608E-02  0.1329233E+00
         -1   -1    0    0    0  501 -0.00000000000E+00  0.00000000000E+00  0.53198360165E+02  0.53198360403E+02  0.50400000000E-02 0.  1.
          2   -1    0    0  501    0  0.00000000000E+00 -0.00000000000E+00 -0.30028140018E+02  0.30028140127E+02  0.25500000000E-02 0. -1.
         24    2    1    2    0    0  0.00000000000E+00  0.11102230246E-15  0.23170220146E+02  0.83226500530E+02  0.79936170091E+02 0.  0.
         66    2    3    3    0    0  0.33527814210E+02  0.67813664492E+00 -0.11000360969E+02  0.35349429058E+02  0.19999995581E+01 0.  0.
        -13    1    3    3    0    0 -0.33527814210E+02 -0.67813664492E+00  0.34170581115E+02  0.47877071473E+02  0.10566000000E+00 0.  1.
         13    1    4    4    0    0  0.10759148817E+02  0.92632665670E+00 -0.39653024220E+01  0.11504440520E+02  0.10566000000E+00 0. -1.
        -13    1    4    4    0    0  0.73750131727E+01 -0.30728091793E+00 -0.19919452887E+01  0.76461919233E+01  0.10566000000E+00 0.  1.
        -14    1    4    4    0    0  0.15393652221E+02  0.59090906149E-01 -0.50431132581E+01  0.16198796614E+02  0.00000000000E+00 0.  1.
<mgrwt>
<rscale>  0 0.79936170E+02</rscale>
<asrwt>0</asrwt>
<pdfrwt beam="1">  1        2 0.46197139E-02 0.79936170E+02</pdfrwt>
<pdfrwt beam="2">  1       -1 0.81843631E-02 0.79936170E+02</pdfrwt>
<totfact> 0.13487851E+05</totfact>
</mgrwt>
</event>
