<event>
 8    1  0.2561077E-016  0.7852908E+02  0.7818608E-02  0.1333278E+00
          2   -1    0    0  501    0  0.00000000000E+00  0.00000000000E+00  0.29637763586E+02  0.29637763696E+02  0.25500000000E-02 0. -1.
         -1   -1    0    0    0  501 -0.00000000000E+00 -0.00000000000E+00 -0.52018236776E+02  0.52018237020E+02  0.50400000000E-02 0.  1.
         24    2    1    2    0    0 -0.88817841970E-15  0.00000000000E+00 -0.22380473189E+02  0.81656000716E+02  0.78529082974E+02 0.  0.
         66    2    3    3    0    0  0.44294327254E+01 -0.36243004167E+02  0.37457016005E+01  0.36758746919E+02  0.19999923089E+01 0.  0.
        -13    1    3    3    0    0 -0.44294327254E+01  0.36243004167E+02 -0.26126174790E+02  0.44897253797E+02  0.10566000000E+00 0.  1.
         13    1    4    4    0    0  0.25739955802E+01 -0.21984183963E+02  0.15691678533E+01  0.22190161098E+02  0.10566000000E+00 0. -1.
        -13    1    4    4    0    0  0.37007508503E+00 -0.57773274955E+01  0.69923661936E+00  0.58322006519E+01  0.10566000000E+00 0.  1.
        -14    1    4    4    0    0  0.14853620602E+01 -0.84814927084E+01  0.14772971279E+01  0.87363851688E+01  0.00000000000E+00 0.  1.
<mgrwt>
<rscale>  0 0.78529083E+02</rscale>
<asrwt>0</asrwt>
<pdfrwt beam="1">  1        2 0.45596560E-02 0.78529083E+02</pdfrwt>
<pdfrwt beam="2">  1       -1 0.80028057E-02 0.78529083E+02</pdfrwt>
<totfact> 0.14138973E+05</totfact>
</mgrwt>
</event>
<event>
 8    1  0.2561077E-016  0.7809427E+02  0.7818608E-02  0.1334548E+00
          2   -1    0    0  501    0  0.00000000000E+00  0.00000000000E+00  0.63123384052E+03  0.63123384053E+03  0.25500000000E-02 0. -1.
         -1   -1    0    0    0  501 -0.00000000000E+00 -0.00000000000E+00 -0.24153921333E+01  0.24153973915E+01  0.50400000000E-02 0.  1.
         24    2    1    2    0    0  0.17763568394E-14  0.35527136788E-14  0.62881844839E+03  0.63364923792E+03  0.78094274316E+02 0.  0.
         66    2    3    3    0    0  0.10958711640E+02  0.29111815240E+02  0.50577996951E+03  0.50673954721E+03  0.19999999658E+01 0.  0.
        -13    1    3    3    0    0 -0.10958711640E+02 -0.29111815240E+02  0.12303847887E+03  0.12690969070E+03  0.10566000000E+00 0.  1.
         13    1    4    4    0    0  0.39486158610E+01  0.11088716490E+02  0.20295443078E+03  0.20329550742E+03  0.10566000000E+00 0. -1.
        -13    1    4    4    0    0  0.33286701357E+01  0.78713933096E+01  0.12718240066E+03  0.12746926327E+03  0.10566000000E+00 0.  1.
         14    1    4    4    0    0  0.36814256437E+01  0.10151705440E+02  0.17564313807E+03  0.17597477651E+03  0.00000000000E+00 0. -1.
<mgrwt>
<rscale>  0 0.78094274E+02</rscale>
<asrwt>0</asrwt>
<pdfrwt beam="1">  1        2 0.97113011E-01 0.78094274E+02</pdfrwt>
<pdfrwt beam="2">  1       -1 0.37159877E-03 0.78094274E+02</pdfrwt>
<totfact> 0.34716940E+05</totfact>
</mgrwt>
</event>
<event>
 8    1  0.2561077E-016  0.7947690E+02  0.7818608E-02  0.1330542E+00
         -1   -1    0    0    0  501 -0.00000000000E+00  0.00000000000E+00  0.23163511532E+02  0.23163512081E+02  0.50400000000E-02 0.  1.
          2   -1    0    0  501    0  0.00000000000E+00 -0.00000000000E+00 -0.68173794581E+02  0.68173794629E+02  0.25500000000E-02 0. -1.
         24    2    1    2    0    0  0.00000000000E+00  0.35527136788E-14 -0.45010283049E+02  0.91337306709E+02  0.79476902411E+02 0.  0.
         66    2    3    3    0    0 -0.53040818265E+01 -0.21266097076E+02 -0.60578841803E+02  0.64452899433E+02  0.20000005889E+01 0.  0.
        -13    1    3    3    0    0  0.53040818265E+01  0.21266097076E+02  0.15568558754E+02  0.26884407276E+02  0.10566000000E+00 0.  1.
         13    1    4    4    0    0 -0.14137695875E+01 -0.78052844787E+01 -0.19950762110E+02  0.21470102073E+02  0.10566000000E+00 0.  1.
        -13    1    4    4    0    0 -0.10214206060E+01 -0.25932002322E+01 -0.83968904489E+01  0.88479896443E+01  0.10566000000E+00 0.  1.
         14    1    4    4    0    0 -0.28688916330E+01 -0.10867612365E+02 -0.32231189244E+02  0.34134807716E+02  0.00000000000E+00 0. -1.
<mgrwt>
<rscale>  0 0.79476902E+02</rscale>
<asrwt>0</asrwt>
<pdfrwt beam="1">  1        2 0.10488276E-01 0.79476902E+02</pdfrwt>
<pdfrwt beam="2">  1       -1 0.35636173E-02 0.79476902E+02</pdfrwt>
<totfact> 0.16330663E+05</totfact>
</mgrwt>
</event>
<event>
 8    1  0.2561077E-016  0.8091858E+02  0.7818608E-02  0.1326465E+00
         -1   -1    0    0    0  501 -0.00000000000E+00  0.00000000000E+00  0.66773434853E+01  0.66773453874E+01  0.50400000000E-02 0.  1.
          2   -1    0    0  501    0  0.00000000000E+00 -0.00000000000E+00 -0.24515048675E+03  0.24515048676E+03  0.25500000000E-02 0. -1.
         24    2    1    2    0    0  0.88817841970E-15  0.00000000000E+00 -0.23847314326E+03  0.25182783215E+03  0.80918582459E+02 0.  0.
         66    2    3    3    0    0  0.48991670834E+01  0.38191921110E+02 -0.15771887029E+03  0.16236337863E+03  0.19999995022E+01 0.  0.
        -13    1    3    3    0    0 -0.48991670834E+01 -0.38191921110E+02 -0.80754272972E+02  0.89464453519E+02  0.10566000000E+00 0.  1.
         13    1    4    4    0    0  0.23492045664E+01  0.15465541811E+02 -0.65611054018E+02  0.67450154329E+02  0.10566000000E+00 0. -1.
        -13    1    4    4    0    0  0.16423839831E+01  0.11658437861E+02 -0.45113415037E+02  0.46624542666E+02  0.10566000000E+00 0.  1.
         14    1    4    4    0    0  0.90757853388E+00  0.11067941438E+02 -0.46994401237E+02  0.48288681635E+02  0.00000000000E+00 0. -1.
<mgrwt>
<rscale>  0 0.80918582E+02</rscale>
<asrwt>0</asrwt>
<pdfrwt beam="1">  1        2 0.37715453E-01 0.80918582E+02</pdfrwt>
<pdfrwt beam="2">  1       -1 0.10272839E-02 0.80918582E+02</pdfrwt>
<totfact> 0.23000188E+05</totfact>
</mgrwt>
</event>
<event>
 8    1  0.2561077E-016  0.8108034E+02  0.7818608E-02  0.1326013E+00
          2   -1    0    0  501    0  0.00000000000E+00  0.00000000000E+00  0.46249596653E+03  0.46249596653E+03  0.25500000000E-02 0. -1.
         -1   -1    0    0    0  501 -0.00000000000E+00 -0.00000000000E+00 -0.35535541992E+01  0.35535577733E+01  0.50400000000E-02 0.  1.
         24    2    1    2    0    0  0.00000000000E+00 -0.88817841970E-15  0.45894241233E+03  0.46604952431E+03  0.81080338393E+02 0.  0.
         66    2    3    3    0    0 -0.36688582898E+02  0.72458642767E+01  0.31920282641E+03  0.32139228218E+03  0.19999976462E+01 0.  0.
        -13    1    3    3    0    0  0.36688582898E+02 -0.72458642767E+01  0.13973958591E+03  0.14465724213E+03  0.10566000000E+00 0.  1.
         13    1    4    4    0    0 -0.63517337668E+01  0.67196176189E+00  0.57498342695E+02  0.57852109997E+02  0.10566000000E+00 0. -1.
        -13    1    4    4    0    0 -0.55837777791E+01  0.10201805732E+01  0.45936291441E+02  0.46285779437E+02  0.10566000000E+00 0.  1.
         14    1    4    4    0    0 -0.24753071353E+02  0.55537219417E+01  0.21576819228E+03  0.21725439275E+03  0.00000000000E+00 0. -1.
<mgrwt>
<rscale>  0 0.81080338E+02</rscale>
<asrwt>0</asrwt>
<pdfrwt beam="1">  1        2 0.71153206E-01 0.81080338E+02</pdfrwt>
<pdfrwt beam="2">  1       -1 0.54670108E-03 0.81080338E+02</pdfrwt>
<totfact> 0.28667205E+05</totfact>
</mgrwt>
</event>
<event>
 8    1  0.2561077E-016  0.8050603E+02  0.7818608E-02  0.1327622E+00
         -1   -1    0    0    0  501 -0.00000000000E+00  0.00000000000E+00  0.18468428144E+01  0.18468496914E+01  0.50400000000E-02 0.  1.
          2   -1    0    0  501    0  0.00000000000E+00 -0.00000000000E+00 -0.87733625386E+03  0.87733625386E+03  0.25500000000E-02 0. -1.
         24    2    1    2    0    0  0.00000000000E+00  0.00000000000E+00 -0.87548941104E+03  0.87918310355E+03  0.80506029114E+02 0.  0.
         66    2    3    3    0    0 -0.91658200362E+01 -0.16370086056E+02 -0.82663008302E+03  0.82684538223E+03  0.19999963850E+01 0.  0.
        -13    1    3    3    0    0  0.91658200362E+01  0.16370086056E+02 -0.48859328024E+02  0.52337721324E+02  0.10566000000E+00 0.  1.
         13    1    4    4    0    0 -0.47318627044E+01 -0.72340748082E+01 -0.35367528440E+03  0.35378092136E+03  0.10566000000E+00 0. -1.
        -13    1    4    4    0    0 -0.15989196958E+01 -0.30695495319E+01 -0.17778338497E+03  0.17781710214E+03  0.10566000000E+00 0.  1.
        -14    1    4    4    0    0 -0.28350376359E+01 -0.60664617162E+01 -0.29517141365E+03  0.29524735873E+03  0.00000000000E+00 0.  1.
<mgrwt>
<rscale>  0 0.80506029E+02</rscale>
<asrwt>0</asrwt>
<pdfrwt beam="1">  1        2 0.13497448E+00 0.80506029E+02</pdfrwt>
<pdfrwt beam="2">  1       -1 0.28413089E-03 0.80506029E+02</pdfrwt>
<totfact> 0.34276046E+05</totfact>
</mgrwt>
</event>
<event>
 8    1  0.2561077E-016  0.7630888E+02  0.7818608E-02  0.1339865E+00
          2   -1    0    0  501    0  0.00000000000E+00  0.00000000000E+00  0.99722238421E+02  0.99722238453E+02  0.25500000000E-02 0. -1.
         -1   -1    0    0    0  501 -0.00000000000E+00 -0.00000000000E+00 -0.14598160662E+02  0.14598161532E+02  0.50400000000E-02 0.  1.
         24    2    1    2    0    0  0.00000000000E+00  0.00000000000E+00  0.85124077759E+02  0.11432039999E+03  0.76308880469E+02 0.  0.
         66    2    3    3    0    0  0.22935186080E+02  0.58695105443E+01  0.87366964610E+02  0.90539827662E+02  0.19999933844E+01 0.  0.
        -13    1    3    3    0    0 -0.22935186080E+02 -0.58695105443E+01 -0.22428868507E+01  0.23780572323E+02  0.10566000000E+00 0.  1.
         13    1    4    4    0    0  0.19654024483E+02  0.52390324469E+01  0.74761301119E+02  0.77478974235E+02  0.10566000000E+00 0. -1.
        -13    1    4    4    0    0  0.31328962776E+01  0.42744006047E+00  0.11525985607E+02  0.11952290674E+02  0.10566000000E+00 0.  1.
        -14    1    4    4    0    0  0.14826531886E+00  0.20303803702E+00  0.10796778828E+01  0.11085627541E+01  0.00000000000E+00 0.  1.
<mgrwt>
<rscale>  0 0.76308880E+02</rscale>
<asrwt>0</asrwt>
<pdfrwt beam="1">  1        2 0.15341883E-01 0.76308880E+02</pdfrwt>
<pdfrwt beam="2">  1       -1 0.22458709E-02 0.76308880E+02</pdfrwt>
<totfact> 0.20094493E+05</totfact>
</mgrwt>
</event>
<event>
 8    1  0.2561077E-016  0.7126209E+02  0.7818608E-02  0.1355853E+00
         -1   -1    0    0    0  501 -0.00000000000E+00  0.00000000000E+00  0.10393435321E+02  0.10393436543E+02  0.50400000000E-02 0.  1.
          2   -1    0    0  501    0  0.00000000000E+00 -0.00000000000E+00 -0.12215126171E+03  0.12215126174E+03  0.25500000000E-02 0. -1.
         24    2    1    2    0    0  0.00000000000E+00  0.00000000000E+00 -0.11175782639E+03  0.13254469828E+03  0.71262088677E+02 0.  0.
         66    2    3    3    0    0 -0.27822973587E+02 -0.21669186837E+02 -0.46830845005E+02  0.58658328811E+02  0.19999944132E+01 0.  0.
        -13    1    3    3    0    0  0.27822973587E+02  0.21669186837E+02 -0.64926981384E+02  0.73886369468E+02  0.10566000000E+00 0.  1.
         13    1    4    4    0    0 -0.20947559989E+02 -0.16573600736E+02 -0.36529651657E+02  0.45253852047E+02  0.10566000000E+00 0. -1.
        -13    1    4    4    0    0 -0.60501352443E+01 -0.45549969879E+01 -0.93656101110E+01  0.12044830876E+02  0.10566000000E+00 0.  1.
         14    1    4    4    0    0 -0.82527835303E+00 -0.54058911330E+00 -0.93558323659E+00  0.13596458885E+01  0.00000000000E+00 0. -1.
<mgrwt>
<rscale>  0 0.71262089E+02</rscale>
<asrwt>0</asrwt>
<pdfrwt beam="1">  1        2 0.18792501E-01 0.71262089E+02</pdfrwt>
<pdfrwt beam="2">  1       -1 0.15989902E-02 0.71262089E+02</pdfrwt>
<totfact> 0.25511648E+05</totfact>
</mgrwt>
</event>
<event>
 8    1  0.2765154E-016  0.8065527E+02  0.7818608E-02  0.1327202E+00
         -1   -1    0    0    0  501 -0.00000000000E+00  0.00000000000E+00  0.36875308547E+01  0.36875342990E+01  0.50400000000E-02 0.  1.
          2   -1    0    0  501    0  0.00000000000E+00 -0.00000000000E+00 -0.44103147784E+03  0.44103147785E+03  0.25500000000E-02 0. -1.
         24    2    1    2    0    0  0.35527136788E-14  0.00000000000E+00 -0.43734394699E+03  0.44471901215E+03  0.80655265171E+02 0.  0.
         66    2    3    3    0    0 -0.24156743917E+02  0.24292143726E+01 -0.39618192421E+03  0.39693017828E+03  0.20000002070E+01 0.  0.
        -13    1    3    3    0    0  0.24156743917E+02 -0.24292143726E+01 -0.41162022776E+02  0.47788833865E+02  0.10566000000E+00 0.  1.
         13    1    4    4    0    0 -0.34270793387E+00  0.36300530678E-02 -0.67021841872E+01  0.67117731502E+01  0.10566000000E+00 0.  1.
        -13    1    4    4    0    0 -0.16920415425E+01 -0.23518511666E+00 -0.25680962326E+02  0.25737935167E+02  0.10566000000E+00 0.  1.
         14    1    4    4    0    0 -0.22121994441E+02  0.26607694362E+01 -0.36379877770E+03  0.36448046997E+03  0.00000000000E+00 0. -1.
<mgrwt>
<rscale>  0 0.80655265E+02</rscale>
<asrwt>0</asrwt>
<pdfrwt beam="1">  1        2 0.67850955E-01 0.80655265E+02</pdfrwt>
<pdfrwt beam="2">  1       -1 0.56731306E-03 0.80655265E+02</pdfrwt>
<totfact> 0.28603919E+05</totfact>
</mgrwt>
</event>
<event>
 8    1  0.2561077E-016  0.8074360E+02  0.7818608E-02  0.1326954E+00
         -1   -1    0    0    0  501 -0.00000000000E+00  0.00000000000E+00  0.41078163612E+02  0.41078163921E+02  0.50400000000E-02 0.  1.
          2   -1    0    0  501    0  0.00000000000E+00 -0.00000000000E+00 -0.39677585515E+02  0.39677585597E+02  0.25500000000E-02 0. -1.
         24    2    1    2    0    0  0.00000000000E+00 -0.35527136788E-14  0.14005780969E+01  0.80755749518E+02  0.80743603222E+02 0.  0.
         66    2    3    3    0    0  0.74241747791E+01  0.28725368745E+02 -0.26645893958E+02  0.39928296262E+02  0.19999992223E+01 0.  0.
        -13    1    3    3    0    0 -0.74241747791E+01 -0.28725368745E+02  0.28046472055E+02  0.40827453257E+02  0.10566000000E+00 0.  1.
         13    1    4    4    0    0  0.14641049725E+01  0.55419073196E+01 -0.51474937170E+01  0.77048163970E+01  0.10566000000E+00 0. -1.
        -13    1    4    4    0    0  0.53967165220E+01  0.18394242383E+02 -0.17570400292E+02  0.26003900333E+02  0.10566000000E+00 0.  1.
        -14    1    4    4    0    0  0.56335328450E+00  0.47892190417E+01 -0.39279999488E+01  0.62195795316E+01  0.00000000000E+00 0.  1.
<mgrwt>
<rscale>  0 0.80743603E+02</rscale>
<asrwt>0</asrwt>
<pdfrwt beam="1">  1        2 0.61042439E-02 0.80743603E+02</pdfrwt>
<pdfrwt beam="2">  1       -1 0.63197175E-02 0.80743603E+02</pdfrwt>
<totfact> 0.13871776E+05</totfact>
</mgrwt>
</event>
<event>
 8    1  0.2561077E-016  0.7787731E+02  0.7818608E-02  0.1335186E+00
          2   -1    0    0  501    0  0.00000000000E+00  0.00000000000E+00  0.54760552744E+02  0.54760552804E+02  0.25500000000E-02 0. -1.
         -1   -1    0    0    0  501 -0.00000000000E+00 -0.00000000000E+00 -0.27688157305E+02  0.27688157763E+02  0.50400000000E-02 0.  1.
         24    2    1    2    0    0  0.00000000000E+00  0.00000000000E+00  0.27072395440E+02  0.82448710567E+02  0.77877309143E+02 0.  0.
         66    2    3    3    0    0  0.38612596485E+02  0.45334762155E+01  0.15293997063E+02  0.41825726355E+02  0.20000062688E+01 0.  0.
        -13    1    3    3    0    0 -0.38612596485E+02 -0.45334762155E+01  0.11778398377E+02  0.40622984212E+02  0.10566000000E+00 0.  1.
         13    1    4    4    0    0  0.21812447282E+02  0.31802534337E+01  0.89825355357E+01  0.23803234592E+02  0.10566000000E+00 0.  1.
        -13    1    4    4    0    0  0.14767345673E+02  0.98984188390E+00  0.57864280249E+01  0.15891765116E+02  0.10566000000E+00 0. -1.
        -14    1    4    4    0    0  0.20328035302E+01  0.36338089793E+00  0.52503350208E+00  0.21307266478E+01  0.00000000000E+00 0.  1.
<mgrwt>
<rscale>  0 0.77877309E+02</rscale>
<asrwt>0</asrwt>
<pdfrwt beam="1">  1        2 0.84247003E-02 0.77877309E+02</pdfrwt>
<pdfrwt beam="2">  1       -1 0.42597166E-02 0.77877309E+02</pdfrwt>
<totfact> 0.16405203E+05</totfact>
</mgrwt>
</event>
<event>
 8    1  0.2561077E-016  0.7886493E+02  0.7818608E-02  0.1332304E+00
         -1   -1    0    0    0  501 -0.00000000000E+00  0.00000000000E+00  0.13245176005E+01  0.13245271895E+01  0.50400000000E-02 0.  1.
          2   -1    0    0  501    0  0.00000000000E+00 -0.00000000000E+00 -0.11739472817E+04  0.11739472817E+04  0.25500000000E-02 0. -1.
         24    2    1    2    0    0  0.00000000000E+00  0.00000000000E+00 -0.11726227641E+04  0.11752718089E+04  0.78864934492E+02 0.  0.
         66    2    3    3    0    0 -0.11215478152E+02  0.15034858973E+02 -0.11031518654E+04  0.11033131342E+04  0.20000018401E+01 0.  0.
        -13    1    3    3    0    0  0.11215478152E+02 -0.15034858973E+02 -0.69470898666E+02  0.71958674669E+02  0.10566000000E+00 0.  1.
         13    1    4    4    0    0 -0.39185422031E+01  0.58657376868E+01 -0.39565336179E+03  0.39571625656E+03  0.10566000000E+00 0. -1.
        -13    1    4    4    0    0 -0.64062449496E+01  0.73408996988E+01 -0.60058404832E+03  0.60066308281E+03  0.10566000000E+00 0.  1.
        -14    1    4    4    0    0 -0.89069099953E+00  0.18282215872E+01 -0.10691445529E+03  0.10693379482E+03  0.00000000000E+00 0.  1.
<mgrwt>
<rscale>  0 0.78864934E+02</rscale>
<asrwt>0</asrwt>
<pdfrwt beam="1">  1        2 0.18060644E+00 0.78864934E+02</pdfrwt>
<pdfrwt beam="2">  1       -1 0.20377362E-03 0.78864934E+02</pdfrwt>
<totfact> 0.36441027E+05</totfact>
</mgrwt>
</event>
<event>
 8    1  0.2561077E-016  0.8251624E+02  0.7818608E-02  0.1322059E+00
         -1   -1    0    0    0  501 -0.00000000000E+00  0.00000000000E+00  0.69369674972E+02  0.69369675155E+02  0.50400000000E-02 0.  1.
          2   -1    0    0  501    0  0.00000000000E+00 -0.00000000000E+00 -0.24538566903E+02  0.24538567036E+02  0.25500000000E-02 0. -1.
         24    2    1    2    0    0 -0.17763568394E-14  0.00000000000E+00  0.44831108069E+02  0.93908242191E+02  0.82516239012E+02 0.  0.
         66    2    3    3    0    0  0.71567049779E+01  0.27535022309E+02 -0.11538696763E+02  0.30765848029E+02  0.20000005676E+01 0.  0.
        -13    1    3    3    0    0 -0.71567049779E+01 -0.27535022309E+02  0.56369804832E+02  0.63142394162E+02  0.10566000000E+00 0.  1.
         13    1    4    4    0    0  0.47699773845E+01  0.16384753930E+02 -0.73007883285E+01  0.18561398650E+02  0.10566000000E+00 0. -1.
        -13    1    4    4    0    0  0.23408273166E+01  0.11093274068E+02 -0.41155685897E+01  0.12061893339E+02  0.10566000000E+00 0.  1.
        -14    1    4    4    0    0  0.45900276895E-01  0.56994311056E-01 -0.12233984480E+00  0.14255603999E+00  0.00000000000E+00 0.  1.
<mgrwt>
<rscale>  0 0.82516239E+02</rscale>
<asrwt>0</asrwt>
<pdfrwt beam="1">  1        2 0.37751642E-02 0.82516239E+02</pdfrwt>
<pdfrwt beam="2">  1       -1 0.10672258E-01 0.82516239E+02</pdfrwt>
<totfact> 0.11842751E+05</totfact>
</mgrwt>
</event>
<event>
 8    1  0.2561077E-016  0.7502618E+02  0.7818608E-02  0.1343790E+00
          2   -1    0    0  501    0  0.00000000000E+00  0.00000000000E+00  0.16655792123E+03  0.16655792125E+03  0.25500000000E-02 0. -1.
         -1   -1    0    0    0  501 -0.00000000000E+00 -0.00000000000E+00 -0.84489045329E+01  0.84489060361E+01  0.50400000000E-02 0.  1.
         24    2    1    2    0    0 -0.35527136788E-14 -0.44408920985E-15  0.15810901669E+03  0.17500682728E+03  0.75026184999E+02 0.  0.
         66    2    3    3    0    0 -0.30773898482E+02 -0.17784047045E+01  0.12886853234E+03  0.13251903326E+03  0.19999999063E+01 0.  0.
        -13    1    3    3    0    0  0.30773898482E+02  0.17784047045E+01  0.29240484358E+02  0.42487794019E+02  0.10566000000E+00 0.  1.
         13    1    4    4    0    0 -0.17384334030E+02 -0.13426345367E+01  0.70847187035E+02  0.72961310378E+02  0.10566000000E+00 0. -1.
        -13    1    4    4    0    0 -0.13399561110E+02 -0.46334310737E+00  0.57942864538E+02  0.59473940845E+02  0.10566000000E+00 0.  1.
        -14    1    4    4    0    0  0.99966590611E-02  0.27572939542E-01  0.78480763273E-01  0.83782040983E-01  0.00000000000E+00 0.  1.
<mgrwt>
<rscale>  0 0.75026185E+02</rscale>
<asrwt>0</asrwt>
<pdfrwt beam="1">  1        2 0.25624298E-01 0.75026185E+02</pdfrwt>
<pdfrwt beam="2">  1       -1 0.12998315E-02 0.75026185E+02</pdfrwt>
<totfact> 0.24552891E+05</totfact>
</mgrwt>
</event>
<event>
 8    1  0.2561077E-016  0.8124375E+02  0.7818608E-02  0.1325558E+00
          2   -1    0    0  501    0  0.00000000000E+00  0.00000000000E+00  0.26276548903E+03  0.26276548904E+03  0.25500000000E-02 0. -1.
         -1   -1    0    0    0  501 -0.00000000000E+00 -0.00000000000E+00 -0.62798828259E+01  0.62798848483E+01  0.50400000000E-02 0.  1.
         24    2    1    2    0    0  0.00000000000E+00  0.35527136788E-14  0.25648560620E+03  0.26904537389E+03  0.81243750665E+02 0.  0.
         66    2    3    3    0    0 -0.32738761679E+02  0.19438613083E+02  0.17497080027E+03  0.17907670742E+03  0.20000001776E+01 0.  0.
        -13    1    3    3    0    0  0.32738761679E+02 -0.19438613083E+02  0.81514805936E+02  0.89968666466E+02  0.10566000000E+00 0.  1.
         13    1    4    4    0    0 -0.91295777421E+01  0.58411654787E+01  0.49767267244E+02  0.50933883191E+02  0.10566000000E+00 0. -1.
        -13    1    4    4    0    0 -0.39754482591E+01  0.28434077052E+01  0.20927467659E+02  0.21490910239E+02  0.10566000000E+00 0.  1.
        -14    1    4    4    0    0 -0.19633735678E+02  0.10754039899E+02  0.10427606536E+03  0.10665191399E+03  0.00000000000E+00 0.  1.
<mgrwt>
<rscale>  0 0.81243751E+02</rscale>
<asrwt>0</asrwt>
<pdfrwt beam="1">  1        2 0.40425455E-01 0.81243751E+02</pdfrwt>
<pdfrwt beam="2">  1       -1 0.96613609E-03 0.81243751E+02</pdfrwt>
<totfact> 0.23334161E+05</totfact>
</mgrwt>
</event>
<event>
 8    1  0.2561077E-016  0.7875316E+02  0.7818608E-02  0.1332627E+00
         -1   -1    0    0    0  501 -0.00000000000E+00  0.00000000000E+00  0.59437663083E+01  0.59437684452E+01  0.50400000000E-02 0.  1.
          2   -1    0    0  501    0  0.00000000000E+00 -0.00000000000E+00 -0.26086402886E+03  0.26086402888E+03  0.25500000000E-02 0. -1.
         24    2    1    2    0    0 -0.27755575616E-16  0.00000000000E+00 -0.25492026255E+03  0.26680779732E+03  0.78753161525E+02 0.  0.
         66    2    3    3    0    0  0.18410130774E+00 -0.37734036557E+02 -0.89722044119E+02  0.97354694821E+02  0.19999986744E+01 0.  0.
        -13    1    3    3    0    0 -0.18410130774E+00  0.37734036557E+02 -0.16519821844E+03  0.16945310250E+03  0.10566000000E+00 0.  1.
         13    1    4    4    0    0  0.64320336772E+00 -0.14613579978E+02 -0.34867832688E+02  0.37812000089E+02  0.10566000000E+00 0. -1.
        -13    1    4    4    0    0 -0.74204425059E+00 -0.21465898400E+02 -0.50691522481E+02  0.55054309906E+02  0.10566000000E+00 0.  1.
        -14    1    4    4    0    0  0.28294219061E+00 -0.16545581789E+01 -0.41626889497E+01  0.44883848255E+01  0.00000000000E+00 0.  1.
<mgrwt>
<rscale>  0 0.78753162E+02</rscale>
<asrwt>0</asrwt>
<pdfrwt beam="1">  1        2 0.40132919E-01 0.78753162E+02</pdfrwt>
<pdfrwt beam="2">  1       -1 0.91442596E-03 0.78753162E+02</pdfrwt>
<totfact> 0.25256527E+05</totfact>
</mgrwt>
</event>
<event>
 8    1  0.2561077E-016  0.7927091E+02  0.7818608E-02  0.1331133E+00
          2   -1    0    0  501    0  0.00000000000E+00  0.00000000000E+00  0.15851235176E+03  0.15851235178E+03  0.25500000000E-02 0. -1.
         -1   -1    0    0    0  501 -0.00000000000E+00 -0.00000000000E+00 -0.99107039707E+01  0.99107052522E+01  0.50400000000E-02 0.  1.
         24    2    1    2    0    0  0.00000000000E+00  0.00000000000E+00  0.14860164779E+03  0.16842305704E+03  0.79270905222E+02 0.  0.
         66    2    3    3    0    0  0.12910351242E+01 -0.25412442753E+02  0.13884455650E+03  0.14117106605E+03  0.19999998866E+01 0.  0.
        -13    1    3    3    0    0 -0.12910351242E+01  0.25412442753E+02  0.97570912868E+01  0.27251990988E+02  0.10566000000E+00 0.  1.
         13    1    4    4    0    0  0.11028560944E+00 -0.90515430932E+01  0.48029880242E+02  0.48875588543E+02  0.10566000000E+00 0. -1.
        -13    1    4    4    0    0  0.60676663412E+00 -0.10875306186E+02  0.63851368089E+02  0.64773828212E+02  0.10566000000E+00 0.  1.
        -14    1    4    4    0    0  0.57398288064E+00 -0.54855934744E+01  0.26963308174E+02  0.27521649293E+02  0.00000000000E+00 0.  1.
<mgrwt>
<rscale>  0 0.79270905E+02</rscale>
<asrwt>0</asrwt>
<pdfrwt beam="1">  1        2 0.24386515E-01 0.79270905E+02</pdfrwt>
<pdfrwt beam="2">  1       -1 0.15247238E-02 0.79270905E+02</pdfrwt>
<totfact> 0.20892995E+05</totfact>
</mgrwt>
</event>
<event>
 8    1  0.2561077E-016  0.8058845E+02  0.7818608E-02  0.1327390E+00
          2   -1    0    0  501    0  0.00000000000E+00  0.00000000000E+00  0.84456454653E+02  0.84456454691E+02  0.25500000000E-02 0. -1.
         -1   -1    0    0    0  501 -0.00000000000E+00 -0.00000000000E+00 -0.19224400171E+02  0.19224400832E+02  0.50400000000E-02 0.  1.
         24    2    1    2    0    0 -0.35527136788E-14  0.00000000000E+00  0.65232054482E+02  0.10368085552E+03  0.80588453702E+02 0.  0.
         66    2    3    3    0    0 -0.22540926554E+02 -0.23608848678E+02  0.62976452051E+02  0.70961289325E+02  0.19999909631E+01 0.  0.
        -13    1    3    3    0    0  0.22540926554E+02  0.23608848678E+02  0.22556024302E+01  0.32719566198E+02  0.10566000000E+00 0.  1.
         13    1    4    4    0    0 -0.39478712387E+01 -0.43638598198E+01  0.11242119047E+02  0.12689577004E+02  0.10566000000E+00 0. -1.
        -13    1    4    4    0    0 -0.69506419456E+01 -0.70619362144E+01  0.21006630060E+02  0.23226537345E+02  0.10566000000E+00 0.  1.
        -14    1    4    4    0    0 -0.11642413370E+02 -0.12183052644E+02  0.30727702945E+02  0.35045174975E+02  0.00000000000E+00 0.  1.
<mgrwt>
<rscale>  0 0.80588454E+02</rscale>
<asrwt>0</asrwt>
<pdfrwt beam="1">  1        2 0.12993301E-01 0.80588454E+02</pdfrwt>
<pdfrwt beam="2">  1       -1 0.29576001E-02 0.80588454E+02</pdfrwt>
<totfact> 0.16601389E+05</totfact>
</mgrwt>
</event>
<event>
 8    1  0.2561077E-016  0.8022956E+02  0.7818608E-02  0.1328401E+00
          2   -1    0    0  501    0  0.00000000000E+00  0.00000000000E+00  0.54075406085E+03  0.54075406085E+03  0.25500000000E-02 0. -1.
         -1   -1    0    0    0  501 -0.00000000000E+00 -0.00000000000E+00 -0.29758344391E+01  0.29758387071E+01  0.50400000000E-02 0.  1.
         24    2    1    2    0    0  0.00000000000E+00  0.35527136788E-14  0.53777822641E+03  0.54372989956E+03  0.80229563611E+02 0.  0.
         66    2    3    3    0    0  0.24208924712E+02  0.23716564797E+02  0.41419546859E+03  0.41558444831E+03  0.19999993948E+01 0.  0.
        -13    1    3    3    0    0 -0.24208924712E+02 -0.23716564797E+02  0.12358275782E+03  0.12814545125E+03  0.10566000000E+00 0.  1.
         13    1    4    4    0    0  0.31288136370E+01  0.33350863266E+01  0.60242519285E+02  0.60415929766E+02  0.10566000000E+00 0. -1.
        -13    1    4    4    0    0  0.14771274356E+02  0.15185076878E+02  0.25706807318E+03  0.25793949391E+03  0.10566000000E+00 0.  1.
         14    1    4    4    0    0  0.63088367184E+01  0.51964015923E+01  0.96884876123E+02  0.97229024635E+02  0.00000000000E+00 0. -1.
<mgrwt>
<rscale>  0 0.80229564E+02</rscale>
<asrwt>0</asrwt>
<pdfrwt beam="1">  1        2 0.83192888E-01 0.80229564E+02</pdfrwt>
<pdfrwt beam="2">  1       -1 0.45782126E-03 0.80229564E+02</pdfrwt>
<totfact> 0.30970760E+05</totfact>
</mgrwt>
</event>
<event>
 8    1  0.2561077E-016  0.8024161E+02  0.7818608E-02  0.1328367E+00
         -1   -1    0    0    0  501 -0.00000000000E+00  0.00000000000E+00  0.24518580712E+01  0.24518632513E+01  0.50400000000E-02 0.  1.
          2   -1    0    0  501    0  0.00000000000E+00 -0.00000000000E+00 -0.65651320116E+03  0.65651320116E+03  0.25500000000E-02 0. -1.
         24    2    1    2    0    0  0.00000000000E+00  0.00000000000E+00 -0.65406134309E+03  0.65896506441E+03  0.80241607648E+02 0.  0.
         66    2    3    3    0    0 -0.32800024995E+02  0.19935220531E+01 -0.51591132488E+03  0.51696064735E+03  0.20000010776E+01 0.  0.
        -13    1    3    3    0    0  0.32800024995E+02 -0.19935220531E+01 -0.13815001821E+03  0.14200441706E+03  0.10566000000E+00 0.  1.
         13    1    4    4    0    0 -0.60627571996E+00  0.18018615564E+00 -0.11520473431E+02  0.11538306176E+02  0.10566000000E+00 0.  1.
        -13    1    4    4    0    0 -0.36884174053E+01 -0.21579195415E+00 -0.58483811323E+02  0.58600497779E+02  0.10566000000E+00 0.  1.
         14    1    4    4    0    0 -0.28505331869E+02  0.20291278516E+01 -0.44590704012E+03  0.44682184340E+03  0.00000000000E+00 0. -1.
<mgrwt>
<rscale>  0 0.80241608E+02</rscale>
<asrwt>0</asrwt>
<pdfrwt beam="1">  1        2 0.10100189E+00 0.80241608E+02</pdfrwt>
<pdfrwt beam="2">  1       -1 0.37720986E-03 0.80241608E+02</pdfrwt>
<totfact> 0.32682892E+05</totfact>
</mgrwt>
</event>
<event>
 8    1  0.2561077E-016  0.7618789E+02  0.7818608E-02  0.1340231E+00
         -1   -1    0    0    0  501 -0.00000000000E+00  0.00000000000E+00  0.94232976353E+02  0.94232976488E+02  0.50400000000E-02 0.  1.
          2   -1    0    0  501    0  0.00000000000E+00 -0.00000000000E+00 -0.15399583595E+02  0.15399583807E+02  0.25500000000E-02 0. -1.
         24    2    1    2    0    0  0.00000000000E+00  0.00000000000E+00  0.78833392757E+02  0.10963256029E+03  0.76187889215E+02 0.  0.
         66    2    3    3    0    0  0.25040518874E+02 -0.18574457377E+02  0.80125873577E+01  0.32252745783E+02  0.20000005086E+01 0.  0.
        -13    1    3    3    0    0 -0.25040518874E+02  0.18574457377E+02  0.70820805400E+02  0.77379814511E+02  0.10566000000E+00 0.  1.
         13    1    4    4    0    0  0.10776424732E+02 -0.76554294963E+01  0.40301545957E+01  0.13819921884E+02  0.10566000000E+00 0. -1.
        -13    1    4    4    0    0  0.72052466841E+00 -0.85901081302E+00  0.27411469516E+00  0.11590333370E+01  0.10566000000E+00 0.  1.
         14    1    4    4    0    0  0.13543569474E+02 -0.10060017067E+02  0.37083180668E+01  0.17273790562E+02  0.00000000000E+00 0. -1.
<mgrwt>
<rscale>  0 0.76187889E+02</rscale>
<asrwt>0</asrwt>
<pdfrwt beam="1">  1        2 0.23691667E-02 0.76187889E+02</pdfrwt>
<pdfrwt beam="2">  1       -1 0.14497381E-01 0.76187889E+02</pdfrwt>
<totfact> 0.13552990E+05</totfact>
</mgrwt>
</event>
<event>
 8    1  0.2561077E-016  0.7919670E+02  0.7818608E-02  0.1331347E+00
          2   -1    0    0  501    0  0.00000000000E+00  0.00000000000E+00  0.34268809305E+03  0.34268809306E+03  0.25500000000E-02 0. -1.
         -1   -1    0    0    0  501 -0.00000000000E+00 -0.00000000000E+00 -0.45756738251E+01  0.45756766008E+01  0.50400000000E-02 0.  1.
         24    2    1    2    0    0  0.00000000000E+00  0.00000000000E+00  0.33811241923E+03  0.34726376966E+03  0.79196702486E+02 0.  0.
         66    2    3    3    0    0 -0.19265024278E+02  0.39259409206E+01  0.31975363564E+03  0.32036376462E+03  0.20000006376E+01 0.  0.
        -13    1    3    3    0    0  0.19265024278E+02 -0.39259409206E+01  0.18358783585E+02  0.26900005043E+02  0.10566000000E+00 0.  1.
         13    1    4    4    0    0 -0.98533878244E-01  0.76538355510E-01  0.16600043612E+01  0.16680364384E+01  0.10566000000E+00 0.  1.
        -13    1    4    4    0    0 -0.12891811955E+01  0.10385981551E+00  0.17968708804E+02  0.18015505409E+02  0.10566000000E+00 0.  1.
         14    1    4    4    0    0 -0.17877309204E+02  0.37455427496E+01  0.30012492248E+03  0.30068022277E+03  0.00000000000E+00 0. -1.
<mgrwt>
<rscale>  0 0.79196702E+02</rscale>
<asrwt>0</asrwt>
<pdfrwt beam="1">  1        2 0.52721246E-01 0.79196702E+02</pdfrwt>
<pdfrwt beam="2">  1       -1 0.70395003E-03 0.79196702E+02</pdfrwt>
<totfact> 0.27462398E+05</totfact>
</mgrwt>
</event>
<event>
 8    1  0.2561077E-016  0.8024529E+02  0.7818608E-02  0.1328357E+00
          2   -1    0    0  501    0  0.00000000000E+00  0.00000000000E+00  0.50808580149E+01  0.50808586548E+01  0.25500000000E-02 0. -1.
         -1   -1    0    0    0  501 -0.00000000000E+00 -0.00000000000E+00 -0.31684145113E+03  0.31684145117E+03  0.50400000000E-02 0.  1.
         24    2    1    2    0    0  0.00000000000E+00  0.00000000000E+00 -0.31176059312E+03  0.32192230983E+03  0.80245287360E+02 0.  0.
         66    2    3    3    0    0 -0.14983115599E+02  0.35275260937E+02 -0.20327168007E+03  0.20686278956E+03  0.19999990704E+01 0.  0.
        -13    1    3    3    0    0  0.14983115599E+02 -0.35275260937E+02 -0.10848891304E+03  0.11505952027E+03  0.10566000000E+00 0.  1.
         13    1    4    4    0    0 -0.26873108963E+01  0.58178050103E+01 -0.33929746445E+02  0.34529803835E+02  0.10566000000E+00 0. -1.
        -13    1    4    4    0    0 -0.10669696336E+02  0.25927329258E+02 -0.14557034938E+03  0.14824576421E+03  0.10566000000E+00 0.  1.
        -14    1    4    4    0    0 -0.16261083673E+01  0.35301266685E+01 -0.23771584244E+02  0.24087221512E+02  0.00000000000E+00 0.  1.
<mgrwt>
<rscale>  0 0.80245287E+02</rscale>
<asrwt>0</asrwt>
<pdfrwt beam="1">  1        2 0.78167076E-03 0.80245287E+02</pdfrwt>
<pdfrwt beam="2">  1       -1 0.48744823E-01 0.80245287E+02</pdfrwt>
<totfact> 0.83838025E+04</totfact>
</mgrwt>
</event>
<event>
 8    1  0.2561077E-016  0.8096971E+02  0.7818608E-02  0.1326322E+00
          2   -1    0    0  501    0  0.00000000000E+00  0.00000000000E+00  0.23255691242E+02  0.23255691381E+02  0.25500000000E-02 0. -1.
         -1   -1    0    0    0  501 -0.00000000000E+00 -0.00000000000E+00 -0.70478378212E+02  0.70478378392E+02  0.50400000000E-02 0.  1.
         24    2    1    2    0    0  0.88817841970E-15  0.00000000000E+00 -0.47222686970E+02  0.93734069774E+02  0.80969708358E+02 0.  0.
         66    2    3    3    0    0 -0.53775959136E+01  0.29424434073E+02  0.79145593993E+01  0.31005743161E+02  0.20000000366E+01 0.  0.
        -13    1    3    3    0    0  0.53775959136E+01 -0.29424434073E+02 -0.55137246370E+02  0.62728326613E+02  0.10566000000E+00 0.  1.
         13    1    4    4    0    0 -0.27510218314E+01  0.11644201105E+02  0.24429901876E+01  0.12212080313E+02  0.10566000000E+00 0. -1.
        -13    1    4    4    0    0 -0.24039777424E+00  0.25479931081E+01  0.76587179330E+00  0.26735339175E+01  0.10566000000E+00 0.  1.
         14    1    4    4    0    0 -0.23861763081E+01  0.15232239860E+02  0.47056974184E+01  0.16120128930E+02  0.00000000000E+00 0. -1.
<mgrwt>
<rscale>  0 0.80969708E+02</rscale>
<asrwt>0</asrwt>
<pdfrwt beam="1">  1        2 0.35777987E-02 0.80969708E+02</pdfrwt>
<pdfrwt beam="2">  1       -1 0.10842827E-01 0.80969708E+02</pdfrwt>
<totfact> 0.12364502E+05</totfact>
</mgrwt>
</event>
<event>
 8    1  0.2561077E-016  0.8805898E+02  0.7818608E-02  0.1307621E+00
         -1   -1    0    0    0  501 -0.00000000000E+00  0.00000000000E+00  0.81770382085E+02  0.81770382241E+02  0.50400000000E-02 0.  1.
          2   -1    0    0  501    0  0.00000000000E+00 -0.00000000000E+00 -0.23707802921E+02  0.23707803058E+02  0.25500000000E-02 0. -1.
         24    2    1    2    0    0  0.88817841970E-15  0.71054273576E-14  0.58062579164E+02  0.10547818530E+03  0.88058982930E+02 0.  0.
         66    2    3    3    0    0  0.76261415790E+01 -0.39858785920E+02  0.86583990930E+01  0.41543335467E+02  0.19999991244E+01 0.  0.
        -13    1    3    3    0    0 -0.76261415790E+01  0.39858785920E+02  0.49404180071E+02  0.63934849831E+02  0.10566000000E+00 0.  1.
         13    1    4    4    0    0  0.43498299275E+01 -0.21407438267E+02  0.40528146649E+01  0.22217918542E+02  0.10566000000E+00 0. -1.
        -13    1    4    4    0    0  0.57966503358E+00 -0.16604060253E+01  0.47909311860E+00  0.18258296668E+01  0.10566000000E+00 0.  1.
         14    1    4    4    0    0  0.26966466179E+01 -0.16790941627E+02  0.41264913095E+01  0.17499587259E+02  0.00000000000E+00 0. -1.
<mgrwt>
<rscale>  0 0.88058983E+02</rscale>
<asrwt>0</asrwt>
<pdfrwt beam="1">  1        2 0.36473544E-02 0.88058983E+02</pdfrwt>
<pdfrwt beam="2">  1       -1 0.12580059E-01 0.88058983E+02</pdfrwt>
<totfact> 0.97547301E+04</totfact>
</mgrwt>
</event>
<event>
 8    1  0.2561077E-016  0.7915294E+02  0.7818608E-02  0.1331473E+00
          2   -1    0    0  501    0  0.00000000000E+00  0.00000000000E+00  0.62376407594E+03  0.62376407595E+03  0.25500000000E-02 0. -1.
         -1   -1    0    0    0  501 -0.00000000000E+00 -0.00000000000E+00 -0.25110379431E+01  0.25110430011E+01  0.50400000000E-02 0.  1.
         24    2    1    2    0    0 -0.17763568394E-14  0.00000000000E+00  0.62125303800E+03  0.62627511895E+03  0.79152936716E+02 0.  0.
         66    2    3    3    0    0 -0.12074159982E+02  0.20809828052E+02  0.55920455810E+03  0.55972544348E+03  0.19999997216E+01 0.  0.
        -13    1    3    3    0    0  0.12074159982E+02 -0.20809828052E+02  0.62048479903E+02  0.66549675470E+02  0.10566000000E+00 0.  1.
         13    1    4    4    0    0 -0.31481687123E+01  0.67276317757E+01  0.17971907061E+03  0.17987253126E+03  0.10566000000E+00 0. -1.
        -13    1    4    4    0    0 -0.15332582158E+01  0.18444738515E+01  0.57928740062E+02  0.57978470605E+02  0.10566000000E+00 0.  1.
         14    1    4    4    0    0 -0.73927330543E+01  0.12237722425E+02  0.32155674742E+03  0.32187444162E+03  0.00000000000E+00 0. -1.
<mgrwt>
<rscale>  0 0.79152937E+02</rscale>
<asrwt>0</asrwt>
<pdfrwt beam="1">  1        2 0.95963874E-01 0.79152937E+02</pdfrwt>
<pdfrwt beam="2">  1       -1 0.38631323E-03 0.79152937E+02</pdfrwt>
<totfact> 0.33418391E+05</totfact>
</mgrwt>
</event>
<event>
 8    1  0.2561077E-016  0.7990958E+02  0.7818608E-02  0.1329308E+00
         -1   -1    0    0    0  501 -0.00000000000E+00  0.00000000000E+00  0.25841421307E+02  0.25841421798E+02  0.50400000000E-02 0.  1.
          2   -1    0    0  501    0  0.00000000000E+00 -0.00000000000E+00 -0.61776214416E+02  0.61776214469E+02  0.25500000000E-02 0. -1.
         24    2    1    2    0    0  0.17763568394E-14  0.71054273576E-14 -0.35934793110E+02  0.87617636267E+02  0.79909579083E+02 0.  0.
         66    2    3    3    0    0  0.84128912002E+01  0.35121729422E+02 -0.36652833951E+02  0.51495075967E+02  0.19999990714E+01 0.  0.
        -13    1    3    3    0    0 -0.84128912002E+01 -0.35121729422E+02  0.71804084171E+00  0.36122560300E+02  0.10566000000E+00 0.  1.
         13    1    4    4    0    0  0.40567183308E+01  0.14829228774E+02 -0.15070639407E+02  0.21529011260E+02  0.10566000000E+00 0. -1.
        -13    1    4    4    0    0  0.25117794044E+01  0.91736430388E+01 -0.10240464265E+02  0.13976517262E+02  0.10566000000E+00 0.  1.
        -14    1    4    4    0    0  0.18443934650E+01  0.11118857609E+02 -0.11341730280E+02  0.15989547446E+02  0.00000000000E+00 0.  1.
<mgrwt>
<rscale>  0 0.79909579E+02</rscale>
<asrwt>0</asrwt>
<pdfrwt beam="1">  1        2 0.95040329E-02 0.79909579E+02</pdfrwt>
<pdfrwt beam="2">  1       -1 0.39756034E-02 0.79909579E+02</pdfrwt>
<totfact> 0.15720212E+05</totfact>
</mgrwt>
</event>
<event>
 8    1  0.2561077E-016  0.7910032E+02  0.7818608E-02  0.1331624E+00
         -1   -1    0    0    0  501 -0.00000000000E+00  0.00000000000E+00  0.19625152411E+01  0.19625217128E+01  0.50400000000E-02 0.  1.
          2   -1    0    0  501    0  0.00000000000E+00 -0.00000000000E+00 -0.79704473759E+03  0.79704473759E+03  0.25500000000E-02 0. -1.
         24    2    1    2    0    0  0.71054273576E-14  0.00000000000E+00 -0.79508222235E+03  0.79900725930E+03  0.79100316875E+02 0.  0.
         66    2    3    3    0    0  0.25819670299E+02 -0.16817085294E+02 -0.64783527209E+03  0.64857074360E+03  0.19999908703E+01 0.  0.
        -13    1    3    3    0    0 -0.25819670299E+02  0.16817085294E+02 -0.14724695026E+03  0.15043651570E+03  0.10566000000E+00 0.  1.
         13    1    4    4    0    0  0.35584897286E+01 -0.22329665230E+01 -0.84499548976E+02  0.84603982943E+02  0.10566000000E+00 0. -1.
        -13    1    4    4    0    0  0.32204623793E+00 -0.30012086839E+00 -0.14425897483E+02  0.14432999291E+02  0.10566000000E+00 0.  1.
        -14    1    4    4    0    0  0.21939134332E+02 -0.14283997902E+02 -0.54890982563E+03  0.54953376137E+03  0.00000000000E+00 0.  1.
<mgrwt>
<rscale>  0 0.79100317E+02</rscale>
<asrwt>0</asrwt>
<pdfrwt beam="1">  1        2 0.12262201E+00 0.79100317E+02</pdfrwt>
<pdfrwt beam="2">  1       -1 0.30192656E-03 0.79100317E+02</pdfrwt>
<totfact> 0.35366965E+05</totfact>
</mgrwt>
</event>
<event>
 8    1  0.2561077E-016  0.7998686E+02  0.7818608E-02  0.1329089E+00
          2   -1    0    0  501    0  0.00000000000E+00  0.00000000000E+00  0.15974708177E+02  0.15974708381E+02  0.25500000000E-02 0. -1.
         -1   -1    0    0    0  501 -0.00000000000E+00 -0.00000000000E+00 -0.10012541292E+03  0.10012541305E+03  0.50400000000E-02 0.  1.
         24    2    1    2    0    0  0.00000000000E+00 -0.35527136788E-14 -0.84150704747E+02  0.11610012143E+03  0.79986855714E+02 0.  0.
         66    2    3    3    0    0 -0.28192293023E+02 -0.27430282253E+02 -0.31813034783E+02  0.50628993202E+02  0.20000000514E+01 0.  0.
        -13    1    3    3    0    0  0.28192293023E+02  0.27430282253E+02 -0.52337669964E+02  0.65471128230E+02  0.10566000000E+00 0.  1.
         13    1    4    4    0    0 -0.17469023138E+02 -0.16246418247E+02 -0.18596852964E+02  0.30248421106E+02  0.10566000000E+00 0. -1.
        -13    1    4    4    0    0 -0.37019031838E+01 -0.35611646519E+01 -0.47776982837E+01  0.70159493860E+01  0.10566000000E+00 0.  1.
         14    1    4    4    0    0 -0.70213667011E+01 -0.76226993546E+01 -0.84384835351E+01  0.13364622710E+02  0.00000000000E+00 0. -1.
<mgrwt>
<rscale>  0 0.79986856E+02</rscale>
<asrwt>0</asrwt>
<pdfrwt beam="1">  1        2 0.24576475E-02 0.79986856E+02</pdfrwt>
<pdfrwt beam="2">  1       -1 0.15403909E-01 0.79986856E+02</pdfrwt>
<totfact> 0.11854671E+05</totfact>
</mgrwt>
</event>
<event>
 8    1  0.2561077E-016  0.8049362E+02  0.7818608E-02  0.1327656E+00
         -1   -1    0    0    0  501 -0.00000000000E+00  0.00000000000E+00  0.43619012930E+03  0.43619012933E+03  0.50400000000E-02 0.  1.
          2   -1    0    0  501    0  0.00000000000E+00 -0.00000000000E+00 -0.37135310111E+01  0.37135318867E+01  0.25500000000E-02 0. -1.
         24    2    1    2    0    0  0.00000000000E+00  0.35527136788E-14  0.43247659829E+03  0.43990366121E+03  0.80493621384E+02 0.  0.
         66    2    3    3    0    0 -0.32410599646E+02 -0.22590112928E+02  0.25764653665E+03  0.26066549065E+03  0.19999989663E+01 0.  0.
        -13    1    3    3    0    0  0.32410599646E+02  0.22590112928E+02  0.17483006163E+03  0.17923817056E+03  0.10566000000E+00 0.  1.
         13    1    4    4    0    0 -0.13657109447E+02 -0.94368337075E+01  0.11183726983E+03  0.11306262228E+03  0.10566000000E+00 0. -1.
        -13    1    4    4    0    0 -0.17462806134E+02 -0.12439732141E+02  0.13459596813E+03  0.13629300178E+03  0.10566000000E+00 0.  1.
        -14    1    4    4    0    0 -0.12906840653E+01 -0.71354707917E+00  0.11213298696E+02  0.11309866596E+02  0.00000000000E+00 0.  1.
<mgrwt>
<rscale>  0 0.80493621E+02</rscale>
<asrwt>0</asrwt>
<pdfrwt beam="1">  1        2 0.57131248E-03 0.80493621E+02</pdfrwt>
<pdfrwt beam="2">  1       -1 0.67106180E-01 0.80493621E+02</pdfrwt>
<totfact> 0.71236586E+04</totfact>
</mgrwt>
</event>
<event>
 8    1  0.2561077E-016  0.8020300E+02  0.7818608E-02  0.1328476E+00
          2   -1    0    0  501    0  0.00000000000E+00  0.00000000000E+00  0.19340747719E+02  0.19340747887E+02  0.25500000000E-02 0. -1.
         -1   -1    0    0    0  501 -0.00000000000E+00 -0.00000000000E+00 -0.83147271054E+02  0.83147271206E+02  0.50400000000E-02 0.  1.
         24    2    1    2    0    0  0.35527136788E-14  0.00000000000E+00 -0.63806523335E+02  0.10248801909E+03  0.80203002672E+02 0.  0.
         66    2    3    3    0    0 -0.30654918711E+02 -0.12613110075E+02 -0.31411389681E+01  0.33356878416E+02  0.19999991885E+01 0.  0.
        -13    1    3    3    0    0  0.30654918711E+02  0.12613110075E+02 -0.60665384366E+02  0.69131140677E+02  0.10566000000E+00 0.  1.
         13    1    4    4    0    0 -0.84808948681E+01 -0.30159614003E+01 -0.10915731131E+01  0.90677614012E+01  0.10566000000E+00 0. -1.
        -13    1    4    4    0    0 -0.18682278048E+02 -0.75172389900E+01 -0.17112610749E+01  0.20210788545E+02  0.10566000000E+00 0.  1.
        -14    1    4    4    0    0 -0.34917457944E+01 -0.20799096844E+01 -0.33830478004E+00  0.40783284704E+01  0.00000000000E+00 0.  1.
<mgrwt>
<rscale>  0 0.80203003E+02</rscale>
<asrwt>0</asrwt>
<pdfrwt beam="1">  1        2 0.29754997E-02 0.80203003E+02</pdfrwt>
<pdfrwt beam="2">  1       -1 0.12791888E-01 0.80203003E+02</pdfrwt>
<totfact> 0.12241880E+05</totfact>
</mgrwt>
</event>
<event>
 8    1  0.2561077E-016  0.7866829E+02  0.7818608E-02  0.1332874E+00
         -1   -1    0    0    0  501 -0.00000000000E+00  0.00000000000E+00  0.74263572836E+01  0.74263589938E+01  0.50400000000E-02 0.  1.
          2   -1    0    0  501    0  0.00000000000E+00 -0.00000000000E+00 -0.20833560104E+03  0.20833560106E+03  0.25500000000E-02 0. -1.
         24    2    1    2    0    0  0.00000000000E+00  0.00000000000E+00 -0.20090924376E+03  0.21576196005E+03  0.78668285717E+02 0.  0.
         66    2    3    3    0    0  0.34573317043E+02 -0.46379507049E+01 -0.15021753967E+03  0.15422753988E+03  0.19999989203E+01 0.  0.
        -13    1    3    3    0    0 -0.34573317043E+02  0.46379507049E+01 -0.50691704092E+02  0.61534420172E+02  0.10566000000E+00 0.  1.
         13    1    4    4    0    0  0.12811638024E+02 -0.15123946423E+01 -0.54712406208E+02  0.56212845182E+02  0.10566000000E+00 0. -1.
        -13    1    4    4    0    0  0.11754201599E+02 -0.15376830134E+01 -0.54764203811E+02  0.56032623599E+02  0.10566000000E+00 0.  1.
         14    1    4    4    0    0  0.10007477421E+02 -0.15878730492E+01 -0.40740929649E+02  0.41982071100E+02  0.00000000000E+00 0. -1.
<mgrwt>
<rscale>  0 0.78668286E+02</rscale>
<asrwt>0</asrwt>
<pdfrwt beam="1">  1        2 0.32051627E-01 0.78668286E+02</pdfrwt>
<pdfrwt beam="2">  1       -1 0.11425168E-02 0.78668286E+02</pdfrwt>
<totfact> 0.23386492E+05</totfact>
</mgrwt>
</event>
<event>
 8    1  0.2561077E-016  0.8058227E+02  0.7818608E-02  0.1327407E+00
          2   -1    0    0  501    0  0.00000000000E+00  0.00000000000E+00  0.26468850811E+03  0.26468850812E+03  0.25500000000E-02 0. -1.
         -1   -1    0    0    0  501 -0.00000000000E+00 -0.00000000000E+00 -0.61331537099E+01  0.61331557808E+01  0.50400000000E-02 0.  1.
         24    2    1    2    0    0 -0.35527136788E-14 -0.35527136788E-14  0.25855535440E+03  0.27082166390E+03  0.80582270694E+02 0.  0.
         66    2    3    3    0    0 -0.28279693082E+02  0.22118784578E+02  0.19062981386E+03  0.19399151426E+03  0.20000004451E+01 0.  0.
        -13    1    3    3    0    0  0.28279693082E+02 -0.22118784578E+02  0.67925540540E+02  0.76830149640E+02  0.10566000000E+00 0.  1.
         13    1    4    4    0    0 -0.14774800343E+02  0.11922701239E+02  0.10400666896E+03  0.10572532280E+03  0.10566000000E+00 0. -1.
        -13    1    4    4    0    0 -0.75377905620E+01  0.54799041443E+01  0.45262516691E+02  0.46212057055E+02  0.10566000000E+00 0.  1.
        -14    1    4    4    0    0 -0.59671021770E+01  0.47161791942E+01  0.41360628207E+02  0.42054134402E+02  0.00000000000E+00 0.  1.
<mgrwt>
<rscale>  0 0.80582271E+02</rscale>
<asrwt>0</asrwt>
<pdfrwt beam="1">  1        2 0.40721308E-01 0.80582271E+02</pdfrwt>
<pdfrwt beam="2">  1       -1 0.94356230E-03 0.80582271E+02</pdfrwt>
<totfact> 0.23904265E+05</totfact>
</mgrwt>
</event>
<event>
 8    1  0.2561077E-016  0.7388618E+02  0.7818608E-02  0.1347355E+00
          2   -1    0    0  501    0  0.00000000000E+00  0.00000000000E+00  0.16995855672E+03  0.16995855674E+03  0.25500000000E-02 0. -1.
         -1   -1    0    0    0  501 -0.00000000000E+00 -0.00000000000E+00 -0.80301441253E+01  0.80301457069E+01  0.50400000000E-02 0.  1.
         24    2    1    2    0    0 -0.35527136788E-14  0.71054273576E-14  0.16192841260E+03  0.17798870245E+03  0.73886178633E+02 0.  0.
         66    2    3    3    0    0 -0.15196385857E+02  0.29368470824E+02  0.12055889096E+03  0.12502753076E+03  0.20000093979E+01 0.  0.
        -13    1    3    3    0    0  0.15196385857E+02 -0.29368470824E+02  0.41369521634E+02  0.52961171682E+02  0.10566000000E+00 0.  1.
         13    1    4    4    0    0 -0.46258900772E+00  0.11150815596E+01  0.43140460692E+01  0.44810214235E+01  0.10566000000E+00 0.  1.
        -13    1    4    4    0    0 -0.17097143983E+01  0.46775683996E+01  0.18130833890E+02  0.18802687867E+02  0.10566000000E+00 0.  1.
         14    1    4    4    0    0 -0.13024082451E+02  0.23575820865E+02  0.98114011002E+02  0.10174382147E+03  0.00000000000E+00 0. -1.
<mgrwt>
<rscale>  0 0.73886179E+02</rscale>
<asrwt>0</asrwt>
<pdfrwt beam="1">  1        2 0.26147468E-01 0.73886179E+02</pdfrwt>
<pdfrwt beam="2">  1       -1 0.12354070E-02 0.73886179E+02</pdfrwt>
<totfact> 0.25729282E+05</totfact>
</mgrwt>
</event>
<event>
 8    1  0.2561077E-016  0.8039839E+02  0.7818608E-02  0.1327925E+00
         -1   -1    0    0    0  501 -0.00000000000E+00  0.00000000000E+00  0.39270785247E+01  0.39270817589E+01  0.50400000000E-02 0.  1.
          2   -1    0    0  501    0  0.00000000000E+00 -0.00000000000E+00 -0.41149533728E+03  0.41149533729E+03  0.25500000000E-02 0. -1.
         24    2    1    2    0    0  0.00000000000E+00 -0.35527136788E-14 -0.40756825876E+03  0.41542241905E+03  0.80398387434E+02 0.  0.
         66    2    3    3    0    0 -0.31533278290E+02 -0.24858875578E+02 -0.21056491958E+03  0.21436860002E+03  0.19999955993E+01 0.  0.
        -13    1    3    3    0    0  0.31533278290E+02  0.24858875578E+02 -0.19700333918E+03  0.20105381903E+03  0.10566000000E+00 0.  1.
         13    1    4    4    0    0 -0.13095843009E+02 -0.11322086234E+02 -0.89202097055E+02  0.90866473597E+02  0.10566000000E+00 0.  1.
        -13    1    4    4    0    0 -0.91539800035E+01 -0.71885982166E+01 -0.62417769611E+02  0.63493782542E+02  0.10566000000E+00 0. -1.
         14    1    4    4    0    0 -0.92834552779E+01 -0.63481911279E+01 -0.58945052914E+02  0.60008343882E+02  0.00000000000E+00 0. -1.
<mgrwt>
<rscale>  0 0.80398387E+02</rscale>
<asrwt>0</asrwt>
<pdfrwt beam="1">  1        2 0.63306941E-01 0.80398387E+02</pdfrwt>
<pdfrwt beam="2">  1       -1 0.60416650E-03 0.80398387E+02</pdfrwt>
<totfact> 0.28165830E+05</totfact>
</mgrwt>
</event>
<event>
 8    1  0.2561077E-016  0.8009657E+02  0.7818608E-02  0.1328778E+00
         -1   -1    0    0    0  501 -0.00000000000E+00  0.00000000000E+00  0.68008270665E+01  0.68008289340E+01  0.50400000000E-02 0.  1.
          2   -1    0    0  501    0  0.00000000000E+00 -0.00000000000E+00 -0.23583377354E+03  0.23583377356E+03  0.25500000000E-02 0. -1.
         24    2    1    2    0    0  0.00000000000E+00  0.00000000000E+00 -0.22903294648E+03  0.24263460249E+03  0.80096565183E+02 0.  0.
         66    2    3    3    0    0 -0.24764619617E+02 -0.12002166899E+02 -0.20262041439E+03  0.20449051500E+03  0.20000006942E+01 0.  0.
        -13    1    3    3    0    0  0.24764619617E+02  0.12002166899E+02 -0.26412532082E+02  0.38144087485E+02  0.10566000000E+00 0.  1.
         13    1    4    4    0    0 -0.29121212139E+01 -0.15436740930E+01 -0.22022746671E+02  0.22268271478E+02  0.10566000000E+00 0. -1.
        -13    1    4    4    0    0 -0.12993769195E+02 -0.66942485695E+01 -0.11366825559E+03  0.11460425164E+03  0.10566000000E+00 0.  1.
         14    1    4    4    0    0 -0.88587292084E+01 -0.37642442362E+01 -0.66929412134E+02  0.67617991884E+02  0.00000000000E+00 0. -1.
<mgrwt>
<rscale>  0 0.80096565E+02</rscale>
<asrwt>0</asrwt>
<pdfrwt beam="1">  1        2 0.36282113E-01 0.80096565E+02</pdfrwt>
<pdfrwt beam="2">  1       -1 0.10462814E-02 0.80096565E+02</pdfrwt>
<totfact> 0.23302098E+05</totfact>
</mgrwt>
</event>
<event>
 8    1  0.2561077E-016  0.8043058E+02  0.7818608E-02  0.1327834E+00
         -1   -1    0    0    0  501 -0.00000000000E+00  0.00000000000E+00  0.13083298803E+01  0.13083395879E+01  0.50400000000E-02 0.  1.
          2   -1    0    0  501    0  0.00000000000E+00 -0.00000000000E+00 -0.12361281696E+04  0.12361281696E+04  0.25500000000E-02 0. -1.
         24    2    1    2    0    0  0.00000000000E+00  0.00000000000E+00 -0.12348198397E+04  0.12374365092E+04  0.80430576971E+02 0.  0.
         66    2    3    3    0    0  0.10025662186E+02 -0.24949119200E+02 -0.10773643949E+04  0.10777017268E+04  0.20000020112E+01 0.  0.
        -13    1    3    3    0    0 -0.10025662186E+02  0.24949119200E+02 -0.15745544477E+03  0.15973478239E+03  0.10566000000E+00 0.  1.
         13    1    4    4    0    0  0.53232359611E+01 -0.12984211714E+02 -0.54550803469E+03  0.54568851342E+03  0.10566000000E+00 0. -1.
        -13    1    4    4    0    0  0.30816776430E+01 -0.64949606008E+01 -0.28063847686E+03  0.28073055963E+03  0.10566000000E+00 0.  1.
        -14    1    4    4    0    0  0.16207485815E+01 -0.54699468851E+01 -0.25121788336E+03  0.25128265372E+03  0.00000000000E+00 0.  1.
<mgrwt>
<rscale>  0 0.80430577E+02</rscale>
<asrwt>0</asrwt>
<pdfrwt beam="1">  1        2 0.19017263E+00 0.80430577E+02</pdfrwt>
<pdfrwt beam="2">  1       -1 0.20128326E-03 0.80430577E+02</pdfrwt>
<totfact> 0.34425155E+05</totfact>
</mgrwt>
</event>
<event>
 8    1  0.2561077E-016  0.8012784E+02  0.7818608E-02  0.1328689E+00
          2   -1    0    0  501    0  0.00000000000E+00  0.00000000000E+00  0.15413062348E+02  0.15413062559E+02  0.25500000000E-02 0. -1.
         -1   -1    0    0    0  501 -0.00000000000E+00 -0.00000000000E+00 -0.10414009880E+03  0.10414009893E+03  0.50400000000E-02 0.  1.
         24    2    1    2    0    0 -0.35527136788E-14 -0.17763568394E-14 -0.88727036456E+02  0.11955316148E+03  0.80127844241E+02 0.  0.
         66    2    3    3    0    0  0.24200941294E+02  0.99334823438E+01  0.83376172238E+00  0.26249853047E+02  0.19999988502E+01 0.  0.
        -13    1    3    3    0    0 -0.24200941294E+02 -0.99334823438E+01 -0.89560798179E+02  0.93303308438E+02  0.10566000000E+00 0.  1.
         13    1    4    4    0    0  0.39632914347E+01  0.16128057057E+01 -0.14142204505E+00  0.42825209248E+01  0.10566000000E+00 0. -1.
        -13    1    4    4    0    0  0.57509942381E+01  0.20632257594E+01 -0.42138715451E+00  0.61253217410E+01  0.10566000000E+00 0.  1.
         14    1    4    4    0    0  0.14486655621E+02  0.62574508787E+01  0.13965709219E+01  0.15842010381E+02  0.00000000000E+00 0. -1.
<mgrwt>
<rscale>  0 0.80127844E+02</rscale>
<asrwt>0</asrwt>
<pdfrwt beam="1">  1        2 0.23712404E-02 0.80127844E+02</pdfrwt>
<pdfrwt beam="2">  1       -1 0.16021553E-01 0.80127844E+02</pdfrwt>
<totfact> 0.11702995E+05</totfact>
</mgrwt>
</event>
<event>
 8    1  0.2561077E-016  0.7987684E+02  0.7818608E-02  0.1329401E+00
          2   -1    0    0  501    0  0.00000000000E+00  0.00000000000E+00  0.10349548317E+02  0.10349548631E+02  0.25500000000E-02 0. -1.
         -1   -1    0    0    0  501 -0.00000000000E+00 -0.00000000000E+00 -0.15412048768E+03  0.15412048776E+03  0.50400000000E-02 0.  1.
         24    2    1    2    0    0  0.00000000000E+00  0.00000000000E+00 -0.14377093936E+03  0.16447003639E+03  0.79876841863E+02 0.  0.
         66    2    3    3    0    0 -0.34681397293E+02 -0.10169807086E+02 -0.37057196790E+02  0.51802124758E+02  0.20000002998E+01 0.  0.
        -13    1    3    3    0    0  0.34681397293E+02  0.10169807086E+02 -0.10671374257E+03  0.11266791163E+03  0.10566000000E+00 0.  1.
         13    1    4    4    0    0 -0.23525356998E+02 -0.64614877291E+01 -0.24982131068E+02  0.34918638036E+02  0.10566000000E+00 0. -1.
        -13    1    4    4    0    0 -0.93668407178E+01 -0.28724159169E+01 -0.10461584914E+02  0.14333331824E+02  0.10566000000E+00 0.  1.
        -14    1    4    4    0    0 -0.17891995772E+01 -0.83590343970E+00 -0.16134808084E+01  0.25501548985E+01  0.00000000000E+00 0.  1.
<mgrwt>
<rscale>  0 0.79876842E+02</rscale>
<asrwt>0</asrwt>
<pdfrwt beam="1">  1        2 0.15922383E-02 0.79876842E+02</pdfrwt>
<pdfrwt beam="2">  1       -1 0.23710843E-01 0.79876842E+02</pdfrwt>
<totfact> 0.10754293E+05</totfact>
</mgrwt>
</event>
<event>
 8    1  0.2561077E-016  0.7877865E+02  0.7818608E-02  0.1332554E+00
          2   -1    0    0  501    0  0.00000000000E+00  0.00000000000E+00  0.74180034224E+01  0.74180038607E+01  0.25500000000E-02 0. -1.
         -1   -1    0    0    0  501 -0.00000000000E+00 -0.00000000000E+00 -0.20915586964E+03  0.20915586970E+03  0.50400000000E-02 0.  1.
         24    2    1    2    0    0  0.71054273576E-14 -0.22204460493E-15 -0.20173786621E+03  0.21657387356E+03  0.78778652205E+02 0.  0.
         66    2    3    3    0    0  0.39004452804E+02 -0.17803139377E+01 -0.11467871978E+03  0.12115991757E+03  0.19999994546E+01 0.  0.
        -13    1    3    3    0    0 -0.39004452804E+02  0.17803139377E+01 -0.87059146435E+02  0.95413955993E+02  0.10566000000E+00 0.  1.
         13    1    4    4    0    0  0.12177603234E+02 -0.13160925606E+01 -0.36602301803E+02  0.38597484134E+02  0.10566000000E+00 0. -1.
        -13    1    4    4    0    0  0.94702669001E+01 -0.22917916816E+00 -0.26363079785E+02  0.28013597021E+02  0.10566000000E+00 0.  1.
        -14    1    4    4    0    0  0.17356582670E+02 -0.23504220891E+00 -0.51713338191E+02  0.54548836410E+02  0.00000000000E+00 0.  1.
<mgrwt>
<rscale>  0 0.78778652E+02</rscale>
<asrwt>0</asrwt>
<pdfrwt beam="1">  1        2 0.11412315E-02 0.78778652E+02</pdfrwt>
<pdfrwt beam="2">  1       -1 0.32177822E-01 0.78778652E+02</pdfrwt>
<totfact> 0.10217050E+05</totfact>
</mgrwt>
</event>
<event>
 8    1  0.2561077E-016  0.7750073E+02  0.7818608E-02  0.1336297E+00
         -1   -1    0    0    0  501 -0.00000000000E+00  0.00000000000E+00  0.64435534305E+01  0.64435554016E+01  0.50400000000E-02 0.  1.
          2   -1    0    0  501    0  0.00000000000E+00 -0.00000000000E+00 -0.23303767755E+03  0.23303767756E+03  0.25500000000E-02 0. -1.
         24    2    1    2    0    0  0.00000000000E+00  0.00000000000E+00 -0.22659412412E+03  0.23948123297E+03  0.77500734559E+02 0.  0.
         66    2    3    3    0    0 -0.73497409325E+01  0.32050009277E+02 -0.17657606834E+03  0.17962274272E+03  0.20000014256E+01 0.  0.
        -13    1    3    3    0    0  0.73497409325E+01 -0.32050009277E+02 -0.50018055781E+02  0.59858490246E+02  0.10566000000E+00 0.  1.
         13    1    4    4    0    0 -0.54002127618E+01  0.23752020936E+02 -0.12853700683E+03  0.13082466925E+03  0.10566000000E+00 0. -1.
        -13    1    4    4    0    0 -0.18475070879E+01  0.63104138984E+01 -0.36030499815E+02  0.36625710736E+02  0.10566000000E+00 0.  1.
        -14    1    4    4    0    0 -0.10202108287E+00  0.19875744421E+01 -0.12008561695E+02  0.12172362731E+02  0.00000000000E+00 0.  1.
<mgrwt>
<rscale>  0 0.77500735E+02</rscale>
<asrwt>0</asrwt>
<pdfrwt beam="1">  1        2 0.35851944E-01 0.77500735E+02</pdfrwt>
<pdfrwt beam="2">  1       -1 0.99131625E-03 0.77500735E+02</pdfrwt>
<totfact> 0.25301752E+05</totfact>
</mgrwt>
</event>
<event>
 8    1  0.2561077E-016  0.8029429E+02  0.7818608E-02  0.1328218E+00
         -1   -1    0    0    0  501 -0.00000000000E+00  0.00000000000E+00  0.19468872612E+02  0.19468873265E+02  0.50400000000E-02 0.  1.
          2   -1    0    0  501    0  0.00000000000E+00 -0.00000000000E+00 -0.82788209072E+02  0.82788209111E+02  0.25500000000E-02 0. -1.
         24    2    1    2    0    0  0.00000000000E+00  0.00000000000E+00 -0.63319336459E+02  0.10225708238E+03  0.80294287010E+02 0.  0.
         66    2    3    3    0    0 -0.24041472881E+02  0.13757663676E+02 -0.68645003217E+02  0.74049997831E+02  0.19999959713E+01 0.  0.
        -13    1    3    3    0    0  0.24041472881E+02 -0.13757663676E+02  0.53256667581E+01  0.28207084545E+02  0.10566000000E+00 0.  1.
         13    1    4    4    0    0 -0.14902896238E+02  0.90073276924E+01 -0.41686623959E+02  0.45177583485E+02  0.10566000000E+00 0. -1.
        -13    1    4    4    0    0 -0.38053518292E+01  0.15121720363E+01 -0.10411496535E+02  0.11188288115E+02  0.10566000000E+00 0.  1.
         14    1    4    4    0    0 -0.53332248133E+01  0.32381639472E+01 -0.16546882723E+02  0.17684126230E+02  0.00000000000E+00 0. -1.
<mgrwt>
<rscale>  0 0.80294287E+02</rscale>
<asrwt>0</asrwt>
<pdfrwt beam="1">  1        2 0.12736647E-01 0.80294287E+02</pdfrwt>
<pdfrwt beam="2">  1       -1 0.29952113E-02 0.80294287E+02</pdfrwt>
<totfact> 0.16678416E+05</totfact>
</mgrwt>
</event>
<event>
 8    1  0.2561077E-016  0.7968297E+02  0.7818608E-02  0.1329954E+00
         -1   -1    0    0    0  501 -0.00000000000E+00  0.00000000000E+00  0.10986756791E+01  0.10986872391E+01  0.50400000000E-02 0.  1.
          2   -1    0    0  501    0  0.00000000000E+00 -0.00000000000E+00 -0.14447718669E+04  0.14447718669E+04  0.25500000000E-02 0. -1.
         24    2    1    2    0    0  0.00000000000E+00  0.17763568394E-14 -0.14436731912E+04  0.14458705542E+04  0.79682973608E+02 0.  0.
         66    2    3    3    0    0  0.94881248943E+01  0.10680453637E+02 -0.13966610133E+04  0.13967355092E+04  0.19999998821E+01 0.  0.
        -13    1    3    3    0    0 -0.94881248943E+01 -0.10680453637E+02 -0.47012177911E+02  0.49135044926E+02  0.10566000000E+00 0.  1.
         13    1    4    4    0    0  0.33415557073E+01  0.24718141420E+01 -0.39742577188E+03  0.39744752003E+03  0.10566000000E+00 0. -1.
        -13    1    4    4    0    0  0.48940501969E+01  0.61951866084E+01 -0.76526518883E+03  0.76530592083E+03  0.10566000000E+00 0.  1.
        -14    1    4    4    0    0  0.12525189901E+01  0.20134528865E+01 -0.23397005262E+03  0.23398206837E+03  0.00000000000E+00 0.  1.
<mgrwt>
<rscale>  0 0.79682974E+02</rscale>
<asrwt>0</asrwt>
<pdfrwt beam="1">  1        2 0.22227108E+00 0.79682974E+02</pdfrwt>
<pdfrwt beam="2">  1       -1 0.16902907E-03 0.79682974E+02</pdfrwt>
<totfact> 0.34040346E+05</totfact>
</mgrwt>
</event>
<event>
 8    1  0.2561077E-016  0.7946163E+02  0.7818608E-02  0.1330586E+00
          2   -1    0    0  501    0  0.00000000000E+00  0.00000000000E+00  0.52750918661E+03  0.52750918661E+03  0.25500000000E-02 0. -1.
         -1   -1    0    0    0  501 -0.00000000000E+00 -0.00000000000E+00 -0.29924338877E+01  0.29924381320E+01  0.50400000000E-02 0.  1.
         24    2    1    2    0    0  0.00000000000E+00  0.00000000000E+00  0.52451675272E+03  0.53050162474E+03  0.79461625795E+02 0.  0.
         66    2    3    3    0    0 -0.35743653192E+02  0.13367036920E+02  0.33563310885E+03  0.33780152484E+03  0.20000014217E+01 0.  0.
        -13    1    3    3    0    0  0.35743653192E+02 -0.13367036920E+02  0.18888364386E+03  0.19270009990E+03  0.10566000000E+00 0.  1.
         13    1    4    4    0    0 -0.68982913813E+01  0.27814163883E+01  0.65048520896E+02  0.65472467007E+02  0.10566000000E+00 0. -1.
        -13    1    4    4    0    0 -0.15109461110E+02  0.47519309865E+01  0.14313834007E+03  0.14401205584E+03  0.10566000000E+00 0.  1.
        -14    1    4    4    0    0 -0.13735900701E+02  0.58336895452E+01  0.12744624788E+03  0.12831700200E+03  0.00000000000E+00 0.  1.
<mgrwt>
<rscale>  0 0.79461626E+02</rscale>
<asrwt>0</asrwt>
<pdfrwt beam="1">  1        2 0.81155361E-01 0.79461626E+02</pdfrwt>
<pdfrwt beam="2">  1       -1 0.46037419E-03 0.79461626E+02</pdfrwt>
<totfact> 0.31516411E+05</totfact>
</mgrwt>
</event>
<event>
 8    1  0.2561077E-016  0.8148643E+02  0.7818608E-02  0.1324885E+00
         -1   -1    0    0    0  501 -0.00000000000E+00  0.00000000000E+00  0.42778068260E+02  0.42778068557E+02  0.50400000000E-02 0.  1.
          2   -1    0    0  501    0  0.00000000000E+00 -0.00000000000E+00 -0.38805150836E+02  0.38805150920E+02  0.25500000000E-02 0. -1.
         24    2    1    2    0    0  0.00000000000E+00  0.11102230246E-15  0.39729174237E+01  0.81583219477E+02  0.81486426031E+02 0.  0.
         66    2    3    3    0    0  0.29634319678E+02 -0.89104689445E+00 -0.25956387744E+02  0.39455303089E+02  0.20000024610E+01 0.  0.
        -13    1    3    3    0    0 -0.29634319678E+02  0.89104689445E+00  0.29929305167E+02  0.42127916388E+02  0.10566000000E+00 0.  1.
         13    1    4    4    0    0  0.49371735068E+01 -0.28633355315E+00 -0.41109759184E+01  0.64318703483E+01  0.10566000000E+00 0. -1.
        -13    1    4    4    0    0  0.11670386265E+02  0.20555858759E+00 -0.11261221447E+02  0.16219323118E+02  0.10566000000E+00 0.  1.
        -14    1    4    4    0    0  0.13026759906E+02 -0.81027192889E+00 -0.10584190378E+02  0.16804109623E+02  0.00000000000E+00 0.  1.
<mgrwt>
<rscale>  0 0.81486426E+02</rscale>
<asrwt>0</asrwt>
<pdfrwt beam="1">  1        2 0.59700232E-02 0.81486426E+02</pdfrwt>
<pdfrwt beam="2">  1       -1 0.65812413E-02 0.81486426E+02</pdfrwt>
<totfact> 0.13461996E+05</totfact>
</mgrwt>
</event>
<event>
 8    1  0.2561077E-016  0.7965467E+02  0.7818608E-02  0.1330034E+00
          2   -1    0    0  501    0  0.00000000000E+00  0.00000000000E+00  0.33383687705E+03  0.33383687706E+03  0.25500000000E-02 0. -1.
         -1   -1    0    0    0  501 -0.00000000000E+00 -0.00000000000E+00 -0.47514711832E+01  0.47514738562E+01  0.50400000000E-02 0.  1.
         24    2    1    2    0    0  0.00000000000E+00  0.00000000000E+00  0.32908540587E+03  0.33858835091E+03  0.79654673569E+02 0.  0.
         66    2    3    3    0    0 -0.43907506374E+01 -0.30814900524E+02  0.27009228452E+03  0.27188725410E+03  0.20000005964E+01 0.  0.
        -13    1    3    3    0    0  0.43907506374E+01  0.30814900524E+02  0.58993121349E+02  0.66701096812E+02  0.10566000000E+00 0.  1.
         13    1    4    4    0    0 -0.13217385898E+01 -0.80354777563E+01  0.72565880897E+02  0.73021463489E+02  0.10566000000E+00 0. -1.
        -13    1    4    4    0    0 -0.16004754349E+01 -0.94516397155E+01  0.88644670049E+02  0.89161559582E+02  0.10566000000E+00 0.  1.
         14    1    4    4    0    0 -0.14685366126E+01 -0.13327783052E+02  0.10888173357E+03  0.10970423103E+03  0.00000000000E+00 0. -1.
<mgrwt>
<rscale>  0 0.79654674E+02</rscale>
<asrwt>0</asrwt>
<pdfrwt beam="1">  1        2 0.51359537E-01 0.79654674E+02</pdfrwt>
<pdfrwt beam="2">  1       -1 0.73099553E-03 0.79654674E+02</pdfrwt>
<totfact> 0.26798744E+05</totfact>
</mgrwt>
</event>
<event>
 8    1  0.2561077E-016  0.7999274E+02  0.7818608E-02  0.1329072E+00
         -1   -1    0    0    0  501 -0.00000000000E+00  0.00000000000E+00  0.18278315639E+01  0.18278385125E+01  0.50400000000E-02 0.  1.
          2   -1    0    0  501    0  0.00000000000E+00 -0.00000000000E+00 -0.87519373469E+03  0.87519373469E+03  0.25500000000E-02 0. -1.
         24    2    1    2    0    0  0.00000000000E+00  0.00000000000E+00 -0.87336590313E+03  0.87702157321E+03  0.79992744208E+02 0.  0.
         66    2    3    3    0    0 -0.48902710616E+01  0.99722403427E+01 -0.85793293909E+03  0.85800716100E+03  0.20000067721E+01 0.  0.
        -13    1    3    3    0    0  0.48902710616E+01 -0.99722403427E+01 -0.15432964039E+02  0.19014412207E+02  0.10566000000E+00 0.  1.
         13    1    4    4    0    0 -0.34540261678E+01  0.64888660700E+01 -0.52388919413E+03  0.52394077392E+03  0.10566000000E+00 0. -1.
        -13    1    4    4    0    0 -0.11137831549E+01  0.14659284415E+01 -0.16417895305E+03  0.16418930918E+03  0.10566000000E+00 0.  1.
         14    1    4    4    0    0 -0.32246173899E+00  0.20174458312E+01 -0.16986479190E+03  0.16987707790E+03  0.00000000000E+00 0. -1.
<mgrwt>
<rscale>  0 0.79992744E+02</rscale>
<asrwt>0</asrwt>
<pdfrwt beam="1">  1        2 0.13464486E+00 0.79992744E+02</pdfrwt>
<pdfrwt beam="2">  1       -1 0.28120609E-03 0.79992744E+02</pdfrwt>
<totfact> 0.34839613E+05</totfact>
</mgrwt>
</event>
<event>
 8    1  0.2561077E-016  0.7937843E+02  0.7818608E-02  0.1330825E+00
         -1   -1    0    0    0  501 -0.00000000000E+00  0.00000000000E+00  0.10823626805E+03  0.10823626817E+03  0.50400000000E-02 0.  1.
          2   -1    0    0  501    0  0.00000000000E+00 -0.00000000000E+00 -0.14553658314E+02  0.14553658537E+02  0.25500000000E-02 0. -1.
         24    2    1    2    0    0  0.00000000000E+00  0.00000000000E+00  0.93682609735E+02  0.12278992670E+03  0.79378427378E+02 0.  0.
         66    2    3    3    0    0 -0.18909569622E+02 -0.33827074434E+02  0.59940687760E+02  0.71405383788E+02  0.19999991804E+01 0.  0.
        -13    1    3    3    0    0  0.18909569622E+02  0.33827074434E+02  0.33741921975E+02  0.51384542916E+02  0.10566000000E+00 0.  1.
         13    1    4    4    0    0 -0.15825773055E+02 -0.29218704738E+02  0.51510009184E+02  0.61298287166E+02  0.10566000000E+00 0. -1.
        -13    1    4    4    0    0 -0.17556875624E+01 -0.29087915717E+01  0.55527260646E+01  0.65105635707E+01  0.10566000000E+00 0.  1.
         14    1    4    4    0    0 -0.13281090046E+01 -0.16995781246E+01  0.28779525108E+01  0.35965330506E+01  0.00000000000E+00 0. -1.
<mgrwt>
<rscale>  0 0.79378427E+02</rscale>
<asrwt>0</asrwt>
<pdfrwt beam="1">  1        2 0.22390244E-02 0.79378427E+02</pdfrwt>
<pdfrwt beam="2">  1       -1 0.16651733E-01 0.79378427E+02</pdfrwt>
<totfact> 0.11880558E+05</totfact>
</mgrwt>
</event>
<event>
 8    1  0.2561077E-016  0.7824220E+02  0.7818608E-02  0.1334115E+00
          2   -1    0    0  501    0  0.00000000000E+00  0.00000000000E+00  0.29131633573E+03  0.29131633574E+03  0.25500000000E-02 0. -1.
         -1   -1    0    0    0  501 -0.00000000000E+00 -0.00000000000E+00 -0.52536017062E+01  0.52536041238E+01  0.50400000000E-02 0.  1.
         24    2    1    2    0    0  0.00000000000E+00 -0.35527136788E-14  0.28606273403E+03  0.29656993987E+03  0.78242197275E+02 0.  0.
         66    2    3    3    0    0 -0.19340201711E+02 -0.24750815899E+02  0.23135313508E+03  0.23348430228E+03  0.20000015346E+01 0.  0.
        -13    1    3    3    0    0  0.19340201711E+02  0.24750815899E+02  0.54709598943E+02  0.63085637592E+02  0.10566000000E+00 0.  1.
         13    1    4    4    0    0 -0.14088904231E+01 -0.22497647308E+01  0.17878485704E+02  0.18074784333E+02  0.10566000000E+00 0. -1.
        -13    1    4    4    0    0 -0.46506790448E+01 -0.60852479713E+01  0.61419876631E+02  0.61895649830E+02  0.10566000000E+00 0.  1.
         14    1    4    4    0    0 -0.13280632243E+02 -0.16415803197E+02  0.15205477275E+03  0.15351386811E+03  0.00000000000E+00 0. -1.
<mgrwt>
<rscale>  0 0.78242197E+02</rscale>
<asrwt>0</asrwt>
<pdfrwt beam="1">  1        2 0.44817899E-01 0.78242197E+02</pdfrwt>
<pdfrwt beam="2">  1       -1 0.80824659E-03 0.78242197E+02</pdfrwt>
<totfact> 0.26736581E+05</totfact>
</mgrwt>
</event>
<event>
 8    1  0.2561077E-016  0.7817764E+02  0.7818608E-02  0.1334304E+00
          2   -1    0    0  501    0  0.00000000000E+00  0.00000000000E+00  0.31760901394E+03  0.31760901395E+03  0.25500000000E-02 0. -1.
         -1   -1    0    0    0  501 -0.00000000000E+00 -0.00000000000E+00 -0.48107433593E+01  0.48107459994E+01  0.50400000000E-02 0.  1.
         24    2    1    2    0    0  0.00000000000E+00  0.00000000000E+00  0.31279827058E+03  0.32241975995E+03  0.78177640842E+02 0.  0.
         66    2    3    3    0    0 -0.34347428360E+02  0.15741638734E+02  0.19740895717E+03  0.20100209303E+03  0.20000023864E+01 0.  0.
        -13    1    3    3    0    0  0.34347428360E+02 -0.15741638734E+02  0.11538931341E+03  0.12141766691E+03  0.10566000000E+00 0.  1.
         13    1    4    4    0    0 -0.12329374821E+02  0.52554382241E+01  0.73543458932E+02  0.74754830146E+02  0.10566000000E+00 0. -1.
        -13    1    4    4    0    0 -0.36333836685E+01  0.14162366094E+01  0.20835094400E+02  0.21197158434E+02  0.10566000000E+00 0. -1.
         14    1    4    4    0    0 -0.18384669871E+02  0.90699639001E+01  0.10303040383E+03  0.10505010445E+03  0.00000000000E+00 0. -1.
<mgrwt>
<rscale>  0 0.78177641E+02</rscale>
<asrwt>0</asrwt>
<pdfrwt beam="1">  1        2 0.48862931E-01 0.78177641E+02</pdfrwt>
<pdfrwt beam="2">  1       -1 0.74011449E-03 0.78177641E+02</pdfrwt>
<totfact> 0.27643304E+05</totfact>
</mgrwt>
</event>
<event>
 8    1  0.2561077E-016  0.8054547E+02  0.7818608E-02  0.1327511E+00
          2   -1    0    0  501    0  0.00000000000E+00  0.00000000000E+00  0.35559981985E+03  0.35559981986E+03  0.25500000000E-02 0. -1.
         -1   -1    0    0    0  501 -0.00000000000E+00 -0.00000000000E+00 -0.45610050065E+01  0.45610077912E+01  0.50400000000E-02 0.  1.
         24    2    1    2    0    0  0.00000000000E+00  0.00000000000E+00  0.35103881484E+03  0.36016082765E+03  0.80545466955E+02 0.  0.
         66    2    3    3    0    0 -0.26709706455E+02  0.30053269404E+02  0.18372642591E+03  0.18808510573E+03  0.19999994544E+01 0.  0.
        -13    1    3    3    0    0  0.26709706455E+02 -0.30053269404E+02  0.16731238894E+03  0.17207572193E+03  0.10566000000E+00 0.  1.
         13    1    4    4    0    0 -0.12607196939E+02  0.14539983582E+02  0.87215841972E+02  0.89313866740E+02  0.10566000000E+00 0. -1.
        -13    1    4    4    0    0 -0.11755858062E+02  0.13648570669E+02  0.82760865261E+02  0.84698616652E+02  0.10566000000E+00 0.  1.
         14    1    4    4    0    0 -0.23466514551E+01  0.18647151527E+01  0.13749718677E+02  0.14072622333E+02  0.00000000000E+00 0. -1.
<mgrwt>
<rscale>  0 0.80545467E+02</rscale>
<asrwt>0</asrwt>
<pdfrwt beam="1">  1        2 0.54707675E-01 0.80545467E+02</pdfrwt>
<pdfrwt beam="2">  1       -1 0.70169317E-03 0.80545467E+02</pdfrwt>
<totfact> 0.26624896E+05</totfact>
</mgrwt>
</event>
<event>
 8    1  0.2561077E-016  0.8028611E+02  0.7818608E-02  0.1328241E+00
         -1   -1    0    0    0  501 -0.00000000000E+00  0.00000000000E+00  0.28972764373E+01  0.28972808210E+01  0.50400000000E-02 0.  1.
          2   -1    0    0  501    0  0.00000000000E+00 -0.00000000000E+00 -0.55619952808E+03  0.55619952809E+03  0.25500000000E-02 0. -1.
         24    2    1    2    0    0  0.00000000000E+00  0.00000000000E+00 -0.55330225164E+03  0.55909680891E+03  0.80286113724E+02 0.  0.
         66    2    3    3    0    0  0.11149834080E+02  0.19799407669E+02 -0.50706267129E+03  0.50757549973E+03  0.19999914844E+01 0.  0.
        -13    1    3    3    0    0 -0.11149834080E+02 -0.19799407669E+02 -0.46239580349E+02  0.51521309173E+02  0.10566000000E+00 0.  1.
         13    1    4    4    0    0  0.24192382738E+01  0.40132222118E+01 -0.94997484719E+02  0.95113048175E+02  0.10566000000E+00 0. -1.
        -13    1    4    4    0    0  0.67053052394E+01  0.12934728537E+02 -0.32229053648E+03  0.32261969777E+03  0.10566000000E+00 0.  1.
        -14    1    4    4    0    0  0.20252905665E+01  0.28514569208E+01 -0.89774650093E+02  0.89842753786E+02  0.00000000000E+00 0.  1.
<mgrwt>
<rscale>  0 0.80286114E+02</rscale>
<asrwt>0</asrwt>
<pdfrwt beam="1">  1        2 0.85569073E-01 0.80286114E+02</pdfrwt>
<pdfrwt beam="2">  1       -1 0.44573562E-03 0.80286114E+02</pdfrwt>
<totfact> 0.31177151E+05</totfact>
</mgrwt>
</event>
<event>
 8    1  0.2561077E-016  0.8018828E+02  0.7818608E-02  0.1328518E+00
          2   -1    0    0  501    0  0.00000000000E+00  0.00000000000E+00  0.47653949208E+03  0.47653949209E+03  0.25500000000E-02 0. -1.
         -1   -1    0    0    0  501 -0.00000000000E+00 -0.00000000000E+00 -0.33733598009E+01  0.33733635660E+01  0.50400000000E-02 0.  1.
         24    2    1    2    0    0  0.00000000000E+00  0.00000000000E+00  0.47316613228E+03  0.47991285565E+03  0.80188280222E+02 0.  0.
         66    2    3    3    0    0 -0.33328955436E+02 -0.18759253127E+02  0.30824943107E+03  0.31061944660E+03  0.20000000839E+01 0.  0.
        -13    1    3    3    0    0  0.33328955436E+02  0.18759253127E+02  0.16491670121E+03  0.16929340906E+03  0.10566000000E+00 0.  1.
         13    1    4    4    0    0 -0.20834266695E+02 -0.10715717213E+02  0.19069480281E+03  0.19212863464E+03  0.10566000000E+00 0. -1.
        -13    1    4    4    0    0 -0.23685837874E+01 -0.16385520765E+01  0.23506469404E+02  0.23682489521E+02  0.10566000000E+00 0.  1.
         14    1    4    4    0    0 -0.10126104954E+02 -0.64049838376E+01  0.94048158856E+02  0.94808322439E+02  0.00000000000E+00 0. -1.
<mgrwt>
<rscale>  0 0.80188280E+02</rscale>
<asrwt>0</asrwt>
<pdfrwt beam="1">  1        2 0.73313773E-01 0.80188280E+02</pdfrwt>
<pdfrwt beam="2">  1       -1 0.51897869E-03 0.80188280E+02</pdfrwt>
<totfact> 0.29799261E+05</totfact>
</mgrwt>
</event>
<event>
 8    1  0.2561077E-016  0.7881238E+02  0.7818608E-02  0.1332456E+00
          2   -1    0    0  501    0  0.00000000000E+00  0.00000000000E+00  0.42408150177E+02  0.42408150254E+02  0.25500000000E-02 0. -1.
         -1   -1    0    0    0  501 -0.00000000000E+00 -0.00000000000E+00 -0.36616733229E+02  0.36616733575E+02  0.50400000000E-02 0.  1.
         24    2    1    2    0    0 -0.35527136788E-14  0.35527136788E-14  0.57914169484E+01  0.79024883829E+02  0.78812383252E+02 0.  0.
         66    2    3    3    0    0 -0.21692835749E+02  0.29247434500E+02  0.17933046378E+02  0.40639706000E+02  0.20000009297E+01 0.  0.
        -13    1    3    3    0    0  0.21692835749E+02 -0.29247434500E+02 -0.12141629430E+02  0.38385177829E+02  0.10566000000E+00 0.  1.
         13    1    4    4    0    0 -0.13797241087E+02  0.19698450510E+02  0.12499572433E+02  0.27104303885E+02  0.10566000000E+00 0. -1.
        -13    1    4    4    0    0 -0.19641325325E+01  0.21881925785E+01  0.12028636072E+01  0.31786865619E+01  0.10566000000E+00 0.  1.
        -14    1    4    4    0    0 -0.59314621297E+01  0.73607914124E+01  0.42306103382E+01  0.10356715553E+02  0.00000000000E+00 0.  1.
<mgrwt>
<rscale>  0 0.78812383E+02</rscale>
<asrwt>0</asrwt>
<pdfrwt beam="1">  1        2 0.65243308E-02 0.78812383E+02</pdfrwt>
<pdfrwt beam="2">  1       -1 0.56333436E-02 0.78812383E+02</pdfrwt>
<totfact> 0.15035419E+05</totfact>
</mgrwt>
</event>
<event>
 8    1  0.2561077E-016  0.7850313E+02  0.7818608E-02  0.1333354E+00
         -1   -1    0    0    0  501 -0.00000000000E+00  0.00000000000E+00  0.27009276487E+01  0.27009323510E+01  0.50400000000E-02 0.  1.
          2   -1    0    0  501    0  0.00000000000E+00 -0.00000000000E+00 -0.57042765995E+03  0.57042765995E+03  0.25500000000E-02 0. -1.
         24    2    1    2    0    0  0.35527136788E-14  0.35527136788E-14 -0.56772673230E+03  0.57312859231E+03  0.78503125734E+02 0.  0.
         66    2    3    3    0    0  0.20401707955E+02  0.28733638652E+02 -0.40982894000E+03  0.41134609741E+03  0.20000285809E+01 0.  0.
        -13    1    3    3    0    0 -0.20401707955E+02 -0.28733638652E+02 -0.15789779230E+03  0.16178249489E+03  0.10566000000E+00 0.  1.
         13    1    4    4    0    0  0.20254780818E+01  0.33018177428E+01 -0.45879269661E+02  0.46042622759E+02  0.10566000000E+00 0. -1.
        -13    1    4    4    0    0  0.11732596050E+02  0.15011791822E+02 -0.22522921805E+03  0.22603366902E+03  0.10566000000E+00 0.  1.
        -14    1    4    4    0    0  0.66436338237E+01  0.10420029087E+02 -0.13872045229E+03  0.13926980563E+03  0.00000000000E+00 0.  1.
<mgrwt>
<rscale>  0 0.78503126E+02</rscale>
<asrwt>0</asrwt>
<pdfrwt beam="1">  1        2 0.87758006E-01 0.78503126E+02</pdfrwt>
<pdfrwt beam="2">  1       -1 0.41552815E-03 0.78503126E+02</pdfrwt>
<totfact> 0.33299699E+05</totfact>
</mgrwt>
</event>
<event>
 8    1  0.2561077E-016  0.7806613E+02  0.7818608E-02  0.1334631E+00
          2   -1    0    0  501    0  0.00000000000E+00  0.00000000000E+00  0.13579516929E+03  0.13579516931E+03  0.25500000000E-02 0. -1.
         -1   -1    0    0    0  501 -0.00000000000E+00 -0.00000000000E+00 -0.11219691368E+02  0.11219692500E+02  0.50400000000E-02 0.  1.
         24    2    1    2    0    0  0.44408920985E-15 -0.35527136788E-14  0.12457547792E+03  0.14701486181E+03  0.78066125140E+02 0.  0.
         66    2    3    3    0    0 -0.27043630747E+01  0.22406669159E+02  0.12224306402E+03  0.12432513460E+03  0.19999972258E+01 0.  0.
        -13    1    3    3    0    0  0.27043630747E+01 -0.22406669159E+02  0.23324138992E+01  0.22689727214E+02  0.10566000000E+00 0.  1.
         13    1    4    4    0    0 -0.14094887873E+00  0.44405491087E+01  0.25312653897E+02  0.25699804558E+02  0.10566000000E+00 0. -1.
        -13    1    4    4    0    0 -0.42422702702E+00  0.56052524364E+01  0.27096116879E+02  0.27673263945E+02  0.10566000000E+00 0.  1.
        -14    1    4    4    0    0 -0.21391871689E+01  0.12360867614E+02  0.69834293244E+02  0.70952066093E+02  0.00000000000E+00 0.  1.
<mgrwt>
<rscale>  0 0.78066125E+02</rscale>
<asrwt>0</asrwt>
<pdfrwt beam="1">  1        2 0.20891566E-01 0.78066125E+02</pdfrwt>
<pdfrwt beam="2">  1       -1 0.17261064E-02 0.78066125E+02</pdfrwt>
<totfact> 0.20710379E+05</totfact>
</mgrwt>
</event>
<event>
 8    1  0.2561077E-016  0.7805301E+02  0.7818608E-02  0.1334669E+00
          2   -1    0    0  501    0  0.00000000000E+00  0.00000000000E+00  0.83221985602E+03  0.83221985603E+03  0.25500000000E-02 0. -1.
         -1   -1    0    0    0  501 -0.00000000000E+00 -0.00000000000E+00 -0.18301233881E+01  0.18301303280E+01  0.50400000000E-02 0.  1.
         24    2    1    2    0    0 -0.35527136788E-14 -0.13877787808E-16  0.83038973263E+03  0.83404998635E+03  0.78053005535E+02 0.  0.
         66    2    3    3    0    0  0.25140060019E+02 -0.82219693090E-01  0.73407827722E+03  0.73451136578E+03  0.19999988990E+01 0.  0.
        -13    1    3    3    0    0 -0.25140060019E+02  0.82219693090E-01  0.96311455418E+02  0.99538620579E+02  0.10566000000E+00 0.  1.
         13    1    4    4    0    0  0.76382548665E+01  0.49835488250E+00  0.22729222009E+03  0.22742109790E+03  0.10566000000E+00 0. -1.
        -13    1    4    4    0    0  0.17357692514E+01 -0.43190738795E+00  0.54945258681E+02  0.54974467296E+02  0.10566000000E+00 0.  1.
         14    1    4    4    0    0  0.15766035901E+02 -0.14866718763E+00  0.45184079845E+03  0.45211580058E+03  0.00000000000E+00 0. -1.
<mgrwt>
<rscale>  0 0.78053006E+02</rscale>
<asrwt>0</asrwt>
<pdfrwt beam="1">  1        2 0.12803368E+00 0.78053006E+02</pdfrwt>
<pdfrwt beam="2">  1       -1 0.28155829E-03 0.78053006E+02</pdfrwt>
<totfact> 0.36870005E+05</totfact>
</mgrwt>
</event>
<event>
 8    1  0.2561077E-016  0.7757609E+02  0.7818608E-02  0.1336074E+00
          2   -1    0    0  501    0  0.00000000000E+00  0.00000000000E+00  0.16533457793E+03  0.16533457795E+03  0.25500000000E-02 0. -1.
         -1   -1    0    0    0  501 -0.00000000000E+00 -0.00000000000E+00 -0.90998043117E+01  0.90998057074E+01  0.50400000000E-02 0.  1.
         24    2    1    2    0    0  0.17763568394E-14  0.00000000000E+00  0.15623477362E+03  0.17443438366E+03  0.77576089837E+02 0.  0.
         66    2    3    3    0    0 -0.98666954628E+01  0.36771801814E+02  0.61800889888E+02  0.72614510114E+02  0.20000000406E+01 0.  0.
        -13    1    3    3    0    0  0.98666954628E+01 -0.36771801814E+02  0.94433883735E+02  0.10181987355E+03  0.10566000000E+00 0.  1.
         13    1    4    4    0    0 -0.65680522819E+01  0.23782708916E+02  0.40528088010E+02  0.47447799064E+02  0.10566000000E+00 0. -1.
        -13    1    4    4    0    0 -0.76743194272E+00  0.16226351145E+01  0.26314247953E+01  0.31870765587E+01  0.10566000000E+00 0.  1.
         14    1    4    4    0    0 -0.25312112382E+01  0.11366457783E+02  0.18641377083E+02  0.21979634492E+02  0.00000000000E+00 0. -1.
<mgrwt>
<rscale>  0 0.77576090E+02</rscale>
<asrwt>0</asrwt>
<pdfrwt beam="1">  1        2 0.25436088E-01 0.77576090E+02</pdfrwt>
<pdfrwt beam="2">  1       -1 0.13999700E-02 0.77576090E+02</pdfrwt>
<totfact> 0.22429567E+05</totfact>
</mgrwt>
</event>
<event>
 8    1  0.2561077E-016  0.7920719E+02  0.7818608E-02  0.1331316E+00
          2   -1    0    0  501    0  0.00000000000E+00  0.00000000000E+00  0.86490052783E+02  0.86490052821E+02  0.25500000000E-02 0. -1.
         -1   -1    0    0    0  501 -0.00000000000E+00 -0.00000000000E+00 -0.18134394319E+02  0.18134395019E+02  0.50400000000E-02 0.  1.
         24    2    1    2    0    0 -0.35527136788E-14 -0.44408920985E-15  0.68355658464E+02  0.10462444784E+03  0.79207190594E+02 0.  0.
         66    2    3    3    0    0  0.21786388939E+02 -0.33555647928E+01  0.77619341226E+02  0.80713497620E+02  0.20000018954E+01 0.  0.
        -13    1    3    3    0    0 -0.21786388939E+02  0.33555647928E+01 -0.92636827621E+01  0.23910950220E+02  0.10566000000E+00 0.  1.
         13    1    4    4    0    0  0.92085422202E+00 -0.36467234503E+00  0.27185392770E+01  0.28952682524E+01  0.10566000000E+00 0. -1.
        -13    1    4    4    0    0  0.51256936409E+01 -0.12071798715E+01  0.18483698891E+02  0.19219477290E+02  0.10566000000E+00 0.  1.
         14    1    4    4    0    0  0.15739841076E+02 -0.17837125763E+01  0.56417103058E+02  0.58598752078E+02  0.00000000000E+00 0. -1.
<mgrwt>
<rscale>  0 0.79207191E+02</rscale>
<asrwt>0</asrwt>
<pdfrwt beam="1">  1        2 0.13306162E-01 0.79207191E+02</pdfrwt>
<pdfrwt beam="2">  1       -1 0.27899069E-02 0.79207191E+02</pdfrwt>
<totfact> 0.17501097E+05</totfact>
</mgrwt>
</event>
<event>
 8    1  0.2561077E-016  0.8118135E+02  0.7818608E-02  0.1325732E+00
         -1   -1    0    0    0  501 -0.00000000000E+00  0.00000000000E+00  0.13523575309E+01  0.13523669225E+01  0.50400000000E-02 0.  1.
          2   -1    0    0  501    0  0.00000000000E+00 -0.00000000000E+00 -0.12183148378E+04  0.12183148378E+04  0.25500000000E-02 0. -1.
         24    2    1    2    0    0  0.00000000000E+00  0.00000000000E+00 -0.12169624803E+04  0.12196672048E+04  0.81181351921E+02 0.  0.
         66    2    3    3    0    0  0.91954905419E+01  0.22555441253E+02 -0.10962134839E+04  0.10964858901E+04  0.20000005774E+01 0.  0.
        -13    1    3    3    0    0 -0.91954905419E+01 -0.22555441253E+02 -0.12074899641E+03  0.12318131463E+03  0.10566000000E+00 0.  1.
         13    1    4    4    0    0  0.23754711591E+01  0.53248727036E+01 -0.26907515550E+03  0.26913834287E+03  0.10566000000E+00 0. -1.
        -13    1    4    4    0    0  0.39894686866E+01  0.10926035556E+02 -0.48547038598E+03  0.48560972081E+03  0.10566000000E+00 0.  1.
        -14    1    4    4    0    0  0.28305506962E+01  0.63045329931E+01 -0.34166794243E+03  0.34173782646E+03  0.00000000000E+00 0.  1.
<mgrwt>
<rscale>  0 0.81181352E+02</rscale>
<asrwt>0</asrwt>
<pdfrwt beam="1">  1        2 0.18743217E+00 0.81181352E+02</pdfrwt>
<pdfrwt beam="2">  1       -1 0.20805670E-03 0.81181352E+02</pdfrwt>
<totfact> 0.33668533E+05</totfact>
</mgrwt>
</event>
<event>
 8    1  0.2561077E-016  0.7933118E+02  0.7818608E-02  0.1330960E+00
         -1   -1    0    0    0  501 -0.00000000000E+00  0.00000000000E+00  0.14992024856E+01  0.14992109573E+01  0.50400000000E-02 0.  1.
          2   -1    0    0  501    0  0.00000000000E+00 -0.00000000000E+00 -0.10494609239E+04  0.10494609239E+04  0.25500000000E-02 0. -1.
         24    2    1    2    0    0  0.00000000000E+00  0.00000000000E+00 -0.10479617214E+04  0.10509601348E+04  0.79331176191E+02 0.  0.
         66    2    3    3    0    0 -0.10623734090E+02  0.14500636535E+02 -0.99235862296E+03  0.99252343485E+03  0.19999955499E+01 0.  0.
        -13    1    3    3    0    0  0.10623734090E+02 -0.14500636535E+02 -0.55603098431E+02  0.58436699985E+02  0.10566000000E+00 0.  1.
         13    1    4    4    0    0 -0.29884890195E+01  0.34242065269E+01 -0.27395771285E+03  0.27399543035E+03  0.10566000000E+00 0. -1.
        -13    1    4    4    0    0 -0.73009186953E+01  0.10813479775E+02 -0.68374078299E+03  0.68386526761E+03  0.10566000000E+00 0.  1.
        -14    1    4    4    0    0 -0.33432637503E+00  0.26295023322E+00 -0.34660127116E+02  0.34662736889E+02  0.00000000000E+00 0.  1.
<mgrwt>
<rscale>  0 0.79331176E+02</rscale>
<asrwt>0</asrwt>
<pdfrwt beam="1">  1        2 0.16145494E+00 0.79331176E+02</pdfrwt>
<pdfrwt beam="2">  1       -1 0.23064803E-03 0.79331176E+02</pdfrwt>
<totfact> 0.36049426E+05</totfact>
</mgrwt>
</event>
<event>
 8    1  0.2561077E-016  0.7798768E+02  0.7818608E-02  0.1334861E+00
         -1   -1    0    0    0  501 -0.00000000000E+00  0.00000000000E+00  0.26266096273E+01  0.26266144627E+01  0.50400000000E-02 0.  1.
          2   -1    0    0  501    0  0.00000000000E+00 -0.00000000000E+00 -0.57889000940E+03  0.57889000941E+03  0.25500000000E-02 0. -1.
         24    2    1    2    0    0  0.71054273576E-14  0.00000000000E+00 -0.57626339977E+03  0.58151662387E+03  0.77987677986E+02 0.  0.
         66    2    3    3    0    0  0.31645579245E+02  0.54638268937E+01 -0.45290860784E+03  0.45405011083E+03  0.19999991362E+01 0.  0.
        -13    1    3    3    0    0 -0.31645579245E+02 -0.54638268937E+01 -0.12335479193E+03  0.12746651304E+03  0.10566000000E+00 0.  1.
         13    1    4    4    0    0  0.12824038642E+02  0.22099296658E+01 -0.17407601685E+03  0.17456176718E+03  0.10566000000E+00 0. -1.
        -13    1    4    4    0    0  0.43084445577E+01  0.28767624065E+00 -0.61349067212E+02  0.61500932220E+02  0.10566000000E+00 0.  1.
        -14    1    4    4    0    0  0.14513096045E+02  0.29662209873E+01 -0.21748352378E+03  0.21798741143E+03  0.00000000000E+00 0.  1.
<mgrwt>
<rscale>  0 0.77987678E+02</rscale>
<asrwt>0</asrwt>
<pdfrwt beam="1">  1        2 0.89059900E-01 0.77987678E+02</pdfrwt>
<pdfrwt beam="2">  1       -1 0.40409462E-03 0.77987678E+02</pdfrwt>
<totfact> 0.34018960E+05</totfact>
</mgrwt>
</event>
<event>
 8    1  0.2561077E-016  0.7930879E+02  0.7818608E-02  0.1331024E+00
          2   -1    0    0  501    0  0.00000000000E+00  0.00000000000E+00  0.68990291380E+03  0.68990291381E+03  0.25500000000E-02 0. -1.
         -1   -1    0    0    0  501 -0.00000000000E+00 -0.00000000000E+00 -0.22792617212E+01  0.22792672936E+01  0.50400000000E-02 0.  1.
         24    2    1    2    0    0  0.00000000000E+00  0.00000000000E+00  0.68762365208E+03  0.69218218110E+03  0.79308794795E+02 0.  0.
         66    2    3    3    0    0  0.18499349105E+02 -0.25112593712E+02  0.55738525772E+03  0.55826086535E+03  0.19999968348E+01 0.  0.
        -13    1    3    3    0    0 -0.18499349105E+02  0.25112593712E+02  0.13023839437E+03  0.13392131575E+03  0.10566000000E+00 0.  1.
         13    1    4    4    0    0  0.61272284369E+01 -0.81018121363E+01  0.17451618672E+03  0.17481159252E+03  0.10566000000E+00 0. -1.
        -13    1    4    4    0    0  0.67147175572E+01 -0.10268794881E+02  0.21575174901E+03  0.21610035619E+03  0.10566000000E+00 0.  1.
        -14    1    4    4    0    0  0.56574031108E+01 -0.67419866947E+01  0.16711732198E+03  0.16734891664E+03  0.00000000000E+00 0.  1.
<mgrwt>
<rscale>  0 0.79308795E+02</rscale>
<asrwt>0</asrwt>
<pdfrwt beam="1">  1        2 0.10613900E+00 0.79308795E+02</pdfrwt>
<pdfrwt beam="2">  1       -1 0.35065578E-03 0.79308795E+02</pdfrwt>
<totfact> 0.34099720E+05</totfact>
</mgrwt>
</event>
<event>
 8    1  0.2561077E-016  0.7939178E+02  0.7818608E-02  0.1330786E+00
         -1   -1    0    0    0  501 -0.00000000000E+00  0.00000000000E+00  0.35645047934E+01  0.35645083566E+01  0.50400000000E-02 0.  1.
          2   -1    0    0  501    0  0.00000000000E+00 -0.00000000000E+00 -0.44207066104E+03  0.44207066105E+03  0.25500000000E-02 0. -1.
         24    2    1    2    0    0 -0.35527136788E-14 -0.35527136788E-14 -0.43850615625E+03  0.44563516941E+03  0.79391782595E+02 0.  0.
         66    2    3    3    0    0 -0.22816957380E+02 -0.22205296797E+02 -0.35223067623E+03  0.35367235971E+03  0.19999996923E+01 0.  0.
        -13    1    3    3    0    0  0.22816957380E+02  0.22205296797E+02 -0.86275480022E+02  0.91962809695E+02  0.10566000000E+00 0.  1.
         13    1    4    4    0    0 -0.10627404740E+02 -0.10354706752E+02 -0.16561042122E+03  0.16627382375E+03  0.10566000000E+00 0. -1.
        -13    1    4    4    0    0 -0.47945977221E+01 -0.54883583651E+01 -0.84067006706E+02  0.84382362052E+02  0.10566000000E+00 0.  1.
        -14    1    4    4    0    0 -0.73949549173E+01 -0.63622316793E+01 -0.10255324830E+03  0.10301617391E+03  0.00000000000E+00 0.  1.
<mgrwt>
<rscale>  0 0.79391783E+02</rscale>
<asrwt>0</asrwt>
<pdfrwt beam="1">  1        2 0.68010828E-01 0.79391783E+02</pdfrwt>
<pdfrwt beam="2">  1       -1 0.54838598E-03 0.79391783E+02</pdfrwt>
<totfact> 0.29830802E+05</totfact>
</mgrwt>
</event>
<event>
 8    1  0.2561077E-016  0.7861101E+02  0.7818608E-02  0.1333040E+00
         -1   -1    0    0    0  501 -0.00000000000E+00  0.00000000000E+00  0.10296383325E+03  0.10296383337E+03  0.50400000000E-02 0.  1.
          2   -1    0    0  501    0  0.00000000000E+00 -0.00000000000E+00 -0.15004517676E+02  0.15004517893E+02  0.25500000000E-02 0. -1.
         24    2    1    2    0    0  0.00000000000E+00  0.35527136788E-14  0.87959315571E+02  0.11796835126E+03  0.78611008797E+02 0.  0.
         66    2    3    3    0    0  0.19170269154E+02 -0.24493716690E+02  0.80085939803E+01  0.32180412580E+02  0.19999998894E+01 0.  0.
        -13    1    3    3    0    0 -0.19170269154E+02  0.24493716690E+02  0.79950721590E+02  0.85787938683E+02  0.10566000000E+00 0.  1.
         13    1    4    4    0    0  0.66805986630E+00 -0.74585582462E+00  0.21219491395E+00  0.10289779459E+01  0.10566000000E+00 0.  1.
        -13    1    4    4    0    0  0.64008179610E+01 -0.80971580883E+01  0.35655106743E+01  0.10920552645E+02  0.10566000000E+00 0.  1.
         14    1    4    4    0    0  0.12101391326E+02 -0.15650702777E+02  0.42308883920E+01  0.20230881988E+02  0.00000000000E+00 0. -1.
<mgrwt>
<rscale>  0 0.78611009E+02</rscale>
<asrwt>0</asrwt>
<pdfrwt beam="1">  1        2 0.23083874E-02 0.78611009E+02</pdfrwt>
<pdfrwt beam="2">  1       -1 0.15840589E-01 0.78611009E+02</pdfrwt>
<totfact> 0.12304971E+05</totfact>
</mgrwt>
</event>
<event>
 8    1  0.2561077E-016  0.7949663E+02  0.7818608E-02  0.1330486E+00
         -1   -1    0    0    0  501 -0.00000000000E+00  0.00000000000E+00  0.15023547369E+02  0.15023548215E+02  0.50400000000E-02 0.  1.
          2   -1    0    0  501    0  0.00000000000E+00 -0.00000000000E+00 -0.10516348112E+03  0.10516348115E+03  0.25500000000E-02 0. -1.
         24    2    1    2    0    0 -0.35527136788E-14  0.17763568394E-14 -0.90139933746E+02  0.12018702936E+03  0.79496631191E+02 0.  0.
         66    2    3    3    0    0  0.15630581585E+02 -0.14529833196E+02 -0.95750880704E+02  0.98120651697E+02  0.20000000986E+01 0.  0.
        -13    1    3    3    0    0 -0.15630581585E+02  0.14529833196E+02  0.56109469579E+01  0.22066377664E+02  0.10566000000E+00 0.  1.
         13    1    4    4    0    0  0.22337674135E+01 -0.24187212125E+01 -0.14265805320E+02  0.14641184878E+02  0.10566000000E+00 0. -1.
        -13    1    4    4    0    0  0.74860951227E+01 -0.60735369321E+01 -0.40361567784E+02  0.41496949154E+02  0.10566000000E+00 0.  1.
         14    1    4    4    0    0  0.59107190491E+01 -0.60375750520E+01 -0.41123507600E+02  0.41982517665E+02  0.00000000000E+00 0. -1.
<mgrwt>
<rscale>  0 0.79496631E+02</rscale>
<asrwt>0</asrwt>
<pdfrwt beam="1">  1        2 0.16178997E-01 0.79496631E+02</pdfrwt>
<pdfrwt beam="2">  1       -1 0.23113151E-02 0.79496631E+02</pdfrwt>
<totfact> 0.18285891E+05</totfact>
</mgrwt>
</event>
<event>
 8    1  0.2561077E-016  0.7955931E+02  0.7818608E-02  0.1330307E+00
          2   -1    0    0  501    0  0.00000000000E+00  0.00000000000E+00  0.11273333435E+04  0.11273333435E+04  0.25500000000E-02 0. -1.
         -1   -1    0    0    0  501 -0.00000000000E+00 -0.00000000000E+00 -0.14036805709E+01  0.14036896191E+01  0.50400000000E-02 0.  1.
         24    2    1    2    0    0  0.00000000000E+00  0.00000000000E+00  0.11259296630E+04  0.11287370332E+04  0.79559311697E+02 0.  0.
         66    2    3    3    0    0  0.24588626306E+02  0.86079904824E+01  0.98934660820E+03  0.98969157276E+03  0.19999988817E+01 0.  0.
        -13    1    3    3    0    0 -0.24588626306E+02 -0.86079904824E+01  0.13658305478E+03  0.13904546041E+03  0.10566000000E+00 0.  1.
         13    1    4    4    0    0  0.19375614724E+02  0.61882515789E+01  0.77336115719E+03  0.77362859275E+03  0.10566000000E+00 0. -1.
        -13    1    4    4    0    0  0.43725021407E+01  0.22429263562E+01  0.17827947131E+03  0.17834721907E+03  0.10566000000E+00 0.  1.
         14    1    4    4    0    0  0.84050944154E+00  0.17681254729E+00  0.37705979696E+02  0.37715760945E+02  0.00000000000E+00 0. -1.
<mgrwt>
<rscale>  0 0.79559312E+02</rscale>
<asrwt>0</asrwt>
<pdfrwt beam="1">  1        2 0.17343727E+00 0.79559312E+02</pdfrwt>
<pdfrwt beam="2">  1       -1 0.21594984E-03 0.79559312E+02</pdfrwt>
<totfact> 0.35724061E+05</totfact>
</mgrwt>
</event>
<event>
 8    1  0.2561077E-016  0.8030715E+02  0.7818608E-02  0.1328182E+00
         -1   -1    0    0    0  501 -0.00000000000E+00  0.00000000000E+00  0.22185870488E+02  0.22185871061E+02  0.50400000000E-02 0.  1.
          2   -1    0    0  501    0  0.00000000000E+00 -0.00000000000E+00 -0.72672805172E+02  0.72672805217E+02  0.25500000000E-02 0. -1.
         24    2    1    2    0    0  0.00000000000E+00  0.71054273576E-14 -0.50486934684E+02  0.94858676277E+02  0.80307147200E+02 0.  0.
         66    2    3    3    0    0 -0.14164081089E+01  0.34037529327E+02 -0.50308979390E+02  0.60791060470E+02  0.20000028132E+01 0.  0.
        -13    1    3    3    0    0  0.14164081089E+01 -0.34037529327E+02 -0.17795529428E+00  0.34067615807E+02  0.10566000000E+00 0.  1.
         13    1    4    4    0    0 -0.48489451541E+00  0.11696162633E+02 -0.18506631510E+02  0.21898445536E+02  0.10566000000E+00 0. -1.
        -13    1    4    4    0    0 -0.10408846597E+01  0.15010604148E+02 -0.20834950367E+02  0.25700350165E+02  0.10566000000E+00 0.  1.
        -14    1    4    4    0    0  0.10937106615E+00  0.73307625468E+01 -0.10967397513E+02  0.13192264770E+02  0.00000000000E+00 0.  1.
<mgrwt>
<rscale>  0 0.80307147E+02</rscale>
<asrwt>0</asrwt>
<pdfrwt beam="1">  1        2 0.11180431E-01 0.80307147E+02</pdfrwt>
<pdfrwt beam="2">  1       -1 0.34132109E-02 0.80307147E+02</pdfrwt>
<totfact> 0.16127986E+05</totfact>
</mgrwt>
</event>
<event>
 8    1  0.2561077E-016  0.7856908E+02  0.7818608E-02  0.1333162E+00
          2   -1    0    0  501    0  0.00000000000E+00  0.00000000000E+00  0.32741402079E+03  0.32741402080E+03  0.25500000000E-02 0. -1.
         -1   -1    0    0    0  501 -0.00000000000E+00 -0.00000000000E+00 -0.47135259555E+01  0.47135286500E+01  0.50400000000E-02 0.  1.
         24    2    1    2    0    0  0.00000000000E+00  0.00000000000E+00  0.32270049483E+03  0.33212754945E+03  0.78569076214E+02 0.  0.
         66    2    3    3    0    0  0.38628747507E+02 -0.77746271055E+00  0.13201985816E+03  0.13757189945E+03  0.19999965087E+01 0.  0.
        -13    1    3    3    0    0 -0.38628747507E+02  0.77746271055E+00  0.19068063667E+03  0.19455565000E+03  0.10566000000E+00 0.  1.
         13    1    4    4    0    0  0.16920097308E+02 -0.25871930263E+00  0.57197242563E+02  0.59648070794E+02  0.10566000000E+00 0. -1.
        -13    1    4    4    0    0  0.15356134549E+02 -0.59956538365E+00  0.55115141110E+02  0.57217657157E+02  0.10566000000E+00 0.  1.
        -14    1    4    4    0    0  0.63525156503E+01  0.80821975733E-01  0.19707474492E+02  0.20706171498E+02  0.00000000000E+00 0.  1.
<mgrwt>
<rscale>  0 0.78569076E+02</rscale>
<asrwt>0</asrwt>
<pdfrwt beam="1">  1        2 0.50371388E-01 0.78569076E+02</pdfrwt>
<pdfrwt beam="2">  1       -1 0.72515805E-03 0.78569076E+02</pdfrwt>
<totfact> 0.27584857E+05</totfact>
</mgrwt>
</event>
<event>
 8    1  0.2561077E-016  0.7173826E+02  0.7818608E-02  0.1354280E+00
          2   -1    0    0  501    0  0.00000000000E+00  0.00000000000E+00  0.37460786141E+03  0.37460786142E+03  0.25500000000E-02 0. -1.
         -1   -1    0    0    0  501 -0.00000000000E+00 -0.00000000000E+00 -0.34345087161E+01  0.34345124141E+01  0.50400000000E-02 0.  1.
         24    2    1    2    0    0  0.00000000000E+00  0.00000000000E+00  0.37117335270E+03  0.37804237384E+03  0.71738264986E+02 0.  0.
         66    2    3    3    0    0 -0.14599438144E+02  0.16317531590E+02  0.33526360600E+03  0.33598376588E+03  0.19999990021E+01 0.  0.
        -13    1    3    3    0    0  0.14599438144E+02 -0.16317531590E+02  0.35909746701E+02  0.42058607959E+02  0.10566000000E+00 0.  1.
         13    1    4    4    0    0 -0.18177592654E+01  0.24282355768E+01  0.38013926250E+02  0.38134896482E+02  0.10566000000E+00 0. -1.
        -13    1    4    4    0    0 -0.46849650714E+01  0.54357395452E+01  0.11160679873E+03  0.11183731420E+03  0.10566000000E+00 0. -1.
         14    1    4    4    0    0 -0.80967138067E+01  0.84535564680E+01  0.18564288102E+03  0.18601155519E+03  0.00000000000E+00 0. -1.
<mgrwt>
<rscale>  0 0.71738265E+02</rscale>
<asrwt>0</asrwt>
<pdfrwt beam="1">  1        2 0.57631956E-01 0.71738265E+02</pdfrwt>
<pdfrwt beam="2">  1       -1 0.52838645E-03 0.71738265E+02</pdfrwt>
<totfact> 0.36648759E+05</totfact>
</mgrwt>
</event>
<event>
 8    1  0.2561077E-016  0.7841695E+02  0.7818608E-02  0.1333605E+00
          2   -1    0    0  501    0  0.00000000000E+00  0.00000000000E+00  0.75847523858E+03  0.75847523858E+03  0.25500000000E-02 0. -1.
         -1   -1    0    0    0  501 -0.00000000000E+00 -0.00000000000E+00 -0.20268324443E+01  0.20268387106E+01  0.50400000000E-02 0.  1.
         24    2    1    2    0    0  0.00000000000E+00 -0.17763568394E-14  0.75644840614E+03  0.76050207730E+03  0.78416952406E+02 0.  0.
         66    2    3    3    0    0 -0.66002212131E+01 -0.14380316360E+02  0.72611169044E+03  0.72628681897E+03  0.20000012934E+01 0.  0.
        -13    1    3    3    0    0  0.66002212131E+01  0.14380316360E+02  0.30336715700E+02  0.34215258324E+02  0.10566000000E+00 0.  1.
         13    1    4    4    0    0 -0.46519223231E+01 -0.82135380072E+01  0.42333922164E+03  0.42344445956E+03  0.10566000000E+00 0. -1.
        -13    1    4    4    0    0 -0.88738834123E+00 -0.33162732374E+01  0.17494011806E+03  0.17497383003E+03  0.10566000000E+00 0.  1.
         14    1    4    4    0    0 -0.10609105488E+01 -0.28505051150E+01  0.12783235074E+03  0.12786852938E+03  0.00000000000E+00 0. -1.
<mgrwt>
<rscale>  0 0.78416952E+02</rscale>
<asrwt>0</asrwt>
<pdfrwt beam="1">  1        2 0.11668826E+00 0.78416952E+02</pdfrwt>
<pdfrwt beam="2">  1       -1 0.31182150E-03 0.78416952E+02</pdfrwt>
<totfact> 0.35840851E+05</totfact>
</mgrwt>
</event>
<event>
 8    1  0.2561077E-016  0.8032490E+02  0.7818608E-02  0.1328132E+00
         -1   -1    0    0    0  501 -0.00000000000E+00  0.00000000000E+00  0.69336685363E+01  0.69336703680E+01  0.50400000000E-02 0.  1.
          2   -1    0    0  501    0  0.00000000000E+00 -0.00000000000E+00 -0.23263618683E+03  0.23263618684E+03  0.25500000000E-02 0. -1.
         24    2    1    2    0    0  0.00000000000E+00  0.00000000000E+00 -0.22570251829E+03  0.23956985721E+03  0.80324900998E+02 0.  0.
         66    2    3    3    0    0  0.32399375886E+02 -0.22377916684E+02 -0.13612464165E+03  0.14171947213E+03  0.20000007765E+01 0.  0.
        -13    1    3    3    0    0 -0.32399375886E+02  0.22377916684E+02 -0.89577876636E+02  0.97850385076E+02  0.10566000000E+00 0.  1.
         13    1    4    4    0    0  0.15936751367E+02 -0.10321362718E+02 -0.67507059651E+02  0.70126491708E+02  0.10566000000E+00 0. -1.
        -13    1    4    4    0    0  0.69951978786E+01 -0.56496574078E+01 -0.29839414750E+02  0.31164936368E+02  0.10566000000E+00 0.  1.
        -14    1    4    4    0    0  0.94674266400E+01 -0.64068965584E+01 -0.38778167253E+02  0.40428044056E+02  0.00000000000E+00 0.  1.
<mgrwt>
<rscale>  0 0.80324901E+02</rscale>
<asrwt>0</asrwt>
<pdfrwt beam="1">  1        2 0.35790177E-01 0.80324901E+02</pdfrwt>
<pdfrwt beam="2">  1       -1 0.10667186E-02 0.80324901E+02</pdfrwt>
<totfact> 0.23016031E+05</totfact>
</mgrwt>
</event>
<event>
 8    1  0.2561077E-016  0.7819102E+02  0.7818608E-02  0.1334265E+00
          2   -1    0    0  501    0  0.00000000000E+00  0.00000000000E+00  0.13896136677E+03  0.13896136680E+03  0.25500000000E-02 0. -1.
         -1   -1    0    0    0  501 -0.00000000000E+00 -0.00000000000E+00 -0.10999162707E+02  0.10999163861E+02  0.50400000000E-02 0.  1.
         24    2    1    2    0    0  0.35527136788E-14  0.00000000000E+00  0.12796220407E+03  0.14996053066E+03  0.78191016656E+02 0.  0.
         66    2    3    3    0    0  0.22369959160E+02  0.31238590511E+02  0.77609901453E+02  0.86623099762E+02  0.19999997445E+01 0.  0.
        -13    1    3    3    0    0 -0.22369959160E+02 -0.31238590511E+02  0.50352302614E+02  0.63337430895E+02  0.10566000000E+00 0.  1.
         13    1    4    4    0    0  0.10159077945E+01  0.17818780994E+01  0.41603259800E+01  0.46396804312E+01  0.10566000000E+00 0.  1.
        -13    1    4    4    0    0  0.14210178572E+02  0.18332178817E+02  0.46162108048E+02  0.51661875098E+02  0.10566000000E+00 0. -1.
         14    1    4    4    0    0  0.71438727934E+01  0.11124533595E+02  0.27287467425E+02  0.30321544233E+02  0.00000000000E+00 0. -1.
<mgrwt>
<rscale>  0 0.78191017E+02</rscale>
<asrwt>0</asrwt>
<pdfrwt beam="1">  1        2 0.21378672E-01 0.78191017E+02</pdfrwt>
<pdfrwt beam="2">  1       -1 0.16921789E-02 0.78191017E+02</pdfrwt>
<totfact> 0.20771764E+05</totfact>
</mgrwt>
</event>
<event>
 8    1  0.2561077E-016  0.8145021E+02  0.7818608E-02  0.1324986E+00
         -1   -1    0    0    0  501 -0.00000000000E+00  0.00000000000E+00  0.17849666002E+01  0.17849737156E+01  0.50400000000E-02 0.  1.
          2   -1    0    0  501    0  0.00000000000E+00 -0.00000000000E+00 -0.92916628820E+03  0.92916628820E+03  0.25500000000E-02 0. -1.
         24    2    1    2    0    0  0.00000000000E+00  0.35527136788E-14 -0.92738132160E+03  0.93095126191E+03  0.81450208205E+02 0.  0.
         66    2    3    3    0    0 -0.29563807501E+01 -0.20534234851E+02 -0.86419402078E+03  0.86444531379E+03  0.19999969214E+01 0.  0.
        -13    1    3    3    0    0  0.29563807501E+01  0.20534234851E+02 -0.63187300815E+02  0.66505948128E+02  0.10566000000E+00 0.  1.
         13    1    4    4    0    0 -0.24891124839E+01 -0.16590314513E+02 -0.70605515433E+03  0.70625443456E+03  0.10566000000E+00 0. -1.
        -13    1    4    4    0    0 -0.32003235094E+00 -0.48685344264E+00 -0.20754661727E+02  0.20763106570E+02  0.10566000000E+00 0.  1.
         14    1    4    4    0    0 -0.14723591527E+00 -0.34570668956E+01 -0.13738420472E+03  0.13742777265E+03  0.00000000000E+00 0. -1.
<mgrwt>
<rscale>  0 0.81450208E+02</rscale>
<asrwt>0</asrwt>
<pdfrwt beam="1">  1        2 0.14294827E+00 0.81450208E+02</pdfrwt>
<pdfrwt beam="2">  1       -1 0.27461154E-03 0.81450208E+02</pdfrwt>
<totfact> 0.33459474E+05</totfact>
</mgrwt>
</event>
<event>
 8    1  0.2561077E-016  0.8310979E+02  0.7818608E-02  0.1320451E+00
          2   -1    0    0  501    0  0.00000000000E+00  0.00000000000E+00  0.65160912835E+03  0.65160912835E+03  0.25500000000E-02 0. -1.
         -1   -1    0    0    0  501 -0.00000000000E+00 -0.00000000000E+00 -0.26500668558E+01  0.26500716484E+01  0.50400000000E-02 0.  1.
         24    2    1    2    0    0  0.00000000000E+00 -0.35527136788E-14  0.64895906149E+03  0.65425920000E+03  0.83109790600E+02 0.  0.
         66    2    3    3    0    0  0.23834442386E+02 -0.15468985881E+02  0.56311020088E+03  0.56383017701E+03  0.19999988975E+01 0.  0.
        -13    1    3    3    0    0 -0.23834442386E+02  0.15468985881E+02  0.85848860608E+02  0.90429022995E+02  0.10566000000E+00 0.  1.
         13    1    4    4    0    0  0.16867573152E+02 -0.11555001474E+02  0.39643788502E+03  0.39696478550E+03  0.10566000000E+00 0. -1.
        -13    1    4    4    0    0  0.69284224571E+01 -0.39466621651E+01  0.16565590457E+03  0.16584772854E+03  0.10566000000E+00 0.  1.
         14    1    4    4    0    0  0.38446776772E-01  0.32677757912E-01  0.10164113011E+01  0.10176629714E+01  0.00000000000E+00 0. -1.
<mgrwt>
<rscale>  0 0.83109791E+02</rscale>
<asrwt>0</asrwt>
<pdfrwt beam="1">  1        2 0.10024771E+00 0.83109791E+02</pdfrwt>
<pdfrwt beam="2">  1       -1 0.40770233E-03 0.83109791E+02</pdfrwt>
<totfact> 0.29768113E+05</totfact>
</mgrwt>
</event>
<event>
 8    1  0.2561077E-016  0.8043101E+02  0.7818608E-02  0.1327833E+00
         -1   -1    0    0    0  501 -0.00000000000E+00  0.00000000000E+00  0.98184615271E+01  0.98184628207E+01  0.50400000000E-02 0.  1.
          2   -1    0    0  501    0  0.00000000000E+00 -0.00000000000E+00 -0.16471895768E+03  0.16471895770E+03  0.25500000000E-02 0. -1.
         24    2    1    2    0    0  0.00000000000E+00  0.00000000000E+00 -0.15490049615E+03  0.17453742052E+03  0.80431010520E+02 0.  0.
         66    2    3    3    0    0  0.37737344559E+02 -0.41218151458E+01 -0.10613786129E+03  0.11274015313E+03  0.19999982954E+01 0.  0.
        -13    1    3    3    0    0 -0.37737344559E+02  0.41218151458E+01 -0.48762634855E+02  0.61797267387E+02  0.10566000000E+00 0.  1.
         13    1    4    4    0    0  0.62772416568E+01 -0.83988884838E+00 -0.18655957197E+02  0.19701905468E+02  0.10566000000E+00 0. -1.
        -13    1    4    4    0    0  0.75459823839E+01 -0.26075259404E+00 -0.19659715030E+02  0.21060042763E+02  0.10566000000E+00 0.  1.
        -14    1    4    4    0    0  0.23914120518E+02 -0.30211737033E+01 -0.67822189066E+02  0.71978204898E+02  0.00000000000E+00 0.  1.
<mgrwt>
<rscale>  0 0.80431011E+02</rscale>
<asrwt>0</asrwt>
<pdfrwt beam="1">  1        2 0.25341376E-01 0.80431011E+02</pdfrwt>
<pdfrwt beam="2">  1       -1 0.15105328E-02 0.80431011E+02</pdfrwt>
<totfact> 0.20359820E+05</totfact>
</mgrwt>
</event>
<event>
 8    1  0.2561077E-016  0.8129149E+02  0.7818608E-02  0.1325426E+00
          2   -1    0    0  501    0  0.00000000000E+00  0.00000000000E+00  0.23092352401E+02  0.23092352541E+02  0.25500000000E-02 0. -1.
         -1   -1    0    0    0  501 -0.00000000000E+00 -0.00000000000E+00 -0.71542142985E+02  0.71542143162E+02  0.50400000000E-02 0.  1.
         24    2    1    2    0    0  0.00000000000E+00  0.35527136788E-14 -0.48449790584E+02  0.94634495704E+02  0.81291485221E+02 0.  0.
         66    2    3    3    0    0 -0.13822691095E+02  0.29004824821E+02  0.46940454096E+01  0.32532763681E+02  0.19999996050E+01 0.  0.
        -13    1    3    3    0    0  0.13822691095E+02 -0.29004824821E+02 -0.53143835994E+02  0.62101732022E+02  0.10566000000E+00 0.  1.
         13    1    4    4    0    0 -0.12291619781E+02  0.25095729117E+02  0.38688464793E+01  0.28210967262E+02  0.10566000000E+00 0. -1.
        -13    1    4    4    0    0 -0.97514611923E+00  0.30153484153E+01  0.44128171833E+00  0.32014261838E+01  0.10566000000E+00 0.  1.
         14    1    4    4    0    0 -0.55592519458E+00  0.89374728912E+00  0.38391721204E+00  0.11203702355E+01  0.00000000000E+00 0. -1.
<mgrwt>
<rscale>  0 0.81291485E+02</rscale>
<asrwt>0</asrwt>
<pdfrwt beam="1">  1        2 0.35526696E-02 0.81291485E+02</pdfrwt>
<pdfrwt beam="2">  1       -1 0.11006484E-01 0.81291485E+02</pdfrwt>
<totfact> 0.12208118E+05</totfact>
</mgrwt>
</event>
<event>
 8    1  0.2561077E-016  0.7830329E+02  0.7818608E-02  0.1333937E+00
          2   -1    0    0  501    0  0.00000000000E+00  0.00000000000E+00  0.11979893752E+03  0.11979893754E+03  0.25500000000E-02 0. -1.
         -1   -1    0    0    0  501 -0.00000000000E+00 -0.00000000000E+00 -0.12795200013E+02  0.12795201006E+02  0.50400000000E-02 0.  1.
         24    2    1    2    0    0  0.35527136788E-14 -0.35527136788E-14  0.10700373750E+03  0.13259413855E+03  0.78303293277E+02 0.  0.
         66    2    3    3    0    0  0.19482752280E+02 -0.27026769145E+02  0.88273796740E+02  0.94373126896E+02  0.20000005788E+01 0.  0.
        -13    1    3    3    0    0 -0.19482752280E+02  0.27026769145E+02  0.18729940763E+02  0.38221011654E+02  0.10566000000E+00 0.  1.
         13    1    4    4    0    0  0.17858757510E+02 -0.23978208780E+02  0.78385938372E+02  0.83894315747E+02  0.10566000000E+00 0. -1.
        -13    1    4    4    0    0  0.55646211021E+00 -0.80342572514E+00  0.27471982373E+01  0.29177740088E+01  0.10566000000E+00 0.  1.
        -14    1    4    4    0    0  0.10675326595E+01 -0.22451346392E+01  0.71406601307E+01  0.75610371398E+01  0.00000000000E+00 0.  1.
<mgrwt>
<rscale>  0 0.78303293E+02</rscale>
<asrwt>0</asrwt>
<pdfrwt beam="1">  1        2 0.18430605E-01 0.78303293E+02</pdfrwt>
<pdfrwt beam="2">  1       -1 0.19684925E-02 0.78303293E+02</pdfrwt>
<totfact> 0.19774656E+05</totfact>
</mgrwt>
</event>
<event>
 8    1  0.2561077E-016  0.8122460E+02  0.7818608E-02  0.1325612E+00
          2   -1    0    0  501    0  0.00000000000E+00  0.00000000000E+00  0.37198344805E+03  0.37198344806E+03  0.25500000000E-02 0. -1.
         -1   -1    0    0    0  501 -0.00000000000E+00 -0.00000000000E+00 -0.44339560608E+01  0.44339589252E+01  0.50400000000E-02 0.  1.
         24    2    1    2    0    0  0.00000000000E+00  0.00000000000E+00  0.36754949199E+03  0.37641740698E+03  0.81224597377E+02 0.  0.
         66    2    3    3    0    0  0.24063913251E+02  0.16235155178E+02  0.31534765705E+03  0.31668722266E+03  0.20000007902E+01 0.  0.
        -13    1    3    3    0    0 -0.24063913251E+02 -0.16235155178E+02  0.52201834941E+02  0.59730184328E+02  0.10566000000E+00 0.  1.
         13    1    4    4    0    0  0.15529984365E+02  0.97349186544E+01  0.19508926490E+03  0.19594841540E+03  0.10566000000E+00 0. -1.
        -13    1    4    4    0    0  0.10550734217E+01  0.98774295255E+00  0.18909754318E+02  0.18965199405E+02  0.10566000000E+00 0.  1.
        -14    1    4    4    0    0  0.74788554639E+01  0.55124935714E+01  0.10134863783E+03  0.10177360785E+03  0.00000000000E+00 0.  1.
<mgrwt>
<rscale>  0 0.81224597E+02</rscale>
<asrwt>0</asrwt>
<pdfrwt beam="1">  1        2 0.57228207E-01 0.81224597E+02</pdfrwt>
<pdfrwt beam="2">  1       -1 0.68214749E-03 0.81224597E+02</pdfrwt>
<totfact> 0.26466036E+05</totfact>
</mgrwt>
</event>
<event>
 8    1  0.2561077E-016  0.7913987E+02  0.7818608E-02  0.1331510E+00
          2   -1    0    0  501    0  0.00000000000E+00  0.00000000000E+00  0.45241991534E+03  0.45241991535E+03  0.25500000000E-02 0. -1.
         -1   -1    0    0    0  501 -0.00000000000E+00 -0.00000000000E+00 -0.34608975515E+01  0.34609012213E+01  0.50400000000E-02 0.  1.
         24    2    1    2    0    0 -0.88817841970E-15  0.00000000000E+00  0.44895901779E+03  0.45588081657E+03  0.79139871503E+02 0.  0.
         66    2    3    3    0    0 -0.79527702977E+01 -0.75154088126E+01  0.44352291372E+03  0.44366237491E+03  0.19999989903E+01 0.  0.
        -13    1    3    3    0    0  0.79527702977E+01  0.75154088126E+01  0.54361040745E+01  0.12218441659E+02  0.10566000000E+00 0.  1.
         13    1    4    4    0    0 -0.13429413713E+01 -0.19325341247E+01  0.11212510540E+03  0.11214984888E+03  0.10566000000E+00 0. -1.
        -13    1    4    4    0    0 -0.41012166661E+01 -0.28002782967E+01  0.19540305521E+03  0.19546617786E+03  0.10566000000E+00 0.  1.
         14    1    4    4    0    0 -0.25086122603E+01 -0.27825963912E+01  0.13599475311E+03  0.13604634817E+03  0.00000000000E+00 0. -1.
<mgrwt>
<rscale>  0 0.79139872E+02</rscale>
<asrwt>0</asrwt>
<pdfrwt beam="1">  1        2 0.69603050E-01 0.79139872E+02</pdfrwt>
<pdfrwt beam="2">  1       -1 0.53244617E-03 0.79139872E+02</pdfrwt>
<totfact> 0.30313917E+05</totfact>
</mgrwt>
</event>
<event>
 8    1  0.2561077E-016  0.7854458E+02  0.7818608E-02  0.1333233E+00
         -1   -1    0    0    0  501 -0.00000000000E+00  0.00000000000E+00  0.16217118597E+02  0.16217119380E+02  0.50400000000E-02 0.  1.
          2   -1    0    0  501    0  0.00000000000E+00 -0.00000000000E+00 -0.95103981354E+02  0.95103981388E+02  0.25500000000E-02 0. -1.
         24    2    1    2    0    0  0.00000000000E+00  0.44408920985E-15 -0.78886862757E+02  0.11132110077E+03  0.78544575628E+02 0.  0.
         66    2    3    3    0    0  0.19912391861E+02  0.34168974961E+01 -0.87156952375E+02  0.89490294910E+02  0.19999994042E+01 0.  0.
        -13    1    3    3    0    0 -0.19912391861E+02 -0.34168974961E+01  0.82700896180E+01  0.21830805859E+02  0.10566000000E+00 0.  1.
         13    1    4    4    0    0  0.11099729221E+02  0.15499562707E+01 -0.48999964959E+02  0.50265436268E+02  0.10566000000E+00 0. -1.
        -13    1    4    4    0    0  0.25930369842E+01  0.10851927582E+01 -0.11034484217E+02  0.11387382934E+02  0.10566000000E+00 0.  1.
        -14    1    4    4    0    0  0.62196256553E+01  0.78174846715E+00 -0.27122503199E+02  0.27837475707E+02  0.00000000000E+00 0.  1.
<mgrwt>
<rscale>  0 0.78544576E+02</rscale>
<asrwt>0</asrwt>
<pdfrwt beam="1">  1        2 0.14631381E-01 0.78544576E+02</pdfrwt>
<pdfrwt beam="2">  1       -1 0.24949414E-02 0.78544576E+02</pdfrwt>
<totfact> 0.18362321E+05</totfact>
</mgrwt>
</event>
<event>
 8    1  0.2561077E-016  0.7970427E+02  0.7818608E-02  0.1329893E+00
         -1   -1    0    0    0  501 -0.00000000000E+00  0.00000000000E+00  0.11996263099E+02  0.11996264157E+02  0.50400000000E-02 0.  1.
          2   -1    0    0  501    0  0.00000000000E+00 -0.00000000000E+00 -0.13239061849E+03  0.13239061851E+03  0.25500000000E-02 0. -1.
         24    2    1    2    0    0  0.11102230246E-15  0.00000000000E+00 -0.12039435539E+03  0.14438688267E+03  0.79704272643E+02 0.  0.
         66    2    3    3    0    0 -0.61965670121E+00  0.25815605609E+02 -0.11516231242E+03  0.11803892440E+03  0.20000007582E+01 0.  0.
        -13    1    3    3    0    0  0.61965670121E+00 -0.25815605609E+02 -0.52320429645E+01  0.26347958270E+02  0.10566000000E+00 0.  1.
         13    1    4    4    0    0  0.25629892497E-01  0.72245953427E+01 -0.34861724691E+02  0.35602618544E+02  0.10566000000E+00 0. -1.
        -13    1    4    4    0    0 -0.12804803750E+00  0.13811298365E+02 -0.57724958974E+02  0.59354447276E+02  0.10566000000E+00 0.  1.
         14    1    4    4    0    0 -0.51723855621E+00  0.47797119016E+01 -0.22575628759E+02  0.23081858579E+02  0.00000000000E+00 0. -1.
<mgrwt>
<rscale>  0 0.79704273E+02</rscale>
<asrwt>0</asrwt>
<pdfrwt beam="1">  1        2 0.20367786E-01 0.79704273E+02</pdfrwt>
<pdfrwt beam="2">  1       -1 0.18455791E-02 0.79704273E+02</pdfrwt>
<totfact> 0.19445265E+05</totfact>
</mgrwt>
</event>
<event>
 8    1  0.2561077E-016  0.7908977E+02  0.7818608E-02  0.1331655E+00
          2   -1    0    0  501    0  0.00000000000E+00  0.00000000000E+00  0.20926745781E+03  0.20926745782E+03  0.25500000000E-02 0. -1.
         -1   -1    0    0    0  501 -0.00000000000E+00 -0.00000000000E+00 -0.74727222214E+01  0.74727239211E+01  0.50400000000E-02 0.  1.
         24    2    1    2    0    0  0.71054273576E-14  0.88817841970E-15  0.20179473558E+03  0.21674018174E+03  0.79089765913E+02 0.  0.
         66    2    3    3    0    0 -0.34806512747E+02 -0.59019929664E+01  0.14963552524E+03  0.15375668201E+03  0.19999997436E+01 0.  0.
        -13    1    3    3    0    0  0.34806512747E+02  0.59019929664E+01  0.52159210347E+02  0.62983499733E+02  0.10566000000E+00 0.  1.
         13    1    4    4    0    0 -0.13736356676E+02 -0.21202185047E+01  0.60285023370E+02  0.61866614810E+02  0.10566000000E+00 0. -1.
        -13    1    4    4    0    0 -0.99768452883E+01 -0.10756662049E+01  0.41635175082E+02  0.42827484958E+02  0.10566000000E+00 0.  1.
        -14    1    4    4    0    0 -0.11093310782E+02 -0.27061082568E+01  0.47715326785E+02  0.49062582242E+02  0.00000000000E+00 0.  1.
<mgrwt>
<rscale>  0 0.79089766E+02</rscale>
<asrwt>0</asrwt>
<pdfrwt beam="1">  1        2 0.32194997E-01 0.79089766E+02</pdfrwt>
<pdfrwt beam="2">  1       -1 0.11496496E-02 0.79089766E+02</pdfrwt>
<totfact> 0.23095766E+05</totfact>
</mgrwt>
</event>
<event>
 8    1  0.2561077E-016  0.8074688E+02  0.7818608E-02  0.1326945E+00
          2   -1    0    0  501    0  0.00000000000E+00  0.00000000000E+00  0.21422244259E+03  0.21422244261E+03  0.25500000000E-02 0. -1.
         -1   -1    0    0    0  501 -0.00000000000E+00 -0.00000000000E+00 -0.76089802081E+01  0.76089818773E+01  0.50400000000E-02 0.  1.
         24    2    1    2    0    0  0.00000000000E+00  0.00000000000E+00  0.20661346238E+03  0.22183142448E+03  0.80746876414E+02 0.  0.
         66    2    3    3    0    0  0.79936634660E+01  0.10874213941E+02  0.20783252761E+03  0.20827987592E+03  0.19999991159E+01 0.  0.
        -13    1    3    3    0    0 -0.79936634660E+01 -0.10874213941E+02 -0.12190652253E+01  0.13551548564E+02  0.10566000000E+00 0.  1.
         13    1    4    4    0    0  0.21907716891E+01  0.23379207975E+01  0.45810350470E+02  0.45922377208E+02  0.10566000000E+00 0. -1.
        -13    1    4    4    0    0  0.46286526963E+01  0.72988230812E+01  0.14197996670E+03  0.14224281828E+03  0.10566000000E+00 0.  1.
        -14    1    4    4    0    0  0.11742390806E+01  0.12374700617E+01  0.20042210443E+02  0.20114680436E+02  0.00000000000E+00 0.  1.
<mgrwt>
<rscale>  0 0.80746876E+02</rscale>
<asrwt>0</asrwt>
<pdfrwt beam="1">  1        2 0.32957305E-01 0.80746876E+02</pdfrwt>
<pdfrwt beam="2">  1       -1 0.11706123E-02 0.80746876E+02</pdfrwt>
<totfact> 0.22047561E+05</totfact>
</mgrwt>
</event>
<event>
 8    1  0.2561077E-016  0.7977498E+02  0.7818608E-02  0.1329691E+00
          2   -1    0    0  501    0  0.00000000000E+00  0.00000000000E+00  0.97121779094E+02  0.97121779128E+02  0.25500000000E-02 0. -1.
         -1   -1    0    0    0  501 -0.00000000000E+00 -0.00000000000E+00 -0.16381615440E+02  0.16381616216E+02  0.50400000000E-02 0.  1.
         24    2    1    2    0    0  0.00000000000E+00  0.00000000000E+00  0.80740163654E+02  0.11350339534E+03  0.79774975572E+02 0.  0.
         66    2    3    3    0    0 -0.34838643009E+02  0.17410658387E+02  0.52480317675E+02  0.65383834549E+02  0.20000012352E+01 0.  0.
        -13    1    3    3    0    0  0.34838643009E+02 -0.17410658387E+02  0.28259845979E+02  0.48119560794E+02  0.10566000000E+00 0.  1.
         13    1    4    4    0    0 -0.11846654815E+02  0.60814650269E+01  0.17986683757E+02  0.22379888377E+02  0.10566000000E+00 0. -1.
        -13    1    4    4    0    0 -0.92205798830E+01  0.39125642235E+01  0.14357319158E+02  0.17506313993E+02  0.10566000000E+00 0.  1.
        -14    1    4    4    0    0 -0.13771408312E+02  0.74166291363E+01  0.20136314760E+02  0.25497632179E+02  0.00000000000E+00 0.  1.
<mgrwt>
<rscale>  0 0.79774976E+02</rscale>
<asrwt>0</asrwt>
<pdfrwt beam="1">  1        2 0.14941812E-01 0.79774976E+02</pdfrwt>
<pdfrwt beam="2">  1       -1 0.25202486E-02 0.79774976E+02</pdfrwt>
<totfact> 0.17715584E+05</totfact>
</mgrwt>
</event>
<event>
 8    1  0.2561077E-016  0.7580758E+02  0.7818608E-02  0.1341388E+00
          2   -1    0    0  501    0  0.00000000000E+00  0.00000000000E+00  0.16490966771E+03  0.16490966772E+03  0.25500000000E-02 0. -1.
         -1   -1    0    0    0  501 -0.00000000000E+00 -0.00000000000E+00 -0.87120244819E+01  0.87120259397E+01  0.50400000000E-02 0.  1.
         24    2    1    2    0    0  0.00000000000E+00  0.00000000000E+00  0.15619764322E+03  0.17362169366E+03  0.75807577210E+02 0.  0.
         66    2    3    3    0    0  0.26392419132E+02  0.98245304936E+01  0.13616629536E+03  0.13906236427E+03  0.19999941565E+01 0.  0.
        -13    1    3    3    0    0 -0.26392419132E+02 -0.98245304936E+01  0.20031347862E+02  0.34559329396E+02  0.10566000000E+00 0.  1.
         13    1    4    4    0    0  0.19863124714E+02  0.67353426250E+01  0.99206835310E+02  0.10139978254E+03  0.10566000000E+00 0. -1.
        -13    1    4    4    0    0  0.21360060355E+01  0.81741986912E+00  0.12538372478E+02  0.12745691251E+02  0.10566000000E+00 0.  1.
         14    1    4    4    0    0  0.43932883825E+01  0.22717679995E+01  0.24421087573E+02  0.24916890474E+02  0.00000000000E+00 0. -1.
<mgrwt>
<rscale>  0 0.75807577E+02</rscale>
<asrwt>0</asrwt>
<pdfrwt beam="1">  1        2 0.25370719E-01 0.75807577E+02</pdfrwt>
<pdfrwt beam="2">  1       -1 0.13403115E-02 0.75807577E+02</pdfrwt>
<totfact> 0.23815291E+05</totfact>
</mgrwt>
</event>
<event>
 8    1  0.2561077E-016  0.7945235E+02  0.7818608E-02  0.1330613E+00
         -1   -1    0    0    0  501 -0.00000000000E+00  0.00000000000E+00  0.70421127410E+02  0.70421127590E+02  0.50400000000E-02 0.  1.
          2   -1    0    0  501    0  0.00000000000E+00 -0.00000000000E+00 -0.22410447554E+02  0.22410447700E+02  0.25500000000E-02 0. -1.
         24    2    1    2    0    0  0.00000000000E+00  0.71054273576E-14  0.48010679855E+02  0.92831575290E+02  0.79452350441E+02 0.  0.
         66    2    3    3    0    0  0.13497364613E+02 -0.35017503845E+02  0.88872416855E+01  0.38618486416E+02  0.20000003110E+01 0.  0.
        -13    1    3    3    0    0 -0.13497364613E+02  0.35017503845E+02  0.39123438170E+02  0.54213088874E+02  0.10566000000E+00 0.  1.
         13    1    4    4    0    0  0.58911214430E+01 -0.13141031566E+02  0.34636450780E+01  0.14812157970E+02  0.10566000000E+00 0.  1.
        -13    1    4    4    0    0  0.60756068331E+01 -0.16560913692E+02  0.38575840644E+01  0.18057380196E+02  0.10566000000E+00 0. -1.
        -14    1    4    4    0    0  0.15306363371E+01 -0.53155585872E+01  0.15660125431E+01  0.57489482495E+01  0.00000000000E+00 0.  1.
<mgrwt>
<rscale>  0 0.79452350E+02</rscale>
<asrwt>0</asrwt>
<pdfrwt beam="1">  1        2 0.34477613E-02 0.79452350E+02</pdfrwt>
<pdfrwt beam="2">  1       -1 0.10834019E-01 0.79452350E+02</pdfrwt>
<totfact> 0.12953306E+05</totfact>
</mgrwt>
</event>
<event>
 8    1  0.2561077E-016  0.7979050E+02  0.7818608E-02  0.1329647E+00
          2   -1    0    0  501    0  0.00000000000E+00  0.00000000000E+00  0.11598848930E+03  0.11598848933E+03  0.25500000000E-02 0. -1.
         -1   -1    0    0    0  501 -0.00000000000E+00 -0.00000000000E+00 -0.13722316850E+02  0.13722317775E+02  0.50400000000E-02 0.  1.
         24    2    1    2    0    0  0.00000000000E+00  0.35527136788E-14  0.10226617245E+03  0.12971080710E+03  0.79790497253E+02 0.  0.
         66    2    3    3    0    0  0.18162017324E+02  0.28922141315E+02  0.84610584952E+02  0.91265000240E+02  0.20000128225E+01 0.  0.
        -13    1    3    3    0    0 -0.18162017324E+02 -0.28922141315E+02  0.17655587499E+02  0.38445806864E+02  0.10566000000E+00 0.  1.
         13    1    4    4    0    0  0.10422354124E+02  0.16769079601E+02  0.48494978996E+02  0.52360306035E+02  0.10566000000E+00 0. -1.
        -13    1    4    4    0    0  0.30917122048E+01  0.40592779529E+01  0.13943830070E+02  0.14848501032E+02  0.10566000000E+00 0.  1.
        -14    1    4    4    0    0  0.46479509948E+01  0.80937837607E+01  0.22171775886E+02  0.24056193173E+02  0.00000000000E+00 0.  1.
<mgrwt>
<rscale>  0 0.79790497E+02</rscale>
<asrwt>0</asrwt>
<pdfrwt beam="1">  1        2 0.17844382E-01 0.79790497E+02</pdfrwt>
<pdfrwt beam="2">  1       -1 0.21111258E-02 0.79790497E+02</pdfrwt>
<totfact> 0.18628511E+05</totfact>
</mgrwt>
</event>
<event>
 8    1  0.2561077E-016  0.7901223E+02  0.7818608E-02  0.1331878E+00
          2   -1    0    0  501    0  0.00000000000E+00  0.00000000000E+00  0.12956197552E+02  0.12956197803E+02  0.25500000000E-02 0. -1.
         -1   -1    0    0    0  501 -0.00000000000E+00 -0.00000000000E+00 -0.12046229464E+03  0.12046229474E+03  0.50400000000E-02 0.  1.
         24    2    1    2    0    0  0.00000000000E+00  0.00000000000E+00 -0.10750609709E+03  0.13341849255E+03  0.79012234766E+02 0.  0.
         66    2    3    3    0    0 -0.15935120541E+02 -0.17833115000E+02 -0.74392414878E+00  0.24010445349E+02  0.20000013695E+01 0.  0.
        -13    1    3    3    0    0  0.15935120541E+02  0.17833115000E+02 -0.10676217294E+03  0.10940804720E+03  0.10566000000E+00 0.  1.
         13    1    4    4    0    0 -0.77254412176E+01 -0.80843261724E+01  0.50570712345E+00  0.11194001760E+02  0.10566000000E+00 0. -1.
        -13    1    4    4    0    0 -0.11626275661E+01 -0.15376066605E+01 -0.70868848047E-01  0.19318704743E+01  0.10566000000E+00 0. -1.
         14    1    4    4    0    0 -0.70470517568E+01 -0.82111821671E+01 -0.11787624242E+01  0.10884573115E+02  0.00000000000E+00 0. -1.
<mgrwt>
<rscale>  0 0.79012235E+02</rscale>
<asrwt>0</asrwt>
<pdfrwt beam="1">  1        2 0.19932613E-02 0.79012235E+02</pdfrwt>
<pdfrwt beam="2">  1       -1 0.18532660E-01 0.79012235E+02</pdfrwt>
<totfact> 0.11734733E+05</totfact>
</mgrwt>
</event>
<event>
 8    1  0.2561077E-016  0.8232730E+02  0.7818608E-02  0.1322574E+00
         -1   -1    0    0    0  501 -0.00000000000E+00  0.00000000000E+00  0.19041822461E+02  0.19041823128E+02  0.50400000000E-02 0.  1.
          2   -1    0    0  501    0  0.00000000000E+00 -0.00000000000E+00 -0.88985489168E+02  0.88985489204E+02  0.25500000000E-02 0. -1.
         24    2    1    2    0    0  0.00000000000E+00  0.17763568394E-14 -0.69943666706E+02  0.10802731233E+03  0.82327296187E+02 0.  0.
         66    2    3    3    0    0  0.90762981431E+01  0.14813610589E+02 -0.83924502909E+02  0.85727151086E+02  0.19999995317E+01 0.  0.
        -13    1    3    3    0    0 -0.90762981431E+01 -0.14813610589E+02  0.13980836203E+02  0.22300161247E+02  0.10566000000E+00 0.  1.
         13    1    4    4    0    0  0.49792003509E+00  0.99768997443E+00 -0.66128538445E+01  0.67070343410E+01  0.10566000000E+00 0. -1.
        -13    1    4    4    0    0  0.51460732564E+01  0.75302927258E+01 -0.39921383792E+02  0.40950157831E+02  0.10566000000E+00 0.  1.
        -14    1    4    4    0    0  0.34323048516E+01  0.62856278884E+01 -0.37390265272E+02  0.38069958914E+02  0.00000000000E+00 0.  1.
<mgrwt>
<rscale>  0 0.82327296E+02</rscale>
<asrwt>0</asrwt>
<pdfrwt beam="1">  1        2 0.13690075E-01 0.82327296E+02</pdfrwt>
<pdfrwt beam="2">  1       -1 0.29295113E-02 0.82327296E+02</pdfrwt>
<totfact> 0.15892941E+05</totfact>
</mgrwt>
</event>
<event>
 8    1  0.2561077E-016  0.7956457E+02  0.7818608E-02  0.1330292E+00
         -1   -1    0    0    0  501 -0.00000000000E+00  0.00000000000E+00  0.20502897336E+01  0.20502959282E+01  0.50400000000E-02 0.  1.
          2   -1    0    0  501    0  0.00000000000E+00 -0.00000000000E+00 -0.77190449258E+03  0.77190449258E+03  0.25500000000E-02 0. -1.
         24    2    1    2    0    0 -0.35527136788E-14  0.00000000000E+00 -0.76985420284E+03  0.77395478851E+03  0.79564571393E+02 0.  0.
         66    2    3    3    0    0  0.28909489943E+02  0.90131713606E+01 -0.63575672757E+03  0.63648064583E+03  0.19999996487E+01 0.  0.
        -13    1    3    3    0    0 -0.28909489943E+02 -0.90131713606E+01 -0.13409747527E+03  0.13747414268E+03  0.10566000000E+00 0.  1.
         13    1    4    4    0    0  0.74870947403E+01  0.19641476268E+01 -0.14899466867E+03  0.14919563304E+03  0.10566000000E+00 0. -1.
        -13    1    4    4    0    0  0.12662194317E+01  0.60481688222E+00 -0.31476640841E+02  0.31508081468E+02  0.10566000000E+00 0.  1.
         14    1    4    4    0    0  0.20156175771E+02  0.64442068516E+01 -0.45528541806E+03  0.45577693132E+03  0.00000000000E+00 0. -1.
<mgrwt>
<rscale>  0 0.79564571E+02</rscale>
<asrwt>0</asrwt>
<pdfrwt beam="1">  1        2 0.11875430E+00 0.79564571E+02</pdfrwt>
<pdfrwt beam="2">  1       -1 0.31543029E-03 0.79564571E+02</pdfrwt>
<totfact> 0.34631724E+05</totfact>
</mgrwt>
</event>
<event>
 8    1  0.2561077E-016  0.7937436E+02  0.7818608E-02  0.1330836E+00
          2   -1    0    0  501    0  0.00000000000E+00  0.00000000000E+00  0.50057826382E+02  0.50057826447E+02  0.25500000000E-02 0. -1.
         -1   -1    0    0    0  501 -0.00000000000E+00 -0.00000000000E+00 -0.31465050959E+02  0.31465051363E+02  0.50400000000E-02 0.  1.
         24    2    1    2    0    0  0.17763568394E-14  0.00000000000E+00  0.18592775422E+02  0.81522877810E+02  0.79374355484E+02 0.  0.
         66    2    3    3    0    0  0.13506415699E+02 -0.23430304602E+01  0.47527347185E+02  0.49505169211E+02  0.19999978501E+01 0.  0.
        -13    1    3    3    0    0 -0.13506415699E+02  0.23430304602E+01 -0.28934571763E+02  0.32017708598E+02  0.10566000000E+00 0.  1.
         13    1    4    4    0    0  0.27258391265E+01  0.16584287308E+00  0.10096608817E+02  0.10459941512E+02  0.10566000000E+00 0. -1.
        -13    1    4    4    0    0  0.37299287966E+00  0.18816844627E-01  0.99582834854E+00  0.10687917932E+01  0.10566000000E+00 0. -1.
         14    1    4    4    0    0  0.10407583693E+02 -0.25276901780E+01  0.36434910020E+02  0.37976435906E+02  0.00000000000E+00 0. -1.
<mgrwt>
<rscale>  0 0.79374355E+02</rscale>
<asrwt>0</asrwt>
<pdfrwt beam="1">  1        2 0.77012040E-02 0.79374355E+02</pdfrwt>
<pdfrwt beam="2">  1       -1 0.48407772E-02 0.79374355E+02</pdfrwt>
<totfact> 0.15271498E+05</totfact>
</mgrwt>
</event>
<event>
 8    1  0.2561077E-016  0.8150667E+02  0.7818608E-02  0.1324829E+00
         -1   -1    0    0    0  501 -0.00000000000E+00  0.00000000000E+00  0.21302391161E+01  0.21302450782E+01  0.50400000000E-02 0.  1.
          2   -1    0    0  501    0  0.00000000000E+00 -0.00000000000E+00 -0.77964581331E+03  0.77964581332E+03  0.25500000000E-02 0. -1.
         24    2    1    2    0    0  0.00000000000E+00  0.00000000000E+00 -0.77751557420E+03  0.78177605839E+03  0.81506670656E+02 0.  0.
         66    2    3    3    0    0  0.18709855955E+01 -0.11495782800E+02 -0.76332947044E+03  0.76342094159E+03  0.19999993918E+01 0.  0.
        -13    1    3    3    0    0 -0.18709855955E+01  0.11495782800E+02 -0.14186103752E+02  0.18355116806E+02  0.10566000000E+00 0.  1.
         13    1    4    4    0    0  0.15477109254E+01 -0.72807771973E+01 -0.49490143951E+03  0.49495742354E+03  0.10566000000E+00 0. -1.
        -13    1    4    4    0    0  0.38189562498E+00 -0.30621715318E+01 -0.22034648819E+03  0.22036812102E+03  0.10566000000E+00 0.  1.
        -14    1    4    4    0    0 -0.58620954932E-01 -0.11528340707E+01 -0.48081542745E+02  0.48095397031E+02  0.00000000000E+00 0.  1.
<mgrwt>
<rscale>  0 0.81506671E+02</rscale>
<asrwt>0</asrwt>
<pdfrwt beam="1">  1        2 0.11994528E+00 0.81506671E+02</pdfrwt>
<pdfrwt beam="2">  1       -1 0.32773018E-03 0.81506671E+02</pdfrwt>
<totfact> 0.32587753E+05</totfact>
</mgrwt>
</event>
<event>
 8    1  0.2561077E-016  0.7891103E+02  0.7818608E-02  0.1332170E+00
         -1   -1    0    0    0  501 -0.00000000000E+00  0.00000000000E+00  0.25022003646E+02  0.25022004154E+02  0.50400000000E-02 0.  1.
          2   -1    0    0  501    0  0.00000000000E+00 -0.00000000000E+00 -0.62214748054E+02  0.62214748106E+02  0.25500000000E-02 0. -1.
         24    2    1    2    0    0  0.35527136788E-14  0.00000000000E+00 -0.37192744408E+02  0.87236752260E+02  0.78911030334E+02 0.  0.
         66    2    3    3    0    0 -0.19262564679E+02  0.22241355205E+02 -0.47626723825E+02  0.56018114079E+02  0.20000008347E+01 0.  0.
        -13    1    3    3    0    0  0.19262564679E+02 -0.22241355205E+02  0.10433979417E+02  0.31218638181E+02  0.10566000000E+00 0.  1.
         13    1    4    4    0    0 -0.10152843175E+02  0.12495990676E+02 -0.26251837931E+02  0.30796106350E+02  0.10566000000E+00 0. -1.
        -13    1    4    4    0    0 -0.66443484208E+01  0.75970588813E+01 -0.15452395441E+02  0.18456715810E+02  0.10566000000E+00 0.  1.
        -14    1    4    4    0    0 -0.24653730829E+01  0.21483056477E+01 -0.59224904530E+01  0.67652919198E+01  0.00000000000E+00 0.  1.
<mgrwt>
<rscale>  0 0.78911030E+02</rscale>
<asrwt>0</asrwt>
<pdfrwt beam="1">  1        2 0.95714997E-02 0.78911030E+02</pdfrwt>
<pdfrwt beam="2">  1       -1 0.38495391E-02 0.78911030E+02</pdfrwt>
<totfact> 0.16292985E+05</totfact>
</mgrwt>
</event>
<event>
 8    1  0.2561077E-016  0.8144263E+02  0.7818608E-02  0.1325007E+00
         -1   -1    0    0    0  501 -0.00000000000E+00  0.00000000000E+00  0.16416914903E+01  0.16416992267E+01  0.50400000000E-02 0.  1.
          2   -1    0    0  501    0  0.00000000000E+00 -0.00000000000E+00 -0.10100690583E+04  0.10100690583E+04  0.25500000000E-02 0. -1.
         24    2    1    2    0    0  0.00000000000E+00 -0.44408920985E-15 -0.10084273668E+04  0.10117107575E+04  0.81442634846E+02 0.  0.
         66    2    3    3    0    0  0.30987634601E+02 -0.23926100283E+01 -0.83088803134E+03  0.83147151406E+03  0.19999999624E+01 0.  0.
        -13    1    3    3    0    0 -0.30987634601E+02  0.23926100283E+01 -0.17753933545E+03  0.18023924344E+03  0.10566000000E+00 0.  1.
         13    1    4    4    0    0  0.10472326861E+02 -0.13850377619E+01 -0.26599800029E+03  0.26620769200E+03  0.10566000000E+00 0. -1.
        -13    1    4    4    0    0  0.18249643442E+02 -0.10935683126E+01 -0.50571359345E+03  0.50604396562E+03  0.10566000000E+00 0.  1.
        -14    1    4    4    0    0  0.22656642981E+01  0.85996046309E-01 -0.59176437596E+02  0.59219856438E+02  0.00000000000E+00 0.  1.
<mgrwt>
<rscale>  0 0.81442635E+02</rscale>
<asrwt>0</asrwt>
<pdfrwt beam="1">  1        2 0.15539474E+00 0.81442635E+02</pdfrwt>
<pdfrwt beam="2">  1       -1 0.25256932E-03 0.81442635E+02</pdfrwt>
<totfact> 0.33645294E+05</totfact>
</mgrwt>
</event>
<event>
 8    1  0.2561077E-016  0.8134737E+02  0.7818608E-02  0.1325271E+00
          2   -1    0    0  501    0  0.00000000000E+00  0.00000000000E+00  0.62777215886E+03  0.62777215887E+03  0.25500000000E-02 0. -1.
         -1   -1    0    0    0  501 -0.00000000000E+00 -0.00000000000E+00 -0.26352669488E+01  0.26352717683E+01  0.50400000000E-02 0.  1.
         24    2    1    2    0    0  0.17763568394E-14  0.00000000000E+00  0.62513689191E+03  0.63040743063E+03  0.81347372235E+02 0.  0.
         66    2    3    3    0    0 -0.11069502838E+02 -0.27648805095E+02  0.52714897462E+03  0.52799340124E+03  0.20000000539E+01 0.  0.
        -13    1    3    3    0    0  0.11069502838E+02  0.27648805095E+02  0.97987917294E+02  0.10241402939E+03  0.10566000000E+00 0.  1.
         13    1    4    4    0    0 -0.77842820636E+01 -0.17187356595E+02  0.32811015960E+03  0.32865222998E+03  0.10566000000E+00 0. -1.
        -13    1    4    4    0    0 -0.20619854978E+00 -0.63931550992E+00  0.11524116522E+02  0.11544161633E+02  0.10566000000E+00 0.  1.
         14    1    4    4    0    0 -0.30790222244E+01 -0.98221329905E+01  0.18751469849E+03  0.18779700963E+03  0.00000000000E+00 0. -1.
<mgrwt>
<rscale>  0 0.81347372E+02</rscale>
<asrwt>0</asrwt>
<pdfrwt beam="1">  1        2 0.96580487E-01 0.81347372E+02</pdfrwt>
<pdfrwt beam="2">  1       -1 0.40542541E-03 0.81347372E+02</pdfrwt>
<totfact> 0.31176091E+05</totfact>
</mgrwt>
</event>
<event>
 8    1  0.2561077E-016  0.7942074E+02  0.7818608E-02  0.1330703E+00
          2   -1    0    0  501    0  0.00000000000E+00  0.00000000000E+00  0.63105827586E+02  0.63105827637E+02  0.25500000000E-02 0. -1.
         -1   -1    0    0    0  501 -0.00000000000E+00 -0.00000000000E+00 -0.24988397363E+02  0.24988397871E+02  0.50400000000E-02 0.  1.
         24    2    1    2    0    0 -0.35527136788E-14  0.00000000000E+00  0.38117430223E+02  0.88094225508E+02  0.79420740874E+02 0.  0.
         66    2    3    3    0    0 -0.16504201953E+02 -0.18964837198E+02  0.53130083701E+02  0.58812069499E+02  0.19999981718E+01 0.  0.
        -13    1    3    3    0    0  0.16504201953E+02  0.18964837198E+02 -0.15012653478E+02  0.29282156009E+02  0.10566000000E+00 0.  1.
         13    1    4    4    0    0 -0.11959830109E+02 -0.13803706876E+02  0.39762463513E+02  0.43756651247E+02  0.10566000000E+00 0. -1.
        -13    1    4    4    0    0 -0.28578472668E+01 -0.38122730465E+01  0.93126840003E+01  0.10461260159E+02  0.10566000000E+00 0.  1.
         14    1    4    4    0    0 -0.16865245767E+01 -0.13488572755E+01  0.40549361877E+01  0.45941580931E+01  0.00000000000E+00 0. -1.
<mgrwt>
<rscale>  0 0.79420741E+02</rscale>
<asrwt>0</asrwt>
<pdfrwt beam="1">  1        2 0.97085886E-02 0.79420741E+02</pdfrwt>
<pdfrwt beam="2">  1       -1 0.38443690E-02 0.79420741E+02</pdfrwt>
<totfact> 0.16064137E+05</totfact>
</mgrwt>
</event>
<event>
 8    1  0.2561077E-016  0.8032271E+02  0.7818608E-02  0.1328138E+00
         -1   -1    0    0    0  501 -0.00000000000E+00  0.00000000000E+00  0.16054018849E+02  0.16054019640E+02  0.50400000000E-02 0.  1.
          2   -1    0    0  501    0  0.00000000000E+00 -0.00000000000E+00 -0.10046919864E+03  0.10046919867E+03  0.25500000000E-02 0. -1.
         24    2    1    2    0    0  0.00000000000E+00  0.00000000000E+00 -0.84415179788E+02  0.11652321831E+03  0.80322710527E+02 0.  0.
         66    2    3    3    0    0 -0.36154058378E+02 -0.10337973458E+02 -0.62591957714E+02  0.73046168982E+02  0.20000000160E+01 0.  0.
        -13    1    3    3    0    0  0.36154058378E+02  0.10337973458E+02 -0.21823222074E+02  0.43477049327E+02  0.10566000000E+00 0.  1.
         13    1    4    4    0    0 -0.97247627111E+01 -0.34327020792E+01 -0.17750313984E+02  0.20528985945E+02  0.10566000000E+00 0. -1.
        -13    1    4    4    0    0 -0.15277039440E+02 -0.39596424825E+01 -0.24921474602E+02  0.29498436620E+02  0.10566000000E+00 0.  1.
        -14    1    4    4    0    0 -0.11152256227E+02 -0.29456288960E+01 -0.19920169128E+02  0.23018746418E+02  0.00000000000E+00 0.  1.
<mgrwt>
<rscale>  0 0.80322711E+02</rscale>
<asrwt>0</asrwt>
<pdfrwt beam="1">  1        2 0.15456799E-01 0.80322711E+02</pdfrwt>
<pdfrwt beam="2">  1       -1 0.24698492E-02 0.80322711E+02</pdfrwt>
<totfact> 0.17558702E+05</totfact>
</mgrwt>
</event>
<event>
 8    1  0.2561077E-016  0.7902541E+02  0.7818608E-02  0.1331840E+00
         -1   -1    0    0    0  501 -0.00000000000E+00  0.00000000000E+00  0.28301820271E+01  0.28301865147E+01  0.50400000000E-02 0.  1.
          2   -1    0    0  501    0  0.00000000000E+00 -0.00000000000E+00 -0.55164382381E+03  0.55164382382E+03  0.25500000000E-02 0. -1.
         24    2    1    2    0    0  0.88817841970E-15 -0.35527136788E-14 -0.54881364178E+03  0.55447401033E+03  0.79025405567E+02 0.  0.
         66    2    3    3    0    0 -0.62362945029E+01  0.21499836562E+02 -0.50281631719E+03  0.50331837159E+03  0.20000013044E+01 0.  0.
        -13    1    3    3    0    0  0.62362945029E+01 -0.21499836562E+02 -0.45997324592E+02  0.51155638741E+02  0.10566000000E+00 0.  1.
         13    1    4    4    0    0 -0.44588685086E+01  0.13706694499E+02 -0.31012274906E+03  0.31045754240E+03  0.10566000000E+00 0. -1.
        -13    1    4    4    0    0 -0.37679163685E+00  0.22021828912E+01 -0.46702010991E+02  0.46755540593E+02  0.10566000000E+00 0.  1.
        -14    1    4    4    0    0 -0.14006343574E+01  0.55909591712E+01 -0.14599155714E+03  0.14610528860E+03  0.00000000000E+00 0.  1.
<mgrwt>
<rscale>  0 0.79025406E+02</rscale>
<asrwt>0</asrwt>
<pdfrwt beam="1">  1        2 0.84868195E-01 0.79025406E+02</pdfrwt>
<pdfrwt beam="2">  1       -1 0.43541340E-03 0.79025406E+02</pdfrwt>
<totfact> 0.32408575E+05</totfact>
</mgrwt>
</event>
<event>
 8    1  0.2561077E-016  0.7913858E+02  0.7818608E-02  0.1331514E+00
          2   -1    0    0  501    0  0.00000000000E+00  0.00000000000E+00  0.72818967592E+02  0.72818967637E+02  0.25500000000E-02 0. -1.
         -1   -1    0    0    0  501 -0.00000000000E+00 -0.00000000000E+00 -0.21501661908E+02  0.21501662498E+02  0.50400000000E-02 0.  1.
         24    2    1    2    0    0  0.00000000000E+00 -0.88817841970E-15  0.51317305685E+02  0.94320630135E+02  0.79138583550E+02 0.  0.
         66    2    3    3    0    0 -0.24680866569E+02 -0.67867479612E+01  0.61599051832E+02  0.66735659765E+02  0.19999937905E+01 0.  0.
        -13    1    3    3    0    0  0.24680866569E+02  0.67867479612E+01 -0.10281746147E+02  0.27584970371E+02  0.10566000000E+00 0.  1.
         13    1    4    4    0    0 -0.14095103730E+02 -0.43208177816E+01  0.33634095579E+02  0.36723357212E+02  0.10566000000E+00 0. -1.
        -13    1    4    4    0    0 -0.27897594055E+01 -0.97685148819E+00  0.74998227939E+01  0.80619788109E+01  0.10566000000E+00 0.  1.
         14    1    4    4    0    0 -0.77960034329E+01 -0.14890786914E+01  0.20465133459E+02  0.21950323741E+02  0.00000000000E+00 0. -1.
<mgrwt>
<rscale>  0 0.79138584E+02</rscale>
<asrwt>0</asrwt>
<pdfrwt beam="1">  1        2 0.11202918E-01 0.79138584E+02</pdfrwt>
<pdfrwt beam="2">  1       -1 0.33079480E-02 0.79138584E+02</pdfrwt>
<totfact> 0.16788019E+05</totfact>
</mgrwt>
</event>
<event>
 8    1  0.2561077E-016  0.7982837E+02  0.7818608E-02  0.1329539E+00
          2   -1    0    0  501    0  0.00000000000E+00  0.00000000000E+00  0.61657693416E+02  0.61657693469E+02  0.25500000000E-02 0. -1.
         -1   -1    0    0    0  501 -0.00000000000E+00 -0.00000000000E+00 -0.25838496454E+02  0.25838496946E+02  0.50400000000E-02 0.  1.
         24    2    1    2    0    0 -0.88817841970E-15  0.00000000000E+00  0.35819196962E+02  0.87496190415E+02  0.79828368805E+02 0.  0.
         66    2    3    3    0    0 -0.72115952334E+01  0.91102056540E+01  0.59745485277E+02  0.60897668098E+02  0.20000039911E+01 0.  0.
        -13    1    3    3    0    0  0.72115952334E+01 -0.91102056540E+01 -0.23926288315E+02  0.26598522317E+02  0.10566000000E+00 0.  1.
         13    1    4    4    0    0 -0.14931874183E+01  0.22179746890E+01  0.10635049499E+02  0.10966515502E+02  0.10566000000E+00 0. -1.
        -13    1    4    4    0    0 -0.85330211144E+00  0.16038323509E+01  0.10911181792E+02  0.11061892009E+02  0.10566000000E+00 0.  1.
         14    1    4    4    0    0 -0.48651057037E+01  0.52883986142E+01  0.38199253986E+02  0.38869260586E+02  0.00000000000E+00 0. -1.
<mgrwt>
<rscale>  0 0.79828369E+02</rscale>
<asrwt>0</asrwt>
<pdfrwt beam="1">  1        2 0.94857989E-02 0.79828369E+02</pdfrwt>
<pdfrwt beam="2">  1       -1 0.39751534E-02 0.79828369E+02</pdfrwt>
<totfact> 0.15756654E+05</totfact>
</mgrwt>
</event>
<event>
 8    1  0.2561077E-016  0.8218620E+02  0.7818608E-02  0.1322959E+00
         -1   -1    0    0    0  501 -0.00000000000E+00  0.00000000000E+00  0.12018739386E+02  0.12018740443E+02  0.50400000000E-02 0.  1.
          2   -1    0    0  501    0  0.00000000000E+00 -0.00000000000E+00 -0.14050083540E+03  0.14050083542E+03  0.25500000000E-02 0. -1.
         24    2    1    2    0    0  0.35527136788E-14  0.35527136788E-14 -0.12848209601E+03  0.15251957586E+03  0.82186203379E+02 0.  0.
         66    2    3    3    0    0  0.26581262417E+02  0.19825961558E+02 -0.10924121537E+03  0.11418088893E+03  0.19999998130E+01 0.  0.
        -13    1    3    3    0    0 -0.26581262417E+02 -0.19825961558E+02 -0.19240880641E+02  0.38338686927E+02  0.10566000000E+00 0.  1.
         13    1    4    4    0    0  0.15579115000E+02  0.11087520982E+02 -0.61289071743E+02  0.64202830349E+02  0.10566000000E+00 0.  1.
        -13    1    4    4    0    0  0.82298587782E+01  0.59871584173E+01 -0.34293248670E+02  0.35771702641E+02  0.10566000000E+00 0. -1.
        -14    1    4    4    0    0  0.27722886383E+01  0.27512821593E+01 -0.13658894956E+02  0.14206355945E+02  0.00000000000E+00 0.  1.
<mgrwt>
<rscale>  0 0.82186203E+02</rscale>
<asrwt>0</asrwt>
<pdfrwt beam="1">  1        2 0.21615512E-01 0.82186203E+02</pdfrwt>
<pdfrwt beam="2">  1       -1 0.18490370E-02 0.82186203E+02</pdfrwt>
<totfact> 0.18258186E+05</totfact>
</mgrwt>
</event>
<event>
 8    1  0.2561077E-016  0.8024876E+02  0.7818608E-02  0.1328347E+00
         -1   -1    0    0    0  501 -0.00000000000E+00  0.00000000000E+00  0.11965133415E+03  0.11965133425E+03  0.50400000000E-02 0.  1.
          2   -1    0    0  501    0  0.00000000000E+00 -0.00000000000E+00 -0.13455478610E+02  0.13455478851E+02  0.25500000000E-02 0. -1.
         24    2    1    2    0    0  0.71054273576E-14  0.00000000000E+00  0.10619585554E+03  0.13310681310E+03  0.80248762991E+02 0.  0.
         66    2    3    3    0    0  0.31307351585E+02 -0.22723858338E+02  0.70640434260E+02  0.80564228973E+02  0.20000091268E+01 0.  0.
        -13    1    3    3    0    0 -0.31307351585E+02  0.22723858338E+02  0.35555421276E+02  0.52542584131E+02  0.10566000000E+00 0.  1.
         13    1    4    4    0    0  0.19644489090E+02 -0.14680515267E+02  0.44986204911E+02  0.51236639980E+02  0.10566000000E+00 0. -1.
        -13    1    4    4    0    0  0.26730344750E+01 -0.15206577494E+01  0.63467540264E+01  0.70533654381E+01  0.10566000000E+00 0.  1.
        -14    1    4    4    0    0  0.89898280198E+01 -0.65226853215E+01  0.19307475323E+02  0.22274223555E+02  0.00000000000E+00 0.  1.
<mgrwt>
<rscale>  0 0.80248763E+02</rscale>
<asrwt>0</asrwt>
<pdfrwt beam="1">  1        2 0.20700736E-02 0.80248763E+02</pdfrwt>
<pdfrwt beam="2">  1       -1 0.18407898E-01 0.80248763E+02</pdfrwt>
<totfact> 0.11303624E+05</totfact>
</mgrwt>
</event>
<event>
 8    1  0.2561077E-016  0.8082612E+02  0.7818608E-02  0.1326723E+00
          2   -1    0    0  501    0  0.00000000000E+00  0.00000000000E+00  0.51719118322E+02  0.51719118385E+02  0.25500000000E-02 0. -1.
         -1   -1    0    0    0  501 -0.00000000000E+00 -0.00000000000E+00 -0.31578562719E+02  0.31578563122E+02  0.50400000000E-02 0.  1.
         24    2    1    2    0    0  0.17763568394E-14 -0.71054273576E-14  0.20140555603E+02  0.83297681506E+02  0.80826120557E+02 0.  0.
         66    2    3    3    0    0 -0.11324271249E+02  0.38195878536E+02  0.16916101711E+02  0.43328036482E+02  0.19999979507E+01 0.  0.
        -13    1    3    3    0    0  0.11324271249E+02 -0.38195878536E+02  0.32244538918E+01  0.39969645025E+02  0.10566000000E+00 0.  1.
         13    1    4    4    0    0 -0.11883763853E+01  0.47341897783E+01  0.17712259305E+01  0.51935726261E+01  0.10566000000E+00 0. -1.
        -13    1    4    4    0    0 -0.17818485149E-01  0.46946662470E+00  0.11793148799E+00  0.49577039200E+00  0.10566000000E+00 0.  1.
        -14    1    4    4    0    0 -0.10118076379E+02  0.32992222133E+02  0.15026944292E+02  0.37638693463E+02  0.00000000000E+00 0.  1.
<mgrwt>
<rscale>  0 0.80826121E+02</rscale>
<asrwt>0</asrwt>
<pdfrwt beam="1">  1        2 0.79567875E-02 0.80826121E+02</pdfrwt>
<pdfrwt beam="2">  1       -1 0.48582404E-02 0.80826121E+02</pdfrwt>
<totfact> 0.14636414E+05</totfact>
</mgrwt>
</event>
<event>
 8    1  0.2561077E-016  0.8045057E+02  0.7818608E-02  0.1327778E+00
          2   -1    0    0  501    0  0.00000000000E+00  0.00000000000E+00  0.31121250406E+02  0.31121250510E+02  0.25500000000E-02 0. -1.
         -1   -1    0    0    0  501 -0.00000000000E+00 -0.00000000000E+00 -0.51992561701E+02  0.51992561945E+02  0.50400000000E-02 0.  1.
         24    2    1    2    0    0  0.00000000000E+00  0.00000000000E+00 -0.20871311295E+02  0.83113812456E+02  0.80450569829E+02 0.  0.
         66    2    3    3    0    0  0.16605041108E+02 -0.69302028061E+01  0.26696725700E+02  0.32256321279E+02  0.19999995616E+01 0.  0.
        -13    1    3    3    0    0 -0.16605041108E+02  0.69302028061E+01 -0.47568036995E+02  0.50857491176E+02  0.10566000000E+00 0.  1.
         13    1    4    4    0    0  0.80065010237E+01 -0.33380302898E+01  0.11818986677E+02  0.14661040719E+02  0.10566000000E+00 0. -1.
        -13    1    4    4    0    0  0.47492897015E+01 -0.16582064182E+01  0.70639907942E+01  0.86727464607E+01  0.10566000000E+00 0.  1.
        -14    1    4    4    0    0  0.38492503826E+01 -0.19339660981E+01  0.78137482286E+01  0.89225340995E+01  0.00000000000E+00 0.  1.
<mgrwt>
<rscale>  0 0.80450570E+02</rscale>
<asrwt>0</asrwt>
<pdfrwt beam="1">  1        2 0.47878847E-02 0.80450570E+02</pdfrwt>
<pdfrwt beam="2">  1       -1 0.79988557E-02 0.80450570E+02</pdfrwt>
<totfact> 0.13341781E+05</totfact>
</mgrwt>
</event>
<event>
 8    1  0.2561077E-016  0.7976578E+02  0.7818608E-02  0.1329717E+00
         -1   -1    0    0    0  501 -0.00000000000E+00  0.00000000000E+00  0.27265355148E+01  0.27265401730E+01  0.50400000000E-02 0.  1.
          2   -1    0    0  501    0  0.00000000000E+00 -0.00000000000E+00 -0.58339365101E+03  0.58339365102E+03  0.25500000000E-02 0. -1.
         24    2    1    2    0    0  0.00000000000E+00  0.00000000000E+00 -0.58066711550E+03  0.58612019119E+03  0.79765779012E+02 0.  0.
         66    2    3    3    0    0 -0.20595876400E+02 -0.27491169255E+02 -0.43906283172E+03  0.44040904248E+03  0.19999961786E+01 0.  0.
        -13    1    3    3    0    0  0.20595876400E+02  0.27491169255E+02 -0.14160428378E+03  0.14571114871E+03  0.10566000000E+00 0.  1.
         13    1    4    4    0    0 -0.12368977126E+02 -0.16145083139E+02 -0.26550376743E+03  0.26628164974E+03  0.10566000000E+00 0. -1.
        -13    1    4    4    0    0 -0.21448450716E+01 -0.35740670677E+01 -0.47558060515E+02  0.47740492245E+02  0.10566000000E+00 0.  1.
        -14    1    4    4    0    0 -0.60820542024E+01 -0.77720190484E+01 -0.12600100378E+03  0.12638690049E+03  0.00000000000E+00 0.  1.
<mgrwt>
<rscale>  0 0.79765779E+02</rscale>
<asrwt>0</asrwt>
<pdfrwt beam="1">  1        2 0.89752770E-01 0.79765779E+02</pdfrwt>
<pdfrwt beam="2">  1       -1 0.41946783E-03 0.79765779E+02</pdfrwt>
<totfact> 0.32154258E+05</totfact>
</mgrwt>
</event>
<event>
 8    1  0.2561077E-016  0.7993471E+02  0.7818608E-02  0.1329237E+00
         -1   -1    0    0    0  501 -0.00000000000E+00  0.00000000000E+00  0.63681856732E+01  0.63681876677E+01  0.50400000000E-02 0.  1.
          2   -1    0    0  501    0  0.00000000000E+00 -0.00000000000E+00 -0.25083895381E+03  0.25083895382E+03  0.25500000000E-02 0. -1.
         24    2    1    2    0    0 -0.17763568394E-14  0.71054273576E-14 -0.24447076814E+03  0.25720714149E+03  0.79934705607E+02 0.  0.
         66    2    3    3    0    0  0.14695661613E+02 -0.29948548994E+02 -0.19299211311E+03  0.19586432493E+03  0.19999993781E+01 0.  0.
        -13    1    3    3    0    0 -0.14695661613E+02  0.29948548994E+02 -0.51478655023E+02  0.61342816565E+02  0.10566000000E+00 0.  1.
         13    1    4    4    0    0  0.32946205139E+01 -0.60129815621E+01 -0.37892060516E+02  0.38507530248E+02  0.10566000000E+00 0. -1.
        -13    1    4    4    0    0  0.37283307885E+01 -0.83189146698E+01 -0.57384758249E+02  0.58104444194E+02  0.10566000000E+00 0.  1.
        -14    1    4    4    0    0  0.76727103107E+01 -0.15616652762E+02 -0.97715294349E+02  0.99252350484E+02  0.00000000000E+00 0.  1.
<mgrwt>
<rscale>  0 0.79934706E+02</rscale>
<asrwt>0</asrwt>
<pdfrwt beam="1">  1        2 0.38590601E-01 0.79934706E+02</pdfrwt>
<pdfrwt beam="2">  1       -1 0.97972122E-03 0.79934706E+02</pdfrwt>
<totfact> 0.23948378E+05</totfact>
</mgrwt>
</event>
<event>
 8    1  0.2561077E-016  0.7908830E+02  0.7818608E-02  0.1331659E+00
          2   -1    0    0  501    0  0.00000000000E+00  0.00000000000E+00  0.29865150360E+03  0.29865150361E+03  0.25500000000E-02 0. -1.
         -1   -1    0    0    0  501 -0.00000000000E+00 -0.00000000000E+00 -0.52360009741E+01  0.52360033998E+01  0.50400000000E-02 0.  1.
         24    2    1    2    0    0 -0.35527136788E-14  0.00000000000E+00  0.29341550263E+03  0.30388750701E+03  0.79088303408E+02 0.  0.
         66    2    3    3    0    0 -0.24839845761E+02 -0.14538305673E+02  0.25085503299E+03  0.25250866887E+03  0.20000019499E+01 0.  0.
        -13    1    3    3    0    0  0.24839845761E+02  0.14538305673E+02  0.42560469638E+02  0.51378838145E+02  0.10566000000E+00 0.  1.
         13    1    4    4    0    0 -0.39648235002E+01 -0.22310839209E+01  0.42870166112E+02  0.43111017935E+02  0.10566000000E+00 0. -1.
        -13    1    4    4    0    0 -0.14974608813E+02 -0.88025443449E+01  0.14285377555E+03  0.14390599726E+03  0.10566000000E+00 0.  1.
        -14    1    4    4    0    0 -0.59004134479E+01 -0.35046774073E+01  0.65131091330E+02  0.65491653670E+02  0.00000000000E+00 0.  1.
<mgrwt>
<rscale>  0 0.79088303E+02</rscale>
<asrwt>0</asrwt>
<pdfrwt beam="1">  1        2 0.45946396E-01 0.79088303E+02</pdfrwt>
<pdfrwt beam="2">  1       -1 0.80553862E-03 0.79088303E+02</pdfrwt>
<totfact> 0.26229008E+05</totfact>
</mgrwt>
</event>
<event>
 8    1  0.2561077E-016  0.8243518E+02  0.7818608E-02  0.1322279E+00
          2   -1    0    0  501    0  0.00000000000E+00  0.00000000000E+00  0.46228176654E+03  0.46228176655E+03  0.25500000000E-02 0. -1.
         -1   -1    0    0    0  501 -0.00000000000E+00 -0.00000000000E+00 -0.36750075256E+01  0.36750109816E+01  0.50400000000E-02 0.  1.
         24    2    1    2    0    0  0.00000000000E+00  0.88817841970E-15  0.45860675902E+03  0.46595677753E+03  0.82435181271E+02 0.  0.
         66    2    3    3    0    0 -0.40437064483E+02  0.78564579084E+01  0.22982424425E+03  0.23349531762E+03  0.19999981214E+01 0.  0.
        -13    1    3    3    0    0  0.40437064483E+02 -0.78564579084E+01  0.22878251477E+03  0.23246145991E+03  0.10566000000E+00 0.  1.
         13    1    4    4    0    0 -0.32791103365E+02  0.64090212195E+01  0.18412314858E+03  0.18713010720E+03  0.10566000000E+00 0. -1.
        -13    1    4    4    0    0 -0.55095452422E+01  0.12806057453E+01  0.31651196262E+02  0.32152829248E+02  0.10566000000E+00 0.  1.
        -14    1    4    4    0    0 -0.21364158760E+01  0.16683094359E+00  0.14049899406E+02  0.14212381176E+02  0.00000000000E+00 0.  1.
<mgrwt>
<rscale>  0 0.82435181E+02</rscale>
<asrwt>0</asrwt>
<pdfrwt beam="1">  1        2 0.71120274E-01 0.82435181E+02</pdfrwt>
<pdfrwt beam="2">  1       -1 0.56538602E-03 0.82435181E+02</pdfrwt>
<totfact> 0.27447790E+05</totfact>
</mgrwt>
</event>
<event>
 8    1  0.2561077E-016  0.7884999E+02  0.7818608E-02  0.1332347E+00
          2   -1    0    0  501    0  0.00000000000E+00  0.00000000000E+00  0.75485820592E+03  0.75485820593E+03  0.25500000000E-02 0. -1.
         -1   -1    0    0    0  501 -0.00000000000E+00 -0.00000000000E+00 -0.20590989571E+01  0.20591051252E+01  0.50400000000E-02 0.  1.
         24    2    1    2    0    0 -0.35527136788E-14  0.00000000000E+00  0.75279910697E+03  0.75691731105E+03  0.78849986191E+02 0.  0.
         66    2    3    3    0    0 -0.29995600292E+02  0.10355678328E+02  0.60081444472E+03  0.60165519451E+03  0.19999972414E+01 0.  0.
        -13    1    3    3    0    0  0.29995600292E+02 -0.10355678328E+02  0.15198466225E+03  0.15526211654E+03  0.10566000000E+00 0.  1.
         13    1    4    4    0    0 -0.13795163559E+02  0.49475755636E+01  0.26533105012E+03  0.26573551205E+03  0.10566000000E+00 0. -1.
        -13    1    4    4    0    0 -0.63977965425E+01  0.23011655602E+01  0.12362305139E+03  0.12380992352E+03  0.10566000000E+00 0.  1.
        -14    1    4    4    0    0 -0.98026401907E+01  0.31069372039E+01  0.21186034321E+03  0.21210975894E+03  0.00000000000E+00 0.  1.
<mgrwt>
<rscale>  0 0.78849986E+02</rscale>
<asrwt>0</asrwt>
<pdfrwt beam="1">  1        2 0.11613204E+00 0.78849986E+02</pdfrwt>
<pdfrwt beam="2">  1       -1 0.31678491E-03 0.78849986E+02</pdfrwt>
<totfact> 0.35299182E+05</totfact>
</mgrwt>
</event>
<event>
 8    1  0.2561077E-016  0.7986403E+02  0.7818608E-02  0.1329438E+00
          2   -1    0    0  501    0  0.00000000000E+00  0.00000000000E+00  0.79215106107E+03  0.79215106108E+03  0.25500000000E-02 0. -1.
         -1   -1    0    0    0  501 -0.00000000000E+00 -0.00000000000E+00 -0.20129536340E+01  0.20129599435E+01  0.50400000000E-02 0.  1.
         24    2    1    2    0    0  0.00000000000E+00  0.00000000000E+00  0.79013810744E+03  0.79416402102E+03  0.79864031054E+02 0.  0.
         66    2    3    3    0    0 -0.11282405941E+02  0.23863887968E+02  0.69293495282E+03  0.69344042764E+03  0.20000011401E+01 0.  0.
        -13    1    3    3    0    0  0.11282405941E+02 -0.23863887968E+02  0.97203154613E+02  0.10072359338E+03  0.10566000000E+00 0.  1.
         13    1    4    4    0    0 -0.31019932315E+01  0.55139056629E+01  0.17060771428E+03  0.17072500945E+03  0.10566000000E+00 0. -1.
        -13    1    4    4    0    0 -0.54912230211E+01  0.13843862418E+02  0.38658219880E+03  0.38686898771E+03  0.10566000000E+00 0.  1.
        -14    1    4    4    0    0 -0.26891896880E+01  0.45061198878E+01  0.13574503975E+03  0.13584643048E+03  0.00000000000E+00 0.  1.
<mgrwt>
<rscale>  0 0.79864031E+02</rscale>
<asrwt>0</asrwt>
<pdfrwt beam="1">  1        2 0.12186926E+00 0.79864031E+02</pdfrwt>
<pdfrwt beam="2">  1       -1 0.30968601E-03 0.79864031E+02</pdfrwt>
<totfact> 0.34458400E+05</totfact>
</mgrwt>
</event>
<event>
 8    1  0.2561077E-016  0.8051784E+02  0.7818608E-02  0.1327588E+00
         -1   -1    0    0    0  501 -0.00000000000E+00  0.00000000000E+00  0.57710649110E+01  0.57710671118E+01  0.50400000000E-02 0.  1.
          2   -1    0    0  501    0  0.00000000000E+00 -0.00000000000E+00 -0.28084596087E+03  0.28084596088E+03  0.25500000000E-02 0. -1.
         24    2    1    2    0    0 -0.88817841970E-15  0.00000000000E+00 -0.27507489596E+03  0.28661702799E+03  0.80517838700E+02 0.  0.
         66    2    3    3    0    0 -0.52496309184E+01  0.15502555720E+02 -0.26845573660E+03  0.26896165223E+03  0.19999999211E+01 0.  0.
        -13    1    3    3    0    0  0.52496309184E+01 -0.15502555720E+02 -0.66191593614E+01  0.17655375763E+02  0.10566000000E+00 0.  1.
         13    1    4    4    0    0 -0.32235514452E+01  0.10717724783E+02 -0.18849375618E+03  0.18882576146E+03  0.10566000000E+00 0. -1.
        -13    1    4    4    0    0 -0.31683986065E+00  0.13305534563E+01 -0.16461923125E+02  0.16518984140E+02  0.10566000000E+00 0.  1.
        -14    1    4    4    0    0 -0.17092396126E+01  0.34542774814E+01 -0.63500057291E+02  0.63616906629E+02  0.00000000000E+00 0.  1.
<mgrwt>
<rscale>  0 0.80517839E+02</rscale>
<asrwt>0</asrwt>
<pdfrwt beam="1">  1        2 0.43207060E-01 0.80517839E+02</pdfrwt>
<pdfrwt beam="2">  1       -1 0.88785653E-03 0.80517839E+02</pdfrwt>
<totfact> 0.24474312E+05</totfact>
</mgrwt>
</event>
<event>
 8    1  0.2561077E-016  0.8681091E+02  0.7818608E-02  0.1310764E+00
         -1   -1    0    0    0  501 -0.00000000000E+00  0.00000000000E+00  0.10553289821E+02  0.10553291025E+02  0.50400000000E-02 0.  1.
          2   -1    0    0  501    0  0.00000000000E+00 -0.00000000000E+00 -0.17852569071E+03  0.17852569073E+03  0.25500000000E-02 0. -1.
         24    2    1    2    0    0  0.00000000000E+00  0.00000000000E+00 -0.16797240089E+03  0.18907898176E+03  0.86810908765E+02 0.  0.
         66    2    3    3    0    0  0.36724664977E+02 -0.20366752398E+02 -0.10774274675E+03  0.11565468045E+03  0.20000026794E+01 0.  0.
        -13    1    3    3    0    0 -0.36724664977E+02  0.20366752398E+02 -0.60229654137E+02  0.73424301307E+02  0.10566000000E+00 0.  1.
         13    1    4    4    0    0  0.22160178666E+01 -0.89088793962E+00 -0.64105990788E+01  0.68418828615E+01  0.10566000000E+00 0. -1.
        -13    1    4    4    0    0  0.11957066390E+02 -0.72477857301E+01 -0.34442727920E+02  0.37172765639E+02  0.10566000000E+00 0.  1.
         14    1    4    4    0    0  0.22551580720E+02 -0.12228078729E+02 -0.66889419755E+02  0.71640031948E+02  0.00000000000E+00 0. -1.
<mgrwt>
<rscale>  0 0.86810909E+02</rscale>
<asrwt>0</asrwt>
<pdfrwt beam="1">  1        2 0.27465489E-01 0.86810909E+02</pdfrwt>
<pdfrwt beam="2">  1       -1 0.16235833E-02 0.86810909E+02</pdfrwt>
<totfact> 0.17076777E+05</totfact>
</mgrwt>
</event>
<event>
 8    1  0.2561077E-016  0.7995863E+02  0.7818608E-02  0.1329169E+00
         -1   -1    0    0    0  501 -0.00000000000E+00  0.00000000000E+00  0.20726916474E+01  0.20726977751E+01  0.50400000000E-02 0.  1.
          2   -1    0    0  501    0  0.00000000000E+00 -0.00000000000E+00 -0.77114370963E+03  0.77114370963E+03  0.25500000000E-02 0. -1.
         24    2    1    2    0    0  0.35527136788E-14  0.35527136788E-14 -0.76907101798E+03  0.77321640741E+03  0.79958626714E+02 0.  0.
         66    2    3    3    0    0  0.20816621052E+02  0.17377148581E+02 -0.66853353514E+03  0.66908623107E+03  0.19999976447E+01 0.  0.
        -13    1    3    3    0    0 -0.20816621052E+02 -0.17377148581E+02 -0.10053748284E+03  0.10413017634E+03  0.10566000000E+00 0.  1.
         13    1    4    4    0    0  0.84157407358E+01  0.72447234647E+01 -0.27132551166E+03  0.27155267473E+03  0.10566000000E+00 0. -1.
        -13    1    4    4    0    0  0.10206438139E+02  0.75749177366E+01 -0.31031331901E+03  0.31057353055E+03  0.10566000000E+00 0.  1.
        -14    1    4    4    0    0  0.21944421772E+01  0.25575073797E+01 -0.86894704473E+02  0.86960025793E+02  0.00000000000E+00 0.  1.
<mgrwt>
<rscale>  0 0.79958627E+02</rscale>
<asrwt>0</asrwt>
<pdfrwt beam="1">  1        2 0.11863726E+00 0.79958627E+02</pdfrwt>
<pdfrwt beam="2">  1       -1 0.31887673E-03 0.79958627E+02</pdfrwt>
<totfact> 0.34183784E+05</totfact>
</mgrwt>
</event>
<event>
 8    1  0.2561077E-016  0.7326411E+02  0.7818608E-02  0.1349332E+00
          2   -1    0    0  501    0  0.00000000000E+00  0.00000000000E+00  0.26044205609E+02  0.26044205734E+02  0.25500000000E-02 0. -1.
         -1   -1    0    0    0  501 -0.00000000000E+00 -0.00000000000E+00 -0.51524228312E+02  0.51524228559E+02  0.50400000000E-02 0.  1.
         24    2    1    2    0    0 -0.35527136788E-14 -0.17763568394E-14 -0.25480022703E+02  0.77568434292E+02  0.73264114283E+02 0.  0.
         66    2    3    3    0    0  0.28196253170E+02  0.10096715805E+02  0.95328956888E+01  0.31493625761E+02  0.20000001166E+01 0.  0.
        -13    1    3    3    0    0 -0.28196253170E+02 -0.10096715805E+02 -0.35012918392E+02  0.46074808532E+02  0.10566000000E+00 0.  1.
         13    1    4    4    0    0  0.10816700388E+02  0.42829058620E+01  0.42074266384E+01  0.12371656836E+02  0.10566000000E+00 0. -1.
        -13    1    4    4    0    0  0.14586764175E+02  0.44262900217E+01  0.45512046729E+01  0.15908813923E+02  0.10566000000E+00 0.  1.
        -14    1    4    4    0    0  0.27927886074E+01  0.13875199212E+01  0.77426437741E+00  0.32131550015E+01  0.00000000000E+00 0.  1.
<mgrwt>
<rscale>  0 0.73264114E+02</rscale>
<asrwt>0</asrwt>
<pdfrwt beam="1">  1        2 0.40068009E-02 0.73264114E+02</pdfrwt>
<pdfrwt beam="2">  1       -1 0.79268044E-02 0.73264114E+02</pdfrwt>
<totfact> 0.16740784E+05</totfact>
</mgrwt>
</event>
<event>
 8    1  0.2561077E-016  0.7854822E+02  0.7818608E-02  0.1333223E+00
          2   -1    0    0  501    0  0.00000000000E+00  0.00000000000E+00  0.23229068281E+02  0.23229068421E+02  0.25500000000E-02 0. -1.
         -1   -1    0    0    0  501 -0.00000000000E+00 -0.00000000000E+00 -0.66401954313E+02  0.66401954504E+02  0.50400000000E-02 0.  1.
         24    2    1    2    0    0 -0.35527136788E-14  0.17763568394E-14 -0.43172886031E+02  0.89631022925E+02  0.78548215653E+02 0.  0.
         66    2    3    3    0    0 -0.28026177876E+02  0.11579985062E+02  0.68329903206E+01  0.31148875785E+02  0.20000013837E+01 0.  0.
        -13    1    3    3    0    0  0.28026177876E+02 -0.11579985062E+02 -0.50005876352E+02  0.58482147140E+02  0.10566000000E+00 0.  1.
         13    1    4    4    0    0 -0.63154019678E+01  0.25820681013E+01  0.14212203786E+01  0.69701082556E+01  0.10566000000E+00 0. -1.
        -13    1    4    4    0    0 -0.18098254105E+02  0.80269654028E+01  0.49622434113E+01  0.20411124392E+02  0.10566000000E+00 0.  1.
        -14    1    4    4    0    0 -0.36125218032E+01  0.97095155826E+00  0.44952653076E+00  0.37676431372E+01  0.00000000000E+00 0.  1.
<mgrwt>
<rscale>  0 0.78548216E+02</rscale>
<asrwt>0</asrwt>
<pdfrwt beam="1">  1        2 0.35737029E-02 0.78548216E+02</pdfrwt>
<pdfrwt beam="2">  1       -1 0.10215685E-01 0.78548216E+02</pdfrwt>
<totfact> 0.13475977E+05</totfact>
</mgrwt>
</event>
<event>
 8    1  0.2561077E-016  0.7970412E+02  0.7818608E-02  0.1329893E+00
         -1   -1    0    0    0  501 -0.00000000000E+00  0.00000000000E+00  0.16708711335E+02  0.16708712095E+02  0.50400000000E-02 0.  1.
          2   -1    0    0  501    0  0.00000000000E+00 -0.00000000000E+00 -0.95051410732E+02  0.95051410766E+02  0.25500000000E-02 0. -1.
         24    2    1    2    0    0  0.71054273576E-14 -0.35527136788E-14 -0.78342699397E+02  0.11176012286E+03  0.79704118545E+02 0.  0.
         66    2    3    3    0    0 -0.28568964053E+02  0.18334654766E+02 -0.68401744227E+02  0.76388113783E+02  0.20000104058E+01 0.  0.
        -13    1    3    3    0    0  0.28568964053E+02 -0.18334654766E+02 -0.99409551699E+01  0.35372009077E+02  0.10566000000E+00 0.  1.
         13    1    4    4    0    0 -0.17437316176E+02  0.12229448353E+02 -0.42959248165E+02  0.47949218653E+02  0.10566000000E+00 0. -1.
        -13    1    4    4    0    0 -0.29555887574E+01  0.14035666181E+01 -0.67249339018E+01  0.74793986506E+01  0.10566000000E+00 0.  1.
         14    1    4    4    0    0 -0.81760591191E+01  0.47016397942E+01 -0.18717562160E+02  0.20959496480E+02  0.00000000000E+00 0. -1.
<mgrwt>
<rscale>  0 0.79704119E+02</rscale>
<asrwt>0</asrwt>
<pdfrwt beam="1">  1        2 0.14623294E-01 0.79704119E+02</pdfrwt>
<pdfrwt beam="2">  1       -1 0.25705711E-02 0.79704119E+02</pdfrwt>
<totfact> 0.17652733E+05</totfact>
</mgrwt>
</event>
<event>
 8    1  0.2561077E-016  0.7559095E+02  0.7818608E-02  0.1342051E+00
         -1   -1    0    0    0  501 -0.00000000000E+00  0.00000000000E+00  0.38931869975E+01  0.38931902599E+01  0.50400000000E-02 0.  1.
          2   -1    0    0  501    0  0.00000000000E+00 -0.00000000000E+00 -0.36692237187E+03  0.36692237188E+03  0.25500000000E-02 0. -1.
         24    2    1    2    0    0  0.00000000000E+00 -0.35527136788E-14 -0.36302918488E+03  0.37081556214E+03  0.75590952204E+02 0.  0.
         66    2    3    3    0    0 -0.67284455297E+01 -0.19739472484E+02 -0.33611366522E+03  0.33676596427E+03  0.19999966902E+01 0.  0.
        -13    1    3    3    0    0  0.67284455297E+01  0.19739472484E+02 -0.26915519657E+02  0.34049597878E+02  0.10566000000E+00 0.  1.
         13    1    4    4    0    0 -0.24609629191E+01 -0.69083576900E+01 -0.11586590494E+03  0.11609780719E+03  0.10566000000E+00 0. -1.
        -13    1    4    4    0    0 -0.31809234225E+01 -0.10605385669E+02 -0.18768572378E+03  0.18801205960E+03  0.10566000000E+00 0.  1.
        -14    1    4    4    0    0 -0.10865591881E+01 -0.22257291249E+01 -0.32562036500E+02  0.32656097471E+02  0.00000000000E+00 0.  1.
<mgrwt>
<rscale>  0 0.75590952E+02</rscale>
<asrwt>0</asrwt>
<pdfrwt beam="1">  1        2 0.56449568E-01 0.75590952E+02</pdfrwt>
<pdfrwt beam="2">  1       -1 0.59895239E-03 0.75590952E+02</pdfrwt>
<totfact> 0.31771965E+05</totfact>
</mgrwt>
</event>
<event>
 8    1  0.2561077E-016  0.7833442E+02  0.7818608E-02  0.1333846E+00
          2   -1    0    0  501    0  0.00000000000E+00  0.00000000000E+00  0.12140969544E+03  0.12140969547E+03  0.25500000000E-02 0. -1.
         -1   -1    0    0    0  501 -0.00000000000E+00 -0.00000000000E+00 -0.12635484750E+02  0.12635485756E+02  0.50400000000E-02 0.  1.
         24    2    1    2    0    0  0.00000000000E+00  0.00000000000E+00  0.10877421069E+03  0.13404518122E+03  0.78334422177E+02 0.  0.
         66    2    3    3    0    0 -0.12492415712E+02 -0.31039376384E+02  0.89179537116E+02  0.95270631153E+02  0.19999958614E+01 0.  0.
        -13    1    3    3    0    0  0.12492415712E+02  0.31039376384E+02  0.19594673573E+02  0.38774550069E+02  0.10566000000E+00 0.  1.
         13    1    4    4    0    0 -0.57957683599E+01 -0.15233939050E+02  0.44120910435E+02  0.47035409337E+02  0.10566000000E+00 0. -1.
        -13    1    4    4    0    0 -0.26305860580E+01 -0.70153896026E+01  0.21233958412E+02  0.22517278436E+02  0.10566000000E+00 0.  1.
        -14    1    4    4    0    0 -0.40660612938E+01 -0.87900477310E+01  0.23824668269E+02  0.25717943380E+02  0.00000000000E+00 0.  1.
<mgrwt>
<rscale>  0 0.78334422E+02</rscale>
<asrwt>0</asrwt>
<pdfrwt beam="1">  1        2 0.18678415E-01 0.78334422E+02</pdfrwt>
<pdfrwt beam="2">  1       -1 0.19439208E-02 0.78334422E+02</pdfrwt>
<totfact> 0.19832575E+05</totfact>
</mgrwt>
</event>
<event>
 8    1  0.2561077E-016  0.8332085E+02  0.7818608E-02  0.1319883E+00
         -1   -1    0    0    0  501 -0.00000000000E+00  0.00000000000E+00  0.17818412671E+03  0.17818412678E+03  0.50400000000E-02 0.  1.
          2   -1    0    0  501    0  0.00000000000E+00 -0.00000000000E+00 -0.97404344136E+01  0.97404347473E+01  0.25500000000E-02 0. -1.
         24    2    1    2    0    0  0.35527136788E-14  0.35527136788E-14  0.16844369230E+03  0.18792456153E+03  0.83320845839E+02 0.  0.
         66    2    3    3    0    0 -0.21942755027E+02 -0.30900517132E+02  0.45383844740E+02  0.59160965346E+02  0.20000000308E+01 0.  0.
        -13    1    3    3    0    0  0.21942755027E+02  0.30900517132E+02  0.12305984756E+03  0.12876359618E+03  0.10566000000E+00 0.  1.
         13    1    4    4    0    0 -0.14106014664E+02 -0.19970015476E+02  0.29747326117E+02  0.38505788434E+02  0.10566000000E+00 0. -1.
        -13    1    4    4    0    0 -0.63272009251E+01 -0.95079304386E+01  0.13186125367E+02  0.17444749325E+02  0.10566000000E+00 0.  1.
        -14    1    4    4    0    0 -0.15095394380E+01 -0.14225712173E+01  0.24503932552E+01  0.32104275865E+01  0.00000000000E+00 0.  1.
<mgrwt>
<rscale>  0 0.83320846E+02</rscale>
<asrwt>0</asrwt>
<pdfrwt beam="1">  1        2 0.14985285E-02 0.83320846E+02</pdfrwt>
<pdfrwt beam="2">  1       -1 0.27412940E-01 0.83320846E+02</pdfrwt>
<totfact> 0.92905600E+04</totfact>
</mgrwt>
</event>
<event>
 8    1  0.2561077E-016  0.8043882E+02  0.7818608E-02  0.1327811E+00
          2   -1    0    0  501    0  0.00000000000E+00  0.00000000000E+00  0.72267520629E+03  0.72267520630E+03  0.25500000000E-02 0. -1.
         -1   -1    0    0    0  501 -0.00000000000E+00 -0.00000000000E+00 -0.22383484101E+01  0.22383540843E+01  0.50400000000E-02 0.  1.
         24    2    1    2    0    0  0.00000000000E+00  0.00000000000E+00  0.72043685788E+03  0.72491356038E+03  0.80438820412E+02 0.  0.
         66    2    3    3    0    0  0.26649633439E+02 -0.92915764777E+01  0.61835649855E+03  0.61900346982E+03  0.20000005891E+01 0.  0.
        -13    1    3    3    0    0 -0.26649633439E+02  0.92915764777E+01  0.10208035934E+03  0.10591009056E+03  0.10566000000E+00 0.  1.
         13    1    4    4    0    0  0.15513391698E+02 -0.51699661081E+01  0.37117891732E+03  0.37153895314E+03  0.10566000000E+00 0. -1.
        -13    1    4    4    0    0  0.65136448157E+01 -0.21096043259E+01  0.13446270877E+03  0.13463695337E+03  0.10566000000E+00 0.  1.
         14    1    4    4    0    0  0.46225969254E+01 -0.20120060436E+01  0.11271487245E+03  0.11282756331E+03  0.00000000000E+00 0. -1.
<mgrwt>
<rscale>  0 0.80438820E+02</rscale>
<asrwt>0</asrwt>
<pdfrwt beam="1">  1        2 0.11118081E+00 0.80438820E+02</pdfrwt>
<pdfrwt beam="2">  1       -1 0.34436171E-03 0.80438820E+02</pdfrwt>
<totfact> 0.33214436E+05</totfact>
</mgrwt>
</event>
<event>
 8    1  0.2561077E-016  0.8042074E+02  0.7818608E-02  0.1327862E+00
         -1   -1    0    0    0  501 -0.00000000000E+00  0.00000000000E+00  0.13423268436E+02  0.13423269382E+02  0.50400000000E-02 0.  1.
          2   -1    0    0  501    0  0.00000000000E+00 -0.00000000000E+00 -0.12045305967E+03  0.12045305970E+03  0.25500000000E-02 0. -1.
         24    2    1    2    0    0  0.00000000000E+00  0.00000000000E+00 -0.10702979123E+03  0.13387632908E+03  0.80420739091E+02 0.  0.
         66    2    3    3    0    0 -0.22656103615E+02 -0.19000177230E+02 -0.98849837371E+02  0.10319688034E+03  0.19999993518E+01 0.  0.
        -13    1    3    3    0    0  0.22656103615E+02  0.19000177230E+02 -0.81799538623E+01  0.30679448740E+02  0.10566000000E+00 0.  1.
         13    1    4    4    0    0 -0.36901020807E+01 -0.32332788868E+01 -0.16259981201E+02  0.16984378070E+02  0.10566000000E+00 0. -1.
        -13    1    4    4    0    0 -0.17931330986E+02 -0.15011368187E+02 -0.76747003670E+02  0.80230839096E+02  0.10566000000E+00 0.  1.
        -14    1    4    4    0    0 -0.10346705482E+01 -0.75553015607E+00 -0.58428525001E+01  0.59816631716E+01  0.00000000000E+00 0.  1.
<mgrwt>
<rscale>  0 0.80420739E+02</rscale>
<asrwt>0</asrwt>
<pdfrwt beam="1">  1        2 0.18531239E-01 0.80420739E+02</pdfrwt>
<pdfrwt beam="2">  1       -1 0.20651184E-02 0.80420739E+02</pdfrwt>
<totfact> 0.18447707E+05</totfact>
</mgrwt>
</event>
<event>
 8    1  0.2561077E-016  0.7852612E+02  0.7818608E-02  0.1333287E+00
          2   -1    0    0  501    0  0.00000000000E+00  0.00000000000E+00  0.32182207846E+02  0.32182207947E+02  0.25500000000E-02 0. -1.
         -1   -1    0    0    0  501 -0.00000000000E+00 -0.00000000000E+00 -0.47901871055E+02  0.47901871320E+02  0.50400000000E-02 0.  1.
         24    2    1    2    0    0  0.17763568394E-14  0.17763568394E-14 -0.15719663209E+02  0.80084079267E+02  0.78526122664E+02 0.  0.
         66    2    3    3    0    0  0.13115298758E+02 -0.13155664158E+02  0.27382330845E+02  0.33149277506E+02  0.19999989272E+01 0.  0.
        -13    1    3    3    0    0 -0.13115298758E+02  0.13155664158E+02 -0.43101994054E+02  0.46934801762E+02  0.10566000000E+00 0.  1.
         13    1    4    4    0    0  0.33848263642E+01 -0.26992143526E+01  0.73859364396E+01  0.85618939939E+01  0.10566000000E+00 0. -1.
        -13    1    4    4    0    0  0.63174568301E+01 -0.73278748728E+01  0.13381772703E+02  0.16513358703E+02  0.10566000000E+00 0.  1.
         14    1    4    4    0    0  0.34130155635E+01 -0.31285749323E+01  0.66146217023E+01  0.80740248085E+01  0.00000000000E+00 0. -1.
<mgrwt>
<rscale>  0 0.78526123E+02</rscale>
<asrwt>0</asrwt>
<pdfrwt beam="1">  1        2 0.49511089E-02 0.78526123E+02</pdfrwt>
<pdfrwt beam="2">  1       -1 0.73695187E-02 0.78526123E+02</pdfrwt>
<totfact> 0.14369671E+05</totfact>
</mgrwt>
</event>
<event>
 8    1  0.2561077E-016  0.8016512E+02  0.7818608E-02  0.1328584E+00
         -1   -1    0    0    0  501 -0.00000000000E+00  0.00000000000E+00  0.62434345076E+02  0.62434345279E+02  0.50400000000E-02 0.  1.
          2   -1    0    0  501    0  0.00000000000E+00 -0.00000000000E+00 -0.25732816496E+02  0.25732816623E+02  0.25500000000E-02 0. -1.
         24    2    1    2    0    0  0.17763568394E-14  0.00000000000E+00  0.36701528579E+02  0.88167161902E+02  0.80165118585E+02 0.  0.
         66    2    3    3    0    0  0.13183768819E+02  0.30933844516E+02  0.42304194658E+02  0.54077346296E+02  0.19999999890E+01 0.  0.
        -13    1    3    3    0    0 -0.13183768819E+02 -0.30933844516E+02 -0.56026660787E+01  0.34089815606E+02  0.10566000000E+00 0.  1.
         13    1    4    4    0    0  0.33595882230E+01  0.87084742819E+01  0.11833920029E+02  0.15072398105E+02  0.10566000000E+00 0. -1.
        -13    1    4    4    0    0  0.93891661918E+01  0.21683428955E+02  0.29263486708E+02  0.37612369659E+02  0.10566000000E+00 0.  1.
        -14    1    4    4    0    0  0.43501440455E+00  0.54194127942E+00  0.12067879211E+01  0.13925785325E+01  0.00000000000E+00 0.  1.
<mgrwt>
<rscale>  0 0.80165119E+02</rscale>
<asrwt>0</asrwt>
<pdfrwt beam="1">  1        2 0.39588949E-02 0.80165119E+02</pdfrwt>
<pdfrwt beam="2">  1       -1 0.96052838E-02 0.80165119E+02</pdfrwt>
<totfact> 0.12978677E+05</totfact>
</mgrwt>
</event>
<event>
 8    1  0.2561077E-016  0.8327277E+02  0.7818608E-02  0.1320012E+00
         -1   -1    0    0    0  501 -0.00000000000E+00  0.00000000000E+00  0.98934320195E+02  0.98934320323E+02  0.50400000000E-02 0.  1.
          2   -1    0    0  501    0  0.00000000000E+00 -0.00000000000E+00 -0.17522618961E+02  0.17522619146E+02  0.25500000000E-02 0. -1.
         24    2    1    2    0    0  0.00000000000E+00  0.00000000000E+00  0.81411701234E+02  0.11645693947E+03  0.83272766573E+02 0.  0.
         66    2    3    3    0    0 -0.40596873120E+02 -0.31859395099E+01  0.28753740339E+02  0.49890218600E+02  0.20000026855E+01 0.  0.
        -13    1    3    3    0    0  0.40596873120E+02  0.31859395099E+01  0.52657960895E+02  0.66566720870E+02  0.10566000000E+00 0.  1.
         13    1    4    4    0    0 -0.24449533825E+02 -0.21908841871E+01  0.18195722839E+02  0.30556098760E+02  0.10566000000E+00 0. -1.
        -13    1    4    4    0    0 -0.12292155679E+02 -0.10863007926E+01  0.80589816677E+01  0.14738910754E+02  0.10566000000E+00 0.  1.
         14    1    4    4    0    0 -0.38551836153E+01  0.91245469840E-01  0.24990358329E+01  0.45952090853E+01  0.00000000000E+00 0. -1.
<mgrwt>
<rscale>  0 0.83272767E+02</rscale>
<asrwt>0</asrwt>
<pdfrwt beam="1">  1        2 0.26957876E-02 0.83272767E+02</pdfrwt>
<pdfrwt beam="2">  1       -1 0.15220665E-01 0.83272767E+02</pdfrwt>
<totfact> 0.10750968E+05</totfact>
</mgrwt>
</event>
<event>
 8    1  0.2561077E-016  0.8098167E+02  0.7818608E-02  0.1326288E+00
          2   -1    0    0  501    0  0.00000000000E+00  0.00000000000E+00  0.10320170854E+02  0.10320171169E+02  0.25500000000E-02 0. -1.
         -1   -1    0    0    0  501 -0.00000000000E+00 -0.00000000000E+00 -0.15886438040E+03  0.15886438048E+03  0.50400000000E-02 0.  1.
         24    2    1    2    0    0  0.35527136788E-14  0.00000000000E+00 -0.14854420954E+03  0.16918455165E+03  0.80981666608E+02 0.  0.
         66    2    3    3    0    0 -0.22184365067E+02 -0.17407096353E+02 -0.13682728615E+02  0.31406529961E+02  0.20000012467E+01 0.  0.
        -13    1    3    3    0    0  0.22184365067E+02  0.17407096353E+02 -0.13486148093E+03  0.13777802169E+03  0.10566000000E+00 0.  1.
         13    1    4    4    0    0 -0.12988587485E+02 -0.10874112454E+02 -0.87462967529E+01  0.19064590146E+02  0.10566000000E+00 0. -1.
        -13    1    4    4    0    0 -0.48410761551E+01 -0.34623434869E+01 -0.21514914402E+01  0.63296066397E+01  0.10566000000E+00 0.  1.
         14    1    4    4    0    0 -0.43547014270E+01 -0.30706404127E+01 -0.27849404214E+01  0.60123331755E+01  0.00000000000E+00 0. -1.
<mgrwt>
<rscale>  0 0.80981667E+02</rscale>
<asrwt>0</asrwt>
<pdfrwt beam="1">  1        2 0.15877187E-02 0.80981667E+02</pdfrwt>
<pdfrwt beam="2">  1       -1 0.24440672E-01 0.80981667E+02</pdfrwt>
<totfact> 0.10304954E+05</totfact>
</mgrwt>
</event>
<event>
 8    1  0.2561077E-016  0.8048393E+02  0.7818608E-02  0.1327684E+00
         -1   -1    0    0    0  501 -0.00000000000E+00  0.00000000000E+00  0.59240528747E+01  0.59240550187E+01  0.50400000000E-02 0.  1.
          2   -1    0    0  501    0  0.00000000000E+00 -0.00000000000E+00 -0.27336272912E+03  0.27336272913E+03  0.25500000000E-02 0. -1.
         24    2    1    2    0    0  0.00000000000E+00  0.00000000000E+00 -0.26743867624E+03  0.27928678415E+03  0.80483925409E+02 0.  0.
         66    2    3    3    0    0 -0.25021624500E+02  0.10723282786E+02 -0.23652701847E+03  0.23809683105E+03  0.20000002233E+01 0.  0.
        -13    1    3    3    0    0  0.25021624500E+02 -0.10723282786E+02 -0.30911657773E+02  0.41189953103E+02  0.10566000000E+00 0.  1.
         13    1    4    4    0    0 -0.17850622112E+02  0.76472908568E+01 -0.17074535998E+03  0.17184619543E+03  0.10566000000E+00 0. -1.
        -13    1    4    4    0    0 -0.55616131100E+01  0.19810076608E+01 -0.47488939450E+02  0.47854638917E+02  0.10566000000E+00 0.  1.
         14    1    4    4    0    0 -0.16093892783E+01  0.10949842687E+01 -0.18292719045E+02  0.18395996696E+02  0.00000000000E+00 0. -1.
<mgrwt>
<rscale>  0 0.80483925E+02</rscale>
<asrwt>0</asrwt>
<pdfrwt beam="1">  1        2 0.42055795E-01 0.80483925E+02</pdfrwt>
<pdfrwt beam="2">  1       -1 0.91139313E-03 0.80483925E+02</pdfrwt>
<totfact> 0.24262747E+05</totfact>
</mgrwt>
</event>
<event>
 8    1  0.2561077E-016  0.7928711E+02  0.7818608E-02  0.1331087E+00
          2   -1    0    0  501    0  0.00000000000E+00  0.00000000000E+00  0.58881529126E+02  0.58881529181E+02  0.25500000000E-02 0. -1.
         -1   -1    0    0    0  501 -0.00000000000E+00 -0.00000000000E+00 -0.26691075573E+02  0.26691076049E+02  0.50400000000E-02 0.  1.
         24    2    1    2    0    0  0.00000000000E+00  0.88817841970E-15  0.32190453553E+02  0.85572605231E+02  0.79287107817E+02 0.  0.
         66    2    3    3    0    0 -0.11919045881E+02 -0.64777093790E+01  0.56279737816E+02  0.57926101766E+02  0.20000009041E+01 0.  0.
        -13    1    3    3    0    0  0.11919045881E+02  0.64777093790E+01 -0.24089284263E+02  0.27646503465E+02  0.10566000000E+00 0.  1.
         13    1    4    4    0    0 -0.12468659214E+01 -0.59360744647E+00  0.70602750554E+01  0.71948378940E+01  0.10566000000E+00 0. -1.
        -13    1    4    4    0    0 -0.29579351690E+01 -0.10016056281E+01  0.14370556221E+02  0.14706347080E+02  0.10566000000E+00 0. -1.
         14    1    4    4    0    0 -0.77142447902E+01 -0.48824963044E+01  0.34848906539E+02  0.36024916791E+02  0.00000000000E+00 0. -1.
<mgrwt>
<rscale>  0 0.79287108E+02</rscale>
<asrwt>0</asrwt>
<pdfrwt beam="1">  1        2 0.90586968E-02 0.79287108E+02</pdfrwt>
<pdfrwt beam="2">  1       -1 0.41063194E-02 0.79287108E+02</pdfrwt>
<totfact> 0.15881010E+05</totfact>
</mgrwt>
</event>
<event>
 8    1  0.2561077E-016  0.8004592E+02  0.7818608E-02  0.1328921E+00
         -1   -1    0    0    0  501 -0.00000000000E+00  0.00000000000E+00  0.10952797904E+01  0.10952913863E+01  0.50400000000E-02 0.  1.
          2   -1    0    0  501    0  0.00000000000E+00 -0.00000000000E+00 -0.14624837735E+04  0.14624837735E+04  0.25500000000E-02 0. -1.
         24    2    1    2    0    0  0.00000000000E+00 -0.13877787808E-16 -0.14613884937E+04  0.14635790649E+04  0.80045922029E+02 0.  0.
         66    2    3    3    0    0  0.21684082797E+02 -0.70746553563E-01 -0.13456814134E+04  0.13458575968E+04  0.20000084022E+01 0.  0.
        -13    1    3    3    0    0 -0.21684082797E+02  0.70746553563E-01 -0.11570708029E+03  0.11772146808E+03  0.10566000000E+00 0.  1.
         13    1    4    4    0    0  0.49463363042E+01 -0.13790410846E+00 -0.27876566611E+03  0.27880959995E+03  0.10566000000E+00 0. -1.
        -13    1    4    4    0    0  0.47240690706E+01 -0.40903826564E-01 -0.26234308031E+03  0.26238563499E+03  0.10566000000E+00 0.  1.
         14    1    4    4    0    0  0.12013677422E+02  0.10806138146E+00 -0.80457266701E+03  0.80466236188E+03  0.00000000000E+00 0. -1.
<mgrwt>
<rscale>  0 0.80045922E+02</rscale>
<asrwt>0</asrwt>
<pdfrwt beam="1">  1        2 0.22499594E+00 0.80045922E+02</pdfrwt>
<pdfrwt beam="2">  1       -1 0.16850665E-03 0.80045922E+02</pdfrwt>
<totfact> 0.33504876E+05</totfact>
</mgrwt>
</event>
<event>
 8    1  0.2561077E-016  0.7368452E+02  0.7818608E-02  0.1347994E+00
          2   -1    0    0  501    0  0.00000000000E+00  0.00000000000E+00  0.22259913237E+03  0.22259913238E+03  0.25500000000E-02 0. -1.
         -1   -1    0    0    0  501 -0.00000000000E+00 -0.00000000000E+00 -0.60977403419E+01  0.60977424248E+01  0.50400000000E-02 0.  1.
         24    2    1    2    0    0  0.00000000000E+00  0.00000000000E+00  0.21650139203E+03  0.22869687481E+03  0.73684515317E+02 0.  0.
         66    2    3    3    0    0  0.14410889582E+02 -0.19977776514E+02  0.19324784792E+03  0.19482175458E+03  0.20000096130E+01 0.  0.
        -13    1    3    3    0    0 -0.14410889582E+02  0.19977776514E+02  0.23253544106E+02  0.33875120228E+02  0.10566000000E+00 0.  1.
         13    1    4    4    0    0  0.61393138819E+01 -0.84835478677E+01  0.76762537084E+02  0.77473608558E+02  0.10566000000E+00 0. -1.
        -13    1    4    4    0    0  0.80789974399E+01 -0.11404800552E+02  0.11528978751E+03  0.11613391384E+03  0.10566000000E+00 0.  1.
        -14    1    4    4    0    0  0.19257825993E+00 -0.89428093610E-01  0.11955233255E+01  0.12142321821E+01  0.00000000000E+00 0.  1.
<mgrwt>
<rscale>  0 0.73684515E+02</rscale>
<asrwt>0</asrwt>
<pdfrwt beam="1">  1        2 0.34246021E-01 0.73684515E+02</pdfrwt>
<pdfrwt beam="2">  1       -1 0.93811404E-03 0.73684515E+02</pdfrwt>
<totfact> 0.28411988E+05</totfact>
</mgrwt>
</event>
<event>
 8    1  0.2561077E-016  0.7737731E+02  0.7818608E-02  0.1336663E+00
          2   -1    0    0  501    0  0.00000000000E+00  0.00000000000E+00  0.16575970681E+02  0.16575970877E+02  0.25500000000E-02 0. -1.
         -1   -1    0    0    0  501 -0.00000000000E+00 -0.00000000000E+00 -0.90300117104E+02  0.90300117245E+02  0.50400000000E-02 0.  1.
         24    2    1    2    0    0  0.35527136788E-14  0.00000000000E+00 -0.73724146423E+02  0.10687608812E+03  0.77377312220E+02 0.  0.
         66    2    3    3    0    0 -0.26305094281E+02  0.16817304128E+02 -0.53888434378E+01  0.31746170636E+02  0.20000033058E+01 0.  0.
        -13    1    3    3    0    0  0.26305094281E+02 -0.16817304128E+02 -0.68335302985E+02  0.75129917486E+02  0.10566000000E+00 0.  1.
         13    1    4    4    0    0 -0.11963013786E+02  0.76276571222E+01 -0.30606433574E+01  0.14514597956E+02  0.10566000000E+00 0. -1.
        -13    1    4    4    0    0 -0.20903079526E+01  0.15689404257E+01 -0.72458495478E+00  0.27142492127E+01  0.10566000000E+00 0.  1.
         14    1    4    4    0    0 -0.12251772542E+02  0.76207065801E+01 -0.16036151256E+01  0.14517323468E+02  0.00000000000E+00 0. -1.
<mgrwt>
<rscale>  0 0.77377312E+02</rscale>
<asrwt>0</asrwt>
<pdfrwt beam="1">  1        2 0.25501494E-02 0.77377312E+02</pdfrwt>
<pdfrwt beam="2">  1       -1 0.13892326E-01 0.77377312E+02</pdfrwt>
<totfact> 0.13155685E+05</totfact>
</mgrwt>
</event>
<event>
 8    1  0.2561077E-016  0.8968866E+02  0.7818608E-02  0.1303607E+00
         -1   -1    0    0    0  501 -0.00000000000E+00  0.00000000000E+00  0.49062342199E+01  0.49062368086E+01  0.50400000000E-02 0.  1.
          2   -1    0    0  501    0  0.00000000000E+00 -0.00000000000E+00 -0.40988937010E+03  0.40988937011E+03  0.25500000000E-02 0. -1.
         24    2    1    2    0    0  0.17763568394E-14 -0.35527136788E-14 -0.40498313588E+03  0.41479560692E+03  0.89688656864E+02 0.  0.
         66    2    3    3    0    0  0.12100158724E+02 -0.13867662461E+02 -0.39160495961E+03  0.39204230677E+03  0.20000005196E+01 0.  0.
        -13    1    3    3    0    0 -0.12100158724E+02  0.13867662461E+02 -0.13378176272E+02  0.22753300149E+02  0.10566000000E+00 0.  1.
         13    1    4    4    0    0  0.99356369600E+01 -0.11818837159E+02 -0.31991409899E+03  0.32028650251E+03  0.10566000000E+00 0. -1.
        -13    1    4    4    0    0  0.19051988867E+01 -0.14504765903E+01 -0.57669737265E+02  0.57719523780E+02  0.10566000000E+00 0.  1.
        -14    1    4    4    0    0  0.25932287765E+00 -0.59834871196E+00 -0.14021123355E+02  0.14036280478E+02  0.00000000000E+00 0.  1.
<mgrwt>
<rscale>  0 0.89688657E+02</rscale>
<asrwt>0</asrwt>
<pdfrwt beam="1">  1        2 0.63059876E-01 0.89688657E+02</pdfrwt>
<pdfrwt beam="2">  1       -1 0.75480579E-03 0.89688657E+02</pdfrwt>
<totfact> 0.21105030E+05</totfact>
</mgrwt>
</event>
<event>
 8    1  0.2561077E-016  0.7986386E+02  0.7818608E-02  0.1329438E+00
          2   -1    0    0  501    0  0.00000000000E+00  0.00000000000E+00  0.79981891057E+02  0.79981891098E+02  0.25500000000E-02 0. -1.
         -1   -1    0    0    0  501 -0.00000000000E+00 -0.00000000000E+00 -0.19936502147E+02  0.19936502784E+02  0.50400000000E-02 0.  1.
         24    2    1    2    0    0 -0.35527136788E-14  0.00000000000E+00  0.60045388910E+02  0.99918393882E+02  0.79863863583E+02 0.  0.
         66    2    3    3    0    0 -0.19596454676E+02  0.23839331805E+02  0.61697726727E+02  0.69014087368E+02  0.19999987956E+01 0.  0.
        -13    1    3    3    0    0  0.19596454676E+02 -0.23839331805E+02 -0.16523378164E+01  0.30904306514E+02  0.10566000000E+00 0.  1.
         13    1    4    4    0    0 -0.14465523111E+01  0.19351541128E+01  0.60272472685E+01  0.64943212656E+01  0.10566000000E+00 0.  1.
        -13    1    4    4    0    0 -0.86753767534E+01  0.10483240291E+02  0.26046418713E+02  0.29386860680E+02  0.10566000000E+00 0. -1.
        -14    1    4    4    0    0 -0.94745256115E+01  0.11420937401E+02  0.29624060746E+02  0.33132905423E+02  0.00000000000E+00 0.  1.
<mgrwt>
<rscale>  0 0.79863864E+02</rscale>
<asrwt>0</asrwt>
<pdfrwt beam="1">  1        2 0.12304906E-01 0.79863864E+02</pdfrwt>
<pdfrwt beam="2">  1       -1 0.30671542E-02 0.79863864E+02</pdfrwt>
<totfact> 0.16771503E+05</totfact>
</mgrwt>
</event>
<event>
 8    1  0.2561077E-016  0.8020868E+02  0.7818608E-02  0.1328460E+00
         -1   -1    0    0    0  501 -0.00000000000E+00  0.00000000000E+00  0.46669268053E+01  0.46669295268E+01  0.50400000000E-02 0.  1.
          2   -1    0    0  501    0  0.00000000000E+00 -0.00000000000E+00 -0.34462883428E+03  0.34462883429E+03  0.25500000000E-02 0. -1.
         24    2    1    2    0    0  0.00000000000E+00  0.71054273576E-14 -0.33996190747E+03  0.34929576382E+03  0.80208678371E+02 0.  0.
         66    2    3    3    0    0  0.10815378828E+02 -0.35821376076E+02 -0.23262182046E+03  0.23562057370E+03  0.19999985786E+01 0.  0.
        -13    1    3    3    0    0 -0.10815378828E+02  0.35821376076E+02 -0.10734008701E+03  0.11367519011E+03  0.10566000000E+00 0.  1.
         13    1    4    4    0    0  0.58852069034E+00 -0.25174525208E+01 -0.16364716744E+02  0.16568012613E+02  0.10566000000E+00 0. -1.
        -13    1    4    4    0    0  0.38174989505E+01 -0.15275970638E+02 -0.95890626195E+02  0.97174852370E+02  0.10566000000E+00 0.  1.
         14    1    4    4    0    0  0.64093591871E+01 -0.18027952917E+02 -0.12036647752E+03  0.12187770872E+03  0.00000000000E+00 0. -1.
<mgrwt>
<rscale>  0 0.80208678E+02</rscale>
<asrwt>0</asrwt>
<pdfrwt beam="1">  1        2 0.53019801E-01 0.80208678E+02</pdfrwt>
<pdfrwt beam="2">  1       -1 0.71798922E-03 0.80208678E+02</pdfrwt>
<totfact> 0.26618896E+05</totfact>
</mgrwt>
</event>
<event>
 8    1  0.2561077E-016  0.8538247E+02  0.7818608E-02  0.1314435E+00
          2   -1    0    0  501    0  0.00000000000E+00  0.00000000000E+00  0.29746877254E+03  0.29746877255E+03  0.25500000000E-02 0. -1.
         -1   -1    0    0    0  501 -0.00000000000E+00 -0.00000000000E+00 -0.61268319274E+01  0.61268340004E+01  0.50400000000E-02 0.  1.
         24    2    1    2    0    0  0.00000000000E+00  0.35527136788E-14  0.29134194061E+03  0.30359560655E+03  0.85382468677E+02 0.  0.
         66    2    3    3    0    0  0.17634120826E+02 -0.28562331828E+02  0.23940627029E+03  0.24175634691E+03  0.20000004201E+01 0.  0.
        -13    1    3    3    0    0 -0.17634120826E+02  0.28562331828E+02  0.51935670323E+02  0.61839259639E+02  0.10566000000E+00 0.  1.
         13    1    4    4    0    0  0.11130257385E+02 -0.19449157091E+02  0.15879288158E+03  0.16036627683E+03  0.10566000000E+00 0. -1.
        -13    1    4    4    0    0  0.10548885404E+01 -0.12663485263E+01  0.10586415513E+02  0.10714466197E+02  0.10566000000E+00 0.  1.
         14    1    4    4    0    0  0.54489749007E+01 -0.78468262106E+01  0.70026973201E+02  0.70675603887E+02  0.00000000000E+00 0. -1.
<mgrwt>
<rscale>  0 0.85382469E+02</rscale>
<asrwt>0</asrwt>
<pdfrwt beam="1">  1        2 0.45764429E-01 0.85382469E+02</pdfrwt>
<pdfrwt beam="2">  1       -1 0.94258963E-03 0.85382469E+02</pdfrwt>
<totfact> 0.21415310E+05</totfact>
</mgrwt>
</event>
<event>
 8    1  0.2561077E-016  0.7890830E+02  0.7818608E-02  0.1332178E+00
         -1   -1    0    0    0  501 -0.00000000000E+00  0.00000000000E+00  0.13271779530E+01  0.13271875227E+01  0.50400000000E-02 0.  1.
          2   -1    0    0  501    0  0.00000000000E+00 -0.00000000000E+00 -0.11728828044E+04  0.11728828044E+04  0.25500000000E-02 0. -1.
         24    2    1    2    0    0  0.00000000000E+00  0.00000000000E+00 -0.11715556264E+04  0.11742099919E+04  0.78908296636E+02 0.  0.
         66    2    3    3    0    0  0.22088403639E+02 -0.60306680419E+01 -0.10638112873E+04  0.10640595480E+04  0.19999994029E+01 0.  0.
        -13    1    3    3    0    0 -0.22088403639E+02  0.60306680419E+01 -0.10774433908E+03  0.11015044394E+03  0.10566000000E+00 0.  1.
         13    1    4    4    0    0  0.97523398572E+01 -0.23385752361E+01 -0.47792620187E+03  0.47803142435E+03  0.10566000000E+00 0. -1.
        -13    1    4    4    0    0  0.11463438361E+02 -0.37247552321E+01 -0.55374252924E+03  0.55387370769E+03  0.10566000000E+00 0.  1.
        -14    1    4    4    0    0  0.87262542063E+00  0.32662426273E-01 -0.32142556229E+02  0.32154415916E+02  0.00000000000E+00 0.  1.
<mgrwt>
<rscale>  0 0.78908297E+02</rscale>
<asrwt>0</asrwt>
<pdfrwt beam="1">  1        2 0.18044268E+00 0.78908297E+02</pdfrwt>
<pdfrwt beam="2">  1       -1 0.20418290E-03 0.78908297E+02</pdfrwt>
<totfact> 0.36392068E+05</totfact>
</mgrwt>
</event>
<event>
 8    1  0.2561077E-016  0.7912278E+02  0.7818608E-02  0.1331559E+00
         -1   -1    0    0    0  501 -0.00000000000E+00  0.00000000000E+00  0.11622812904E+01  0.11622922178E+01  0.50400000000E-02 0.  1.
          2   -1    0    0  501    0  0.00000000000E+00 -0.00000000000E+00 -0.13465727397E+04  0.13465727397E+04  0.25500000000E-02 0. -1.
         24    2    1    2    0    0  0.00000000000E+00  0.00000000000E+00 -0.13454104584E+04  0.13477350319E+04  0.79122782225E+02 0.  0.
         66    2    3    3    0    0 -0.91967211726E+01  0.48989062909E+01 -0.13227589188E+04  0.13228014728E+04  0.20000037363E+01 0.  0.
        -13    1    3    3    0    0  0.91967211726E+01 -0.48989062909E+01 -0.22651539554E+02  0.24933559139E+02  0.10566000000E+00 0.  1.
         13    1    4    4    0    0 -0.30225215419E+01  0.18233848413E+01 -0.40893038336E+03  0.40894563205E+03  0.10566000000E+00 0. -1.
        -13    1    4    4    0    0 -0.52857430982E+01  0.30341300638E+01 -0.83602526936E+03  0.83604749099E+03  0.10566000000E+00 0.  1.
        -14    1    4    4    0    0 -0.88845653250E+00  0.41391385752E-01 -0.77803266120E+02  0.77808349727E+02  0.00000000000E+00 0.  1.
<mgrwt>
<rscale>  0 0.79122782E+02</rscale>
<asrwt>0</asrwt>
<pdfrwt beam="1">  1        2 0.20716379E+00 0.79122782E+02</pdfrwt>
<pdfrwt beam="2">  1       -1 0.17881442E-03 0.79122782E+02</pdfrwt>
<totfact> 0.35354886E+05</totfact>
</mgrwt>
</event>
<event>
 8    1  0.2561077E-016  0.7438949E+02  0.7818608E-02  0.1345772E+00
         -1   -1    0    0    0  501 -0.00000000000E+00  0.00000000000E+00  0.97784159544E+02  0.97784159674E+02  0.50400000000E-02 0.  1.
          2   -1    0    0  501    0  0.00000000000E+00 -0.00000000000E+00 -0.14147988139E+02  0.14147988369E+02  0.25500000000E-02 0. -1.
         24    2    1    2    0    0 -0.88817841970E-15  0.00000000000E+00  0.83636171405E+02  0.11193214804E+03  0.74389492525E+02 0.  0.
         66    2    3    3    0    0 -0.53612861677E+01 -0.16078771528E+02 -0.79239267515E+01  0.18816451076E+02  0.19999831759E+01 0.  0.
        -13    1    3    3    0    0  0.53612861677E+01  0.16078771528E+02  0.91560098156E+02  0.93115696967E+02  0.10566000000E+00 0.  1.
         13    1    4    4    0    0 -0.17796647983E+01 -0.53843108356E+01 -0.36220226987E+01  0.67296524750E+01  0.10566000000E+00 0. -1.
        -13    1    4    4    0    0 -0.98737944675E+00 -0.35360432542E+01 -0.11814545290E+01  0.38581755931E+01  0.10566000000E+00 0.  1.
        -14    1    4    4    0    0 -0.25942419227E+01 -0.71584174380E+01 -0.31204495238E+01  0.82286230075E+01  0.00000000000E+00 0.  1.
<mgrwt>
<rscale>  0 0.74389493E+02</rscale>
<asrwt>0</asrwt>
<pdfrwt beam="1">  1        2 0.21766135E-02 0.74389493E+02</pdfrwt>
<pdfrwt beam="2">  1       -1 0.15043717E-01 0.74389493E+02</pdfrwt>
<totfact> 0.14273071E+05</totfact>
</mgrwt>
</event>
<event>
 8    1  0.2561077E-016  0.8057865E+02  0.7818608E-02  0.1327417E+00
         -1   -1    0    0    0  501 -0.00000000000E+00  0.00000000000E+00  0.23490737451E+01  0.23490791518E+01  0.50400000000E-02 0.  1.
          2   -1    0    0  501    0  0.00000000000E+00 -0.00000000000E+00 -0.69100763132E+03  0.69100763132E+03  0.25500000000E-02 0. -1.
         24    2    1    2    0    0  0.71054273576E-14 -0.44408920985E-15 -0.68865855757E+03  0.69335671048E+03  0.80578651277E+02 0.  0.
         66    2    3    3    0    0  0.35558507718E+02 -0.22097209228E+01 -0.50596463336E+03  0.50722135262E+03  0.19999995592E+01 0.  0.
        -13    1    3    3    0    0 -0.35558507718E+02  0.22097209228E+01 -0.18269392421E+03  0.18613535786E+03  0.10566000000E+00 0.  1.
         13    1    4    4    0    0  0.37775171199E+01 -0.81177213279E-01 -0.54743043755E+02  0.54873383611E+02  0.10566000000E+00 0. -1.
        -13    1    4    4    0    0  0.18297435653E+02 -0.90461471176E+00 -0.24772873654E+03  0.24840521844E+03  0.10566000000E+00 0.  1.
         14    1    4    4    0    0  0.13483554945E+02 -0.12239289978E+01 -0.20349285307E+03  0.20394275056E+03  0.00000000000E+00 0. -1.
<mgrwt>
<rscale>  0 0.80578651E+02</rscale>
<asrwt>0</asrwt>
<pdfrwt beam="1">  1        2 0.10630870E+00 0.80578651E+02</pdfrwt>
<pdfrwt beam="2">  1       -1 0.36139693E-03 0.80578651E+02</pdfrwt>
<totfact> 0.32732548E+05</totfact>
</mgrwt>
</event>
<event>
 8    1  0.2561077E-016  0.8014156E+02  0.7818608E-02  0.1328650E+00
         -1   -1    0    0    0  501 -0.00000000000E+00  0.00000000000E+00  0.62424808361E+02  0.62424808565E+02  0.50400000000E-02 0.  1.
          2   -1    0    0  501    0  0.00000000000E+00 -0.00000000000E+00 -0.25721624896E+02  0.25721625022E+02  0.25500000000E-02 0. -1.
         24    2    1    2    0    0  0.00000000000E+00  0.00000000000E+00  0.36703183466E+02  0.88146433587E+02  0.80141562735E+02 0.  0.
         66    2    3    3    0    0  0.33705541851E+02 -0.98051179918E+01 -0.28353667537E+01  0.35273831913E+02  0.20000057233E+01 0.  0.
        -13    1    3    3    0    0 -0.33705541851E+02  0.98051179918E+01  0.39538550220E+02  0.52872601674E+02  0.10566000000E+00 0.  1.
         13    1    4    4    0    0  0.25960912409E+02 -0.80957272237E+01 -0.24401495225E+01  0.27303392941E+02  0.10566000000E+00 0. -1.
        -13    1    4    4    0    0  0.38450071105E+01 -0.76825415288E+00 -0.52103212245E+00  0.39568842075E+01  0.10566000000E+00 0.  1.
         14    1    4    4    0    0  0.38996223314E+01 -0.94113661528E+00  0.12581489129E+00  0.40135547639E+01  0.00000000000E+00 0. -1.
<mgrwt>
<rscale>  0 0.80141563E+02</rscale>
<asrwt>0</asrwt>
<pdfrwt beam="1">  1        2 0.39571731E-02 0.80141563E+02</pdfrwt>
<pdfrwt beam="2">  1       -1 0.96038167E-02 0.80141563E+02</pdfrwt>
<totfact> 0.12988353E+05</totfact>
</mgrwt>
</event>
<event>
 8    1  0.2561077E-016  0.8183076E+02  0.7818608E-02  0.1323935E+00
         -1   -1    0    0    0  501 -0.00000000000E+00  0.00000000000E+00  0.34907626236E+02  0.34907626600E+02  0.50400000000E-02 0.  1.
          2   -1    0    0  501    0  0.00000000000E+00 -0.00000000000E+00 -0.47957092012E+02  0.47957092079E+02  0.25500000000E-02 0. -1.
         24    2    1    2    0    0 -0.17763568394E-14 -0.71054273576E-14 -0.13049465775E+02  0.82864718680E+02  0.81830758550E+02 0.  0.
         66    2    3    3    0    0 -0.11149152567E+02 -0.22938896887E+02 -0.38894426771E+02  0.46553979686E+02  0.19999993361E+01 0.  0.
        -13    1    3    3    0    0  0.11149152567E+02  0.22938896887E+02  0.25844960996E+02  0.36310738994E+02  0.10566000000E+00 0.  1.
         13    1    4    4    0    0 -0.58467635017E-01 -0.39341225892E+00 -0.45011697506E+00  0.60988605218E+00  0.10566000000E+00 0.  1.
        -13    1    4    4    0    0 -0.39733959243E+01 -0.73736542567E+01 -0.13736900065E+02  0.16089507130E+02  0.10566000000E+00 0.  1.
         14    1    4    4    0    0 -0.71172890075E+01 -0.15171830372E+02 -0.24707409731E+02  0.29854586503E+02  0.00000000000E+00 0. -1.
<mgrwt>
<rscale>  0 0.81830759E+02</rscale>
<asrwt>0</asrwt>
<pdfrwt beam="1">  1        2 0.73780142E-02 0.81830759E+02</pdfrwt>
<pdfrwt beam="2">  1       -1 0.53704041E-02 0.81830759E+02</pdfrwt>
<totfact> 0.13915951E+05</totfact>
</mgrwt>
</event>
<event>
 8    1  0.2561077E-016  0.7937135E+02  0.7818608E-02  0.1330845E+00
          2   -1    0    0  501    0  0.00000000000E+00  0.00000000000E+00  0.76483649230E+03  0.76483649231E+03  0.25500000000E-02 0. -1.
         -1   -1    0    0    0  501 -0.00000000000E+00 -0.00000000000E+00 -0.20591989725E+01  0.20592051403E+01  0.50400000000E-02 0.  1.
         24    2    1    2    0    0  0.00000000000E+00  0.00000000000E+00  0.76277729333E+03  0.76689569745E+03  0.79371352155E+02 0.  0.
         66    2    3    3    0    0  0.11767880154E+02  0.43233667284E+01  0.74518452642E+03  0.74529266260E+03  0.19999998518E+01 0.  0.
        -13    1    3    3    0    0 -0.11767880154E+02 -0.43233667284E+01  0.17592766906E+02  0.21603034848E+02  0.10566000000E+00 0.  1.
         13    1    4    4    0    0  0.42895162525E+01  0.21505324481E+01  0.24217245865E+03  0.24222001493E+03  0.10566000000E+00 0. -1.
        -13    1    4    4    0    0  0.31375977561E+01  0.10812371764E+01  0.22733768327E+03  0.22736192952E+03  0.10566000000E+00 0.  1.
         14    1    4    4    0    0  0.43407661453E+01  0.10915971039E+01  0.27567438450E+03  0.27571071816E+03  0.00000000000E+00 0. -1.
<mgrwt>
<rscale>  0 0.79371352E+02</rscale>
<asrwt>0</asrwt>
<pdfrwt beam="1">  1        2 0.11766731E+00 0.79371352E+02</pdfrwt>
<pdfrwt beam="2">  1       -1 0.31679989E-03 0.79371352E+02</pdfrwt>
<totfact> 0.34789897E+05</totfact>
</mgrwt>
</event>
<event>
 8    1  0.2561077E-016  0.8100382E+02  0.7818608E-02  0.1326227E+00
         -1   -1    0    0    0  501 -0.00000000000E+00  0.00000000000E+00  0.22817473941E+02  0.22817474497E+02  0.50400000000E-02 0.  1.
          2   -1    0    0  501    0  0.00000000000E+00 -0.00000000000E+00 -0.71892474957E+02  0.71892475002E+02  0.25500000000E-02 0. -1.
         24    2    1    2    0    0  0.00000000000E+00  0.88817841970E-15 -0.49075001016E+02  0.94709949499E+02  0.81003819721E+02 0.  0.
         66    2    3    3    0    0 -0.34347873277E+02  0.77497121589E+01 -0.47894512573E+02  0.59478725363E+02  0.19999997415E+01 0.  0.
        -13    1    3    3    0    0  0.34347873277E+02 -0.77497121589E+01 -0.11804884431E+01  0.35231224137E+02  0.10566000000E+00 0.  1.
         13    1    4    4    0    0 -0.20067260363E+02  0.44983436859E+01 -0.26502687291E+02  0.33545992787E+02  0.10566000000E+00 0. -1.
        -13    1    4    4    0    0 -0.75030972866E+01  0.19598136856E+01 -0.11006148243E+02  0.13464167325E+02  0.10566000000E+00 0.  1.
        -14    1    4    4    0    0 -0.67775156272E+01  0.12915547875E+01 -0.10385677039E+02  0.12468565250E+02  0.00000000000E+00 0.  1.
<mgrwt>
<rscale>  0 0.81003820E+02</rscale>
<asrwt>0</asrwt>
<pdfrwt beam="1">  1        2 0.11060381E-01 0.81003820E+02</pdfrwt>
<pdfrwt beam="2">  1       -1 0.35103807E-02 0.81003820E+02</pdfrwt>
<totfact> 0.15713152E+05</totfact>
</mgrwt>
</event>
<event>
 8    1  0.2561077E-016  0.7987362E+02  0.7818608E-02  0.1329410E+00
          2   -1    0    0  501    0  0.00000000000E+00  0.00000000000E+00  0.46980940276E+03  0.46980940277E+03  0.25500000000E-02 0. -1.
         -1   -1    0    0    0  501 -0.00000000000E+00 -0.00000000000E+00 -0.33948829338E+01  0.33948866750E+01  0.50400000000E-02 0.  1.
         24    2    1    2    0    0 -0.44408920985E-15  0.00000000000E+00  0.46641451983E+03  0.47320428945E+03  0.79873620436E+02 0.  0.
         66    2    3    3    0    0  0.33801447767E+01  0.34507192652E+02  0.35046660097E+03  0.35218320543E+03  0.20000176835E+01 0.  0.
        -13    1    3    3    0    0 -0.33801447767E+01 -0.34507192652E+02  0.11594791886E+03  0.12102108402E+03  0.10566000000E+00 0.  1.
         13    1    4    4    0    0  0.93075035382E-01  0.30919608175E+01  0.31719643497E+02  0.31870297022E+02  0.10566000000E+00 0.  1.
        -13    1    4    4    0    0  0.12755734743E+01  0.69824147286E+01  0.66909480429E+02  0.67284997870E+02  0.10566000000E+00 0.  1.
         14    1    4    4    0    0  0.20114962670E+01  0.24432817106E+02  0.25183747704E+03  0.25302791054E+03  0.00000000000E+00 0. -1.
<mgrwt>
<rscale>  0 0.79873620E+02</rscale>
<asrwt>0</asrwt>
<pdfrwt beam="1">  1        2 0.72278375E-01 0.79873620E+02</pdfrwt>
<pdfrwt beam="2">  1       -1 0.52228993E-03 0.79873620E+02</pdfrwt>
<totfact> 0.29966187E+05</totfact>
</mgrwt>
</event>
<event>
 8    1  0.2561077E-016  0.7959893E+02  0.7818608E-02  0.1330193E+00
          2   -1    0    0  501    0  0.00000000000E+00  0.00000000000E+00  0.26789740916E+03  0.26789740917E+03  0.25500000000E-02 0. -1.
         -1   -1    0    0    0  501 -0.00000000000E+00 -0.00000000000E+00 -0.59127001698E+01  0.59127023179E+01  0.50400000000E-02 0.  1.
         24    2    1    2    0    0  0.35527136788E-14 -0.35527136788E-14  0.26198470899E+03  0.27381011149E+03  0.79598928444E+02 0.  0.
         66    2    3    3    0    0 -0.20479318869E+02  0.23899689902E+02  0.21472771731E+03  0.21703131170E+03  0.19999997346E+01 0.  0.
        -13    1    3    3    0    0  0.20479318869E+02 -0.23899689902E+02  0.47256991681E+02  0.56778799789E+02  0.10566000000E+00 0.  1.
         13    1    4    4    0    0 -0.34984719234E+01  0.35978769098E+01  0.31825103703E+02  0.32218510421E+02  0.10566000000E+00 0. -1.
        -13    1    4    4    0    0 -0.14377485028E+01  0.20520930440E+01  0.19731780836E+02  0.19890513960E+02  0.10566000000E+00 0.  1.
        -14    1    4    4    0    0 -0.15543098443E+02  0.18249719948E+02  0.16317083277E+03  0.16492228732E+03  0.00000000000E+00 0.  1.
<mgrwt>
<rscale>  0 0.79598928E+02</rscale>
<asrwt>0</asrwt>
<pdfrwt beam="1">  1        2 0.41214985E-01 0.79598928E+02</pdfrwt>
<pdfrwt beam="2">  1       -1 0.90964638E-03 0.79598928E+02</pdfrwt>
<totfact> 0.24795565E+05</totfact>
</mgrwt>
</event>
<event>
 8    1  0.2561077E-016  0.7574180E+02  0.7818608E-02  0.1341589E+00
          2   -1    0    0  501    0  0.00000000000E+00  0.00000000000E+00  0.32170029084E+03  0.32170029085E+03  0.25500000000E-02 0. -1.
         -1   -1    0    0    0  501 -0.00000000000E+00 -0.00000000000E+00 -0.44582005706E+01  0.44582034194E+01  0.50400000000E-02 0.  1.
         24    2    1    2    0    0  0.00000000000E+00  0.00000000000E+00  0.31724209027E+03  0.32615849427E+03  0.75741795236E+02 0.  0.
         66    2    3    3    0    0 -0.85833946186E+01 -0.20176236503E+02  0.29155788761E+03  0.29238802473E+03  0.19999987812E+01 0.  0.
        -13    1    3    3    0    0  0.85833946186E+01  0.20176236503E+02  0.25684202657E+02  0.33770469538E+02  0.10566000000E+00 0.  1.
         13    1    4    4    0    0 -0.52556791179E+01 -0.11614423025E+02  0.16823822732E+03  0.16872056568E+03  0.10566000000E+00 0. -1.
        -13    1    4    4    0    0 -0.22900775210E+01 -0.65162812543E+01  0.85704719105E+02  0.85982651839E+02  0.10566000000E+00 0.  1.
         14    1    4    4    0    0 -0.10376379797E+01 -0.20455322240E+01  0.37614941180E+02  0.37684807212E+02  0.00000000000E+00 0. -1.
<mgrwt>
<rscale>  0 0.75741795E+02</rscale>
<asrwt>0</asrwt>
<pdfrwt beam="1">  1        2 0.49492362E-01 0.75741795E+02</pdfrwt>
<pdfrwt beam="2">  1       -1 0.68587710E-03 0.75741795E+02</pdfrwt>
<totfact> 0.30161962E+05</totfact>
</mgrwt>
</event>
<event>
 8    1  0.2561077E-016  0.8008987E+02  0.7818608E-02  0.1328797E+00
          2   -1    0    0  501    0  0.00000000000E+00  0.00000000000E+00  0.93104022413E+02  0.93104022448E+02  0.25500000000E-02 0. -1.
         -1   -1    0    0    0  501 -0.00000000000E+00 -0.00000000000E+00 -0.17223712033E+02  0.17223712770E+02  0.50400000000E-02 0.  1.
         24    2    1    2    0    0 -0.44408920985E-15 -0.35527136788E-14  0.75880310380E+02  0.11032773522E+03  0.80089872362E+02 0.  0.
         66    2    3    3    0    0  0.34978569061E+01  0.21419344980E+02  0.84282363459E+02  0.87054810987E+02  0.19999958527E+01 0.  0.
        -13    1    3    3    0    0 -0.34978569061E+01 -0.21419344980E+02 -0.84020530790E+01  0.23272924231E+02  0.10566000000E+00 0.  1.
         13    1    4    4    0    0  0.18846838210E+01  0.10532756738E+02  0.39907881917E+02  0.41317565281E+02  0.10566000000E+00 0. -1.
        -13    1    4    4    0    0  0.10432860295E+00  0.48316238222E+01  0.18537606253E+02  0.19157491559E+02  0.10566000000E+00 0.  1.
        -14    1    4    4    0    0  0.15088444821E+01  0.60549644199E+01  0.25836875289E+02  0.26579754147E+02  0.00000000000E+00 0.  1.
<mgrwt>
<rscale>  0 0.80089872E+02</rscale>
<asrwt>0</asrwt>
<pdfrwt beam="1">  1        2 0.14323696E-01 0.80089872E+02</pdfrwt>
<pdfrwt beam="2">  1       -1 0.26498020E-02 0.80089872E+02</pdfrwt>
<totfact> 0.17327204E+05</totfact>
</mgrwt>
</event>
<event>
 8    1  0.2561077E-016  0.8035282E+02  0.7818608E-02  0.1328053E+00
          2   -1    0    0  501    0  0.00000000000E+00  0.00000000000E+00  0.35675891780E+02  0.35675891871E+02  0.25500000000E-02 0. -1.
         -1   -1    0    0    0  501 -0.00000000000E+00 -0.00000000000E+00 -0.45244671879E+02  0.45244672160E+02  0.50400000000E-02 0.  1.
         24    2    1    2    0    0  0.00000000000E+00  0.00000000000E+00 -0.95687800994E+01  0.80920564031E+02  0.80352822791E+02 0.  0.
         66    2    3    3    0    0 -0.38142247430E+02  0.11201156256E+02 -0.10470098619E+02  0.41157258338E+02  0.20000020868E+01 0.  0.
        -13    1    3    3    0    0  0.38142247430E+02 -0.11201156256E+02  0.90131852009E+00  0.39763305692E+02  0.10566000000E+00 0.  1.
         13    1    4    4    0    0 -0.23709456436E+02  0.74030093310E+01 -0.71414465405E+01  0.25844811750E+02  0.10566000000E+00 0. -1.
        -13    1    4    4    0    0 -0.14279037287E+02  0.37577184817E+01 -0.33759062299E+01  0.15146592387E+02  0.10566000000E+00 0.  1.
        -14    1    4    4    0    0 -0.15375370718E+00  0.40428442801E-01  0.47254150913E-01  0.16585420175E+00  0.00000000000E+00 0.  1.
<mgrwt>
<rscale>  0 0.80352823E+02</rscale>
<asrwt>0</asrwt>
<pdfrwt beam="1">  1        2 0.54885988E-02 0.80352823E+02</pdfrwt>
<pdfrwt beam="2">  1       -1 0.69607188E-02 0.80352823E+02</pdfrwt>
<totfact> 0.13758102E+05</totfact>
</mgrwt>
</event>
<event>
 8    1  0.2561077E-016  0.8154924E+02  0.7818608E-02  0.1324712E+00
          2   -1    0    0  501    0  0.00000000000E+00  0.00000000000E+00  0.14473338676E+04  0.14473338676E+04  0.25500000000E-02 0. -1.
         -1   -1    0    0    0  501 -0.00000000000E+00 -0.00000000000E+00 -0.11487063208E+01  0.11487173773E+01  0.50400000000E-02 0.  1.
         24    2    1    2    0    0  0.00000000000E+00 -0.17763568394E-14  0.14461851613E+04  0.14484825850E+04  0.81549238409E+02 0.  0.
         66    2    3    3    0    0  0.11722592239E+01 -0.14191267620E+02  0.14017017835E+04  0.14017755370E+04  0.20000012956E+01 0.  0.
        -13    1    3    3    0    0 -0.11722592239E+01  0.14191267620E+02  0.44483377861E+02  0.46707048058E+02  0.10566000000E+00 0.  1.
         13    1    4    4    0    0  0.10620679756E+01 -0.11764775358E+02  0.10950824975E+04  0.10951462119E+04  0.10566000000E+00 0. -1.
        -13    1    4    4    0    0 -0.57137741135E-01 -0.52444452376E+00  0.90749209358E+02  0.90750804238E+02  0.10566000000E+00 0.  1.
         14    1    4    4    0    0  0.16732898937E+00 -0.19020477384E+01  0.21587007660E+03  0.21587852083E+03  0.00000000000E+00 0. -1.
<mgrwt>
<rscale>  0 0.81549238E+02</rscale>
<asrwt>0</asrwt>
<pdfrwt beam="1">  1        2 0.22266695E+00 0.81549238E+02</pdfrwt>
<pdfrwt beam="2">  1       -1 0.17672474E-03 0.81549238E+02</pdfrwt>
<totfact> 0.32032767E+05</totfact>
</mgrwt>
</event>
<event>
 8    1  0.2561077E-016  0.8015976E+02  0.7818608E-02  0.1328599E+00
          2   -1    0    0  501    0  0.00000000000E+00  0.00000000000E+00  0.23206690322E+03  0.23206690324E+03  0.25500000000E-02 0. -1.
         -1   -1    0    0    0  501 -0.00000000000E+00 -0.00000000000E+00 -0.69221276063E+01  0.69221294411E+01  0.50400000000E-02 0.  1.
         24    2    1    2    0    0  0.00000000000E+00  0.00000000000E+00  0.22514477562E+03  0.23898903268E+03  0.80159763928E+02 0.  0.
         66    2    3    3    0    0 -0.94863457811E+01 -0.73445297910E+01  0.22657965319E+03  0.22690586621E+03  0.20000023687E+01 0.  0.
        -13    1    3    3    0    0  0.94863457811E+01  0.73445297910E+01 -0.14348775708E+01  0.12083166464E+02  0.10566000000E+00 0.  1.
         13    1    4    4    0    0 -0.40165847844E+01 -0.32217486794E+01  0.90341089169E+02  0.90487768091E+02  0.10566000000E+00 0. -1.
        -13    1    4    4    0    0 -0.81891007215E+00 -0.59901478370E+00  0.12288688184E+02  0.12330955102E+02  0.10566000000E+00 0.  1.
         14    1    4    4    0    0 -0.46508509246E+01 -0.35237663279E+01  0.12394987584E+03  0.12408714302E+03  0.00000000000E+00 0. -1.
<mgrwt>
<rscale>  0 0.80159764E+02</rscale>
<asrwt>0</asrwt>
<pdfrwt beam="1">  1        2 0.35702603E-01 0.80159764E+02</pdfrwt>
<pdfrwt beam="2">  1       -1 0.10649428E-02 0.80159764E+02</pdfrwt>
<totfact> 0.23120928E+05</totfact>
</mgrwt>
</event>
<event>
 8    1  0.2561077E-016  0.7946984E+02  0.7818608E-02  0.1330563E+00
          2   -1    0    0  501    0  0.00000000000E+00  0.00000000000E+00  0.11903431155E+04  0.11903431155E+04  0.25500000000E-02 0. -1.
         -1   -1    0    0    0  501 -0.00000000000E+00 -0.00000000000E+00 -0.13263890068E+01  0.13263985822E+01  0.50400000000E-02 0.  1.
         24    2    1    2    0    0  0.00000000000E+00 -0.17763568394E-14  0.11890167265E+04  0.11916695141E+04  0.79469836534E+02 0.  0.
         66    2    3    3    0    0  0.79236925153E+01  0.15436426248E+02  0.11304871139E+04  0.11306220336E+04  0.20000064284E+01 0.  0.
        -13    1    3    3    0    0 -0.79236925153E+01 -0.15436426248E+02  0.58529612601E+02  0.61047480485E+02  0.10566000000E+00 0.  1.
         13    1    4    4    0    0  0.44549373448E+01  0.80033178779E+01  0.59288659450E+03  0.59295735485E+03  0.10566000000E+00 0. -1.
        -13    1    4    4    0    0  0.27615572356E+01  0.44531996572E+01  0.34527522558E+03  0.34531500076E+03  0.10566000000E+00 0.  1.
        -14    1    4    4    0    0  0.70719793482E+00  0.29799087125E+01  0.19232529378E+03  0.19234967796E+03  0.00000000000E+00 0.  1.
<mgrwt>
<rscale>  0 0.79469837E+02</rscale>
<asrwt>0</asrwt>
<pdfrwt beam="1">  1        2 0.18313083E+00 0.79469837E+02</pdfrwt>
<pdfrwt beam="2">  1       -1 0.20405934E-03 0.79469837E+02</pdfrwt>
<totfact> 0.35678578E+05</totfact>
</mgrwt>
</event>
<event>
 8    1  0.2561077E-016  0.8163845E+02  0.7818608E-02  0.1324465E+00
         -1   -1    0    0    0  501 -0.00000000000E+00  0.00000000000E+00  0.84353721136E+01  0.84353736192E+01  0.50400000000E-02 0.  1.
          2   -1    0    0  501    0  0.00000000000E+00 -0.00000000000E+00 -0.19752641600E+03  0.19752641601E+03  0.25500000000E-02 0. -1.
         24    2    1    2    0    0 -0.88817841970E-15  0.00000000000E+00 -0.18909104388E+03  0.20596178963E+03  0.81638446285E+02 0.  0.
         66    2    3    3    0    0 -0.69172535436E+01  0.39456666779E+02 -0.11406686799E+03  0.12091289144E+03  0.19999988756E+01 0.  0.
        -13    1    3    3    0    0  0.69172535436E+01 -0.39456666779E+02 -0.75024175899E+02  0.85048898189E+02  0.10566000000E+00 0.  1.
         13    1    4    4    0    0 -0.16475254110E+01  0.84517541389E+01 -0.23497661610E+02  0.25025941604E+02  0.10566000000E+00 0. -1.
        -13    1    4    4    0    0 -0.14545549037E+01  0.52911765947E+01 -0.16432766768E+02  0.17325105120E+02  0.10566000000E+00 0.  1.
         14    1    4    4    0    0 -0.38151732289E+01  0.25713736045E+02 -0.74136439608E+02  0.78561844720E+02  0.00000000000E+00 0. -1.
<mgrwt>
<rscale>  0 0.81638446E+02</rscale>
<asrwt>0</asrwt>
<pdfrwt beam="1">  1        2 0.30388676E-01 0.81638446E+02</pdfrwt>
<pdfrwt beam="2">  1       -1 0.12977498E-02 0.81638446E+02</pdfrwt>
<totfact> 0.20818052E+05</totfact>
</mgrwt>
</event>
<event>
 8    1  0.2561077E-016  0.8326710E+02  0.7818608E-02  0.1320027E+00
         -1   -1    0    0    0  501 -0.00000000000E+00  0.00000000000E+00  0.17256637894E+01  0.17256711493E+01  0.50400000000E-02 0.  1.
          2   -1    0    0  501    0  0.00000000000E+00 -0.00000000000E+00 -0.10044533372E+04  0.10044533372E+04  0.25500000000E-02 0. -1.
         24    2    1    2    0    0  0.00000000000E+00  0.35527136788E-14 -0.10027276734E+04  0.10061790084E+04  0.83267099300E+02 0.  0.
         66    2    3    3    0    0  0.16626576162E+02 -0.26317958745E+02 -0.83527534669E+03  0.83585763308E+03  0.19999996305E+01 0.  0.
        -13    1    3    3    0    0 -0.16626576162E+02  0.26317958745E+02 -0.16745232672E+03  0.17032137527E+03  0.10566000000E+00 0.  1.
         13    1    4    4    0    0  0.33827954811E+01 -0.51702106310E+01 -0.15763493602E+03  0.15775600971E+03  0.10566000000E+00 0.  1.
        -13    1    4    4    0    0  0.76813850644E+01 -0.10738377034E+02 -0.35848006224E+03  0.35872312806E+03  0.10566000000E+00 0. -1.
        -14    1    4    4    0    0  0.55623956165E+01 -0.10409371080E+02 -0.31916034844E+03  0.31937849531E+03  0.00000000000E+00 0.  1.
<mgrwt>
<rscale>  0 0.83267099E+02</rscale>
<asrwt>0</asrwt>
<pdfrwt beam="1">  1        2 0.15453082E+00 0.83267099E+02</pdfrwt>
<pdfrwt beam="2">  1       -1 0.26548811E-03 0.83267099E+02</pdfrwt>
<totfact> 0.31752818E+05</totfact>
</mgrwt>
</event>
<event>
 8    1  0.2561077E-016  0.8027284E+02  0.7818608E-02  0.1328279E+00
          2   -1    0    0  501    0  0.00000000000E+00  0.00000000000E+00  0.17765146615E+03  0.17765146617E+03  0.25500000000E-02 0. -1.
         -1   -1    0    0    0  501 -0.00000000000E+00 -0.00000000000E+00 -0.90679363480E+01  0.90679377486E+01  0.50400000000E-02 0.  1.
         24    2    1    2    0    0  0.44408920985E-15  0.00000000000E+00  0.16858352980E+03  0.18671940391E+03  0.80272842721E+02 0.  0.
         66    2    3    3    0    0  0.20128871854E+01  0.27491878397E+02  0.15212262832E+03  0.15461290092E+03  0.19999983396E+01 0.  0.
        -13    1    3    3    0    0 -0.20128871854E+01 -0.27491878397E+02  0.16460901482E+02  0.32106502990E+02  0.10566000000E+00 0.  1.
         13    1    4    4    0    0 -0.26998784515E+00  0.35692838076E+01  0.19115828671E+02  0.19448361117E+02  0.10566000000E+00 0. -1.
        -13    1    4    4    0    0  0.13302715042E+01  0.86156369699E+01  0.48374338922E+02  0.49153704366E+02  0.10566000000E+00 0.  1.
         14    1    4    4    0    0  0.95260352629E+00  0.15306957619E+02  0.84632460724E+02  0.86010835441E+02  0.00000000000E+00 0. -1.
<mgrwt>
<rscale>  0 0.80272843E+02</rscale>
<asrwt>0</asrwt>
<pdfrwt beam="1">  1        2 0.27330992E-01 0.80272843E+02</pdfrwt>
<pdfrwt beam="2">  1       -1 0.13950674E-02 0.80272843E+02</pdfrwt>
<totfact> 0.20990037E+05</totfact>
</mgrwt>
</event>
<event>
 8    1  0.2561077E-016  0.7938422E+02  0.7818608E-02  0.1330808E+00
          2   -1    0    0  501    0  0.00000000000E+00  0.00000000000E+00  0.97232163943E+01  0.97232167287E+01  0.25500000000E-02 0. -1.
         -1   -1    0    0    0  501 -0.00000000000E+00 -0.00000000000E+00 -0.16203111796E+03  0.16203111804E+03  0.50400000000E-02 0.  1.
         24    2    1    2    0    0  0.00000000000E+00  0.00000000000E+00 -0.15230790156E+03  0.17175433477E+03  0.79384221555E+02 0.  0.
         66    2    3    3    0    0 -0.35128327163E+02 -0.83885900726E+01 -0.11169354413E+03  0.11740449570E+03  0.19999993173E+01 0.  0.
        -13    1    3    3    0    0  0.35128327163E+02  0.83885900726E+01 -0.40614357430E+02  0.54349839063E+02  0.10566000000E+00 0.  1.
         13    1    4    4    0    0 -0.45658568308E+00 -0.21563856852E-01 -0.15141695665E+01  0.15851842157E+01  0.10566000000E+00 0.  1.
        -13    1    4    4    0    0 -0.48066874208E+01 -0.76758397623E+00 -0.13867180155E+02  0.14697049997E+02  0.10566000000E+00 0.  1.
         14    1    4    4    0    0 -0.29865054059E+02 -0.75994422395E+01 -0.96312194412E+02  0.10112226149E+03  0.00000000000E+00 0. -1.
<mgrwt>
<rscale>  0 0.79384222E+02</rscale>
<asrwt>0</asrwt>
<pdfrwt beam="1">  1        2 0.14958796E-02 0.79384222E+02</pdfrwt>
<pdfrwt beam="2">  1       -1 0.24927863E-01 0.79384222E+02</pdfrwt>
<totfact> 0.10781760E+05</totfact>
</mgrwt>
</event>
<event>
 8    1  0.2561077E-016  0.7999394E+02  0.7818608E-02  0.1329069E+00
          2   -1    0    0  501    0  0.00000000000E+00  0.00000000000E+00  0.62917832360E+03  0.62917832360E+03  0.25500000000E-02 0. -1.
         -1   -1    0    0    0  501 -0.00000000000E+00 -0.00000000000E+00 -0.25426115545E+01  0.25426165497E+01  0.50400000000E-02 0.  1.
         24    2    1    2    0    0  0.00000000000E+00  0.17763568394E-14  0.62663571204E+03  0.63172094015E+03  0.79993941141E+02 0.  0.
         66    2    3    3    0    0  0.18833637302E+02 -0.15116219420E+02  0.56505151027E+03  0.56557087548E+03  0.19999883579E+01 0.  0.
        -13    1    3    3    0    0 -0.18833637302E+02  0.15116219420E+02  0.61584201773E+02  0.66150064668E+02  0.10566000000E+00 0.  1.
         13    1    4    4    0    0  0.40594281349E+01 -0.32676274741E+01  0.10859739921E+03  0.10872241087E+03  0.10566000000E+00 0. -1.
        -13    1    4    4    0    0  0.57331024553E+01 -0.53209390676E+01  0.18350673780E+03  0.18367339176E+03  0.10566000000E+00 0.  1.
         14    1    4    4    0    0  0.90411067121E+01 -0.65276528787E+01  0.27294737325E+03  0.27317507285E+03  0.00000000000E+00 0. -1.
<mgrwt>
<rscale>  0 0.79993941E+02</rscale>
<asrwt>0</asrwt>
<pdfrwt beam="1">  1        2 0.96796626E-01 0.79993941E+02</pdfrwt>
<pdfrwt beam="2">  1       -1 0.39117155E-03 0.79993941E+02</pdfrwt>
<totfact> 0.32587324E+05</totfact>
</mgrwt>
</event>
<event>
 8    1  0.2561077E-016  0.8051597E+02  0.7818608E-02  0.1327594E+00
          2   -1    0    0  501    0  0.00000000000E+00  0.00000000000E+00  0.17475296083E+03  0.17475296084E+03  0.25500000000E-02 0. -1.
         -1   -1    0    0    0  501 -0.00000000000E+00 -0.00000000000E+00 -0.92742652376E+01  0.92742666071E+01  0.50400000000E-02 0.  1.
         24    2    1    2    0    0  0.00000000000E+00  0.00000000000E+00  0.16547869559E+03  0.18402722745E+03  0.80515972017E+02 0.  0.
         66    2    3    3    0    0 -0.19247048277E+02 -0.19437473873E+02  0.15022264134E+03  0.15270594693E+03  0.20000001080E+01 0.  0.
        -13    1    3    3    0    0  0.19247048277E+02  0.19437473873E+02  0.15256054250E+02  0.31321280518E+02  0.10566000000E+00 0.  1.
         13    1    4    4    0    0 -0.53901984345E+01 -0.60116404424E+01  0.41712550505E+02  0.42486963808E+02  0.10566000000E+00 0. -1.
        -13    1    4    4    0    0 -0.12798117840E+02 -0.12195689712E+02  0.97478934489E+02  0.99069069346E+02  0.10566000000E+00 0.  1.
         14    1    4    4    0    0 -0.10587320023E+01 -0.12301437191E+01  0.11031156343E+02  0.11149913780E+02  0.00000000000E+00 0. -1.
<mgrwt>
<rscale>  0 0.80515972E+02</rscale>
<asrwt>0</asrwt>
<pdfrwt beam="1">  1        2 0.26885070E-01 0.80515972E+02</pdfrwt>
<pdfrwt beam="2">  1       -1 0.14268102E-02 0.80515972E+02</pdfrwt>
<totfact> 0.20707518E+05</totfact>
</mgrwt>
</event>
<event>
 8    1  0.2561077E-016  0.8262367E+02  0.7818608E-02  0.1321767E+00
          2   -1    0    0  501    0  0.00000000000E+00  0.00000000000E+00  0.77357508472E+01  0.77357512675E+01  0.25500000000E-02 0. -1.
         -1   -1    0    0    0  501 -0.00000000000E+00 -0.00000000000E+00 -0.22062079208E+03  0.22062079213E+03  0.50400000000E-02 0.  1.
         24    2    1    2    0    0  0.35527136788E-14  0.00000000000E+00 -0.21288504123E+03  0.22835654340E+03  0.82623665708E+02 0.  0.
         66    2    3    3    0    0  0.14035518496E+02 -0.37187280777E+02 -0.75632404000E+02  0.85464321005E+02  0.19999997342E+01 0.  0.
        -13    1    3    3    0    0 -0.14035518496E+02  0.37187280777E+02 -0.13725263723E+03  0.14289222240E+03  0.10566000000E+00 0.  1.
         13    1    4    4    0    0  0.29124818781E+01 -0.92297186551E+01 -0.19232843265E+02  0.21530993503E+02  0.10566000000E+00 0. -1.
        -13    1    4    4    0    0  0.51421171286E+00 -0.16062588380E+01 -0.27611534530E+01  0.32372231259E+01  0.10566000000E+00 0.  1.
         14    1    4    4    0    0  0.10608824905E+02 -0.26351303284E+02 -0.53638407283E+02  0.60696104376E+02  0.00000000000E+00 0. -1.
<mgrwt>
<rscale>  0 0.82623666E+02</rscale>
<asrwt>0</asrwt>
<pdfrwt beam="1">  1        2 0.11901157E-02 0.82623666E+02</pdfrwt>
<pdfrwt beam="2">  1       -1 0.33941656E-01 0.82623666E+02</pdfrwt>
<totfact> 0.88958952E+04</totfact>
</mgrwt>
</event>
<event>
 8    1  0.2561077E-016  0.7993917E+02  0.7818608E-02  0.1329224E+00
         -1   -1    0    0    0  501 -0.00000000000E+00  0.00000000000E+00  0.14552714113E+03  0.14552714122E+03  0.50400000000E-02 0.  1.
          2   -1    0    0  501    0  0.00000000000E+00 -0.00000000000E+00 -0.10977799812E+02  0.10977800108E+02  0.25500000000E-02 0. -1.
         24    2    1    2    0    0  0.00000000000E+00 -0.35527136788E-14  0.13454934132E+03  0.15650494132E+03  0.79939173188E+02 0.  0.
         66    2    3    3    0    0 -0.20742047852E+02 -0.31621792151E+02  0.42138361435E+02  0.56655200940E+02  0.20000003025E+01 0.  0.
        -13    1    3    3    0    0  0.20742047852E+02  0.31621792151E+02  0.92410979883E+02  0.99849740385E+02  0.10566000000E+00 0.  1.
         13    1    4    4    0    0 -0.11428551048E+02 -0.16323502531E+02  0.23126078907E+02  0.30526958636E+02  0.10566000000E+00 0. -1.
        -13    1    4    4    0    0 -0.50510631373E+01 -0.79730210430E+01  0.96155622406E+01  0.13474142073E+02  0.10566000000E+00 0.  1.
         14    1    4    4    0    0 -0.42624336661E+01 -0.73252685770E+01  0.93967202876E+01  0.12654100231E+02  0.00000000000E+00 0. -1.
<mgrwt>
<rscale>  0 0.79939173E+02</rscale>
<asrwt>0</asrwt>
<pdfrwt beam="1">  1        2 0.16888923E-02 0.79939173E+02</pdfrwt>
<pdfrwt beam="2">  1       -1 0.22388790E-01 0.79939173E+02</pdfrwt>
<totfact> 0.10891072E+05</totfact>
</mgrwt>
</event>
<event>
 8    1  0.2561077E-016  0.7926601E+02  0.7818608E-02  0.1331147E+00
          2   -1    0    0  501    0  0.00000000000E+00  0.00000000000E+00  0.38744168420E+03  0.38744168420E+03  0.25500000000E-02 0. -1.
         -1   -1    0    0    0  501 -0.00000000000E+00 -0.00000000000E+00 -0.40542215560E+01  0.40542246887E+01  0.50400000000E-02 0.  1.
         24    2    1    2    0    0 -0.88817841970E-15 -0.35527136788E-14  0.38338746264E+03  0.39149590889E+03  0.79266008922E+02 0.  0.
         66    2    3    3    0    0 -0.54345574171E+01 -0.23345507929E+02  0.34754895762E+03  0.34838028805E+03  0.20000006377E+01 0.  0.
        -13    1    3    3    0    0  0.54345574171E+01  0.23345507929E+02  0.35838505021E+02  0.43115620846E+02  0.10566000000E+00 0.  1.
         13    1    4    4    0    0 -0.62838506964E+00 -0.38338464487E+01  0.48115870676E+02  0.48272574215E+02  0.10566000000E+00 0. -1.
        -13    1    4    4    0    0 -0.34492096392E+00 -0.19512114190E+01  0.27013395505E+02  0.27086175389E+02  0.10566000000E+00 0. -1.
         14    1    4    4    0    0 -0.44612513835E+01 -0.17560450062E+02  0.27241969144E+03  0.27302153844E+03  0.00000000000E+00 0. -1.
<mgrwt>
<rscale>  0 0.79266009E+02</rscale>
<asrwt>0</asrwt>
<pdfrwt beam="1">  1        2 0.59606433E-01 0.79266009E+02</pdfrwt>
<pdfrwt beam="2">  1       -1 0.62372643E-03 0.79266009E+02</pdfrwt>
<totfact> 0.28619839E+05</totfact>
</mgrwt>
</event>
<event>
 8    1  0.2561077E-016  0.7762915E+02  0.7818608E-02  0.1335917E+00
          2   -1    0    0  501    0  0.00000000000E+00  0.00000000000E+00  0.83778668004E+02  0.83778668043E+02  0.25500000000E-02 0. -1.
         -1   -1    0    0    0  501 -0.00000000000E+00 -0.00000000000E+00 -0.17982753960E+02  0.17982754666E+02  0.50400000000E-02 0.  1.
         24    2    1    2    0    0  0.17763568394E-14  0.00000000000E+00  0.65795914044E+02  0.10176142271E+03  0.77629149466E+02 0.  0.
         66    2    3    3    0    0 -0.15744978626E+02 -0.20393275288E+02  0.70929793043E+02  0.75490566108E+02  0.20000003226E+01 0.  0.
        -13    1    3    3    0    0  0.15744978626E+02  0.20393275288E+02 -0.51338789994E+01  0.26270856600E+02  0.10566000000E+00 0.  1.
         13    1    4    4    0    0 -0.20849656671E+01 -0.24389302851E+01  0.78503872566E+01  0.84814625439E+01  0.10566000000E+00 0. -1.
        -13    1    4    4    0    0 -0.34712890384E+01 -0.38815665592E+01  0.13195527657E+02  0.14186244067E+02  0.10566000000E+00 0.  1.
         14    1    4    4    0    0 -0.10188723921E+02 -0.14072778443E+02  0.49883878129E+02  0.52822859497E+02  0.00000000000E+00 0. -1.
<mgrwt>
<rscale>  0 0.77629149E+02</rscale>
<asrwt>0</asrwt>
<pdfrwt beam="1">  1        2 0.12889026E-01 0.77629149E+02</pdfrwt>
<pdfrwt beam="2">  1       -1 0.27665776E-02 0.77629149E+02</pdfrwt>
<totfact> 0.18319016E+05</totfact>
</mgrwt>
</event>
<event>
 8    1  0.2561077E-016  0.7937148E+02  0.7818608E-02  0.1330845E+00
          2   -1    0    0  501    0  0.00000000000E+00  0.00000000000E+00  0.47789663511E+03  0.47789663512E+03  0.25500000000E-02 0. -1.
         -1   -1    0    0    0  501 -0.00000000000E+00 -0.00000000000E+00 -0.32956019529E+01  0.32956058068E+01  0.50400000000E-02 0.  1.
         24    2    1    2    0    0 -0.17763568394E-14  0.00000000000E+00  0.47460103316E+03  0.48119224093E+03  0.79371481348E+02 0.  0.
         66    2    3    3    0    0 -0.11957681612E+02  0.32578530603E+02  0.35384607726E+03  0.35554942440E+03  0.19999985920E+01 0.  0.
        -13    1    3    3    0    0  0.11957681612E+02 -0.32578530603E+02  0.12075495590E+03  0.12564281652E+03  0.10566000000E+00 0.  1.
         13    1    4    4    0    0 -0.41295549304E+01  0.12115466259E+02  0.12546886271E+03  0.12612011902E+03  0.10566000000E+00 0. -1.
        -13    1    4    4    0    0 -0.10581713643E+01  0.39094279348E+01  0.39477352251E+02  0.39684705595E+02  0.10566000000E+00 0.  1.
         14    1    4    4    0    0 -0.67699553172E+01  0.16553636409E+02  0.18889986230E+03  0.18974459979E+03  0.00000000000E+00 0. -1.
<mgrwt>
<rscale>  0 0.79371481E+02</rscale>
<asrwt>0</asrwt>
<pdfrwt beam="1">  1        2 0.73522543E-01 0.79371481E+02</pdfrwt>
<pdfrwt beam="2">  1       -1 0.50701610E-03 0.79371481E+02</pdfrwt>
<totfact> 0.30633682E+05</totfact>
</mgrwt>
</event>
<event>
 8    1  0.2561077E-016  0.8097018E+02  0.7818608E-02  0.1326321E+00
          2   -1    0    0  501    0  0.00000000000E+00  0.00000000000E+00  0.10263381816E+03  0.10263381819E+03  0.25500000000E-02 0. -1.
         -1   -1    0    0    0  501 -0.00000000000E+00 -0.00000000000E+00 -0.15969810636E+02  0.15969811431E+02  0.50400000000E-02 0.  1.
         24    2    1    2    0    0  0.00000000000E+00  0.00000000000E+00  0.86664007520E+02  0.11860362962E+03  0.80970184384E+02 0.  0.
         66    2    3    3    0    0  0.20611159323E+01  0.40193409172E+02  0.49447241761E+02  0.63787052222E+02  0.19999934173E+01 0.  0.
        -13    1    3    3    0    0 -0.20611159323E+01 -0.40193409172E+02  0.37216765760E+02  0.54816577396E+02  0.10566000000E+00 0.  1.
         13    1    4    4    0    0  0.69740549945E+00  0.48746292617E+01  0.64215628560E+01  0.80929610415E+01  0.10566000000E+00 0. -1.
        -13    1    4    4    0    0  0.10454280567E+01  0.33576623053E+02  0.40898641430E+02  0.52926293751E+02  0.10566000000E+00 0.  1.
        -14    1    4    4    0    0  0.31828237612E+00  0.17421568582E+01  0.21270374748E+01  0.27677974292E+01  0.00000000000E+00 0.  1.
<mgrwt>
<rscale>  0 0.80970184E+02</rscale>
<asrwt>0</asrwt>
<pdfrwt beam="1">  1        2 0.15789819E-01 0.80970184E+02</pdfrwt>
<pdfrwt beam="2">  1       -1 0.24568939E-02 0.80970184E+02</pdfrwt>
<totfact> 0.17288520E+05</totfact>
</mgrwt>
</event>
<event>
 8    1  0.2561077E-016  0.7946671E+02  0.7818608E-02  0.1330572E+00
         -1   -1    0    0    0  501 -0.00000000000E+00  0.00000000000E+00  0.38874156853E+02  0.38874157180E+02  0.50400000000E-02 0.  1.
          2   -1    0    0  501    0  0.00000000000E+00 -0.00000000000E+00 -0.40611546934E+02  0.40611547014E+02  0.25500000000E-02 0. -1.
         24    2    1    2    0    0  0.71054273576E-14  0.35527136788E-14 -0.17373900806E+01  0.79485704194E+02  0.79466714082E+02 0.  0.
         66    2    3    3    0    0 -0.33175220349E+02 -0.17840872488E+02 -0.13435793658E+02  0.40042633996E+02  0.20000024479E+01 0.  0.
        -13    1    3    3    0    0  0.33175220349E+02  0.17840872488E+02  0.11698403577E+02  0.39443070198E+02  0.10566000000E+00 0.  1.
         13    1    4    4    0    0 -0.71741969861E+01 -0.44124730391E+01 -0.34278856657E+01  0.90939861936E+01  0.10566000000E+00 0. -1.
        -13    1    4    4    0    0 -0.11815005720E+02 -0.63193933026E+01 -0.40275902176E+01  0.13991488086E+02  0.10566000000E+00 0.  1.
         14    1    4    4    0    0 -0.14186017643E+02 -0.71090061466E+01 -0.59803177746E+01  0.16957159717E+02  0.00000000000E+00 0. -1.
<mgrwt>
<rscale>  0 0.79466714E+02</rscale>
<asrwt>0</asrwt>
<pdfrwt beam="1">  1        2 0.62479303E-02 0.79466714E+02</pdfrwt>
<pdfrwt beam="2">  1       -1 0.59806395E-02 0.79466714E+02</pdfrwt>
<totfact> 0.14566367E+05</totfact>
</mgrwt>
</event>
<event>
 8    1  0.2561077E-016  0.7770116E+02  0.7818608E-02  0.1335705E+00
         -1   -1    0    0    0  501 -0.00000000000E+00  0.00000000000E+00  0.82824880008E+00  0.82826413446E+00  0.50400000000E-02 0.  1.
          2   -1    0    0  501    0  0.00000000000E+00 -0.00000000000E+00 -0.18223433806E+04  0.18223433806E+04  0.25500000000E-02 0. -1.
         24    2    1    2    0    0  0.00000000000E+00 -0.88817841970E-15 -0.18215151318E+04  0.18231716448E+04  0.77701163404E+02 0.  0.
         66    2    3    3    0    0 -0.89849863934E+01 -0.62055908579E+01 -0.17855658828E+04  0.17856003923E+04  0.19999988039E+01 0.  0.
        -13    1    3    3    0    0  0.89849863934E+01  0.62055908579E+01 -0.35949249015E+02  0.37571252404E+02  0.10566000000E+00 0.  1.
         13    1    4    4    0    0 -0.15831293364E+00  0.21265067733E-01 -0.43136888653E+02  0.43137313800E+02  0.10566000000E+00 0.  1.
        -13    1    4    4    0    0 -0.27676964446E+01 -0.14172899703E+01 -0.57991623482E+03  0.57992458080E+03  0.10566000000E+00 0. -1.
        -14    1    4    4    0    0 -0.60589770151E+01 -0.48095659554E+01 -0.11625127593E+04  0.11625384977E+04  0.00000000000E+00 0.  1.
<mgrwt>
<rscale>  0 0.77701163E+02</rscale>
<asrwt>0</asrwt>
<pdfrwt beam="1">  1        2 0.28035731E+00 0.77701163E+02</pdfrwt>
<pdfrwt beam="2">  1       -1 0.12742553E-03 0.77701163E+02</pdfrwt>
<totfact> 0.32317658E+05</totfact>
</mgrwt>
</event>
<event>
 8    1  0.2561077E-016  0.7984843E+02  0.7818608E-02  0.1329482E+00
         -1   -1    0    0    0  501 -0.00000000000E+00  0.00000000000E+00  0.37972487887E+03  0.37972487891E+03  0.50400000000E-02 0.  1.
          2   -1    0    0  501    0  0.00000000000E+00 -0.00000000000E+00 -0.41976253986E+01  0.41976261731E+01  0.25500000000E-02 0. -1.
         24    2    1    2    0    0 -0.71054273576E-14 -0.17763568394E-14  0.37552725348E+03  0.38392250508E+03  0.79848430195E+02 0.  0.
         66    2    3    3    0    0 -0.36998968919E+02 -0.14461508495E+02  0.16996855162E+03  0.17456049802E+03  0.19999998117E+01 0.  0.
        -13    1    3    3    0    0  0.36998968919E+02  0.14461508495E+02  0.20555870185E+03  0.20936200706E+03  0.10566000000E+00 0.  1.
         13    1    4    4    0    0 -0.68363548024E+01 -0.24212448830E+01  0.33628843371E+02  0.34402157553E+02  0.10566000000E+00 0.  1.
        -13    1    4    4    0    0 -0.15622564607E+02 -0.60557132164E+01  0.72444952969E+02  0.74357370597E+02  0.10566000000E+00 0. -1.
         14    1    4    4    0    0 -0.14540049510E+02 -0.59845503957E+01  0.63894755283E+02  0.65800969871E+02  0.00000000000E+00 0. -1.
<mgrwt>
<rscale>  0 0.79848430E+02</rscale>
<asrwt>0</asrwt>
<pdfrwt beam="1">  1        2 0.64578869E-03 0.79848430E+02</pdfrwt>
<pdfrwt beam="2">  1       -1 0.58419202E-01 0.79848430E+02</pdfrwt>
<totfact> 0.78188478E+04</totfact>
</mgrwt>
</event>
<event>
 8    1  0.2561077E-016  0.8320397E+02  0.7818608E-02  0.1320197E+00
         -1   -1    0    0    0  501 -0.00000000000E+00  0.00000000000E+00  0.26164828515E+01  0.26164877056E+01  0.50400000000E-02 0.  1.
          2   -1    0    0  501    0  0.00000000000E+00 -0.00000000000E+00 -0.66146940063E+03  0.66146940063E+03  0.25500000000E-02 0. -1.
         24    2    1    2    0    0 -0.88817841970E-15 -0.71054273576E-14 -0.65885291778E+03  0.66408588834E+03  0.83203965216E+02 0.  0.
         66    2    3    3    0    0 -0.78432174969E+01 -0.35089169138E+02 -0.49626446071E+03  0.49756927239E+03  0.20000029848E+01 0.  0.
        -13    1    3    3    0    0  0.78432174969E+01  0.35089169138E+02 -0.16258845707E+03  0.16651661595E+03  0.10566000000E+00 0.  1.
         13    1    4    4    0    0 -0.13471731599E+01 -0.76895984620E+01 -0.11124710458E+03  0.11152073458E+03  0.10566000000E+00 0. -1.
        -13    1    4    4    0    0 -0.19483767648E+01 -0.99627015350E+01 -0.13095194461E+03  0.13134486878E+03  0.10566000000E+00 0.  1.
         14    1    4    4    0    0 -0.45476675722E+01 -0.17436869141E+02 -0.25406541151E+03  0.25470366902E+03  0.00000000000E+00 0. -1.
<mgrwt>
<rscale>  0 0.83203965E+02</rscale>
<asrwt>0</asrwt>
<pdfrwt beam="1">  1        2 0.10176439E+00 0.83203965E+02</pdfrwt>
<pdfrwt beam="2">  1       -1 0.40253673E-03 0.83203965E+02</pdfrwt>
<totfact> 0.29792670E+05</totfact>
</mgrwt>
</event>
<event>
 8    1  0.2561077E-016  0.7950172E+02  0.7818608E-02  0.1330471E+00
          2   -1    0    0  501    0  0.00000000000E+00  0.00000000000E+00  0.14508559201E+02  0.14508559425E+02  0.25500000000E-02 0. -1.
         -1   -1    0    0    0  501 -0.00000000000E+00 -0.00000000000E+00 -0.10891023961E+03  0.10891023973E+03  0.50400000000E-02 0.  1.
         24    2    1    2    0    0  0.00000000000E+00 -0.88817841970E-15 -0.94401680409E+02  0.12341879915E+03  0.79501715202E+02 0.  0.
         66    2    3    3    0    0 -0.33469490651E+02 -0.42172903359E+01 -0.14662187088E+02  0.36837101887E+02  0.20000007523E+01 0.  0.
        -13    1    3    3    0    0  0.33469490651E+02  0.42172903359E+01 -0.79739493321E+02  0.86581697265E+02  0.10566000000E+00 0.  1.
         13    1    4    4    0    0 -0.31476543363E+02 -0.38346763612E+01 -0.13711710928E+02  0.34547065078E+02  0.10566000000E+00 0. -1.
        -13    1    4    4    0    0 -0.92983837345E+00 -0.23893815520E+00 -0.68737787849E+00  0.11854717315E+01  0.10566000000E+00 0.  1.
         14    1    4    4    0    0 -0.10631089138E+01 -0.14367581945E+00 -0.26309828197E+00  0.11045650772E+01  0.00000000000E+00 0. -1.
<mgrwt>
<rscale>  0 0.79501715E+02</rscale>
<asrwt>0</asrwt>
<pdfrwt beam="1">  1        2 0.22320861E-02 0.79501715E+02</pdfrwt>
<pdfrwt beam="2">  1       -1 0.16755421E-01 0.79501715E+02</pdfrwt>
<totfact> 0.11818416E+05</totfact>
</mgrwt>
</event>
<event>
 8    1  0.2561077E-016  0.7798029E+02  0.7818608E-02  0.1334883E+00
          2   -1    0    0  501    0  0.00000000000E+00  0.00000000000E+00  0.28853526699E+02  0.28853526812E+02  0.25500000000E-02 0. -1.
         -1   -1    0    0    0  501 -0.00000000000E+00 -0.00000000000E+00 -0.52687884896E+02  0.52687885137E+02  0.50400000000E-02 0.  1.
         24    2    1    2    0    0  0.00000000000E+00 -0.35527136788E-14 -0.23834358197E+02  0.81541411949E+02  0.77980287457E+02 0.  0.
         66    2    3    3    0    0  0.20618083042E+02 -0.30603040202E+02 -0.25009418599E+02  0.44621994985E+02  0.19999999693E+01 0.  0.
        -13    1    3    3    0    0 -0.20618083042E+02  0.30603040202E+02  0.11750604016E+01  0.36919416963E+02  0.10566000000E+00 0.  1.
         13    1    4    4    0    0  0.49707842637E+01 -0.70175262423E+01 -0.59736183494E+01  0.10471372927E+02  0.10566000000E+00 0. -1.
        -13    1    4    4    0    0  0.99977907935E+01 -0.14698961435E+02 -0.12883875033E+02  0.21954969550E+02  0.10566000000E+00 0.  1.
         14    1    4    4    0    0  0.56495079844E+01 -0.88865525245E+01 -0.61519252169E+01  0.12195652509E+02  0.00000000000E+00 0. -1.
<mgrwt>
<rscale>  0 0.77980287E+02</rscale>
<asrwt>0</asrwt>
<pdfrwt beam="1">  1        2 0.44390041E-02 0.77980287E+02</pdfrwt>
<pdfrwt beam="2">  1       -1 0.81058285E-02 0.77980287E+02</pdfrwt>
<totfact> 0.14344177E+05</totfact>
</mgrwt>
</event>
<event>
 8    1  0.2561077E-016  0.7697714E+02  0.7818608E-02  0.1337856E+00
         -1   -1    0    0    0  501 -0.00000000000E+00  0.00000000000E+00  0.23562422875E+02  0.23562423414E+02  0.50400000000E-02 0.  1.
          2   -1    0    0  501    0  0.00000000000E+00 -0.00000000000E+00 -0.62870015301E+02  0.62870015353E+02  0.25500000000E-02 0. -1.
         24    2    1    2    0    0  0.00000000000E+00  0.00000000000E+00 -0.39307592426E+02  0.86432438766E+02  0.76977137182E+02 0.  0.
         66    2    3    3    0    0  0.20949674054E+02  0.20539269408E+02 -0.47594077936E+02  0.55945926389E+02  0.19999985435E+01 0.  0.
        -13    1    3    3    0    0 -0.20949674054E+02 -0.20539269408E+02  0.82864855098E+01  0.30486512377E+02  0.10566000000E+00 0.  1.
         13    1    4    4    0    0  0.52029702837E+01  0.44147168971E+01 -0.11818767068E+02  0.13647528864E+02  0.10566000000E+00 0. -1.
        -13    1    4    4    0    0  0.11253601542E+02  0.10808850300E+02 -0.25057295212E+02  0.29518705931E+02  0.10566000000E+00 0.  1.
        -14    1    4    4    0    0  0.44931022281E+01  0.53157022115E+01 -0.10718015656E+02  0.12779691594E+02  0.00000000000E+00 0.  1.
<mgrwt>
<rscale>  0 0.76977137E+02</rscale>
<asrwt>0</asrwt>
<pdfrwt beam="1">  1        2 0.96723100E-02 0.76977137E+02</pdfrwt>
<pdfrwt beam="2">  1       -1 0.36249882E-02 0.76977137E+02</pdfrwt>
<totfact> 0.17467521E+05</totfact>
</mgrwt>
</event>
<event>
 8    1  0.2561077E-016  0.7714222E+02  0.7818608E-02  0.1337363E+00
         -1   -1    0    0    0  501 -0.00000000000E+00  0.00000000000E+00  0.88771266450E+02  0.88771266593E+02  0.50400000000E-02 0.  1.
          2   -1    0    0  501    0  0.00000000000E+00 -0.00000000000E+00 -0.16759145614E+02  0.16759145808E+02  0.25500000000E-02 0. -1.
         24    2    1    2    0    0  0.00000000000E+00 -0.17763568394E-14  0.72012120836E+02  0.10553041240E+03  0.77142221864E+02 0.  0.
         66    2    3    3    0    0  0.25503042624E+02 -0.11871477230E+02 -0.18268808905E-01  0.28201728517E+02  0.20000007251E+01 0.  0.
        -13    1    3    3    0    0 -0.25503042624E+02  0.11871477230E+02  0.72030389645E+02  0.77328683883E+02  0.10566000000E+00 0.  1.
         13    1    4    4    0    0  0.18678935454E+01 -0.87580748381E+00 -0.38822353605E+00  0.21018911949E+01  0.10566000000E+00 0. -1.
        -13    1    4    4    0    0  0.37545832229E+01 -0.12841187617E+01 -0.56868695272E-01  0.39699186712E+01  0.10566000000E+00 0. -1.
         14    1    4    4    0    0  0.19880565856E+02 -0.97115509848E+01  0.42682342241E+00  0.22129918651E+02  0.00000000000E+00 0. -1.
<mgrwt>
<rscale>  0 0.77142222E+02</rscale>
<asrwt>0</asrwt>
<pdfrwt beam="1">  1        2 0.25783302E-02 0.77142222E+02</pdfrwt>
<pdfrwt beam="2">  1       -1 0.13657117E-01 0.77142222E+02</pdfrwt>
<totfact> 0.13301630E+05</totfact>
</mgrwt>
</event>
<event>
 8    1  0.2561077E-016  0.8038816E+02  0.7818608E-02  0.1327954E+00
         -1   -1    0    0    0  501 -0.00000000000E+00  0.00000000000E+00  0.14747704556E+03  0.14747704564E+03  0.50400000000E-02 0.  1.
          2   -1    0    0  501    0  0.00000000000E+00 -0.00000000000E+00 -0.10954680082E+02  0.10954680379E+02  0.25500000000E-02 0. -1.
         24    2    1    2    0    0 -0.35527136788E-14  0.00000000000E+00  0.13652236547E+03  0.15843172602E+03  0.80388155444E+02 0.  0.
         66    2    3    3    0    0 -0.22119735031E+02  0.12271307494E+02  0.68053550732E+01  0.26271287097E+02  0.20000006496E+01 0.  0.
        -13    1    3    3    0    0  0.22119735031E+02 -0.12271307494E+02  0.12971701040E+03  0.13216043893E+03  0.10566000000E+00 0.  1.
         13    1    4    4    0    0 -0.86174959679E+01  0.40487631533E+01  0.21405031469E+01  0.97594383848E+01  0.10566000000E+00 0. -1.
        -13    1    4    4    0    0 -0.12010903774E+02  0.69628362912E+01  0.42023083612E+01  0.14505635398E+02  0.10566000000E+00 0.  1.
        -14    1    4    4    0    0 -0.14913352894E+01  0.12597080491E+01  0.46254356508E+00  0.20062133146E+01  0.00000000000E+00 0.  1.
<mgrwt>
<rscale>  0 0.80388155E+02</rscale>
<asrwt>0</asrwt>
<pdfrwt beam="1">  1        2 0.16853355E-02 0.80388155E+02</pdfrwt>
<pdfrwt beam="2">  1       -1 0.22688776E-01 0.80388155E+02</pdfrwt>
<totfact> 0.10702131E+05</totfact>
</mgrwt>
</event>
<event>
 8    1  0.2561077E-016  0.7865544E+02  0.7818608E-02  0.1332911E+00
          2   -1    0    0  501    0  0.00000000000E+00  0.00000000000E+00  0.31692182653E+02  0.31692182756E+02  0.25500000000E-02 0. -1.
         -1   -1    0    0    0  501 -0.00000000000E+00 -0.00000000000E+00 -0.48802870287E+02  0.48802870547E+02  0.50400000000E-02 0.  1.
         24    2    1    2    0    0  0.00000000000E+00  0.17763568394E-14 -0.17110687634E+02  0.80495053303E+02  0.78655438305E+02 0.  0.
         66    2    3    3    0    0  0.36166132100E+02  0.14153071269E+02 -0.14732324791E+02  0.41585333293E+02  0.20000034727E+01 0.  0.
        -13    1    3    3    0    0 -0.36166132100E+02 -0.14153071269E+02 -0.23783628426E+01  0.38909720010E+02  0.10566000000E+00 0.  1.
         13    1    4    4    0    0  0.63446438555E+01  0.22233245818E+01 -0.28312687615E+01  0.72955414251E+01  0.10566000000E+00 0. -1.
        -13    1    4    4    0    0  0.20647178021E+02  0.74725258756E+01 -0.80385379537E+01  0.23383196096E+02  0.10566000000E+00 0. -1.
         14    1    4    4    0    0  0.91743102238E+01  0.44572208115E+01 -0.38625180761E+01  0.10906595772E+02  0.00000000000E+00 0. -1.
<mgrwt>
<rscale>  0 0.78655438E+02</rscale>
<asrwt>0</asrwt>
<pdfrwt beam="1">  1        2 0.48757204E-02 0.78655438E+02</pdfrwt>
<pdfrwt beam="2">  1       -1 0.75081340E-02 0.78655438E+02</pdfrwt>
<totfact> 0.14261011E+05</totfact>
</mgrwt>
</event>
<event>
 8    1  0.2561077E-016  0.8453983E+02  0.7818608E-02  0.1316640E+00
          2   -1    0    0  501    0  0.00000000000E+00  0.00000000000E+00  0.10735719270E+02  0.10735719573E+02  0.25500000000E-02 0. -1.
         -1   -1    0    0    0  501 -0.00000000000E+00 -0.00000000000E+00 -0.16642997500E+03  0.16642997507E+03  0.50400000000E-02 0.  1.
         24    2    1    2    0    0  0.00000000000E+00  0.35527136788E-14 -0.15569425573E+03  0.17716569465E+03  0.84539825487E+02 0.  0.
         66    2    3    3    0    0  0.24401901410E+02  0.26202278053E+02 -0.30902792656E+02  0.47339146564E+02  0.20000089634E+01 0.  0.
        -13    1    3    3    0    0 -0.24401901410E+02 -0.26202278053E+02 -0.12479146307E+03  0.12982654808E+03  0.10566000000E+00 0.  1.
         13    1    4    4    0    0  0.75881974724E+01  0.80844888737E+01 -0.94712396421E+01  0.14582703646E+02  0.10566000000E+00 0. -1.
        -13    1    4    4    0    0  0.15638495288E+01  0.10844320631E+01 -0.18081127661E+01  0.26271760616E+01  0.10566000000E+00 0.  1.
        -14    1    4    4    0    0  0.15249854409E+02  0.17033357117E+02 -0.19623440247E+02  0.30129266856E+02  0.00000000000E+00 0.  1.
<mgrwt>
<rscale>  0 0.84539825E+02</rscale>
<asrwt>0</asrwt>
<pdfrwt beam="1">  1        2 0.16516493E-02 0.84539825E+02</pdfrwt>
<pdfrwt beam="2">  1       -1 0.25604610E-01 0.84539825E+02</pdfrwt>
<totfact> 0.91259016E+04</totfact>
</mgrwt>
</event>
<event>
 8    1  0.2561077E-016  0.7826167E+02  0.7818608E-02  0.1334058E+00
         -1   -1    0    0    0  501 -0.00000000000E+00  0.00000000000E+00  0.30727431662E+01  0.30727472996E+01  0.50400000000E-02 0.  1.
          2   -1    0    0  501    0  0.00000000000E+00 -0.00000000000E+00 -0.49832390432E+03  0.49832390433E+03  0.25500000000E-02 0. -1.
         24    2    1    2    0    0 -0.71054273576E-14  0.44408920985E-15 -0.49525116115E+03  0.50139665163E+03  0.78261674131E+02 0.  0.
         66    2    3    3    0    0 -0.35207702665E+02  0.32661950240E+01 -0.35479301106E+03  0.35655621028E+03  0.20000092879E+01 0.  0.
        -13    1    3    3    0    0  0.35207702665E+02 -0.32661950240E+01 -0.14045815010E+03  0.14484044135E+03  0.10566000000E+00 0.  1.
         13    1    4    4    0    0 -0.20100756652E+02  0.14041937524E+01 -0.20679470346E+03  0.20777409059E+03  0.10566000000E+00 0. -1.
        -13    1    4    4    0    0 -0.59880027710E+01  0.86489124337E+00 -0.63250944320E+02  0.63539730370E+02  0.10566000000E+00 0.  1.
        -14    1    4    4    0    0 -0.91189432414E+01  0.99711002815E+00 -0.84747363278E+02  0.85242389319E+02  0.00000000000E+00 0.  1.
<mgrwt>
<rscale>  0 0.78261674E+02</rscale>
<asrwt>0</asrwt>
<pdfrwt beam="1">  1        2 0.76665152E-01 0.78261674E+02</pdfrwt>
<pdfrwt beam="2">  1       -1 0.47273043E-03 0.78261674E+02</pdfrwt>
<totfact> 0.32209248E+05</totfact>
</mgrwt>
</event>
<event>
 8    1  0.2561077E-016  0.8028227E+02  0.7818608E-02  0.1328252E+00
         -1   -1    0    0    0  501 -0.00000000000E+00  0.00000000000E+00  0.58914162846E+02  0.58914163062E+02  0.50400000000E-02 0.  1.
          2   -1    0    0  501    0  0.00000000000E+00 -0.00000000000E+00 -0.27350140450E+02  0.27350140569E+02  0.25500000000E-02 0. -1.
         24    2    1    2    0    0  0.00000000000E+00 -0.71054273576E-14  0.31564022396E+02  0.86264303631E+02  0.80282268099E+02 0.  0.
         66    2    3    3    0    0  0.14137463777E+02  0.33530997042E+02 -0.23515824875E+01  0.36520207868E+02  0.19999994470E+01 0.  0.
        -13    1    3    3    0    0 -0.14137463777E+02 -0.33530997042E+02  0.33915604883E+02  0.49744095764E+02  0.10566000000E+00 0.  1.
         13    1    4    4    0    0  0.36514646141E+01  0.84681538204E+01 -0.12235002195E+01  0.93032757551E+01  0.10566000000E+00 0. -1.
        -13    1    4    4    0    0  0.20998954207E+00  0.10134692781E+01 -0.15840654598E-01  0.10404953375E+01  0.10566000000E+00 0. -1.
         14    1    4    4    0    0  0.10276009621E+02  0.24049373944E+02 -0.11122416134E+01  0.26176436775E+02  0.00000000000E+00 0. -1.
<mgrwt>
<rscale>  0 0.80282268E+02</rscale>
<asrwt>0</asrwt>
<pdfrwt beam="1">  1        2 0.42077140E-02 0.80282268E+02</pdfrwt>
<pdfrwt beam="2">  1       -1 0.90637172E-02 0.80282268E+02</pdfrwt>
<totfact> 0.13081823E+05</totfact>
</mgrwt>
</event>
<event>
 8    1  0.2561077E-016  0.8200933E+02  0.7818608E-02  0.1323444E+00
          2   -1    0    0  501    0  0.00000000000E+00  0.00000000000E+00  0.13726586123E+03  0.13726586125E+03  0.25500000000E-02 0. -1.
         -1   -1    0    0    0  501 -0.00000000000E+00 -0.00000000000E+00 -0.12249095374E+02  0.12249096411E+02  0.50400000000E-02 0.  1.
         24    2    1    2    0    0 -0.35527136788E-14 -0.35527136788E-14  0.12501676585E+03  0.14951495766E+03  0.82009333740E+02 0.  0.
         66    2    3    3    0    0  0.19040901328E+02  0.17904270082E+02  0.12009043890E+03  0.12291799032E+03  0.20000045477E+01 0.  0.
        -13    1    3    3    0    0 -0.19040901328E+02 -0.17904270082E+02  0.49263269504E+01  0.26596967342E+02  0.10566000000E+00 0.  1.
         13    1    4    4    0    0  0.98280217301E+01  0.97907926966E+01  0.67355035323E+02  0.68768899803E+02  0.10566000000E+00 0. -1.
        -13    1    4    4    0    0  0.88168061593E+01  0.75990598463E+01  0.50203742989E+02  0.51535509657E+02  0.10566000000E+00 0.  1.
         14    1    4    4    0    0  0.39607343816E+00  0.51441753864E+00  0.25316605919E+01  0.26135808626E+01  0.00000000000E+00 0. -1.
<mgrwt>
<rscale>  0 0.82009334E+02</rscale>
<asrwt>0</asrwt>
<pdfrwt beam="1">  1        2 0.21117823E-01 0.82009334E+02</pdfrwt>
<pdfrwt beam="2">  1       -1 0.18844764E-02 0.82009334E+02</pdfrwt>
<totfact> 0.18228559E+05</totfact>
</mgrwt>
</event>
<event>
 8    1  0.2561077E-016  0.7161736E+02  0.7818608E-02  0.1354678E+00
         -1   -1    0    0    0  501 -0.00000000000E+00  0.00000000000E+00  0.12525231550E+02  0.12525232564E+02  0.50400000000E-02 0.  1.
          2   -1    0    0  501    0  0.00000000000E+00 -0.00000000000E+00 -0.10237426302E+03  0.10237426305E+03  0.25500000000E-02 0. -1.
         24    2    1    2    0    0  0.35527136788E-14  0.00000000000E+00 -0.89849031465E+02  0.11489949561E+03  0.71617355694E+02 0.  0.
         66    2    3    3    0    0  0.27540658083E+02 -0.22264107113E+02 -0.53152385971E+02  0.63901130268E+02  0.20000004735E+01 0.  0.
        -13    1    3    3    0    0 -0.27540658083E+02  0.22264107113E+02 -0.36696645494E+02  0.50998365344E+02  0.10566000000E+00 0.  1.
         13    1    4    4    0    0  0.78397334850E+01 -0.66353034527E+01 -0.16217325090E+02  0.19196392112E+02  0.10566000000E+00 0. -1.
        -13    1    4    4    0    0  0.70175357261E+01 -0.49644633446E+01 -0.13425464895E+02  0.15941956456E+02  0.10566000000E+00 0.  1.
        -14    1    4    4    0    0  0.12683388872E+02 -0.10664340316E+02 -0.23509595987E+02  0.28762781700E+02  0.00000000000E+00 0.  1.
<mgrwt>
<rscale>  0 0.71617356E+02</rscale>
<asrwt>0</asrwt>
<pdfrwt beam="1">  1        2 0.15749886E-01 0.71617356E+02</pdfrwt>
<pdfrwt beam="2">  1       -1 0.19269589E-02 0.71617356E+02</pdfrwt>
<totfact> 0.23945203E+05</totfact>
</mgrwt>
</event>
<event>
 8    1  0.2561077E-016  0.7863564E+02  0.7818608E-02  0.1332968E+00
          2   -1    0    0  501    0  0.00000000000E+00  0.00000000000E+00  0.49551101309E+03  0.49551101309E+03  0.25500000000E-02 0. -1.
         -1   -1    0    0    0  501 -0.00000000000E+00 -0.00000000000E+00 -0.31197894087E+01  0.31197934797E+01  0.50400000000E-02 0.  1.
         24    2    1    2    0    0  0.00000000000E+00  0.71054273576E-14  0.49239122368E+03  0.49863080657E+03  0.78635641464E+02 0.  0.
         66    2    3    3    0    0  0.96242727975E+01  0.32049898532E+02  0.37693395563E+03  0.37842176144E+03  0.20000002807E+01 0.  0.
        -13    1    3    3    0    0 -0.96242727975E+01 -0.32049898532E+02  0.11545726804E+03  0.12020904513E+03  0.10566000000E+00 0.  1.
         13    1    4    4    0    0  0.49744276302E+00  0.22759362244E+01  0.24173196380E+02  0.24285426128E+02  0.10566000000E+00 0. -1.
        -13    1    4    4    0    0  0.20582770053E+01  0.90443709352E+01  0.10198115453E+03  0.10240216889E+03  0.10566000000E+00 0.  1.
         14    1    4    4    0    0  0.70685530292E+01  0.20729591372E+02  0.25077960473E+03  0.25173416643E+03  0.00000000000E+00 0. -1.
<mgrwt>
<rscale>  0 0.78635641E+02</rscale>
<asrwt>0</asrwt>
<pdfrwt beam="1">  1        2 0.76232423E-01 0.78635641E+02</pdfrwt>
<pdfrwt beam="2">  1       -1 0.47996817E-03 0.78635641E+02</pdfrwt>
<totfact> 0.31754856E+05</totfact>
</mgrwt>
</event>
<event>
 8    1  0.2561077E-016  0.8380077E+02  0.7818608E-02  0.1318599E+00
          2   -1    0    0  501    0  0.00000000000E+00  0.00000000000E+00  0.41661739957E+03  0.41661739958E+03  0.25500000000E-02 0. -1.
         -1   -1    0    0    0  501 -0.00000000000E+00 -0.00000000000E+00 -0.42140380827E+01  0.42140410966E+01  0.50400000000E-02 0.  1.
         24    2    1    2    0    0 -0.35527136788E-14 -0.35527136788E-14  0.41240336149E+03  0.42083144068E+03  0.83800769055E+02 0.  0.
         66    2    3    3    0    0  0.22088380659E+02  0.21867957659E+02  0.34724592357E+03  0.34863997988E+03  0.19999998338E+01 0.  0.
        -13    1    3    3    0    0 -0.22088380659E+02 -0.21867957659E+02  0.65157437920E+02  0.72191460801E+02  0.10566000000E+00 0.  1.
         13    1    4    4    0    0  0.15999437254E+01  0.23184446813E+01  0.32093513745E+02  0.32217073023E+02  0.10566000000E+00 0.  1.
        -13    1    4    4    0    0  0.99185953049E+01  0.91848448812E+01  0.14753971794E+03  0.14815775188E+03  0.10566000000E+00 0. -1.
        -14    1    4    4    0    0  0.10569841629E+02  0.10364668097E+02  0.16761269188E+03  0.16826515497E+03  0.00000000000E+00 0.  1.
<mgrwt>
<rscale>  0 0.83800769E+02</rscale>
<asrwt>0</asrwt>
<pdfrwt beam="1">  1        2 0.64094994E-01 0.83800769E+02</pdfrwt>
<pdfrwt beam="2">  1       -1 0.64831369E-03 0.83800769E+02</pdfrwt>
<totfact> 0.25378372E+05</totfact>
</mgrwt>
</event>
<event>
 8    1  0.2561077E-016  0.8075407E+02  0.7818608E-02  0.1326925E+00
         -1   -1    0    0    0  501 -0.00000000000E+00  0.00000000000E+00  0.94056357363E+02  0.94056357498E+02  0.50400000000E-02 0.  1.
          2   -1    0    0  501    0  0.00000000000E+00 -0.00000000000E+00 -0.17333277874E+02  0.17333278062E+02  0.25500000000E-02 0. -1.
         24    2    1    2    0    0  0.00000000000E+00  0.17763568394E-14  0.76723079488E+02  0.11138963556E+03  0.80754071006E+02 0.  0.
         66    2    3    3    0    0  0.16427743485E+02  0.15892533044E+02 -0.74851057395E+01  0.24134418031E+02  0.19999908125E+01 0.  0.
        -13    1    3    3    0    0 -0.16427743485E+02 -0.15892533044E+02  0.84208185228E+02  0.87255217528E+02  0.10566000000E+00 0.  1.
         13    1    4    4    0    0  0.11998484567E+02  0.10697807564E+02 -0.57132949289E+01  0.17060469559E+02  0.10566000000E+00 0. -1.
        -13    1    4    4    0    0  0.22313154042E+01  0.24822823244E+01 -0.11216592361E+01  0.35227514031E+01  0.10566000000E+00 0.  1.
         14    1    4    4    0    0  0.21979435132E+01  0.27124431548E+01 -0.65015157455E+00  0.35511970693E+01  0.00000000000E+00 0. -1.
<mgrwt>
<rscale>  0 0.80754071E+02</rscale>
<asrwt>0</asrwt>
<pdfrwt beam="1">  1        2 0.26666581E-02 0.80754071E+02</pdfrwt>
<pdfrwt beam="2">  1       -1 0.14470209E-01 0.80754071E+02</pdfrwt>
<totfact> 0.11731399E+05</totfact>
</mgrwt>
</event>
<event>
 8    1  0.2561077E-016  0.8454593E+02  0.7818608E-02  0.1316624E+00
          2   -1    0    0  501    0  0.00000000000E+00  0.00000000000E+00  0.30716215676E+03  0.30716215677E+03  0.25500000000E-02 0. -1.
         -1   -1    0    0    0  501 -0.00000000000E+00 -0.00000000000E+00 -0.58177844734E+01  0.58177866565E+01  0.50400000000E-02 0.  1.
         24    2    1    2    0    0  0.00000000000E+00  0.00000000000E+00  0.30134437229E+03  0.31297994343E+03  0.84545929996E+02 0.  0.
         66    2    3    3    0    0  0.36247048869E+02 -0.21651410685E+02  0.14506159543E+03  0.15109433678E+03  0.19999998217E+01 0.  0.
        -13    1    3    3    0    0 -0.36247048869E+02  0.21651410685E+02  0.15628277685E+03  0.16188560665E+03  0.10566000000E+00 0.  1.
         13    1    4    4    0    0  0.19245418722E+02 -0.12038218941E+02  0.77797519976E+02  0.81041780185E+02  0.10566000000E+00 0. -1.
        -13    1    4    4    0    0  0.11130978731E+02 -0.57844999372E+01  0.41850637464E+02  0.43690343867E+02  0.10566000000E+00 0.  1.
         14    1    4    4    0    0  0.58706514153E+01 -0.38286918062E+01  0.25413437995E+02  0.26362212724E+02  0.00000000000E+00 0. -1.
<mgrwt>
<rscale>  0 0.84545930E+02</rscale>
<asrwt>0</asrwt>
<pdfrwt beam="1">  1        2 0.47255726E-01 0.84545930E+02</pdfrwt>
<pdfrwt beam="2">  1       -1 0.89504375E-03 0.84545930E+02</pdfrwt>
<totfact> 0.22236790E+05</totfact>
</mgrwt>
</event>
<event>
 8    1  0.2561077E-016  0.7801682E+02  0.7818608E-02  0.1334776E+00
         -1   -1    0    0    0  501 -0.00000000000E+00  0.00000000000E+00  0.15248675408E+03  0.15248675416E+03  0.50400000000E-02 0.  1.
          2   -1    0    0  501    0  0.00000000000E+00 -0.00000000000E+00 -0.99789385382E+01  0.99789388641E+01  0.25500000000E-02 0. -1.
         24    2    1    2    0    0  0.00000000000E+00 -0.35527136788E-14  0.14250781554E+03  0.16246569303E+03  0.78016818189E+02 0.  0.
         66    2    3    3    0    0  0.34053160314E+02 -0.18240569663E+02  0.82184229975E+02  0.90832724021E+02  0.19999968688E+01 0.  0.
        -13    1    3    3    0    0 -0.34053160314E+02  0.18240569663E+02  0.60323585566E+02  0.71632969006E+02  0.10566000000E+00 0.  1.
         13    1    4    4    0    0  0.13031312371E+02 -0.65128805045E+01  0.31187165193E+02  0.34422131709E+02  0.10566000000E+00 0. -1.
        -13    1    4    4    0    0  0.88727013479E+01 -0.45568104484E+01  0.22538397599E+02  0.24647106951E+02  0.10566000000E+00 0.  1.
        -14    1    4    4    0    0  0.12149146595E+02 -0.71708787105E+01  0.28458667183E+02  0.31763485361E+02  0.00000000000E+00 0.  1.
<mgrwt>
<rscale>  0 0.78016818E+02</rscale>
<asrwt>0</asrwt>
<pdfrwt beam="1">  1        2 0.15352215E-02 0.78016818E+02</pdfrwt>
<pdfrwt beam="2">  1       -1 0.23459498E-01 0.78016818E+02</pdfrwt>
<totfact> 0.11445672E+05</totfact>
</mgrwt>
</event>
<event>
 8    1  0.2561077E-016  0.8073390E+02  0.7818608E-02  0.1326982E+00
          2   -1    0    0  501    0  0.00000000000E+00  0.00000000000E+00  0.13710599700E+03  0.13710599702E+03  0.25500000000E-02 0. -1.
         -1   -1    0    0    0  501 -0.00000000000E+00 -0.00000000000E+00 -0.11884896765E+02  0.11884897834E+02  0.50400000000E-02 0.  1.
         24    2    1    2    0    0 -0.35527136788E-14  0.17763568394E-14  0.12522110023E+03  0.14899089485E+03  0.80733901220E+02 0.  0.
         66    2    3    3    0    0 -0.30444855273E+02  0.96309659627E+01  0.10814754552E+03  0.11278092175E+03  0.19999973235E+01 0.  0.
        -13    1    3    3    0    0  0.30444855273E+02 -0.96309659627E+01  0.17073554705E+02  0.36209973105E+02  0.10566000000E+00 0.  1.
         13    1    4    4    0    0 -0.98375577671E+01  0.25124172106E+01  0.32731570857E+02  0.34270346918E+02  0.10566000000E+00 0. -1.
        -13    1    4    4    0    0 -0.17828145921E+01  0.79149035497E+00  0.60314426248E+01  0.63399013418E+01  0.10566000000E+00 0.  1.
         14    1    4    4    0    0 -0.18824482914E+02  0.63270583972E+01  0.69384532043E+02  0.72170673488E+02  0.00000000000E+00 0. -1.
<mgrwt>
<rscale>  0 0.80733901E+02</rscale>
<asrwt>0</asrwt>
<pdfrwt beam="1">  1        2 0.21093231E-01 0.80733901E+02</pdfrwt>
<pdfrwt beam="2">  1       -1 0.18284457E-02 0.80733901E+02</pdfrwt>
<totfact> 0.18998718E+05</totfact>
</mgrwt>
</event>
<event>
 8    1  0.2561077E-016  0.7683528E+02  0.7818608E-02  0.1338280E+00
         -1   -1    0    0    0  501 -0.00000000000E+00  0.00000000000E+00  0.14662848493E+03  0.14662848502E+03  0.50400000000E-02 0.  1.
          2   -1    0    0  501    0  0.00000000000E+00 -0.00000000000E+00 -0.10065677457E+02  0.10065677780E+02  0.25500000000E-02 0. -1.
         24    2    1    2    0    0  0.00000000000E+00  0.00000000000E+00  0.13656280748E+03  0.15669416280E+03  0.76835280112E+02 0.  0.
         66    2    3    3    0    0  0.25826897696E+02 -0.18345179094E+02  0.24099648370E+02  0.39854325584E+02  0.19999939013E+01 0.  0.
        -13    1    3    3    0    0 -0.25826897696E+02  0.18345179094E+02  0.11246315911E+03  0.11683983722E+03  0.10566000000E+00 0.  1.
         13    1    4    4    0    0  0.10209450821E+02 -0.71918626794E+01  0.88548342923E+01  0.15309311847E+02  0.10566000000E+00 0. -1.
        -13    1    4    4    0    0  0.98847613085E+01 -0.76788770070E+01  0.94471755752E+01  0.15682281358E+02  0.10566000000E+00 0.  1.
        -14    1    4    4    0    0  0.57326855665E+01 -0.34744394072E+01  0.57976385024E+01  0.88627323779E+01  0.00000000000E+00 0.  1.
<mgrwt>
<rscale>  0 0.76835280E+02</rscale>
<asrwt>0</asrwt>
<pdfrwt beam="1">  1        2 0.15485658E-02 0.76835280E+02</pdfrwt>
<pdfrwt beam="2">  1       -1 0.22558228E-01 0.76835280E+02</pdfrwt>
<totfact> 0.12013479E+05</totfact>
</mgrwt>
</event>
<event>
 8    1  0.2561077E-016  0.7946683E+02  0.7818608E-02  0.1330571E+00
         -1   -1    0    0    0  501 -0.00000000000E+00  0.00000000000E+00  0.63831058698E+02  0.63831058897E+02  0.50400000000E-02 0.  1.
          2   -1    0    0  501    0  0.00000000000E+00 -0.00000000000E+00 -0.24733166260E+02  0.24733166392E+02  0.25500000000E-02 0. -1.
         24    2    1    2    0    0  0.00000000000E+00 -0.35527136788E-14  0.39097892438E+02  0.88564225289E+02  0.79466828350E+02 0.  0.
         66    2    3    3    0    0 -0.14209839873E+02  0.27188538151E+02 -0.85360614652E+01  0.31906120092E+02  0.19999995011E+01 0.  0.
        -13    1    3    3    0    0  0.14209839873E+02 -0.27188538151E+02  0.47633953903E+02  0.56658105197E+02  0.10566000000E+00 0.  1.
         13    1    4    4    0    0 -0.89776481944E+01  0.18295896297E+02 -0.53055201216E+01  0.21059384991E+02  0.10566000000E+00 0.  1.
        -13    1    4    4    0    0 -0.49083439159E+01  0.83378909834E+01 -0.32410044073E+01  0.10204290257E+02  0.10566000000E+00 0. -1.
        -14    1    4    4    0    0 -0.32384776299E+00  0.55475087026E+00  0.10463063682E-01  0.64244484382E+00  0.00000000000E+00 0.  1.
<mgrwt>
<rscale>  0 0.79466828E+02</rscale>
<asrwt>0</asrwt>
<pdfrwt beam="1">  1        2 0.38051026E-02 0.79466828E+02</pdfrwt>
<pdfrwt beam="2">  1       -1 0.98201627E-02 0.79466828E+02</pdfrwt>
<totfact> 0.13200525E+05</totfact>
</mgrwt>
</event>
<event>
 8    1  0.2561077E-016  0.8047564E+02  0.7818608E-02  0.1327707E+00
          2   -1    0    0  501    0  0.00000000000E+00  0.00000000000E+00  0.75866392985E+03  0.75866392985E+03  0.25500000000E-02 0. -1.
         -1   -1    0    0    0  501 -0.00000000000E+00 -0.00000000000E+00 -0.21341201234E+01  0.21341260747E+01  0.50400000000E-02 0.  1.
         24    2    1    2    0    0  0.35527136788E-14  0.17763568394E-14  0.75652980972E+03  0.76079805593E+03  0.80475641659E+02 0.  0.
         66    2    3    3    0    0  0.13258525228E+02  0.70828950626E+01  0.73110206175E+03  0.73125931145E+03  0.20000015980E+01 0.  0.
        -13    1    3    3    0    0 -0.13258525228E+02 -0.70828950626E+01  0.25427747978E+02  0.29538744472E+02  0.10566000000E+00 0.  1.
         13    1    4    4    0    0  0.40543313707E+01  0.26198614700E+01  0.27054924691E+03  0.27059232703E+03  0.10566000000E+00 0. -1.
        -13    1    4    4    0    0  0.52956588665E+01  0.25271176353E+01  0.24809648153E+03  0.24816588330E+03  0.10566000000E+00 0.  1.
         14    1    4    4    0    0  0.39085349910E+01  0.19359159573E+01  0.21245633331E+03  0.21250110112E+03  0.00000000000E+00 0. -1.
<mgrwt>
<rscale>  0 0.80475642E+02</rscale>
<asrwt>0</asrwt>
<pdfrwt beam="1">  1        2 0.11671756E+00 0.80475642E+02</pdfrwt>
<pdfrwt beam="2">  1       -1 0.32832653E-03 0.80475642E+02</pdfrwt>
<totfact> 0.33510195E+05</totfact>
</mgrwt>
</event>
<event>
 8    1  0.2561077E-016  0.8206249E+02  0.7818608E-02  0.1323298E+00
         -1   -1    0    0    0  501 -0.00000000000E+00  0.00000000000E+00  0.11598457123E+01  0.11598566627E+01  0.50400000000E-02 0.  1.
          2   -1    0    0  501    0  0.00000000000E+00 -0.00000000000E+00 -0.14515338046E+04  0.14515338046E+04  0.25500000000E-02 0. -1.
         24    2    1    2    0    0  0.00000000000E+00  0.35527136788E-14 -0.14503739589E+04  0.14526936613E+04  0.82062493624E+02 0.  0.
         66    2    3    3    0    0 -0.50026780145E+01 -0.24315998396E+02 -0.13033903801E+04  0.13036283126E+04  0.20000000470E+01 0.  0.
        -13    1    3    3    0    0  0.50026780145E+01  0.24315998396E+02 -0.14698357887E+03  0.14906534871E+03  0.10566000000E+00 0.  1.
         13    1    4    4    0    0 -0.38990215174E+01 -0.16184499258E+02 -0.90809259195E+03  0.90824518006E+03  0.10566000000E+00 0. -1.
        -13    1    4    4    0    0 -0.84201687596E+00 -0.61655923016E+01 -0.30689848661E+03  0.30696158680E+03  0.10566000000E+00 0.  1.
         14    1    4    4    0    0 -0.26163962107E+00 -0.19659068361E+01 -0.88399301500E+02  0.88421545738E+02  0.00000000000E+00 0. -1.
<mgrwt>
<rscale>  0 0.82062494E+02</rscale>
<asrwt>0</asrwt>
<pdfrwt beam="1">  1        2 0.22331144E+00 0.82062494E+02</pdfrwt>
<pdfrwt beam="2">  1       -1 0.17843981E-03 0.82062494E+02</pdfrwt>
<totfact> 0.31483609E+05</totfact>
</mgrwt>
</event>
<event>
 8    1  0.2561077E-016  0.8187250E+02  0.7818608E-02  0.1323820E+00
          2   -1    0    0  501    0  0.00000000000E+00  0.00000000000E+00  0.28601334383E+02  0.28601334496E+02  0.25500000000E-02 0. -1.
         -1   -1    0    0    0  501 -0.00000000000E+00 -0.00000000000E+00 -0.58590847839E+02  0.58590848056E+02  0.50400000000E-02 0.  1.
         24    2    1    2    0    0  0.00000000000E+00 -0.88817841970E-15 -0.29989513457E+02  0.87192182553E+02  0.81872497097E+02 0.  0.
         66    2    3    3    0    0  0.40228041721E+02  0.34866928150E+01 -0.79943067603E+01  0.41211179419E+02  0.20000002552E+01 0.  0.
        -13    1    3    3    0    0 -0.40228041721E+02 -0.34866928150E+01 -0.21995206697E+02  0.45981003134E+02  0.10566000000E+00 0.  1.
         13    1    4    4    0    0  0.24569928702E+02  0.25108952363E+01 -0.46982219176E+01  0.25141011207E+02  0.10566000000E+00 0. -1.
        -13    1    4    4    0    0  0.31868444269E+00  0.13681362203E+00 -0.12849753165E+00  0.38464710115E+00  0.10566000000E+00 0.  1.
        -14    1    4    4    0    0  0.15339428577E+02  0.83898395669E+00 -0.31675873110E+01  0.15685521111E+02  0.00000000000E+00 0.  1.
<mgrwt>
<rscale>  0 0.81872497E+02</rscale>
<asrwt>0</asrwt>
<pdfrwt beam="1">  1        2 0.44002053E-02 0.81872497E+02</pdfrwt>
<pdfrwt beam="2">  1       -1 0.90139766E-02 0.81872497E+02</pdfrwt>
<totfact> 0.12488511E+05</totfact>
</mgrwt>
</event>
<event>
 8    1  0.2561077E-016  0.7996382E+02  0.7818608E-02  0.1329154E+00
          2   -1    0    0  501    0  0.00000000000E+00  0.00000000000E+00  0.84999602240E+01  0.84999606065E+01  0.25500000000E-02 0. -1.
         -1   -1    0    0    0  501 -0.00000000000E+00 -0.00000000000E+00 -0.18806592588E+03  0.18806592594E+03  0.50400000000E-02 0.  1.
         24    2    1    2    0    0 -0.71054273576E-14  0.00000000000E+00 -0.17956596565E+03  0.19656588655E+03  0.79963815158E+02 0.  0.
         66    2    3    3    0    0  0.39073697372E+02 -0.31108760505E+01 -0.70779476857E+02  0.80933094123E+02  0.20000010075E+01 0.  0.
        -13    1    3    3    0    0 -0.39073697372E+02  0.31108760505E+01 -0.10878648879E+03  0.11563279243E+03  0.10566000000E+00 0.  1.
         13    1    4    4    0    0  0.30002626899E+02 -0.17999615785E+01 -0.54257042879E+02  0.62026086033E+02  0.10566000000E+00 0. -1.
        -13    1    4    4    0    0  0.64941831949E+01 -0.77812331996E+00 -0.11223732944E+02  0.12990890520E+02  0.10566000000E+00 0.  1.
         14    1    4    4    0    0  0.25768872778E+01 -0.53279115199E+00 -0.52987010341E+01  0.59161175701E+01  0.00000000000E+00 0. -1.
<mgrwt>
<rscale>  0 0.79963815E+02</rscale>
<asrwt>0</asrwt>
<pdfrwt beam="1">  1        2 0.13076864E-02 0.79963815E+02</pdfrwt>
<pdfrwt beam="2">  1       -1 0.28933216E-01 0.79963815E+02</pdfrwt>
<totfact> 0.10155574E+05</totfact>
</mgrwt>
</event>
<event>
 8    1  0.2561077E-016  0.7824726E+02  0.7818608E-02  0.1334100E+00
         -1   -1    0    0    0  501 -0.00000000000E+00  0.00000000000E+00  0.51863605895E+01  0.51863630384E+01  0.50400000000E-02 0.  1.
          2   -1    0    0  501    0  0.00000000000E+00 -0.00000000000E+00 -0.29513143963E+03  0.29513143965E+03  0.25500000000E-02 0. -1.
         24    2    1    2    0    0  0.35527136788E-14 -0.35527136788E-14 -0.28994507904E+03  0.30031780268E+03  0.78247260313E+02 0.  0.
         66    2    3    3    0    0 -0.25744059226E+02  0.21915460959E+02 -0.22043478020E+03  0.22302138088E+03  0.19999980305E+01 0.  0.
        -13    1    3    3    0    0  0.25744059226E+02 -0.21915460959E+02 -0.69510298843E+02  0.77296421805E+02  0.10566000000E+00 0.  1.
         13    1    4    4    0    0 -0.17843085780E+02  0.14571632089E+02 -0.15300836848E+03  0.15473293173E+03  0.10566000000E+00 0. -1.
        -13    1    4    4    0    0 -0.63141585020E+01  0.55307308902E+01 -0.50993185154E+02  0.51679528616E+02  0.10566000000E+00 0.  1.
         14    1    4    4    0    0 -0.15868149443E+01  0.18130979801E+01 -0.16433226566E+02  0.16608920535E+02  0.00000000000E+00 0. -1.
<mgrwt>
<rscale>  0 0.78247260E+02</rscale>
<asrwt>0</asrwt>
<pdfrwt beam="1">  1        2 0.45404824E-01 0.78247260E+02</pdfrwt>
<pdfrwt beam="2">  1       -1 0.79790206E-03 0.78247260E+02</pdfrwt>
<totfact> 0.26858065E+05</totfact>
</mgrwt>
</event>
<event>
 8    1  0.2561077E-016  0.8101077E+02  0.7818608E-02  0.1326207E+00
          2   -1    0    0  501    0  0.00000000000E+00  0.00000000000E+00  0.33092234275E+03  0.33092234276E+03  0.25500000000E-02 0. -1.
         -1   -1    0    0    0  501 -0.00000000000E+00 -0.00000000000E+00 -0.49579174262E+01  0.49579199880E+01  0.50400000000E-02 0.  1.
         24    2    1    2    0    0  0.00000000000E+00  0.00000000000E+00  0.32596442533E+03  0.33588026275E+03  0.81010766735E+02 0.  0.
         66    2    3    3    0    0  0.10429756840E+02  0.32931202709E+02  0.25058669581E+03  0.25296429800E+03  0.20000013303E+01 0.  0.
        -13    1    3    3    0    0 -0.10429756840E+02 -0.32931202709E+02  0.75377729515E+02  0.82915964751E+02  0.10566000000E+00 0.  1.
         13    1    4    4    0    0  0.44896257495E+01  0.11403072496E+02  0.86374992903E+02  0.87240113278E+02  0.10566000000E+00 0.  1.
        -13    1    4    4    0    0  0.36990214877E+01  0.12710357544E+02  0.98561187539E+02  0.99446240764E+02  0.10566000000E+00 0. -1.
         14    1    4    4    0    0  0.22411096026E+01  0.88177726687E+01  0.65650515368E+02  0.66277943957E+02  0.00000000000E+00 0. -1.
<mgrwt>
<rscale>  0 0.81010767E+02</rscale>
<asrwt>0</asrwt>
<pdfrwt beam="1">  1        2 0.50911131E-01 0.81010767E+02</pdfrwt>
<pdfrwt beam="2">  1       -1 0.76275671E-03 0.81010767E+02</pdfrwt>
<totfact> 0.25558883E+05</totfact>
</mgrwt>
</event>
<event>
 8    1  0.2561077E-016  0.7873943E+02  0.7818608E-02  0.1332667E+00
         -1   -1    0    0    0  501 -0.00000000000E+00  0.00000000000E+00  0.42576011338E+01  0.42576041169E+01  0.50400000000E-02 0.  1.
          2   -1    0    0  501    0  0.00000000000E+00 -0.00000000000E+00 -0.36404868658E+03  0.36404868659E+03  0.25500000000E-02 0. -1.
         24    2    1    2    0    0  0.00000000000E+00  0.00000000000E+00 -0.35979108544E+03  0.36830629070E+03  0.78739434891E+02 0.  0.
         66    2    3    3    0    0 -0.25711047670E+02  0.88622679809E+01 -0.31300234600E+03  0.31418794752E+03  0.20000000327E+01 0.  0.
        -13    1    3    3    0    0  0.25711047670E+02 -0.88622679809E+01 -0.46788739448E+02  0.54118343186E+02  0.10566000000E+00 0.  1.
         13    1    4    4    0    0 -0.12550343199E+02  0.46830236380E+01 -0.16198196426E+03  0.16253494927E+03  0.10566000000E+00 0. -1.
        -13    1    4    4    0    0 -0.47069154204E+01  0.16191132841E+01 -0.50070242496E+02  0.50317163357E+02  0.10566000000E+00 0.  1.
         14    1    4    4    0    0 -0.84537890506E+01  0.25601310589E+01 -0.10095013924E+03  0.10133583489E+03  0.00000000000E+00 0. -1.
<mgrwt>
<rscale>  0 0.78739435E+02</rscale>
<asrwt>0</asrwt>
<pdfrwt beam="1">  1        2 0.56007466E-01 0.78739435E+02</pdfrwt>
<pdfrwt beam="2">  1       -1 0.65501608E-03 0.78739435E+02</pdfrwt>
<totfact> 0.28487904E+05</totfact>
</mgrwt>
</event>
<event>
 8    1  0.2561077E-016  0.8159096E+02  0.7818608E-02  0.1324596E+00
          2   -1    0    0  501    0  0.00000000000E+00  0.00000000000E+00  0.48523322152E+03  0.48523322152E+03  0.25500000000E-02 0. -1.
         -1   -1    0    0    0  501 -0.00000000000E+00 -0.00000000000E+00 -0.34298357432E+01  0.34298394463E+01  0.50400000000E-02 0.  1.
         24    2    1    2    0    0  0.00000000000E+00 -0.35527136788E-14  0.48180338577E+03  0.48866306097E+03  0.81590959140E+02 0.  0.
         66    2    3    3    0    0 -0.21897996982E+02 -0.26473898320E+02  0.37251868105E+03  0.37410500837E+03  0.19999986952E+01 0.  0.
        -13    1    3    3    0    0  0.21897996982E+02  0.26473898320E+02  0.10928470472E+03  0.11455805260E+03  0.10566000000E+00 0.  1.
         13    1    4    4    0    0 -0.53769842213E+01 -0.71343764882E+01  0.95841028252E+02  0.96256558985E+02  0.10566000000E+00 0. -1.
        -13    1    4    4    0    0 -0.12719892125E+02 -0.15721488598E+02  0.22265841624E+03  0.22357491439E+03  0.10566000000E+00 0.  1.
        -14    1    4    4    0    0 -0.38011206357E+01 -0.36180332337E+01  0.54019236558E+02  0.54273534995E+02  0.00000000000E+00 0.  1.
<mgrwt>
<rscale>  0 0.81590959E+02</rscale>
<asrwt>0</asrwt>
<pdfrwt beam="1">  1        2 0.74651280E-01 0.81590959E+02</pdfrwt>
<pdfrwt beam="2">  1       -1 0.52766722E-03 0.81590959E+02</pdfrwt>
<totfact> 0.28648813E+05</totfact>
</mgrwt>
</event>
<event>
 8    1  0.2561077E-016  0.7932342E+02  0.7818608E-02  0.1330983E+00
          2   -1    0    0  501    0  0.00000000000E+00  0.00000000000E+00  0.42636404162E+03  0.42636404163E+03  0.25500000000E-02 0. -1.
         -1   -1    0    0    0  501 -0.00000000000E+00 -0.00000000000E+00 -0.36894537521E+01  0.36894571945E+01  0.50400000000E-02 0.  1.
         24    2    1    2    0    0  0.00000000000E+00  0.00000000000E+00  0.42267458787E+03  0.43005349883E+03  0.79323417853E+02 0.  0.
         66    2    3    3    0    0 -0.38806092878E+02  0.63767457208E+01  0.23829025473E+03  0.24152188556E+03  0.19999930801E+01 0.  0.
        -13    1    3    3    0    0  0.38806092878E+02 -0.63767457208E+01  0.18438433314E+03  0.18853161327E+03  0.10566000000E+00 0.  1.
         13    1    4    4    0    0 -0.31896444334E+02  0.55717861771E+01  0.19627206727E+03  0.19892501983E+03  0.10566000000E+00 0. -1.
        -13    1    4    4    0    0 -0.68940213422E+01  0.85256832238E+00  0.41704692842E+02  0.42279391813E+02  0.10566000000E+00 0. -1.
         14    1    4    4    0    0 -0.15627201646E-01 -0.47608778661E-01  0.31349461933E+00  0.31747390694E+00  0.00000000000E+00 0. -1.
<mgrwt>
<rscale>  0 0.79323418E+02</rscale>
<asrwt>0</asrwt>
<pdfrwt beam="1">  1        2 0.65594416E-01 0.79323418E+02</pdfrwt>
<pdfrwt beam="2">  1       -1 0.56760899E-03 0.79323418E+02</pdfrwt>
<totfact> 0.29532207E+05</totfact>
</mgrwt>
</event>
<event>
 8    1  0.2561077E-016  0.8412505E+02  0.7818608E-02  0.1317737E+00
         -1   -1    0    0    0  501 -0.00000000000E+00  0.00000000000E+00  0.69777910420E+01  0.69777928622E+01  0.50400000000E-02 0.  1.
          2   -1    0    0  501    0  0.00000000000E+00 -0.00000000000E+00 -0.25355529418E+03  0.25355529419E+03  0.25500000000E-02 0. -1.
         24    2    1    2    0    0  0.00000000000E+00  0.22204460493E-15 -0.24657750313E+03  0.26053308705E+03  0.84125052134E+02 0.  0.
         66    2    3    3    0    0  0.16374731347E+02  0.14885829823E+01 -0.24317965014E+03  0.24374308184E+03  0.19999991984E+01 0.  0.
        -13    1    3    3    0    0 -0.16374731347E+02 -0.14885829823E+01 -0.33978529940E+01  0.16790005211E+02  0.10566000000E+00 0.  1.
         13    1    4    4    0    0  0.70039757460E+01  0.12210148350E+01 -0.10799011963E+03  0.10822395139E+03  0.10566000000E+00 0. -1.
        -13    1    4    4    0    0  0.13210044571E+01  0.34690915243E+00 -0.16376336488E+02  0.16433531561E+02  0.10566000000E+00 0.  1.
         14    1    4    4    0    0  0.80497511436E+01 -0.79341005180E-01 -0.11881319402E+03  0.11908559889E+03  0.00000000000E+00 0. -1.
<mgrwt>
<rscale>  0 0.84125052E+02</rscale>
<asrwt>0</asrwt>
<pdfrwt beam="1">  1        2 0.39008500E-01 0.84125052E+02</pdfrwt>
<pdfrwt beam="2">  1       -1 0.10735067E-02 0.84125052E+02</pdfrwt>
<totfact> 0.21012738E+05</totfact>
</mgrwt>
</event>
<event>
 8    1  0.2561077E-016  0.7980352E+02  0.7818608E-02  0.1329610E+00
         -1   -1    0    0    0  501 -0.00000000000E+00  0.00000000000E+00  0.20166598304E+03  0.20166598310E+03  0.50400000000E-02 0.  1.
          2   -1    0    0  501    0  0.00000000000E+00 -0.00000000000E+00 -0.78949876106E+01  0.78949880224E+01  0.25500000000E-02 0. -1.
         24    2    1    2    0    0  0.00000000000E+00  0.00000000000E+00  0.19377099543E+03  0.20956097112E+03  0.79803520907E+02 0.  0.
         66    2    3    3    0    0  0.29012428707E+02  0.22996358538E+02  0.58033009428E+02  0.68864967155E+02  0.19999981335E+01 0.  0.
        -13    1    3    3    0    0 -0.29012428707E+02 -0.22996358538E+02  0.13573798600E+03  0.14069600397E+03  0.10566000000E+00 0.  1.
         13    1    4    4    0    0  0.10113112328E+02  0.70242403843E+01  0.19542092766E+02  0.23098042074E+02  0.10566000000E+00 0. -1.
        -13    1    4    4    0    0  0.23311364049E+01  0.23346287326E+01  0.52011897244E+01  0.61602132140E+01  0.10566000000E+00 0.  1.
        -14    1    4    4    0    0  0.16568179974E+02  0.13637489421E+02  0.33289726938E+02  0.39606711868E+02  0.00000000000E+00 0.  1.
<mgrwt>
<rscale>  0 0.79803521E+02</rscale>
<asrwt>0</asrwt>
<pdfrwt beam="1">  1        2 0.12146134E-02 0.79803521E+02</pdfrwt>
<pdfrwt beam="2">  1       -1 0.31025538E-01 0.79803521E+02</pdfrwt>
<totfact> 0.99977385E+04</totfact>
</mgrwt>
</event>
<event>
 8    1  0.2561077E-016  0.7990918E+02  0.7818608E-02  0.1329309E+00
          2   -1    0    0  501    0  0.00000000000E+00  0.00000000000E+00  0.82465037375E+02  0.82465037415E+02  0.25500000000E-02 0. -1.
         -1   -1    0    0    0  501 -0.00000000000E+00 -0.00000000000E+00 -0.19358133342E+02  0.19358133998E+02  0.50400000000E-02 0.  1.
         24    2    1    2    0    0 -0.35527136788E-14  0.00000000000E+00  0.63106904033E+02  0.10182317141E+03  0.79909179072E+02 0.  0.
         66    2    3    3    0    0  0.24681829667E+02  0.18515719439E+02  0.63867942420E+02  0.70958710855E+02  0.19999987733E+01 0.  0.
        -13    1    3    3    0    0 -0.24681829667E+02 -0.18515719439E+02 -0.76103838744E+00  0.30864460558E+02  0.10566000000E+00 0.  1.
         13    1    4    4    0    0  0.85267558911E+00  0.85750535541E+00  0.29101486921E+01  0.31531730908E+01  0.10566000000E+00 0. -1.
        -13    1    4    4    0    0  0.52466721202E+01  0.40197114313E+01  0.12284709071E+02  0.13950300689E+02  0.10566000000E+00 0.  1.
         14    1    4    4    0    0  0.18582481958E+02  0.13638502652E+02  0.48673084657E+02  0.53855237075E+02  0.00000000000E+00 0. -1.
<mgrwt>
<rscale>  0 0.79909179E+02</rscale>
<asrwt>0</asrwt>
<pdfrwt beam="1">  1        2 0.12686928E-01 0.79909179E+02</pdfrwt>
<pdfrwt beam="2">  1       -1 0.29781745E-02 0.79909179E+02</pdfrwt>
<totfact> 0.16878637E+05</totfact>
</mgrwt>
</event>
<event>
 8    1  0.2561077E-016  0.7797377E+02  0.7818608E-02  0.1334902E+00
          2   -1    0    0  501    0  0.00000000000E+00  0.00000000000E+00  0.66097188094E+02  0.66097188143E+02  0.25500000000E-02 0. -1.
         -1   -1    0    0    0  501 -0.00000000000E+00 -0.00000000000E+00 -0.22996093994E+02  0.22996094547E+02  0.50400000000E-02 0.  1.
         24    2    1    2    0    0  0.71054273576E-14 -0.17763568394E-14  0.43101094100E+02  0.89093282690E+02  0.77973769358E+02 0.  0.
         66    2    3    3    0    0  0.32673778159E+02 -0.11754927374E+02  0.41754182724E+02  0.54343039079E+02  0.20000061551E+01 0.  0.
        -13    1    3    3    0    0 -0.32673778159E+02  0.11754927374E+02  0.13469113758E+01  0.34750243611E+02  0.10566000000E+00 0.  1.
         13    1    4    4    0    0  0.85904957438E+01 -0.33675780850E+01  0.11493839907E+02  0.14739630902E+02  0.10566000000E+00 0. -1.
        -13    1    4    4    0    0  0.17624235239E+02 -0.66401198591E+01  0.23064840464E+02  0.29777556803E+02  0.10566000000E+00 0.  1.
        -14    1    4    4    0    0  0.64590471762E+01 -0.17472294303E+01  0.71955023530E+01  0.98258513737E+01  0.00000000000E+00 0.  1.
<mgrwt>
<rscale>  0 0.77973769E+02</rscale>
<asrwt>0</asrwt>
<pdfrwt beam="1">  1        2 0.10168798E-01 0.77973769E+02</pdfrwt>
<pdfrwt beam="2">  1       -1 0.35378607E-02 0.77973769E+02</pdfrwt>
<totfact> 0.17069529E+05</totfact>
</mgrwt>
</event>
<event>
 8    1  0.2561077E-016  0.7840076E+02  0.7818608E-02  0.1333652E+00
         -1   -1    0    0    0  501 -0.00000000000E+00  0.00000000000E+00  0.14520190489E+01  0.14520277958E+01  0.50400000000E-02 0.  1.
          2   -1    0    0  501    0  0.00000000000E+00 -0.00000000000E+00 -0.10582954193E+04  0.10582954193E+04  0.25500000000E-02 0. -1.
         24    2    1    2    0    0  0.00000000000E+00 -0.17763568394E-14 -0.10568434003E+04  0.10597474471E+04  0.78400758787E+02 0.  0.
         66    2    3    3    0    0 -0.95400978207E+01 -0.12775824455E+02 -0.10124466696E+04  0.10125741919E+04  0.20000001590E+01 0.  0.
        -13    1    3    3    0    0  0.95400978207E+01  0.12775824455E+02 -0.44396730643E+02  0.47173255270E+02  0.10566000000E+00 0.  1.
         13    1    4    4    0    0 -0.24719381924E+01 -0.33108703820E+01 -0.24806467706E+03  0.24809910824E+03  0.10566000000E+00 0. -1.
        -13    1    4    4    0    0 -0.69538490123E+00 -0.33431882032E+00 -0.60853656787E+02  0.60858639794E+02  0.10566000000E+00 0.  1.
        -14    1    4    4    0    0 -0.63727747271E+01 -0.91306352528E+01 -0.70352833579E+03  0.70361644382E+03  0.00000000000E+00 0.  1.
<mgrwt>
<rscale>  0 0.78400759E+02</rscale>
<asrwt>0</asrwt>
<pdfrwt beam="1">  1        2 0.16281406E+00 0.78400759E+02</pdfrwt>
<pdfrwt beam="2">  1       -1 0.22338907E-03 0.78400759E+02</pdfrwt>
<totfact> 0.37169871E+05</totfact>
</mgrwt>
</event>
<event>
 8    1  0.2561077E-016  0.8236860E+02  0.7818608E-02  0.1322461E+00
          2   -1    0    0  501    0  0.00000000000E+00  0.00000000000E+00  0.70513813951E+02  0.70513813997E+02  0.25500000000E-02 0. -1.
         -1   -1    0    0    0  501 -0.00000000000E+00 -0.00000000000E+00 -0.24054103905E+02  0.24054104433E+02  0.50400000000E-02 0.  1.
         24    2    1    2    0    0  0.00000000000E+00  0.00000000000E+00  0.46459710046E+02  0.94567918430E+02  0.82368601655E+02 0.  0.
         66    2    3    3    0    0 -0.39519821239E+02  0.10769548800E+02  0.27884787036E+02  0.49591942832E+02  0.19999984210E+01 0.  0.
        -13    1    3    3    0    0  0.39519821239E+02 -0.10769548800E+02  0.18574923010E+02  0.44975975598E+02  0.10566000000E+00 0.  1.
         13    1    4    4    0    0 -0.17212908384E+02  0.55428004287E+01  0.12592715981E+02  0.22036209098E+02  0.10566000000E+00 0. -1.
        -13    1    4    4    0    0 -0.45368079669E+01  0.95236055031E+00  0.34137599361E+01  0.57579977495E+01  0.10566000000E+00 0.  1.
         14    1    4    4    0    0 -0.17770104889E+02  0.42743878209E+01  0.11878311119E+02  0.21797735984E+02  0.00000000000E+00 0. -1.
<mgrwt>
<rscale>  0 0.82368602E+02</rscale>
<asrwt>0</asrwt>
<pdfrwt beam="1">  1        2 0.10848279E-01 0.82368602E+02</pdfrwt>
<pdfrwt beam="2">  1       -1 0.37006315E-02 0.82368602E+02</pdfrwt>
<totfact> 0.14945051E+05</totfact>
</mgrwt>
</event>
<event>
 8    1  0.2561077E-016  0.7989139E+02  0.7818608E-02  0.1329360E+00
          2   -1    0    0  501    0  0.00000000000E+00  0.00000000000E+00  0.12719442918E+03  0.12719442920E+03  0.25500000000E-02 0. -1.
         -1   -1    0    0    0  501 -0.00000000000E+00 -0.00000000000E+00 -0.12545035012E+02  0.12545036024E+02  0.50400000000E-02 0.  1.
         24    2    1    2    0    0  0.17763568394E-14  0.00000000000E+00  0.11464939417E+03  0.13973946523E+03  0.79891392275E+02 0.  0.
         66    2    3    3    0    0 -0.92752096866E+01  0.10011005678E+02  0.12297934995E+03  0.12375043534E+03  0.19999961256E+01 0.  0.
        -13    1    3    3    0    0  0.92752096866E+01 -0.10011005678E+02 -0.83299557797E+01  0.15989029888E+02  0.10566000000E+00 0.  1.
         13    1    4    4    0    0 -0.48226801907E+01  0.41753384485E+01  0.56653177582E+02  0.57011274232E+02  0.10566000000E+00 0. -1.
        -13    1    4    4    0    0 -0.27170530676E+01  0.37869976548E+01  0.46214704575E+02  0.46449260614E+02  0.10566000000E+00 0.  1.
        -14    1    4    4    0    0 -0.17354764283E+01  0.20486695748E+01  0.20111467789E+02  0.20289900495E+02  0.00000000000E+00 0.  1.
<mgrwt>
<rscale>  0 0.79891392E+02</rscale>
<asrwt>0</asrwt>
<pdfrwt beam="1">  1        2 0.19568373E-01 0.79891392E+02</pdfrwt>
<pdfrwt beam="2">  1       -1 0.19300056E-02 0.79891392E+02</pdfrwt>
<totfact> 0.19087666E+05</totfact>
</mgrwt>
</event>
<event>
 8    1  0.2561077E-016  0.8048107E+02  0.7818608E-02  0.1327692E+00
         -1   -1    0    0    0  501 -0.00000000000E+00  0.00000000000E+00  0.12640845146E+01  0.12640945620E+01  0.50400000000E-02 0.  1.
          2   -1    0    0  501    0  0.00000000000E+00 -0.00000000000E+00 -0.12810016314E+04  0.12810016314E+04  0.25500000000E-02 0. -1.
         24    2    1    2    0    0  0.00000000000E+00  0.00000000000E+00 -0.12797375469E+04  0.12822657260E+04  0.80481072776E+02 0.  0.
         66    2    3    3    0    0 -0.11446223643E+01  0.21005292417E+02 -0.11863468423E+04  0.11865350238E+04  0.19999998574E+01 0.  0.
        -13    1    3    3    0    0  0.11446223643E+01 -0.21005292417E+02 -0.93390704587E+02  0.95730702165E+02  0.10566000000E+00 0.  1.
         13    1    4    4    0    0  0.60142938865E-01  0.52798288145E+01 -0.29602283461E+03  0.29606994103E+03  0.10566000000E+00 0. -1.
        -13    1    4    4    0    0 -0.28899836647E+00  0.12075943865E+02 -0.66694735272E+03  0.66705674001E+03  0.10566000000E+00 0.  1.
        -14    1    4    4    0    0 -0.91576693674E+00  0.36495197381E+01 -0.22337665501E+03  0.22340834279E+03  0.00000000000E+00 0.  1.
<mgrwt>
<rscale>  0 0.80481073E+02</rscale>
<asrwt>0</asrwt>
<pdfrwt beam="1">  1        2 0.19707614E+00 0.80481073E+02</pdfrwt>
<pdfrwt beam="2">  1       -1 0.19447634E-03 0.80481073E+02</pdfrwt>
<totfact> 0.34175325E+05</totfact>
</mgrwt>
</event>
<event>
 8    1  0.2561077E-016  0.8125934E+02  0.7818608E-02  0.1325515E+00
         -1   -1    0    0    0  501 -0.00000000000E+00  0.00000000000E+00  0.16393199830E+02  0.16393200604E+02  0.50400000000E-02 0.  1.
          2   -1    0    0  501    0  0.00000000000E+00 -0.00000000000E+00 -0.10069847296E+03  0.10069847299E+03  0.25500000000E-02 0. -1.
         24    2    1    2    0    0 -0.44408920985E-15 -0.71054273576E-14 -0.84305273128E+02  0.11709167359E+03  0.81259343757E+02 0.  0.
         66    2    3    3    0    0 -0.37349845105E+01 -0.38459293781E+02 -0.60158280116E+02  0.71526820659E+02  0.20000048910E+01 0.  0.
        -13    1    3    3    0    0  0.37349845105E+01  0.38459293781E+02 -0.24146993012E+02  0.45564852935E+02  0.10566000000E+00 0.  1.
         13    1    4    4    0    0 -0.27871013618E+01 -0.22299201511E+02 -0.36045249937E+02  0.42476976459E+02  0.10566000000E+00 0. -1.
        -13    1    4    4    0    0 -0.35585486246E+00 -0.39410025687E+01 -0.54946586485E+01  0.67720433865E+01  0.10566000000E+00 0.  1.
        -14    1    4    4    0    0 -0.59202828629E+00 -0.12219089702E+02 -0.18618371530E+02  0.22277800813E+02  0.00000000000E+00 0.  1.
<mgrwt>
<rscale>  0 0.81259344E+02</rscale>
<asrwt>0</asrwt>
<pdfrwt beam="1">  1        2 0.15492072E-01 0.81259344E+02</pdfrwt>
<pdfrwt beam="2">  1       -1 0.25220309E-02 0.81259344E+02</pdfrwt>
<totfact> 0.17032138E+05</totfact>
</mgrwt>
</event>
<event>
 8    1  0.2561077E-016  0.7975593E+02  0.7818608E-02  0.1329746E+00
         -1   -1    0    0    0  501 -0.00000000000E+00  0.00000000000E+00  0.69398393881E+02  0.69398394064E+02  0.50400000000E-02 0.  1.
          2   -1    0    0  501    0  0.00000000000E+00 -0.00000000000E+00 -0.22914824299E+02  0.22914824441E+02  0.25500000000E-02 0. -1.
         24    2    1    2    0    0 -0.17763568394E-14  0.00000000000E+00  0.46483569582E+02  0.92313218505E+02  0.79755928116E+02 0.  0.
         66    2    3    3    0    0 -0.74816211542E+01  0.25143274107E+02 -0.11468736219E+02  0.28700013904E+02  0.19999999248E+01 0.  0.
        -13    1    3    3    0    0  0.74816211542E+01 -0.25143274107E+02  0.57952305801E+02  0.63613204601E+02  0.10566000000E+00 0.  1.
         13    1    4    4    0    0 -0.53116451496E+00  0.11544412046E+01 -0.72292346007E+00  0.14658282988E+01  0.10566000000E+00 0. -1.
        -13    1    4    4    0    0 -0.42651336769E+01  0.12030671233E+02 -0.57198552307E+01  0.13987720453E+02  0.10566000000E+00 0.  1.
         14    1    4    4    0    0 -0.26853229623E+01  0.11958161670E+02 -0.50259575278E+01  0.13246465152E+02  0.00000000000E+00 0. -1.
<mgrwt>
<rscale>  0 0.79755928E+02</rscale>
<asrwt>0</asrwt>
<pdfrwt beam="1">  1        2 0.35253577E-02 0.79755928E+02</pdfrwt>
<pdfrwt beam="2">  1       -1 0.10676676E-01 0.79755928E+02</pdfrwt>
<totfact> 0.12870036E+05</totfact>
</mgrwt>
</event>
<event>
 8    1  0.2561077E-016  0.8334609E+02  0.7818608E-02  0.1319815E+00
          2   -1    0    0  501    0  0.00000000000E+00  0.00000000000E+00  0.44201540045E+03  0.44201540045E+03  0.25500000000E-02 0. -1.
         -1   -1    0    0    0  501 -0.00000000000E+00 -0.00000000000E+00 -0.39289173742E+01  0.39289206069E+01  0.50400000000E-02 0.  1.
         24    2    1    2    0    0  0.00000000000E+00  0.00000000000E+00  0.43808648307E+03  0.44594432106E+03  0.83346090704E+02 0.  0.
         66    2    3    3    0    0 -0.22101785317E+01 -0.41445627053E+02  0.23771362569E+03  0.24131803235E+03  0.20000022119E+01 0.  0.
        -13    1    3    3    0    0  0.22101785317E+01  0.41445627053E+02  0.20037285738E+03  0.20462628871E+03  0.10566000000E+00 0.  1.
         13    1    4    4    0    0 -0.18929951469E+01 -0.22714600312E+02  0.13008587285E+03  0.13206771739E+03  0.10566000000E+00 0. -1.
        -13    1    4    4    0    0 -0.15027383284E+00 -0.14035773320E+01  0.70396494910E+01  0.71805599046E+01  0.10566000000E+00 0.  1.
         14    1    4    4    0    0 -0.16690955201E+00 -0.17327449409E+02  0.10058810335E+03  0.10206975506E+03  0.00000000000E+00 0. -1.
<mgrwt>
<rscale>  0 0.83346091E+02</rscale>
<asrwt>0</asrwt>
<pdfrwt beam="1">  1        2 0.68002325E-01 0.83346091E+02</pdfrwt>
<pdfrwt beam="2">  1       -1 0.60444947E-03 0.83346091E+02</pdfrwt>
<totfact> 0.26270802E+05</totfact>
</mgrwt>
</event>
<event>
 8    1  0.2561077E-016  0.7938879E+02  0.7818608E-02  0.1330795E+00
         -1   -1    0    0    0  501 -0.00000000000E+00  0.00000000000E+00  0.21765467985E+02  0.21765468568E+02  0.50400000000E-02 0.  1.
          2   -1    0    0  501    0  0.00000000000E+00 -0.00000000000E+00 -0.72391960019E+02  0.72391960064E+02  0.25500000000E-02 0. -1.
         24    2    1    2    0    0  0.44408920985E-15 -0.35527136788E-14 -0.50626492034E+02  0.94157428632E+02  0.79388788068E+02 0.  0.
         66    2    3    3    0    0 -0.20674887953E+01  0.30636296764E+02 -0.55116853918E+02  0.63124676527E+02  0.20000028746E+01 0.  0.
        -13    1    3    3    0    0  0.20674887953E+01 -0.30636296764E+02  0.44903618837E+01  0.31032752105E+02  0.10566000000E+00 0.  1.
         13    1    4    4    0    0 -0.32867070624E+00  0.68959373039E+01 -0.12905702530E+02  0.14636608130E+02  0.10566000000E+00 0. -1.
        -13    1    4    4    0    0 -0.55714566198E-01  0.12209931259E+00 -0.44973289628E+00  0.48107802758E+00  0.10566000000E+00 0. -1.
        -14    1    4    4    0    0 -0.16831035229E+01  0.23618260148E+02 -0.41761418492E+02  0.48006990369E+02  0.00000000000E+00 0.  1.
<mgrwt>
<rscale>  0 0.79388788E+02</rscale>
<asrwt>0</asrwt>
<pdfrwt beam="1">  1        2 0.11137225E-01 0.79388788E+02</pdfrwt>
<pdfrwt beam="2">  1       -1 0.33485336E-02 0.79388788E+02</pdfrwt>
<totfact> 0.16621370E+05</totfact>
</mgrwt>
</event>
<event>
 8    1  0.2561077E-016  0.7618646E+02  0.7818608E-02  0.1340236E+00
         -1   -1    0    0    0  501 -0.00000000000E+00  0.00000000000E+00  0.14636680476E+02  0.14636681344E+02  0.50400000000E-02 0.  1.
          2   -1    0    0  501    0  0.00000000000E+00 -0.00000000000E+00 -0.99140918851E+02  0.99140918883E+02  0.25500000000E-02 0. -1.
         24    2    1    2    0    0  0.00000000000E+00 -0.17763568394E-14 -0.84504238374E+02  0.11377760023E+03  0.76186455557E+02 0.  0.
         66    2    3    3    0    0  0.44203682631E+01 -0.12252099043E+02 -0.95699226507E+02  0.96602254237E+02  0.19999957736E+01 0.  0.
        -13    1    3    3    0    0 -0.44203682631E+01  0.12252099043E+02  0.11194988133E+02  0.17175345990E+02  0.10566000000E+00 0.  1.
         13    1    4    4    0    0  0.36386198601E+01 -0.11460558542E+02 -0.87933798848E+02  0.88752172370E+02  0.10566000000E+00 0. -1.
        -13    1    4    4    0    0  0.77038921225E+00 -0.81218553414E+00 -0.76573756543E+01  0.77394903467E+01  0.10566000000E+00 0.  1.
         14    1    4    4    0    0  0.11359190811E-01  0.20645032516E-01 -0.10805200484E+00  0.11059152017E+00  0.00000000000E+00 0. -1.
<mgrwt>
<rscale>  0 0.76186456E+02</rscale>
<asrwt>0</asrwt>
<pdfrwt beam="1">  1        2 0.15252449E-01 0.76186456E+02</pdfrwt>
<pdfrwt beam="2">  1       -1 0.22517971E-02 0.76186456E+02</pdfrwt>
<totfact> 0.20148089E+05</totfact>
</mgrwt>
</event>
<event>
 8    1  0.2561077E-016  0.8028043E+02  0.7818608E-02  0.1328257E+00
         -1   -1    0    0    0  501 -0.00000000000E+00  0.00000000000E+00  0.25900854253E+01  0.25900903290E+01  0.50400000000E-02 0.  1.
          2   -1    0    0  501    0  0.00000000000E+00 -0.00000000000E+00 -0.62207804917E+03  0.62207804917E+03  0.25500000000E-02 0. -1.
         24    2    1    2    0    0  0.00000000000E+00 -0.22204460493E-15 -0.61948796374E+03  0.62466813950E+03  0.80280429042E+02 0.  0.
         66    2    3    3    0    0 -0.35398059305E+02 -0.14556612702E+01 -0.45635443298E+03  0.45773191942E+03  0.20000007280E+01 0.  0.
        -13    1    3    3    0    0  0.35398059305E+02  0.14556612702E+01 -0.16313353077E+03  0.16693622009E+03  0.10566000000E+00 0.  1.
         13    1    4    4    0    0 -0.28405741889E+02 -0.90667393232E+00 -0.37099243274E+03  0.37207943311E+03  0.10566000000E+00 0. -1.
        -13    1    4    4    0    0 -0.39002324480E+01 -0.15496088256E-01 -0.45180519154E+02  0.45348677250E+02  0.10566000000E+00 0.  1.
         14    1    4    4    0    0 -0.30920849682E+01 -0.53349124960E+00 -0.40181481078E+02  0.40303809051E+02  0.00000000000E+00 0. -1.
<mgrwt>
<rscale>  0 0.80280429E+02</rscale>
<asrwt>0</asrwt>
<pdfrwt beam="1">  1        2 0.95704197E-01 0.80280429E+02</pdfrwt>
<pdfrwt beam="2">  1       -1 0.39847555E-03 0.80280429E+02</pdfrwt>
<totfact> 0.32188194E+05</totfact>
</mgrwt>
</event>
<event>
 8    1  0.2561077E-016  0.7622361E+02  0.7818608E-02  0.1340123E+00
          2   -1    0    0  501    0  0.00000000000E+00  0.00000000000E+00  0.16834752818E+02  0.16834753011E+02  0.25500000000E-02 0. -1.
         -1   -1    0    0    0  501 -0.00000000000E+00 -0.00000000000E+00 -0.86280422048E+02  0.86280422195E+02  0.50400000000E-02 0.  1.
         24    2    1    2    0    0  0.00000000000E+00 -0.17763568394E-14 -0.69445669229E+02  0.10311517521E+03  0.76223607781E+02 0.  0.
         66    2    3    3    0    0  0.32976423442E+02 -0.15835133069E+02 -0.20410280548E+02  0.41937757400E+02  0.20000003431E+01 0.  0.
        -13    1    3    3    0    0 -0.32976423442E+02  0.15835133069E+02 -0.49035388682E+02  0.61177417807E+02  0.10566000000E+00 0.  1.
         13    1    4    4    0    0  0.97003367940E+01 -0.51383105952E+01 -0.53534853926E+01  0.12213506441E+02  0.10566000000E+00 0.  1.
        -13    1    4    4    0    0  0.11256374029E+02 -0.52627801371E+01 -0.68639051474E+01  0.14196026520E+02  0.10566000000E+00 0. -1.
         14    1    4    4    0    0  0.12019712618E+02 -0.54340423364E+01 -0.81928900076E+01  0.15528224439E+02  0.00000000000E+00 0. -1.
<mgrwt>
<rscale>  0 0.76223608E+02</rscale>
<asrwt>0</asrwt>
<pdfrwt beam="1">  1        2 0.25899620E-02 0.76223608E+02</pdfrwt>
<pdfrwt beam="2">  1       -1 0.13273911E-01 0.76223608E+02</pdfrwt>
<totfact> 0.13781564E+05</totfact>
</mgrwt>
</event>
<event>
 8    1  0.2561077E-016  0.7967105E+02  0.7818608E-02  0.1329988E+00
          2   -1    0    0  501    0  0.00000000000E+00  0.00000000000E+00  0.52809648947E+03  0.52809648948E+03  0.25500000000E-02 0. -1.
         -1   -1    0    0    0  501 -0.00000000000E+00 -0.00000000000E+00 -0.30048826048E+01  0.30048868315E+01  0.50400000000E-02 0.  1.
         24    2    1    2    0    0  0.17763568394E-14  0.00000000000E+00  0.52509160687E+03  0.53110137631E+03  0.79671050675E+02 0.  0.
         66    2    3    3    0    0 -0.15213474016E+02 -0.28669802423E+02  0.41638849020E+03  0.41765629665E+03  0.19999986998E+01 0.  0.
        -13    1    3    3    0    0  0.15213474016E+02  0.28669802423E+02  0.10870311667E+03  0.11344507966E+03  0.10566000000E+00 0.  1.
         13    1    4    4    0    0 -0.13821609748E+02 -0.26119967645E+02  0.37160009740E+03  0.37277329995E+03  0.10566000000E+00 0. -1.
        -13    1    4    4    0    0 -0.12908470991E+01 -0.24338338357E+01  0.42043760254E+02  0.42134057171E+02  0.10566000000E+00 0.  1.
         14    1    4    4    0    0 -0.10101716882E+00 -0.11600094245E+00  0.27446325470E+01  0.27489395238E+01  0.00000000000E+00 0. -1.
<mgrwt>
<rscale>  0 0.79671051E+02</rscale>
<asrwt>0</asrwt>
<pdfrwt beam="1">  1        2 0.81245535E-01 0.79671051E+02</pdfrwt>
<pdfrwt beam="2">  1       -1 0.46229041E-03 0.79671051E+02</pdfrwt>
<totfact> 0.31311885E+05</totfact>
</mgrwt>
</event>
<event>
 8    1  0.2561077E-016  0.7964036E+02  0.7818608E-02  0.1330075E+00
         -1   -1    0    0    0  501 -0.00000000000E+00  0.00000000000E+00  0.17268158003E+01  0.17268231553E+01  0.50400000000E-02 0.  1.
          2   -1    0    0  501    0  0.00000000000E+00 -0.00000000000E+00 -0.91824699783E+03  0.91824699784E+03  0.25500000000E-02 0. -1.
         24    2    1    2    0    0  0.35527136788E-14 -0.17763568394E-14 -0.91652018203E+03  0.91997382099E+03  0.79640361859E+02 0.  0.
         66    2    3    3    0    0 -0.25151335166E+02  0.93084164839E+01 -0.79817436309E+03  0.79862729116E+03  0.20000014940E+01 0.  0.
        -13    1    3    3    0    0  0.25151335166E+02 -0.93084164839E+01 -0.11834581894E+03  0.12134652983E+03  0.10566000000E+00 0.  1.
         13    1    4    4    0    0 -0.43201132317E+00  0.31471823673E+00 -0.21776562970E+02  0.21783377611E+02  0.10566000000E+00 0. -1.
        -13    1    4    4    0    0 -0.17093832904E+02  0.66090567138E+01 -0.53270401054E+03  0.53301918612E+03  0.10566000000E+00 0.  1.
         14    1    4    4    0    0 -0.76254909386E+01  0.23846415334E+01 -0.24369378958E+03  0.24382472743E+03  0.00000000000E+00 0. -1.
<mgrwt>
<rscale>  0 0.79640362E+02</rscale>
<asrwt>0</asrwt>
<pdfrwt beam="1">  1        2 0.14126838E+00 0.79640362E+02</pdfrwt>
<pdfrwt beam="2">  1       -1 0.26566527E-03 0.79640362E+02</pdfrwt>
<totfact> 0.35431605E+05</totfact>
</mgrwt>
</event>
<event>
 8    1  0.2561077E-016  0.8098730E+02  0.7818608E-02  0.1326273E+00
          2   -1    0    0  501    0  0.00000000000E+00  0.00000000000E+00  0.67576931800E+02  0.67576931848E+02  0.25500000000E-02 0. -1.
         -1   -1    0    0    0  501 -0.00000000000E+00 -0.00000000000E+00 -0.24264724163E+02  0.24264724686E+02  0.50400000000E-02 0.  1.
         24    2    1    2    0    0  0.00000000000E+00  0.17763568394E-14  0.43312207637E+02  0.91841656535E+02  0.80987298662E+02 0.  0.
         66    2    3    3    0    0 -0.45315145861E+01 -0.10308220608E+02  0.65749713877E+02  0.66736938116E+02  0.19999994065E+01 0.  0.
        -13    1    3    3    0    0  0.45315145861E+01  0.10308220608E+02 -0.22437506240E+02  0.25104718418E+02  0.10566000000E+00 0.  1.
         13    1    4    4    0    0 -0.57519762111E+00 -0.25820797264E+01  0.13371255164E+02  0.13630833310E+02  0.10566000000E+00 0. -1.
        -13    1    4    4    0    0 -0.22705655939E+01 -0.46702432612E+01  0.27793086057E+02  0.28274253957E+02  0.10566000000E+00 0.  1.
         14    1    4    4    0    0 -0.16857513711E+01 -0.30558976203E+01  0.24585372656E+02  0.24831850849E+02  0.00000000000E+00 0. -1.
<mgrwt>
<rscale>  0 0.80987299E+02</rscale>
<asrwt>0</asrwt>
<pdfrwt beam="1">  1        2 0.10396451E-01 0.80987299E+02</pdfrwt>
<pdfrwt beam="2">  1       -1 0.37330346E-02 0.80987299E+02</pdfrwt>
<totfact> 0.15485294E+05</totfact>
</mgrwt>
</event>
<event>
 8    1  0.2561077E-016  0.7985896E+02  0.7818608E-02  0.1329452E+00
          2   -1    0    0  501    0  0.00000000000E+00  0.00000000000E+00  0.31156502151E+03  0.31156502152E+03  0.25500000000E-02 0. -1.
         -1   -1    0    0    0  501 -0.00000000000E+00 -0.00000000000E+00 -0.51172716704E+01  0.51172741523E+01  0.50400000000E-02 0.  1.
         24    2    1    2    0    0  0.00000000000E+00 -0.44408920985E-15  0.30644774984E+03  0.31668229568E+03  0.79858956986E+02 0.  0.
         66    2    3    3    0    0 -0.23018213441E+02  0.16467082250E+01  0.28241602632E+03  0.28336436211E+03  0.19999975485E+01 0.  0.
        -13    1    3    3    0    0  0.23018213441E+02 -0.16467082250E+01  0.24031723522E+02  0.33317933571E+02  0.10566000000E+00 0.  1.
         13    1    4    4    0    0 -0.68798384960E+01  0.49846785168E+00  0.77524301872E+02  0.77830644304E+02  0.10566000000E+00 0. -1.
        -13    1    4    4    0    0 -0.89388828671E+01  0.12667689149E-01  0.11049014589E+03  0.11085119435E+03  0.10566000000E+00 0.  1.
         14    1    4    4    0    0 -0.71994920777E+01  0.11355726841E+01  0.94401578562E+02  0.94682523448E+02  0.00000000000E+00 0. -1.
<mgrwt>
<rscale>  0 0.79858957E+02</rscale>
<asrwt>0</asrwt>
<pdfrwt beam="1">  1        2 0.47933092E-01 0.79858957E+02</pdfrwt>
<pdfrwt beam="2">  1       -1 0.78727256E-03 0.79858957E+02</pdfrwt>
<totfact> 0.25965524E+05</totfact>
</mgrwt>
</event>
<event>
 8    1  0.2561077E-016  0.7897862E+02  0.7818608E-02  0.1331975E+00
          2   -1    0    0  501    0  0.00000000000E+00  0.00000000000E+00  0.88476275183E+01  0.88476278858E+01  0.25500000000E-02 0. -1.
         -1   -1    0    0    0  501 -0.00000000000E+00 -0.00000000000E+00 -0.17625128878E+03  0.17625128886E+03  0.50400000000E-02 0.  1.
         24    2    1    2    0    0  0.00000000000E+00  0.00000000000E+00 -0.16740366127E+03  0.18509891674E+03  0.78978624791E+02 0.  0.
         66    2    3    3    0    0  0.26088715020E+02  0.14568983139E+02 -0.23339655396E+02  0.37968616422E+02  0.19999994622E+01 0.  0.
        -13    1    3    3    0    0 -0.26088715020E+02 -0.14568983139E+02 -0.14406400587E+03  0.14713030032E+03  0.10566000000E+00 0.  1.
         13    1    4    4    0    0  0.23392371818E+01  0.11933542079E+01 -0.14245807939E+01  0.29894346174E+01  0.10566000000E+00 0.  1.
        -13    1    4    4    0    0  0.13292301664E+02  0.71708495329E+01 -0.12168226558E+02  0.19395444521E+02  0.10566000000E+00 0. -1.
        -14    1    4    4    0    0  0.10457176174E+02  0.62047793986E+01 -0.97468480442E+01  0.15583737283E+02  0.00000000000E+00 0.  1.
<mgrwt>
<rscale>  0 0.78978625E+02</rscale>
<asrwt>0</asrwt>
<pdfrwt beam="1">  1        2 0.13611736E-02 0.78978625E+02</pdfrwt>
<pdfrwt beam="2">  1       -1 0.27115580E-01 0.78978625E+02</pdfrwt>
<totfact> 0.10675887E+05</totfact>
</mgrwt>
</event>
<event>
 8    1  0.2561077E-016  0.7995586E+02  0.7818608E-02  0.1329177E+00
          2   -1    0    0  501    0  0.00000000000E+00  0.00000000000E+00  0.42698813487E+03  0.42698813487E+03  0.25500000000E-02 0. -1.
         -1   -1    0    0    0  501 -0.00000000000E+00 -0.00000000000E+00 -0.37430413521E+01  0.37430447453E+01  0.50400000000E-02 0.  1.
         24    2    1    2    0    0  0.00000000000E+00  0.00000000000E+00  0.42324509351E+03  0.43073117962E+03  0.79955862276E+02 0.  0.
         66    2    3    3    0    0  0.20941791033E+02 -0.11596616132E+02  0.38407396673E+03  0.38482444313E+03  0.19999986079E+01 0.  0.
        -13    1    3    3    0    0 -0.20941791033E+02  0.11596616132E+02  0.39171126786E+02  0.45906736490E+02  0.10566000000E+00 0.  1.
         13    1    4    4    0    0  0.49551441772E+01 -0.25343550580E+01  0.92524381667E+02  0.92691686662E+02  0.10566000000E+00 0. -1.
        -13    1    4    4    0    0  0.10069458793E+02 -0.57302609421E+01  0.19600784570E+03  0.19634998505E+03  0.10566000000E+00 0.  1.
        -14    1    4    4    0    0  0.59171880629E+01 -0.33320001321E+01  0.95541739366E+02  0.95782771418E+02  0.00000000000E+00 0.  1.
<mgrwt>
<rscale>  0 0.79955862E+02</rscale>
<asrwt>0</asrwt>
<pdfrwt beam="1">  1        2 0.65690476E-01 0.79955862E+02</pdfrwt>
<pdfrwt beam="2">  1       -1 0.57585284E-03 0.79955862E+02</pdfrwt>
<totfact> 0.28941077E+05</totfact>
</mgrwt>
</event>
<event>
 8    1  0.2561077E-016  0.8164842E+02  0.7818608E-02  0.1324437E+00
         -1   -1    0    0    0  501 -0.00000000000E+00  0.00000000000E+00  0.26721795623E+01  0.26721843153E+01  0.50400000000E-02 0.  1.
          2   -1    0    0  501    0  0.00000000000E+00 -0.00000000000E+00 -0.62369109412E+03  0.62369109412E+03  0.25500000000E-02 0. -1.
         24    2    1    2    0    0  0.00000000000E+00  0.00000000000E+00 -0.62101891456E+03  0.62636327844E+03  0.81648419093E+02 0.  0.
         66    2    3    3    0    0 -0.30373654311E+02 -0.20027054627E+02 -0.45235163252E+03  0.45381674852E+03  0.20000003711E+01 0.  0.
        -13    1    3    3    0    0  0.30373654311E+02  0.20027054627E+02 -0.16866728203E+03  0.17254652991E+03  0.10566000000E+00 0.  1.
         13    1    4    4    0    0 -0.26224548156E+01 -0.15107140351E+01 -0.44021397696E+02  0.44125436489E+02  0.10566000000E+00 0.  1.
        -13    1    4    4    0    0 -0.12143516066E+02 -0.77400429232E+01 -0.17684233112E+03  0.17742771623E+03  0.10566000000E+00 0. -1.
         14    1    4    4    0    0 -0.15607683429E+02 -0.10776297668E+02 -0.23148790371E+03  0.23226359580E+03  0.00000000000E+00 0. -1.
<mgrwt>
<rscale>  0 0.81648419E+02</rscale>
<asrwt>0</asrwt>
<pdfrwt beam="1">  1        2 0.95952360E-01 0.81648419E+02</pdfrwt>
<pdfrwt beam="2">  1       -1 0.41110541E-03 0.81648419E+02</pdfrwt>
<totfact> 0.30823750E+05</totfact>
</mgrwt>
</event>
<event>
 8    1  0.2561077E-016  0.8534107E+02  0.7818608E-02  0.1314543E+00
         -1   -1    0    0    0  501 -0.00000000000E+00  0.00000000000E+00  0.12249085178E+03  0.12249085188E+03  0.50400000000E-02 0.  1.
          2   -1    0    0  501    0  0.00000000000E+00 -0.00000000000E+00 -0.14864576396E+02  0.14864576615E+02  0.25500000000E-02 0. -1.
         24    2    1    2    0    0  0.00000000000E+00  0.00000000000E+00  0.10762627538E+03  0.13735542850E+03  0.85341072088E+02 0.  0.
         66    2    3    3    0    0  0.37749487451E+02  0.21482116859E+01  0.22093201349E+02  0.43837748170E+02  0.20000006313E+01 0.  0.
        -13    1    3    3    0    0 -0.37749487451E+02 -0.21482116859E+01  0.85533074034E+02  0.93517680328E+02  0.10566000000E+00 0.  1.
         13    1    4    4    0    0  0.13728904805E+02  0.10251251260E+01  0.83957342419E+01  0.16125545763E+02  0.10566000000E+00 0. -1.
        -13    1    4    4    0    0  0.15809021121E+02  0.64918941325E-01  0.91309751400E+01  0.18256922914E+02  0.10566000000E+00 0.  1.
        -14    1    4    4    0    0  0.82115615253E+01  0.10581676186E+01  0.45664919666E+01  0.94552794921E+01  0.00000000000E+00 0.  1.
<mgrwt>
<rscale>  0 0.85341072E+02</rscale>
<asrwt>0</asrwt>
<pdfrwt beam="1">  1        2 0.22868579E-02 0.85341072E+02</pdfrwt>
<pdfrwt beam="2">  1       -1 0.18844746E-01 0.85341072E+02</pdfrwt>
<totfact> 0.96326472E+04</totfact>
</mgrwt>
</event>
<event>
 8    1  0.2561077E-016  0.8071114E+02  0.7818608E-02  0.1327045E+00
         -1   -1    0    0    0  501 -0.00000000000E+00  0.00000000000E+00  0.23747318405E+01  0.23747371888E+01  0.50400000000E-02 0.  1.
          2   -1    0    0  501    0  0.00000000000E+00 -0.00000000000E+00 -0.68579117073E+03  0.68579117074E+03  0.25500000000E-02 0. -1.
         24    2    1    2    0    0  0.00000000000E+00  0.00000000000E+00 -0.68341643889E+03  0.68816590793E+03  0.80711138537E+02 0.  0.
         66    2    3    3    0    0 -0.15056834331E+02  0.60198324044E+00 -0.66088431669E+03  0.66105911285E+03  0.20000008150E+01 0.  0.
        -13    1    3    3    0    0  0.15056834331E+02 -0.60198324044E+00 -0.22532122209E+02  0.27106795074E+02  0.10566000000E+00 0.  1.
         13    1    4    4    0    0 -0.38920659139E+00 -0.39484350789E-01 -0.27838166987E+02  0.27841116106E+02  0.10566000000E+00 0. -1.
        -13    1    4    4    0    0 -0.41464412248E+01  0.75681410158E+00 -0.19350349312E+03  0.19354942200E+03  0.10566000000E+00 0.  1.
         14    1    4    4    0    0 -0.10521186515E+02 -0.11534651034E+00 -0.43954265658E+03  0.43966857475E+03  0.00000000000E+00 0. -1.
<mgrwt>
<rscale>  0 0.80711139E+02</rscale>
<asrwt>0</asrwt>
<pdfrwt beam="1">  1        2 0.10550618E+00 0.80711139E+02</pdfrwt>
<pdfrwt beam="2">  1       -1 0.36534432E-03 0.80711139E+02</pdfrwt>
<totfact> 0.32534935E+05</totfact>
</mgrwt>
</event>
<event>
 8    1  0.2561077E-016  0.7961537E+02  0.7818608E-02  0.1330147E+00
         -1   -1    0    0    0  501 -0.00000000000E+00  0.00000000000E+00  0.36409396368E+01  0.36409431251E+01  0.50400000000E-02 0.  1.
          2   -1    0    0  501    0  0.00000000000E+00 -0.00000000000E+00 -0.43523132869E+03  0.43523132870E+03  0.25500000000E-02 0. -1.
         24    2    1    2    0    0  0.17763568394E-14 -0.71054273576E-14 -0.43159038905E+03  0.43887227182E+03  0.79615369443E+02 0.  0.
         66    2    3    3    0    0  0.10134119066E+02 -0.33507359763E+02 -0.32011449393E+03  0.32202908680E+03  0.19999991707E+01 0.  0.
        -13    1    3    3    0    0 -0.10134119066E+02  0.33507359763E+02 -0.11147589512E+03  0.11684318502E+03  0.10566000000E+00 0.  1.
         13    1    4    4    0    0  0.38677929587E+01 -0.13648214180E+02 -0.12888090958E+03  0.12965929813E+03  0.10566000000E+00 0. -1.
        -13    1    4    4    0    0  0.48957896707E+01 -0.16452980036E+02 -0.15280826911E+03  0.15376946245E+03  0.10566000000E+00 0.  1.
        -14    1    4    4    0    0  0.13705364367E+01 -0.34061655469E+01 -0.38425315239E+02  0.38600326230E+02  0.00000000000E+00 0.  1.
<mgrwt>
<rscale>  0 0.79615369E+02</rscale>
<asrwt>0</asrwt>
<pdfrwt beam="1">  1        2 0.66958625E-01 0.79615369E+02</pdfrwt>
<pdfrwt beam="2">  1       -1 0.56014518E-03 0.79615369E+02</pdfrwt>
<totfact> 0.29456731E+05</totfact>
</mgrwt>
</event>
<event>
 8    1  0.2561077E-016  0.7993141E+02  0.7818608E-02  0.1329246E+00
         -1   -1    0    0    0  501 -0.00000000000E+00  0.00000000000E+00  0.54039169131E+02  0.54039169366E+02  0.50400000000E-02 0.  1.
          2   -1    0    0  501    0  0.00000000000E+00 -0.00000000000E+00 -0.29557401920E+02  0.29557402030E+02  0.25500000000E-02 0. -1.
         24    2    1    2    0    0  0.35527136788E-14  0.00000000000E+00  0.24481767211E+02  0.83596571396E+02  0.79931406990E+02 0.  0.
         66    2    3    3    0    0 -0.26390193530E+02 -0.22359866069E+02 -0.86383716887E+01  0.35707525780E+02  0.20000016867E+01 0.  0.
        -13    1    3    3    0    0  0.26390193530E+02  0.22359866069E+02  0.33120138899E+02  0.47889045615E+02  0.10566000000E+00 0.  1.
         13    1    4    4    0    0 -0.55007709917E+01 -0.38397084404E+01 -0.19485865538E+01  0.69864151039E+01  0.10566000000E+00 0. -1.
        -13    1    4    4    0    0 -0.26872062295E+01 -0.20252749307E+01 -0.76231155735E+00  0.34518254316E+01  0.10566000000E+00 0. -1.
        -14    1    4    4    0    0 -0.18202216309E+02 -0.16494882698E+02 -0.59274735775E+01  0.25269285245E+02  0.00000000000E+00 0.  1.
<mgrwt>
<rscale>  0 0.79931407E+02</rscale>
<asrwt>0</asrwt>
<pdfrwt beam="1">  1        2 0.45472927E-02 0.79931407E+02</pdfrwt>
<pdfrwt beam="2">  1       -1 0.83137183E-02 0.79931407E+02</pdfrwt>
<totfact> 0.13448138E+05</totfact>
</mgrwt>
</event>
<event>
 8    1  0.2561077E-016  0.8832478E+02  0.7818608E-02  0.1306960E+00
          2   -1    0    0  501    0  0.00000000000E+00  0.00000000000E+00  0.46183989494E+03  0.46183989495E+03  0.25500000000E-02 0. -1.
         -1   -1    0    0    0  501 -0.00000000000E+00 -0.00000000000E+00 -0.42229269788E+01  0.42229299864E+01  0.50400000000E-02 0.  1.
         24    2    1    2    0    0  0.00000000000E+00  0.71054273576E-14  0.45761696796E+03  0.46606282493E+03  0.88324783719E+02 0.  0.
         66    2    3    3    0    0 -0.86583538214E+01  0.40089003177E+02  0.31502076279E+03  0.31768565634E+03  0.19999971854E+01 0.  0.
        -13    1    3    3    0    0  0.86583538214E+01 -0.40089003177E+02  0.14259620517E+03  0.14837716860E+03  0.10566000000E+00 0.  1.
         13    1    4    4    0    0 -0.22354980076E+00  0.10963191281E+01  0.88663704110E+01  0.89373138272E+01  0.10566000000E+00 0.  1.
        -13    1    4    4    0    0 -0.27663302155E+01  0.17124733706E+02  0.13272299435E+03  0.13385183406E+03  0.10566000000E+00 0.  1.
         14    1    4    4    0    0 -0.56684738052E+01  0.21867950343E+02  0.17343139802E+03  0.17489650845E+03  0.00000000000E+00 0. -1.
<mgrwt>
<rscale>  0 0.88324784E+02</rscale>
<asrwt>0</asrwt>
<pdfrwt beam="1">  1        2 0.71052294E-01 0.88324784E+02</pdfrwt>
<pdfrwt beam="2">  1       -1 0.64968129E-03 0.88324784E+02</pdfrwt>
<totfact> 0.22893365E+05</totfact>
</mgrwt>
</event>
<event>
 8    1  0.2561077E-016  0.7716983E+02  0.7818608E-02  0.1337280E+00
         -1   -1    0    0    0  501 -0.00000000000E+00  0.00000000000E+00  0.18075836148E+02  0.18075836851E+02  0.50400000000E-02 0.  1.
          2   -1    0    0  501    0  0.00000000000E+00 -0.00000000000E+00 -0.82363866092E+02  0.82363866132E+02  0.25500000000E-02 0. -1.
         24    2    1    2    0    0  0.00000000000E+00  0.00000000000E+00 -0.64288029944E+02  0.10043970298E+03  0.77169833103E+02 0.  0.
         66    2    3    3    0    0 -0.89086484109E+01  0.11932229121E+02 -0.78458136655E+02  0.79883798805E+02  0.19999989663E+01 0.  0.
        -13    1    3    3    0    0  0.89086484109E+01 -0.11932229121E+02  0.14170106711E+02  0.20555904177E+02  0.10566000000E+00 0.  1.
         13    1    4    4    0    0 -0.43115783894E+01  0.48636919696E+01 -0.34114932838E+02  0.34728734707E+02  0.10566000000E+00 0. -1.
        -13    1    4    4    0    0 -0.40571420512E+00  0.57778952450E+00 -0.59066033247E+01  0.59495858361E+01  0.10566000000E+00 0.  1.
         14    1    4    4    0    0 -0.41913558163E+01  0.64907476274E+01 -0.38436600493E+02  0.39205478262E+02  0.00000000000E+00 0. -1.
<mgrwt>
<rscale>  0 0.77169833E+02</rscale>
<asrwt>0</asrwt>
<pdfrwt beam="1">  1        2 0.12671364E-01 0.77169833E+02</pdfrwt>
<pdfrwt beam="2">  1       -1 0.27808980E-02 0.77169833E+02</pdfrwt>
<totfact> 0.18531290E+05</totfact>
</mgrwt>
</event>
<event>
 8    1  0.2561077E-016  0.7900765E+02  0.7818608E-02  0.1331891E+00
         -1   -1    0    0    0  501 -0.00000000000E+00  0.00000000000E+00  0.27131929676E+02  0.27131930145E+02  0.50400000000E-02 0.  1.
          2   -1    0    0  501    0  0.00000000000E+00 -0.00000000000E+00 -0.57517182206E+02  0.57517182262E+02  0.25500000000E-02 0. -1.
         24    2    1    2    0    0  0.00000000000E+00  0.44408920985E-15 -0.30385252529E+02  0.84649112407E+02  0.79007649376E+02 0.  0.
         66    2    3    3    0    0  0.13318106909E+02 -0.36829156610E+01 -0.54824172789E+02  0.56574073192E+02  0.19999990363E+01 0.  0.
        -13    1    3    3    0    0 -0.13318106909E+02  0.36829156610E+01  0.24438920260E+02  0.28075039215E+02  0.10566000000E+00 0.  1.
         13    1    4    4    0    0  0.75996845408E+01 -0.21518546498E+01 -0.33953231092E+02  0.34859987797E+02  0.10566000000E+00 0. -1.
        -13    1    4    4    0    0  0.21126317659E+01 -0.13507538804E+00 -0.69339171527E+01  0.72506433821E+01  0.10566000000E+00 0.  1.
         14    1    4    4    0    0  0.36057906028E+01 -0.13959856232E+01 -0.13937024544E+02  0.14463442013E+02  0.00000000000E+00 0. -1.
<mgrwt>
<rscale>  0 0.79007649E+02</rscale>
<asrwt>0</asrwt>
<pdfrwt beam="1">  1        2 0.88487973E-02 0.79007649E+02</pdfrwt>
<pdfrwt beam="2">  1       -1 0.41741431E-02 0.79007649E+02</pdfrwt>
<totfact> 0.15948968E+05</totfact>
</mgrwt>
</event>
<event>
 8    1  0.2561077E-016  0.8219484E+02  0.7818608E-02  0.1322936E+00
         -1   -1    0    0    0  501 -0.00000000000E+00  0.00000000000E+00  0.17403609789E+01  0.17403682767E+01  0.50400000000E-02 0.  1.
          2   -1    0    0  501    0  0.00000000000E+00 -0.00000000000E+00 -0.97048513009E+03  0.97048513009E+03  0.25500000000E-02 0. -1.
         24    2    1    2    0    0  0.35527136788E-14  0.00000000000E+00 -0.96874476911E+03  0.97222549837E+03  0.82194841693E+02 0.  0.
         66    2    3    3    0    0 -0.28537061339E+02 -0.49387886055E+01 -0.82915198152E+03  0.82966002915E+03  0.20000015109E+01 0.  0.
        -13    1    3    3    0    0  0.28537061339E+02  0.49387886055E+01 -0.13959278759E+03  0.14256546922E+03  0.10566000000E+00 0.  1.
         13    1    4    4    0    0 -0.12369564929E+02 -0.18615112990E+01 -0.36304018601E+03  0.36325563889E+03  0.10566000000E+00 0. -1.
        -13    1    4    4    0    0 -0.47103723221E+01 -0.12928168159E+01 -0.15289432369E+03  0.15297236470E+03  0.10566000000E+00 0.  1.
        -14    1    4    4    0    0 -0.11457124088E+02 -0.17844604907E+01 -0.31321747182E+03  0.31343202556E+03  0.00000000000E+00 0.  1.
<mgrwt>
<rscale>  0 0.82194842E+02</rscale>
<asrwt>0</asrwt>
<pdfrwt beam="1">  1        2 0.14930497E+00 0.82194842E+02</pdfrwt>
<pdfrwt beam="2">  1       -1 0.26774918E-03 0.82194842E+02</pdfrwt>
<totfact> 0.32785874E+05</totfact>
</mgrwt>
</event>
<event>
 8    1  0.2561077E-016  0.7048627E+02  0.7818608E-02  0.1358447E+00
          2   -1    0    0  501    0  0.00000000000E+00  0.00000000000E+00  0.15390437140E+04  0.15390437140E+04  0.25500000000E-02 0. -1.
         -1   -1    0    0    0  501 -0.00000000000E+00 -0.00000000000E+00 -0.80703772440E+00  0.80705346180E+00  0.50400000000E-02 0.  1.
         24    2    1    2    0    0 -0.35527136788E-14  0.88817841970E-15  0.15382366763E+04  0.15398507675E+04  0.70486266889E+02 0.  0.
         66    2    3    3    0    0  0.15697945246E+02 -0.54705375336E+01  0.14479234791E+04  0.14480202877E+04  0.19999983323E+01 0.  0.
        -13    1    3    3    0    0 -0.15697945246E+02  0.54705375336E+01  0.90313197219E+02  0.91830479809E+02  0.10566000000E+00 0.  1.
         13    1    4    4    0    0  0.13169997195E+02 -0.45296248642E+01  0.11784776907E+04  0.11785599878E+04  0.10566000000E+00 0. -1.
        -13    1    4    4    0    0  0.24846731471E+01 -0.91777855799E+00  0.26860521221E+03  0.26861829258E+03  0.10566000000E+00 0.  1.
        -14    1    4    4    0    0  0.43274904060E-01 -0.23134111416E-01  0.84057621305E+00  0.84200728879E+00  0.00000000000E+00 0.  1.
<mgrwt>
<rscale>  0 0.70486267E+02</rscale>
<asrwt>0</asrwt>
<pdfrwt beam="1">  1        2 0.23677509E+00 0.70486267E+02</pdfrwt>
<pdfrwt beam="2">  1       -1 0.12416132E-03 0.70486267E+02</pdfrwt>
<totfact> 0.45653619E+05</totfact>
</mgrwt>
</event>
<event>
 8    1  0.2561077E-016  0.8123159E+02  0.7818608E-02  0.1325592E+00
         -1   -1    0    0    0  501 -0.00000000000E+00  0.00000000000E+00  0.36449590078E+01  0.36449624922E+01  0.50400000000E-02 0.  1.
          2   -1    0    0  501    0  0.00000000000E+00 -0.00000000000E+00 -0.45258180100E+03  0.45258180101E+03  0.25500000000E-02 0. -1.
         24    2    1    2    0    0 -0.17763568394E-14  0.17763568394E-14 -0.44893684199E+03  0.45622676350E+03  0.81231592593E+02 0.  0.
         66    2    3    3    0    0  0.14014606266E+02 -0.11528955510E+02 -0.42852648735E+03  0.42891523215E+03  0.20000013545E+01 0.  0.
        -13    1    3    3    0    0 -0.14014606266E+02  0.11528955510E+02 -0.20410354637E+02  0.27311531345E+02  0.10566000000E+00 0.  1.
         13    1    4    4    0    0  0.85934599654E+01 -0.64527838347E+01 -0.26881778797E+03  0.26903252641E+03  0.10566000000E+00 0. -1.
        -13    1    4    4    0    0  0.34351500220E+00 -0.52801879559E+00 -0.14698695445E+02  0.14712566677E+02  0.10566000000E+00 0.  1.
         14    1    4    4    0    0  0.50776312981E+01 -0.45481528802E+01 -0.14501000394E+03  0.14517013906E+03  0.00000000000E+00 0. -1.
<mgrwt>
<rscale>  0 0.81231593E+02</rscale>
<asrwt>0</asrwt>
<pdfrwt beam="1">  1        2 0.69627925E-01 0.81231593E+02</pdfrwt>
<pdfrwt beam="2">  1       -1 0.56076355E-03 0.81231593E+02</pdfrwt>
<totfact> 0.28322481E+05</totfact>
</mgrwt>
</event>
<event>
 8    1  0.2561077E-016  0.8055247E+02  0.7818608E-02  0.1327491E+00
         -1   -1    0    0    0  501 -0.00000000000E+00  0.00000000000E+00  0.23754808967E+02  0.23754809502E+02  0.50400000000E-02 0.  1.
          2   -1    0    0  501    0  0.00000000000E+00 -0.00000000000E+00 -0.68288288128E+02  0.68288288175E+02  0.25500000000E-02 0. -1.
         24    2    1    2    0    0  0.00000000000E+00  0.35527136788E-14 -0.44533479160E+02  0.92043097677E+02  0.80552473978E+02 0.  0.
         66    2    3    3    0    0 -0.29643671321E+02  0.25547149084E+02 -0.33045977374E+02  0.51258567068E+02  0.20000003983E+01 0.  0.
        -13    1    3    3    0    0  0.29643671321E+02 -0.25547149084E+02 -0.11487501786E+02  0.40784530609E+02  0.10566000000E+00 0.  1.
         13    1    4    4    0    0 -0.62945023810E+01  0.53461005309E+01 -0.70243848158E+01  0.10842264394E+02  0.10566000000E+00 0. -1.
        -13    1    4    4    0    0 -0.65194162598E+01  0.64453749760E+01 -0.84006159947E+01  0.12434916971E+02  0.10566000000E+00 0.  1.
        -14    1    4    4    0    0 -0.16829752680E+02  0.13755673577E+02 -0.17620976564E+02  0.27981385703E+02  0.00000000000E+00 0.  1.
<mgrwt>
<rscale>  0 0.80552474E+02</rscale>
<asrwt>0</asrwt>
<pdfrwt beam="1">  1        2 0.10505890E-01 0.80552474E+02</pdfrwt>
<pdfrwt beam="2">  1       -1 0.36545861E-02 0.80552474E+02</pdfrwt>
<totfact> 0.15753038E+05</totfact>
</mgrwt>
</event>
<event>
 8    1  0.2561077E-016  0.7560727E+02  0.7818608E-02  0.1342001E+00
         -1   -1    0    0    0  501 -0.00000000000E+00  0.00000000000E+00  0.52507025762E+03  0.52507025764E+03  0.50400000000E-02 0.  1.
          2   -1    0    0  501    0  0.00000000000E+00 -0.00000000000E+00 -0.27217584986E+01  0.27217596932E+01  0.25500000000E-02 0. -1.
         24    2    1    2    0    0  0.00000000000E+00 -0.35527136788E-14  0.52234849912E+03  0.52779201733E+03  0.75607268371E+02 0.  0.
         66    2    3    3    0    0 -0.25810315751E+02 -0.25038994856E+02  0.34215983143E+03  0.34405010379E+03  0.20000042123E+01 0.  0.
        -13    1    3    3    0    0  0.25810315751E+02  0.25038994856E+02  0.18018866769E+03  0.18374191354E+03  0.10566000000E+00 0.  1.
         13    1    4    4    0    0 -0.57844812073E+01 -0.58817149968E+01  0.72255624069E+02  0.72725106860E+02  0.10566000000E+00 0. -1.
        -13    1    4    4    0    0 -0.83190521257E+01 -0.75553508448E+01  0.10585396851E+03  0.10644887866E+03  0.10566000000E+00 0.  1.
        -14    1    4    4    0    0 -0.11706782418E+02 -0.11601929014E+02  0.16405023885E+03  0.16487611828E+03  0.00000000000E+00 0.  1.
<mgrwt>
<rscale>  0 0.75607268E+02</rscale>
<asrwt>0</asrwt>
<pdfrwt beam="1">  1        2 0.41873215E-03 0.75607268E+02</pdfrwt>
<pdfrwt beam="2">  1       -1 0.80780044E-01 0.75607268E+02</pdfrwt>
<totfact> 0.74870383E+04</totfact>
</mgrwt>
</event>
<event>
 8    1  0.2561077E-016  0.7898063E+02  0.7818608E-02  0.1331969E+00
         -1   -1    0    0    0  501 -0.00000000000E+00  0.00000000000E+00  0.67033842035E+02  0.67033842224E+02  0.50400000000E-02 0.  1.
          2   -1    0    0  501    0  0.00000000000E+00 -0.00000000000E+00 -0.23264146002E+02  0.23264146142E+02  0.25500000000E-02 0. -1.
         24    2    1    2    0    0  0.00000000000E+00  0.00000000000E+00  0.43769696033E+02  0.90297988366E+02  0.78980633145E+02 0.  0.
         66    2    3    3    0    0  0.18802364288E+02  0.24944957825E+02 -0.56756244294E+01  0.31811830145E+02  0.20000002105E+01 0.  0.
        -13    1    3    3    0    0 -0.18802364288E+02 -0.24944957825E+02  0.49445320462E+02  0.58486158220E+02  0.10566000000E+00 0.  1.
         13    1    4    4    0    0  0.10639407033E+02  0.13766736668E+02 -0.33108373450E+01  0.17711375680E+02  0.10566000000E+00 0. -1.
        -13    1    4    4    0    0  0.39241308885E+01  0.47338644453E+01 -0.15642133734E+01  0.63455656430E+01  0.10566000000E+00 0.  1.
         14    1    4    4    0    0  0.42388263666E+01  0.64443567111E+01 -0.80057371101E+00  0.77548888227E+01  0.00000000000E+00 0. -1.
<mgrwt>
<rscale>  0 0.78980633E+02</rscale>
<asrwt>0</asrwt>
<pdfrwt beam="1">  1        2 0.35790994E-02 0.78980633E+02</pdfrwt>
<pdfrwt beam="2">  1       -1 0.10312899E-01 0.78980633E+02</pdfrwt>
<totfact> 0.13271716E+05</totfact>
</mgrwt>
</event>
<event>
 8    1  0.2561077E-016  0.7467627E+02  0.7818608E-02  0.1344876E+00
          2   -1    0    0  501    0  0.00000000000E+00  0.00000000000E+00  0.11849407774E+04  0.11849407774E+04  0.25500000000E-02 0. -1.
         -1   -1    0    0    0  501 -0.00000000000E+00 -0.00000000000E+00 -0.11765396270E+01  0.11765504220E+01  0.50400000000E-02 0.  1.
         24    2    1    2    0    0  0.00000000000E+00  0.00000000000E+00  0.11837642378E+04  0.11861173278E+04  0.74676266214E+02 0.  0.
         66    2    3    3    0    0 -0.99853754029E+01 -0.19697951015E+02  0.10699763700E+04  0.10702061247E+04  0.19999914281E+01 0.  0.
        -13    1    3    3    0    0  0.99853754029E+01  0.19697951015E+02  0.11378786776E+03  0.11591120312E+03  0.10566000000E+00 0.  1.
         13    1    4    4    0    0 -0.71519554057E+01 -0.12278293641E+02  0.69043831875E+03  0.69058452786E+03  0.10566000000E+00 0. -1.
        -13    1    4    4    0    0 -0.10454816343E+01 -0.34537227063E+01  0.17779961058E+03  0.17783625592E+03  0.10566000000E+00 0.  1.
        -14    1    4    4    0    0 -0.17879383629E+01 -0.39659346680E+01  0.20173844066E+03  0.20178534090E+03  0.00000000000E+00 0.  1.
<mgrwt>
<rscale>  0 0.74676266E+02</rscale>
<asrwt>0</asrwt>
<pdfrwt beam="1">  1        2 0.18229949E+00 0.74676266E+02</pdfrwt>
<pdfrwt beam="2">  1       -1 0.18100603E-03 0.74676266E+02</pdfrwt>
<totfact> 0.41925994E+05</totfact>
</mgrwt>
</event>
<event>
 8    1  0.2561077E-016  0.8180532E+02  0.7818608E-02  0.1324005E+00
          2   -1    0    0  501    0  0.00000000000E+00  0.00000000000E+00  0.38446371842E+03  0.38446371843E+03  0.25500000000E-02 0. -1.
         -1   -1    0    0    0  501 -0.00000000000E+00 -0.00000000000E+00 -0.43515857445E+01  0.43515886632E+01  0.50400000000E-02 0.  1.
         24    2    1    2    0    0  0.00000000000E+00  0.00000000000E+00  0.38011213268E+03  0.38881530710E+03  0.81805315363E+02 0.  0.
         66    2    3    3    0    0  0.21832203898E+02 -0.60301379992E+01  0.35190988315E+03  0.35264369207E+03  0.20000007053E+01 0.  0.
        -13    1    3    3    0    0 -0.21832203898E+02  0.60301379992E+01  0.28202249524E+02  0.36171615026E+02  0.10566000000E+00 0.  1.
         13    1    4    4    0    0  0.81207520132E+01 -0.25844212767E+01  0.11909715275E+03  0.11940171190E+03  0.10566000000E+00 0. -1.
        -13    1    4    4    0    0  0.25448241617E+01 -0.50593130273E+00  0.43153227626E+02  0.43231288612E+02  0.10566000000E+00 0.  1.
         14    1    4    4    0    0  0.11166627723E+02 -0.29397854198E+01  0.18965950277E+03  0.19001069156E+03  0.00000000000E+00 0. -1.
<mgrwt>
<rscale>  0 0.81805315E+02</rscale>
<asrwt>0</asrwt>
<pdfrwt beam="1">  1        2 0.59148286E-01 0.81805315E+02</pdfrwt>
<pdfrwt beam="2">  1       -1 0.66947471E-03 0.81805315E+02</pdfrwt>
<totfact> 0.26282912E+05</totfact>
</mgrwt>
</event>
<event>
 8    1  0.2561077E-016  0.8023140E+02  0.7818608E-02  0.1328396E+00
          2   -1    0    0  501    0  0.00000000000E+00  0.00000000000E+00  0.10968897379E+03  0.10968897382E+03  0.25500000000E-02 0. -1.
         -1   -1    0    0    0  501 -0.00000000000E+00 -0.00000000000E+00 -0.14671205843E+02  0.14671206709E+02  0.50400000000E-02 0.  1.
         24    2    1    2    0    0  0.00000000000E+00  0.00000000000E+00  0.95017767950E+02  0.12436018053E+03  0.80231404548E+02 0.  0.
         66    2    3    3    0    0 -0.27916794065E+02  0.49104898409E+01  0.91483590993E+02  0.95795134197E+02  0.20000033952E+01 0.  0.
        -13    1    3    3    0    0  0.27916794065E+02 -0.49104898409E+01  0.35341769575E+01  0.28565046335E+02  0.10566000000E+00 0.  1.
         13    1    4    4    0    0 -0.10408259454E+02  0.20395315991E+01  0.34407419128E+02  0.36005183087E+02  0.10566000000E+00 0. -1.
        -13    1    4    4    0    0 -0.12254696310E+02  0.24773084478E+01  0.41868869163E+02  0.43695858016E+02  0.10566000000E+00 0.  1.
        -14    1    4    4    0    0 -0.52538383014E+01  0.39364979399E+00  0.15207302702E+02  0.16094093094E+02  0.00000000000E+00 0.  1.
<mgrwt>
<rscale>  0 0.80231405E+02</rscale>
<asrwt>0</asrwt>
<pdfrwt beam="1">  1        2 0.16875226E-01 0.80231405E+02</pdfrwt>
<pdfrwt beam="2">  1       -1 0.22571087E-02 0.80231405E+02</pdfrwt>
<totfact> 0.18058870E+05</totfact>
</mgrwt>
</event>
<event>
 8    1  0.2561077E-016  0.7994055E+02  0.7818608E-02  0.1329220E+00
          2   -1    0    0  501    0  0.00000000000E+00  0.00000000000E+00  0.84189806158E+03  0.84189806159E+03  0.25500000000E-02 0. -1.
         -1   -1    0    0    0  501 -0.00000000000E+00 -0.00000000000E+00 -0.18976405048E+01  0.18976471978E+01  0.50400000000E-02 0.  1.
         24    2    1    2    0    0  0.00000000000E+00  0.00000000000E+00  0.84000042108E+03  0.84379570879E+03  0.79940545106E+02 0.  0.
         66    2    3    3    0    0  0.86503365855E+01  0.13024542109E+02  0.80825377142E+03  0.80840746287E+03  0.19999982705E+01 0.  0.
        -13    1    3    3    0    0 -0.86503365855E+01 -0.13024542109E+02  0.31746649659E+02  0.35388245913E+02  0.10566000000E+00 0.  1.
         13    1    4    4    0    0  0.10544857090E+01  0.11789518216E+01  0.86648144872E+02  0.86662645017E+02  0.10566000000E+00 0. -1.
        -13    1    4    4    0    0  0.22364301143E+01  0.30842475601E+01  0.23402735983E+03  0.23405839126E+03  0.10566000000E+00 0.  1.
         14    1    4    4    0    0  0.53594207622E+01  0.87613427272E+01  0.48757826671E+03  0.48768642660E+03  0.00000000000E+00 0. -1.
<mgrwt>
<rscale>  0 0.79940545E+02</rscale>
<asrwt>0</asrwt>
<pdfrwt beam="1">  1        2 0.12952266E+00 0.79940545E+02</pdfrwt>
<pdfrwt beam="2">  1       -1 0.29194548E-03 0.79940545E+02</pdfrwt>
<totfact> 0.34714277E+05</totfact>
</mgrwt>
</event>
<event>
 8    1  0.2561077E-016  0.8072401E+02  0.7818608E-02  0.1327009E+00
         -1   -1    0    0    0  501 -0.00000000000E+00  0.00000000000E+00  0.35005066643E+02  0.35005067006E+02  0.50400000000E-02 0.  1.
          2   -1    0    0  501    0  0.00000000000E+00 -0.00000000000E+00 -0.46538731362E+02  0.46538731432E+02  0.25500000000E-02 0. -1.
         24    2    1    2    0    0  0.35527136788E-14  0.00000000000E+00 -0.11533664719E+02  0.81543798437E+02  0.80724009079E+02 0.  0.
         66    2    3    3    0    0  0.28083550776E+02  0.27334824667E+02 -0.15417636538E+02  0.42161380217E+02  0.20000004134E+01 0.  0.
        -13    1    3    3    0    0 -0.28083550776E+02 -0.27334824667E+02  0.38839718196E+01  0.39382418220E+02  0.10566000000E+00 0.  1.
         13    1    4    4    0    0  0.24284937191E+02  0.23631628753E+02 -0.12851051706E+02  0.36240484901E+02  0.10566000000E+00 0. -1.
        -13    1    4    4    0    0  0.28062495124E+01  0.23811060212E+01 -0.18178383056E+01  0.41061420276E+01  0.10566000000E+00 0.  1.
        -14    1    4    4    0    0  0.99236407236E+00  0.13220898929E+01 -0.74874652702E+00  0.18147532887E+01  0.00000000000E+00 0.  1.
<mgrwt>
<rscale>  0 0.80724009E+02</rscale>
<asrwt>0</asrwt>
<pdfrwt beam="1">  1        2 0.71598048E-02 0.80724009E+02</pdfrwt>
<pdfrwt beam="2">  1       -1 0.53853949E-02 0.80724009E+02</pdfrwt>
<totfact> 0.14353954E+05</totfact>
</mgrwt>
</event>
<event>
 8    1  0.2561077E-016  0.7908874E+02  0.7818608E-02  0.1331658E+00
         -1   -1    0    0    0  501 -0.00000000000E+00  0.00000000000E+00  0.26595961732E+02  0.26595962209E+02  0.50400000000E-02 0.  1.
          2   -1    0    0  501    0  0.00000000000E+00 -0.00000000000E+00 -0.58796790034E+02  0.58796790089E+02  0.25500000000E-02 0. -1.
         24    2    1    2    0    0  0.17763568394E-14  0.88817841970E-15 -0.32200828303E+02  0.85392752299E+02  0.79088740044E+02 0.  0.
         66    2    3    3    0    0 -0.86301991595E+01 -0.55778979673E+01 -0.57311965301E+02  0.58260232168E+02  0.20000005726E+01 0.  0.
        -13    1    3    3    0    0  0.86301991595E+01  0.55778979673E+01  0.25111136999E+02  0.27132520131E+02  0.10566000000E+00 0.  1.
         13    1    4    4    0    0 -0.51155798405E+01 -0.30014926415E+01 -0.30069432814E+02  0.30648981532E+02  0.10566000000E+00 0. -1.
        -13    1    4    4    0    0 -0.13812821864E+01 -0.16852738314E+01 -0.13789092207E+02  0.13960598708E+02  0.10566000000E+00 0.  1.
        -14    1    4    4    0    0 -0.21333371326E+01 -0.89113149442E+00 -0.13453440280E+02  0.13650651927E+02  0.00000000000E+00 0.  1.
<mgrwt>
<rscale>  0 0.79088740E+02</rscale>
<asrwt>0</asrwt>
<pdfrwt beam="1">  1        2 0.90456600E-02 0.79088740E+02</pdfrwt>
<pdfrwt beam="2">  1       -1 0.40916865E-02 0.79088740E+02</pdfrwt>
<totfact> 0.15984279E+05</totfact>
</mgrwt>
</event>
<event>
 8    1  0.2561077E-016  0.8028601E+02  0.7818608E-02  0.1328242E+00
          2   -1    0    0  501    0  0.00000000000E+00  0.00000000000E+00  0.40302305777E+03  0.40302305778E+03  0.25500000000E-02 0. -1.
         -1   -1    0    0    0  501 -0.00000000000E+00 -0.00000000000E+00 -0.39984320097E+01  0.39984351861E+01  0.50400000000E-02 0.  1.
         24    2    1    2    0    0  0.71054273576E-14  0.00000000000E+00  0.39902462576E+03  0.40702149297E+03  0.80286012304E+02 0.  0.
         66    2    3    3    0    0  0.23880349832E+02 -0.10762574320E+02  0.35368555141E+03  0.35465979951E+03  0.20000001601E+01 0.  0.
        -13    1    3    3    0    0 -0.23880349832E+02  0.10762574320E+02  0.45339074354E+02  0.52361693454E+02  0.10566000000E+00 0.  1.
         13    1    4    4    0    0  0.53569969051E+01 -0.20711768922E+01  0.68910887161E+02  0.69149900383E+02  0.10566000000E+00 0. -1.
        -13    1    4    4    0    0  0.15121534429E+01 -0.51021734441E+00  0.21499355338E+02  0.21558765590E+02  0.10566000000E+00 0.  1.
         14    1    4    4    0    0  0.17011199484E+02 -0.81811800833E+01  0.26327530891E+03  0.26395113354E+03  0.00000000000E+00 0. -1.
<mgrwt>
<rscale>  0 0.80286012E+02</rscale>
<asrwt>0</asrwt>
<pdfrwt beam="1">  1        2 0.62003560E-01 0.80286012E+02</pdfrwt>
<pdfrwt beam="2">  1       -1 0.61514351E-03 0.80286012E+02</pdfrwt>
<totfact> 0.28065111E+05</totfact>
</mgrwt>
</event>
<event>
 8    1  0.2561077E-016  0.7962920E+02  0.7818608E-02  0.1330107E+00
         -1   -1    0    0    0  501 -0.00000000000E+00  0.00000000000E+00  0.58119838379E+01  0.58119860232E+01  0.50400000000E-02 0.  1.
          2   -1    0    0  501    0  0.00000000000E+00 -0.00000000000E+00 -0.27274718127E+03  0.27274718128E+03  0.25500000000E-02 0. -1.
         24    2    1    2    0    0  0.00000000000E+00  0.35527136788E-14 -0.26693519743E+03  0.27855916731E+03  0.79629203573E+02 0.  0.
         66    2    3    3    0    0  0.24604888196E+02  0.27350456769E+02 -0.18657555236E+03  0.19017856011E+03  0.19999942822E+01 0.  0.
        -13    1    3    3    0    0 -0.24604888196E+02 -0.27350456769E+02 -0.80359645071E+02  0.88380607197E+02  0.10566000000E+00 0.  1.
         13    1    4    4    0    0  0.11124172663E+02  0.13048534950E+02 -0.87544353077E+02  0.89207827019E+02  0.10566000000E+00 0. -1.
        -13    1    4    4    0    0  0.99798561885E+01  0.11369752034E+02 -0.76195965282E+02  0.77683364244E+02  0.10566000000E+00 0.  1.
        -14    1    4    4    0    0  0.35008593451E+01  0.29321697846E+01 -0.22835234004E+02  0.23287368848E+02  0.00000000000E+00 0.  1.
<mgrwt>
<rscale>  0 0.79629204E+02</rscale>
<asrwt>0</asrwt>
<pdfrwt beam="1">  1        2 0.41961095E-01 0.79629204E+02</pdfrwt>
<pdfrwt beam="2">  1       -1 0.89415174E-03 0.79629204E+02</pdfrwt>
<totfact> 0.24932119E+05</totfact>
</mgrwt>
</event>
<event>
 8    1  0.2561077E-016  0.7965504E+02  0.7818608E-02  0.1330033E+00
         -1   -1    0    0    0  501 -0.00000000000E+00  0.00000000000E+00  0.16627622732E+02  0.16627623496E+02  0.50400000000E-02 0.  1.
          2   -1    0    0  501    0  0.00000000000E+00 -0.00000000000E+00 -0.95397367744E+02  0.95397367778E+02  0.25500000000E-02 0. -1.
         24    2    1    2    0    0  0.00000000000E+00  0.00000000000E+00 -0.78769745012E+02  0.11202499127E+03  0.79655043410E+02 0.  0.
         66    2    3    3    0    0  0.25540639495E+01  0.38360077558E+02 -0.53903346858E+02  0.66238882965E+02  0.20000052639E+01 0.  0.
        -13    1    3    3    0    0 -0.25540639495E+01 -0.38360077558E+02 -0.24866398154E+02  0.45786108309E+02  0.10566000000E+00 0.  1.
         13    1    4    4    0    0  0.62296082916E+00  0.14019867278E+02 -0.18941747886E+02  0.23574260024E+02  0.10566000000E+00 0. -1.
        -13    1    4    4    0    0  0.39814143529E+00  0.13310601629E+02 -0.19182499185E+02  0.23351875114E+02  0.10566000000E+00 0.  1.
        -14    1    4    4    0    0  0.15329616850E+01  0.11029608650E+02 -0.15779099788E+02  0.19312747827E+02  0.00000000000E+00 0.  1.
<mgrwt>
<rscale>  0 0.79655043E+02</rscale>
<asrwt>0</asrwt>
<pdfrwt beam="1">  1        2 0.14676518E-01 0.79655043E+02</pdfrwt>
<pdfrwt beam="2">  1       -1 0.25580959E-02 0.79655043E+02</pdfrwt>
<totfact> 0.17699548E+05</totfact>
</mgrwt>
</event>
<event>
 8    1  0.2561077E-016  0.8563804E+02  0.7818608E-02  0.1313772E+00
          2   -1    0    0  501    0  0.00000000000E+00  0.00000000000E+00  0.17206799064E+03  0.17206799065E+03  0.25500000000E-02 0. -1.
         -1   -1    0    0    0  501 -0.00000000000E+00 -0.00000000000E+00 -0.10655487542E+02  0.10655488734E+02  0.50400000000E-02 0.  1.
         24    2    1    2    0    0  0.00000000000E+00  0.00000000000E+00  0.16141250309E+03  0.18272347939E+03  0.85638039241E+02 0.  0.
         66    2    3    3    0    0 -0.22836272855E+02  0.43882958615E+01  0.15740543696E+03  0.15912644056E+03  0.20000007569E+01 0.  0.
        -13    1    3    3    0    0  0.22836272855E+02 -0.43882958615E+01  0.40070661378E+01  0.23597038830E+02  0.10566000000E+00 0.  1.
         13    1    4    4    0    0 -0.80672525594E+01  0.89143186533E+00  0.57208492340E+02  0.57781467397E+02  0.10566000000E+00 0. -1.
        -13    1    4    4    0    0 -0.66492880342E+01  0.11314886732E+01  0.42821788649E+02  0.43349856344E+02  0.10566000000E+00 0.  1.
        -14    1    4    4    0    0 -0.81197322618E+01  0.23653753231E+01  0.57375155967E+02  0.57995116817E+02  0.00000000000E+00 0.  1.
<mgrwt>
<rscale>  0 0.85638039E+02</rscale>
<asrwt>0</asrwt>
<pdfrwt beam="1">  1        2 0.26471998E-01 0.85638039E+02</pdfrwt>
<pdfrwt beam="2">  1       -1 0.16393059E-02 0.85638039E+02</pdfrwt>
<totfact> 0.17486845E+05</totfact>
</mgrwt>
</event>
<event>
 8    1  0.2561077E-016  0.7746451E+02  0.7818608E-02  0.1336405E+00
          2   -1    0    0  501    0  0.00000000000E+00  0.00000000000E+00  0.16705169085E+02  0.16705169280E+02  0.25500000000E-02 0. -1.
         -1   -1    0    0    0  501 -0.00000000000E+00 -0.00000000000E+00 -0.89803789391E+02  0.89803789532E+02  0.50400000000E-02 0.  1.
         24    2    1    2    0    0 -0.71054273576E-14  0.00000000000E+00 -0.73098620305E+02  0.10650895881E+03  0.77464508110E+02 0.  0.
         66    2    3    3    0    0 -0.22703077310E+02  0.23155561324E+02 -0.75180267184E+01  0.33348620112E+02  0.19999995096E+01 0.  0.
        -13    1    3    3    0    0  0.22703077310E+02 -0.23155561324E+02 -0.65580593587E+02  0.73160338701E+02  0.10566000000E+00 0.  1.
         13    1    4    4    0    0 -0.17554214123E+02  0.17438448384E+02 -0.52066710356E+01  0.25285776690E+02  0.10566000000E+00 0. -1.
        -13    1    4    4    0    0 -0.49382692222E+01  0.54484590282E+01 -0.23471444181E+01  0.77196152526E+01  0.10566000000E+00 0.  1.
        -14    1    4    4    0    0 -0.21059396498E+00  0.26865391147E+00  0.35788735402E-01  0.34322816874E+00  0.00000000000E+00 0.  1.
<mgrwt>
<rscale>  0 0.77464508E+02</rscale>
<asrwt>0</asrwt>
<pdfrwt beam="1">  1        2 0.25700261E-02 0.77464508E+02</pdfrwt>
<pdfrwt beam="2">  1       -1 0.13815967E-01 0.77464508E+02</pdfrwt>
<totfact> 0.13133751E+05</totfact>
</mgrwt>
</event>
<event>
 8    1  0.2561077E-016  0.7776761E+02  0.7818608E-02  0.1335509E+00
         -1   -1    0    0    0  501 -0.00000000000E+00  0.00000000000E+00  0.69772228056E+01  0.69772246259E+01  0.50400000000E-02 0.  1.
          2   -1    0    0  501    0  0.00000000000E+00 -0.00000000000E+00 -0.21669795714E+03  0.21669795716E+03  0.25500000000E-02 0. -1.
         24    2    1    2    0    0  0.88817841970E-15  0.71054273576E-14 -0.20972073434E+03  0.22367518178E+03  0.77767605949E+02 0.  0.
         66    2    3    3    0    0 -0.52664775135E+01 -0.31637144898E+02 -0.16802921695E+03  0.17107443551E+03  0.20000030855E+01 0.  0.
        -13    1    3    3    0    0  0.52664775135E+01  0.31637144898E+02 -0.41691517380E+02  0.52600746270E+02  0.10566000000E+00 0.  1.
         13    1    4    4    0    0 -0.26739336801E+01 -0.18198068888E+02 -0.98366291298E+02  0.10007126491E+03  0.10566000000E+00 0.  1.
        -13    1    4    4    0    0 -0.18687852726E+01 -0.72922707642E+01 -0.39738534376E+02  0.40445418154E+02  0.10566000000E+00 0. -1.
        -14    1    4    4    0    0 -0.72375856077E+00 -0.61468052455E+01 -0.29924391281E+02  0.30557752449E+02  0.00000000000E+00 0.  1.
<mgrwt>
<rscale>  0 0.77767606E+02</rscale>
<asrwt>0</asrwt>
<pdfrwt beam="1">  1        2 0.33338142E-01 0.77767606E+02</pdfrwt>
<pdfrwt beam="2">  1       -1 0.10734192E-02 0.77767606E+02</pdfrwt>
<totfact> 0.24439844E+05</totfact>
</mgrwt>
</event>
<event>
 8    1  0.2561077E-016  0.8019083E+02  0.7818608E-02  0.1328511E+00
         -1   -1    0    0    0  501 -0.00000000000E+00  0.00000000000E+00  0.65086431587E+02  0.65086431782E+02  0.50400000000E-02 0.  1.
          2   -1    0    0  501    0  0.00000000000E+00 -0.00000000000E+00 -0.24700115469E+02  0.24700115601E+02  0.25500000000E-02 0. -1.
         24    2    1    2    0    0  0.00000000000E+00  0.00000000000E+00  0.40386316118E+02  0.89786547382E+02  0.80190832152E+02 0.  0.
         66    2    3    3    0    0  0.38447429516E+02 -0.64276069863E+01  0.30596141836E+02  0.49594786480E+02  0.19999957042E+01 0.  0.
        -13    1    3    3    0    0 -0.38447429516E+02  0.64276069863E+01  0.97901742817E+01  0.40191760902E+02  0.10566000000E+00 0.  1.
         13    1    4    4    0    0  0.10831198644E+02 -0.23646375738E+01  0.87263431840E+01  0.14109096510E+02  0.10566000000E+00 0. -1.
        -13    1    4    4    0    0  0.21584802559E+02 -0.26339528402E+01  0.16848915630E+02  0.27508880949E+02  0.10566000000E+00 0.  1.
        -14    1    4    4    0    0  0.60314283119E+01 -0.14290165723E+01  0.50208830218E+01  0.79768090214E+01  0.00000000000E+00 0.  1.
<mgrwt>
<rscale>  0 0.80190832E+02</rscale>
<asrwt>0</asrwt>
<pdfrwt beam="1">  1        2 0.38000179E-02 0.80190832E+02</pdfrwt>
<pdfrwt beam="2">  1       -1 0.10013297E-01 0.80190832E+02</pdfrwt>
<totfact> 0.12862343E+05</totfact>
</mgrwt>
</event>
<event>
 8    1  0.2561077E-016  0.7796589E+02  0.7818608E-02  0.1334925E+00
          2   -1    0    0  501    0  0.00000000000E+00  0.00000000000E+00  0.74125272266E+02  0.74125272310E+02  0.25500000000E-02 0. -1.
         -1   -1    0    0    0  501 -0.00000000000E+00 -0.00000000000E+00 -0.20501372087E+02  0.20501372707E+02  0.50400000000E-02 0.  1.
         24    2    1    2    0    0 -0.35527136788E-14 -0.88817841970E-15  0.53623900179E+02  0.94626645017E+02  0.77965885340E+02 0.  0.
         66    2    3    3    0    0  0.26288535861E+02  0.53042202813E+01  0.61124542905E+02  0.66778975889E+02  0.20000012467E+01 0.  0.
        -13    1    3    3    0    0 -0.26288535861E+02 -0.53042202813E+01 -0.75006427265E+01  0.27847669127E+02  0.10566000000E+00 0.  1.
         13    1    4    4    0    0  0.52960209657E+01  0.11282497146E+01  0.12172638419E+02  0.13323103077E+02  0.10566000000E+00 0. -1.
        -13    1    4    4    0    0  0.11561547076E+02  0.14533183405E+01  0.27268213078E+02  0.29653804368E+02  0.10566000000E+00 0.  1.
        -14    1    4    4    0    0  0.94309678191E+01  0.27226522262E+01  0.21683691408E+02  0.23802068445E+02  0.00000000000E+00 0.  1.
<mgrwt>
<rscale>  0 0.77965885E+02</rscale>
<asrwt>0</asrwt>
<pdfrwt beam="1">  1        2 0.11403888E-01 0.77965885E+02</pdfrwt>
<pdfrwt beam="2">  1       -1 0.31540573E-02 0.77965885E+02</pdfrwt>
<totfact> 0.17554616E+05</totfact>
</mgrwt>
</event>
<event>
 8    1  0.2561077E-016  0.8019218E+02  0.7818608E-02  0.1328507E+00
          2   -1    0    0  501    0  0.00000000000E+00  0.00000000000E+00  0.34714873933E+03  0.34714873934E+03  0.25500000000E-02 0. -1.
         -1   -1    0    0    0  501 -0.00000000000E+00 -0.00000000000E+00 -0.46311444456E+01  0.46311471881E+01  0.50400000000E-02 0.  1.
         24    2    1    2    0    0 -0.17763568394E-14 -0.35527136788E-14  0.34251759488E+03  0.35177988653E+03  0.80192180167E+02 0.  0.
         66    2    3    3    0    0  0.80473163288E+01  0.25208704780E+02  0.30336444678E+03  0.30452294770E+03  0.20000023156E+01 0.  0.
        -13    1    3    3    0    0 -0.80473163288E+01 -0.25208704780E+02  0.39153148106E+02  0.47256938828E+02  0.10566000000E+00 0.  1.
         13    1    4    4    0    0  0.40057854015E+01  0.12757889956E+02  0.15502338390E+03  0.15559907066E+03  0.10566000000E+00 0. -1.
        -13    1    4    4    0    0  0.38517528828E+01  0.11462278851E+02  0.13240899140E+03  0.13296003913E+03  0.10566000000E+00 0.  1.
        -14    1    4    4    0    0  0.18977804444E+00  0.98853597279E+00  0.15932071481E+02  0.15963837908E+02  0.00000000000E+00 0.  1.
<mgrwt>
<rscale>  0 0.80192180E+02</rscale>
<asrwt>0</asrwt>
<pdfrwt beam="1">  1        2 0.53407517E-01 0.80192180E+02</pdfrwt>
<pdfrwt beam="2">  1       -1 0.71248373E-03 0.80192180E+02</pdfrwt>
<totfact> 0.26702745E+05</totfact>
</mgrwt>
</event>
<event>
 8    1  0.2561077E-016  0.7702919E+02  0.7818608E-02  0.1337700E+00
         -1   -1    0    0    0  501 -0.00000000000E+00  0.00000000000E+00  0.23773196570E+02  0.23773197104E+02  0.50400000000E-02 0.  1.
          2   -1    0    0  501    0  0.00000000000E+00 -0.00000000000E+00 -0.62396916194E+02  0.62396916246E+02  0.25500000000E-02 0. -1.
         24    2    1    2    0    0  0.00000000000E+00 -0.35527136788E-14 -0.38623719624E+02  0.86170113350E+02  0.77029193928E+02 0.  0.
         66    2    3    3    0    0 -0.28435646551E+02  0.21459111541E+02 -0.35624026935E+02  0.50419745755E+02  0.20000010055E+01 0.  0.
        -13    1    3    3    0    0  0.28435646551E+02 -0.21459111541E+02 -0.29996926890E+01  0.35750367595E+02  0.10566000000E+00 0.  1.
         13    1    4    4    0    0 -0.19823583096E+02  0.14957606541E+02 -0.26025482779E+02  0.35972786355E+02  0.10566000000E+00 0. -1.
        -13    1    4    4    0    0 -0.50080923787E+01  0.36167693117E+01 -0.56499508462E+01  0.83722827310E+01  0.10566000000E+00 0.  1.
         14    1    4    4    0    0 -0.36039710757E+01  0.28847356887E+01 -0.39485933097E+01  0.60746766690E+01  0.00000000000E+00 0. -1.
<mgrwt>
<rscale>  0 0.77029194E+02</rscale>
<asrwt>0</asrwt>
<pdfrwt beam="1">  1        2 0.95995255E-02 0.77029194E+02</pdfrwt>
<pdfrwt beam="2">  1       -1 0.36574149E-02 0.77029194E+02</pdfrwt>
<totfact> 0.17405226E+05</totfact>
</mgrwt>
</event>
<event>
 8    1  0.2561077E-016  0.7972961E+02  0.7818608E-02  0.1329821E+00
         -1   -1    0    0    0  501 -0.00000000000E+00  0.00000000000E+00  0.54818109595E+01  0.54818132764E+01  0.50400000000E-02 0.  1.
          2   -1    0    0  501    0  0.00000000000E+00 -0.00000000000E+00 -0.28990461962E+03  0.28990461963E+03  0.25500000000E-02 0. -1.
         24    2    1    2    0    0 -0.17763568394E-14  0.00000000000E+00 -0.28442280866E+03  0.29538643291E+03  0.79729609679E+02 0.  0.
         66    2    3    3    0    0 -0.15959165341E+02  0.35240412538E+02 -0.17756804769E+03  0.18174430718E+03  0.19999992401E+01 0.  0.
        -13    1    3    3    0    0  0.15959165341E+02 -0.35240412538E+02 -0.10685476097E+03  0.11364212573E+03  0.10566000000E+00 0.  1.
         13    1    4    4    0    0 -0.14532889825E+02  0.31134449982E+02 -0.15595402404E+03  0.15969416909E+03  0.10566000000E+00 0. -1.
        -13    1    4    4    0    0 -0.69487034129E+00  0.24818748429E+01 -0.12372986561E+02  0.12639007398E+02  0.10566000000E+00 0.  1.
         14    1    4    4    0    0 -0.73140517501E+00  0.16240877129E+01 -0.92410370922E+01  0.94111306955E+01  0.00000000000E+00 0. -1.
<mgrwt>
<rscale>  0 0.79729610E+02</rscale>
<asrwt>0</asrwt>
<pdfrwt beam="1">  1        2 0.44600699E-01 0.79729610E+02</pdfrwt>
<pdfrwt beam="2">  1       -1 0.84335594E-03 0.79729610E+02</pdfrwt>
<totfact> 0.25404917E+05</totfact>
</mgrwt>
</event>
<event>
 8    1  0.2561077E-016  0.7952680E+02  0.7818608E-02  0.1330400E+00
         -1   -1    0    0    0  501 -0.00000000000E+00  0.00000000000E+00  0.14077221523E+02  0.14077222425E+02  0.50400000000E-02 0.  1.
          2   -1    0    0  501    0  0.00000000000E+00 -0.00000000000E+00 -0.11231817403E+03  0.11231817406E+03  0.25500000000E-02 0. -1.
         24    2    1    2    0    0  0.00000000000E+00  0.00000000000E+00 -0.98240952504E+02  0.12639539648E+03  0.79526797388E+02 0.  0.
         66    2    3    3    0    0  0.28989708081E+02  0.16200112567E+02 -0.83836892308E+02  0.90196847671E+02  0.19999990192E+01 0.  0.
        -13    1    3    3    0    0 -0.28989708081E+02 -0.16200112567E+02 -0.14404060195E+02  0.36198548810E+02  0.10566000000E+00 0.  1.
         13    1    4    4    0    0  0.10975871825E+02  0.66773474627E+01 -0.31388684276E+02  0.33916329343E+02  0.10566000000E+00 0. -1.
        -13    1    4    4    0    0  0.12088397529E+02  0.66066195089E+01 -0.33942150717E+02  0.36631373650E+02  0.10566000000E+00 0. -1.
         14    1    4    4    0    0  0.59254387272E+01  0.29161455955E+01 -0.18506057316E+02  0.19649144679E+02  0.00000000000E+00 0. -1.
<mgrwt>
<rscale>  0 0.79526797E+02</rscale>
<asrwt>0</asrwt>
<pdfrwt beam="1">  1        2 0.17279719E-01 0.79526797E+02</pdfrwt>
<pdfrwt beam="2">  1       -1 0.21657265E-02 0.79526797E+02</pdfrwt>
<totfact> 0.18617254E+05</totfact>
</mgrwt>
</event>
<event>
 8    1  0.2561077E-016  0.7932895E+02  0.7818608E-02  0.1330967E+00
          2   -1    0    0  501    0  0.00000000000E+00  0.00000000000E+00  0.16496228314E+03  0.16496228316E+03  0.25500000000E-02 0. -1.
         -1   -1    0    0    0  501 -0.00000000000E+00 -0.00000000000E+00 -0.95371532343E+01  0.95371545661E+01  0.50400000000E-02 0.  1.
         24    2    1    2    0    0  0.35527136788E-14  0.00000000000E+00  0.15542512990E+03  0.17449943772E+03  0.79328952850E+02 0.  0.
         66    2    3    3    0    0  0.18772849031E+02  0.17020303286E+02  0.14481300354E+03  0.14702692465E+03  0.19999980273E+01 0.  0.
        -13    1    3    3    0    0 -0.18772849031E+02 -0.17020303286E+02  0.10612126361E+02  0.27472513074E+02  0.10566000000E+00 0.  1.
         13    1    4    4    0    0  0.11159048486E+02  0.98411374974E+01  0.88315246158E+02  0.89559847133E+02  0.10566000000E+00 0. -1.
        -13    1    4    4    0    0  0.73949801149E+01  0.71364516694E+01  0.54881610542E+02  0.55835624945E+02  0.10566000000E+00 0.  1.
        -14    1    4    4    0    0  0.21882043012E+00  0.42714118707E-01  0.16161468406E+01  0.16314525696E+01  0.00000000000E+00 0.  1.
<mgrwt>
<rscale>  0 0.79328953E+02</rscale>
<asrwt>0</asrwt>
<pdfrwt beam="1">  1        2 0.25378813E-01 0.79328953E+02</pdfrwt>
<pdfrwt beam="2">  1       -1 0.14672544E-02 0.79328953E+02</pdfrwt>
<totfact> 0.21127708E+05</totfact>
</mgrwt>
</event>
<event>
 8    1  0.2561077E-016  0.8038773E+02  0.7818608E-02  0.1327955E+00
         -1   -1    0    0    0  501 -0.00000000000E+00  0.00000000000E+00  0.48949987802E+01  0.48950013748E+01  0.50400000000E-02 0.  1.
          2   -1    0    0  501    0  0.00000000000E+00 -0.00000000000E+00 -0.33004020614E+03  0.33004020615E+03  0.25500000000E-02 0. -1.
         24    2    1    2    0    0  0.00000000000E+00  0.00000000000E+00 -0.32514520736E+03  0.33493520752E+03  0.80387731467E+02 0.  0.
         66    2    3    3    0    0  0.93626047585E+01  0.44274115376E+01 -0.32437819721E+03  0.32454964979E+03  0.20000039286E+01 0.  0.
        -13    1    3    3    0    0 -0.93626047585E+01 -0.44274115376E+01 -0.76701015117E+00  0.10385557732E+02  0.10566000000E+00 0.  1.
         13    1    4    4    0    0  0.37537371689E+01  0.16368593494E+01 -0.14056389774E+03  0.14062357684E+03  0.10566000000E+00 0. -1.
        -13    1    4    4    0    0  0.43693351450E+01  0.16339524491E+01 -0.12402258813E+03  0.12411033165E+03  0.10566000000E+00 0.  1.
         14    1    4    4    0    0  0.12395324446E+01  0.11565997391E+01 -0.59791711331E+02  0.59815741302E+02  0.00000000000E+00 0. -1.
<mgrwt>
<rscale>  0 0.80387731E+02</rscale>
<asrwt>0</asrwt>
<pdfrwt beam="1">  1        2 0.50775399E-01 0.80387731E+02</pdfrwt>
<pdfrwt beam="2">  1       -1 0.75307720E-03 0.80387731E+02</pdfrwt>
<totfact> 0.26056228E+05</totfact>
</mgrwt>
</event>
<event>
 8    1  0.2561077E-016  0.7983559E+02  0.7818608E-02  0.1329519E+00
          2   -1    0    0  501    0  0.00000000000E+00  0.00000000000E+00  0.13886447357E+02  0.13886447591E+02  0.25500000000E-02 0. -1.
         -1   -1    0    0    0  501 -0.00000000000E+00 -0.00000000000E+00 -0.11474716925E+03  0.11474716936E+03  0.50400000000E-02 0.  1.
         24    2    1    2    0    0  0.00000000000E+00  0.00000000000E+00 -0.10086072189E+03  0.12863361695E+03  0.79835594750E+02 0.  0.
         66    2    3    3    0    0  0.25538848944E+02  0.26573327423E+02 -0.25864846948E+02  0.45070664881E+02  0.19999973631E+01 0.  0.
        -13    1    3    3    0    0 -0.25538848944E+02 -0.26573327423E+02 -0.74995874945E+02  0.83562952070E+02  0.10566000000E+00 0.  1.
         13    1    4    4    0    0  0.85131528557E+01  0.91044344377E+01 -0.84243779417E+01  0.15044793309E+02  0.10566000000E+00 0. -1.
        -13    1    4    4    0    0  0.14941195149E+02  0.15664644977E+02 -0.15971402726E+02  0.26901994049E+02  0.10566000000E+00 0.  1.
        -14    1    4    4    0    0  0.20845009401E+01  0.18042480084E+01 -0.14690662801E+01  0.31238775233E+01  0.00000000000E+00 0.  1.
<mgrwt>
<rscale>  0 0.79835595E+02</rscale>
<asrwt>0</asrwt>
<pdfrwt beam="1">  1        2 0.21363766E-02 0.79835595E+02</pdfrwt>
<pdfrwt beam="2">  1       -1 0.17653410E-01 0.79835595E+02</pdfrwt>
<totfact> 0.11560128E+05</totfact>
</mgrwt>
</event>
<event>
 8    1  0.2561077E-016  0.8155152E+02  0.7818608E-02  0.1324705E+00
         -1   -1    0    0    0  501 -0.00000000000E+00  0.00000000000E+00  0.19984962590E+01  0.19985026142E+01  0.50400000000E-02 0.  1.
          2   -1    0    0  501    0  0.00000000000E+00 -0.00000000000E+00 -0.83195558429E+03  0.83195558429E+03  0.25500000000E-02 0. -1.
         24    2    1    2    0    0 -0.35527136788E-14  0.00000000000E+00 -0.82995708803E+03  0.83395408691E+03  0.81551524190E+02 0.  0.
         66    2    3    3    0    0 -0.15862080472E+02 -0.16300079865E+02 -0.76100871463E+03  0.76135114235E+03  0.20000016819E+01 0.  0.
        -13    1    3    3    0    0  0.15862080472E+02  0.16300079865E+02 -0.68948373399E+02  0.72602944561E+02  0.10566000000E+00 0.  1.
         13    1    4    4    0    0 -0.30558971790E+01 -0.26345782042E+01 -0.11745898852E+03  0.11752831429E+03  0.10566000000E+00 0.  1.
        -13    1    4    4    0    0 -0.54156418837E+01 -0.56198921239E+01 -0.25350160158E+03  0.25362173710E+03  0.10566000000E+00 0. -1.
        -14    1    4    4    0    0 -0.73905414098E+01 -0.80456095371E+01 -0.39004812453E+03  0.39020109096E+03  0.00000000000E+00 0.  1.
<mgrwt>
<rscale>  0 0.81551524E+02</rscale>
<asrwt>0</asrwt>
<pdfrwt beam="1">  1        2 0.12799289E+00 0.81551524E+02</pdfrwt>
<pdfrwt beam="2">  1       -1 0.30746212E-03 0.81551524E+02</pdfrwt>
<totfact> 0.32900898E+05</totfact>
</mgrwt>
</event>
<event>
 8    1  0.2561077E-016  0.7712950E+02  0.7818608E-02  0.1337401E+00
          2   -1    0    0  501    0  0.00000000000E+00  0.00000000000E+00  0.63486862032E+03  0.63486862032E+03  0.25500000000E-02 0. -1.
         -1   -1    0    0    0  501 -0.00000000000E+00 -0.00000000000E+00 -0.23425919964E+01  0.23425974181E+01  0.50400000000E-02 0.  1.
         24    2    1    2    0    0  0.00000000000E+00  0.17763568394E-14  0.63252602832E+03  0.63721121774E+03  0.77129498319E+02 0.  0.
         66    2    3    3    0    0  0.25027525417E+02 -0.14264766524E+02  0.52797373885E+03  0.52876282914E+03  0.19999930394E+01 0.  0.
        -13    1    3    3    0    0 -0.25027525417E+02  0.14264766524E+02  0.10455228947E+03  0.10844838860E+03  0.10566000000E+00 0.  1.
         13    1    4    4    0    0  0.11231006155E+02 -0.65368665542E+01  0.24794553676E+03  0.24828585640E+03  0.10566000000E+00 0. -1.
        -13    1    4    4    0    0  0.64460787703E+01 -0.42912641106E+01  0.13851743040E+03  0.13873376145E+03  0.10566000000E+00 0.  1.
        -14    1    4    4    0    0  0.73504404914E+01 -0.34366358591E+01  0.14151077169E+03  0.14174321129E+03  0.00000000000E+00 0.  1.
<mgrwt>
<rscale>  0 0.77129498E+02</rscale>
<asrwt>0</asrwt>
<pdfrwt beam="1">  1        2 0.97672189E-01 0.77129498E+02</pdfrwt>
<pdfrwt beam="2">  1       -1 0.36039884E-03 0.77129498E+02</pdfrwt>
<totfact> 0.35908345E+05</totfact>
</mgrwt>
</event>
<event>
 8    1  0.2561077E-016  0.7953711E+02  0.7818608E-02  0.1330370E+00
         -1   -1    0    0    0  501 -0.00000000000E+00  0.00000000000E+00  0.13129751723E+02  0.13129752691E+02  0.50400000000E-02 0.  1.
          2   -1    0    0  501    0  0.00000000000E+00 -0.00000000000E+00 -0.12045451097E+03  0.12045451100E+03  0.25500000000E-02 0. -1.
         24    2    1    2    0    0  0.00000000000E+00  0.00000000000E+00 -0.10732475925E+03  0.13358426369E+03  0.79537108054E+02 0.  0.
         66    2    3    3    0    0  0.61265857155E+01 -0.11486898831E+02 -0.11676327937E+03  0.11750381832E+03  0.20000033192E+01 0.  0.
        -13    1    3    3    0    0 -0.61265857155E+01  0.11486898831E+02  0.94385201189E+01  0.16080445372E+02  0.10566000000E+00 0.  1.
         13    1    4    4    0    0  0.13130876348E+01 -0.16457995408E+01 -0.20769895447E+02  0.20876603559E+02  0.10566000000E+00 0. -1.
        -13    1    4    4    0    0  0.12013457481E+01 -0.39992353370E+01 -0.35071363609E+02  0.35319241559E+02  0.10566000000E+00 0.  1.
        -14    1    4    4    0    0  0.36121523326E+01 -0.58418639533E+01 -0.60922020311E+02  0.61307973198E+02  0.00000000000E+00 0.  1.
<mgrwt>
<rscale>  0 0.79537108E+02</rscale>
<asrwt>0</asrwt>
<pdfrwt beam="1">  1        2 0.18531463E-01 0.79537108E+02</pdfrwt>
<pdfrwt beam="2">  1       -1 0.20199620E-02 0.79537108E+02</pdfrwt>
<totfact> 0.18999349E+05</totfact>
</mgrwt>
</event>
<event>
 8    1  0.2561077E-016  0.8828510E+02  0.7818608E-02  0.1307059E+00
         -1   -1    0    0    0  501 -0.00000000000E+00  0.00000000000E+00  0.38555830339E+01  0.38555863280E+01  0.50400000000E-02 0.  1.
          2   -1    0    0  501    0  0.00000000000E+00 -0.00000000000E+00 -0.50538765063E+03  0.50538765064E+03  0.25500000000E-02 0. -1.
         24    2    1    2    0    0  0.00000000000E+00  0.00000000000E+00 -0.50153206760E+03  0.50924323696E+03  0.88285103878E+02 0.  0.
         66    2    3    3    0    0  0.15656746671E+02  0.39617159293E+02 -0.31714216153E+03  0.31999656817E+03  0.19999984455E+01 0.  0.
        -13    1    3    3    0    0 -0.15656746671E+02 -0.39617159293E+02 -0.18438990607E+03  0.18924666880E+03  0.10566000000E+00 0.  1.
         13    1    4    4    0    0  0.50158539975E+01  0.11151411249E+02 -0.94664468489E+02  0.95450958730E+02  0.10566000000E+00 0. -1.
        -13    1    4    4    0    0  0.36951239618E+01  0.11163665567E+02 -0.85790616334E+02  0.86592854122E+02  0.10566000000E+00 0.  1.
        -14    1    4    4    0    0  0.69457687116E+01  0.17302082477E+02 -0.13668707670E+03  0.13795275532E+03  0.00000000000E+00 0.  1.
<mgrwt>
<rscale>  0 0.88285104E+02</rscale>
<asrwt>0</asrwt>
<pdfrwt beam="1">  1        2 0.77751894E-01 0.88285104E+02</pdfrwt>
<pdfrwt beam="2">  1       -1 0.59316728E-03 0.88285104E+02</pdfrwt>
<totfact> 0.23605877E+05</totfact>
</mgrwt>
</event>
<event>
 8    1  0.2561077E-016  0.7903493E+02  0.7818608E-02  0.1331813E+00
         -1   -1    0    0    0  501 -0.00000000000E+00  0.00000000000E+00  0.21537838865E+02  0.21537839455E+02  0.50400000000E-02 0.  1.
          2   -1    0    0  501    0  0.00000000000E+00 -0.00000000000E+00 -0.72506349633E+02  0.72506349678E+02  0.25500000000E-02 0. -1.
         24    2    1    2    0    0  0.00000000000E+00  0.35527136788E-14 -0.50968510768E+02  0.94044189132E+02  0.79034931642E+02 0.  0.
         66    2    3    3    0    0  0.13565523385E+02  0.29832680509E+02 -0.51722056705E+02  0.61263230535E+02  0.20000036581E+01 0.  0.
        -13    1    3    3    0    0 -0.13565523385E+02 -0.29832680509E+02  0.75354593728E+00  0.32780958598E+02  0.10566000000E+00 0.  1.
         13    1    4    4    0    0  0.94282693390E+01  0.20759449752E+02 -0.36039946735E+02  0.42646640448E+02  0.10566000000E+00 0. -1.
        -13    1    4    4    0    0  0.18116004610E+01  0.36581381130E+01 -0.73960902599E+01  0.84485019886E+01  0.10566000000E+00 0.  1.
         14    1    4    4    0    0  0.23256535853E+01  0.54150926437E+01 -0.82860197103E+01  0.10168088098E+02  0.00000000000E+00 0. -1.
<mgrwt>
<rscale>  0 0.79034932E+02</rscale>
<asrwt>0</asrwt>
<pdfrwt beam="1">  1        2 0.11154823E-01 0.79034932E+02</pdfrwt>
<pdfrwt beam="2">  1       -1 0.33135138E-02 0.79034932E+02</pdfrwt>
<totfact> 0.16829653E+05</totfact>
</mgrwt>
</event>
<event>
 8    1  0.2561077E-016  0.7947983E+02  0.7818608E-02  0.1330534E+00
         -1   -1    0    0    0  501 -0.00000000000E+00  0.00000000000E+00  0.72324300993E+01  0.72324318554E+01  0.50400000000E-02 0.  1.
          2   -1    0    0  501    0  0.00000000000E+00 -0.00000000000E+00 -0.21835824860E+03  0.21835824862E+03  0.25500000000E-02 0. -1.
         24    2    1    2    0    0  0.00000000000E+00  0.35527136788E-14 -0.21112581851E+03  0.22559068048E+03  0.79479833150E+02 0.  0.
         66    2    3    3    0    0  0.34463220728E+02  0.18435012922E+02 -0.12563788699E+03  0.13159195238E+03  0.19999999668E+01 0.  0.
        -13    1    3    3    0    0 -0.34463220728E+02 -0.18435012922E+02 -0.85487931519E+02  0.93998728097E+02  0.10566000000E+00 0.  1.
         13    1    4    4    0    0  0.45319852846E+01  0.28813804657E+01 -0.17351434244E+02  0.18163828846E+02  0.10566000000E+00 0. -1.
        -13    1    4    4    0    0  0.32950276860E+01  0.17479547297E+01 -0.10534189201E+02  0.11175547385E+02  0.10566000000E+00 0.  1.
        -14    1    4    4    0    0  0.26636207758E+02  0.13805677726E+02 -0.97752263542E+02  0.10225257615E+03  0.00000000000E+00 0.  1.
<mgrwt>
<rscale>  0 0.79479833E+02</rscale>
<asrwt>0</asrwt>
<pdfrwt beam="1">  1        2 0.33593572E-01 0.79479833E+02</pdfrwt>
<pdfrwt beam="2">  1       -1 0.11126819E-02 0.79479833E+02</pdfrwt>
<totfact> 0.23141249E+05</totfact>
</mgrwt>
</event>
<event>
 8    1  0.2561077E-016  0.8289604E+02  0.7818608E-02  0.1321028E+00
         -1   -1    0    0    0  501 -0.00000000000E+00  0.00000000000E+00  0.34791310557E+02  0.34791310922E+02  0.50400000000E-02 0.  1.
          2   -1    0    0  501    0  0.00000000000E+00 -0.00000000000E+00 -0.49378369551E+02  0.49378369617E+02  0.25500000000E-02 0. -1.
         24    2    1    2    0    0  0.00000000000E+00 -0.35527136788E-14 -0.14587058994E+02  0.84169680538E+02  0.82896036286E+02 0.  0.
         66    2    3    3    0    0 -0.11694408182E+02  0.30814568401E+02 -0.32775850953E+02  0.46524758897E+02  0.19999940793E+01 0.  0.
        -13    1    3    3    0    0  0.11694408182E+02 -0.30814568401E+02  0.18188791959E+02  0.37644921641E+02  0.10566000000E+00 0.  1.
         13    1    4    4    0    0 -0.31813027330E+01  0.78003911336E+01 -0.87798612925E+01  0.12168151761E+02  0.10566000000E+00 0. -1.
        -13    1    4    4    0    0 -0.44628086264E+01  0.10967712699E+02 -0.10628009380E+02  0.15911415088E+02  0.10566000000E+00 0.  1.
        -14    1    4    4    0    0 -0.40502968220E+01  0.12046464568E+02 -0.13367980280E+02  0.18445192049E+02  0.00000000000E+00 0.  1.
<mgrwt>
<rscale>  0 0.82896036E+02</rscale>
<asrwt>0</asrwt>
<pdfrwt beam="1">  1        2 0.75966723E-02 0.82896036E+02</pdfrwt>
<pdfrwt beam="2">  1       -1 0.53525093E-02 0.82896036E+02</pdfrwt>
<totfact> 0.13515236E+05</totfact>
</mgrwt>
</event>
<event>
 8    1  0.2561077E-016  0.8163429E+02  0.7818608E-02  0.1324477E+00
         -1   -1    0    0    0  501 -0.00000000000E+00  0.00000000000E+00  0.18192037358E+01  0.18192107173E+01  0.50400000000E-02 0.  1.
          2   -1    0    0  501    0  0.00000000000E+00 -0.00000000000E+00 -0.91580514866E+03  0.91580514867E+03  0.25500000000E-02 0. -1.
         24    2    1    2    0    0  0.17763568394E-14  0.00000000000E+00 -0.91398594493E+03  0.91762435938E+03  0.81634290652E+02 0.  0.
         66    2    3    3    0    0 -0.11017145686E+02 -0.34051056238E+01 -0.89710042375E+03  0.89717676215E+03  0.19999989335E+01 0.  0.
        -13    1    3    3    0    0  0.11017145686E+02  0.34051056238E+01 -0.16885521172E+02  0.20447597235E+02  0.10566000000E+00 0.  1.
         13    1    4    4    0    0 -0.44161140150E+00 -0.21902924080E+00 -0.35391515435E+02  0.35395105923E+02  0.10566000000E+00 0. -1.
        -13    1    4    4    0    0  0.29222593308E-01 -0.49652056933E-03 -0.50571627317E+01  0.50583508317E+01  0.10566000000E+00 0. -1.
        -14    1    4    4    0    0 -0.10604756878E+02 -0.31855798624E+01 -0.85665174559E+03  0.85672330539E+03  0.00000000000E+00 0.  1.
<mgrwt>
<rscale>  0 0.81634291E+02</rscale>
<asrwt>0</asrwt>
<pdfrwt beam="1">  1        2 0.14089273E+00 0.81634291E+02</pdfrwt>
<pdfrwt beam="2">  1       -1 0.27987877E-03 0.81634291E+02</pdfrwt>
<totfact> 0.33217675E+05</totfact>
</mgrwt>
</event>
<event>
 8    1  0.2561077E-016  0.7991830E+02  0.7818608E-02  0.1329283E+00
         -1   -1    0    0    0  501 -0.00000000000E+00  0.00000000000E+00  0.83714555188E+02  0.83714555339E+02  0.50400000000E-02 0.  1.
          2   -1    0    0  501    0  0.00000000000E+00 -0.00000000000E+00 -0.19073549350E+02  0.19073549521E+02  0.25500000000E-02 0. -1.
         24    2    1    2    0    0 -0.35527136788E-14  0.00000000000E+00  0.64641005837E+02  0.10278810486E+03  0.79918301190E+02 0.  0.
         66    2    3    3    0    0  0.22547030691E+02 -0.29994336153E+02  0.14766764632E+02  0.40374325180E+02  0.20000004487E+01 0.  0.
        -13    1    3    3    0    0 -0.22547030691E+02  0.29994336153E+02  0.49874241205E+02  0.62413779681E+02  0.10566000000E+00 0.  1.
         13    1    4    4    0    0  0.17920511670E+02 -0.23778999044E+02  0.12137929515E+02  0.32154720198E+02  0.10566000000E+00 0. -1.
        -13    1    4    4    0    0  0.38890497237E+01 -0.55537408610E+01  0.21119205509E+01  0.71021206518E+01  0.10566000000E+00 0.  1.
         14    1    4    4    0    0  0.73746929642E+00 -0.66159624763E+00  0.51691456633E+00  0.11174843296E+01  0.00000000000E+00 0. -1.
<mgrwt>
<rscale>  0 0.79918301E+02</rscale>
<asrwt>0</asrwt>
<pdfrwt beam="1">  1        2 0.29343922E-02 0.79918301E+02</pdfrwt>
<pdfrwt beam="2">  1       -1 0.12879162E-01 0.79918301E+02</pdfrwt>
<totfact> 0.12332872E+05</totfact>
</mgrwt>
</event>
<event>
 8    1  0.2561077E-016  0.7864632E+02  0.7818608E-02  0.1332937E+00
          2   -1    0    0  501    0  0.00000000000E+00  0.00000000000E+00  0.46397928594E+03  0.46397928595E+03  0.25500000000E-02 0. -1.
         -1   -1    0    0    0  501 -0.00000000000E+00 -0.00000000000E+00 -0.33327133115E+01  0.33327171225E+01  0.50400000000E-02 0.  1.
         24    2    1    2    0    0 -0.71054273576E-14  0.35527136788E-14  0.46064657263E+03  0.46731200307E+03  0.78646318022E+02 0.  0.
         66    2    3    3    0    0  0.31268125355E+02 -0.15190182534E+02  0.33936814832E+03  0.34114978735E+03  0.20000014745E+01 0.  0.
        -13    1    3    3    0    0 -0.31268125355E+02  0.15190182534E+02  0.12127842431E+03  0.12616221572E+03  0.10566000000E+00 0.  1.
         13    1    4    4    0    0  0.43189086693E+01 -0.20433016760E+01  0.53546620182E+02  0.53759461965E+02  0.10566000000E+00 0. -1.
        -13    1    4    4    0    0  0.10934760183E+02 -0.53970737720E+01  0.11466731058E+03  0.11531392225E+03  0.10566000000E+00 0.  1.
         14    1    4    4    0    0  0.16014456502E+02 -0.77498070859E+01  0.17115421756E+03  0.17207640313E+03  0.00000000000E+00 0. -1.
<mgrwt>
<rscale>  0 0.78646318E+02</rscale>
<asrwt>0</asrwt>
<pdfrwt beam="1">  1        2 0.71381425E-01 0.78646318E+02</pdfrwt>
<pdfrwt beam="2">  1       -1 0.51272544E-03 0.78646318E+02</pdfrwt>
<totfact> 0.31071652E+05</totfact>
</mgrwt>
</event>
<event>
 8    1  0.2561077E-016  0.8483279E+02  0.7818608E-02  0.1315870E+00
          2   -1    0    0  501    0  0.00000000000E+00  0.00000000000E+00  0.15754410621E+03  0.15754410624E+03  0.25500000000E-02 0. -1.
         -1   -1    0    0    0  501 -0.00000000000E+00 -0.00000000000E+00 -0.11419980077E+02  0.11419981189E+02  0.50400000000E-02 0.  1.
         24    2    1    2    0    0  0.00000000000E+00  0.00000000000E+00  0.14612412614E+03  0.16896408742E+03  0.84832792006E+02 0.  0.
         66    2    3    3    0    0 -0.27861887145E+02  0.77963106045E+01  0.13481660171E+03  0.13790062839E+03  0.19999997927E+01 0.  0.
        -13    1    3    3    0    0  0.27861887145E+02 -0.77963106045E+01  0.11307524423E+02  0.31063459030E+02  0.10566000000E+00 0.  1.
         13    1    4    4    0    0 -0.13919970469E+02  0.44612590475E+01  0.68979387873E+02  0.70511243965E+02  0.10566000000E+00 0. -1.
        -13    1    4    4    0    0 -0.13487268927E+02  0.32648580542E+01  0.64477370650E+02  0.65953833938E+02  0.10566000000E+00 0.  1.
        -14    1    4    4    0    0 -0.45464774884E+00  0.70193502722E-01  0.13598431926E+01  0.14355504908E+01  0.00000000000E+00 0.  1.
<mgrwt>
<rscale>  0 0.84832792E+02</rscale>
<asrwt>0</asrwt>
<pdfrwt beam="1">  1        2 0.24237553E-01 0.84832792E+02</pdfrwt>
<pdfrwt beam="2">  1       -1 0.17569202E-02 0.84832792E+02</pdfrwt>
<totfact> 0.17412305E+05</totfact>
</mgrwt>
</event>
<event>
 8    1  0.2561077E-016  0.8651320E+02  0.7818608E-02  0.1311522E+00
          2   -1    0    0  501    0  0.00000000000E+00  0.00000000000E+00  0.33174837207E+03  0.33174837208E+03  0.25500000000E-02 0. -1.
         -1   -1    0    0    0  501 -0.00000000000E+00 -0.00000000000E+00 -0.56402171951E+01  0.56402194470E+01  0.50400000000E-02 0.  1.
         24    2    1    2    0    0 -0.35527136788E-14  0.00000000000E+00  0.32610815488E+03  0.33738859153E+03  0.86513195621E+02 0.  0.
         66    2    3    3    0    0 -0.24324276124E+02 -0.17056705460E+02  0.28563148462E+03  0.28717929349E+03  0.19999986656E+01 0.  0.
        -13    1    3    3    0    0  0.24324276124E+02  0.17056705460E+02  0.40476670254E+02  0.50209298034E+02  0.10566000000E+00 0.  1.
         13    1    4    4    0    0 -0.62768695786E+01 -0.48745701640E+01  0.81612526879E+02  0.81998635560E+02  0.10566000000E+00 0. -1.
        -13    1    4    4    0    0 -0.56917387608E+01 -0.33489690819E+01  0.59042885847E+02  0.59411152296E+02  0.10566000000E+00 0.  1.
         14    1    4    4    0    0 -0.12355667785E+02 -0.88331662139E+01  0.14497607190E+03  0.14576950564E+03  0.00000000000E+00 0. -1.
<mgrwt>
<rscale>  0 0.86513196E+02</rscale>
<asrwt>0</asrwt>
<pdfrwt beam="1">  1        2 0.51038238E-01 0.86513196E+02</pdfrwt>
<pdfrwt beam="2">  1       -1 0.86772544E-03 0.86513196E+02</pdfrwt>
<totfact> 0.21521491E+05</totfact>
</mgrwt>
</event>
<event>
 8    1  0.2561077E-016  0.7997917E+02  0.7818608E-02  0.1329111E+00
         -1   -1    0    0    0  501 -0.00000000000E+00  0.00000000000E+00  0.83314648700E+02  0.83314648853E+02  0.50400000000E-02 0.  1.
          2   -1    0    0  501    0  0.00000000000E+00 -0.00000000000E+00 -0.19194306465E+02  0.19194306635E+02  0.25500000000E-02 0. -1.
         24    2    1    2    0    0  0.35527136788E-14  0.35527136788E-14  0.64120342235E+02  0.10250895549E+03  0.79979170206E+02 0.  0.
         66    2    3    3    0    0 -0.23851187142E+02  0.18225286504E+02 -0.17362485298E+01  0.30133946628E+02  0.19999960453E+01 0.  0.
        -13    1    3    3    0    0  0.23851187142E+02 -0.18225286504E+02  0.65856590764E+02  0.72375008859E+02  0.10566000000E+00 0.  1.
         13    1    4    4    0    0 -0.11895632619E+02  0.96906317612E+01 -0.40598649363E+00  0.15348954635E+02  0.10566000000E+00 0. -1.
        -13    1    4    4    0    0 -0.20745674019E+01  0.11712367108E+01  0.48567320738E-01  0.23851935263E+01  0.10566000000E+00 0. -1.
        -14    1    4    4    0    0 -0.98809871217E+01  0.73634180316E+01 -0.13788293569E+01  0.12399798466E+02  0.00000000000E+00 0.  1.
<mgrwt>
<rscale>  0 0.79979170E+02</rscale>
<asrwt>0</asrwt>
<pdfrwt beam="1">  1        2 0.29529703E-02 0.79979170E+02</pdfrwt>
<pdfrwt beam="2">  1       -1 0.12817638E-01 0.79979170E+02</pdfrwt>
<totfact> 0.12321703E+05</totfact>
</mgrwt>
</event>
<event>
 8    1  0.2561077E-016  0.7924319E+02  0.7818608E-02  0.1331213E+00
          2   -1    0    0  501    0  0.00000000000E+00  0.00000000000E+00  0.17166004877E+03  0.17166004879E+03  0.25500000000E-02 0. -1.
         -1   -1    0    0    0  501 -0.00000000000E+00 -0.00000000000E+00 -0.91452309707E+01  0.91452323595E+01  0.50400000000E-02 0.  1.
         24    2    1    2    0    0  0.00000000000E+00  0.00000000000E+00  0.16251481780E+03  0.18080528115E+03  0.79243193315E+02 0.  0.
         66    2    3    3    0    0  0.10522852307E+02 -0.31106009871E+02  0.13179240516E+03  0.13583649116E+03  0.20000003358E+01 0.  0.
        -13    1    3    3    0    0 -0.10522852307E+02  0.31106009871E+02  0.30722412636E+02  0.44968789988E+02  0.10566000000E+00 0.  1.
         13    1    4    4    0    0  0.60226805917E+01 -0.16776920546E+02  0.72901886716E+02  0.75049543605E+02  0.10566000000E+00 0. -1.
        -13    1    4    4    0    0  0.18039857722E+01 -0.72012982791E+01  0.30625294297E+02  0.31512424159E+02  0.10566000000E+00 0.  1.
        -14    1    4    4    0    0  0.26961859434E+01 -0.71277910453E+01  0.28265224151E+02  0.29274523397E+02  0.00000000000E+00 0.  1.
<mgrwt>
<rscale>  0 0.79243193E+02</rscale>
<asrwt>0</asrwt>
<pdfrwt beam="1">  1        2 0.26409239E-01 0.79243193E+02</pdfrwt>
<pdfrwt beam="2">  1       -1 0.14069587E-02 0.79243193E+02</pdfrwt>
<totfact> 0.21470223E+05</totfact>
</mgrwt>
</event>
<event>
 8    1  0.2561077E-016  0.8263578E+02  0.7818608E-02  0.1321734E+00
         -1   -1    0    0    0  501 -0.00000000000E+00  0.00000000000E+00  0.11742415287E+01  0.11742523449E+01  0.50400000000E-02 0.  1.
          2   -1    0    0  501    0  0.00000000000E+00 -0.00000000000E+00 -0.14538406223E+04  0.14538406223E+04  0.25500000000E-02 0. -1.
         24    2    1    2    0    0 -0.17763568394E-14  0.17763568394E-14 -0.14526663807E+04  0.14550148746E+04  0.82635776883E+02 0.  0.
         66    2    3    3    0    0  0.13755033310E+02  0.15627294545E+02 -0.13546714095E+04  0.13548328461E+04  0.20000003391E+01 0.  0.
        -13    1    3    3    0    0 -0.13755033310E+02 -0.15627294545E+02 -0.97994971251E+02  0.10018202848E+03  0.10566000000E+00 0.  1.
         13    1    4    4    0    0  0.21834354986E+01  0.30641674673E+01 -0.23236198609E+03  0.23239247031E+03  0.10566000000E+00 0. -1.
        -13    1    4    4    0    0  0.18399767305E+01  0.28185281944E+01 -0.23229660324E+03  0.23232101208E+03  0.10566000000E+00 0.  1.
        -14    1    4    4    0    0  0.97316210813E+01  0.97445988830E+01 -0.89001282014E+03  0.89011936372E+03  0.00000000000E+00 0.  1.
<mgrwt>
<rscale>  0 0.82635777E+02</rscale>
<asrwt>0</asrwt>
<pdfrwt beam="1">  1        2 0.22366635E+00 0.82635777E+02</pdfrwt>
<pdfrwt beam="2">  1       -1 0.18065454E-03 0.82635777E+02</pdfrwt>
<totfact> 0.30901173E+05</totfact>
</mgrwt>
</event>
<event>
 8    1  0.2561077E-016  0.8031373E+02  0.7818608E-02  0.1328163E+00
          2   -1    0    0  501    0  0.00000000000E+00  0.00000000000E+00  0.36375110148E+03  0.36375110149E+03  0.25500000000E-02 0. -1.
         -1   -1    0    0    0  501 -0.00000000000E+00 -0.00000000000E+00 -0.44331780056E+01  0.44331808705E+01  0.50400000000E-02 0.  1.
         24    2    1    2    0    0  0.00000000000E+00  0.00000000000E+00  0.35931792347E+03  0.36818428236E+03  0.80313732615E+02 0.  0.
         66    2    3    3    0    0 -0.21210389632E+02  0.22882763538E+02  0.29547932904E+03  0.29712881952E+03  0.20000014016E+01 0.  0.
        -13    1    3    3    0    0  0.21210389632E+02 -0.22882763538E+02  0.63838594429E+02  0.71055462832E+02  0.10566000000E+00 0.  1.
         13    1    4    4    0    0 -0.24318706611E+01  0.29335420807E+01  0.37985795733E+02  0.38176583210E+02  0.10566000000E+00 0. -1.
        -13    1    4    4    0    0 -0.15311527182E+02  0.15436287976E+02  0.20732174264E+03  0.20845872010E+03  0.10566000000E+00 0.  1.
        -14    1    4    4    0    0 -0.34669917892E+01  0.45129334809E+01  0.50171790668E+02  0.50493516212E+02  0.00000000000E+00 0.  1.
<mgrwt>
<rscale>  0 0.80313733E+02</rscale>
<asrwt>0</asrwt>
<pdfrwt beam="1">  1        2 0.55961735E-01 0.80313733E+02</pdfrwt>
<pdfrwt beam="2">  1       -1 0.68202728E-03 0.80313733E+02</pdfrwt>
<totfact> 0.27043543E+05</totfact>
</mgrwt>
</event>
<event>
 8    1  0.2561077E-016  0.7784307E+02  0.7818608E-02  0.1335286E+00
          2   -1    0    0  501    0  0.00000000000E+00  0.00000000000E+00  0.19937831341E+03  0.19937831342E+03  0.25500000000E-02 0. -1.
         -1   -1    0    0    0  501 -0.00000000000E+00 -0.00000000000E+00 -0.75980468882E+01  0.75980485598E+01  0.50400000000E-02 0.  1.
         24    2    1    2    0    0 -0.17763568394E-14  0.00000000000E+00  0.19178026652E+03  0.20697636198E+03  0.77843071585E+02 0.  0.
         66    2    3    3    0    0 -0.12388440136E+02  0.23784985301E+02  0.17086054142E+03  0.17296393724E+03  0.19999989196E+01 0.  0.
        -13    1    3    3    0    0  0.12388440136E+02 -0.23784985301E+02  0.20919725097E+02  0.34012424744E+02  0.10566000000E+00 0.  1.
         13    1    4    4    0    0 -0.77511437981E+01  0.13206547480E+02  0.95238666374E+02  0.96461950339E+02  0.10566000000E+00 0.  1.
        -13    1    4    4    0    0 -0.28257888676E+01  0.56325217229E+01  0.41738959046E+02  0.42212110229E+02  0.10566000000E+00 0. -1.
        -14    1    4    4    0    0 -0.18115074702E+01  0.49459160984E+01  0.33882916002E+02  0.34289876671E+02  0.00000000000E+00 0.  1.
<mgrwt>
<rscale>  0 0.77843072E+02</rscale>
<asrwt>0</asrwt>
<pdfrwt beam="1">  1        2 0.30673586E-01 0.77843072E+02</pdfrwt>
<pdfrwt beam="2">  1       -1 0.11689305E-02 0.77843072E+02</pdfrwt>
<totfact> 0.23680246E+05</totfact>
</mgrwt>
</event>
<event>
 8    1  0.2561077E-016  0.7931014E+02  0.7818608E-02  0.1331021E+00
          2   -1    0    0  501    0  0.00000000000E+00  0.00000000000E+00  0.63663386327E+02  0.63663386378E+02  0.25500000000E-02 0. -1.
         -1   -1    0    0    0  501 -0.00000000000E+00 -0.00000000000E+00 -0.24700611306E+02  0.24700611820E+02  0.50400000000E-02 0.  1.
         24    2    1    2    0    0 -0.17763568394E-14  0.35527136788E-14  0.38962775021E+02  0.88363998199E+02  0.79310140211E+02 0.  0.
         66    2    3    3    0    0  0.15763694854E+02  0.30383115394E+02  0.41746006681E+02  0.54021818317E+02  0.20000009751E+01 0.  0.
        -13    1    3    3    0    0 -0.15763694854E+02 -0.30383115394E+02 -0.27832316603E+01  0.34342179882E+02  0.10566000000E+00 0.  1.
         13    1    4    4    0    0  0.13310538431E+01  0.30842814578E+01  0.37323596832E+01  0.50225660060E+01  0.10566000000E+00 0. -1.
        -13    1    4    4    0    0  0.54228471015E+01  0.11765232202E+02  0.16356402935E+02  0.20865546733E+02  0.10566000000E+00 0.  1.
         14    1    4    4    0    0  0.90097939095E+01  0.15533601735E+02  0.21657244063E+02  0.28133705578E+02  0.00000000000E+00 0. -1.
<mgrwt>
<rscale>  0 0.79310140E+02</rscale>
<asrwt>0</asrwt>
<pdfrwt beam="1">  1        2 0.97943669E-02 0.79310140E+02</pdfrwt>
<pdfrwt beam="2">  1       -1 0.38000942E-02 0.79310140E+02</pdfrwt>
<totfact> 0.16158314E+05</totfact>
</mgrwt>
</event>
<event>
 8    1  0.2561077E-016  0.7963988E+02  0.7818608E-02  0.1330077E+00
         -1   -1    0    0    0  501 -0.00000000000E+00  0.00000000000E+00  0.45045548753E+01  0.45045576948E+01  0.50400000000E-02 0.  1.
          2   -1    0    0  501    0  0.00000000000E+00 -0.00000000000E+00 -0.35200529049E+03  0.35200529049E+03  0.25500000000E-02 0. -1.
         24    2    1    2    0    0  0.00000000000E+00 -0.35527136788E-14 -0.34750073561E+03  0.35650984819E+03  0.79639880754E+02 0.  0.
         66    2    3    3    0    0  0.16200258825E+02  0.22766542910E+02 -0.30070089348E+03  0.30200296560E+03  0.20000074496E+01 0.  0.
        -13    1    3    3    0    0 -0.16200258825E+02 -0.22766542910E+02 -0.46799842126E+02  0.54506882585E+02  0.10566000000E+00 0.  1.
         13    1    4    4    0    0  0.92422561307E+01  0.11490142435E+02 -0.16072420250E+03  0.16139926613E+03  0.10566000000E+00 0. -1.
        -13    1    4    4    0    0  0.68710232504E+01  0.11023346709E+02 -0.13769967537E+03  0.13831101509E+03  0.10566000000E+00 0.  1.
        -14    1    4    4    0    0  0.86979444097E-01  0.25305376635E+00 -0.22770156064E+01  0.22926843882E+01  0.00000000000E+00 0.  1.
<mgrwt>
<rscale>  0 0.79639881E+02</rscale>
<asrwt>0</asrwt>
<pdfrwt beam="1">  1        2 0.54154638E-01 0.79639881E+02</pdfrwt>
<pdfrwt beam="2">  1       -1 0.69300894E-03 0.79639881E+02</pdfrwt>
<totfact> 0.27325167E+05</totfact>
</mgrwt>
</event>
<event>
 8    1  0.2561077E-016  0.8010616E+02  0.7818608E-02  0.1328750E+00
          2   -1    0    0  501    0  0.00000000000E+00  0.00000000000E+00  0.10083519034E+02  0.10083519356E+02  0.25500000000E-02 0. -1.
         -1   -1    0    0    0  501 -0.00000000000E+00 -0.00000000000E+00 -0.15909615152E+03  0.15909615160E+03  0.50400000000E-02 0.  1.
         24    2    1    2    0    0  0.00000000000E+00  0.35527136788E-14 -0.14901263249E+03  0.16917967096E+03  0.80106157218E+02 0.  0.
         66    2    3    3    0    0  0.23562137602E+02 -0.23217281138E+02 -0.26950546217E+02  0.42714732968E+02  0.19999998266E+01 0.  0.
        -13    1    3    3    0    0 -0.23562137602E+02  0.23217281138E+02 -0.12206208627E+03  0.12646493799E+03  0.10566000000E+00 0.  1.
         13    1    4    4    0    0  0.46643898857E+01 -0.53975625228E+01 -0.58604528632E+01  0.92328915292E+01  0.10566000000E+00 0. -1.
        -13    1    4    4    0    0  0.93915785521E+01 -0.80828326490E+01 -0.10393959009E+02  0.16173418910E+02  0.10566000000E+00 0.  1.
        -14    1    4    4    0    0  0.95061691646E+01 -0.97368859660E+01 -0.10696134344E+02  0.17308422528E+02  0.00000000000E+00 0.  1.
<mgrwt>
<rscale>  0 0.80106157E+02</rscale>
<asrwt>0</asrwt>
<pdfrwt beam="1">  1        2 0.15513108E-02 0.80106157E+02</pdfrwt>
<pdfrwt beam="2">  1       -1 0.24476329E-01 0.80106157E+02</pdfrwt>
<totfact> 0.10588444E+05</totfact>
</mgrwt>
</event>
<event>
 8    1  0.2561077E-016  0.7052245E+02  0.7818608E-02  0.1358325E+00
         -1   -1    0    0    0  501 -0.00000000000E+00  0.00000000000E+00  0.46911271287E+01  0.46911298361E+01  0.50400000000E-02 0.  1.
          2   -1    0    0  501    0  0.00000000000E+00 -0.00000000000E+00 -0.26504367181E+03  0.26504367183E+03  0.25500000000E-02 0. -1.
         24    2    1    2    0    0 -0.17763568394E-14  0.88817841970E-15 -0.26035254469E+03  0.26973480166E+03  0.70522448226E+02 0.  0.
         66    2    3    3    0    0 -0.14333661573E+02  0.69524719499E+01 -0.25047695088E+03  0.25099102303E+03  0.19999999339E+01 0.  0.
        -13    1    3    3    0    0  0.14333661573E+02 -0.69524719499E+01 -0.98755938036E+01  0.18743778630E+02  0.10566000000E+00 0.  1.
         13    1    4    4    0    0 -0.22555700400E+01  0.45970152644E+00 -0.32203427472E+02  0.32285768175E+02  0.10566000000E+00 0. -1.
        -13    1    4    4    0    0 -0.33424170707E+01  0.14482340608E+01 -0.60121660668E+02  0.60232004610E+02  0.10566000000E+00 0. -1.
         14    1    4    4    0    0 -0.87356744623E+01  0.50445363627E+01 -0.15815186274E+03  0.15847325025E+03  0.00000000000E+00 0. -1.
<mgrwt>
<rscale>  0 0.70522448E+02</rscale>
<asrwt>0</asrwt>
<pdfrwt beam="1">  1        2 0.40775938E-01 0.70522448E+02</pdfrwt>
<pdfrwt beam="2">  1       -1 0.72171228E-03 0.70522448E+02</pdfrwt>
<totfact> 0.33866682E+05</totfact>
</mgrwt>
</event>
<event>
 8    1  0.2561077E-016  0.7933727E+02  0.7818608E-02  0.1330943E+00
          2   -1    0    0  501    0  0.00000000000E+00  0.00000000000E+00  0.49822826615E+02  0.49822826680E+02  0.25500000000E-02 0. -1.
         -1   -1    0    0    0  501 -0.00000000000E+00 -0.00000000000E+00 -0.31583931487E+02  0.31583931889E+02  0.50400000000E-02 0.  1.
         24    2    1    2    0    0  0.35527136788E-14 -0.35527136788E-14  0.18238895128E+02  0.81406758569E+02  0.79337273996E+02 0.  0.
         66    2    3    3    0    0 -0.22948034188E+02  0.31177868226E+02  0.36291620914E+00  0.38766008968E+02  0.20000007327E+01 0.  0.
        -13    1    3    3    0    0  0.22948034188E+02 -0.31177868226E+02  0.17875978919E+02  0.42640749601E+02  0.10566000000E+00 0.  1.
         13    1    4    4    0    0 -0.63813816549E+01  0.97812998815E+01 -0.33568772406E+00  0.11684164903E+02  0.10566000000E+00 0. -1.
        -13    1    4    4    0    0 -0.10104753877E+01  0.11823123466E+01  0.18280960613E+00  0.15695561098E+01  0.10566000000E+00 0.  1.
        -14    1    4    4    0    0 -0.15556177145E+02  0.20214255998E+02  0.51579432707E+00  0.25512287955E+02  0.00000000000E+00 0.  1.
<mgrwt>
<rscale>  0 0.79337274E+02</rscale>
<asrwt>0</asrwt>
<pdfrwt beam="1">  1        2 0.76650503E-02 0.79337274E+02</pdfrwt>
<pdfrwt beam="2">  1       -1 0.48590664E-02 0.79337274E+02</pdfrwt>
<totfact> 0.15275448E+05</totfact>
</mgrwt>
</event>
<event>
 8    1  0.2561077E-016  0.8217470E+02  0.7818608E-02  0.1322991E+00
          2   -1    0    0  501    0  0.00000000000E+00  0.00000000000E+00  0.64205543886E+03  0.64205543886E+03  0.25500000000E-02 0. -1.
         -1   -1    0    0    0  501 -0.00000000000E+00 -0.00000000000E+00 -0.26293194170E+01  0.26293242474E+01  0.50400000000E-02 0.  1.
         24    2    1    2    0    0  0.00000000000E+00  0.71054273576E-14  0.63942611944E+03  0.64468476311E+03  0.82174701480E+02 0.  0.
         66    2    3    3    0    0 -0.63433682877E+00  0.36442323619E+02  0.46828381350E+03  0.46970434883E+03  0.19999980719E+01 0.  0.
        -13    1    3    3    0    0  0.63433682877E+00 -0.36442323619E+02  0.17114230594E+03  0.17498041428E+03  0.10566000000E+00 0.  1.
         13    1    4    4    0    0  0.53975640381E-01  0.17663459583E+02  0.23198985073E+03  0.23266134772E+03  0.10566000000E+00 0. -1.
        -13    1    4    4    0    0 -0.89818023726E+00  0.10268942392E+02  0.12592350889E+03  0.12634476310E+03  0.10566000000E+00 0.  1.
        -14    1    4    4    0    0  0.20986776811E+00  0.85099216450E+01  0.11037045387E+03  0.11069823801E+03  0.00000000000E+00 0.  1.
<mgrwt>
<rscale>  0 0.82174701E+02</rscale>
<asrwt>0</asrwt>
<pdfrwt beam="1">  1        2 0.98777884E-01 0.82174701E+02</pdfrwt>
<pdfrwt beam="2">  1       -1 0.40451054E-03 0.82174701E+02</pdfrwt>
<totfact> 0.30544109E+05</totfact>
</mgrwt>
</event>
<event>
 8    1  0.2561077E-016  0.7647381E+02  0.7818608E-02  0.1339367E+00
          2   -1    0    0  501    0  0.00000000000E+00  0.00000000000E+00  0.32581959241E+02  0.32581959341E+02  0.25500000000E-02 0. -1.
         -1   -1    0    0    0  501 -0.00000000000E+00 -0.00000000000E+00 -0.44873324125E+02  0.44873324408E+02  0.50400000000E-02 0.  1.
         24    2    1    2    0    0 -0.71054273576E-14  0.00000000000E+00 -0.12291364884E+02  0.77455283748E+02  0.76473808130E+02 0.  0.
         66    2    3    3    0    0 -0.24706391821E+02  0.54897531386E+01  0.22844663345E+02  0.34152918570E+02  0.20000043006E+01 0.  0.
        -13    1    3    3    0    0  0.24706391821E+02 -0.54897531386E+01 -0.35136028228E+02  0.43302365178E+02  0.10566000000E+00 0.  1.
         13    1    4    4    0    0 -0.15585344954E+01  0.47324663380E+00  0.19600471061E+01  0.25506745860E+01  0.10566000000E+00 0. -1.
        -13    1    4    4    0    0 -0.20897345829E+01  0.37857453501E+00  0.14505456005E+01  0.25740155167E+01  0.10566000000E+00 0.  1.
         14    1    4    4    0    0 -0.21058122742E+02  0.46379319698E+01  0.19434070638E+02  0.29028228468E+02  0.00000000000E+00 0. -1.
<mgrwt>
<rscale>  0 0.76473808E+02</rscale>
<asrwt>0</asrwt>
<pdfrwt beam="1">  1        2 0.50126091E-02 0.76473808E+02</pdfrwt>
<pdfrwt beam="2">  1       -1 0.69035884E-02 0.76473808E+02</pdfrwt>
<totfact> 0.15503646E+05</totfact>
</mgrwt>
</event>
<event>
 8    1  0.2561077E-016  0.8222887E+02  0.7818608E-02  0.1322843E+00
          2   -1    0    0  501    0  0.00000000000E+00  0.00000000000E+00  0.10723495411E+03  0.10723495414E+03  0.25500000000E-02 0. -1.
         -1   -1    0    0    0  501 -0.00000000000E+00 -0.00000000000E+00 -0.15763484464E+02  0.15763485269E+02  0.50400000000E-02 0.  1.
         24    2    1    2    0    0  0.71054273576E-14  0.00000000000E+00  0.91471469648E+02  0.12299843941E+03  0.82228865601E+02 0.  0.
         66    2    3    3    0    0  0.39202702807E+02 -0.10980744803E+02  0.54086030009E+02  0.67725381554E+02  0.20000001934E+01 0.  0.
        -13    1    3    3    0    0 -0.39202702807E+02  0.10980744803E+02  0.37385439639E+02  0.55273057857E+02  0.10566000000E+00 0.  1.
         13    1    4    4    0    0  0.12852174495E+02 -0.30961562428E+01  0.17519298245E+02  0.21947700284E+02  0.10566000000E+00 0. -1.
        -13    1    4    4    0    0  0.16832678117E+02 -0.48997642978E+01  0.22203609813E+02  0.28290602601E+02  0.10566000000E+00 0.  1.
        -14    1    4    4    0    0  0.95178501952E+01 -0.29848242619E+01  0.14363121950E+02  0.17487078669E+02  0.00000000000E+00 0.  1.
<mgrwt>
<rscale>  0 0.82228866E+02</rscale>
<asrwt>0</asrwt>
<pdfrwt beam="1">  1        2 0.16497686E-01 0.82228866E+02</pdfrwt>
<pdfrwt beam="2">  1       -1 0.24251515E-02 0.82228866E+02</pdfrwt>
<totfact> 0.16797487E+05</totfact>
</mgrwt>
</event>
<event>
 8    1  0.2561077E-016  0.8899398E+02  0.7818608E-02  0.1305306E+00
          2   -1    0    0  501    0  0.00000000000E+00  0.00000000000E+00  0.20511174457E+02  0.20511174616E+02  0.25500000000E-02 0. -1.
         -1   -1    0    0    0  501 -0.00000000000E+00 -0.00000000000E+00 -0.96531881433E+02  0.96531881564E+02  0.50400000000E-02 0.  1.
         24    2    1    2    0    0 -0.71054273576E-14  0.35527136788E-14 -0.76020706975E+02  0.11704305618E+03  0.88993983566E+02 0.  0.
         66    2    3    3    0    0  0.27881162082E+02 -0.22662160028E+02 -0.35566270912E+01  0.36160507174E+02  0.19999966676E+01 0.  0.
        -13    1    3    3    0    0 -0.27881162082E+02  0.22662160028E+02 -0.72464079884E+02  0.80882549006E+02  0.10566000000E+00 0.  1.
         13    1    4    4    0    0  0.66787956454E+01 -0.59555193334E+01 -0.38487558134E+00  0.89573330323E+01  0.10566000000E+00 0. -1.
        -13    1    4    4    0    0  0.73675249481E+01 -0.63298232842E+01 -0.14936913246E+01  0.98279888318E+01  0.10566000000E+00 0.  1.
         14    1    4    4    0    0  0.13834841488E+02 -0.10376817410E+02 -0.16780601852E+01  0.17375185310E+02  0.00000000000E+00 0. -1.
<mgrwt>
<rscale>  0 0.88993984E+02</rscale>
<asrwt>0</asrwt>
<pdfrwt beam="1">  1        2 0.31555654E-02 0.88993984E+02</pdfrwt>
<pdfrwt beam="2">  1       -1 0.14851059E-01 0.88993984E+02</pdfrwt>
<totfact> 0.91625747E+04</totfact>
</mgrwt>
</event>
<event>
 8    1  0.2561077E-016  0.7867446E+02  0.7818608E-02  0.1332856E+00
         -1   -1    0    0    0  501 -0.00000000000E+00  0.00000000000E+00  0.10160303266E+02  0.10160304516E+02  0.50400000000E-02 0.  1.
          2   -1    0    0  501    0  0.00000000000E+00 -0.00000000000E+00 -0.15230032548E+03  0.15230032550E+03  0.25500000000E-02 0. -1.
         24    2    1    2    0    0  0.22204460493E-15  0.00000000000E+00 -0.14214002222E+03  0.16246063002E+03  0.78674458314E+02 0.  0.
         66    2    3    3    0    0 -0.10589172838E+01 -0.18784219412E+02 -0.14239311622E+03  0.14364458832E+03  0.20000004209E+01 0.  0.
        -13    1    3    3    0    0  0.10589172838E+01  0.18784219412E+02  0.25309400311E+00  0.18816041702E+02  0.10566000000E+00 0.  1.
         13    1    4    4    0    0 -0.29647757863E+00 -0.28368387380E+01 -0.20544798123E+02  0.20742117706E+02  0.10566000000E+00 0. -1.
        -13    1    4    4    0    0 -0.83480570852E+00 -0.14472078990E+02 -0.11381459570E+03  0.11473408966E+03  0.10566000000E+00 0. -1.
         14    1    4    4    0    0  0.72366003376E-01 -0.14753016836E+01 -0.80337223932E+01  0.81683809526E+01  0.00000000000E+00 0. -1.
<mgrwt>
<rscale>  0 0.78674458E+02</rscale>
<asrwt>0</asrwt>
<pdfrwt beam="1">  1        2 0.23430818E-01 0.78674458E+02</pdfrwt>
<pdfrwt beam="2">  1       -1 0.15631238E-02 0.78674458E+02</pdfrwt>
<totfact> 0.21040034E+05</totfact>
</mgrwt>
</event>
<event>
 8    1  0.2561077E-016  0.7986397E+02  0.7818608E-02  0.1329438E+00
         -1   -1    0    0    0  501 -0.00000000000E+00  0.00000000000E+00  0.35713532916E+01  0.35713568479E+01  0.50400000000E-02 0.  1.
          2   -1    0    0  501    0  0.00000000000E+00 -0.00000000000E+00 -0.44648694371E+03  0.44648694372E+03  0.25500000000E-02 0. -1.
         24    2    1    2    0    0  0.00000000000E+00  0.00000000000E+00 -0.44291559042E+03  0.45005830057E+03  0.79863969799E+02 0.  0.
         66    2    3    3    0    0 -0.19801621391E+02 -0.31456119455E+02 -0.30344746969E+03  0.30572202819E+03  0.19999989566E+01 0.  0.
        -13    1    3    3    0    0  0.19801621391E+02  0.31456119455E+02 -0.13946812073E+03  0.14433627238E+03  0.10566000000E+00 0.  1.
         13    1    4    4    0    0 -0.81099549015E+01 -0.12136062353E+02 -0.12120259028E+03  0.12207839462E+03  0.10566000000E+00 0. -1.
        -13    1    4    4    0    0 -0.38705055418E+01 -0.58270267121E+01 -0.52109769385E+02  0.52577317189E+02  0.10566000000E+00 0.  1.
        -14    1    4    4    0    0 -0.78211609474E+01 -0.13493030390E+02 -0.13013511002E+03  0.13106631638E+03  0.00000000000E+00 0.  1.
<mgrwt>
<rscale>  0 0.79863970E+02</rscale>
<asrwt>0</asrwt>
<pdfrwt beam="1">  1        2 0.68690255E-01 0.79863970E+02</pdfrwt>
<pdfrwt beam="2">  1       -1 0.54943960E-03 0.79863970E+02</pdfrwt>
<totfact> 0.29471642E+05</totfact>
</mgrwt>
</event>
<event>
 8    1  0.2561077E-016  0.8015747E+02  0.7818608E-02  0.1328605E+00
         -1   -1    0    0    0  501 -0.00000000000E+00  0.00000000000E+00  0.13670285591E+01  0.13670378499E+01  0.50400000000E-02 0.  1.
          2   -1    0    0  501    0  0.00000000000E+00 -0.00000000000E+00 -0.11750300119E+04  0.11750300119E+04  0.25500000000E-02 0. -1.
         24    2    1    2    0    0 -0.35527136788E-14  0.00000000000E+00 -0.11736629834E+04  0.11763970498E+04  0.80157471281E+02 0.  0.
         66    2    3    3    0    0  0.20799751499E+02 -0.17029914871E+02 -0.10229670997E+04  0.10233222047E+04  0.19999999249E+01 0.  0.
        -13    1    3    3    0    0 -0.20799751499E+02  0.17029914871E+02 -0.15069588369E+03  0.15307484505E+03  0.10566000000E+00 0.  1.
         13    1    4    4    0    0  0.97692031211E+01 -0.70872825783E+01 -0.46701363745E+03  0.46716957909E+03  0.10566000000E+00 0. -1.
        -13    1    4    4    0    0  0.56177060812E+00 -0.36228066970E+00 -0.31049113051E+02  0.31056487547E+02  0.10566000000E+00 0.  1.
        -14    1    4    4    0    0  0.10468777770E+02 -0.95803516228E+01 -0.52490434917E+03  0.52509613808E+03  0.00000000000E+00 0.  1.
<mgrwt>
<rscale>  0 0.80157471E+02</rscale>
<asrwt>0</asrwt>
<pdfrwt beam="1">  1        2 0.18077304E+00 0.80157471E+02</pdfrwt>
<pdfrwt beam="2">  1       -1 0.21031374E-03 0.80157471E+02</pdfrwt>
<totfact> 0.34933136E+05</totfact>
</mgrwt>
</event>
<event>
 8    1  0.2561077E-016  0.8102607E+02  0.7818608E-02  0.1326165E+00
          2   -1    0    0  501    0  0.00000000000E+00  0.00000000000E+00  0.17670436166E+03  0.17670436168E+03  0.25500000000E-02 0. -1.
         -1   -1    0    0    0  501 -0.00000000000E+00 -0.00000000000E+00 -0.92884297026E+01  0.92884310700E+01  0.50400000000E-02 0.  1.
         24    2    1    2    0    0  0.00000000000E+00  0.35527136788E-14  0.16741593196E+03  0.18599279275E+03  0.81026074082E+02 0.  0.
         66    2    3    3    0    0 -0.74116526220E+01 -0.22642400129E+02  0.15890484242E+03  0.16069337206E+03  0.20000000955E+01 0.  0.
        -13    1    3    3    0    0  0.74116526220E+01  0.22642400129E+02  0.85110895378E+01  0.25299420692E+02  0.10566000000E+00 0.  1.
         13    1    4    4    0    0 -0.70400230028E+00 -0.26039099456E+01  0.15044077605E+02  0.15284351516E+02  0.10566000000E+00 0. -1.
        -13    1    4    4    0    0 -0.35148212780E+00 -0.76069600632E+00  0.70991272736E+01  0.71491936736E+01  0.10566000000E+00 0.  1.
        -14    1    4    4    0    0 -0.63561681939E+01 -0.19277794177E+02  0.13676163754E+03  0.13825982687E+03  0.00000000000E+00 0.  1.
<mgrwt>
<rscale>  0 0.81026074E+02</rscale>
<asrwt>0</asrwt>
<pdfrwt beam="1">  1        2 0.27185285E-01 0.81026074E+02</pdfrwt>
<pdfrwt beam="2">  1       -1 0.14289894E-02 0.81026074E+02</pdfrwt>
<totfact> 0.20440429E+05</totfact>
</mgrwt>
</event>
<event>
 8    1  0.2561077E-016  0.7939047E+02  0.7818608E-02  0.1330790E+00
         -1   -1    0    0    0  501 -0.00000000000E+00  0.00000000000E+00  0.33894635575E+02  0.33894635950E+02  0.50400000000E-02 0.  1.
          2   -1    0    0  501    0  0.00000000000E+00 -0.00000000000E+00 -0.46488522806E+02  0.46488522876E+02  0.25500000000E-02 0. -1.
         24    2    1    2    0    0  0.00000000000E+00  0.00000000000E+00 -0.12593887231E+02  0.80383158826E+02  0.79390466854E+02 0.  0.
         66    2    3    3    0    0 -0.17877249867E+02 -0.34150130252E+02 -0.15792533120E+02  0.41704095257E+02  0.19999999582E+01 0.  0.
        -13    1    3    3    0    0  0.17877249867E+02  0.34150130252E+02  0.31986458894E+01  0.38679063569E+02  0.10566000000E+00 0.  1.
         13    1    4    4    0    0 -0.11748950009E+02 -0.21061734854E+02 -0.92009923423E+01  0.25812863566E+02  0.10566000000E+00 0. -1.
        -13    1    4    4    0    0 -0.50301396560E+01 -0.10347218057E+02 -0.51641987284E+01  0.12611397187E+02  0.10566000000E+00 0.  1.
        -14    1    4    4    0    0 -0.10981602028E+01 -0.27411773414E+01 -0.14273420495E+01  0.32798345041E+01  0.00000000000E+00 0.  1.
<mgrwt>
<rscale>  0 0.79390467E+02</rscale>
<asrwt>0</asrwt>
<pdfrwt beam="1">  1        2 0.71520804E-02 0.79390467E+02</pdfrwt>
<pdfrwt beam="2">  1       -1 0.52145594E-02 0.79390467E+02</pdfrwt>
<totfact> 0.15022642E+05</totfact>
</mgrwt>
</event>
<event>
 8    1  0.2561077E-016  0.7921884E+02  0.7818608E-02  0.1331283E+00
          2   -1    0    0  501    0  0.00000000000E+00  0.00000000000E+00  0.75027294690E+02  0.75027294734E+02  0.25500000000E-02 0. -1.
         -1   -1    0    0    0  501 -0.00000000000E+00 -0.00000000000E+00 -0.20911135721E+02  0.20911136329E+02  0.50400000000E-02 0.  1.
         24    2    1    2    0    0  0.00000000000E+00  0.00000000000E+00  0.54116158969E+02  0.95938431062E+02  0.79218835470E+02 0.  0.
         66    2    3    3    0    0 -0.65490157135E+00  0.33151751342E+02  0.53258559849E+02  0.62768954833E+02  0.19999951121E+01 0.  0.
        -13    1    3    3    0    0  0.65490157135E+00 -0.33151751342E+02  0.85759911931E+00  0.33169476230E+02  0.10566000000E+00 0.  1.
         13    1    4    4    0    0 -0.89439242671E+00  0.15643494915E+02  0.23654164992E+02  0.28373395223E+02  0.10566000000E+00 0. -1.
        -13    1    4    4    0    0  0.73698452804E-01  0.87673157374E+01  0.14741296217E+02  0.17151916362E+02  0.10566000000E+00 0.  1.
         14    1    4    4    0    0  0.16579240255E+00  0.87409406896E+01  0.14863098641E+02  0.17243643248E+02  0.00000000000E+00 0. -1.
<mgrwt>
<rscale>  0 0.79218835E+02</rscale>
<asrwt>0</asrwt>
<pdfrwt beam="1">  1        2 0.11542660E-01 0.79218835E+02</pdfrwt>
<pdfrwt beam="2">  1       -1 0.32170980E-02 0.79218835E+02</pdfrwt>
<totfact> 0.16866871E+05</totfact>
</mgrwt>
</event>
<event>
 8    1  0.2561077E-016  0.8039529E+02  0.7818608E-02  0.1327933E+00
          2   -1    0    0  501    0  0.00000000000E+00  0.00000000000E+00  0.51770555881E+03  0.51770555882E+03  0.25500000000E-02 0. -1.
         -1   -1    0    0    0  501 -0.00000000000E+00 -0.00000000000E+00 -0.31211749636E+01  0.31211790329E+01  0.50400000000E-02 0.  1.
         24    2    1    2    0    0 -0.35527136788E-14  0.00000000000E+00  0.51458438385E+03  0.52082673785E+03  0.80395290659E+02 0.  0.
         66    2    3    3    0    0 -0.20420284949E+02  0.28322854271E+02  0.38615191433E+03  0.38773247613E+03  0.19999992018E+01 0.  0.
        -13    1    3    3    0    0  0.20420284949E+02 -0.28322854271E+02  0.12843246952E+03  0.13309426172E+03  0.10566000000E+00 0.  1.
         13    1    4    4    0    0 -0.11257595970E+02  0.14412252679E+02  0.20480459903E+03  0.20561950647E+03  0.10566000000E+00 0. -1.
        -13    1    4    4    0    0 -0.27522425711E+01  0.49249875909E+01  0.60337511211E+02  0.60600798387E+02  0.10566000000E+00 0.  1.
        -14    1    4    4    0    0 -0.64104464080E+01  0.89856140007E+01  0.12100980409E+03  0.12151217127E+03  0.00000000000E+00 0.  1.
<mgrwt>
<rscale>  0 0.80395291E+02</rscale>
<asrwt>0</asrwt>
<pdfrwt beam="1">  1        2 0.79646938E-01 0.80395291E+02</pdfrwt>
<pdfrwt beam="2">  1       -1 0.48018151E-03 0.80395291E+02</pdfrwt>
<totfact> 0.30394446E+05</totfact>
</mgrwt>
</event>
<event>
 8    1  0.2561077E-016  0.7949411E+02  0.7818608E-02  0.1330493E+00
          2   -1    0    0  501    0  0.00000000000E+00  0.00000000000E+00  0.51734351475E+01  0.51734357760E+01  0.25500000000E-02 0. -1.
         -1   -1    0    0    0  501 -0.00000000000E+00 -0.00000000000E+00 -0.30537319284E+03  0.30537319288E+03  0.50400000000E-02 0.  1.
         24    2    1    2    0    0  0.00000000000E+00 -0.71054273576E-14 -0.30019975769E+03  0.31054662866E+03  0.79494113316E+02 0.  0.
         66    2    3    3    0    0 -0.86776287236E+01 -0.38459906438E+02 -0.16907492416E+03  0.17362256658E+03  0.20000004376E+01 0.  0.
        -13    1    3    3    0    0  0.86776287236E+01  0.38459906438E+02 -0.13112483353E+03  0.13692406208E+03  0.10566000000E+00 0.  1.
         13    1    4    4    0    0 -0.21792900022E+01 -0.92848162732E+01 -0.43306640899E+02  0.44344485882E+02  0.10566000000E+00 0. -1.
        -13    1    4    4    0    0 -0.24440811858E+01 -0.83940166613E+01 -0.35909998111E+02  0.36959060823E+02  0.10566000000E+00 0.  1.
         14    1    4    4    0    0 -0.40542575357E+01 -0.20781073504E+02 -0.89858285154E+02  0.92319019876E+02  0.00000000000E+00 0. -1.
<mgrwt>
<rscale>  0 0.79494113E+02</rscale>
<asrwt>0</asrwt>
<pdfrwt beam="1">  1        2 0.79591339E-03 0.79494113E+02</pdfrwt>
<pdfrwt beam="2">  1       -1 0.46980477E-01 0.79494113E+02</pdfrwt>
<totfact> 0.87215530E+04</totfact>
</mgrwt>
</event>
<event>
 8    1  0.2561077E-016  0.7854372E+02  0.7818608E-02  0.1333236E+00
         -1   -1    0    0    0  501 -0.00000000000E+00  0.00000000000E+00  0.18084741358E+01  0.18084811587E+01  0.50400000000E-02 0.  1.
          2   -1    0    0  501    0  0.00000000000E+00 -0.00000000000E+00 -0.85280501709E+03  0.85280501709E+03  0.25500000000E-02 0. -1.
         24    2    1    2    0    0  0.17763568394E-14  0.00000000000E+00 -0.85099654295E+03  0.85461349825E+03  0.78543715696E+02 0.  0.
         66    2    3    3    0    0 -0.12157122469E+02  0.19469176006E+02 -0.77215518995E+03  0.77249885554E+03  0.19999985542E+01 0.  0.
        -13    1    3    3    0    0  0.12157122469E+02 -0.19469176006E+02 -0.78841352996E+02  0.82114642710E+02  0.10566000000E+00 0.  1.
         13    1    4    4    0    0 -0.92320577853E+01  0.14902033356E+02 -0.60875666990E+03  0.60900902768E+03  0.10566000000E+00 0. -1.
        -13    1    4    4    0    0 -0.94966355575E+00  0.13776640245E+01 -0.42318859529E+02  0.42352058449E+02  0.10566000000E+00 0.  1.
        -14    1    4    4    0    0 -0.19754011283E+01  0.31894786258E+01 -0.12107966053E+03  0.12113776941E+03  0.00000000000E+00 0.  1.
<mgrwt>
<rscale>  0 0.78543716E+02</rscale>
<asrwt>0</asrwt>
<pdfrwt beam="1">  1        2 0.13120045E+00 0.78543716E+02</pdfrwt>
<pdfrwt beam="2">  1       -1 0.27822801E-03 0.78543716E+02</pdfrwt>
<totfact> 0.36406046E+05</totfact>
</mgrwt>
</event>
<event>
 8    1  0.2561077E-016  0.7963103E+02  0.7818608E-02  0.1330102E+00
          2   -1    0    0  501    0  0.00000000000E+00  0.00000000000E+00  0.12054289177E+02  0.12054289446E+02  0.25500000000E-02 0. -1.
         -1   -1    0    0    0  501 -0.00000000000E+00 -0.00000000000E+00 -0.13151130286E+03  0.13151130296E+03  0.50400000000E-02 0.  1.
         24    2    1    2    0    0  0.00000000000E+00  0.00000000000E+00 -0.11945701368E+03  0.14356559240E+03  0.79631031664E+02 0.  0.
         66    2    3    3    0    0 -0.21666137973E+01 -0.32270404483E+02 -0.17979687346E+02  0.37058634200E+02  0.19999977203E+01 0.  0.
        -13    1    3    3    0    0  0.21666137973E+01  0.32270404483E+02 -0.10147732634E+03  0.10650695820E+03  0.10566000000E+00 0.  1.
         13    1    4    4    0    0 -0.10542775610E+01 -0.14087479999E+02 -0.79760058434E+01  0.16223329718E+02  0.10566000000E+00 0. -1.
        -13    1    4    4    0    0 -0.32293710190E+00 -0.14703337080E+02 -0.79483169583E+01  0.16717634885E+02  0.10566000000E+00 0.  1.
        -14    1    4    4    0    0 -0.78939913447E+00 -0.34795874043E+01 -0.20553645439E+01  0.41176695965E+01  0.00000000000E+00 0.  1.
<mgrwt>
<rscale>  0 0.79631032E+02</rscale>
<asrwt>0</asrwt>
<pdfrwt beam="1">  1        2 0.18545061E-02 0.79631032E+02</pdfrwt>
<pdfrwt beam="2">  1       -1 0.20232507E-01 0.79631032E+02</pdfrwt>
<totfact> 0.11273450E+05</totfact>
</mgrwt>
</event>
<event>
 8    1  0.2561077E-016  0.7785009E+02  0.7818608E-02  0.1335266E+00
          2   -1    0    0  501    0  0.00000000000E+00  0.00000000000E+00  0.33204551275E+03  0.33204551276E+03  0.25500000000E-02 0. -1.
         -1   -1    0    0    0  501 -0.00000000000E+00 -0.00000000000E+00 -0.45631057565E+01  0.45631085399E+01  0.50400000000E-02 0.  1.
         24    2    1    2    0    0  0.00000000000E+00  0.44408920985E-15  0.32748240699E+03  0.33660862130E+03  0.77850093404E+02 0.  0.
         66    2    3    3    0    0  0.37082335327E+02 -0.21397728357E+01  0.21380269453E+03  0.21701444748E+03  0.20000017138E+01 0.  0.
        -13    1    3    3    0    0 -0.37082335327E+02  0.21397728357E+01  0.11367971246E+03  0.11959417381E+03  0.10566000000E+00 0.  1.
         13    1    4    4    0    0  0.81297929123E+01 -0.21207566700E+00  0.47435880417E+02  0.48128083525E+02  0.10566000000E+00 0. -1.
        -13    1    4    4    0    0  0.15679637681E+02 -0.65602751377E+00  0.94123618899E+02  0.95422996225E+02  0.10566000000E+00 0.  1.
        -14    1    4    4    0    0  0.13272904734E+02 -0.12716696549E+01  0.72243195216E+02  0.73463367734E+02  0.00000000000E+00 0.  1.
<mgrwt>
<rscale>  0 0.77850093E+02</rscale>
<asrwt>0</asrwt>
<pdfrwt beam="1">  1        2 0.51083919E-01 0.77850093E+02</pdfrwt>
<pdfrwt beam="2">  1       -1 0.70201657E-03 0.77850093E+02</pdfrwt>
<totfact> 0.28398237E+05</totfact>
</mgrwt>
</event>
<event>
 8    1  0.2561077E-016  0.8006360E+02  0.7818608E-02  0.1328871E+00
         -1   -1    0    0    0  501 -0.00000000000E+00  0.00000000000E+00  0.49162230174E+01  0.49162256009E+01  0.50400000000E-02 0.  1.
          2   -1    0    0  501    0  0.00000000000E+00 -0.00000000000E+00 -0.32597065542E+03  0.32597065543E+03  0.25500000000E-02 0. -1.
         24    2    1    2    0    0  0.35527136788E-14  0.88817841970E-15 -0.32105443240E+03  0.33088688103E+03  0.80063596428E+02 0.  0.
         66    2    3    3    0    0 -0.17366694637E+02 -0.70374664270E+01 -0.30670929694E+03  0.30728768418E+03  0.20000015063E+01 0.  0.
        -13    1    3    3    0    0  0.17366694637E+02  0.70374664270E+01 -0.14345135463E+02  0.23599196847E+02  0.10566000000E+00 0.  1.
         13    1    4    4    0    0 -0.73491697355E+01 -0.26444316141E+01 -0.11975119239E+03  0.12000567719E+03  0.10566000000E+00 0. -1.
        -13    1    4    4    0    0 -0.25400731725E+01 -0.11617656780E+01 -0.57480357069E+02  0.57548277854E+02  0.10566000000E+00 0.  1.
        -14    1    4    4    0    0 -0.74774517286E+01 -0.32312691349E+01 -0.12947774747E+03  0.12973372914E+03  0.00000000000E+00 0.  1.
<mgrwt>
<rscale>  0 0.80063596E+02</rscale>
<asrwt>0</asrwt>
<pdfrwt beam="1">  1        2 0.50149315E-01 0.80063596E+02</pdfrwt>
<pdfrwt beam="2">  1       -1 0.75634246E-03 0.80063596E+02</pdfrwt>
<totfact> 0.26216086E+05</totfact>
</mgrwt>
</event>
<event>
 8    1  0.2561077E-016  0.7156001E+02  0.7818608E-02  0.1354867E+00
         -1   -1    0    0    0  501 -0.00000000000E+00  0.00000000000E+00  0.12670015536E+02  0.12670016539E+02  0.50400000000E-02 0.  1.
          2   -1    0    0  501    0  0.00000000000E+00 -0.00000000000E+00 -0.10104239921E+03  0.10104239924E+03  0.25500000000E-02 0. -1.
         24    2    1    2    0    0 -0.88817841970E-15  0.00000000000E+00 -0.88372383675E+02  0.11371241578E+03  0.71560011924E+02 0.  0.
         66    2    3    3    0    0  0.40111827892E+01 -0.27596520829E+02 -0.79772253978E+02  0.84529699251E+02  0.20000003789E+01 0.  0.
        -13    1    3    3    0    0 -0.40111827892E+01  0.27596520829E+02 -0.86001296967E+01  0.29182716530E+02  0.10566000000E+00 0.  1.
         13    1    4    4    0    0  0.89832739316E+00 -0.38731368203E+01 -0.11615185547E+02  0.12277291243E+02  0.10566000000E+00 0. -1.
        -13    1    4    4    0    0  0.28499815043E+00 -0.64782258984E+01 -0.17199739659E+02  0.18381807395E+02  0.10566000000E+00 0.  1.
        -14    1    4    4    0    0  0.28278572456E+01 -0.17245158111E+02 -0.50957328772E+02  0.53870600613E+02  0.00000000000E+00 0.  1.
<mgrwt>
<rscale>  0 0.71560012E+02</rscale>
<asrwt>0</asrwt>
<pdfrwt beam="1">  1        2 0.15544984E-01 0.71560012E+02</pdfrwt>
<pdfrwt beam="2">  1       -1 0.19492333E-02 0.71560012E+02</pdfrwt>
<totfact> 0.23909773E+05</totfact>
</mgrwt>
</event>
<event>
 8    1  0.2561077E-016  0.7926140E+02  0.7818608E-02  0.1331161E+00
         -1   -1    0    0    0  501 -0.00000000000E+00  0.00000000000E+00  0.14351372662E+01  0.14351461161E+01  0.50400000000E-02 0.  1.
          2   -1    0    0  501    0  0.00000000000E+00 -0.00000000000E+00 -0.10943814563E+04  0.10943814563E+04  0.25500000000E-02 0. -1.
         24    2    1    2    0    0  0.00000000000E+00  0.00000000000E+00 -0.10929463190E+04  0.10958166024E+04  0.79261402004E+02 0.  0.
         66    2    3    3    0    0 -0.10811246934E+02 -0.20572429062E+02 -0.99019795582E+03  0.99047266474E+03  0.19999988111E+01 0.  0.
        -13    1    3    3    0    0  0.10811246934E+02  0.20572429062E+02 -0.10274836318E+03  0.10534393765E+03  0.10566000000E+00 0.  1.
         13    1    4    4    0    0 -0.44026329709E+01 -0.10112887720E+02 -0.46333958010E+03  0.46347085273E+03  0.10566000000E+00 0. -1.
        -13    1    4    4    0    0 -0.62743838408E+01 -0.10257382770E+02 -0.52033683091E+03  0.52047575406E+03  0.10566000000E+00 0.  1.
        -14    1    4    4    0    0 -0.13423012202E+00 -0.20215857262E+00 -0.65215448013E+01  0.65260579532E+01  0.00000000000E+00 0.  1.
<mgrwt>
<rscale>  0 0.79261402E+02</rscale>
<asrwt>0</asrwt>
<pdfrwt beam="1">  1        2 0.16836571E+00 0.79261402E+02</pdfrwt>
<pdfrwt beam="2">  1       -1 0.22079191E-03 0.79261402E+02</pdfrwt>
<totfact> 0.36116120E+05</totfact>
</mgrwt>
</event>
<event>
 8    1  0.2561077E-016  0.7906375E+02  0.7818608E-02  0.1331730E+00
         -1   -1    0    0    0  501 -0.00000000000E+00  0.00000000000E+00  0.27884308361E+01  0.27884353909E+01  0.50400000000E-02 0.  1.
          2   -1    0    0  501    0  0.00000000000E+00 -0.00000000000E+00 -0.56044706933E+03  0.56044706934E+03  0.25500000000E-02 0. -1.
         24    2    1    2    0    0  0.00000000000E+00  0.44408920985E-15 -0.55765863849E+03  0.56323550473E+03  0.79063750846E+02 0.  0.
         66    2    3    3    0    0  0.12027425508E+02  0.27839390554E+01 -0.54635015182E+03  0.54649327322E+03  0.19999997998E+01 0.  0.
        -13    1    3    3    0    0 -0.12027425508E+02 -0.27839390554E+01 -0.11308486678E+02  0.16742231512E+02  0.10566000000E+00 0.  1.
         13    1    4    4    0    0  0.71426846151E+00  0.56360677972E+00 -0.40272874615E+02  0.40283289660E+02  0.10566000000E+00 0.  1.
        -13    1    4    4    0    0  0.32464649772E+01  0.90049989704E+00 -0.16903154283E+03  0.16906514742E+03  0.10566000000E+00 0.  1.
         14    1    4    4    0    0  0.80666920688E+01  0.13198323787E+01 -0.33704573437E+03  0.33714483614E+03  0.00000000000E+00 0. -1.
<mgrwt>
<rscale>  0 0.79063751E+02</rscale>
<asrwt>0</asrwt>
<pdfrwt beam="1">  1        2 0.86222536E-01 0.79063751E+02</pdfrwt>
<pdfrwt beam="2">  1       -1 0.42899016E-03 0.79063751E+02</pdfrwt>
<totfact> 0.32520529E+05</totfact>
</mgrwt>
</event>
<event>
 8    1  0.2561077E-016  0.7877340E+02  0.7818608E-02  0.1332569E+00
         -1   -1    0    0    0  501 -0.00000000000E+00  0.00000000000E+00  0.29887683791E+01  0.29887726286E+01  0.50400000000E-02 0.  1.
          2   -1    0    0  501    0  0.00000000000E+00 -0.00000000000E+00 -0.51904689965E+03  0.51904689966E+03  0.25500000000E-02 0. -1.
         24    2    1    2    0    0  0.00000000000E+00  0.00000000000E+00 -0.51605813128E+03  0.52203567229E+03  0.78773398347E+02 0.  0.
         66    2    3    3    0    0 -0.35345791102E+01  0.17237184213E+02 -0.49152877554E+03  0.49184769081E+03  0.19999998809E+01 0.  0.
        -13    1    3    3    0    0  0.35345791102E+01 -0.17237184213E+02 -0.24529355732E+02  0.30187981479E+02  0.10566000000E+00 0.  1.
         13    1    4    4    0    0 -0.51206343977E+00  0.13269396432E+01 -0.34814039566E+02  0.34843241708E+02  0.10566000000E+00 0.  1.
        -13    1    4    4    0    0 -0.31225566002E+01  0.14428367124E+02 -0.42133912606E+03  0.42159767368E+03  0.10566000000E+00 0. -1.
        -14    1    4    4    0    0  0.10004092978E+00  0.14818774464E+01 -0.35375609916E+02  0.35406775423E+02  0.00000000000E+00 0.  1.
<mgrwt>
<rscale>  0 0.78773398E+02</rscale>
<asrwt>0</asrwt>
<pdfrwt beam="1">  1        2 0.79853298E-01 0.78773398E+02</pdfrwt>
<pdfrwt beam="2">  1       -1 0.45981126E-03 0.78773398E+02</pdfrwt>
<totfact> 0.32076917E+05</totfact>
</mgrwt>
</event>
<event>
 8    1  0.2561077E-016  0.7980195E+02  0.7818608E-02  0.1329614E+00
          2   -1    0    0  501    0  0.00000000000E+00  0.00000000000E+00  0.69004135045E+03  0.69004135046E+03  0.25500000000E-02 0. -1.
         -1   -1    0    0    0  501 -0.00000000000E+00 -0.00000000000E+00 -0.23072324948E+01  0.23072379996E+01  0.50400000000E-02 0.  1.
         24    2    1    2    0    0  0.00000000000E+00  0.00000000000E+00  0.68773411796E+03  0.69234858846E+03  0.79801948191E+02 0.  0.
         66    2    3    3    0    0 -0.14000928135E+02 -0.33019497134E+02  0.49529347036E+03  0.49659433641E+03  0.20000002197E+01 0.  0.
        -13    1    3    3    0    0  0.14000928135E+02  0.33019497134E+02  0.19244064760E+03  0.19575425204E+03  0.10566000000E+00 0.  1.
         13    1    4    4    0    0 -0.70437791109E+01 -0.18011624858E+02  0.26639367231E+03  0.26709480201E+03  0.10566000000E+00 0. -1.
        -13    1    4    4    0    0 -0.68089612222E+00 -0.14170940657E+01  0.17800294144E+02  0.17869902372E+02  0.10566000000E+00 0.  1.
         14    1    4    4    0    0 -0.62762529023E+01 -0.13590778211E+02  0.21109950391E+03  0.21162963203E+03  0.00000000000E+00 0. -1.
<mgrwt>
<rscale>  0 0.79801948E+02</rscale>
<asrwt>0</asrwt>
<pdfrwt beam="1">  1        2 0.10616023E+00 0.79801948E+02</pdfrwt>
<pdfrwt beam="2">  1       -1 0.35495919E-03 0.79801948E+02</pdfrwt>
<totfact> 0.33556463E+05</totfact>
</mgrwt>
</event>
<event>
 8    1  0.2561077E-016  0.7908158E+02  0.7818608E-02  0.1331678E+00
         -1   -1    0    0    0  501 -0.00000000000E+00  0.00000000000E+00  0.64539827189E+01  0.64539846868E+01  0.50400000000E-02 0.  1.
          2   -1    0    0  501    0  0.00000000000E+00 -0.00000000000E+00 -0.24224943610E+03  0.24224943611E+03  0.25500000000E-02 0. -1.
         24    2    1    2    0    0  0.00000000000E+00  0.00000000000E+00 -0.23579545338E+03  0.24870342080E+03  0.79081576125E+02 0.  0.
         66    2    3    3    0    0  0.32282117076E+02 -0.21178407701E+02 -0.91509228965E+02  0.99340822550E+02  0.20000008840E+01 0.  0.
        -13    1    3    3    0    0 -0.32282117076E+02  0.21178407701E+02 -0.14428622442E+03  0.14936259825E+03  0.10566000000E+00 0.  1.
         13    1    4    4    0    0  0.20947128704E+02 -0.14139674076E+02 -0.59736084705E+02  0.64862343187E+02  0.10566000000E+00 0. -1.
        -13    1    4    4    0    0  0.94998705332E+01 -0.61662900067E+01 -0.27716837576E+02  0.29941692033E+02  0.10566000000E+00 0.  1.
        -14    1    4    4    0    0  0.18351178391E+01 -0.87244361792E+00 -0.40563066845E+01  0.45367873290E+01  0.00000000000E+00 0.  1.
<mgrwt>
<rscale>  0 0.79081576E+02</rscale>
<asrwt>0</asrwt>
<pdfrwt beam="1">  1        2 0.37269137E-01 0.79081576E+02</pdfrwt>
<pdfrwt beam="2">  1       -1 0.99292076E-03 0.79081576E+02</pdfrwt>
<totfact> 0.24328370E+05</totfact>
</mgrwt>
</event>
<event>
 8    1  0.2561077E-016  0.7941882E+02  0.7818608E-02  0.1330709E+00
         -1   -1    0    0    0  501 -0.00000000000E+00  0.00000000000E+00  0.23010101466E+02  0.23010102018E+02  0.50400000000E-02 0.  1.
          2   -1    0    0  501    0  0.00000000000E+00 -0.00000000000E+00 -0.68528034082E+02  0.68528034129E+02  0.25500000000E-02 0. -1.
         24    2    1    2    0    0  0.00000000000E+00 -0.17763568394E-14 -0.45517932616E+02  0.91538136147E+02  0.79418815023E+02 0.  0.
         66    2    3    3    0    0  0.31996471746E+02 -0.10665218686E+02 -0.46876512740E+02  0.57783462429E+02  0.19999974439E+01 0.  0.
        -13    1    3    3    0    0 -0.31996471746E+02  0.10665218686E+02  0.13585801240E+01  0.33754673718E+02  0.10566000000E+00 0.  1.
         13    1    4    4    0    0  0.97563159626E+01 -0.26503386142E+01 -0.14659471737E+02  0.17807899134E+02  0.10566000000E+00 0. -1.
        -13    1    4    4    0    0  0.83079791135E+01 -0.34784448573E+01 -0.12742163392E+02  0.15604357965E+02  0.10566000000E+00 0.  1.
        -14    1    4    4    0    0  0.13932176670E+02 -0.45364352145E+01 -0.19474877611E+02  0.24371205329E+02  0.00000000000E+00 0.  1.
<mgrwt>
<rscale>  0 0.79418815E+02</rscale>
<asrwt>0</asrwt>
<pdfrwt beam="1">  1        2 0.10542774E-01 0.79418815E+02</pdfrwt>
<pdfrwt beam="2">  1       -1 0.35400157E-02 0.79418815E+02</pdfrwt>
<totfact> 0.16383500E+05</totfact>
</mgrwt>
</event>
<event>
 8    1  0.2561077E-016  0.8051870E+02  0.7818608E-02  0.1327586E+00
         -1   -1    0    0    0  501 -0.00000000000E+00  0.00000000000E+00  0.26467021042E+02  0.26467021521E+02  0.50400000000E-02 0.  1.
          2   -1    0    0  501    0  0.00000000000E+00 -0.00000000000E+00 -0.61239057614E+02  0.61239057667E+02  0.25500000000E-02 0. -1.
         24    2    1    2    0    0  0.00000000000E+00 -0.35527136788E-14 -0.34772036572E+02  0.87706079188E+02  0.80518704654E+02 0.  0.
         66    2    3    3    0    0 -0.26688452697E+01 -0.23176148184E+02 -0.53103193567E+02  0.58036245004E+02  0.19999968676E+01 0.  0.
        -13    1    3    3    0    0  0.26688452697E+01  0.23176148184E+02  0.18331156995E+02  0.29669834184E+02  0.10566000000E+00 0.  1.
         13    1    4    4    0    0 -0.13601145606E+01 -0.82432811959E+01 -0.20133787036E+02  0.21798672917E+02  0.10566000000E+00 0. -1.
        -13    1    4    4    0    0  0.22156753258E+00 -0.17502273447E+01 -0.39929005286E+01  0.43665554613E+01  0.10566000000E+00 0.  1.
        -14    1    4    4    0    0 -0.15302982417E+01 -0.13182639643E+02 -0.28976506002E+02  0.31871016626E+02  0.00000000000E+00 0.  1.
<mgrwt>
<rscale>  0 0.80518705E+02</rscale>
<asrwt>0</asrwt>
<pdfrwt beam="1">  1        2 0.94213935E-02 0.80518705E+02</pdfrwt>
<pdfrwt beam="2">  1       -1 0.40718494E-02 0.80518705E+02</pdfrwt>
<totfact> 0.15367586E+05</totfact>
</mgrwt>
</event>
<event>
 8    1  0.2561077E-016  0.8019415E+02  0.7818608E-02  0.1328501E+00
          2   -1    0    0  501    0  0.00000000000E+00  0.00000000000E+00  0.54279490851E+03  0.54279490851E+03  0.25500000000E-02 0. -1.
         -1   -1    0    0    0  501 -0.00000000000E+00 -0.00000000000E+00 -0.29620287194E+01  0.29620330073E+01  0.50400000000E-02 0.  1.
         24    2    1    2    0    0  0.00000000000E+00  0.00000000000E+00  0.53983287979E+03  0.54575694152E+03  0.80194146406E+02 0.  0.
         66    2    3    3    0    0  0.33106753525E+02  0.16091639525E+02  0.37785348495E+03  0.37964753929E+03  0.20000031588E+01 0.  0.
        -13    1    3    3    0    0 -0.33106753525E+02 -0.16091639525E+02  0.16197939484E+03  0.16610940223E+03  0.10566000000E+00 0.  1.
         13    1    4    4    0    0  0.19684170359E+02  0.96053772871E+01  0.22129291618E+03  0.22237422456E+03  0.10566000000E+00 0. -1.
        -13    1    4    4    0    0  0.43587097905E+00  0.35206947080E+00  0.45053386357E+01  0.45412747858E+01  0.10566000000E+00 0.  1.
         14    1    4    4    0    0  0.12986712186E+02  0.61341927671E+01  0.15205523013E+03  0.15273203994E+03  0.00000000000E+00 0. -1.
<mgrwt>
<rscale>  0 0.80194146E+02</rscale>
<asrwt>0</asrwt>
<pdfrwt beam="1">  1        2 0.83506772E-01 0.80194146E+02</pdfrwt>
<pdfrwt beam="2">  1       -1 0.45569780E-03 0.80194146E+02</pdfrwt>
<totfact> 0.31041898E+05</totfact>
</mgrwt>
</event>
<event>
 8    1  0.2561077E-016  0.8132627E+02  0.7818608E-02  0.1325329E+00
          2   -1    0    0  501    0  0.00000000000E+00  0.00000000000E+00  0.22678051363E+02  0.22678051506E+02  0.25500000000E-02 0. -1.
         -1   -1    0    0    0  501 -0.00000000000E+00 -0.00000000000E+00 -0.72911491560E+02  0.72911491734E+02  0.50400000000E-02 0.  1.
         24    2    1    2    0    0  0.35527136788E-14 -0.71054273576E-14 -0.50233440197E+02  0.95589543240E+02  0.81326270435E+02 0.  0.
         66    2    3    3    0    0  0.14718378295E+02 -0.37072546143E+02 -0.34272787185E+02  0.52627258085E+02  0.20000037620E+01 0.  0.
        -13    1    3    3    0    0 -0.14718378295E+02  0.37072546143E+02 -0.15960653012E+02  0.42962285155E+02  0.10566000000E+00 0.  1.
         13    1    4    4    0    0  0.16691103241E+01 -0.49853467004E+01 -0.40050915058E+01  0.66099571105E+01  0.10566000000E+00 0. -1.
        -13    1    4    4    0    0  0.90640447881E+01 -0.21095839549E+02 -0.20565841757E+02  0.30824606492E+02  0.10566000000E+00 0.  1.
        -14    1    4    4    0    0  0.39852231825E+01 -0.10991359893E+02 -0.97018539222E+01  0.15192694482E+02  0.00000000000E+00 0.  1.
<mgrwt>
<rscale>  0 0.81326270E+02</rscale>
<asrwt>0</asrwt>
<pdfrwt beam="1">  1        2 0.34889310E-02 0.81326270E+02</pdfrwt>
<pdfrwt beam="2">  1       -1 0.11217152E-01 0.81326270E+02</pdfrwt>
<totfact> 0.12148812E+05</totfact>
</mgrwt>
</event>
<event>
 8    1  0.2561077E-016  0.8688311E+02  0.7818608E-02  0.1310580E+00
         -1   -1    0    0    0  501 -0.00000000000E+00  0.00000000000E+00  0.36393274098E+01  0.36393308997E+01  0.50400000000E-02 0.  1.
          2   -1    0    0  501    0  0.00000000000E+00 -0.00000000000E+00 -0.51854853235E+03  0.51854853236E+03  0.25500000000E-02 0. -1.
         24    2    1    2    0    0 -0.17763568394E-14  0.71054273576E-14 -0.51490920494E+03  0.52218786325E+03  0.86883112281E+02 0.  0.
         66    2    3    3    0    0  0.13849992586E+02 -0.38119996263E+02 -0.35074100566E+03  0.35308385612E+03  0.19999983129E+01 0.  0.
        -13    1    3    3    0    0 -0.13849992586E+02  0.38119996263E+02 -0.16416819928E+03  0.16910400714E+03  0.10566000000E+00 0.  1.
         13    1    4    4    0    0  0.37982020963E+01 -0.10921906108E+02 -0.93500258893E+02  0.94212652809E+02  0.10566000000E+00 0. -1.
        -13    1    4    4    0    0  0.19405468140E+01 -0.47531109756E+01 -0.47895094841E+02  0.48169586461E+02  0.10566000000E+00 0.  1.
         14    1    4    4    0    0  0.81112436753E+01 -0.22444979179E+02 -0.20934565192E+03  0.21070161685E+03  0.00000000000E+00 0. -1.
<mgrwt>
<rscale>  0 0.86883112E+02</rscale>
<asrwt>0</asrwt>
<pdfrwt beam="1">  1        2 0.79776639E-01 0.86883112E+02</pdfrwt>
<pdfrwt beam="2">  1       -1 0.55989721E-03 0.86883112E+02</pdfrwt>
<totfact> 0.24821409E+05</totfact>
</mgrwt>
</event>
<event>
 8    1  0.2561077E-016  0.8290783E+02  0.7818608E-02  0.1320996E+00
         -1   -1    0    0    0  501 -0.00000000000E+00  0.00000000000E+00  0.89408438037E+02  0.89408438179E+02  0.50400000000E-02 0.  1.
          2   -1    0    0  501    0  0.00000000000E+00 -0.00000000000E+00 -0.19219963212E+02  0.19219963382E+02  0.25500000000E-02 0. -1.
         24    2    1    2    0    0  0.00000000000E+00  0.00000000000E+00  0.70188474825E+02  0.10862840156E+03  0.82907826093E+02 0.  0.
         66    2    3    3    0    0  0.12422974664E+02 -0.31543040302E+02  0.39121675088E+01  0.34184773449E+02  0.19999975393E+01 0.  0.
        -13    1    3    3    0    0 -0.12422974664E+02  0.31543040302E+02  0.66276307316E+02  0.74443628112E+02  0.10566000000E+00 0.  1.
         13    1    4    4    0    0  0.80143487533E+01 -0.21042924849E+02  0.29411529331E+01  0.22708941339E+02  0.10566000000E+00 0. -1.
        -13    1    4    4    0    0  0.11625744966E+01 -0.20231474674E+01  0.48509090726E+00  0.23856199108E+01  0.10566000000E+00 0.  1.
        -14    1    4    4    0    0  0.32460514136E+01 -0.84769679859E+01  0.48592366847E+00  0.90902121991E+01  0.00000000000E+00 0.  1.
<mgrwt>
<rscale>  0 0.82907826E+02</rscale>
<asrwt>0</asrwt>
<pdfrwt beam="1">  1        2 0.29569174E-02 0.82907826E+02</pdfrwt>
<pdfrwt beam="2">  1       -1 0.13755144E-01 0.82907826E+02</pdfrwt>
<totfact> 0.11107829E+05</totfact>
</mgrwt>
</event>
<event>
 8    1  0.2561077E-016  0.8074513E+02  0.7818608E-02  0.1326950E+00
          2   -1    0    0  501    0  0.00000000000E+00  0.00000000000E+00  0.22288946413E+03  0.22288946414E+03  0.25500000000E-02 0. -1.
         -1   -1    0    0    0  501 -0.00000000000E+00 -0.00000000000E+00 -0.73127896153E+01  0.73127913521E+01  0.50400000000E-02 0.  1.
         24    2    1    2    0    0  0.00000000000E+00 -0.17763568394E-14  0.21557667451E+03  0.23020225549E+03  0.80745128899E+02 0.  0.
         66    2    3    3    0    0  0.29473879100E+02 -0.10476852767E+02  0.18051022127E+03  0.18321139149E+03  0.19999986941E+01 0.  0.
        -13    1    3    3    0    0 -0.29473879100E+02  0.10476852767E+02  0.35066453244E+02  0.46990864008E+02  0.10566000000E+00 0.  1.
         13    1    4    4    0    0  0.16279520921E+01 -0.49858665260E+00  0.11139797277E+02  0.11269652349E+02  0.10566000000E+00 0. -1.
        -13    1    4    4    0    0  0.51355131673E+01 -0.21507568260E+01  0.28754061954E+02  0.29288333741E+02  0.10566000000E+00 0.  1.
        -14    1    4    4    0    0  0.22710413841E+02 -0.78275092884E+01  0.14061636204E+03  0.14265340540E+03  0.00000000000E+00 0.  1.
<mgrwt>
<rscale>  0 0.80745129E+02</rscale>
<asrwt>0</asrwt>
<pdfrwt beam="1">  1        2 0.34290691E-01 0.80745129E+02</pdfrwt>
<pdfrwt beam="2">  1       -1 0.11250446E-02 0.80745129E+02</pdfrwt>
<totfact> 0.22359612E+05</totfact>
</mgrwt>
</event>
<event>
 8    1  0.2561077E-016  0.8047246E+02  0.7818608E-02  0.1327716E+00
          2   -1    0    0  501    0  0.00000000000E+00  0.00000000000E+00  0.24125531976E+03  0.24125531977E+03  0.25500000000E-02 0. -1.
         -1   -1    0    0    0  501 -0.00000000000E+00 -0.00000000000E+00 -0.67105416918E+01  0.67105435845E+01  0.50400000000E-02 0.  1.
         24    2    1    2    0    0  0.00000000000E+00  0.00000000000E+00  0.23454477806E+03  0.24796586335E+03  0.80472457846E+02 0.  0.
         66    2    3    3    0    0  0.38662943629E+02 -0.43891651819E+01  0.14859608763E+03  0.15361928667E+03  0.19999990508E+01 0.  0.
        -13    1    3    3    0    0 -0.38662943629E+02  0.43891651819E+01  0.85948690429E+02  0.94346576681E+02  0.10566000000E+00 0.  1.
         13    1    4    4    0    0  0.19608019265E+02 -0.22848988725E+01  0.77527426029E+02  0.80001300821E+02  0.10566000000E+00 0. -1.
        -13    1    4    4    0    0  0.39733541544E+01 -0.71921238763E+00  0.16420058453E+02  0.16909591755E+02  0.10566000000E+00 0.  1.
         14    1    4    4    0    0  0.15081570210E+02 -0.13850539218E+01  0.54648603153E+02  0.56708394096E+02  0.00000000000E+00 0. -1.
<mgrwt>
<rscale>  0 0.80472458E+02</rscale>
<asrwt>0</asrwt>
<pdfrwt beam="1">  1        2 0.37116200E-01 0.80472458E+02</pdfrwt>
<pdfrwt beam="2">  1       -1 0.10323913E-02 0.80472458E+02</pdfrwt>
<totfact> 0.23204076E+05</totfact>
</mgrwt>
</event>
<event>
 8    1  0.2561077E-016  0.8974249E+02  0.7818608E-02  0.1303476E+00
         -1   -1    0    0    0  501 -0.00000000000E+00  0.00000000000E+00  0.25780024667E+01  0.25780073933E+01  0.50400000000E-02 0.  1.
          2   -1    0    0  501    0  0.00000000000E+00 -0.00000000000E+00 -0.78100265245E+03  0.78100265246E+03  0.25500000000E-02 0. -1.
         24    2    1    2    0    0  0.35527136788E-14  0.00000000000E+00 -0.77842464999E+03  0.78358065985E+03  0.89742491527E+02 0.  0.
         66    2    3    3    0    0  0.23102693172E+02  0.31457265147E+02 -0.58231439877E+03  0.58362432522E+03  0.20000030920E+01 0.  0.
        -13    1    3    3    0    0 -0.23102693172E+02 -0.31457265147E+02 -0.19611025122E+03  0.19995633463E+03  0.10566000000E+00 0.  1.
         13    1    4    4    0    0  0.10408538505E+01  0.17909715503E+01 -0.30396094553E+02  0.30466780006E+02  0.10566000000E+00 0.  1.
        -13    1    4    4    0    0  0.12716564630E+02  0.18423602473E+02 -0.33308615000E+03  0.33383758721E+03  0.10566000000E+00 0. -1.
         14    1    4    4    0    0  0.93452746915E+01  0.11242691124E+02 -0.21883215421E+03  0.21931995800E+03  0.00000000000E+00 0. -1.
<mgrwt>
<rscale>  0 0.89742492E+02</rscale>
<asrwt>0</asrwt>
<pdfrwt beam="1">  1        2 0.12015407E+00 0.89742492E+02</pdfrwt>
<pdfrwt beam="2">  1       -1 0.39661677E-03 0.89742492E+02</pdfrwt>
<totfact> 0.25343323E+05</totfact>
</mgrwt>
</event>
<event>
 8    1  0.2561077E-016  0.8259783E+02  0.7818608E-02  0.1321837E+00
          2   -1    0    0  501    0  0.00000000000E+00  0.00000000000E+00  0.48851780525E+02  0.48851780592E+02  0.25500000000E-02 0. -1.
         -1   -1    0    0    0  501 -0.00000000000E+00 -0.00000000000E+00 -0.34913776871E+02  0.34913777235E+02  0.50400000000E-02 0.  1.
         24    2    1    2    0    0  0.00000000000E+00 -0.22204460493E-15  0.13938003654E+02  0.83765557827E+02  0.82597825227E+02 0.  0.
         66    2    3    3    0    0  0.33523125509E+02  0.13344533135E+01  0.31354902444E+02  0.45964231964E+02  0.20000007961E+01 0.  0.
        -13    1    3    3    0    0 -0.33523125509E+02 -0.13344533135E+01 -0.17416898790E+02  0.37801325864E+02  0.10566000000E+00 0.  1.
         13    1    4    4    0    0  0.10132234721E+02  0.10955967012E+01  0.10096542636E+02  0.14346213780E+02  0.10566000000E+00 0. -1.
        -13    1    4    4    0    0  0.15812798605E+01  0.17069828544E+00  0.15236457426E+01  0.22050497242E+01  0.10566000000E+00 0. -1.
         14    1    4    4    0    0  0.21809610928E+02  0.68158326866E-01  0.19734714065E+02  0.29412968460E+02  0.00000000000E+00 0. -1.
<mgrwt>
<rscale>  0 0.82597825E+02</rscale>
<asrwt>0</asrwt>
<pdfrwt beam="1">  1        2 0.75156585E-02 0.82597825E+02</pdfrwt>
<pdfrwt beam="2">  1       -1 0.53713504E-02 0.82597825E+02</pdfrwt>
<totfact> 0.13617889E+05</totfact>
</mgrwt>
</event>
<event>
 8    1  0.2561077E-016  0.7721303E+02  0.7818608E-02  0.1337152E+00
          2   -1    0    0  501    0  0.00000000000E+00  0.00000000000E+00  0.86254050411E+02  0.86254050449E+02  0.25500000000E-02 0. -1.
         -1   -1    0    0    0  501 -0.00000000000E+00 -0.00000000000E+00 -0.17279917659E+02  0.17279918394E+02  0.50400000000E-02 0.  1.
         24    2    1    2    0    0  0.44408920985E-15 -0.17763568394E-14  0.68974132752E+02  0.10353396884E+03  0.77213028145E+02 0.  0.
         66    2    3    3    0    0  0.33468915675E+01 -0.10665218523E+02  0.84023381066E+02  0.84787246245E+02  0.19999977004E+01 0.  0.
        -13    1    3    3    0    0 -0.33468915675E+01  0.10665218523E+02 -0.15049248313E+02  0.18746722597E+02  0.10566000000E+00 0.  1.
         13    1    4    4    0    0  0.20266710505E+01 -0.48833570582E+01  0.35009843266E+02  0.35406988876E+02  0.10566000000E+00 0. -1.
        -13    1    4    4    0    0  0.91854826274E+00 -0.40680242997E+01  0.30663766726E+02  0.30946248666E+02  0.10566000000E+00 0.  1.
        -14    1    4    4    0    0  0.40167225429E+00 -0.17138371651E+01  0.18349771074E+02  0.18434008704E+02  0.00000000000E+00 0.  1.
<mgrwt>
<rscale>  0 0.77213028E+02</rscale>
<asrwt>0</asrwt>
<pdfrwt beam="1">  1        2 0.13269854E-01 0.77213028E+02</pdfrwt>
<pdfrwt beam="2">  1       -1 0.26584489E-02 0.77213028E+02</pdfrwt>
<totfact> 0.18726374E+05</totfact>
</mgrwt>
</event>
<event>
 8    1  0.2561077E-016  0.8045757E+02  0.7818608E-02  0.1327758E+00
         -1   -1    0    0    0  501 -0.00000000000E+00  0.00000000000E+00  0.32601746922E+01  0.32601785880E+01  0.50400000000E-02 0.  1.
          2   -1    0    0  501    0  0.00000000000E+00 -0.00000000000E+00 -0.49640110024E+03  0.49640110024E+03  0.25500000000E-02 0. -1.
         24    2    1    2    0    0  0.00000000000E+00  0.88817841970E-15 -0.49314092555E+03  0.49966127883E+03  0.80457573394E+02 0.  0.
         66    2    3    3    0    0 -0.29031120192E+02 -0.72551777598E+01 -0.41346566684E+03  0.41455192824E+03  0.20000026826E+01 0.  0.
        -13    1    3    3    0    0  0.29031120192E+02  0.72551777598E+01 -0.79675258708E+02  0.85109350591E+02  0.10566000000E+00 0.  1.
         13    1    4    4    0    0 -0.18308478039E+02 -0.46883605783E+01 -0.24818421230E+03  0.24890278322E+03  0.10566000000E+00 0. -1.
        -13    1    4    4    0    0 -0.15749494195E+01 -0.45000740502E+00 -0.24800195735E+02  0.24854453220E+02  0.10566000000E+00 0.  1.
         14    1    4    4    0    0 -0.91476927327E+01 -0.21168097765E+01 -0.14048125880E+03  0.14079469181E+03  0.00000000000E+00 0. -1.
<mgrwt>
<rscale>  0 0.80457573E+02</rscale>
<asrwt>0</asrwt>
<pdfrwt beam="1">  1        2 0.76369340E-01 0.80457573E+02</pdfrwt>
<pdfrwt beam="2">  1       -1 0.50156603E-03 0.80457573E+02</pdfrwt>
<totfact> 0.29932767E+05</totfact>
</mgrwt>
</event>
<event>
 8    1  0.2561077E-016  0.7985242E+02  0.7818608E-02  0.1329471E+00
          2   -1    0    0  501    0  0.00000000000E+00  0.00000000000E+00  0.39640364454E+02  0.39640364536E+02  0.25500000000E-02 0. -1.
         -1   -1    0    0    0  501 -0.00000000000E+00 -0.00000000000E+00 -0.40214115977E+02  0.40214116293E+02  0.50400000000E-02 0.  1.
         24    2    1    2    0    0  0.00000000000E+00  0.00000000000E+00 -0.57375152310E+00  0.79854480829E+02  0.79852419610E+02 0.  0.
         66    2    3    3    0    0  0.11498957661E+01 -0.35335603835E+02 -0.18785373527E+02  0.40085127066E+02  0.19999986784E+01 0.  0.
        -13    1    3    3    0    0 -0.11498957661E+01  0.35335603835E+02  0.18211622003E+02  0.39769353763E+02  0.10566000000E+00 0.  1.
         13    1    4    4    0    0  0.14124678859E+00 -0.15349358404E+02 -0.78834711414E+01  0.17256391145E+02  0.10566000000E+00 0. -1.
        -13    1    4    4    0    0  0.71844619342E+00 -0.19272529154E+02 -0.10520569478E+02  0.21969071239E+02  0.10566000000E+00 0.  1.
        -14    1    4    4    0    0  0.29020278409E+00 -0.71371627733E+00 -0.38133290670E+00  0.85966468239E+00  0.00000000000E+00 0.  1.
<mgrwt>
<rscale>  0 0.79852420E+02</rscale>
<asrwt>0</asrwt>
<pdfrwt beam="1">  1        2 0.60985176E-02 0.79852420E+02</pdfrwt>
<pdfrwt beam="2">  1       -1 0.61867871E-02 0.79852420E+02</pdfrwt>
<totfact> 0.14301669E+05</totfact>
</mgrwt>
</event>
<event>
 8    1  0.2561077E-016  0.7972511E+02  0.7818608E-02  0.1329833E+00
          2   -1    0    0  501    0  0.00000000000E+00  0.00000000000E+00  0.12090397925E+03  0.12090397928E+03  0.25500000000E-02 0. -1.
         -1   -1    0    0    0  501 -0.00000000000E+00 -0.00000000000E+00 -0.13142853400E+02  0.13142854367E+02  0.50400000000E-02 0.  1.
         24    2    1    2    0    0  0.00000000000E+00  0.00000000000E+00  0.10776112585E+03  0.13404683364E+03  0.79725111260E+02 0.  0.
         66    2    3    3    0    0  0.20396826000E+02 -0.21115746659E+02  0.99189985879E+02  0.10346283665E+03  0.20000001633E+01 0.  0.
        -13    1    3    3    0    0 -0.20396826000E+02  0.21115746659E+02  0.85711399712E+01  0.30583996996E+02  0.10566000000E+00 0.  1.
         13    1    4    4    0    0  0.15613851471E+02 -0.16424532428E+02  0.76813198709E+02  0.80086430082E+02  0.10566000000E+00 0. -1.
        -13    1    4    4    0    0  0.19190212391E+01 -0.14722859006E+01  0.91921083684E+01  0.95055924898E+01  0.10566000000E+00 0.  1.
         14    1    4    4    0    0  0.28639532900E+01 -0.32189283301E+01  0.13184678802E+02  0.13870814076E+02  0.00000000000E+00 0. -1.
<mgrwt>
<rscale>  0 0.79725111E+02</rscale>
<asrwt>0</asrwt>
<pdfrwt beam="1">  1        2 0.18600612E-01 0.79725111E+02</pdfrwt>
<pdfrwt beam="2">  1       -1 0.20219776E-02 0.79725111E+02</pdfrwt>
<totfact> 0.18901243E+05</totfact>
</mgrwt>
</event>
<event>
 8    1  0.2561077E-016  0.8006733E+02  0.7818608E-02  0.1328860E+00
          2   -1    0    0  501    0  0.00000000000E+00  0.00000000000E+00  0.16945295405E+03  0.16945295407E+03  0.25500000000E-02 0. -1.
         -1   -1    0    0    0  501 -0.00000000000E+00 -0.00000000000E+00 -0.94580471410E+01  0.94580484839E+01  0.50400000000E-02 0.  1.
         24    2    1    2    0    0  0.00000000000E+00 -0.35527136788E-14  0.15999490691E+03  0.17891100255E+03  0.80067325406E+02 0.  0.
         66    2    3    3    0    0 -0.46937914500E+01  0.26523127958E+02  0.14615168154E+03  0.14862645125E+03  0.19999999956E+01 0.  0.
        -13    1    3    3    0    0  0.46937914500E+01 -0.26523127958E+02  0.13843225369E+02  0.30284551301E+02  0.10566000000E+00 0.  1.
         13    1    4    4    0    0 -0.21637311039E+01  0.10556815220E+02  0.61142834639E+02  0.62085308017E+02  0.10566000000E+00 0. -1.
        -13    1    4    4    0    0 -0.25554660192E+01  0.15847206155E+02  0.83609175667E+02  0.85136183666E+02  0.10566000000E+00 0.  1.
        -14    1    4    4    0    0  0.25405673093E-01  0.11910658367E+00  0.13996712332E+01  0.14049595679E+01  0.00000000000E+00 0.  1.
<mgrwt>
<rscale>  0 0.80067325E+02</rscale>
<asrwt>0</asrwt>
<pdfrwt beam="1">  1        2 0.26069685E-01 0.80067325E+02</pdfrwt>
<pdfrwt beam="2">  1       -1 0.14550843E-02 0.80067325E+02</pdfrwt>
<totfact> 0.20800545E+05</totfact>
</mgrwt>
</event>
<event>
 8    1  0.2561077E-016  0.7638588E+02  0.7818608E-02  0.1339632E+00
          2   -1    0    0  501    0  0.00000000000E+00  0.00000000000E+00  0.97007315119E+03  0.97007315120E+03  0.25500000000E-02 0. -1.
         -1   -1    0    0    0  501 -0.00000000000E+00 -0.00000000000E+00 -0.15036974168E+01  0.15037058631E+01  0.50400000000E-02 0.  1.
         24    2    1    2    0    0  0.00000000000E+00  0.00000000000E+00  0.96856945378E+03  0.97157685706E+03  0.76385878179E+02 0.  0.
         66    2    3    3    0    0 -0.56107016643E+01  0.12960786401E+02  0.93561118385E+03  0.93571990965E+03  0.20000010031E+01 0.  0.
        -13    1    3    3    0    0  0.56107016643E+01 -0.12960786401E+02  0.32958269927E+02  0.35856947415E+02  0.10566000000E+00 0.  1.
         13    1    4    4    0    0 -0.44990867323E+00  0.85541159739E+00  0.51762422654E+02  0.51771553095E+02  0.10566000000E+00 0. -1.
        -13    1    4    4    0    0 -0.31715125140E+01  0.92748418035E+01  0.66532544235E+03  0.66539765298E+03  0.10566000000E+00 0.  1.
        -14    1    4    4    0    0 -0.19892804771E+01  0.28305330003E+01  0.21852331884E+03  0.21855070357E+03  0.00000000000E+00 0.  1.
<mgrwt>
<rscale>  0 0.76385878E+02</rscale>
<asrwt>0</asrwt>
<pdfrwt beam="1">  1        2 0.14924220E+00 0.76385878E+02</pdfrwt>
<pdfrwt beam="2">  1       -1 0.23133844E-03 0.76385878E+02</pdfrwt>
<totfact> 0.39649372E+05</totfact>
</mgrwt>
</event>
<event>
 8    1  0.2561077E-016  0.8074608E+02  0.7818608E-02  0.1326947E+00
         -1   -1    0    0    0  501 -0.00000000000E+00  0.00000000000E+00  0.55233110035E+01  0.55233133030E+01  0.50400000000E-02 0.  1.
          2   -1    0    0  501    0  0.00000000000E+00 -0.00000000000E+00 -0.29510959558E+03  0.29510959559E+03  0.25500000000E-02 0. -1.
         24    2    1    2    0    0 -0.22204460493E-15 -0.35527136788E-14 -0.28958628458E+03  0.30063290889E+03  0.80746081610E+02 0.  0.
         66    2    3    3    0    0 -0.19071753637E+01 -0.22948964953E+02 -0.26823592957E+03  0.26923002474E+03  0.19999995813E+01 0.  0.
        -13    1    3    3    0    0  0.19071753637E+01  0.22948964953E+02 -0.21350355005E+02  0.31402884154E+02  0.10566000000E+00 0.  1.
         13    1    4    4    0    0 -0.11615059438E+01 -0.11890632008E+02 -0.13231845447E+03  0.13285676793E+03  0.10566000000E+00 0. -1.
        -13    1    4    4    0    0 -0.59689213694E+00 -0.24048219800E+01 -0.28539845168E+02  0.28647397356E+02  0.10566000000E+00 0.  1.
        -14    1    4    4    0    0 -0.14877728295E+00 -0.86535109656E+01 -0.10737762993E+03  0.10772585946E+03  0.00000000000E+00 0.  1.
<mgrwt>
<rscale>  0 0.80746082E+02</rscale>
<asrwt>0</asrwt>
<pdfrwt beam="1">  1        2 0.45401464E-01 0.80746082E+02</pdfrwt>
<pdfrwt beam="2">  1       -1 0.84974056E-03 0.80746082E+02</pdfrwt>
<totfact> 0.24733433E+05</totfact>
</mgrwt>
</event>
<event>
 8    1  0.2561077E-016  0.7554605E+02  0.7818608E-02  0.1342188E+00
         -1   -1    0    0    0  501 -0.00000000000E+00  0.00000000000E+00  0.21110591140E+01  0.21110651303E+01  0.50400000000E-02 0.  1.
          2   -1    0    0  501    0  0.00000000000E+00 -0.00000000000E+00 -0.67586897924E+03  0.67586897925E+03  0.25500000000E-02 0. -1.
         24    2    1    2    0    0  0.44408920985E-15  0.35527136788E-14 -0.67375792013E+03  0.67798004438E+03  0.75546049786E+02 0.  0.
         66    2    3    3    0    0 -0.38447577484E+01 -0.19787938882E+02 -0.62351598120E+03  0.62384495152E+03  0.20000094872E+01 0.  0.
        -13    1    3    3    0    0  0.38447577484E+01  0.19787938882E+02 -0.50241938928E+02  0.54135092857E+02  0.10566000000E+00 0.  1.
         13    1    4    4    0    0 -0.48015348909E+00 -0.39613179595E+01 -0.13152641327E+03  0.13158697177E+03  0.10566000000E+00 0. -1.
        -13    1    4    4    0    0 -0.43394264452E-01 -0.15484658912E+00 -0.11061864567E+02  0.11063537963E+02  0.10566000000E+00 0. -1.
         14    1    4    4    0    0 -0.33212099948E+01 -0.15671774334E+02 -0.48092770337E+03  0.48119444179E+03  0.00000000000E+00 0. -1.
<mgrwt>
<rscale>  0 0.75546050E+02</rscale>
<asrwt>0</asrwt>
<pdfrwt beam="1">  1        2 0.10397967E+00 0.75546050E+02</pdfrwt>
<pdfrwt beam="2">  1       -1 0.32477933E-03 0.75546050E+02</pdfrwt>
<totfact> 0.38488745E+05</totfact>
</mgrwt>
</event>
<event>
 8    1  0.2561077E-016  0.8094776E+02  0.7818608E-02  0.1326383E+00
          2   -1    0    0  501    0  0.00000000000E+00  0.00000000000E+00  0.29155711691E+03  0.29155711692E+03  0.25500000000E-02 0. -1.
         -1   -1    0    0    0  501 -0.00000000000E+00 -0.00000000000E+00 -0.56185722616E+01  0.56185745221E+01  0.50400000000E-02 0.  1.
         24    2    1    2    0    0  0.00000000000E+00  0.17763568394E-14  0.28593854465E+03  0.29717569145E+03  0.80947762595E+02 0.  0.
         66    2    3    3    0    0  0.21887352497E+02  0.14727714401E+02  0.25562334256E+03  0.25698882279E+03  0.20000011966E+01 0.  0.
        -13    1    3    3    0    0 -0.21887352497E+02 -0.14727714401E+02  0.30315202090E+02  0.40186868659E+02  0.10566000000E+00 0.  1.
         13    1    4    4    0    0  0.11177473585E+02  0.77708637159E+01  0.13487136884E+03  0.13555670229E+03  0.10566000000E+00 0. -1.
        -13    1    4    4    0    0  0.56171234546E+01  0.41681834635E+01  0.70261368003E+02  0.70608758855E+02  0.10566000000E+00 0.  1.
        -14    1    4    4    0    0  0.50927554567E+01  0.27886672217E+01  0.50490605720E+02  0.50823361646E+02  0.00000000000E+00 0.  1.
<mgrwt>
<rscale>  0 0.80947763E+02</rscale>
<asrwt>0</asrwt>
<pdfrwt beam="1">  1        2 0.44854934E-01 0.80947763E+02</pdfrwt>
<pdfrwt beam="2">  1       -1 0.86439604E-03 0.80947763E+02</pdfrwt>
<totfact> 0.24464297E+05</totfact>
</mgrwt>
</event>
<event>
 8    1  0.2561077E-016  0.7346949E+02  0.7818608E-02  0.1348677E+00
          2   -1    0    0  501    0  0.00000000000E+00  0.00000000000E+00  0.32498660992E+03  0.32498660993E+03  0.25500000000E-02 0. -1.
         -1   -1    0    0    0  501 -0.00000000000E+00 -0.00000000000E+00 -0.41522969708E+01  0.41523000296E+01  0.50400000000E-02 0.  1.
         24    2    1    2    0    0  0.17763568394E-14  0.35527136788E-14  0.32083431295E+03  0.32913890996E+03  0.73469488114E+02 0.  0.
         66    2    3    3    0    0  0.86249861503E+01  0.25860180105E+02  0.27066364495E+03  0.27204034261E+03  0.20000029361E+01 0.  0.
        -13    1    3    3    0    0 -0.86249861503E+01 -0.25860180105E+02  0.50170667999E+02  0.57098567343E+02  0.10566000000E+00 0.  1.
         13    1    4    4    0    0  0.12726151750E+01  0.34243746624E+01  0.35163167419E+02  0.35352586867E+02  0.10566000000E+00 0. -1.
        -13    1    4    4    0    0  0.22792981854E+01  0.53698173127E+01  0.52474910345E+02  0.52798271922E+02  0.10566000000E+00 0.  1.
         14    1    4    4    0    0  0.50730727899E+01  0.17065988130E+02  0.18302556718E+03  0.18388948383E+03  0.00000000000E+00 0. -1.
<mgrwt>
<rscale>  0 0.73469488E+02</rscale>
<asrwt>0</asrwt>
<pdfrwt beam="1">  1        2 0.49997942E-01 0.73469488E+02</pdfrwt>
<pdfrwt beam="2">  1       -1 0.63881514E-03 0.73469488E+02</pdfrwt>
<totfact> 0.32764882E+05</totfact>
</mgrwt>
</event>
<event>
 8    1  0.2561077E-016  0.7942908E+02  0.7818608E-02  0.1330679E+00
         -1   -1    0    0    0  501 -0.00000000000E+00  0.00000000000E+00  0.53482477849E+01  0.53482501597E+01  0.50400000000E-02 0.  1.
          2   -1    0    0  501    0  0.00000000000E+00 -0.00000000000E+00 -0.29490862868E+03  0.29490862870E+03  0.25500000000E-02 0. -1.
         24    2    1    2    0    0  0.00000000000E+00  0.00000000000E+00 -0.28956038090E+03  0.30025687886E+03  0.79429082288E+02 0.  0.
         66    2    3    3    0    0 -0.28059707449E+01 -0.10450591768E+02 -0.28922104777E+03  0.28943030732E+03  0.19999965823E+01 0.  0.
        -13    1    3    3    0    0  0.28059707449E+01  0.10450591768E+02 -0.33933313374E+00  0.10826571532E+02  0.10566000000E+00 0.  1.
         13    1    4    4    0    0 -0.64278372520E+00 -0.21073264701E+01 -0.49247199976E+02  0.49296570522E+02  0.10566000000E+00 0. -1.
        -13    1    4    4    0    0 -0.14356568703E+01 -0.38441617205E+01 -0.13184088677E+03  0.13190477352E+03  0.10566000000E+00 0.  1.
        -14    1    4    4    0    0 -0.72753014945E+00 -0.44991035776E+01 -0.10813296102E+03  0.10822896328E+03  0.00000000000E+00 0.  1.
<mgrwt>
<rscale>  0 0.79429082E+02</rscale>
<asrwt>0</asrwt>
<pdfrwt beam="1">  1        2 0.45370546E-01 0.79429082E+02</pdfrwt>
<pdfrwt beam="2">  1       -1 0.82280777E-03 0.79429082E+02</pdfrwt>
<totfact> 0.25817141E+05</totfact>
</mgrwt>
</event>
<event>
 8    1  0.2561077E-016  0.8105799E+02  0.7818608E-02  0.1326076E+00
         -1   -1    0    0    0  501 -0.00000000000E+00  0.00000000000E+00  0.17336303129E+01  0.17336376391E+01  0.50400000000E-02 0.  1.
          2   -1    0    0  501    0  0.00000000000E+00 -0.00000000000E+00 -0.94748918672E+03  0.94748918673E+03  0.25500000000E-02 0. -1.
         24    2    1    2    0    0  0.00000000000E+00  0.00000000000E+00 -0.94575555641E+03  0.94922282437E+03  0.81057990451E+02 0.  0.
         66    2    3    3    0    0  0.23766084596E+02  0.36677060674E+01 -0.85484461454E+03  0.85518512256E+03  0.19999995623E+01 0.  0.
        -13    1    3    3    0    0 -0.23766084596E+02 -0.36677060674E+01 -0.90910941875E+02  0.94037701809E+02  0.10566000000E+00 0.  1.
         13    1    4    4    0    0  0.17522063158E+02  0.28502605265E+01 -0.60831502244E+03  0.60857400896E+03  0.10566000000E+00 0. -1.
        -13    1    4    4    0    0  0.24610326321E+01 -0.37578866230E-02 -0.90661243718E+02  0.90694702008E+02  0.10566000000E+00 0.  1.
         14    1    4    4    0    0  0.37829888053E+01  0.82120342761E+00 -0.15586834837E+03  0.15591641159E+03  0.00000000000E+00 0. -1.
<mgrwt>
<rscale>  0 0.81057990E+02</rscale>
<asrwt>0</asrwt>
<pdfrwt beam="1">  1        2 0.14576715E+00 0.81057990E+02</pdfrwt>
<pdfrwt beam="2">  1       -1 0.26671368E-03 0.81057990E+02</pdfrwt>
<totfact> 0.33938167E+05</totfact>
</mgrwt>
</event>
<event>
 8    1  0.2561077E-016  0.7956914E+02  0.7818608E-02  0.1330279E+00
         -1   -1    0    0    0  501 -0.00000000000E+00  0.00000000000E+00  0.13184610448E+03  0.13184610458E+03  0.50400000000E-02 0.  1.
          2   -1    0    0  501    0  0.00000000000E+00 -0.00000000000E+00 -0.12004995462E+02  0.12004995732E+02  0.25500000000E-02 0. -1.
         24    2    1    2    0    0  0.00000000000E+00  0.00000000000E+00  0.11984110902E+03  0.14385110031E+03  0.79569137544E+02 0.  0.
         66    2    3    3    0    0 -0.28011886052E+01 -0.38156956173E+02  0.40402556721E+02  0.55679139249E+02  0.19999989963E+01 0.  0.
        -13    1    3    3    0    0  0.28011886052E+01  0.38156956173E+02  0.79438552302E+02  0.88171961063E+02  0.10566000000E+00 0.  1.
         13    1    4    4    0    0 -0.60951256459E+00 -0.14324734484E+02  0.15210655467E+02  0.20903222894E+02  0.10566000000E+00 0. -1.
        -13    1    4    4    0    0 -0.19501814238E+01 -0.19182015339E+02  0.19514457623E+02  0.27433157682E+02  0.10566000000E+00 0.  1.
        -14    1    4    4    0    0 -0.24149461681E+00 -0.46502063500E+01  0.56774436313E+01  0.73427586733E+01  0.00000000000E+00 0.  1.
<mgrwt>
<rscale>  0 0.79569138E+02</rscale>
<asrwt>0</asrwt>
<pdfrwt beam="1">  1        2 0.18469224E-02 0.79569138E+02</pdfrwt>
<pdfrwt beam="2">  1       -1 0.20284016E-01 0.79569138E+02</pdfrwt>
<totfact> 0.11288685E+05</totfact>
</mgrwt>
</event>
<event>
 8    1  0.2561077E-016  0.7988180E+02  0.7818608E-02  0.1329387E+00
         -1   -1    0    0    0  501 -0.00000000000E+00  0.00000000000E+00  0.40173577090E+01  0.40173608705E+01  0.50400000000E-02 0.  1.
          2   -1    0    0  501    0  0.00000000000E+00 -0.00000000000E+00 -0.39709554512E+03  0.39709554513E+03  0.25500000000E-02 0. -1.
         24    2    1    2    0    0 -0.44408920985E-15  0.00000000000E+00 -0.39307818741E+03  0.40111290600E+03  0.79881799807E+02 0.  0.
         66    2    3    3    0    0 -0.34678815184E+01  0.16626412619E+02 -0.37804299073E+03  0.37842960593E+03  0.20000013148E+01 0.  0.
        -13    1    3    3    0    0  0.34678815184E+01 -0.16626412619E+02 -0.15035196686E+02  0.22683300073E+02  0.10566000000E+00 0.  1.
         13    1    4    4    0    0 -0.19667960077E+01  0.96214807618E+01 -0.23231632442E+03  0.23252382014E+03  0.10566000000E+00 0. -1.
        -13    1    4    4    0    0 -0.92566257149E+00  0.52755564056E+01 -0.10096028828E+03  0.10110232104E+03  0.10566000000E+00 0.  1.
        -14    1    4    4    0    0 -0.57542293926E+00  0.17293754519E+01 -0.44766378030E+02  0.44803464742E+02  0.00000000000E+00 0.  1.
<mgrwt>
<rscale>  0 0.79881800E+02</rscale>
<asrwt>0</asrwt>
<pdfrwt beam="1">  1        2 0.61091591E-01 0.79881800E+02</pdfrwt>
<pdfrwt beam="2">  1       -1 0.61805559E-03 0.79881800E+02</pdfrwt>
<totfact> 0.28290721E+05</totfact>
</mgrwt>
</event>
<event>
 8    1  0.2561077E-016  0.8040657E+02  0.7818608E-02  0.1327902E+00
          2   -1    0    0  501    0  0.00000000000E+00  0.00000000000E+00  0.23051323867E+03  0.23051323869E+03  0.25500000000E-02 0. -1.
         -1   -1    0    0    0  501 -0.00000000000E+00 -0.00000000000E+00 -0.70117623198E+01  0.70117641312E+01  0.50400000000E-02 0.  1.
         24    2    1    2    0    0  0.00000000000E+00  0.00000000000E+00  0.22350147636E+03  0.23752500282E+03  0.80406573312E+02 0.  0.
         66    2    3    3    0    0 -0.33062713519E+01 -0.27793725830E+02  0.19696996066E+03  0.19895875962E+03  0.19999998453E+01 0.  0.
        -13    1    3    3    0    0  0.33062713519E+01  0.27793725830E+02  0.26531515692E+02  0.38566243202E+02  0.10566000000E+00 0.  1.
         13    1    4    4    0    0 -0.82329425916E+00 -0.61387035863E+01  0.48102828256E+02  0.48500048921E+02  0.10566000000E+00 0. -1.
        -13    1    4    4    0    0 -0.46322727744E+00 -0.16836385380E+01  0.11178704318E+02  0.11314760824E+02  0.10566000000E+00 0. -1.
         14    1    4    4    0    0 -0.20197498153E+01 -0.19971383706E+02  0.13768842809E+03  0.13914394987E+03  0.00000000000E+00 0. -1.
<mgrwt>
<rscale>  0 0.80406573E+02</rscale>
<asrwt>0</asrwt>
<pdfrwt beam="1">  1        2 0.35463578E-01 0.80406573E+02</pdfrwt>
<pdfrwt beam="2">  1       -1 0.10787327E-02 0.80406573E+02</pdfrwt>
<totfact> 0.22879829E+05</totfact>
</mgrwt>
</event>
<event>
 8    1  0.2561077E-016  0.7848595E+02  0.7818608E-02  0.1333404E+00
         -1   -1    0    0    0  501 -0.00000000000E+00  0.00000000000E+00  0.77524243629E+02  0.77524243793E+02  0.50400000000E-02 0.  1.
          2   -1    0    0  501    0  0.00000000000E+00 -0.00000000000E+00 -0.19864896115E+02  0.19864896279E+02  0.25500000000E-02 0. -1.
         24    2    1    2    0    0  0.00000000000E+00  0.00000000000E+00  0.57659347514E+02  0.97389140072E+02  0.78485949368E+02 0.  0.
         66    2    3    3    0    0 -0.37113220812E+02 -0.11509636454E+02  0.35431065863E+02  0.52623410327E+02  0.19999989746E+01 0.  0.
        -13    1    3    3    0    0  0.37113220812E+02  0.11509636454E+02  0.22228281651E+02  0.44765729745E+02  0.10566000000E+00 0.  1.
         13    1    4    4    0    0 -0.23766627388E+02 -0.69705454479E+01  0.22342983356E+02  0.33356575821E+02  0.10566000000E+00 0.  1.
        -13    1    4    4    0    0 -0.10989662640E+02 -0.35989418164E+01  0.11247838321E+02  0.16132268845E+02  0.10566000000E+00 0. -1.
        -14    1    4    4    0    0 -0.23569307841E+01 -0.94014919016E+00  0.18402441861E+01  0.31345656613E+01  0.00000000000E+00 0.  1.
<mgrwt>
<rscale>  0 0.78485949E+02</rscale>
<asrwt>0</asrwt>
<pdfrwt beam="1">  1        2 0.30561378E-02 0.78485949E+02</pdfrwt>
<pdfrwt beam="2">  1       -1 0.11926807E-01 0.78485949E+02</pdfrwt>
<totfact> 0.13097090E+05</totfact>
</mgrwt>
</event>
<event>
 8    1  0.2561077E-016  0.7886684E+02  0.7818608E-02  0.1332298E+00
          2   -1    0    0  501    0  0.00000000000E+00  0.00000000000E+00  0.88311390123E+02  0.88311390160E+02  0.25500000000E-02 0. -1.
         -1   -1    0    0    0  501 -0.00000000000E+00 -0.00000000000E+00 -0.17608085441E+02  0.17608086163E+02  0.50400000000E-02 0.  1.
         24    2    1    2    0    0 -0.35527136788E-14 -0.35527136788E-14  0.70703304681E+02  0.10591947632E+03  0.78866838225E+02 0.  0.
         66    2    3    3    0    0  0.12802439987E+02  0.27769632593E+02  0.68759421805E+02  0.75278901774E+02  0.20000003601E+01 0.  0.
        -13    1    3    3    0    0 -0.12802439987E+02 -0.27769632593E+02  0.19438828768E+01  0.30640574548E+02  0.10566000000E+00 0.  1.
         13    1    4    4    0    0  0.56123572904E+01  0.11498895406E+02  0.29730888616E+02  0.32367577170E+02  0.10566000000E+00 0. -1.
        -13    1    4    4    0    0  0.20853953608E+01  0.47940148328E+01  0.10093433554E+02  0.11367498272E+02  0.10566000000E+00 0.  1.
        -14    1    4    4    0    0  0.51046873363E+01  0.11476722354E+02  0.28935099635E+02  0.31543826332E+02  0.00000000000E+00 0.  1.
<mgrwt>
<rscale>  0 0.78866838E+02</rscale>
<asrwt>0</asrwt>
<pdfrwt beam="1">  1        2 0.13586368E-01 0.78866838E+02</pdfrwt>
<pdfrwt beam="2">  1       -1 0.27089363E-02 0.78866838E+02</pdfrwt>
<totfact> 0.17802651E+05</totfact>
</mgrwt>
</event>
<event>
 8    1  0.2561077E-016  0.8011278E+02  0.7818608E-02  0.1328732E+00
          2   -1    0    0  501    0  0.00000000000E+00  0.00000000000E+00  0.19423832728E+04  0.19423832728E+04  0.25500000000E-02 0. -1.
         -1   -1    0    0    0  501 -0.00000000000E+00 -0.00000000000E+00 -0.82604679365E+00  0.82606216891E+00  0.50400000000E-02 0.  1.
         24    2    1    2    0    0  0.44408920985E-15  0.00000000000E+00  0.19415572260E+04  0.19432093350E+04  0.80112780875E+02 0.  0.
         66    2    3    3    0    0  0.38362447640E+01 -0.16598274441E+02  0.18500658856E+04  0.18501453998E+04  0.20000026115E+01 0.  0.
        -13    1    3    3    0    0 -0.38362447640E+01  0.16598274441E+02  0.91491340477E+02  0.93063935199E+02  0.10566000000E+00 0.  1.
         13    1    4    4    0    0  0.33069352505E+01 -0.11229793473E+02  0.12482516647E+04  0.12483065624E+04  0.10566000000E+00 0. -1.
        -13    1    4    4    0    0  0.38302360593E+00 -0.15824862148E+01  0.15684093613E+03  0.15684942263E+03  0.10566000000E+00 0.  1.
        -14    1    4    4    0    0  0.14628590758E+00 -0.37859947525E+01  0.44497328472E+03  0.44498941478E+03  0.00000000000E+00 0.  1.
<mgrwt>
<rscale>  0 0.80112781E+02</rscale>
<asrwt>0</asrwt>
<pdfrwt beam="1">  1        2 0.29882772E+00 0.80112781E+02</pdfrwt>
<pdfrwt beam="2">  1       -1 0.12708551E-03 0.80112781E+02</pdfrwt>
<totfact> 0.28390237E+05</totfact>
</mgrwt>
</event>
<event>
 8    1  0.2561077E-016  0.7633180E+02  0.7818608E-02  0.1339796E+00
          2   -1    0    0  501    0  0.00000000000E+00  0.00000000000E+00  0.32199543648E+03  0.32199543649E+03  0.25500000000E-02 0. -1.
         -1   -1    0    0    0  501 -0.00000000000E+00 -0.00000000000E+00 -0.45237763364E+01  0.45237791440E+01  0.50400000000E-02 0.  1.
         24    2    1    2    0    0  0.17763568394E-14  0.00000000000E+00  0.31747166015E+03  0.32651921564E+03  0.76331796678E+02 0.  0.
         66    2    3    3    0    0 -0.11564177584E+02  0.41195984875E+01  0.31330958682E+03  0.31355637207E+03  0.19999948424E+01 0.  0.
        -13    1    3    3    0    0  0.11564177584E+02 -0.41195984875E+01  0.41620733282E+01  0.12962843566E+02  0.10566000000E+00 0.  1.
         13    1    4    4    0    0 -0.31854887653E+00  0.29523804321E+00  0.94775139627E+01  0.94880490006E+01  0.10566000000E+00 0. -1.
        -13    1    4    4    0    0 -0.77036732408E+00 -0.12559339063E+00  0.18963628683E+02  0.18979979357E+02  0.10566000000E+00 0.  1.
        -14    1    4    4    0    0 -0.10475261383E+02  0.39499538349E+01  0.28486844417E+03  0.28508834371E+03  0.00000000000E+00 0.  1.
<mgrwt>
<rscale>  0 0.76331797E+02</rscale>
<asrwt>0</asrwt>
<pdfrwt beam="1">  1        2 0.49537797E-01 0.76331797E+02</pdfrwt>
<pdfrwt beam="2">  1       -1 0.69596528E-03 0.76331797E+02</pdfrwt>
<totfact> 0.29567894E+05</totfact>
</mgrwt>
</event>
<event>
 8    1  0.2561077E-016  0.7998430E+02  0.7818608E-02  0.1329096E+00
         -1   -1    0    0    0  501 -0.00000000000E+00  0.00000000000E+00  0.44814139328E+01  0.44814167669E+01  0.50400000000E-02 0.  1.
          2   -1    0    0  501    0  0.00000000000E+00 -0.00000000000E+00 -0.35688993922E+03  0.35688993923E+03  0.25500000000E-02 0. -1.
         24    2    1    2    0    0  0.00000000000E+00 -0.17763568394E-14 -0.35240852529E+03  0.36137135600E+03  0.79984299955E+02 0.  0.
         66    2    3    3    0    0  0.14040534118E+02  0.12352859835E+02 -0.33589952805E+03  0.33642565701E+03  0.20000003630E+01 0.  0.
        -13    1    3    3    0    0 -0.14040534118E+02 -0.12352859835E+02 -0.16508997236E+02  0.24945698992E+02  0.10566000000E+00 0.  1.
         13    1    4    4    0    0  0.20312270797E+00  0.95245216754E-01 -0.56315067264E+01  0.56369639462E+01  0.10566000000E+00 0. -1.
        -13    1    4    4    0    0  0.57017318868E+01  0.49331507296E+01 -0.14852521280E+03  0.14871649446E+03  0.10566000000E+00 0. -1.
         14    1    4    4    0    0  0.81356795228E+01  0.73244638885E+01 -0.18174280852E+03  0.18207219860E+03  0.00000000000E+00 0. -1.
<mgrwt>
<rscale>  0 0.79984300E+02</rscale>
<asrwt>0</asrwt>
<pdfrwt beam="1">  1        2 0.54906122E-01 0.79984300E+02</pdfrwt>
<pdfrwt beam="2">  1       -1 0.68944880E-03 0.79984300E+02</pdfrwt>
<totfact> 0.27151479E+05</totfact>
</mgrwt>
</event>
<event>
 8    1  0.2561077E-016  0.8023588E+02  0.7818608E-02  0.1328383E+00
          2   -1    0    0  501    0  0.00000000000E+00  0.00000000000E+00  0.92157005230E+01  0.92157008758E+01  0.25500000000E-02 0. -1.
         -1   -1    0    0    0  501 -0.00000000000E+00 -0.00000000000E+00 -0.17464208304E+03  0.17464208311E+03  0.50400000000E-02 0.  1.
         24    2    1    2    0    0  0.00000000000E+00  0.00000000000E+00 -0.16542638252E+03  0.18385778399E+03  0.80235881628E+02 0.  0.
         66    2    3    3    0    0  0.25952979312E+02  0.17366385346E+02 -0.25144404271E+02  0.40142116577E+02  0.19999954901E+01 0.  0.
        -13    1    3    3    0    0 -0.25952979312E+02 -0.17366385346E+02 -0.14028197825E+03  0.14371566741E+03  0.10566000000E+00 0.  1.
         13    1    4    4    0    0  0.10618341040E+02  0.64668675307E+01 -0.11017691951E+02  0.16612352093E+02  0.10566000000E+00 0. -1.
        -13    1    4    4    0    0  0.10417550083E+02  0.73213924595E+01 -0.93772386592E+01  0.15813662010E+02  0.10566000000E+00 0.  1.
         14    1    4    4    0    0  0.49170881885E+01  0.35781253556E+01 -0.47494736608E+01  0.77161024727E+01  0.00000000000E+00 0. -1.
<mgrwt>
<rscale>  0 0.80235882E+02</rscale>
<asrwt>0</asrwt>
<pdfrwt beam="1">  1        2 0.14178002E-02 0.80235882E+02</pdfrwt>
<pdfrwt beam="2">  1       -1 0.26868011E-01 0.80235882E+02</pdfrwt>
<totfact> 0.10282696E+05</totfact>
</mgrwt>
</event>
<event>
 8    1  0.2561077E-016  0.7649495E+02  0.7818608E-02  0.1339303E+00
         -1   -1    0    0    0  501 -0.00000000000E+00  0.00000000000E+00  0.14063274928E+02  0.14063275831E+02  0.50400000000E-02 0.  1.
          2   -1    0    0  501    0  0.00000000000E+00 -0.00000000000E+00 -0.10402052678E+03  0.10402052681E+03  0.25500000000E-02 0. -1.
         24    2    1    2    0    0  0.00000000000E+00  0.00000000000E+00 -0.89957251850E+02  0.11808380264E+03  0.76494949412E+02 0.  0.
         66    2    3    3    0    0 -0.13272535487E+02 -0.27783596102E+01 -0.10017261454E+03  0.10110604427E+03  0.20000008479E+01 0.  0.
        -13    1    3    3    0    0  0.13272535487E+02  0.27783596102E+01  0.10215362691E+02  0.16977758371E+02  0.10566000000E+00 0.  1.
         13    1    4    4    0    0 -0.92857862892E+01 -0.18782642158E+01 -0.64642722454E+02  0.65333348558E+02  0.10566000000E+00 0. -1.
        -13    1    4    4    0    0 -0.93596640917E+00 -0.18359189199E+00 -0.11366492870E+02  0.11406930495E+02  0.10566000000E+00 0.  1.
         14    1    4    4    0    0 -0.30507827887E+01 -0.71650350247E+00 -0.24163399216E+02  0.24365765216E+02  0.00000000000E+00 0. -1.
<mgrwt>
<rscale>  0 0.76494949E+02</rscale>
<asrwt>0</asrwt>
<pdfrwt beam="1">  1        2 0.16003157E-01 0.76494949E+02</pdfrwt>
<pdfrwt beam="2">  1       -1 0.21635809E-02 0.76494949E+02</pdfrwt>
<totfact> 0.20200814E+05</totfact>
</mgrwt>
</event>
<event>
 8    1  0.2561077E-016  0.7815000E+02  0.7818608E-02  0.1334385E+00
          2   -1    0    0  501    0  0.00000000000E+00  0.00000000000E+00  0.42376508616E+02  0.42376508693E+02  0.25500000000E-02 0. -1.
         -1   -1    0    0    0  501 -0.00000000000E+00 -0.00000000000E+00 -0.36030704332E+02  0.36030704684E+02  0.50400000000E-02 0.  1.
         24    2    1    2    0    0  0.00000000000E+00  0.00000000000E+00  0.63458042842E+01  0.78407213377E+02  0.78149996018E+02 0.  0.
         66    2    3    3    0    0  0.35499537998E+02  0.72292885628E+01  0.17795883868E+02  0.40412538780E+02  0.19999992014E+01 0.  0.
        -13    1    3    3    0    0 -0.35499537998E+02 -0.72292885628E+01 -0.11450079584E+02  0.37994674597E+02  0.10566000000E+00 0.  1.
         13    1    4    4    0    0  0.10587018673E+02  0.22340773949E+01  0.45179771205E+01  0.11726011576E+02  0.10566000000E+00 0. -1.
        -13    1    4    4    0    0  0.32033391534E+01  0.81145087656E+00  0.20501643087E+01  0.38902663129E+01  0.10566000000E+00 0.  1.
         14    1    4    4    0    0  0.21709180172E+02  0.41837602913E+01  0.11227742439E+02  0.24796260892E+02  0.00000000000E+00 0. -1.
<mgrwt>
<rscale>  0 0.78149996E+02</rscale>
<asrwt>0</asrwt>
<pdfrwt beam="1">  1        2 0.65194628E-02 0.78149996E+02</pdfrwt>
<pdfrwt beam="2">  1       -1 0.55431854E-02 0.78149996E+02</pdfrwt>
<totfact> 0.15386050E+05</totfact>
</mgrwt>
</event>
<event>
 8    1  0.2561077E-016  0.7945366E+02  0.7818608E-02  0.1330609E+00
         -1   -1    0    0    0  501 -0.00000000000E+00  0.00000000000E+00  0.12436000691E+03  0.12436000702E+03  0.50400000000E-02 0.  1.
          2   -1    0    0  501    0  0.00000000000E+00 -0.00000000000E+00 -0.12690742502E+02  0.12690742758E+02  0.25500000000E-02 0. -1.
         24    2    1    2    0    0  0.00000000000E+00  0.00000000000E+00  0.11166926441E+03  0.13705074977E+03  0.79453655670E+02 0.  0.
         66    2    3    3    0    0 -0.15310612667E+02  0.33723858554E+02  0.31202888918E+02  0.48469926538E+02  0.20000014234E+01 0.  0.
        -13    1    3    3    0    0  0.15310612667E+02 -0.33723858554E+02  0.80466375495E+02  0.88580823237E+02  0.10566000000E+00 0.  1.
         13    1    4    4    0    0 -0.63016889291E+01  0.14843225154E+02  0.14018428644E+02  0.21367267537E+02  0.10566000000E+00 0. -1.
        -13    1    4    4    0    0 -0.43753445715E+01  0.88629333211E+01  0.89153030497E+01  0.13311236595E+02  0.10566000000E+00 0.  1.
        -14    1    4    4    0    0 -0.46335791668E+01  0.10017700080E+02  0.82691572249E+01  0.13791422406E+02  0.00000000000E+00 0.  1.
<mgrwt>
<rscale>  0 0.79453656E+02</rscale>
<asrwt>0</asrwt>
<pdfrwt beam="1">  1        2 0.19524220E-02 0.79453656E+02</pdfrwt>
<pdfrwt beam="2">  1       -1 0.19132308E-01 0.79453656E+02</pdfrwt>
<totfact> 0.11487086E+05</totfact>
</mgrwt>
</event>
<event>
 8    1  0.2561077E-016  0.7763349E+02  0.7818608E-02  0.1335905E+00
         -1   -1    0    0    0  501 -0.00000000000E+00  0.00000000000E+00  0.27942371845E+01  0.27942417298E+01  0.50400000000E-02 0.  1.
          2   -1    0    0  501    0  0.00000000000E+00 -0.00000000000E+00 -0.53923073671E+03  0.53923073671E+03  0.25500000000E-02 0. -1.
         24    2    1    2    0    0  0.71054273576E-14  0.00000000000E+00 -0.53643649952E+03  0.54202497844E+03  0.77633493004E+02 0.  0.
         66    2    3    3    0    0 -0.36833531887E+02  0.80657036449E+01 -0.33199199154E+03  0.33413237960E+03  0.20000004791E+01 0.  0.
        -13    1    3    3    0    0  0.36833531887E+02 -0.80657036449E+01 -0.20444450798E+03  0.20789259884E+03  0.10566000000E+00 0.  1.
         13    1    4    4    0    0 -0.47026099128E+01  0.14916780646E+01 -0.40766496018E+02  0.41064071949E+02  0.10566000000E+00 0. -1.
        -13    1    4    4    0    0 -0.15914317293E+02  0.27271039792E+01 -0.14410968245E+03  0.14501142827E+03  0.10566000000E+00 0.  1.
        -14    1    4    4    0    0 -0.16216604682E+02  0.38469216011E+01 -0.14711581308E+03  0.14805687938E+03  0.00000000000E+00 0.  1.
<mgrwt>
<rscale>  0 0.77633493E+02</rscale>
<asrwt>0</asrwt>
<pdfrwt beam="1">  1        2 0.82958492E-01 0.77633493E+02</pdfrwt>
<pdfrwt beam="2">  1       -1 0.42988342E-03 0.77633493E+02</pdfrwt>
<totfact> 0.33708034E+05</totfact>
</mgrwt>
</event>
<event>
 8    1  0.2561077E-016  0.7925965E+02  0.7818608E-02  0.1331166E+00
         -1   -1    0    0    0  501 -0.00000000000E+00  0.00000000000E+00  0.36873756175E+02  0.36873756519E+02  0.50400000000E-02 0.  1.
          2   -1    0    0  501    0  0.00000000000E+00 -0.00000000000E+00 -0.42591888499E+02  0.42591888576E+02  0.25500000000E-02 0. -1.
         24    2    1    2    0    0  0.00000000000E+00  0.00000000000E+00 -0.57181323247E+01  0.79465645095E+02  0.79259647445E+02 0.  0.
         66    2    3    3    0    0 -0.24204871188E+02 -0.27066191542E+01 -0.34172105364E+02  0.42011121707E+02  0.19999964020E+01 0.  0.
        -13    1    3    3    0    0  0.24204871188E+02  0.27066191542E+01  0.28453973039E+02  0.37454523388E+02  0.10566000000E+00 0.  1.
         13    1    4    4    0    0 -0.11303875405E+02 -0.20213162731E+01 -0.16093783705E+02  0.19770795549E+02  0.10566000000E+00 0. -1.
        -13    1    4    4    0    0 -0.12175746977E+01 -0.29281663962E+00 -0.15423890727E+01  0.19895622172E+01  0.10566000000E+00 0.  1.
         14    1    4    4    0    0 -0.11683421085E+02 -0.39248624150E+00 -0.16535932586E+02  0.20250763941E+02  0.00000000000E+00 0. -1.
<mgrwt>
<rscale>  0 0.79259647E+02</rscale>
<asrwt>0</asrwt>
<pdfrwt beam="1">  1        2 0.65525982E-02 0.79259647E+02</pdfrwt>
<pdfrwt beam="2">  1       -1 0.56728856E-02 0.79259647E+02</pdfrwt>
<totfact> 0.14816312E+05</totfact>
</mgrwt>
</event>
<event>
 8    1  0.2561077E-016  0.7460404E+02  0.7818608E-02  0.1345102E+00
         -1   -1    0    0    0  501 -0.00000000000E+00  0.00000000000E+00  0.29120159669E+01  0.29120203284E+01  0.50400000000E-02 0.  1.
          2   -1    0    0  501    0  0.00000000000E+00 -0.00000000000E+00 -0.47782696408E+03  0.47782696409E+03  0.25500000000E-02 0. -1.
         24    2    1    2    0    0  0.00000000000E+00  0.00000000000E+00 -0.47491494811E+03  0.48073898442E+03  0.74604042755E+02 0.  0.
         66    2    3    3    0    0  0.35489618860E+02 -0.44120074452E+01 -0.30535183269E+03  0.30744547579E+03  0.19999996519E+01 0.  0.
        -13    1    3    3    0    0 -0.35489618860E+02  0.44120074452E+01 -0.16956311543E+03  0.17329350863E+03  0.10566000000E+00 0.  1.
         13    1    4    4    0    0  0.78619657135E+01 -0.93187114787E+00 -0.64770801396E+02  0.65252944502E+02  0.10566000000E+00 0. -1.
        -13    1    4    4    0    0  0.74543365556E+01 -0.90060681021E+00 -0.58910281077E+02  0.59386956537E+02  0.10566000000E+00 0. -1.
        -14    1    4    4    0    0  0.20173316590E+02 -0.25795294871E+01 -0.18167075022E+03  0.18280557475E+03  0.00000000000E+00 0.  1.
<mgrwt>
<rscale>  0 0.74604043E+02</rscale>
<asrwt>0</asrwt>
<pdfrwt beam="1">  1        2 0.73511779E-01 0.74604043E+02</pdfrwt>
<pdfrwt beam="2">  1       -1 0.44800317E-03 0.74604043E+02</pdfrwt>
<totfact> 0.35978322E+05</totfact>
</mgrwt>
</event>
<event>
 8    1  0.2561077E-016  0.8011067E+02  0.7818608E-02  0.1328738E+00
         -1   -1    0    0    0  501 -0.00000000000E+00  0.00000000000E+00  0.34158338018E+01  0.34158375200E+01  0.50400000000E-02 0.  1.
          2   -1    0    0  501    0  0.00000000000E+00 -0.00000000000E+00 -0.46970350982E+03  0.46970350982E+03  0.25500000000E-02 0. -1.
         24    2    1    2    0    0  0.00000000000E+00 -0.35527136788E-14 -0.46628767601E+03  0.47311934734E+03  0.80110673618E+02 0.  0.
         66    2    3    3    0    0 -0.18200581890E+02 -0.25538154094E+02 -0.38021990721E+03  0.38151623338E+03  0.20000006566E+01 0.  0.
        -13    1    3    3    0    0  0.18200581890E+02  0.25538154094E+02 -0.86067768807E+02  0.91603113960E+02  0.10566000000E+00 0.  1.
         13    1    4    4    0    0 -0.12923935362E+02 -0.17123453156E+02 -0.26100856820E+03  0.26188876377E+03  0.10566000000E+00 0. -1.
        -13    1    4    4    0    0 -0.45035346970E+01 -0.73826286777E+01 -0.10026775914E+03  0.10064005027E+03  0.10566000000E+00 0.  1.
        -14    1    4    4    0    0 -0.77311183105E+00 -0.10320722595E+01 -0.18943579866E+02  0.18987419340E+02  0.00000000000E+00 0.  1.
<mgrwt>
<rscale>  0 0.80110674E+02</rscale>
<asrwt>0</asrwt>
<pdfrwt beam="1">  1        2 0.72262027E-01 0.80110674E+02</pdfrwt>
<pdfrwt beam="2">  1       -1 0.52551355E-03 0.80110674E+02</pdfrwt>
<totfact> 0.29733288E+05</totfact>
</mgrwt>
</event>
<event>
 8    1  0.2561077E-016  0.8098633E+02  0.7818608E-02  0.1326275E+00
         -1   -1    0    0    0  501 -0.00000000000E+00  0.00000000000E+00  0.78005801905E+01  0.78005818186E+01  0.50400000000E-02 0.  1.
          2   -1    0    0  501    0  0.00000000000E+00 -0.00000000000E+00 -0.21020183207E+03  0.21020183209E+03  0.25500000000E-02 0. -1.
         24    2    1    2    0    0  0.00000000000E+00  0.00000000000E+00 -0.20240125188E+03  0.21800241391E+03  0.80986330363E+02 0.  0.
         66    2    3    3    0    0  0.20395501052E+02  0.34611211923E+02 -0.88135750593E+02  0.96880457174E+02  0.19999989044E+01 0.  0.
        -13    1    3    3    0    0 -0.20395501052E+02 -0.34611211923E+02 -0.11426550129E+03  0.12112195673E+03  0.10566000000E+00 0.  1.
         13    1    4    4    0    0  0.14890506700E+02  0.25581405565E+02 -0.65803413499E+02  0.72154250690E+02  0.10566000000E+00 0. -1.
        -13    1    4    4    0    0  0.14592367347E+01  0.31805743469E+01 -0.72296421006E+01  0.80327027806E+01  0.10566000000E+00 0.  1.
         14    1    4    4    0    0  0.40457576172E+01  0.58492320114E+01 -0.15102694994E+02  0.16693503704E+02  0.00000000000E+00 0. -1.
<mgrwt>
<rscale>  0 0.80986330E+02</rscale>
<asrwt>0</asrwt>
<pdfrwt beam="1">  1        2 0.32338739E-01 0.80986330E+02</pdfrwt>
<pdfrwt beam="2">  1       -1 0.12000895E-02 0.80986330E+02</pdfrwt>
<totfact> 0.21730787E+05</totfact>
</mgrwt>
</event>
<event>
 8    1  0.2561077E-016  0.8123633E+02  0.7818608E-02  0.1325579E+00
         -1   -1    0    0    0  501 -0.00000000000E+00  0.00000000000E+00  0.19644403718E+01  0.19644468371E+01  0.50400000000E-02 0.  1.
          2   -1    0    0  501    0  0.00000000000E+00 -0.00000000000E+00 -0.83984864133E+03  0.83984864134E+03  0.25500000000E-02 0. -1.
         24    2    1    2    0    0  0.00000000000E+00  0.00000000000E+00 -0.83788420096E+03  0.84181308818E+03  0.81236329315E+02 0.  0.
         66    2    3    3    0    0 -0.83707358910E+01 -0.27933656134E+02 -0.71182818171E+03  0.71242804453E+03  0.19999992669E+01 0.  0.
        -13    1    3    3    0    0  0.83707358910E+01  0.27933656134E+02 -0.12605601926E+03  0.12938504365E+03  0.10566000000E+00 0.  1.
         13    1    4    4    0    0 -0.24944850449E+01 -0.10697280510E+02 -0.28138537187E+03  0.28159970336E+03  0.10566000000E+00 0. -1.
        -13    1    4    4    0    0 -0.17730181615E+01 -0.51029508216E+01 -0.12113588188E+03  0.12125632661E+03  0.10566000000E+00 0.  1.
         14    1    4    4    0    0 -0.41032326847E+01 -0.12133424802E+02 -0.30930692795E+03  0.30957201455E+03  0.00000000000E+00 0. -1.
<mgrwt>
<rscale>  0 0.81236329E+02</rscale>
<asrwt>0</asrwt>
<pdfrwt beam="1">  1        2 0.12920720E+00 0.81236329E+02</pdfrwt>
<pdfrwt beam="2">  1       -1 0.30222276E-03 0.81236329E+02</pdfrwt>
<totfact> 0.33281428E+05</totfact>
</mgrwt>
</event>
<event>
 8    1  0.2561077E-016  0.7747344E+02  0.7818608E-02  0.1336378E+00
         -1   -1    0    0    0  501 -0.00000000000E+00  0.00000000000E+00  0.27972116905E+01  0.27972162310E+01  0.50400000000E-02 0.  1.
          2   -1    0    0  501    0  0.00000000000E+00 -0.00000000000E+00 -0.53643853805E+03  0.53643853806E+03  0.25500000000E-02 0. -1.
         24    2    1    2    0    0  0.71054273576E-14 -0.88817841970E-15 -0.53364132636E+03  0.53923575429E+03  0.77473437402E+02 0.  0.
         66    2    3    3    0    0  0.35920793596E+02 -0.46815582929E+01 -0.36200193547E+03  0.36381536759E+03  0.20000021676E+01 0.  0.
        -13    1    3    3    0    0 -0.35920793596E+02  0.46815582929E+01 -0.17163939089E+03  0.17542038670E+03  0.10566000000E+00 0.  1.
         13    1    4    4    0    0  0.17767056064E+02 -0.24932049215E+01 -0.17883045450E+03  0.17972820305E+03  0.10566000000E+00 0. -1.
        -13    1    4    4    0    0  0.46815254829E+01 -0.58316920874E-01 -0.50210270436E+02  0.50428191550E+02  0.10566000000E+00 0.  1.
        -14    1    4    4    0    0  0.13472212049E+02 -0.21300364505E+01 -0.13296121054E+03  0.13365897299E+03  0.00000000000E+00 0.  1.
<mgrwt>
<rscale>  0 0.77473437E+02</rscale>
<asrwt>0</asrwt>
<pdfrwt beam="1">  1        2 0.82528924E-01 0.77473437E+02</pdfrwt>
<pdfrwt beam="2">  1       -1 0.43034104E-03 0.77473437E+02</pdfrwt>
<totfact> 0.33835787E+05</totfact>
</mgrwt>
</event>
<event>
 8    1  0.2561077E-016  0.8008717E+02  0.7818608E-02  0.1328804E+00
          2   -1    0    0  501    0  0.00000000000E+00  0.00000000000E+00  0.67283858951E+03  0.67283858952E+03  0.25500000000E-02 0. -1.
         -1   -1    0    0    0  501 -0.00000000000E+00 -0.00000000000E+00 -0.23831669838E+01  0.23831723131E+01  0.50400000000E-02 0.  1.
         24    2    1    2    0    0  0.00000000000E+00 -0.35527136788E-14  0.67045542253E+03  0.67522176183E+03  0.80087165334E+02 0.  0.
         66    2    3    3    0    0  0.29617722337E+00 -0.24228082814E+02  0.60396274232E+03  0.60445188545E+03  0.19999982875E+01 0.  0.
        -13    1    3    3    0    0 -0.29617722337E+00  0.24228082814E+02  0.66492680206E+02  0.70769876380E+02  0.10566000000E+00 0.  1.
         13    1    4    4    0    0  0.34502344077E+00 -0.21958290854E+01  0.63554548122E+02  0.63593493831E+02  0.10566000000E+00 0. -1.
        -13    1    4    4    0    0  0.40261746802E-01 -0.21901597582E+02  0.53568611756E+03  0.53613366739E+03  0.10566000000E+00 0.  1.
         14    1    4    4    0    0 -0.89107964204E-01 -0.13065614643E+00  0.47220766391E+01  0.47247242293E+01  0.00000000000E+00 0. -1.
<mgrwt>
<rscale>  0 0.80087165E+02</rscale>
<asrwt>0</asrwt>
<pdfrwt beam="1">  1        2 0.10351365E+00 0.80087165E+02</pdfrwt>
<pdfrwt beam="2">  1       -1 0.36664141E-03 0.80087165E+02</pdfrwt>
<totfact> 0.33047063E+05</totfact>
</mgrwt>
</event>
<event>
 8    1  0.2561077E-016  0.8411930E+02  0.7818608E-02  0.1317752E+00
          2   -1    0    0  501    0  0.00000000000E+00  0.00000000000E+00  0.60866456520E+02  0.60866456573E+02  0.25500000000E-02 0. -1.
         -1   -1    0    0    0  501 -0.00000000000E+00 -0.00000000000E+00 -0.29063859943E+02  0.29063860380E+02  0.50400000000E-02 0.  1.
         24    2    1    2    0    0 -0.71054273576E-14  0.17763568394E-14  0.31802596577E+02  0.89930316953E+02  0.84119300748E+02 0.  0.
         66    2    3    3    0    0 -0.41145852031E+02  0.83089212604E+01  0.13522151579E+02  0.44145983987E+02  0.20000017474E+01 0.  0.
        -13    1    3    3    0    0  0.41145852031E+02 -0.83089212604E+01  0.18280444998E+02  0.45784332967E+02  0.10566000000E+00 0.  1.
         13    1    4    4    0    0 -0.67341463484E+01  0.10156778725E+01  0.23459405310E+01  0.72038135452E+01  0.10566000000E+00 0. -1.
        -13    1    4    4    0    0 -0.11460679258E+02  0.28334439191E+01  0.31020538531E+01  0.12206943747E+02  0.10566000000E+00 0.  1.
        -14    1    4    4    0    0 -0.22951026424E+02  0.44597994687E+01  0.80741571945E+01  0.24735226694E+02  0.00000000000E+00 0.  1.
<mgrwt>
<rscale>  0 0.84119301E+02</rscale>
<asrwt>0</asrwt>
<pdfrwt beam="1">  1        2 0.93640702E-02 0.84119301E+02</pdfrwt>
<pdfrwt beam="2">  1       -1 0.44713631E-02 0.84119301E+02</pdfrwt>
<totfact> 0.13618170E+05</totfact>
</mgrwt>
</event>
<event>
 8    1  0.2561077E-016  0.7759153E+02  0.7818608E-02  0.1336029E+00
         -1   -1    0    0    0  501 -0.00000000000E+00  0.00000000000E+00  0.21933219861E+02  0.21933220440E+02  0.50400000000E-02 0.  1.
          2   -1    0    0  501    0  0.00000000000E+00 -0.00000000000E+00 -0.68622455350E+02  0.68622455397E+02  0.25500000000E-02 0. -1.
         24    2    1    2    0    0  0.00000000000E+00 -0.71054273576E-14 -0.46689235489E+02  0.90555675837E+02  0.77591531212E+02 0.  0.
         66    2    3    3    0    0  0.13712365288E+02  0.33276224824E+02 -0.40182687802E+02  0.53981334734E+02  0.20000000661E+01 0.  0.
        -13    1    3    3    0    0 -0.13712365288E+02 -0.33276224824E+02 -0.65065476863E+01  0.36574341104E+02  0.10566000000E+00 0.  1.
         13    1    4    4    0    0  0.58800092345E+01  0.13641497171E+02 -0.17730996529E+02  0.23131458138E+02  0.10566000000E+00 0. -1.
        -13    1    4    4    0    0  0.49073658913E+01  0.11166978772E+02 -0.13056550400E+02  0.17868081242E+02  0.10566000000E+00 0.  1.
         14    1    4    4    0    0  0.29249901622E+01  0.84677488809E+01 -0.93951408737E+01  0.12981795353E+02  0.00000000000E+00 0. -1.
<mgrwt>
<rscale>  0 0.77591531E+02</rscale>
<asrwt>0</asrwt>
<pdfrwt beam="1">  1        2 0.10557301E-01 0.77591531E+02</pdfrwt>
<pdfrwt beam="2">  1       -1 0.33743416E-02 0.77591531E+02</pdfrwt>
<totfact> 0.17452808E+05</totfact>
</mgrwt>
</event>
<event>
 8    1  0.2561077E-016  0.7842958E+02  0.7818608E-02  0.1333568E+00
         -1   -1    0    0    0  501 -0.00000000000E+00  0.00000000000E+00  0.20037897976E+01  0.20037961360E+01  0.50400000000E-02 0.  1.
          2   -1    0    0  501    0  0.00000000000E+00 -0.00000000000E+00 -0.76744448355E+03  0.76744448356E+03  0.25500000000E-02 0. -1.
         24    2    1    2    0    0  0.35527136788E-14 -0.17763568394E-14 -0.76544069376E+03  0.76944827969E+03  0.78429582850E+02 0.  0.
         66    2    3    3    0    0  0.29981078684E+02  0.11019697522E+02 -0.60571571448E+03  0.60656065285E+03  0.19999989659E+01 0.  0.
        -13    1    3    3    0    0 -0.29981078684E+02 -0.11019697522E+02 -0.15972497927E+03  0.16288762685E+03  0.10566000000E+00 0.  1.
         13    1    4    4    0    0  0.45347904766E+01  0.15442914883E+01 -0.80993617208E+02  0.81135234968E+02  0.10566000000E+00 0. -1.
        -13    1    4    4    0    0  0.32256149134E+01  0.10188137194E+01 -0.59451501084E+02  0.59547751579E+02  0.10566000000E+00 0.  1.
         14    1    4    4    0    0  0.22220673294E+02  0.84565923140E+01 -0.46527059619E+03  0.46587766630E+03  0.00000000000E+00 0. -1.
<mgrwt>
<rscale>  0 0.78429583E+02</rscale>
<asrwt>0</asrwt>
<pdfrwt beam="1">  1        2 0.11806815E+00 0.78429583E+02</pdfrwt>
<pdfrwt beam="2">  1       -1 0.30827645E-03 0.78429583E+02</pdfrwt>
<totfact> 0.35907646E+05</totfact>
</mgrwt>
</event>
<event>
 8    1  0.2561077E-016  0.8003659E+02  0.7818608E-02  0.1328948E+00
         -1   -1    0    0    0  501 -0.00000000000E+00  0.00000000000E+00  0.11824712521E+03  0.11824712531E+03  0.50400000000E-02 0.  1.
          2   -1    0    0  501    0  0.00000000000E+00 -0.00000000000E+00 -0.13543364317E+02  0.13543364557E+02  0.25500000000E-02 0. -1.
         24    2    1    2    0    0  0.00000000000E+00 -0.22204460493E-15  0.10470376089E+03  0.13179048987E+03  0.80036589609E+02 0.  0.
         66    2    3    3    0    0 -0.20117086908E+02  0.13441306284E+01 -0.44887049783E+01  0.20752164780E+02  0.19999994650E+01 0.  0.
        -13    1    3    3    0    0  0.20117086908E+02 -0.13441306284E+01  0.10919246587E+03  0.11103832509E+03  0.10566000000E+00 0.  1.
         13    1    4    4    0    0 -0.15070024300E+02  0.14631375673E+01 -0.28955441542E+01  0.15415633102E+02  0.10566000000E+00 0. -1.
        -13    1    4    4    0    0 -0.46426698946E+01 -0.18183427889E+00 -0.12778542711E+01  0.48199090270E+01  0.10566000000E+00 0.  1.
         14    1    4    4    0    0 -0.40439271373E+00  0.62827340006E-01 -0.31530655310E+00  0.51662265146E+00  0.00000000000E+00 0. -1.
<mgrwt>
<rscale>  0 0.80036590E+02</rscale>
<asrwt>0</asrwt>
<pdfrwt beam="1">  1        2 0.20835945E-02 0.80036590E+02</pdfrwt>
<pdfrwt beam="2">  1       -1 0.18191866E-01 0.80036590E+02</pdfrwt>
<totfact> 0.11409677E+05</totfact>
</mgrwt>
</event>
<event>
 8    1  0.2561077E-016  0.8197544E+02  0.7818608E-02  0.1323537E+00
         -1   -1    0    0    0  501 -0.00000000000E+00  0.00000000000E+00  0.36657905174E+03  0.36657905177E+03  0.50400000000E-02 0.  1.
          2   -1    0    0  501    0  0.00000000000E+00 -0.00000000000E+00 -0.45828943286E+01  0.45828950381E+01  0.25500000000E-02 0. -1.
         24    2    1    2    0    0  0.00000000000E+00  0.00000000000E+00  0.36199615741E+03  0.37116194681E+03  0.81975440109E+02 0.  0.
         66    2    3    3    0    0 -0.38752915789E+02  0.10896596795E+02  0.14678314810E+03  0.15221634890E+03  0.20000007075E+01 0.  0.
        -13    1    3    3    0    0  0.38752915789E+02 -0.10896596795E+02  0.21521300931E+03  0.21894559791E+03  0.10566000000E+00 0.  1.
         13    1    4    4    0    0 -0.17363420856E+02  0.47334295513E+01  0.65495957446E+02  0.67923672935E+02  0.10566000000E+00 0. -1.
        -13    1    4    4    0    0 -0.86543439290E+01  0.30992791852E+01  0.31946409812E+02  0.33242855838E+02  0.10566000000E+00 0.  1.
        -14    1    4    4    0    0 -0.12735151004E+02  0.30638880581E+01  0.49340780839E+02  0.51049820126E+02  0.00000000000E+00 0.  1.
<mgrwt>
<rscale>  0 0.81975440E+02</rscale>
<asrwt>0</asrwt>
<pdfrwt beam="1">  1        2 0.70506048E-03 0.81975440E+02</pdfrwt>
<pdfrwt beam="2">  1       -1 0.56396797E-01 0.81975440E+02</pdfrwt>
<totfact> 0.74332565E+04</totfact>
</mgrwt>
</event>
<event>
 8    1  0.2561077E-016  0.7917737E+02  0.7818608E-02  0.1331402E+00
         -1   -1    0    0    0  501 -0.00000000000E+00  0.00000000000E+00  0.71771571864E+02  0.71771572041E+02  0.50400000000E-02 0.  1.
          2   -1    0    0  501    0  0.00000000000E+00 -0.00000000000E+00 -0.21836836786E+02  0.21836836935E+02  0.25500000000E-02 0. -1.
         24    2    1    2    0    0  0.00000000000E+00  0.00000000000E+00  0.49934735078E+02  0.93608408976E+02  0.79177373432E+02 0.  0.
         66    2    3    3    0    0  0.15026049243E+02 -0.16085613383E+02 -0.13882973792E+02  0.26101074239E+02  0.20000003467E+01 0.  0.
        -13    1    3    3    0    0 -0.15026049243E+02  0.16085613383E+02  0.63817708870E+02  0.67507334736E+02  0.10566000000E+00 0.  1.
         13    1    4    4    0    0  0.67920281495E+01 -0.70479744374E+01 -0.55857197930E+01  0.11270182771E+02  0.10566000000E+00 0. -1.
        -13    1    4    4    0    0  0.26004388606E+01 -0.28684922731E+01 -0.19343845564E+01  0.43293807682E+01  0.10566000000E+00 0.  1.
         14    1    4    4    0    0  0.56335822328E+01 -0.61691466726E+01 -0.63628694424E+01  0.10501510700E+02  0.00000000000E+00 0. -1.
<mgrwt>
<rscale>  0 0.79177373E+02</rscale>
<asrwt>0</asrwt>
<pdfrwt beam="1">  1        2 0.33595133E-02 0.79177373E+02</pdfrwt>
<pdfrwt beam="2">  1       -1 0.11041781E-01 0.79177373E+02</pdfrwt>
<totfact> 0.13014949E+05</totfact>
</mgrwt>
</event>
<event>
 8    1  0.2561077E-016  0.8081646E+02  0.7818608E-02  0.1326750E+00
         -1   -1    0    0    0  501 -0.00000000000E+00  0.00000000000E+00  0.96195294841E+01  0.96195308044E+01  0.50400000000E-02 0.  1.
          2   -1    0    0  501    0  0.00000000000E+00 -0.00000000000E+00 -0.16974061908E+03  0.16974061909E+03  0.25500000000E-02 0. -1.
         24    2    1    2    0    0 -0.35527136788E-14 -0.35527136788E-14 -0.16012108959E+03  0.17936014990E+03  0.80816458967E+02 0.  0.
         66    2    3    3    0    0  0.22516879087E+02  0.19758872525E+02 -0.14021238448E+03  0.14339084923E+03  0.19999985939E+01 0.  0.
        -13    1    3    3    0    0 -0.22516879087E+02 -0.19758872525E+02 -0.19908705111E+02  0.35969300668E+02  0.10566000000E+00 0.  1.
         13    1    4    4    0    0  0.26373871489E+01  0.19314918643E+01 -0.13295794278E+02  0.13692179567E+02  0.10566000000E+00 0. -1.
        -13    1    4    4    0    0  0.84549887707E+01  0.73357330157E+01 -0.55284651837E+02  0.56406592760E+02  0.10566000000E+00 0.  1.
         14    1    4    4    0    0  0.11424503168E+02  0.10491647645E+02 -0.71631938365E+02  0.73292076904E+02  0.00000000000E+00 0. -1.
<mgrwt>
<rscale>  0 0.80816459E+02</rscale>
<asrwt>0</asrwt>
<pdfrwt beam="1">  1        2 0.26113939E-01 0.80816459E+02</pdfrwt>
<pdfrwt beam="2">  1       -1 0.14799278E-02 0.80816459E+02</pdfrwt>
<totfact> 0.20305257E+05</totfact>
</mgrwt>
</event>
<event>
 8    1  0.2561077E-016  0.7302132E+02  0.7818608E-02  0.1350110E+00
          2   -1    0    0  501    0  0.00000000000E+00  0.00000000000E+00  0.81011254688E+02  0.81011254728E+02  0.25500000000E-02 0. -1.
         -1   -1    0    0    0  501 -0.00000000000E+00 -0.00000000000E+00 -0.16454854367E+02  0.16454855139E+02  0.50400000000E-02 0.  1.
         24    2    1    2    0    0  0.35527136788E-14  0.35527136788E-14  0.64556400321E+02  0.97466109867E+02  0.73021323942E+02 0.  0.
         66    2    3    3    0    0 -0.31077495349E+02 -0.16544984398E+02  0.45068451707E+02  0.57225104274E+02  0.19999985084E+01 0.  0.
        -13    1    3    3    0    0  0.31077495349E+02  0.16544984398E+02  0.19487948614E+02  0.40241005593E+02  0.10566000000E+00 0.  1.
         13    1    4    4    0    0 -0.19947943261E+02 -0.99323014593E+01  0.28723709468E+02  0.36354280384E+02  0.10566000000E+00 0. -1.
        -13    1    4    4    0    0 -0.31075181750E+01 -0.17590157020E+01  0.38921575808E+01  0.52830729805E+01  0.10566000000E+00 0.  1.
        -14    1    4    4    0    0 -0.80220339134E+01 -0.48536672363E+01  0.12452584658E+02  0.15587750910E+02  0.00000000000E+00 0.  1.
<mgrwt>
<rscale>  0 0.73021324E+02</rscale>
<asrwt>0</asrwt>
<pdfrwt beam="1">  1        2 0.12463270E-01 0.73021324E+02</pdfrwt>
<pdfrwt beam="2">  1       -1 0.25315161E-02 0.73021324E+02</pdfrwt>
<totfact> 0.21386409E+05</totfact>
</mgrwt>
</event>
<event>
 8    1  0.2561077E-016  0.8108899E+02  0.7818608E-02  0.1325989E+00
         -1   -1    0    0    0  501 -0.00000000000E+00  0.00000000000E+00  0.32042514429E+01  0.32042554067E+01  0.50400000000E-02 0.  1.
          2   -1    0    0  501    0  0.00000000000E+00 -0.00000000000E+00 -0.51302306612E+03  0.51302306612E+03  0.25500000000E-02 0. -1.
         24    2    1    2    0    0  0.35527136788E-14 -0.55511151231E-16 -0.50981881468E+03  0.51622732153E+03  0.81088986295E+02 0.  0.
         66    2    3    3    0    0 -0.27893429549E+02 -0.27804229209E+00 -0.44216162429E+03  0.44304517006E+03  0.19999991429E+01 0.  0.
        -13    1    3    3    0    0  0.27893429549E+02  0.27804229209E+00 -0.67657190387E+02  0.73182151475E+02  0.10566000000E+00 0.  1.
         13    1    4    4    0    0 -0.80535436959E+00  0.25206186897E+00 -0.13141579493E+02  0.13169070068E+02  0.10566000000E+00 0. -1.
        -13    1    4    4    0    0 -0.24244977817E+01  0.21701519238E+00 -0.36409293079E+02  0.36490725831E+02  0.10566000000E+00 0.  1.
         14    1    4    4    0    0 -0.24663577398E+02 -0.74711935344E+00 -0.39261075172E+03  0.39338537416E+03  0.00000000000E+00 0. -1.
<mgrwt>
<rscale>  0 0.81088986E+02</rscale>
<asrwt>0</asrwt>
<pdfrwt beam="1">  1        2 0.78926560E-01 0.81088986E+02</pdfrwt>
<pdfrwt beam="2">  1       -1 0.49296247E-03 0.81088986E+02</pdfrwt>
<totfact> 0.29636568E+05</totfact>
</mgrwt>
</event>
<event>
 8    1  0.2561077E-016  0.8058382E+02  0.7818608E-02  0.1327403E+00
         -1   -1    0    0    0  501 -0.00000000000E+00  0.00000000000E+00  0.29852981630E+02  0.29852982055E+02  0.50400000000E-02 0.  1.
          2   -1    0    0  501    0  0.00000000000E+00 -0.00000000000E+00 -0.54381100508E+02  0.54381100568E+02  0.25500000000E-02 0. -1.
         24    2    1    2    0    0 -0.35527136788E-14 -0.35527136788E-14 -0.24528118878E+02  0.84234082623E+02  0.80583820086E+02 0.  0.
         66    2    3    3    0    0  0.24144471840E+02  0.19967604457E+02 -0.38711060847E+02  0.49841819610E+02  0.20000004730E+01 0.  0.
        -13    1    3    3    0    0 -0.24144471840E+02 -0.19967604457E+02  0.14182941969E+02  0.34392263013E+02  0.10566000000E+00 0.  1.
         13    1    4    4    0    0  0.30942884499E+01  0.28331579832E+01 -0.54894746466E+01  0.69099132484E+01  0.10566000000E+00 0. -1.
        -13    1    4    4    0    0  0.18726183208E+02  0.15249775913E+02 -0.30335090803E+02  0.38774405230E+02  0.10566000000E+00 0.  1.
        -14    1    4    4    0    0  0.23240001825E+01  0.18846705613E+01 -0.28864953983E+01  0.41575011314E+01  0.00000000000E+00 0.  1.
<mgrwt>
<rscale>  0 0.80583820E+02</rscale>
<asrwt>0</asrwt>
<pdfrwt beam="1">  1        2 0.83663232E-02 0.80583820E+02</pdfrwt>
<pdfrwt beam="2">  1       -1 0.45927665E-02 0.80583820E+02</pdfrwt>
<totfact> 0.14922939E+05</totfact>
</mgrwt>
</event>
<event>
 8    1  0.2561077E-016  0.8209104E+02  0.7818608E-02  0.1323220E+00
          2   -1    0    0  501    0  0.00000000000E+00  0.00000000000E+00  0.22809820963E+02  0.22809821105E+02  0.25500000000E-02 0. -1.
         -1   -1    0    0    0  501 -0.00000000000E+00 -0.00000000000E+00 -0.73860060257E+02  0.73860060429E+02  0.50400000000E-02 0.  1.
         24    2    1    2    0    0  0.00000000000E+00  0.88817841970E-15 -0.51050239295E+02  0.96669881535E+02  0.82091041313E+02 0.  0.
         66    2    3    3    0    0  0.15830513614E+02  0.77649924904E+01  0.18075737399E+02  0.25330466850E+02  0.19999996758E+01 0.  0.
        -13    1    3    3    0    0 -0.15830513614E+02 -0.77649924904E+01 -0.69125976693E+02  0.71339414684E+02  0.10566000000E+00 0.  1.
         13    1    4    4    0    0  0.15269322350E+02  0.75152815947E+01  0.17135990998E+02  0.24151294251E+02  0.10566000000E+00 0. -1.
        -13    1    4    4    0    0  0.39907576787E+00  0.17648045586E+00  0.36837564598E+00  0.58075078299E+00  0.10566000000E+00 0.  1.
         14    1    4    4    0    0  0.16211549593E+00  0.73230439901E-01  0.57137075417E+00  0.59842181618E+00  0.00000000000E+00 0. -1.
<mgrwt>
<rscale>  0 0.82091041E+02</rscale>
<asrwt>0</asrwt>
<pdfrwt beam="1">  1        2 0.35092033E-02 0.82091041E+02</pdfrwt>
<pdfrwt beam="2">  1       -1 0.11363086E-01 0.82091041E+02</pdfrwt>
<totfact> 0.11841835E+05</totfact>
</mgrwt>
</event>
<event>
 8    1  0.2561077E-016  0.8247919E+02  0.7818608E-02  0.1322160E+00
         -1   -1    0    0    0  501 -0.00000000000E+00  0.00000000000E+00  0.40077069147E+01  0.40077100838E+01  0.50400000000E-02 0.  1.
          2   -1    0    0  501    0  0.00000000000E+00 -0.00000000000E+00 -0.42435822538E+03  0.42435822539E+03  0.25500000000E-02 0. -1.
         24    2    1    2    0    0  0.00000000000E+00  0.00000000000E+00 -0.42035051847E+03  0.42836593548E+03  0.82479187062E+02 0.  0.
         66    2    3    3    0    0 -0.24862121104E+02 -0.19815963617E+01 -0.38071328461E+03  0.38153460769E+03  0.19999995456E+01 0.  0.
        -13    1    3    3    0    0  0.24862121104E+02  0.19815963617E+01 -0.39637233859E+02  0.46831327783E+02  0.10566000000E+00 0.  1.
         13    1    4    4    0    0 -0.10682163888E+02 -0.12461819864E+01 -0.17397831029E+03  0.17431042772E+03  0.10566000000E+00 0. -1.
        -13    1    4    4    0    0 -0.65458241183E+01 -0.80655287700E+00 -0.95898452343E+02  0.96125036628E+02  0.10566000000E+00 0.  1.
         14    1    4    4    0    0 -0.76341330972E+01  0.71138501667E-01 -0.11083652197E+03  0.11109914335E+03  0.00000000000E+00 0. -1.
<mgrwt>
<rscale>  0 0.82479187E+02</rscale>
<asrwt>0</asrwt>
<pdfrwt beam="1">  1        2 0.65285845E-01 0.82479187E+02</pdfrwt>
<pdfrwt beam="2">  1       -1 0.61657088E-03 0.82479187E+02</pdfrwt>
<totfact> 0.26626656E+05</totfact>
</mgrwt>
</event>
<event>
 8    1  0.2561077E-016  0.7982863E+02  0.7818608E-02  0.1329538E+00
          2   -1    0    0  501    0  0.00000000000E+00  0.00000000000E+00  0.10766121681E+03  0.10766121684E+03  0.25500000000E-02 0. -1.
         -1   -1    0    0    0  501 -0.00000000000E+00 -0.00000000000E+00 -0.14797831659E+02  0.14797832517E+02  0.50400000000E-02 0.  1.
         24    2    1    2    0    0  0.35527136788E-14  0.00000000000E+00  0.92863385148E+02  0.12245904935E+03  0.79828631878E+02 0.  0.
         66    2    3    3    0    0 -0.18205474289E+02 -0.34203520059E+02  0.60999839916E+02  0.72293156984E+02  0.19999995922E+01 0.  0.
        -13    1    3    3    0    0  0.18205474289E+02  0.34203520059E+02  0.31863545232E+02  0.50165892370E+02  0.10566000000E+00 0.  1.
         13    1    4    4    0    0 -0.48553116524E+00 -0.89373716541E+00  0.16221516751E+01  0.19175627045E+01  0.10566000000E+00 0. -1.
        -13    1    4    4    0    0 -0.11865836749E+02 -0.23282124188E+02  0.39738756771E+02  0.47560859351E+02  0.10566000000E+00 0.  1.
        -14    1    4    4    0    0 -0.58541063752E+01 -0.10027658706E+02  0.19638931470E+02  0.22814734928E+02  0.00000000000E+00 0.  1.
<mgrwt>
<rscale>  0 0.79828632E+02</rscale>
<asrwt>0</asrwt>
<pdfrwt beam="1">  1        2 0.16563264E-01 0.79828632E+02</pdfrwt>
<pdfrwt beam="2">  1       -1 0.22765896E-02 0.79828632E+02</pdfrwt>
<totfact> 0.18205160E+05</totfact>
</mgrwt>
</event>
<event>
 8    1  0.2561077E-016  0.7738489E+02  0.7818608E-02  0.1336641E+00
          2   -1    0    0  501    0  0.00000000000E+00  0.00000000000E+00  0.25382988013E+04  0.25382988013E+04  0.25500000000E-02 0. -1.
         -1   -1    0    0    0  501 -0.00000000000E+00 -0.00000000000E+00 -0.58979586236E+00  0.58981739620E+00  0.50400000000E-02 0.  1.
         24    2    1    2    0    0 -0.17763568394E-14 -0.88817841970E-15  0.25377090055E+04  0.25388886187E+04  0.77384894343E+02 0.  0.
         66    2    3    3    0    0 -0.94516864118E+01 -0.53934778001E+01  0.24870159151E+04  0.24870405276E+04  0.19999932900E+01 0.  0.
        -13    1    3    3    0    0  0.94516864118E+01  0.53934778001E+01  0.50693090388E+02  0.51848091150E+02  0.10566000000E+00 0.  1.
         13    1    4    4    0    0 -0.46723732959E+01 -0.27489705855E+01  0.12113353616E+04  0.12113474965E+04  0.10566000000E+00 0. -1.
        -13    1    4    4    0    0 -0.59788158165E+00 -0.52506659857E-01  0.78321390409E+02  0.78323761266E+02  0.10566000000E+00 0.  1.
        -14    1    4    4    0    0 -0.41814315342E+01 -0.25920005547E+01  0.11973591631E+04  0.11973692698E+04  0.00000000000E+00 0.  1.
<mgrwt>
<rscale>  0 0.77384894E+02</rscale>
<asrwt>0</asrwt>
<pdfrwt beam="1">  1        2 0.39051144E+00 0.77384894E+02</pdfrwt>
<pdfrwt beam="2">  1       -1 0.90738569E-04 0.77384894E+02</pdfrwt>
<totfact> 0.22322361E+05</totfact>
</mgrwt>
</event>
<event>
 8    1  0.2561077E-016  0.8165651E+02  0.7818608E-02  0.1324415E+00
         -1   -1    0    0    0  501 -0.00000000000E+00  0.00000000000E+00  0.22460411917E+02  0.22460412483E+02  0.50400000000E-02 0.  1.
          2   -1    0    0  501    0  0.00000000000E+00 -0.00000000000E+00 -0.74217084734E+02  0.74217084778E+02  0.25500000000E-02 0. -1.
         24    2    1    2    0    0  0.00000000000E+00  0.44408920985E-15 -0.51756672817E+02  0.96677497261E+02  0.81656507980E+02 0.  0.
         66    2    3    3    0    0  0.38602312452E+02 -0.36212032629E+01 -0.40948644715E+02  0.56427326141E+02  0.19999979293E+01 0.  0.
        -13    1    3    3    0    0 -0.38602312452E+02  0.36212032629E+01 -0.10808028102E+02  0.40250171120E+02  0.10566000000E+00 0.  1.
         13    1    4    4    0    0  0.31483802433E+02 -0.30140640119E+01 -0.32342608091E+02  0.45236819734E+02  0.10566000000E+00 0. -1.
        -13    1    4    4    0    0  0.50187769925E+01 -0.27901223596E+00 -0.60377434784E+01  0.78569383779E+01  0.10566000000E+00 0.  1.
         14    1    4    4    0    0  0.20997330263E+01 -0.32812701503E+00 -0.25682931465E+01  0.33335680293E+01  0.00000000000E+00 0. -1.
<mgrwt>
<rscale>  0 0.81656508E+02</rscale>
<asrwt>0</asrwt>
<pdfrwt beam="1">  1        2 0.11418013E-01 0.81656508E+02</pdfrwt>
<pdfrwt beam="2">  1       -1 0.34554481E-02 0.81656508E+02</pdfrwt>
<totfact> 0.15497807E+05</totfact>
</mgrwt>
</event>
<event>
 8    1  0.2561077E-016  0.7892904E+02  0.7818608E-02  0.1332118E+00
         -1   -1    0    0    0  501 -0.00000000000E+00  0.00000000000E+00  0.92164793978E+01  0.92164807759E+01  0.50400000000E-02 0.  1.
          2   -1    0    0  501    0  0.00000000000E+00 -0.00000000000E+00 -0.16898515346E+03  0.16898515348E+03  0.25500000000E-02 0. -1.
         24    2    1    2    0    0 -0.35527136788E-14  0.00000000000E+00 -0.15976867406E+03  0.17820163426E+03  0.78929039267E+02 0.  0.
         66    2    3    3    0    0  0.21556953577E+02 -0.24367365923E+02 -0.13026712639E+03  0.13428326397E+03  0.19999985993E+01 0.  0.
        -13    1    3    3    0    0 -0.21556953577E+02  0.24367365923E+02 -0.29501547670E+02  0.43918370285E+02  0.10566000000E+00 0.  1.
         13    1    4    4    0    0  0.14579657718E+02 -0.17031571735E+02 -0.88950055285E+02  0.91732024693E+02  0.10566000000E+00 0. -1.
        -13    1    4    4    0    0  0.12480021250E+01 -0.10217958648E+01 -0.79007502597E+01  0.80644029410E+01  0.10566000000E+00 0.  1.
        -14    1    4    4    0    0  0.57292937338E+01 -0.63139983231E+01 -0.33416320848E+02  0.34486836337E+02  0.00000000000E+00 0.  1.
<mgrwt>
<rscale>  0 0.78929039E+02</rscale>
<asrwt>0</asrwt>
<pdfrwt beam="1">  1        2 0.25997714E-01 0.78929039E+02</pdfrwt>
<pdfrwt beam="2">  1       -1 0.14179201E-02 0.78929039E+02</pdfrwt>
<totfact> 0.21583656E+05</totfact>
</mgrwt>
</event>
<event>
 8    1  0.2561077E-016  0.7971807E+02  0.7818608E-02  0.1329853E+00
          2   -1    0    0  501    0  0.00000000000E+00  0.00000000000E+00  0.81498608186E+02  0.81498608226E+02  0.25500000000E-02 0. -1.
         -1   -1    0    0    0  501 -0.00000000000E+00 -0.00000000000E+00 -0.19494106914E+02  0.19494107566E+02  0.50400000000E-02 0.  1.
         24    2    1    2    0    0 -0.44408920985E-15  0.00000000000E+00  0.62004501272E+02  0.10099271579E+03  0.79718068623E+02 0.  0.
         66    2    3    3    0    0  0.31918811697E+01  0.37098538953E+02  0.48949111466E+02  0.61534585263E+02  0.19999930737E+01 0.  0.
        -13    1    3    3    0    0 -0.31918811697E+01 -0.37098538953E+02  0.13055389806E+02  0.39458130529E+02  0.10566000000E+00 0.  1.
         13    1    4    4    0    0 -0.44153886577E-01  0.12500169472E+01  0.12691170073E+01  0.17850249152E+01  0.10566000000E+00 0. -1.
        -13    1    4    4    0    0  0.16724498214E+01  0.16502855978E+02  0.22749751587E+02  0.28154994320E+02  0.10566000000E+00 0.  1.
         14    1    4    4    0    0  0.15635852349E+01  0.19345666028E+02  0.24930242871E+02  0.31594566028E+02  0.00000000000E+00 0. -1.
<mgrwt>
<rscale>  0 0.79718069E+02</rscale>
<asrwt>0</asrwt>
<pdfrwt beam="1">  1        2 0.12538247E-01 0.79718069E+02</pdfrwt>
<pdfrwt beam="2">  1       -1 0.29990934E-02 0.79718069E+02</pdfrwt>
<totfact> 0.16936023E+05</totfact>
</mgrwt>
</event>
<event>
 8    1  0.2561077E-016  0.7963291E+02  0.7818608E-02  0.1330096E+00
          2   -1    0    0  501    0  0.00000000000E+00  0.00000000000E+00  0.24825546865E+03  0.24825546867E+03  0.25500000000E-02 0. -1.
         -1   -1    0    0    0  501 -0.00000000000E+00 -0.00000000000E+00 -0.63859607030E+01  0.63859626919E+01  0.50400000000E-02 0.  1.
         24    2    1    2    0    0  0.71054273576E-14  0.00000000000E+00  0.24186950795E+03  0.25464143136E+03  0.79632905812E+02 0.  0.
         66    2    3    3    0    0 -0.36125206362E+02  0.12141949099E+02  0.15759435267E+03  0.16214942941E+03  0.20000005733E+01 0.  0.
        -13    1    3    3    0    0  0.36125206362E+02 -0.12141949099E+02  0.84275155278E+02  0.92492001944E+02  0.10566000000E+00 0.  1.
         13    1    4    4    0    0 -0.22779293684E+02  0.68445910803E+01  0.97220611163E+02  0.10008797653E+03  0.10566000000E+00 0.  1.
        -13    1    4    4    0    0 -0.34907373784E+01  0.16940902020E+01  0.16364846184E+02  0.16818874627E+02  0.10566000000E+00 0. -1.
        -14    1    4    4    0    0 -0.98551752991E+01  0.36032678169E+01  0.44008895326E+02  0.45242578252E+02  0.00000000000E+00 0.  1.
<mgrwt>
<rscale>  0 0.79632906E+02</rscale>
<asrwt>0</asrwt>
<pdfrwt beam="1">  1        2 0.38193143E-01 0.79632906E+02</pdfrwt>
<pdfrwt beam="2">  1       -1 0.98245580E-03 0.79632906E+02</pdfrwt>
<totfact> 0.24098181E+05</totfact>
</mgrwt>
</event>
<event>
 8    1  0.2561077E-016  0.7878751E+02  0.7818608E-02  0.1332528E+00
         -1   -1    0    0    0  501 -0.00000000000E+00  0.00000000000E+00  0.17017218946E+02  0.17017219692E+02  0.50400000000E-02 0.  1.
          2   -1    0    0  501    0  0.00000000000E+00 -0.00000000000E+00 -0.91193985391E+02  0.91193985427E+02  0.25500000000E-02 0. -1.
         24    2    1    2    0    0 -0.35527136788E-14  0.00000000000E+00 -0.74176766445E+02  0.10821120512E+03  0.78787513180E+02 0.  0.
         66    2    3    3    0    0  0.15342529518E+02 -0.32032831314E+02 -0.60435413993E+02  0.70127988012E+02  0.19999860274E+01 0.  0.
        -13    1    3    3    0    0 -0.15342529518E+02  0.32032831314E+02 -0.13741352453E+02  0.38083217108E+02  0.10566000000E+00 0.  1.
         13    1    4    4    0    0  0.18500091795E+01 -0.49953111503E+01 -0.85706077188E+01  0.10091687082E+02  0.10566000000E+00 0. -1.
        -13    1    4    4    0    0  0.24705697020E+01 -0.48223391790E+01 -0.84757203459E+01  0.10060202246E+02  0.10566000000E+00 0.  1.
         14    1    4    4    0    0  0.11021950636E+02 -0.22215180985E+02 -0.43389085928E+02  0.49976098684E+02  0.00000000000E+00 0. -1.
<mgrwt>
<rscale>  0 0.78787513E+02</rscale>
<asrwt>0</asrwt>
<pdfrwt beam="1">  1        2 0.14029844E-01 0.78787513E+02</pdfrwt>
<pdfrwt beam="2">  1       -1 0.26180338E-02 0.78787513E+02</pdfrwt>
<totfact> 0.18004837E+05</totfact>
</mgrwt>
</event>
<event>
 8    1  0.2561077E-016  0.7982667E+02  0.7818608E-02  0.1329544E+00
         -1   -1    0    0    0  501 -0.00000000000E+00  0.00000000000E+00  0.70251233287E+01  0.70251251366E+01  0.50400000000E-02 0.  1.
          2   -1    0    0  501    0  0.00000000000E+00 -0.00000000000E+00 -0.22676815574E+03  0.22676815576E+03  0.25500000000E-02 0. -1.
         24    2    1    2    0    0 -0.17763568394E-14  0.00000000000E+00 -0.21974303241E+03  0.23379328089E+03  0.79826674091E+02 0.  0.
         66    2    3    3    0    0 -0.15827313902E+02  0.96590134930E+01 -0.21337447135E+03  0.21418792088E+03  0.20000052973E+01 0.  0.
        -13    1    3    3    0    0  0.15827313902E+02 -0.96590134930E+01 -0.63685610608E+01  0.19605360008E+02  0.10566000000E+00 0.  1.
         13    1    4    4    0    0 -0.16222658872E+01  0.49625843341E+00 -0.16737012077E+02  0.16823101865E+02  0.10566000000E+00 0. -1.
        -13    1    4    4    0    0 -0.12916835974E+01  0.70265495736E+00 -0.14829409935E+02  0.14902507626E+02  0.10566000000E+00 0.  1.
         14    1    4    4    0    0 -0.12913364417E+02  0.84601001022E+01 -0.18180804934E+03  0.18246231139E+03  0.00000000000E+00 0. -1.
<mgrwt>
<rscale>  0 0.79826674E+02</rscale>
<asrwt>0</asrwt>
<pdfrwt beam="1">  1        2 0.34887403E-01 0.79826674E+02</pdfrwt>
<pdfrwt beam="2">  1       -1 0.10807885E-02 0.79826674E+02</pdfrwt>
<totfact> 0.23184937E+05</totfact>
</mgrwt>
</event>
<event>
 8    1  0.2561077E-016  0.8198589E+02  0.7818608E-02  0.1323508E+00
         -1   -1    0    0    0  501 -0.00000000000E+00  0.00000000000E+00  0.28199373033E+02  0.28199373483E+02  0.50400000000E-02 0.  1.
          2   -1    0    0  501    0  0.00000000000E+00 -0.00000000000E+00 -0.59590734920E+02  0.59590734974E+02  0.25500000000E-02 0. -1.
         24    2    1    2    0    0 -0.35527136788E-14  0.00000000000E+00 -0.31391361887E+02  0.87790108458E+02  0.81985886236E+02 0.  0.
         66    2    3    3    0    0 -0.23809575567E+02  0.13645097033E+02 -0.48277806216E+02  0.55568256744E+02  0.20000057088E+01 0.  0.
        -13    1    3    3    0    0  0.23809575567E+02 -0.13645097033E+02  0.16886444329E+02  0.32221851713E+02  0.10566000000E+00 0.  1.
         13    1    4    4    0    0 -0.76528580750E+01  0.43749258679E+01 -0.16789598434E+02  0.18963332847E+02  0.10566000000E+00 0. -1.
        -13    1    4    4    0    0 -0.96578942337E+00  0.35301043410E+00 -0.14089684733E+01  0.17474901348E+01  0.10566000000E+00 0.  1.
        -14    1    4    4    0    0 -0.15190928068E+02  0.89171607312E+01 -0.30079239309E+02  0.34857433762E+02  0.00000000000E+00 0.  1.
<mgrwt>
<rscale>  0 0.81985886E+02</rscale>
<asrwt>0</asrwt>
<pdfrwt beam="1">  1        2 0.91678054E-02 0.81985886E+02</pdfrwt>
<pdfrwt beam="2">  1       -1 0.43383651E-02 0.81985886E+02</pdfrwt>
<totfact> 0.14536709E+05</totfact>
</mgrwt>
</event>
<event>
 8    1  0.2561077E-016  0.8013259E+02  0.7818608E-02  0.1328676E+00
         -1   -1    0    0    0  501 -0.00000000000E+00  0.00000000000E+00  0.17494718540E+03  0.17494718547E+03  0.50400000000E-02 0.  1.
          2   -1    0    0  501    0  0.00000000000E+00 -0.00000000000E+00 -0.91759572537E+01  0.91759576080E+01  0.25500000000E-02 0. -1.
         24    2    1    2    0    0  0.17763568394E-14  0.00000000000E+00  0.16577122814E+03  0.18412314308E+03  0.80132588480E+02 0.  0.
         66    2    3    3    0    0 -0.12218246160E+02 -0.35131918305E+02  0.11699981326E+03  0.12278637355E+03  0.20000005265E+01 0.  0.
        -13    1    3    3    0    0  0.12218246160E+02  0.35131918305E+02  0.48771414879E+02  0.61336769530E+02  0.10566000000E+00 0.  1.
         13    1    4    4    0    0 -0.98022722014E+01 -0.28368907160E+02  0.92552900918E+02  0.97298150373E+02  0.10566000000E+00 0. -1.
        -13    1    4    4    0    0 -0.19525049522E+01 -0.60381417824E+01  0.21785037621E+02  0.22690757148E+02  0.10566000000E+00 0.  1.
        -14    1    4    4    0    0 -0.46346900670E+00 -0.72486936221E+00  0.26618747240E+01  0.27974660246E+01  0.00000000000E+00 0.  1.
<mgrwt>
<rscale>  0 0.80132588E+02</rscale>
<asrwt>0</asrwt>
<pdfrwt beam="1">  1        2 0.14116858E-02 0.80132588E+02</pdfrwt>
<pdfrwt beam="2">  1       -1 0.26914950E-01 0.80132588E+02</pdfrwt>
<totfact> 0.10311367E+05</totfact>
</mgrwt>
</event>
<event>
 8    1  0.2561077E-016  0.7994852E+02  0.7818608E-02  0.1329198E+00
          2   -1    0    0  501    0  0.00000000000E+00  0.00000000000E+00  0.16061424557E+02  0.16061424760E+02  0.25500000000E-02 0. -1.
         -1   -1    0    0    0  501 -0.00000000000E+00 -0.00000000000E+00 -0.99489387391E+02  0.99489387519E+02  0.50400000000E-02 0.  1.
         24    2    1    2    0    0  0.00000000000E+00 -0.35527136788E-14 -0.83427962834E+02  0.11555081228E+03  0.79948516156E+02 0.  0.
         66    2    3    3    0    0 -0.19249524827E+02  0.27739501470E+02 -0.10879496003E+02  0.35530094015E+02  0.19999998959E+01 0.  0.
        -13    1    3    3    0    0  0.19249524827E+02 -0.27739501470E+02 -0.72548466831E+02  0.80020718264E+02  0.10566000000E+00 0.  1.
         13    1    4    4    0    0 -0.14594420405E+02  0.21827296587E+02 -0.89693192808E+01  0.27746852716E+02  0.10566000000E+00 0. -1.
        -13    1    4    4    0    0 -0.16780073046E+01  0.23464680560E+01 -0.50763127573E+00  0.29309511084E+01  0.10566000000E+00 0.  1.
         14    1    4    4    0    0 -0.29770971167E+01  0.35657368268E+01 -0.14025454462E+01  0.48522901901E+01  0.00000000000E+00 0. -1.
<mgrwt>
<rscale>  0 0.79948516E+02</rscale>
<asrwt>0</asrwt>
<pdfrwt beam="1">  1        2 0.24709885E-02 0.79948516E+02</pdfrwt>
<pdfrwt beam="2">  1       -1 0.15306059E-01 0.79948516E+02</pdfrwt>
<totfact> 0.11885050E+05</totfact>
</mgrwt>
</event>
<event>
 8    1  0.2561077E-016  0.8099343E+02  0.7818608E-02  0.1326256E+00
         -1   -1    0    0    0  501 -0.00000000000E+00  0.00000000000E+00  0.40463352237E+01  0.40463383625E+01  0.50400000000E-02 0.  1.
          2   -1    0    0  501    0  0.00000000000E+00 -0.00000000000E+00 -0.40530089408E+03  0.40530089409E+03  0.25500000000E-02 0. -1.
         24    2    1    2    0    0  0.00000000000E+00  0.00000000000E+00 -0.40125455885E+03  0.40934723245E+03  0.80993430054E+02 0.  0.
         66    2    3    3    0    0  0.14333563257E+02  0.19811466113E+02 -0.36374108135E+03  0.36456757877E+03  0.20000006044E+01 0.  0.
        -13    1    3    3    0    0 -0.14333563257E+02 -0.19811466113E+02 -0.37513477506E+02  0.44779653682E+02  0.10566000000E+00 0.  1.
         13    1    4    4    0    0  0.47055251595E+01  0.72551910221E+01 -0.13828822209E+03  0.13855837505E+03  0.10566000000E+00 0. -1.
        -13    1    4    4    0    0  0.26618834600E+01  0.36196425197E+01 -0.58672909993E+02  0.58844787081E+02  0.10566000000E+00 0.  1.
         14    1    4    4    0    0  0.69661546377E+01  0.89366325715E+01 -0.16677994926E+03  0.16716441663E+03  0.00000000000E+00 0. -1.
<mgrwt>
<rscale>  0 0.80993430E+02</rscale>
<asrwt>0</asrwt>
<pdfrwt beam="1">  1        2 0.62353952E-01 0.80993430E+02</pdfrwt>
<pdfrwt beam="2">  1       -1 0.62251367E-03 0.80993430E+02</pdfrwt>
<totfact> 0.27482828E+05</totfact>
</mgrwt>
</event>
<event>
 8    1  0.2561077E-016  0.7172065E+02  0.7818608E-02  0.1354338E+00
          2   -1    0    0  501    0  0.00000000000E+00  0.00000000000E+00  0.15280530912E+03  0.15280530914E+03  0.25500000000E-02 0. -1.
         -1   -1    0    0    0  501 -0.00000000000E+00 -0.00000000000E+00 -0.84156935033E+01  0.84156950124E+01  0.50400000000E-02 0.  1.
         24    2    1    2    0    0  0.17763568394E-14 -0.17763568394E-14  0.14438961561E+03  0.16122100415E+03  0.71720646137E+02 0.  0.
         66    2    3    3    0    0  0.12269330743E+02 -0.96297402695E+01  0.14476749185E+03  0.14561900655E+03  0.19999992779E+01 0.  0.
        -13    1    3    3    0    0 -0.12269330743E+02  0.96297402695E+01 -0.37787624069E+00  0.15601997598E+02  0.10566000000E+00 0.  1.
         13    1    4    4    0    0  0.49489901542E+01 -0.36817624261E+01  0.53384241717E+02  0.53739522754E+02  0.10566000000E+00 0.  1.
        -13    1    4    4    0    0  0.14395939839E+01 -0.14362666980E+01  0.25313702338E+02  0.25395471702E+02  0.10566000000E+00 0. -1.
         14    1    4    4    0    0  0.58807466054E+01 -0.45117111454E+01  0.66069547798E+02  0.66484012095E+02  0.00000000000E+00 0. -1.
<mgrwt>
<rscale>  0 0.71720646E+02</rscale>
<asrwt>0</asrwt>
<pdfrwt beam="1">  1        2 0.23508509E-01 0.71720646E+02</pdfrwt>
<pdfrwt beam="2">  1       -1 0.12947222E-02 0.71720646E+02</pdfrwt>
<totfact> 0.26870843E+05</totfact>
</mgrwt>
</event>
<event>
 8    1  0.2561077E-016  0.7488540E+02  0.7818608E-02  0.1344226E+00
          2   -1    0    0  501    0  0.00000000000E+00  0.00000000000E+00  0.37419439498E+02  0.37419439585E+02  0.25500000000E-02 0. -1.
         -1   -1    0    0    0  501 -0.00000000000E+00 -0.00000000000E+00 -0.37465972309E+02  0.37465972648E+02  0.50400000000E-02 0.  1.
         24    2    1    2    0    0  0.00000000000E+00  0.17763568394E-14 -0.46532810807E-01  0.74885412233E+02  0.74885397776E+02 0.  0.
         66    2    3    3    0    0  0.23107780364E+02  0.13804977709E+02  0.25965256094E+02  0.37453190165E+02  0.20000016391E+01 0.  0.
        -13    1    3    3    0    0 -0.23107780364E+02 -0.13804977709E+02 -0.26011788905E+02  0.37432222068E+02  0.10566000000E+00 0.  1.
         13    1    4    4    0    0  0.10397766651E+01  0.60137680352E+00  0.10593844499E+01  0.16050697871E+01  0.10566000000E+00 0. -1.
        -13    1    4    4    0    0  0.62411783873E+01  0.29764828308E+01  0.60062552584E+01  0.91595864519E+01  0.10566000000E+00 0. -1.
         14    1    4    4    0    0  0.15826825312E+02  0.10227118075E+02  0.18899616386E+02  0.26688533926E+02  0.00000000000E+00 0. -1.
<mgrwt>
<rscale>  0 0.74885398E+02</rscale>
<asrwt>0</asrwt>
<pdfrwt beam="1">  1        2 0.57568368E-02 0.74885398E+02</pdfrwt>
<pdfrwt beam="2">  1       -1 0.57639958E-02 0.74885398E+02</pdfrwt>
<totfact> 0.16872902E+05</totfact>
</mgrwt>
</event>
<event>
 8    1  0.2561077E-016  0.7912444E+02  0.7818608E-02  0.1331555E+00
         -1   -1    0    0    0  501 -0.00000000000E+00  0.00000000000E+00  0.51014397123E+02  0.51014397372E+02  0.50400000000E-02 0.  1.
          2   -1    0    0  501    0  0.00000000000E+00 -0.00000000000E+00 -0.30680932706E+02  0.30680932812E+02  0.25500000000E-02 0. -1.
         24    2    1    2    0    0  0.00000000000E+00  0.00000000000E+00  0.20333464418E+02  0.81695330184E+02  0.79124441222E+02 0.  0.
         66    2    3    3    0    0 -0.96373372813E+01 -0.21499143979E+02 -0.22608571235E+02  0.32714506878E+02  0.20000013237E+01 0.  0.
        -13    1    3    3    0    0  0.96373372813E+01  0.21499143979E+02  0.42942035653E+02  0.48980823306E+02  0.10566000000E+00 0.  1.
         13    1    4    4    0    0 -0.29151522957E+01 -0.73255963801E+01 -0.66727246700E+01  0.10329515661E+02  0.10566000000E+00 0. -1.
        -13    1    4    4    0    0 -0.10481424131E+01 -0.27070855991E+01 -0.34252781875E+01  0.44911701879E+01  0.10566000000E+00 0.  1.
         14    1    4    4    0    0 -0.56740425725E+01 -0.11466462000E+02 -0.12510568377E+02  0.17893821029E+02  0.00000000000E+00 0. -1.
<mgrwt>
<rscale>  0 0.79124441E+02</rscale>
<asrwt>0</asrwt>
<pdfrwt beam="1">  1        2 0.47201436E-02 0.79124441E+02</pdfrwt>
<pdfrwt beam="2">  1       -1 0.78483687E-02 0.79124441E+02</pdfrwt>
<totfact> 0.13937479E+05</totfact>
</mgrwt>
</event>
<event>
 8    1  0.2561077E-016  0.7765087E+02  0.7818608E-02  0.1335853E+00
         -1   -1    0    0    0  501 -0.00000000000E+00  0.00000000000E+00  0.38462521549E+01  0.38462554570E+01  0.50400000000E-02 0.  1.
          2   -1    0    0  501    0  0.00000000000E+00 -0.00000000000E+00 -0.39191756915E+03  0.39191756916E+03  0.25500000000E-02 0. -1.
         24    2    1    2    0    0  0.88817841970E-15 -0.71054273576E-14 -0.38807131700E+03  0.39576382462E+03  0.77650871211E+02 0.  0.
         66    2    3    3    0    0 -0.58904567404E+01  0.38349059508E+02 -0.19289819459E+03  0.19677159683E+03  0.19999992484E+01 0.  0.
        -13    1    3    3    0    0  0.58904567404E+01 -0.38349059508E+02 -0.19517312241E+03  0.19899222779E+03  0.10566000000E+00 0.  1.
         13    1    4    4    0    0 -0.40045547902E+01  0.22860407355E+02 -0.11444697600E+03  0.11677652231E+03  0.10566000000E+00 0. -1.
        -13    1    4    4    0    0 -0.15034050265E+01  0.12554810304E+02 -0.61312817333E+02  0.62603164631E+02  0.10566000000E+00 0.  1.
        -14    1    4    4    0    0 -0.38249692364E+00  0.29338418486E+01 -0.17138401257E+02  0.17391909887E+02  0.00000000000E+00 0.  1.
<mgrwt>
<rscale>  0 0.77650871E+02</rscale>
<asrwt>0</asrwt>
<pdfrwt beam="1">  1        2 0.60294979E-01 0.77650871E+02</pdfrwt>
<pdfrwt beam="2">  1       -1 0.59173167E-03 0.77650871E+02</pdfrwt>
<totfact> 0.30320505E+05</totfact>
</mgrwt>
</event>
<event>
 8    1  0.2561077E-016  0.7950804E+02  0.7818608E-02  0.1330453E+00
         -1   -1    0    0    0  501 -0.00000000000E+00  0.00000000000E+00  0.12653390709E+01  0.12653491084E+01  0.50400000000E-02 0.  1.
          2   -1    0    0  501    0  0.00000000000E+00 -0.00000000000E+00 -0.12489743292E+04  0.12489743292E+04  0.25500000000E-02 0. -1.
         24    2    1    2    0    0 -0.35527136788E-14 -0.22204460493E-15 -0.12477089902E+04  0.12502396783E+04  0.79508044715E+02 0.  0.
         66    2    3    3    0    0 -0.22620673922E+02 -0.12976162676E+01 -0.11374127926E+04  0.11376402065E+04  0.20000000296E+01 0.  0.
        -13    1    3    3    0    0  0.22620673922E+02  0.12976162676E+01 -0.11029619754E+03  0.11259947182E+03  0.10566000000E+00 0.  1.
         13    1    4    4    0    0 -0.90581601928E+00 -0.62990528653E-01 -0.67509663367E+02  0.67515852082E+02  0.10566000000E+00 0. -1.
        -13    1    4    4    0    0 -0.74326178786E+01 -0.64407675807E+00 -0.37502742112E+03  0.37510163476E+03  0.10566000000E+00 0.  1.
         14    1    4    4    0    0 -0.14282240024E+02 -0.59054898084E+00 -0.69487570813E+03  0.69502271969E+03  0.00000000000E+00 0. -1.
<mgrwt>
<rscale>  0 0.79508045E+02</rscale>
<asrwt>0</asrwt>
<pdfrwt beam="1">  1        2 0.19214891E+00 0.79508045E+02</pdfrwt>
<pdfrwt beam="2">  1       -1 0.19466932E-03 0.79508045E+02</pdfrwt>
<totfact> 0.35418670E+05</totfact>
</mgrwt>
</event>
<event>
 8    1  0.2561077E-016  0.7988915E+02  0.7818608E-02  0.1329366E+00
          2   -1    0    0  501    0  0.00000000000E+00  0.00000000000E+00  0.67316608180E+02  0.67316608228E+02  0.25500000000E-02 0. -1.
         -1   -1    0    0    0  501 -0.00000000000E+00 -0.00000000000E+00 -0.23702458307E+02  0.23702458842E+02  0.50400000000E-02 0.  1.
         24    2    1    2    0    0  0.00000000000E+00  0.00000000000E+00  0.43614149874E+02  0.91019067071E+02  0.79889151336E+02 0.  0.
         66    2    3    3    0    0 -0.12652041185E+02  0.18384289109E+02  0.59530339673E+02  0.63607527640E+02  0.19999996701E+01 0.  0.
        -13    1    3    3    0    0  0.12652041185E+02 -0.18384289109E+02 -0.15916189800E+02  0.27411539431E+02  0.10566000000E+00 0.  1.
         13    1    4    4    0    0 -0.17694815576E+01  0.26798837208E+01  0.93630700390E+01  0.98990447181E+01  0.10566000000E+00 0. -1.
        -13    1    4    4    0    0 -0.15679089034E+01  0.28587430433E+01  0.71839742540E+01  0.78899556548E+01  0.10566000000E+00 0.  1.
         14    1    4    4    0    0 -0.93146507236E+01  0.12845662345E+02  0.42983295380E+02  0.45818527267E+02  0.00000000000E+00 0. -1.
<mgrwt>
<rscale>  0 0.79889151E+02</rscale>
<asrwt>0</asrwt>
<pdfrwt beam="1">  1        2 0.10356401E-01 0.79889151E+02</pdfrwt>
<pdfrwt beam="2">  1       -1 0.36465321E-02 0.79889151E+02</pdfrwt>
<totfact> 0.16054424E+05</totfact>
</mgrwt>
</event>
<event>
 8    1  0.2561077E-016  0.7465526E+02  0.7818608E-02  0.1344942E+00
          2   -1    0    0  501    0  0.00000000000E+00  0.00000000000E+00  0.14258129145E+02  0.14258129373E+02  0.25500000000E-02 0. -1.
         -1   -1    0    0    0  501 -0.00000000000E+00 -0.00000000000E+00 -0.97723330508E+02  0.97723330638E+02  0.50400000000E-02 0.  1.
         24    2    1    2    0    0  0.00000000000E+00  0.35527136788E-14 -0.83465201362E+02  0.11198146001E+03  0.74655258005E+02 0.  0.
         66    2    3    3    0    0  0.30871024987E+02 -0.18764665559E+02 -0.27834908797E+02  0.45649917950E+02  0.20000009414E+01 0.  0.
        -13    1    3    3    0    0 -0.30871024987E+02  0.18764665559E+02 -0.55630292566E+02  0.66331542062E+02  0.10566000000E+00 0.  1.
         13    1    4    4    0    0  0.14331875783E+01 -0.13016757080E+01 -0.17129609795E+01  0.25872351335E+01  0.10566000000E+00 0. -1.
        -13    1    4    4    0    0  0.71982272908E+01 -0.44542091156E+01 -0.61567597377E+01  0.10467631512E+02  0.10566000000E+00 0.  1.
         14    1    4    4    0    0  0.22239610118E+02 -0.13008780736E+02 -0.19965188079E+02  0.32595051304E+02  0.00000000000E+00 0. -1.
<mgrwt>
<rscale>  0 0.74655258E+02</rscale>
<asrwt>0</asrwt>
<pdfrwt beam="1">  1        2 0.21935584E-02 0.74655258E+02</pdfrwt>
<pdfrwt beam="2">  1       -1 0.15034358E-01 0.74655258E+02</pdfrwt>
<totfact> 0.14148971E+05</totfact>
</mgrwt>
</event>
<event>
 8    1  0.2561077E-016  0.8203533E+02  0.7818608E-02  0.1323373E+00
          2   -1    0    0  501    0  0.00000000000E+00  0.00000000000E+00  0.20456173908E+03  0.20456173909E+03  0.25500000000E-02 0. -1.
         -1   -1    0    0    0  501 -0.00000000000E+00 -0.00000000000E+00 -0.82246500605E+01  0.82246516047E+01  0.50400000000E-02 0.  1.
         24    2    1    2    0    0  0.22204460493E-15  0.35527136788E-14  0.19633708902E+03  0.21278639070E+03  0.82035331063E+02 0.  0.
         66    2    3    3    0    0 -0.18133406876E+01 -0.16026703727E+02  0.19598039015E+03  0.19665313824E+03  0.20000042037E+01 0.  0.
        -13    1    3    3    0    0  0.18133406876E+01  0.16026703727E+02  0.35669886157E+00  0.16133252459E+02  0.10566000000E+00 0.  1.
         13    1    4    4    0    0  0.55962568573E-01 -0.42590421914E+01  0.48852490207E+02  0.49037939758E+02  0.10566000000E+00 0. -1.
        -13    1    4    4    0    0 -0.12494498951E+01 -0.88570598347E+01  0.10344728115E+03  0.10383332690E+03  0.10566000000E+00 0.  1.
        -14    1    4    4    0    0 -0.61985336107E+00 -0.29106017010E+01  0.43680618794E+02  0.43781871576E+02  0.00000000000E+00 0.  1.
<mgrwt>
<rscale>  0 0.82035331E+02</rscale>
<asrwt>0</asrwt>
<pdfrwt beam="1">  1        2 0.31471038E-01 0.82035331E+02</pdfrwt>
<pdfrwt beam="2">  1       -1 0.12653309E-02 0.82035331E+02</pdfrwt>
<totfact> 0.20805069E+05</totfact>
</mgrwt>
</event>
<event>
 8    1  0.2561077E-016  0.8360505E+02  0.7818608E-02  0.1319121E+00
          2   -1    0    0  501    0  0.00000000000E+00  0.00000000000E+00  0.16105490827E+04  0.16105490827E+04  0.25500000000E-02 0. -1.
         -1   -1    0    0    0  501 -0.00000000000E+00 -0.00000000000E+00 -0.10849974001E+01  0.10850091059E+01  0.50400000000E-02 0.  1.
         24    2    1    2    0    0  0.00000000000E+00  0.00000000000E+00  0.16094640853E+04  0.16116340918E+04  0.83605047738E+02 0.  0.
         66    2    3    3    0    0 -0.16853520402E+02 -0.98718790584E+01  0.15171147375E+04  0.15172417809E+04  0.19999933188E+01 0.  0.
        -13    1    3    3    0    0  0.16853520402E+02  0.98718790584E+01  0.92349347797E+02  0.94392310855E+02  0.10566000000E+00 0.  1.
         13    1    4    4    0    0 -0.10590518390E+02 -0.64516332657E+01  0.94888174708E+03  0.94896278312E+03  0.10566000000E+00 0. -1.
        -13    1    4    4    0    0 -0.41094880743E+01 -0.21398573676E+01  0.40970601219E+03  0.40973222288E+03  0.10566000000E+00 0.  1.
        -14    1    4    4    0    0 -0.21535139374E+01 -0.12803884251E+01  0.15852697819E+03  0.15854677490E+03  0.00000000000E+00 0.  1.
<mgrwt>
<rscale>  0 0.83605048E+02</rscale>
<asrwt>0</asrwt>
<pdfrwt beam="1">  1        2 0.24777612E+00 0.83605048E+02</pdfrwt>
<pdfrwt beam="2">  1       -1 0.16692402E-03 0.83605048E+02</pdfrwt>
<totfact> 0.28748989E+05</totfact>
</mgrwt>
</event>
<event>
 8    1  0.2561077E-016  0.8056445E+02  0.7818608E-02  0.1327457E+00
          2   -1    0    0  501    0  0.00000000000E+00  0.00000000000E+00  0.25918935080E+03  0.25918935081E+03  0.25500000000E-02 0. -1.
         -1   -1    0    0    0  501 -0.00000000000E+00 -0.00000000000E+00 -0.62605097005E+01  0.62605117292E+01  0.50400000000E-02 0.  1.
         24    2    1    2    0    0  0.00000000000E+00  0.00000000000E+00  0.25292884110E+03  0.26544986254E+03  0.80564451611E+02 0.  0.
         66    2    3    3    0    0 -0.37239230492E+02 -0.12648229253E+02  0.98214877472E+02  0.10581540606E+03  0.20000029717E+01 0.  0.
        -13    1    3    3    0    0  0.37239230492E+02  0.12648229253E+02  0.15471396363E+03  0.15963445648E+03  0.10566000000E+00 0.  1.
         13    1    4    4    0    0 -0.15500262520E+02 -0.55602663976E+01  0.42007433971E+02  0.45119955380E+02  0.10566000000E+00 0. -1.
        -13    1    4    4    0    0 -0.20095859488E+02 -0.67793743570E+01  0.51311396081E+02  0.55521833696E+02  0.10566000000E+00 0.  1.
        -14    1    4    4    0    0 -0.16431084840E+01 -0.30858849839E+00  0.48960474195E+01  0.51736169829E+01  0.00000000000E+00 0.  1.
<mgrwt>
<rscale>  0 0.80564452E+02</rscale>
<asrwt>0</asrwt>
<pdfrwt beam="1">  1        2 0.39875278E-01 0.80564452E+02</pdfrwt>
<pdfrwt beam="2">  1       -1 0.96315566E-03 0.80564452E+02</pdfrwt>
<totfact> 0.23737231E+05</totfact>
</mgrwt>
</event>
<event>
 8    1  0.2561077E-016  0.8809031E+02  0.7818608E-02  0.1307543E+00
          2   -1    0    0  501    0  0.00000000000E+00  0.00000000000E+00  0.12141434535E+04  0.12141434536E+04  0.25500000000E-02 0. -1.
         -1   -1    0    0    0  501 -0.00000000000E+00 -0.00000000000E+00 -0.15978101753E+01  0.15978181242E+01  0.50400000000E-02 0.  1.
         24    2    1    2    0    0  0.00000000000E+00  0.00000000000E+00  0.12125456434E+04  0.12157412717E+04  0.88090308158E+02 0.  0.
         66    2    3    3    0    0 -0.33520568082E+01 -0.13661130880E+02  0.11822909232E+04  0.11823762895E+04  0.19999994391E+01 0.  0.
        -13    1    3    3    0    0  0.33520568082E+01  0.13661130880E+02  0.30254720152E+02  0.33364982201E+02  0.10566000000E+00 0.  1.
         13    1    4    4    0    0 -0.15002500907E+01 -0.62469501350E+01  0.47834360093E+03  0.47838675447E+03  0.10566000000E+00 0. -1.
        -13    1    4    4    0    0 -0.24418283109E+00 -0.95023491504E+00  0.64918884667E+02  0.64926383868E+02  0.10566000000E+00 0.  1.
         14    1    4    4    0    0 -0.16076238864E+01 -0.64639458301E+01  0.63902843762E+03  0.63906315114E+03  0.00000000000E+00 0. -1.
<mgrwt>
<rscale>  0 0.88090308E+02</rscale>
<asrwt>0</asrwt>
<pdfrwt beam="1">  1        2 0.18679099E+00 0.88090308E+02</pdfrwt>
<pdfrwt beam="2">  1       -1 0.24581797E-03 0.88090308E+02</pdfrwt>
<totfact> 0.27213048E+05</totfact>
</mgrwt>
</event>
<event>
 8    1  0.2561077E-016  0.8076032E+02  0.7818608E-02  0.1326907E+00
         -1   -1    0    0    0  501 -0.00000000000E+00  0.00000000000E+00  0.25938533931E+02  0.25938534421E+02  0.50400000000E-02 0.  1.
          2   -1    0    0  501    0  0.00000000000E+00 -0.00000000000E+00 -0.62862360676E+02  0.62862360728E+02  0.25500000000E-02 0. -1.
         24    2    1    2    0    0  0.71054273576E-14 -0.17763568394E-14 -0.36923826745E+02  0.88800895149E+02  0.80760324403E+02 0.  0.
         66    2    3    3    0    0  0.39140971938E+02 -0.75318023776E+01 -0.11535611646E+02  0.41542918454E+02  0.20000015796E+01 0.  0.
        -13    1    3    3    0    0 -0.39140971938E+02  0.75318023776E+01 -0.25388215100E+02  0.47257976695E+02  0.10566000000E+00 0.  1.
         13    1    4    4    0    0  0.25706887822E+02 -0.58467902311E+01 -0.76038188292E+01  0.27438262743E+02  0.10566000000E+00 0. -1.
        -13    1    4    4    0    0  0.11787647093E+02 -0.16010296532E+01 -0.34979185702E+01  0.12399940254E+02  0.10566000000E+00 0.  1.
        -14    1    4    4    0    0  0.16464370226E+01 -0.83982493316E-01 -0.43387424644E+00  0.17047154573E+01  0.00000000000E+00 0.  1.
<mgrwt>
<rscale>  0 0.80760324E+02</rscale>
<asrwt>0</asrwt>
<pdfrwt beam="1">  1        2 0.96711324E-02 0.80760324E+02</pdfrwt>
<pdfrwt beam="2">  1       -1 0.39905437E-02 0.80760324E+02</pdfrwt>
<totfact> 0.15336603E+05</totfact>
</mgrwt>
</event>
<event>
 8    1  0.2561077E-016  0.8213766E+02  0.7818608E-02  0.1323092E+00
         -1   -1    0    0    0  501 -0.00000000000E+00  0.00000000000E+00  0.48908501444E+01  0.48908527413E+01  0.50400000000E-02 0.  1.
          2   -1    0    0  501    0  0.00000000000E+00 -0.00000000000E+00 -0.34485793022E+03  0.34485793023E+03  0.25500000000E-02 0. -1.
         24    2    1    2    0    0  0.00000000000E+00  0.00000000000E+00 -0.33996708008E+03  0.34974878297E+03  0.82137662825E+02 0.  0.
         66    2    3    3    0    0 -0.27267173899E+02 -0.20117969927E+02 -0.26870365251E+03  0.27083922234E+03  0.19999998099E+01 0.  0.
        -13    1    3    3    0    0  0.27267173899E+02  0.20117969927E+02 -0.71263427563E+02  0.78909560628E+02  0.10566000000E+00 0.  1.
         13    1    4    4    0    0 -0.43019464422E+01 -0.23931258229E+01 -0.38328144224E+02  0.38643131318E+02  0.10566000000E+00 0. -1.
        -13    1    4    4    0    0 -0.10699197311E+02 -0.84913816666E+01 -0.10588916196E+03  0.10676657796E+03  0.10566000000E+00 0.  1.
         14    1    4    4    0    0 -0.12266030147E+02 -0.92334624374E+01 -0.12448634633E+03  0.12542951306E+03  0.00000000000E+00 0. -1.
<mgrwt>
<rscale>  0 0.82137663E+02</rscale>
<asrwt>0</asrwt>
<pdfrwt beam="1">  1        2 0.53055047E-01 0.82137663E+02</pdfrwt>
<pdfrwt beam="2">  1       -1 0.75243895E-03 0.82137663E+02</pdfrwt>
<totfact> 0.25017557E+05</totfact>
</mgrwt>
</event>
<event>
 8    1  0.2561077E-016  0.7935980E+02  0.7818608E-02  0.1330878E+00
         -1   -1    0    0    0  501 -0.00000000000E+00  0.00000000000E+00  0.43437438693E+02  0.43437438985E+02  0.50400000000E-02 0.  1.
          2   -1    0    0  501    0  0.00000000000E+00 -0.00000000000E+00 -0.36247405220E+02  0.36247405310E+02  0.25500000000E-02 0. -1.
         24    2    1    2    0    0  0.00000000000E+00 -0.16653345369E-15  0.71900334728E+01  0.79684844295E+02  0.79359799829E+02 0.  0.
         66    2    3    3    0    0  0.18705828621E+02  0.45582866103E+00 -0.31508368081E+02  0.36700041736E+02  0.20000000384E+01 0.  0.
        -13    1    3    3    0    0 -0.18705828621E+02 -0.45582866103E+00  0.38698401554E+02  0.42984802559E+02  0.10566000000E+00 0.  1.
         13    1    4    4    0    0  0.10319976362E+02  0.42900552778E+00 -0.18154585097E+02  0.20887462315E+02  0.10566000000E+00 0. -1.
        -13    1    4    4    0    0  0.43591869124E+01 -0.84223442595E-01 -0.58608577119E+01  0.73055062303E+01  0.10566000000E+00 0.  1.
        -14    1    4    4    0    0  0.40266653463E+01  0.11104657584E+00 -0.74929252716E+01  0.85070731911E+01  0.00000000000E+00 0.  1.
<mgrwt>
<rscale>  0 0.79359800E+02</rscale>
<asrwt>0</asrwt>
<pdfrwt beam="1">  1        2 0.55765239E-02 0.79359800E+02</pdfrwt>
<pdfrwt beam="2">  1       -1 0.66826829E-02 0.79359800E+02</pdfrwt>
<totfact> 0.14287178E+05</totfact>
</mgrwt>
</event>
<event>
 8    1  0.2561077E-016  0.7796056E+02  0.7818608E-02  0.1334941E+00
         -1   -1    0    0    0  501 -0.00000000000E+00  0.00000000000E+00  0.40586649933E+02  0.40586650246E+02  0.50400000000E-02 0.  1.
          2   -1    0    0  501    0  0.00000000000E+00 -0.00000000000E+00 -0.37437488116E+02  0.37437488203E+02  0.25500000000E-02 0. -1.
         24    2    1    2    0    0  0.00000000000E+00 -0.17763568394E-14  0.31491618176E+01  0.78024138449E+02  0.77960560289E+02 0.  0.
         66    2    3    3    0    0  0.17679574580E+02  0.14895343924E+02 -0.29803083696E+02  0.37771184813E+02  0.19999941205E+01 0.  0.
        -13    1    3    3    0    0 -0.17679574580E+02 -0.14895343924E+02  0.32952245514E+02  0.40252953635E+02  0.10566000000E+00 0.  1.
         13    1    4    4    0    0  0.27293291935E+01  0.16436888701E+01 -0.43828349395E+01  0.54195347670E+01  0.10566000000E+00 0. -1.
        -13    1    4    4    0    0  0.14613725627E+02  0.13147346769E+02 -0.24928996129E+02  0.31747121378E+02  0.10566000000E+00 0.  1.
        -14    1    4    4    0    0  0.33651975946E+00  0.10430828492E+00 -0.49125262707E+00  0.60452866798E+00  0.00000000000E+00 0.  1.
<mgrwt>
<rscale>  0 0.77960560E+02</rscale>
<asrwt>0</asrwt>
<pdfrwt beam="1">  1        2 0.57596136E-02 0.77960560E+02</pdfrwt>
<pdfrwt beam="2">  1       -1 0.62441000E-02 0.77960560E+02</pdfrwt>
<totfact> 0.15105555E+05</totfact>
</mgrwt>
</event>
<event>
 8    1  0.2561077E-016  0.8068713E+02  0.7818608E-02  0.1327113E+00
          2   -1    0    0  501    0  0.00000000000E+00  0.00000000000E+00  0.16775609635E+03  0.16775609637E+03  0.25500000000E-02 0. -1.
         -1   -1    0    0    0  501 -0.00000000000E+00 -0.00000000000E+00 -0.97021993050E+01  0.97022006141E+01  0.50400000000E-02 0.  1.
         24    2    1    2    0    0  0.00000000000E+00  0.00000000000E+00  0.15805389704E+03  0.17745829698E+03  0.80687129067E+02 0.  0.
         66    2    3    3    0    0 -0.11513937305E+02  0.28704735262E+02  0.13596411972E+03  0.13945169223E+03  0.20000088238E+01 0.  0.
        -13    1    3    3    0    0  0.11513937305E+02 -0.28704735262E+02  0.22089777325E+02  0.38006604755E+02  0.10566000000E+00 0.  1.
         13    1    4    4    0    0 -0.71681364521E+01  0.15881865015E+02  0.75046778202E+02  0.77043143102E+02  0.10566000000E+00 0. -1.
        -13    1    4    4    0    0 -0.86417100277E+00  0.17820660409E+01  0.86412708058E+01  0.88659616552E+01  0.10566000000E+00 0.  1.
         14    1    4    4    0    0 -0.34816298506E+01  0.11040804206E+02  0.52276070712E+02  0.53542587470E+02  0.00000000000E+00 0. -1.
<mgrwt>
<rscale>  0 0.80687129E+02</rscale>
<asrwt>0</asrwt>
<pdfrwt beam="1">  1        2 0.25808629E-01 0.80687129E+02</pdfrwt>
<pdfrwt beam="2">  1       -1 0.14926463E-02 0.80687129E+02</pdfrwt>
<totfact> 0.20311823E+05</totfact>
</mgrwt>
</event>
<event>
 8    1  0.2561077E-016  0.8441400E+02  0.7818608E-02  0.1316972E+00
          2   -1    0    0  501    0  0.00000000000E+00  0.00000000000E+00  0.16896101938E+03  0.16896101940E+03  0.25500000000E-02 0. -1.
         -1   -1    0    0    0  501 -0.00000000000E+00 -0.00000000000E+00 -0.10543442058E+02  0.10543443263E+02  0.50400000000E-02 0.  1.
         24    2    1    2    0    0  0.00000000000E+00 -0.71054273576E-14  0.15841757732E+03  0.17950446266E+03  0.84413999498E+02 0.  0.
         66    2    3    3    0    0  0.60197831945E+01 -0.38381897216E+02  0.11419588108E+03  0.12064040396E+03  0.19999975075E+01 0.  0.
        -13    1    3    3    0    0 -0.60197831945E+01  0.38381897216E+02  0.44221696243E+02  0.58864058697E+02  0.10566000000E+00 0.  1.
         13    1    4    4    0    0  0.49598748040E+01 -0.31066793876E+02  0.92668393404E+02  0.97863110210E+02  0.10566000000E+00 0. -1.
        -13    1    4    4    0    0  0.22129715773E+00 -0.11493742496E+01  0.44093637002E+01  0.45632976973E+01  0.10566000000E+00 0.  1.
        -14    1    4    4    0    0  0.83861123276E+00 -0.61657290901E+01  0.17118123972E+02  0.18213996057E+02  0.00000000000E+00 0.  1.
<mgrwt>
<rscale>  0 0.84413999E+02</rscale>
<asrwt>0</asrwt>
<pdfrwt beam="1">  1        2 0.25994004E-01 0.84413999E+02</pdfrwt>
<pdfrwt beam="2">  1       -1 0.16220681E-02 0.84413999E+02</pdfrwt>
<totfact> 0.18059271E+05</totfact>
</mgrwt>
</event>
<event>
 8    1  0.2561077E-016  0.7750633E+02  0.7818608E-02  0.1336281E+00
          2   -1    0    0  501    0  0.00000000000E+00  0.00000000000E+00  0.17676467695E+03  0.17676467697E+03  0.25500000000E-02 0. -1.
         -1   -1    0    0    0  501 -0.00000000000E+00 -0.00000000000E+00 -0.84960848348E+01  0.84960863297E+01  0.50400000000E-02 0.  1.
         24    2    1    2    0    0 -0.17763568394E-14  0.00000000000E+00  0.16826859212E+03  0.18526076330E+03  0.77506330873E+02 0.  0.
         66    2    3    3    0    0 -0.13074962446E+02  0.10430239626E+02  0.16768056821E+03  0.16852453081E+03  0.19999976405E+01 0.  0.
        -13    1    3    3    0    0  0.13074962446E+02 -0.10430239626E+02  0.58802390907E+00  0.16736232484E+02  0.10566000000E+00 0.  1.
         13    1    4    4    0    0 -0.99733579729E+01  0.83855333910E+01  0.12792700040E+03  0.12858893279E+03  0.10566000000E+00 0. -1.
        -13    1    4    4    0    0 -0.31367885759E+01  0.20334439111E+01  0.38433991218E+02  0.38615504421E+02  0.10566000000E+00 0.  1.
        -14    1    4    4    0    0  0.35184103014E-01  0.11262323542E-01  0.13195765863E+01  0.13200936058E+01  0.00000000000E+00 0.  1.
<mgrwt>
<rscale>  0 0.77506331E+02</rscale>
<asrwt>0</asrwt>
<pdfrwt beam="1">  1        2 0.27194563E-01 0.77506331E+02</pdfrwt>
<pdfrwt beam="2">  1       -1 0.13070902E-02 0.77506331E+02</pdfrwt>
<totfact> 0.22987895E+05</totfact>
</mgrwt>
</event>
<event>
 8    1  0.2561077E-016  0.7138662E+02  0.7818608E-02  0.1355440E+00
         -1   -1    0    0    0  501 -0.00000000000E+00  0.00000000000E+00  0.42001830500E+01  0.42001860739E+01  0.50400000000E-02 0.  1.
          2   -1    0    0  501    0  0.00000000000E+00 -0.00000000000E+00 -0.30332291805E+03  0.30332291806E+03  0.25500000000E-02 0. -1.
         24    2    1    2    0    0 -0.88817841970E-15  0.00000000000E+00 -0.29912273500E+03  0.30752310414E+03  0.71386616272E+02 0.  0.
         66    2    3    3    0    0  0.66181623062E+01  0.86593208873E+01 -0.29596946500E+03  0.29617681900E+03  0.19999983021E+01 0.  0.
        -13    1    3    3    0    0 -0.66181623062E+01 -0.86593208873E+01 -0.31532700021E+01  0.11346285131E+02  0.10566000000E+00 0.  1.
         13    1    4    4    0    0  0.19740168392E+01  0.22489975823E+01 -0.94753835521E+02  0.94801135239E+02  0.10566000000E+00 0. -1.
        -13    1    4    4    0    0  0.48785279567E+00  0.15124678191E+01 -0.44318211107E+02  0.44346821296E+02  0.10566000000E+00 0.  1.
         14    1    4    4    0    0  0.41562926713E+01  0.48978554859E+01 -0.15689741837E+03  0.15702886247E+03  0.00000000000E+00 0. -1.
<mgrwt>
<rscale>  0 0.71386616E+02</rscale>
<asrwt>0</asrwt>
<pdfrwt beam="1">  1        2 0.46665047E-01 0.71386616E+02</pdfrwt>
<pdfrwt beam="2">  1       -1 0.64618248E-03 0.71386616E+02</pdfrwt>
<totfact> 0.34438864E+05</totfact>
</mgrwt>
</event>
<event>
 8    1  0.2561077E-016  0.8353675E+02  0.7818608E-02  0.1319304E+00
         -1   -1    0    0    0  501 -0.00000000000E+00  0.00000000000E+00  0.16567383799E+03  0.16567383806E+03  0.50400000000E-02 0.  1.
          2   -1    0    0  501    0  0.00000000000E+00 -0.00000000000E+00 -0.10530311474E+02  0.10530311783E+02  0.25500000000E-02 0. -1.
         24    2    1    2    0    0  0.35527136788E-14  0.00000000000E+00  0.15514352651E+03  0.17620414985E+03  0.83536750022E+02 0.  0.
         66    2    3    3    0    0  0.27902097999E+02 -0.22444981307E+02  0.32362482957E+02  0.48307707052E+02  0.19999997334E+01 0.  0.
        -13    1    3    3    0    0 -0.27902097999E+02  0.22444981307E+02  0.12278104356E+03  0.12789644279E+03  0.10566000000E+00 0.  1.
         13    1    4    4    0    0  0.10773591930E+02 -0.94766237607E+01  0.12478711683E+02  0.19015943055E+02  0.10566000000E+00 0. -1.
        -13    1    4    4    0    0  0.24988761364E+01 -0.23024930598E+01  0.29229892320E+01  0.44834012002E+01  0.10566000000E+00 0.  1.
         14    1    4    4    0    0  0.14629629932E+02 -0.10665864486E+02  0.16960782042E+02  0.24808362797E+02  0.00000000000E+00 0. -1.
<mgrwt>
<rscale>  0 0.83536750E+02</rscale>
<asrwt>0</asrwt>
<pdfrwt beam="1">  1        2 0.16200481E-02 0.83536750E+02</pdfrwt>
<pdfrwt beam="2">  1       -1 0.25488281E-01 0.83536750E+02</pdfrwt>
<totfact> 0.94182234E+04</totfact>
</mgrwt>
</event>
<event>
 8    1  0.2561077E-016  0.8021218E+02  0.7818608E-02  0.1328450E+00
         -1   -1    0    0    0  501 -0.00000000000E+00  0.00000000000E+00  0.16780497808E+01  0.16780573496E+01  0.50400000000E-02 0.  1.
          2   -1    0    0  501    0  0.00000000000E+00 -0.00000000000E+00 -0.95855008759E+03  0.95855008760E+03  0.25500000000E-02 0. -1.
         24    2    1    2    0    0  0.00000000000E+00  0.17763568394E-14 -0.95687203781E+03  0.96022814495E+03  0.80212178624E+02 0.  0.
         66    2    3    3    0    0  0.26927811633E+02 -0.15816383955E+02 -0.77949769307E+03  0.78012557867E+03  0.19999901000E+01 0.  0.
        -13    1    3    3    0    0 -0.26927811633E+02  0.15816383955E+02 -0.17737434475E+03  0.18010256628E+03  0.10566000000E+00 0.  1.
         13    1    4    4    0    0  0.68233883904E+01 -0.34085947349E+01 -0.19257578005E+03  0.19272679983E+03  0.10566000000E+00 0. -1.
        -13    1    4    4    0    0  0.28727665557E+01 -0.21794357412E+01 -0.98095895050E+02  0.98162205138E+02  0.10566000000E+00 0.  1.
        -14    1    4    4    0    0  0.17231656687E+02 -0.10228353479E+02 -0.48882601796E+03  0.48923657370E+03  0.00000000000E+00 0.  1.
<mgrwt>
<rscale>  0 0.80212179E+02</rscale>
<asrwt>0</asrwt>
<pdfrwt beam="1">  1        2 0.14746881E+00 0.80212179E+02</pdfrwt>
<pdfrwt beam="2">  1       -1 0.25816285E-03 0.80212179E+02</pdfrwt>
<totfact> 0.34906117E+05</totfact>
</mgrwt>
</event>
<event>
 8    1  0.2561077E-016  0.8246525E+02  0.7818608E-02  0.1322197E+00
         -1   -1    0    0    0  501 -0.00000000000E+00  0.00000000000E+00  0.19524963245E+02  0.19524963896E+02  0.50400000000E-02 0.  1.
          2   -1    0    0  501    0  0.00000000000E+00 -0.00000000000E+00 -0.87074651572E+02  0.87074651610E+02  0.25500000000E-02 0. -1.
         24    2    1    2    0    0  0.22204460493E-15 -0.35527136788E-14 -0.67549688327E+02  0.10659961551E+03  0.82465251063E+02 0.  0.
         66    2    3    3    0    0 -0.18263469537E+01  0.30742781361E+02 -0.69187851876E+02  0.75758913619E+02  0.19999991429E+01 0.  0.
        -13    1    3    3    0    0  0.18263469537E+01 -0.30742781361E+02  0.16381635490E+01  0.30840701886E+02  0.10566000000E+00 0.  1.
         13    1    4    4    0    0 -0.18450675893E+01  0.20633530754E+02 -0.45130761469E+02  0.49658268804E+02  0.10566000000E+00 0. -1.
        -13    1    4    4    0    0  0.16122019927E+00  0.77265809843E+01 -0.17920883050E+02  0.19516538089E+02  0.10566000000E+00 0.  1.
         14    1    4    4    0    0 -0.14249956376E+00  0.23826696228E+01 -0.61362073567E+01  0.65841067262E+01  0.00000000000E+00 0. -1.
<mgrwt>
<rscale>  0 0.82465251E+02</rscale>
<asrwt>0</asrwt>
<pdfrwt beam="1">  1        2 0.13396100E-01 0.82465251E+02</pdfrwt>
<pdfrwt beam="2">  1       -1 0.30038406E-02 0.82465251E+02</pdfrwt>
<totfact> 0.15729136E+05</totfact>
</mgrwt>
</event>
<event>
 8    1  0.2561077E-016  0.8820790E+02  0.7818608E-02  0.1307250E+00
         -1   -1    0    0    0  501 -0.00000000000E+00  0.00000000000E+00  0.46000389642E+01  0.46000417252E+01  0.50400000000E-02 0.  1.
          2   -1    0    0  501    0  0.00000000000E+00 -0.00000000000E+00 -0.42285676943E+03  0.42285676944E+03  0.25500000000E-02 0. -1.
         24    2    1    2    0    0  0.71054273576E-14  0.88817841970E-15 -0.41825673047E+03  0.42745681116E+03  0.88207895506E+02 0.  0.
         66    2    3    3    0    0 -0.43769137640E+02 -0.49042150114E+01 -0.20034686475E+03  0.20514057362E+03  0.19999989210E+01 0.  0.
        -13    1    3    3    0    0  0.43769137640E+02  0.49042150114E+01 -0.21790986572E+03  0.22231623755E+03  0.10566000000E+00 0.  1.
         13    1    4    4    0    0 -0.19467252317E+02 -0.20342568514E+01 -0.90395751950E+02  0.92490622488E+02  0.10566000000E+00 0. -1.
        -13    1    4    4    0    0 -0.19971707500E+02 -0.27769233291E+01 -0.91979882072E+02  0.94164166611E+02  0.10566000000E+00 0.  1.
        -14    1    4    4    0    0 -0.43301778218E+01 -0.93034830864E-01 -0.17971230725E+02  0.18485784517E+02  0.00000000000E+00 0.  1.
<mgrwt>
<rscale>  0 0.88207896E+02</rscale>
<asrwt>0</asrwt>
<pdfrwt beam="1">  1        2 0.65054857E-01 0.88207896E+02</pdfrwt>
<pdfrwt beam="2">  1       -1 0.70769885E-03 0.88207896E+02</pdfrwt>
<totfact> 0.22293309E+05</totfact>
</mgrwt>
</event>
<event>
 8    1  0.2561077E-016  0.8313390E+02  0.7818608E-02  0.1320386E+00
         -1   -1    0    0    0  501 -0.00000000000E+00  0.00000000000E+00  0.18334780868E+01  0.18334850140E+01  0.50400000000E-02 0.  1.
          2   -1    0    0  501    0  0.00000000000E+00 -0.00000000000E+00 -0.94236639710E+03  0.94236639710E+03  0.25500000000E-02 0. -1.
         24    2    1    2    0    0  0.00000000000E+00  0.44408920985E-15 -0.94053291901E+03  0.94419988211E+03  0.83133901887E+02 0.  0.
         66    2    3    3    0    0 -0.25271823624E+02 -0.34933222378E+01 -0.84291028171E+03  0.84329864899E+03  0.19999994843E+01 0.  0.
        -13    1    3    3    0    0  0.25271823624E+02  0.34933222378E+01 -0.97622637295E+02  0.10090123312E+03  0.10566000000E+00 0.  1.
         13    1    4    4    0    0 -0.53555897875E+01 -0.11022184161E+01 -0.16332175114E+03  0.16341328828E+03  0.10566000000E+00 0. -1.
        -13    1    4    4    0    0 -0.35802542637E+01 -0.78391038605E+00 -0.11745035993E+03  0.11750757825E+03  0.10566000000E+00 0.  1.
        -14    1    4    4    0    0 -0.16335979573E+02 -0.16071934357E+01 -0.56213817064E+03  0.56237778245E+03  0.00000000000E+00 0.  1.
<mgrwt>
<rscale>  0 0.83133902E+02</rscale>
<asrwt>0</asrwt>
<pdfrwt beam="1">  1        2 0.14497906E+00 0.83133902E+02</pdfrwt>
<pdfrwt beam="2">  1       -1 0.28207484E-03 0.83133902E+02</pdfrwt>
<totfact> 0.31762221E+05</totfact>
</mgrwt>
</event>
<event>
 8    1  0.2561077E-016  0.8841093E+02  0.7818608E-02  0.1306746E+00
         -1   -1    0    0    0  501 -0.00000000000E+00  0.00000000000E+00  0.81831004683E+02  0.81831004838E+02  0.50400000000E-02 0.  1.
          2   -1    0    0  501    0  0.00000000000E+00 -0.00000000000E+00 -0.23879982616E+02  0.23879982752E+02  0.25500000000E-02 0. -1.
         24    2    1    2    0    0  0.00000000000E+00  0.00000000000E+00  0.57951022067E+02  0.10571098759E+03  0.88410926580E+02 0.  0.
         66    2    3    3    0    0 -0.29564293380E+02 -0.14509123148E+02 -0.62275573842E+01  0.33575952261E+02  0.20000004231E+01 0.  0.
        -13    1    3    3    0    0  0.29564293380E+02  0.14509123148E+02  0.64178579451E+02  0.72135035329E+02  0.10566000000E+00 0.  1.
         13    1    4    4    0    0 -0.92739080736E+01 -0.40771923070E+01 -0.19955627240E+01  0.10325807605E+02  0.10566000000E+00 0. -1.
        -13    1    4    4    0    0 -0.68303312340E+01 -0.31220120851E+01 -0.79830022157E+00  0.75530676884E+01  0.10566000000E+00 0.  1.
        -14    1    4    4    0    0 -0.13460054072E+02 -0.73099187563E+01 -0.34336944387E+01  0.15697076968E+02  0.00000000000E+00 0.  1.
<mgrwt>
<rscale>  0 0.88410927E+02</rscale>
<asrwt>0</asrwt>
<pdfrwt beam="1">  1        2 0.36738435E-02 0.88410927E+02</pdfrwt>
<pdfrwt beam="2">  1       -1 0.12589385E-01 0.88410927E+02</pdfrwt>
<totfact> 0.96578350E+04</totfact>
</mgrwt>
</event>
<event>
 8    1  0.2561077E-016  0.7617380E+02  0.7818608E-02  0.1340274E+00
         -1   -1    0    0    0  501 -0.00000000000E+00  0.00000000000E+00  0.19780944871E+01  0.19781009078E+01  0.50400000000E-02 0.  1.
          2   -1    0    0  501    0  0.00000000000E+00 -0.00000000000E+00 -0.73333685679E+03  0.73333685680E+03  0.25500000000E-02 0. -1.
         24    2    1    2    0    0  0.00000000000E+00  0.00000000000E+00 -0.73135876231E+03  0.73531495771E+03  0.76173800111E+02 0.  0.
         66    2    3    3    0    0 -0.19698965867E+02  0.25392962078E+02 -0.56275866651E+03  0.56367913613E+03  0.20000008992E+01 0.  0.
        -13    1    3    3    0    0  0.19698965867E+02 -0.25392962078E+02 -0.16860009580E+03  0.17163582157E+03  0.10566000000E+00 0.  1.
         13    1    4    4    0    0 -0.76929371687E+01  0.10340887881E+02 -0.23991072525E+03  0.24025670126E+03  0.10566000000E+00 0. -1.
        -13    1    4    4    0    0 -0.48453647534E+01  0.57677134293E+01 -0.12123862740E+03  0.12147246608E+03  0.10566000000E+00 0.  1.
        -14    1    4    4    0    0 -0.71606639446E+01  0.92843607675E+01 -0.20160931386E+03  0.20194996880E+03  0.00000000000E+00 0.  1.
<mgrwt>
<rscale>  0 0.76173800E+02</rscale>
<asrwt>0</asrwt>
<pdfrwt beam="1">  1        2 0.11282084E+00 0.76173800E+02</pdfrwt>
<pdfrwt beam="2">  1       -1 0.30432331E-03 0.76173800E+02</pdfrwt>
<totfact> 0.38374240E+05</totfact>
</mgrwt>
</event>
<event>
 8    1  0.2561077E-016  0.7966363E+02  0.7818608E-02  0.1330009E+00
          2   -1    0    0  501    0  0.00000000000E+00  0.00000000000E+00  0.90762752130E+02  0.90762752166E+02  0.25500000000E-02 0. -1.
         -1   -1    0    0    0  501 -0.00000000000E+00 -0.00000000000E+00 -0.17480447298E+02  0.17480448025E+02  0.50400000000E-02 0.  1.
         24    2    1    2    0    0  0.00000000000E+00 -0.22204460493E-15  0.73282304832E+02  0.10824320019E+03  0.79663631514E+02 0.  0.
         66    2    3    3    0    0  0.34256397164E+02 -0.92109246513E+00  0.64184195683E+02  0.72787087712E+02  0.20000010094E+01 0.  0.
        -13    1    3    3    0    0 -0.34256397164E+02  0.92109246513E+00  0.90981091484E+01  0.35456112479E+02  0.10566000000E+00 0.  1.
         13    1    4    4    0    0  0.17944316204E+02 -0.67408076510E+00  0.34547634013E+02  0.38935883820E+02  0.10566000000E+00 0. -1.
        -13    1    4    4    0    0  0.10940895536E+02  0.36608636951E+00  0.19474929098E+02  0.22341021502E+02  0.10566000000E+00 0.  1.
        -14    1    4    4    0    0  0.53711854241E+01 -0.61309806955E+00  0.10161632573E+02  0.11510182390E+02  0.00000000000E+00 0.  1.
<mgrwt>
<rscale>  0 0.79663632E+02</rscale>
<asrwt>0</asrwt>
<pdfrwt beam="1">  1        2 0.13963500E-01 0.79663632E+02</pdfrwt>
<pdfrwt beam="2">  1       -1 0.26892997E-02 0.79663632E+02</pdfrwt>
<totfact> 0.17456284E+05</totfact>
</mgrwt>
</event>
<event>
 8    1  0.2561077E-016  0.7972150E+02  0.7818608E-02  0.1329844E+00
         -1   -1    0    0    0  501 -0.00000000000E+00  0.00000000000E+00  0.12028921741E+01  0.12029027326E+01  0.50400000000E-02 0.  1.
          2   -1    0    0  501    0  0.00000000000E+00 -0.00000000000E+00 -0.13208767685E+04  0.13208767685E+04  0.25500000000E-02 0. -1.
         24    2    1    2    0    0  0.35527136788E-14 -0.27755575616E-16 -0.13196738763E+04  0.13220796712E+04  0.79721497954E+02 0.  0.
         66    2    3    3    0    0  0.17040725618E+02 -0.12597047641E+00 -0.12573740280E+04  0.12574910928E+04  0.19999998257E+01 0.  0.
        -13    1    3    3    0    0 -0.17040725618E+02  0.12597047641E+00 -0.62299848349E+02  0.64588578452E+02  0.10566000000E+00 0.  1.
         13    1    4    4    0    0  0.12577518131E+02 -0.13364995900E+00 -0.86985966929E+03  0.86995061196E+03  0.10566000000E+00 0. -1.
        -13    1    4    4    0    0  0.17006266382E+01 -0.43290706035E-01 -0.17093891384E+03  0.17094741131E+03  0.10566000000E+00 0.  1.
        -14    1    4    4    0    0  0.27625808489E+01  0.50970188619E-01 -0.21657544482E+03  0.21659306949E+03  0.00000000000E+00 0.  1.
<mgrwt>
<rscale>  0 0.79721498E+02</rscale>
<asrwt>0</asrwt>
<pdfrwt beam="1">  1        2 0.20321065E+00 0.79721498E+02</pdfrwt>
<pdfrwt beam="2">  1       -1 0.18506220E-03 0.79721498E+02</pdfrwt>
<totfact> 0.34819222E+05</totfact>
</mgrwt>
</event>
<event>
 8    1  0.2561077E-016  0.7868515E+02  0.7818608E-02  0.1332825E+00
          2   -1    0    0  501    0  0.00000000000E+00  0.00000000000E+00  0.11700557771E+02  0.11700558049E+02  0.25500000000E-02 0. -1.
         -1   -1    0    0    0  501 -0.00000000000E+00 -0.00000000000E+00 -0.13228754276E+03  0.13228754286E+03  0.50400000000E-02 0.  1.
         24    2    1    2    0    0  0.00000000000E+00  0.00000000000E+00 -0.12058698499E+03  0.14398810091E+03  0.78685146334E+02 0.  0.
         66    2    3    3    0    0  0.18091745339E+02  0.19854812757E+02 -0.77937146428E+01  0.28040449621E+02  0.19999969900E+01 0.  0.
        -13    1    3    3    0    0 -0.18091745339E+02 -0.19854812757E+02 -0.11279327035E+03  0.11594765128E+03  0.10566000000E+00 0.  1.
         13    1    4    4    0    0  0.66030823812E+01  0.79979783226E+01 -0.21848036733E+01  0.10599664396E+02  0.10566000000E+00 0. -1.
        -13    1    4    4    0    0  0.45996991078E+01  0.46115769736E+01 -0.23605140862E+01  0.69287130733E+01  0.10566000000E+00 0.  1.
         14    1    4    4    0    0  0.68889638502E+01  0.72452574611E+01 -0.32483968833E+01  0.10512072151E+02  0.00000000000E+00 0. -1.
<mgrwt>
<rscale>  0 0.78685146E+02</rscale>
<asrwt>0</asrwt>
<pdfrwt beam="1">  1        2 0.18000859E-02 0.78685146E+02</pdfrwt>
<pdfrwt beam="2">  1       -1 0.20351929E-01 0.78685146E+02</pdfrwt>
<totfact> 0.11601410E+05</totfact>
</mgrwt>
</event>
<event>
 8    1  0.2561077E-016  0.8063650E+02  0.7818608E-02  0.1327255E+00
         -1   -1    0    0    0  501 -0.00000000000E+00  0.00000000000E+00  0.13225162932E+03  0.13225162941E+03  0.50400000000E-02 0.  1.
          2   -1    0    0  501    0  0.00000000000E+00 -0.00000000000E+00 -0.12291428512E+02  0.12291428776E+02  0.25500000000E-02 0. -1.
         24    2    1    2    0    0  0.00000000000E+00  0.00000000000E+00  0.11996020081E+03  0.14454305819E+03  0.80636504721E+02 0.  0.
         66    2    3    3    0    0 -0.32943934834E+02  0.13641027674E+02  0.26377712928E+02  0.44397795298E+02  0.20000023955E+01 0.  0.
        -13    1    3    3    0    0  0.32943934834E+02 -0.13641027674E+02  0.93582487878E+02  0.10014526289E+03  0.10566000000E+00 0.  1.
         13    1    4    4    0    0 -0.59003809829E+01  0.19499325343E+01  0.47678724297E+01  0.78332945925E+01  0.10566000000E+00 0.  1.
        -13    1    4    4    0    0 -0.15131069166E+02  0.64239610087E+01  0.11211034946E+02  0.19897612865E+02  0.10566000000E+00 0. -1.
        -14    1    4    4    0    0 -0.11912484685E+02  0.52671341313E+01  0.10398805553E+02  0.16666887840E+02  0.00000000000E+00 0.  1.
<mgrwt>
<rscale>  0 0.80636505E+02</rscale>
<asrwt>0</asrwt>
<pdfrwt beam="1">  1        2 0.18909892E-02 0.80636505E+02</pdfrwt>
<pdfrwt beam="2">  1       -1 0.20346403E-01 0.80636505E+02</pdfrwt>
<totfact> 0.10908216E+05</totfact>
</mgrwt>
</event>
<event>
 8    1  0.2561077E-016  0.8460767E+02  0.7818608E-02  0.1316462E+00
          2   -1    0    0  501    0  0.00000000000E+00  0.00000000000E+00  0.15514789857E+02  0.15514790067E+02  0.25500000000E-02 0. -1.
         -1   -1    0    0    0  501 -0.00000000000E+00 -0.00000000000E+00 -0.11534892913E+03  0.11534892924E+03  0.50400000000E-02 0.  1.
         24    2    1    2    0    0  0.00000000000E+00  0.00000000000E+00 -0.99834139277E+02  0.13086371931E+03  0.84607669078E+02 0.  0.
         66    2    3    3    0    0  0.31875527385E+02 -0.72755761078E+01 -0.84818554282E+01  0.33836742742E+02  0.20000085329E+01 0.  0.
        -13    1    3    3    0    0 -0.31875527385E+02  0.72755761078E+01 -0.91352283849E+02  0.97026976570E+02  0.10566000000E+00 0.  1.
         13    1    4    4    0    0  0.24666326725E+02 -0.49757703839E+01 -0.64045908310E+01  0.25965667963E+02  0.10566000000E+00 0. -1.
        -13    1    4    4    0    0  0.65392252806E+01 -0.21454851400E+01 -0.17127470112E+01  0.70929006843E+01  0.10566000000E+00 0.  1.
         14    1    4    4    0    0  0.66997537867E+00 -0.15432058390E+00 -0.36451758597E+00  0.77817409435E+00  0.00000000000E+00 0. -1.
<mgrwt>
<rscale>  0 0.84607669E+02</rscale>
<asrwt>0</asrwt>
<pdfrwt beam="1">  1        2 0.23868908E-02 0.84607669E+02</pdfrwt>
<pdfrwt beam="2">  1       -1 0.17745989E-01 0.84607669E+02</pdfrwt>
<totfact> 0.99828065E+04</totfact>
</mgrwt>
</event>
<event>
 8    1  0.2561077E-016  0.8222102E+02  0.7818608E-02  0.1322864E+00
         -1   -1    0    0    0  501 -0.00000000000E+00  0.00000000000E+00  0.98207547981E+01  0.98207560914E+01  0.50400000000E-02 0.  1.
          2   -1    0    0  501    0  0.00000000000E+00 -0.00000000000E+00 -0.17209206004E+03  0.17209206005E+03  0.25500000000E-02 0. -1.
         24    2    1    2    0    0 -0.23592239273E-15 -0.71054273576E-14 -0.16227130524E+03  0.18191281615E+03  0.82221020273E+02 0.  0.
         66    2    3    3    0    0 -0.63349194832E-01  0.34388048225E+02 -0.13092889996E+03  0.13538433662E+03  0.19999713048E+01 0.  0.
        -13    1    3    3    0    0  0.63349194832E-01 -0.34388048225E+02 -0.31342405282E+02  0.46528479523E+02  0.10566000000E+00 0.  1.
         13    1    4    4    0    0 -0.16836528619E+00  0.18302479841E+02 -0.69649210940E+02  0.72014115726E+02  0.10566000000E+00 0. -1.
        -13    1    4    4    0    0  0.72492075300E+00  0.91833585309E+01 -0.35087858939E+02  0.36277108388E+02  0.10566000000E+00 0.  1.
        -14    1    4    4    0    0 -0.61990466164E+00  0.69022098533E+01 -0.26191830077E+02  0.27093112509E+02  0.00000000000E+00 0.  1.
<mgrwt>
<rscale>  0 0.82221020E+02</rscale>
<asrwt>0</asrwt>
<pdfrwt beam="1">  1        2 0.26475699E-01 0.82221020E+02</pdfrwt>
<pdfrwt beam="2">  1       -1 0.15108856E-02 0.82221020E+02</pdfrwt>
<totfact> 0.19487933E+05</totfact>
</mgrwt>
</event>
<event>
 8    1  0.2561077E-016  0.6960484E+02  0.7818608E-02  0.1361442E+00
          2   -1    0    0  501    0  0.00000000000E+00  0.00000000000E+00  0.25642529657E+02  0.25642529784E+02  0.25500000000E-02 0. -1.
         -1   -1    0    0    0  501 -0.00000000000E+00 -0.00000000000E+00 -0.47234362005E+02  0.47234362274E+02  0.50400000000E-02 0.  1.
         24    2    1    2    0    0  0.00000000000E+00  0.00000000000E+00 -0.21591832348E+02  0.72876892058E+02  0.69604843020E+02 0.  0.
         66    2    3    3    0    0  0.50365300257E+01  0.10657322384E+02  0.23447890730E+02  0.26320120541E+02  0.20000026374E+01 0.  0.
        -13    1    3    3    0    0 -0.50365300257E+01 -0.10657322384E+02 -0.45039723077E+02  0.46556771516E+02  0.10566000000E+00 0.  1.
         13    1    4    4    0    0  0.13090542007E+01  0.36584983881E+01  0.86705626498E+01  0.95020026339E+01  0.10566000000E+00 0. -1.
        -13    1    4    4    0    0  0.30062910222E+00  0.12189353719E+01  0.17055104008E+01  0.21204035137E+01  0.10566000000E+00 0.  1.
         14    1    4    4    0    0  0.34268467227E+01  0.57798886239E+01  0.13071817679E+02  0.14697714394E+02  0.00000000000E+00 0. -1.
<mgrwt>
<rscale>  0 0.69604843E+02</rscale>
<asrwt>0</asrwt>
<pdfrwt beam="1">  1        2 0.39450046E-02 0.69604843E+02</pdfrwt>
<pdfrwt beam="2">  1       -1 0.72668250E-02 0.69604843E+02</pdfrwt>
<totfact> 0.19233797E+05</totfact>
</mgrwt>
</event>
<event>
 8    1  0.2561077E-016  0.8004900E+02  0.7818608E-02  0.1328912E+00
          2   -1    0    0  501    0  0.00000000000E+00  0.00000000000E+00  0.29857793224E+03  0.29857793225E+03  0.25500000000E-02 0. -1.
         -1   -1    0    0    0  501 -0.00000000000E+00 -0.00000000000E+00 -0.53653008025E+01  0.53653031697E+01  0.50400000000E-02 0.  1.
         24    2    1    2    0    0  0.00000000000E+00  0.00000000000E+00  0.29321263144E+03  0.30394323542E+03  0.80049004512E+02 0.  0.
         66    2    3    3    0    0  0.19266832696E+02  0.35043504868E+02  0.14352599471E+03  0.14900660820E+03  0.20000135727E+01 0.  0.
        -13    1    3    3    0    0 -0.19266832696E+02 -0.35043504868E+02  0.14968663673E+03  0.15493662722E+03  0.10566000000E+00 0.  1.
         13    1    4    4    0    0  0.65138450612E+00  0.87051187282E+00  0.45091160294E+01  0.46395456779E+01  0.10566000000E+00 0. -1.
        -13    1    4    4    0    0  0.44341122775E+01  0.90573273021E+01  0.37467972571E+02  0.38801503349E+02  0.10566000000E+00 0.  1.
         14    1    4    4    0    0  0.14181335913E+02  0.25115665693E+02  0.10154890611E+03  0.10556555917E+03  0.00000000000E+00 0. -1.
<mgrwt>
<rscale>  0 0.80049005E+02</rscale>
<asrwt>0</asrwt>
<pdfrwt beam="1">  1        2 0.45935064E-01 0.80049005E+02</pdfrwt>
<pdfrwt beam="2">  1       -1 0.82543113E-03 0.80049005E+02</pdfrwt>
<totfact> 0.25409833E+05</totfact>
</mgrwt>
</event>
<event>
 8    1  0.2561077E-016  0.7831312E+02  0.7818608E-02  0.1333908E+00
         -1   -1    0    0    0  501 -0.00000000000E+00  0.00000000000E+00  0.50161469439E+01  0.50161494759E+01  0.50400000000E-02 0.  1.
          2   -1    0    0  501    0  0.00000000000E+00 -0.00000000000E+00 -0.30566009949E+03  0.30566009950E+03  0.25500000000E-02 0. -1.
         24    2    1    2    0    0  0.00000000000E+00  0.00000000000E+00 -0.30064395255E+03  0.31067624898E+03  0.78313124543E+02 0.  0.
         66    2    3    3    0    0  0.14200946172E+02  0.16842955510E+02 -0.27871609709E+03  0.27959258717E+03  0.20000000955E+01 0.  0.
        -13    1    3    3    0    0 -0.14200946172E+02 -0.16842955510E+02 -0.21927855460E+02  0.31083661811E+02  0.10566000000E+00 0.  1.
         13    1    4    4    0    0  0.11249894682E+02  0.12855507731E+02 -0.21191783856E+03  0.21260528139E+03  0.10566000000E+00 0. -1.
        -13    1    4    4    0    0  0.48229568160E+00  0.65478737321E+00 -0.76541438691E+01  0.76979502488E+01  0.10566000000E+00 0.  1.
        -14    1    4    4    0    0  0.24687558084E+01  0.33326604050E+01 -0.59144114660E+02  0.59289355533E+02  0.00000000000E+00 0.  1.
<mgrwt>
<rscale>  0 0.78313125E+02</rscale>
<asrwt>0</asrwt>
<pdfrwt beam="1">  1        2 0.47024616E-01 0.78313125E+02</pdfrwt>
<pdfrwt beam="2">  1       -1 0.77171535E-03 0.78313125E+02</pdfrwt>
<totfact> 0.27140515E+05</totfact>
</mgrwt>
</event>
<event>
 8    1  0.2561077E-016  0.8020377E+02  0.7818608E-02  0.1328474E+00
          2   -1    0    0  501    0  0.00000000000E+00  0.00000000000E+00  0.50301131553E+03  0.50301131554E+03  0.25500000000E-02 0. -1.
         -1   -1    0    0    0  501 -0.00000000000E+00 -0.00000000000E+00 -0.31970654690E+01  0.31970694416E+01  0.50400000000E-02 0.  1.
         24    2    1    2    0    0 -0.35527136788E-14  0.35527136788E-14  0.49981425006E+03  0.50620838498E+03  0.80203768353E+02 0.  0.
         66    2    3    3    0    0 -0.25779983846E+02  0.28618764030E+02  0.31992216932E+03  0.32223878668E+03  0.19999987400E+01 0.  0.
        -13    1    3    3    0    0  0.25779983846E+02 -0.28618764030E+02  0.17989208074E+03  0.18396959830E+03  0.10566000000E+00 0.  1.
         13    1    4    4    0    0 -0.42411132022E+01  0.47778892237E+01  0.51325301476E+02  0.51721494587E+02  0.10566000000E+00 0. -1.
        -13    1    4    4    0    0 -0.13783239500E+02  0.14169453150E+02  0.16148859005E+03  0.16269396723E+03  0.10566000000E+00 0.  1.
        -14    1    4    4    0    0 -0.77556311431E+01  0.96714216568E+01  0.10710827780E+03  0.10782332486E+03  0.00000000000E+00 0.  1.
<mgrwt>
<rscale>  0 0.80203768E+02</rscale>
<asrwt>0</asrwt>
<pdfrwt beam="1">  1        2 0.77386361E-01 0.80203768E+02</pdfrwt>
<pdfrwt beam="2">  1       -1 0.49185651E-03 0.80203768E+02</pdfrwt>
<totfact> 0.30307940E+05</totfact>
</mgrwt>
</event>
<event>
 8    1  0.2561077E-016  0.7627553E+02  0.7818608E-02  0.1339966E+00
         -1   -1    0    0    0  501 -0.00000000000E+00  0.00000000000E+00  0.91036786101E+01  0.91036800053E+01  0.50400000000E-02 0.  1.
          2   -1    0    0  501    0  0.00000000000E+00 -0.00000000000E+00 -0.15976937292E+03  0.15976937294E+03  0.25500000000E-02 0. -1.
         24    2    1    2    0    0  0.00000000000E+00  0.00000000000E+00 -0.15066569431E+03  0.16887305294E+03  0.76275530606E+02 0.  0.
         66    2    3    3    0    0 -0.27508261552E+02 -0.67643093164E+01 -0.13183135501E+03  0.13485535409E+03  0.20000076324E+01 0.  0.
        -13    1    3    3    0    0  0.27508261552E+02  0.67643093164E+01 -0.18834339301E+02  0.34017698851E+02  0.10566000000E+00 0.  1.
         13    1    4    4    0    0 -0.18708612948E+02 -0.44590699360E+01 -0.89699382665E+02  0.91738137749E+02  0.10566000000E+00 0. -1.
        -13    1    4    4    0    0 -0.78812168777E+01 -0.22992786771E+01 -0.36609222863E+02  0.37518617040E+02  0.10566000000E+00 0.  1.
         14    1    4    4    0    0 -0.91843172573E+00 -0.59607032121E-02 -0.55227494790E+01  0.55985993045E+01  0.00000000000E+00 0. -1.
<mgrwt>
<rscale>  0 0.76275531E+02</rscale>
<asrwt>0</asrwt>
<pdfrwt beam="1">  1        2 0.24579901E-01 0.76275531E+02</pdfrwt>
<pdfrwt beam="2">  1       -1 0.14005662E-02 0.76275531E+02</pdfrwt>
<totfact> 0.23191047E+05</totfact>
</mgrwt>
</event>
<event>
 8    1  0.2561077E-016  0.7908676E+02  0.7818608E-02  0.1331663E+00
         -1   -1    0    0    0  501 -0.00000000000E+00  0.00000000000E+00  0.22739166108E+02  0.22739166667E+02  0.50400000000E-02 0.  1.
          2   -1    0    0  501    0  0.00000000000E+00 -0.00000000000E+00 -0.68765884410E+02  0.68765884457E+02  0.25500000000E-02 0. -1.
         24    2    1    2    0    0 -0.17763568394E-14  0.00000000000E+00 -0.46026718301E+02  0.91505051124E+02  0.79086759850E+02 0.  0.
         66    2    3    3    0    0  0.11724357102E+02 -0.13748881789E+02 -0.63691717520E+02  0.66235392216E+02  0.20000003816E+01 0.  0.
        -13    1    3    3    0    0 -0.11724357102E+02  0.13748881789E+02  0.17664999218E+02  0.25269658908E+02  0.10566000000E+00 0.  1.
         13    1    4    4    0    0  0.50981239867E+01 -0.61890930900E+01 -0.27676853749E+02  0.28815189379E+02  0.10566000000E+00 0. -1.
        -13    1    4    4    0    0  0.40983119698E+01 -0.46430289417E+01 -0.24714372552E+02  0.25478721581E+02  0.10566000000E+00 0.  1.
        -14    1    4    4    0    0  0.25279211453E+01 -0.29167597574E+01 -0.11300491219E+02  0.11941481256E+02  0.00000000000E+00 0.  1.
<mgrwt>
<rscale>  0 0.79086760E+02</rscale>
<asrwt>0</asrwt>
<pdfrwt beam="1">  1        2 0.10579367E-01 0.79086760E+02</pdfrwt>
<pdfrwt beam="2">  1       -1 0.34983333E-02 0.79086760E+02</pdfrwt>
<totfact> 0.16584135E+05</totfact>
</mgrwt>
</event>
<event>
 8    1  0.2561077E-016  0.7796158E+02  0.7818608E-02  0.1334938E+00
          2   -1    0    0  501    0  0.00000000000E+00  0.00000000000E+00  0.60451432037E+03  0.60451432038E+03  0.25500000000E-02 0. -1.
         -1   -1    0    0    0  501 -0.00000000000E+00 -0.00000000000E+00 -0.25135889639E+01  0.25135940167E+01  0.50400000000E-02 0.  1.
         24    2    1    2    0    0  0.00000000000E+00  0.00000000000E+00  0.60200073141E+03  0.60702791439E+03  0.77961581806E+02 0.  0.
         66    2    3    3    0    0  0.14076210602E+02 -0.11055538915E+02  0.57059885791E+03  0.57088301892E+03  0.19999992544E+01 0.  0.
        -13    1    3    3    0    0 -0.14076210602E+02  0.11055538915E+02  0.31401873498E+02  0.36144895474E+02  0.10566000000E+00 0.  1.
         13    1    4    4    0    0  0.11854556130E+01 -0.75092539981E+00  0.50169193631E+02  0.50188926543E+02  0.10566000000E+00 0. -1.
        -13    1    4    4    0    0  0.51550482304E+01 -0.38948282115E+01  0.17871297230E+03  0.17882975659E+03  0.10566000000E+00 0.  1.
         14    1    4    4    0    0  0.77357067589E+01 -0.64097853037E+01  0.34171669198E+03  0.34186433579E+03  0.00000000000E+00 0. -1.
<mgrwt>
<rscale>  0 0.77961582E+02</rscale>
<asrwt>0</asrwt>
<pdfrwt beam="1">  1        2 0.93002160E-01 0.77961582E+02</pdfrwt>
<pdfrwt beam="2">  1       -1 0.38670656E-03 0.77961582E+02</pdfrwt>
<totfact> 0.34466381E+05</totfact>
</mgrwt>
</event>
<event>
 8    1  0.2561077E-016  0.8235206E+02  0.7818608E-02  0.1322506E+00
         -1   -1    0    0    0  501 -0.00000000000E+00  0.00000000000E+00  0.38643538984E+03  0.38643538987E+03  0.50400000000E-02 0.  1.
          2   -1    0    0  501    0  0.00000000000E+00 -0.00000000000E+00 -0.43874485833E+01  0.43874493243E+01  0.25500000000E-02 0. -1.
         24    2    1    2    0    0  0.00000000000E+00 -0.35527136788E-14  0.38204794125E+03  0.39082283919E+03  0.82352062631E+02 0.  0.
         66    2    3    3    0    0  0.34462258167E+02  0.22209012358E+02  0.17430855669E+03  0.17907640940E+03  0.20000000417E+01 0.  0.
        -13    1    3    3    0    0 -0.34462258167E+02 -0.22209012358E+02  0.20773938456E+03  0.21174642979E+03  0.10566000000E+00 0.  1.
         13    1    4    4    0    0  0.29794136040E+01  0.24355141561E+01  0.16810177079E+02  0.17245342910E+02  0.10566000000E+00 0. -1.
        -13    1    4    4    0    0  0.10294141152E+02  0.64059106905E+01  0.53760452237E+02  0.55110819469E+02  0.10566000000E+00 0.  1.
        -14    1    4    4    0    0  0.21188703411E+02  0.13367587511E+02  0.10373792738E+03  0.10672024702E+03  0.00000000000E+00 0.  1.
<mgrwt>
<rscale>  0 0.82352063E+02</rscale>
<asrwt>0</asrwt>
<pdfrwt beam="1">  1        2 0.67499225E-03 0.82352063E+02</pdfrwt>
<pdfrwt beam="2">  1       -1 0.59451590E-01 0.82352063E+02</pdfrwt>
<totfact> 0.71590227E+04</totfact>
</mgrwt>
</event>
<event>
 8    1  0.2561077E-016  0.8005768E+02  0.7818608E-02  0.1328888E+00
          2   -1    0    0  501    0  0.00000000000E+00  0.00000000000E+00  0.91302276922E+02  0.91302276958E+02  0.25500000000E-02 0. -1.
         -1   -1    0    0    0  501 -0.00000000000E+00 -0.00000000000E+00 -0.17549484804E+02  0.17549485528E+02  0.50400000000E-02 0.  1.
         24    2    1    2    0    0  0.00000000000E+00  0.00000000000E+00  0.73752792118E+02  0.10885176249E+03  0.80057678277E+02 0.  0.
         66    2    3    3    0    0  0.31237058782E+02 -0.16096535885E+02  0.62891775446E+02  0.72070990932E+02  0.20000015894E+01 0.  0.
        -13    1    3    3    0    0 -0.31237058782E+02  0.16096535885E+02  0.10861016672E+02  0.36780771553E+02  0.10566000000E+00 0.  1.
         13    1    4    4    0    0  0.20863771489E+02 -0.11034561100E+02  0.42916771217E+02  0.48978759837E+02  0.10566000000E+00 0. -1.
        -13    1    4    4    0    0  0.30042579836E+01 -0.12140692303E+01  0.48637887579E+01  0.58452660542E+01  0.10566000000E+00 0.  1.
        -14    1    4    4    0    0  0.73690293099E+01 -0.38479055553E+01  0.15111215471E+02  0.17246965042E+02  0.00000000000E+00 0.  1.
<mgrwt>
<rscale>  0 0.80057678E+02</rscale>
<asrwt>0</asrwt>
<pdfrwt beam="1">  1        2 0.14046504E-01 0.80057678E+02</pdfrwt>
<pdfrwt beam="2">  1       -1 0.26999208E-02 0.80057678E+02</pdfrwt>
<totfact> 0.17254132E+05</totfact>
</mgrwt>
</event>
<event>
 8    1  0.2561077E-016  0.7604355E+02  0.7818608E-02  0.1340670E+00
          2   -1    0    0  501    0  0.00000000000E+00  0.00000000000E+00  0.94481675260E+01  0.94481678702E+01  0.25500000000E-02 0. -1.
         -1   -1    0    0    0  501 -0.00000000000E+00 -0.00000000000E+00 -0.15300907103E+03  0.15300907111E+03  0.50400000000E-02 0.  1.
         24    2    1    2    0    0 -0.35527136788E-14  0.00000000000E+00 -0.14356090351E+03  0.16245723899E+03  0.76043549912E+02 0.  0.
         66    2    3    3    0    0 -0.17305188337E+02  0.17075784335E+02 -0.94494491622E+01  0.26159970838E+02  0.20000076945E+01 0.  0.
        -13    1    3    3    0    0  0.17305188337E+02 -0.17075784335E+02 -0.13411145434E+03  0.13629726815E+03  0.10566000000E+00 0.  1.
         13    1    4    4    0    0 -0.89008326097E+01  0.93943732341E+01 -0.44371348018E+01  0.13681315686E+02  0.10566000000E+00 0. -1.
        -13    1    4    4    0    0 -0.59476851767E+01  0.59653005252E+01 -0.35089393673E+01  0.91259842667E+01  0.10566000000E+00 0.  1.
        -14    1    4    4    0    0 -0.24566705502E+01  0.17161105759E+01 -0.15033749931E+01  0.33526708861E+01  0.00000000000E+00 0.  1.
<mgrwt>
<rscale>  0 0.76043550E+02</rscale>
<asrwt>0</asrwt>
<pdfrwt beam="1">  1        2 0.14535644E-02 0.76043550E+02</pdfrwt>
<pdfrwt beam="2">  1       -1 0.23539855E-01 0.76043550E+02</pdfrwt>
<totfact> 0.12200297E+05</totfact>
</mgrwt>
</event>
<event>
 8    1  0.2561077E-016  0.7999339E+02  0.7818608E-02  0.1329070E+00
         -1   -1    0    0    0  501 -0.00000000000E+00  0.00000000000E+00  0.17834013366E+01  0.17834084583E+01  0.50400000000E-02 0.  1.
          2   -1    0    0  501    0  0.00000000000E+00 -0.00000000000E+00 -0.89701200098E+03  0.89701200098E+03  0.25500000000E-02 0. -1.
         24    2    1    2    0    0  0.35527136788E-14  0.00000000000E+00 -0.89522859964E+03  0.89879540944E+03  0.79993389817E+02 0.  0.
         66    2    3    3    0    0 -0.29606048852E+02 -0.45772851533E+01 -0.74522193888E+03  0.74582652664E+03  0.19999962636E+01 0.  0.
        -13    1    3    3    0    0  0.29606048852E+02  0.45772851533E+01 -0.15000666076E+03  0.15296888280E+03  0.10566000000E+00 0.  1.
         13    1    4    4    0    0 -0.54112670741E+01 -0.90525403376E+00 -0.13950097750E+03  0.13960886499E+03  0.10566000000E+00 0. -1.
        -13    1    4    4    0    0 -0.23144637378E+02 -0.35400425821E+01 -0.58703166606E+03  0.58749842065E+03  0.10566000000E+00 0.  1.
        -14    1    4    4    0    0 -0.10501443998E+01 -0.13198853751E+00 -0.18689295316E+02  0.18719241001E+02  0.00000000000E+00 0.  1.
<mgrwt>
<rscale>  0 0.79993390E+02</rscale>
<asrwt>0</asrwt>
<pdfrwt beam="1">  1        2 0.13800149E+00 0.79993390E+02</pdfrwt>
<pdfrwt beam="2">  1       -1 0.27437070E-03 0.79993390E+02</pdfrwt>
<totfact> 0.34941157E+05</totfact>
</mgrwt>
</event>
<event>
 8    1  0.2561077E-016  0.7639229E+02  0.7818608E-02  0.1339613E+00
         -1   -1    0    0    0  501 -0.00000000000E+00  0.00000000000E+00  0.28566880985E+01  0.28566925445E+01  0.50400000000E-02 0.  1.
          2   -1    0    0  501    0  0.00000000000E+00 -0.00000000000E+00 -0.51071181562E+03  0.51071181563E+03  0.25500000000E-02 0. -1.
         24    2    1    2    0    0 -0.17763568394E-14  0.00000000000E+00 -0.50785512753E+03  0.51356850818E+03  0.76392290416E+02 0.  0.
         66    2    3    3    0    0  0.10780690472E+02  0.26697364979E+02 -0.42256920431E+03  0.42355366248E+03  0.19999949063E+01 0.  0.
        -13    1    3    3    0    0 -0.10780690472E+02 -0.26697364979E+02 -0.85285923212E+02  0.90014845698E+02  0.10566000000E+00 0.  1.
         13    1    4    4    0    0  0.34219501083E+01  0.69964437238E+01 -0.11891930601E+03  0.11917412669E+03  0.10566000000E+00 0. -1.
        -13    1    4    4    0    0  0.11427592729E+01  0.43931646921E+01 -0.66345160199E+02  0.66500355192E+02  0.10566000000E+00 0.  1.
         14    1    4    4    0    0  0.62159810910E+01  0.15307756563E+02 -0.23730473811E+03  0.23787918059E+03  0.00000000000E+00 0. -1.
<mgrwt>
<rscale>  0 0.76392290E+02</rscale>
<asrwt>0</asrwt>
<pdfrwt beam="1">  1        2 0.78570976E-01 0.76392290E+02</pdfrwt>
<pdfrwt beam="2">  1       -1 0.43949123E-03 0.76392290E+02</pdfrwt>
<totfact> 0.34563792E+05</totfact>
</mgrwt>
</event>
<event>
 8    1  0.2561077E-016  0.7983833E+02  0.7818608E-02  0.1329511E+00
         -1   -1    0    0    0  501 -0.00000000000E+00  0.00000000000E+00  0.12853672410E+01  0.12853771221E+01  0.50400000000E-02 0.  1.
          2   -1    0    0  501    0  0.00000000000E+00 -0.00000000000E+00 -0.12397498066E+04  0.12397498066E+04  0.25500000000E-02 0. -1.
         24    2    1    2    0    0 -0.83266726847E-16  0.00000000000E+00 -0.12384644393E+04  0.12410351837E+04  0.79838334688E+02 0.  0.
         66    2    3    3    0    0 -0.92386593812E-01  0.10728628482E+02 -0.12168997888E+04  0.12169487285E+04  0.19999941592E+01 0.  0.
        -13    1    3    3    0    0  0.92386593812E-01 -0.10728628482E+02 -0.21564650585E+02  0.24086455183E+02  0.10566000000E+00 0.  1.
         13    1    4    4    0    0 -0.22111766987E+00  0.11060290019E+01 -0.13935013813E+03  0.13935474284E+03  0.10566000000E+00 0. -1.
        -13    1    4    4    0    0 -0.38615637792E+00  0.47877696279E+01 -0.61558812488E+03  0.61560687335E+03  0.10566000000E+00 0.  1.
        -14    1    4    4    0    0  0.51488745398E+00  0.48348298526E+01 -0.46196152575E+03  0.46198711234E+03  0.00000000000E+00 0.  1.
<mgrwt>
<rscale>  0 0.79838335E+02</rscale>
<asrwt>0</asrwt>
<pdfrwt beam="1">  1        2 0.19072978E+00 0.79838335E+02</pdfrwt>
<pdfrwt beam="2">  1       -1 0.19775056E-03 0.79838335E+02</pdfrwt>
<totfact> 0.35077748E+05</totfact>
</mgrwt>
</event>
<event>
 8    1  0.2561077E-016  0.7980640E+02  0.7818608E-02  0.1329602E+00
          2   -1    0    0  501    0  0.00000000000E+00  0.00000000000E+00  0.13522006898E+03  0.13522006900E+03  0.25500000000E-02 0. -1.
         -1   -1    0    0    0  501 -0.00000000000E+00 -0.00000000000E+00 -0.11775363322E+02  0.11775364400E+02  0.50400000000E-02 0.  1.
         24    2    1    2    0    0  0.88817841970E-15  0.71054273576E-14  0.12344470566E+03  0.14699543341E+03  0.79806403795E+02 0.  0.
         66    2    3    3    0    0  0.78298288183E+01 -0.32395345109E+02  0.10209382756E+03  0.10741468349E+03  0.19999999714E+01 0.  0.
        -13    1    3    3    0    0 -0.78298288183E+01  0.32395345109E+02  0.21350878101E+02  0.39580749915E+02  0.10566000000E+00 0.  1.
         13    1    4    4    0    0  0.31617578400E+01 -0.12557080784E+02  0.38693182468E+02  0.40802579870E+02  0.10566000000E+00 0. -1.
        -13    1    4    4    0    0  0.35401937584E+00 -0.37323982695E+01  0.12438982945E+02  0.12992135594E+02  0.10566000000E+00 0.  1.
        -14    1    4    4    0    0  0.43140516024E+01 -0.16105866056E+02  0.50961662145E+02  0.53619968027E+02  0.00000000000E+00 0.  1.
<mgrwt>
<rscale>  0 0.79806404E+02</rscale>
<asrwt>0</asrwt>
<pdfrwt beam="1">  1        2 0.20803087E-01 0.79806404E+02</pdfrwt>
<pdfrwt beam="2">  1       -1 0.18115945E-02 0.79806404E+02</pdfrwt>
<totfact> 0.19506962E+05</totfact>
</mgrwt>
</event>
<event>
 8    1  0.2561077E-016  0.8226549E+02  0.7818608E-02  0.1322743E+00
         -1   -1    0    0    0  501 -0.00000000000E+00  0.00000000000E+00  0.29577510562E+01  0.29577553503E+01  0.50400000000E-02 0.  1.
          2   -1    0    0  501    0  0.00000000000E+00 -0.00000000000E+00 -0.57202297391E+03  0.57202297391E+03  0.25500000000E-02 0. -1.
         24    2    1    2    0    0  0.00000000000E+00  0.00000000000E+00 -0.56906522285E+03  0.57498072926E+03  0.82265491949E+02 0.  0.
         66    2    3    3    0    0 -0.11330863697E+02  0.25797167735E+02 -0.49391556750E+03  0.49472261940E+03  0.19999982331E+01 0.  0.
        -13    1    3    3    0    0  0.11330863697E+02 -0.25797167735E+02 -0.75149655354E+02  0.80258109865E+02  0.10566000000E+00 0.  1.
         13    1    4    4    0    0 -0.53915822487E+01  0.12624614693E+02 -0.24609693970E+03  0.24647954266E+03  0.10566000000E+00 0. -1.
        -13    1    4    4    0    0 -0.26120699144E+01  0.73800982923E+01 -0.13228712622E+03  0.13251861638E+03  0.10566000000E+00 0.  1.
         14    1    4    4    0    0 -0.33272115344E+01  0.57924547493E+01 -0.11553150157E+03  0.11572446035E+03  0.00000000000E+00 0. -1.
<mgrwt>
<rscale>  0 0.82265492E+02</rscale>
<asrwt>0</asrwt>
<pdfrwt beam="1">  1        2 0.88003446E-01 0.82265492E+02</pdfrwt>
<pdfrwt beam="2">  1       -1 0.45503941E-03 0.82265492E+02</pdfrwt>
<totfact> 0.29501658E+05</totfact>
</mgrwt>
</event>
<event>
 8    1  0.2561077E-016  0.8075263E+02  0.7818608E-02  0.1326929E+00
         -1   -1    0    0    0  501 -0.00000000000E+00  0.00000000000E+00  0.95411248474E+01  0.95411261785E+01  0.50400000000E-02 0.  1.
          2   -1    0    0  501    0  0.00000000000E+00 -0.00000000000E+00 -0.17086523442E+03  0.17086523444E+03  0.25500000000E-02 0. -1.
         24    2    1    2    0    0  0.00000000000E+00  0.00000000000E+00 -0.16132410957E+03  0.18040636062E+03  0.80752626099E+02 0.  0.
         66    2    3    3    0    0 -0.11701687946E+02  0.26972249616E+02 -0.14245441141E+03  0.14547058493E+03  0.19999999047E+01 0.  0.
        -13    1    3    3    0    0  0.11701687946E+02 -0.26972249616E+02 -0.18869698165E+02  0.34935775689E+02  0.10566000000E+00 0.  1.
         13    1    4    4    0    0 -0.57064483703E+01  0.10915884411E+02 -0.58416093903E+02  0.59700680703E+02  0.10566000000E+00 0.  1.
        -13    1    4    4    0    0 -0.36171653204E+01  0.10399704114E+02 -0.53919715288E+02  0.55032577546E+02  0.10566000000E+00 0. -1.
         14    1    4    4    0    0 -0.23780742551E+01  0.56566610910E+01 -0.30118602219E+02  0.30737326680E+02  0.00000000000E+00 0. -1.
<mgrwt>
<rscale>  0 0.80752626E+02</rscale>
<asrwt>0</asrwt>
<pdfrwt beam="1">  1        2 0.26286957E-01 0.80752626E+02</pdfrwt>
<pdfrwt beam="2">  1       -1 0.14678656E-02 0.80752626E+02</pdfrwt>
<totfact> 0.20392765E+05</totfact>
</mgrwt>
</event>
<event>
 8    1  0.2561077E-016  0.7951113E+02  0.7818608E-02  0.1330445E+00
          2   -1    0    0  501    0  0.00000000000E+00  0.00000000000E+00  0.11563039173E+03  0.11563039176E+03  0.25500000000E-02 0. -1.
         -1   -1    0    0    0  501 -0.00000000000E+00 -0.00000000000E+00 -0.13668593843E+02  0.13668594772E+02  0.50400000000E-02 0.  1.
         24    2    1    2    0    0  0.00000000000E+00  0.00000000000E+00  0.10196179789E+03  0.12929898653E+03  0.79511129343E+02 0.  0.
         66    2    3    3    0    0 -0.19012404389E+02 -0.17513886945E+02  0.10007646179E+03  0.10338039450E+03  0.20000018167E+01 0.  0.
        -13    1    3    3    0    0  0.19012404389E+02  0.17513886945E+02  0.18853361041E+01  0.25918592030E+02  0.10566000000E+00 0.  1.
         13    1    4    4    0    0 -0.14230710535E+02 -0.13862040286E+02  0.76979589049E+02  0.79501808643E+02  0.10566000000E+00 0. -1.
        -13    1    4    4    0    0 -0.15075770792E+00 -0.13988260713E+00  0.59796270177E+00  0.64110721302E+00  0.10566000000E+00 0. -1.
        -14    1    4    4    0    0 -0.46309361456E+01 -0.35119640520E+01  0.22498910036E+02  0.23237478647E+02  0.00000000000E+00 0.  1.
<mgrwt>
<rscale>  0 0.79511129E+02</rscale>
<asrwt>0</asrwt>
<pdfrwt beam="1">  1        2 0.17789291E-01 0.79511129E+02</pdfrwt>
<pdfrwt beam="2">  1       -1 0.21028607E-02 0.79511129E+02</pdfrwt>
<totfact> 0.18786487E+05</totfact>
</mgrwt>
</event>
<event>
 8    1  0.2561077E-016  0.7909337E+02  0.7818608E-02  0.1331644E+00
          2   -1    0    0  501    0  0.00000000000E+00  0.00000000000E+00  0.27712381100E+03  0.27712381101E+03  0.25500000000E-02 0. -1.
         -1   -1    0    0    0  501 -0.00000000000E+00 -0.00000000000E+00 -0.56434698049E+01  0.56434720554E+01  0.50400000000E-02 0.  1.
         24    2    1    2    0    0  0.00000000000E+00  0.00000000000E+00  0.27148034119E+03  0.28276728306E+03  0.79093367090E+02 0.  0.
         66    2    3    3    0    0 -0.22693904906E+02 -0.29366414964E+02  0.87261075969E+02  0.94846692146E+02  0.19999959996E+01 0.  0.
        -13    1    3    3    0    0  0.22693904906E+02  0.29366414964E+02  0.18421926522E+03  0.18792059092E+03  0.10566000000E+00 0.  1.
         13    1    4    4    0    0 -0.11299160094E+02 -0.14313643998E+02  0.42297264300E+02  0.46061058983E+02  0.10566000000E+00 0. -1.
        -13    1    4    4    0    0 -0.44317240111E+01 -0.48974700417E+01  0.14962409540E+02  0.16355740699E+02  0.10566000000E+00 0.  1.
         14    1    4    4    0    0 -0.69630208016E+01 -0.10155300924E+02  0.30001402128E+02  0.32429892464E+02  0.00000000000E+00 0. -1.
<mgrwt>
<rscale>  0 0.79093367E+02</rscale>
<asrwt>0</asrwt>
<pdfrwt beam="1">  1        2 0.42634420E-01 0.79093367E+02</pdfrwt>
<pdfrwt beam="2">  1       -1 0.86822656E-03 0.79093367E+02</pdfrwt>
<totfact> 0.25524189E+05</totfact>
</mgrwt>
</event>
<event>
 8    1  0.2561077E-016  0.7936626E+02  0.7818608E-02  0.1330860E+00
         -1   -1    0    0    0  501 -0.00000000000E+00  0.00000000000E+00  0.32154016950E+02  0.32154017345E+02  0.50400000000E-02 0.  1.
          2   -1    0    0  501    0  0.00000000000E+00 -0.00000000000E+00 -0.48975241842E+02  0.48975241909E+02  0.25500000000E-02 0. -1.
         24    2    1    2    0    0  0.17763568394E-14 -0.71054273576E-14 -0.16821224893E+02  0.81129259254E+02  0.79366259205E+02 0.  0.
         66    2    3    3    0    0 -0.63912806841E+01  0.36750021772E+02  0.53491918525E+01  0.37736274662E+02  0.20000007199E+01 0.  0.
        -13    1    3    3    0    0  0.63912806841E+01 -0.36750021772E+02 -0.22170416745E+02  0.43392984591E+02  0.10566000000E+00 0.  1.
         13    1    4    4    0    0 -0.23807151892E+01  0.17299395898E+02  0.30049702333E+01  0.17719421926E+02  0.10566000000E+00 0. -1.
        -13    1    4    4    0    0 -0.21522595732E+01  0.12498933399E+02  0.14950043967E+01  0.12771129925E+02  0.10566000000E+00 0.  1.
        -14    1    4    4    0    0 -0.18583059217E+01  0.69516924751E+01  0.84921722247E+00  0.72457228112E+01  0.00000000000E+00 0.  1.
<mgrwt>
<rscale>  0 0.79366259E+02</rscale>
<asrwt>0</asrwt>
<pdfrwt beam="1">  1        2 0.75346526E-02 0.79366259E+02</pdfrwt>
<pdfrwt beam="2">  1       -1 0.49467719E-02 0.79366259E+02</pdfrwt>
<totfact> 0.15203721E+05</totfact>
</mgrwt>
</event>
<event>
 8    1  0.2561077E-016  0.7982964E+02  0.7818608E-02  0.1329536E+00
          2   -1    0    0  501    0  0.00000000000E+00  0.00000000000E+00  0.34768708815E+02  0.34768708908E+02  0.25500000000E-02 0. -1.
         -1   -1    0    0    0  501 -0.00000000000E+00 -0.00000000000E+00 -0.45822605385E+02  0.45822605662E+02  0.50400000000E-02 0.  1.
         24    2    1    2    0    0  0.00000000000E+00  0.00000000000E+00 -0.11053896571E+02  0.80591314571E+02  0.79829639576E+02 0.  0.
         66    2    3    3    0    0  0.23254475257E+02 -0.41965727212E+01  0.26913522301E+02  0.35870872915E+02  0.19999997276E+01 0.  0.
        -13    1    3    3    0    0 -0.23254475257E+02  0.41965727212E+01 -0.37967418872E+02  0.44720441656E+02  0.10566000000E+00 0.  1.
         13    1    4    4    0    0  0.22237899063E+02 -0.39197219825E+01  0.25982351448E+02  0.34423569339E+02  0.10566000000E+00 0. -1.
        -13    1    4    4    0    0  0.53869306658E+00 -0.17652377312E+00  0.30218094187E+00  0.65102090572E+00  0.10566000000E+00 0.  1.
         14    1    4    4    0    0  0.47788312717E+00 -0.10032696553E+00  0.62898991081E+00  0.79628267038E+00  0.00000000000E+00 0. -1.
<mgrwt>
<rscale>  0 0.79829640E+02</rscale>
<asrwt>0</asrwt>
<pdfrwt beam="1">  1        2 0.53490321E-02 0.79829640E+02</pdfrwt>
<pdfrwt beam="2">  1       -1 0.70496316E-02 0.79829640E+02</pdfrwt>
<totfact> 0.13937978E+05</totfact>
</mgrwt>
</event>
<event>
 8    1  0.2561077E-016  0.7941817E+02  0.7818608E-02  0.1330711E+00
          2   -1    0    0  501    0  0.00000000000E+00  0.00000000000E+00  0.11620931837E+03  0.11620931839E+03  0.25500000000E-02 0. -1.
         -1   -1    0    0    0  501 -0.00000000000E+00 -0.00000000000E+00 -0.13568717926E+02  0.13568718862E+02  0.50400000000E-02 0.  1.
         24    2    1    2    0    0 -0.17763568394E-14  0.00000000000E+00  0.10264060044E+03  0.12977803726E+03  0.79418172323E+02 0.  0.
         66    2    3    3    0    0 -0.10766523751E+02 -0.30026686008E+01  0.11357507950E+03  0.11414128411E+03  0.20000008133E+01 0.  0.
        -13    1    3    3    0    0  0.10766523751E+02  0.30026686008E+01 -0.10934479061E+02  0.15636753141E+02  0.10566000000E+00 0.  1.
         13    1    4    4    0    0 -0.68449592793E+01 -0.10852249322E+01  0.66181646326E+02  0.66543614684E+02  0.10566000000E+00 0. -1.
        -13    1    4    4    0    0 -0.33535013996E+00 -0.12102727456E+00  0.55465300726E+01  0.55589807698E+01  0.10566000000E+00 0.  1.
         14    1    4    4    0    0 -0.35862143317E+01 -0.17964163941E+01  0.41846903102E+02  0.42038688661E+02  0.00000000000E+00 0. -1.
<mgrwt>
<rscale>  0 0.79418172E+02</rscale>
<asrwt>0</asrwt>
<pdfrwt beam="1">  1        2 0.17878357E-01 0.79418172E+02</pdfrwt>
<pdfrwt beam="2">  1       -1 0.20874951E-02 0.79418172E+02</pdfrwt>
<totfact> 0.18872977E+05</totfact>
</mgrwt>
</event>
<event>
 8    1  0.2561077E-016  0.7812555E+02  0.7818608E-02  0.1334457E+00
         -1   -1    0    0    0  501 -0.00000000000E+00  0.00000000000E+00  0.68135195220E+02  0.68135195406E+02  0.50400000000E-02 0.  1.
          2   -1    0    0  501    0  0.00000000000E+00 -0.00000000000E+00 -0.22395186767E+02  0.22395186912E+02  0.25500000000E-02 0. -1.
         24    2    1    2    0    0  0.00000000000E+00  0.35527136788E-14  0.45740008453E+02  0.90530382318E+02  0.78125551194E+02 0.  0.
         66    2    3    3    0    0  0.20847905412E+02  0.28120981165E+02  0.28654999592E+01  0.35180049127E+02  0.20000062090E+01 0.  0.
        -13    1    3    3    0    0 -0.20847905412E+02 -0.28120981165E+02  0.42874508494E+02  0.55350333191E+02  0.10566000000E+00 0.  1.
         13    1    4    4    0    0  0.10896315423E+02  0.15803311633E+02  0.19330996153E+01  0.19293065763E+02  0.10566000000E+00 0. -1.
        -13    1    4    4    0    0  0.25683260342E+01  0.32920068371E+01 -0.12279689910E+00  0.41784986236E+01  0.10566000000E+00 0. -1.
         14    1    4    4    0    0  0.73832639545E+01  0.90256626943E+01  0.10551972430E+01  0.11708484740E+02  0.00000000000E+00 0. -1.
<mgrwt>
<rscale>  0 0.78125551E+02</rscale>
<asrwt>0</asrwt>
<pdfrwt beam="1">  1        2 0.34454134E-02 0.78125551E+02</pdfrwt>
<pdfrwt beam="2">  1       -1 0.10482338E-01 0.78125551E+02</pdfrwt>
<totfact> 0.13586599E+05</totfact>
</mgrwt>
</event>
<event>
 8    1  0.2561077E-016  0.7890254E+02  0.7818608E-02  0.1332195E+00
         -1   -1    0    0    0  501 -0.00000000000E+00  0.00000000000E+00  0.32625661860E+01  0.32625700789E+01  0.50400000000E-02 0.  1.
          2   -1    0    0  501    0  0.00000000000E+00 -0.00000000000E+00 -0.47704838854E+03  0.47704838855E+03  0.25500000000E-02 0. -1.
         24    2    1    2    0    0  0.00000000000E+00  0.00000000000E+00 -0.47378582236E+03  0.48031095863E+03  0.78902544397E+02 0.  0.
         66    2    3    3    0    0  0.25010435149E+02  0.14272786686E+02 -0.40097131549E+03  0.40200899263E+03  0.19999993094E+01 0.  0.
        -13    1    3    3    0    0 -0.25010435149E+02 -0.14272786686E+02 -0.72814506865E+02  0.78301966004E+02  0.10566000000E+00 0.  1.
         13    1    4    4    0    0  0.99401803592E+01  0.54662025716E+01 -0.15045950545E+03  0.15088658157E+03  0.10566000000E+00 0. -1.
        -13    1    4    4    0    0  0.12925373738E+02  0.72468665550E+01 -0.20683812634E+03  0.20736828117E+03  0.10566000000E+00 0.  1.
        -14    1    4    4    0    0  0.21448810524E+01  0.15597175595E+01 -0.43673683706E+02  0.43754129886E+02  0.00000000000E+00 0.  1.
<mgrwt>
<rscale>  0 0.78902544E+02</rscale>
<asrwt>0</asrwt>
<pdfrwt beam="1">  1        2 0.73392004E-01 0.78902544E+02</pdfrwt>
<pdfrwt beam="2">  1       -1 0.50193394E-03 0.78902544E+02</pdfrwt>
<totfact> 0.31092108E+05</totfact>
</mgrwt>
</event>
<event>
 8    1  0.2561077E-016  0.8041077E+02  0.7818608E-02  0.1327890E+00
          2   -1    0    0  501    0  0.00000000000E+00  0.00000000000E+00  0.76160727352E+03  0.76160727352E+03  0.25500000000E-02 0. -1.
         -1   -1    0    0    0  501 -0.00000000000E+00 -0.00000000000E+00 -0.21224466696E+01  0.21224526537E+01  0.50400000000E-02 0.  1.
         24    2    1    2    0    0  0.00000000000E+00 -0.35527136788E-14  0.75948482685E+03  0.76372972618E+03  0.80410773108E+02 0.  0.
         66    2    3    3    0    0  0.27503690150E+02  0.16621877051E+02  0.60905583703E+03  0.60990634723E+03  0.20000006486E+01 0.  0.
        -13    1    3    3    0    0 -0.27503690150E+02 -0.16621877051E+02  0.15042898982E+03  0.15382337895E+03  0.10566000000E+00 0.  1.
         13    1    4    4    0    0  0.57477553245E+01  0.33006234296E+01  0.12571570671E+03  0.12589035263E+03  0.10566000000E+00 0. -1.
        -13    1    4    4    0    0  0.13307667290E+02  0.80595623846E+01  0.27858149713E+03  0.27901561294E+03  0.10566000000E+00 0.  1.
        -14    1    4    4    0    0  0.84482675353E+01  0.52616912367E+01  0.20475863318E+03  0.20500038166E+03  0.00000000000E+00 0.  1.
<mgrwt>
<rscale>  0 0.80410773E+02</rscale>
<asrwt>0</asrwt>
<pdfrwt beam="1">  1        2 0.11717013E+00 0.80410773E+02</pdfrwt>
<pdfrwt beam="2">  1       -1 0.32653133E-03 0.80410773E+02</pdfrwt>
<totfact> 0.33605989E+05</totfact>
</mgrwt>
</event>
<event>
 8    1  0.2561077E-016  0.7974934E+02  0.7818608E-02  0.1329764E+00
         -1   -1    0    0    0  501 -0.00000000000E+00  0.00000000000E+00  0.78774452832E+01  0.78774468955E+01  0.50400000000E-02 0.  1.
          2   -1    0    0  501    0  0.00000000000E+00 -0.00000000000E+00 -0.20184070781E+03  0.20184070783E+03  0.25500000000E-02 0. -1.
         24    2    1    2    0    0  0.35527136788E-14 -0.88817841970E-15 -0.19396326253E+03  0.20971815472E+03  0.79749339870E+02 0.  0.
         66    2    3    3    0    0 -0.28688446524E+02 -0.42660722926E+01 -0.16890438601E+03  0.17138820830E+03  0.19999979936E+01 0.  0.
        -13    1    3    3    0    0  0.28688446524E+02  0.42660722926E+01 -0.25058876515E+02  0.38329946426E+02  0.10566000000E+00 0.  1.
         13    1    4    4    0    0 -0.12785090568E+02 -0.17412696828E+01 -0.70728292466E+02  0.71895709747E+02  0.10566000000E+00 0. -1.
        -13    1    4    4    0    0 -0.20270619964E+01 -0.59663342069E+00 -0.12006999362E+02  0.12191970697E+02  0.10566000000E+00 0.  1.
         14    1    4    4    0    0 -0.13876293960E+02 -0.19281691891E+01 -0.86169094184E+02  0.87300527850E+02  0.00000000000E+00 0. -1.
<mgrwt>
<rscale>  0 0.79749340E+02</rscale>
<asrwt>0</asrwt>
<pdfrwt beam="1">  1        2 0.31052413E-01 0.79749340E+02</pdfrwt>
<pdfrwt beam="2">  1       -1 0.12119149E-02 0.79749340E+02</pdfrwt>
<totfact> 0.22312852E+05</totfact>
</mgrwt>
</event>
<event>
 8    1  0.2561077E-016  0.8475243E+02  0.7818608E-02  0.1316081E+00
         -1   -1    0    0    0  501 -0.00000000000E+00  0.00000000000E+00  0.47453323523E+02  0.47453323790E+02  0.50400000000E-02 0.  1.
          2   -1    0    0  501    0  0.00000000000E+00 -0.00000000000E+00 -0.37842312949E+02  0.37842313035E+02  0.25500000000E-02 0. -1.
         24    2    1    2    0    0  0.00000000000E+00  0.44408920985E-15  0.96110105738E+01  0.85295636825E+02  0.84752428503E+02 0.  0.
         66    2    3    3    0    0  0.28995830311E+02 -0.28620249229E+01 -0.26126255625E+02  0.39185846959E+02  0.20000017076E+01 0.  0.
        -13    1    3    3    0    0 -0.28995830311E+02  0.28620249229E+01  0.35737266199E+02  0.46109789866E+02  0.10566000000E+00 0.  1.
         13    1    4    4    0    0  0.75432650774E+01 -0.69292834215E+00 -0.57247705716E+01  0.94955336789E+01  0.10566000000E+00 0. -1.
        -13    1    4    4    0    0  0.80847006744E+01 -0.10073544861E+01 -0.74141084830E+01  0.11016229695E+02  0.10566000000E+00 0.  1.
         14    1    4    4    0    0  0.13367864559E+02 -0.11617420946E+01 -0.12987376571E+02  0.18674083585E+02  0.00000000000E+00 0. -1.
<mgrwt>
<rscale>  0 0.84752429E+02</rscale>
<asrwt>0</asrwt>
<pdfrwt beam="1">  1        2 0.58218943E-02 0.84752429E+02</pdfrwt>
<pdfrwt beam="2">  1       -1 0.73005114E-02 0.84752429E+02</pdfrwt>
<totfact> 0.12002528E+05</totfact>
</mgrwt>
</event>
<event>
 8    1  0.2561077E-016  0.7926726E+02  0.7818608E-02  0.1331144E+00
          2   -1    0    0  501    0  0.00000000000E+00  0.00000000000E+00  0.22798633185E+03  0.22798633187E+03  0.25500000000E-02 0. -1.
         -1   -1    0    0    0  501 -0.00000000000E+00 -0.00000000000E+00 -0.68899932785E+01  0.68899951218E+01  0.50400000000E-02 0.  1.
         24    2    1    2    0    0  0.00000000000E+00  0.00000000000E+00  0.22109633857E+03  0.23487632699E+03  0.79267257104E+02 0.  0.
         66    2    3    3    0    0  0.34469946382E+02  0.12324505605E+02  0.15543350756E+03  0.15969860966E+03  0.20000032136E+01 0.  0.
        -13    1    3    3    0    0 -0.34469946382E+02 -0.12324505605E+02  0.65662831016E+02  0.75177717330E+02  0.10566000000E+00 0.  1.
         13    1    4    4    0    0  0.78201215272E+01  0.24292926209E+01  0.35423676205E+02  0.36357994489E+02  0.10566000000E+00 0. -1.
        -13    1    4    4    0    0  0.18682036354E+02  0.73667644618E+01  0.87200693014E+02  0.89483293006E+02  0.10566000000E+00 0.  1.
        -14    1    4    4    0    0  0.79677885008E+01  0.25284485222E+01  0.32809138337E+02  0.33857322162E+02  0.00000000000E+00 0.  1.
<mgrwt>
<rscale>  0 0.79267257E+02</rscale>
<asrwt>0</asrwt>
<pdfrwt beam="1">  1        2 0.35074814E-01 0.79267257E+02</pdfrwt>
<pdfrwt beam="2">  1       -1 0.10599993E-02 0.79267257E+02</pdfrwt>
<totfact> 0.23662853E+05</totfact>
</mgrwt>
</event>
<event>
 8    1  0.2561077E-016  0.7794536E+02  0.7818608E-02  0.1334985E+00
          2   -1    0    0  501    0  0.00000000000E+00  0.00000000000E+00  0.27441676773E+03  0.27441676774E+03  0.25500000000E-02 0. -1.
         -1   -1    0    0    0  501 -0.00000000000E+00 -0.00000000000E+00 -0.55349010590E+01  0.55349033536E+01  0.50400000000E-02 0.  1.
         24    2    1    2    0    0 -0.71054273576E-14 -0.44408920985E-15  0.26888186667E+03  0.27995167110E+03  0.77945364998E+02 0.  0.
         66    2    3    3    0    0  0.37673600785E+02  0.24666512049E+01  0.16888159461E+03  0.17306177381E+03  0.19999984630E+01 0.  0.
        -13    1    3    3    0    0 -0.37673600785E+02 -0.24666512049E+01  0.10000027207E+03  0.10688989729E+03  0.10566000000E+00 0.  1.
         13    1    4    4    0    0  0.18923999627E+02  0.11837353746E+01  0.82524704284E+02  0.84675007957E+02  0.10566000000E+00 0. -1.
        -13    1    4    4    0    0  0.14204539419E+00  0.30571648584E-01  0.10301499557E+01  0.10456980858E+01  0.10566000000E+00 0.  1.
         14    1    4    4    0    0  0.18607555763E+02  0.12523441817E+01  0.85326740365E+02  0.87341067768E+02  0.00000000000E+00 0. -1.
<mgrwt>
<rscale>  0 0.77945365E+02</rscale>
<asrwt>0</asrwt>
<pdfrwt beam="1">  1        2 0.42217960E-01 0.77945365E+02</pdfrwt>
<pdfrwt beam="2">  1       -1 0.85152351E-03 0.77945365E+02</pdfrwt>
<totfact> 0.26426968E+05</totfact>
</mgrwt>
</event>
<event>
 8    1  0.2561077E-016  0.8044168E+02  0.7818608E-02  0.1327803E+00
          2   -1    0    0  501    0  0.00000000000E+00  0.00000000000E+00  0.19841064248E+03  0.19841064250E+03  0.25500000000E-02 0. -1.
         -1   -1    0    0    0  501 -0.00000000000E+00 -0.00000000000E+00 -0.81533730508E+01  0.81533746085E+01  0.50400000000E-02 0.  1.
         24    2    1    2    0    0 -0.17763568394E-14 -0.44408920985E-15  0.19025726943E+03  0.20656401711E+03  0.80441684417E+02 0.  0.
         66    2    3    3    0    0  0.15292049579E+02  0.27354992090E+01  0.19038512843E+03  0.19102834048E+03  0.20000006766E+01 0.  0.
        -13    1    3    3    0    0 -0.15292049579E+02 -0.27354992090E+01 -0.12785900089E+00  0.15535676625E+02  0.10566000000E+00 0.  1.
         13    1    4    4    0    0  0.78621835949E+01  0.72220995835E+00  0.94200543928E+02  0.94530889970E+02  0.10566000000E+00 0.  1.
        -13    1    4    4    0    0  0.34838795365E+01  0.81021817108E+00  0.38733046689E+02  0.38897994035E+02  0.10566000000E+00 0. -1.
        -14    1    4    4    0    0  0.39459864477E+01  0.12030710796E+01  0.57451537814E+02  0.57599456475E+02  0.00000000000E+00 0.  1.
<mgrwt>
<rscale>  0 0.80441684E+02</rscale>
<asrwt>0</asrwt>
<pdfrwt beam="1">  1        2 0.30524712E-01 0.80441684E+02</pdfrwt>
<pdfrwt beam="2">  1       -1 0.12543653E-02 0.80441684E+02</pdfrwt>
<totfact> 0.21680164E+05</totfact>
</mgrwt>
</event>
<event>
 8    1  0.2561077E-016  0.7967651E+02  0.7818608E-02  0.1329972E+00
         -1   -1    0    0    0  501 -0.00000000000E+00  0.00000000000E+00  0.12420075453E+02  0.12420076475E+02  0.50400000000E-02 0.  1.
          2   -1    0    0  501    0  0.00000000000E+00 -0.00000000000E+00 -0.12778395317E+03  0.12778395319E+03  0.25500000000E-02 0. -1.
         24    2    1    2    0    0  0.00000000000E+00  0.71054273576E-14 -0.11536387772E+03  0.14020402967E+03  0.79676506285E+02 0.  0.
         66    2    3    3    0    0  0.22450553898E+02  0.32686919796E+02 -0.63969173533E+02  0.75289556105E+02  0.19999999737E+01 0.  0.
        -13    1    3    3    0    0 -0.22450553898E+02 -0.32686919796E+02 -0.51394704183E+02  0.64914473565E+02  0.10566000000E+00 0.  1.
         13    1    4    4    0    0  0.83536580337E+01  0.11491925291E+02 -0.22566224662E+02  0.26666338500E+02  0.10566000000E+00 0. -1.
        -13    1    4    4    0    0  0.12319485172E+02  0.18552018078E+02 -0.37078320343E+02  0.43252284254E+02  0.10566000000E+00 0.  1.
         14    1    4    4    0    0  0.17774106926E+01  0.26429764265E+01 -0.43246285275E+01  0.53709333511E+01  0.00000000000E+00 0. -1.
<mgrwt>
<rscale>  0 0.79676506E+02</rscale>
<asrwt>0</asrwt>
<pdfrwt beam="1">  1        2 0.19659069E-01 0.79676506E+02</pdfrwt>
<pdfrwt beam="2">  1       -1 0.19107810E-02 0.79676506E+02</pdfrwt>
<totfact> 0.19252223E+05</totfact>
</mgrwt>
</event>
<event>
 8    1  0.2561077E-016  0.7678958E+02  0.7818608E-02  0.1338417E+00
          2   -1    0    0  501    0  0.00000000000E+00  0.00000000000E+00  0.48576288136E+01  0.48576294829E+01  0.25500000000E-02 0. -1.
         -1   -1    0    0    0  501 -0.00000000000E+00 -0.00000000000E+00 -0.30347311925E+03  0.30347311929E+03  0.50400000000E-02 0.  1.
         24    2    1    2    0    0  0.71054273576E-14  0.00000000000E+00 -0.29861549043E+03  0.30833074877E+03  0.76789579445E+02 0.  0.
         66    2    3    3    0    0  0.37323222100E+02 -0.72558895887E+01 -0.12874507817E+03  0.13425708917E+03  0.19999992315E+01 0.  0.
        -13    1    3    3    0    0 -0.37323222100E+02  0.72558895887E+01 -0.16987041226E+03  0.17407365960E+03  0.10566000000E+00 0.  1.
         13    1    4    4    0    0  0.14446011017E+02 -0.21786583780E+01 -0.51037779601E+02  0.53087662382E+02  0.10566000000E+00 0. -1.
        -13    1    4    4    0    0  0.58848764138E+01 -0.14588635247E+01 -0.21441245823E+02  0.22282240455E+02  0.10566000000E+00 0.  1.
        -14    1    4    4    0    0  0.16992334669E+02 -0.36183676859E+01 -0.56266052746E+02  0.58887186330E+02  0.00000000000E+00 0.  1.
<mgrwt>
<rscale>  0 0.76789579E+02</rscale>
<asrwt>0</asrwt>
<pdfrwt beam="1">  1        2 0.74732780E-03 0.76789579E+02</pdfrwt>
<pdfrwt beam="2">  1       -1 0.46688157E-01 0.76789579E+02</pdfrwt>
<totfact> 0.95543761E+04</totfact>
</mgrwt>
</event>
<event>
 8    1  0.2561077E-016  0.7801540E+02  0.7818608E-02  0.1334780E+00
          2   -1    0    0  501    0  0.00000000000E+00  0.00000000000E+00  0.70668309992E+03  0.70668309993E+03  0.25500000000E-02 0. -1.
         -1   -1    0    0    0  501 -0.00000000000E+00 -0.00000000000E+00 -0.21531554966E+01  0.21531613953E+01  0.50400000000E-02 0.  1.
         24    2    1    2    0    0  0.00000000000E+00  0.88817841970E-15  0.70452994443E+03  0.70883626132E+03  0.78015400870E+02 0.  0.
         66    2    3    3    0    0 -0.35260991065E+02  0.65458879789E+01  0.49130718089E+03  0.49261844477E+03  0.19999985887E+01 0.  0.
        -13    1    3    3    0    0  0.35260991065E+02 -0.65458879789E+01  0.21322276353E+03  0.21621781655E+03  0.10566000000E+00 0.  1.
         13    1    4    4    0    0 -0.53963299976E+01  0.10006393657E+01  0.77346253220E+02  0.77540800278E+02  0.10566000000E+00 0. -1.
        -13    1    4    4    0    0 -0.10130104605E+02  0.15371778289E+01  0.15021213833E+03  0.15056121546E+03  0.10566000000E+00 0.  1.
         14    1    4    4    0    0 -0.19734556462E+02  0.40080707842E+01  0.26374878934E+03  0.26451642903E+03  0.00000000000E+00 0. -1.
<mgrwt>
<rscale>  0 0.78015401E+02</rscale>
<asrwt>0</asrwt>
<pdfrwt beam="1">  1        2 0.10872043E+00 0.78015401E+02</pdfrwt>
<pdfrwt beam="2">  1       -1 0.33125530E-03 0.78015401E+02</pdfrwt>
<totfact> 0.35783078E+05</totfact>
</mgrwt>
</event>
<event>
 8    1  0.2561077E-016  0.7977220E+02  0.7818608E-02  0.1329699E+00
          2   -1    0    0  501    0  0.00000000000E+00  0.00000000000E+00  0.16674600004E+03  0.16674600006E+03  0.25500000000E-02 0. -1.
         -1   -1    0    0    0  501 -0.00000000000E+00 -0.00000000000E+00 -0.95408644491E+01  0.95408657803E+01  0.50400000000E-02 0.  1.
         24    2    1    2    0    0 -0.35527136788E-14  0.00000000000E+00  0.15720513559E+03  0.17628686584E+03  0.79772203251E+02 0.  0.
         66    2    3    3    0    0  0.18150853145E+02  0.25847512883E+02  0.13239091565E+03  0.13612090927E+03  0.20000001280E+01 0.  0.
        -13    1    3    3    0    0 -0.18150853145E+02 -0.25847512883E+02  0.24814219938E+02  0.40165956572E+02  0.10566000000E+00 0.  1.
         13    1    4    4    0    0  0.18936321286E+00  0.21975858895E+00  0.17124266908E+01  0.17400349051E+01  0.10566000000E+00 0.  1.
        -13    1    4    4    0    0  0.52616029475E+01  0.70540488790E+01  0.34363570150E+02  0.35472668192E+02  0.10566000000E+00 0.  1.
         14    1    4    4    0    0  0.12699886985E+02  0.18573705415E+02  0.96314918814E+02  0.98908206173E+02  0.00000000000E+00 0. -1.
<mgrwt>
<rscale>  0 0.79772203E+02</rscale>
<asrwt>0</asrwt>
<pdfrwt beam="1">  1        2 0.25653228E-01 0.79772203E+02</pdfrwt>
<pdfrwt beam="2">  1       -1 0.14678256E-02 0.79772203E+02</pdfrwt>
<totfact> 0.20892700E+05</totfact>
</mgrwt>
</event>
<event>
 8    1  0.2561077E-016  0.7998704E+02  0.7818608E-02  0.1329088E+00
         -1   -1    0    0    0  501 -0.00000000000E+00  0.00000000000E+00  0.11751384085E+03  0.11751384096E+03  0.50400000000E-02 0.  1.
          2   -1    0    0  501    0  0.00000000000E+00 -0.00000000000E+00 -0.13611007261E+02  0.13611007499E+02  0.25500000000E-02 0. -1.
         24    2    1    2    0    0  0.00000000000E+00  0.00000000000E+00  0.10390283359E+03  0.13112484846E+03  0.79987043046E+02 0.  0.
         66    2    3    3    0    0  0.30721571630E+02  0.14856402940E+02  0.17873643340E+02  0.38574535596E+02  0.19999996191E+01 0.  0.
        -13    1    3    3    0    0 -0.30721571630E+02 -0.14856402940E+02  0.86029190254E+02  0.92550312866E+02  0.10566000000E+00 0.  1.
         13    1    4    4    0    0  0.26105261762E+01  0.15954910355E+01  0.13253715859E+01  0.33358975460E+01  0.10566000000E+00 0. -1.
        -13    1    4    4    0    0  0.13845113043E+01  0.87125636963E+00  0.64658697615E+00  0.17621571912E+01  0.10566000000E+00 0.  1.
        -14    1    4    4    0    0  0.26726534150E+02  0.12389655535E+02  0.15901684778E+02  0.33476480859E+02  0.00000000000E+00 0.  1.
<mgrwt>
<rscale>  0 0.79987043E+02</rscale>
<asrwt>0</asrwt>
<pdfrwt beam="1">  1        2 0.20940011E-02 0.79987043E+02</pdfrwt>
<pdfrwt beam="2">  1       -1 0.18079053E-01 0.79987043E+02</pdfrwt>
<totfact> 0.11443586E+05</totfact>
</mgrwt>
</event>
<event>
 8    1  0.2561077E-016  0.7851957E+02  0.7818608E-02  0.1333306E+00
          2   -1    0    0  501    0  0.00000000000E+00  0.00000000000E+00  0.18827718908E+02  0.18827719081E+02  0.25500000000E-02 0. -1.
         -1   -1    0    0    0  501 -0.00000000000E+00 -0.00000000000E+00 -0.81864977181E+02  0.81864977336E+02  0.50400000000E-02 0.  1.
         24    2    1    2    0    0 -0.35527136788E-14  0.00000000000E+00 -0.63037258272E+02  0.10069269642E+03  0.78519571963E+02 0.  0.
         66    2    3    3    0    0  0.25863096329E+02 -0.97675150895E+01  0.41617006263E+01  0.28028982337E+02  0.19999989992E+01 0.  0.
        -13    1    3    3    0    0 -0.25863096329E+02  0.97675150895E+01 -0.67198958899E+02  0.72663714080E+02  0.10566000000E+00 0.  1.
         13    1    4    4    0    0  0.18028064489E+02 -0.58453073899E+01  0.29647474177E+01  0.19182794869E+02  0.10566000000E+00 0. -1.
        -13    1    4    4    0    0  0.18340124979E+01 -0.89683388205E+00  0.29256901473E+00  0.20651085972E+01  0.10566000000E+00 0. -1.
         14    1    4    4    0    0  0.60010193424E+01 -0.30253738176E+01  0.90438419380E+00  0.67810788709E+01  0.00000000000E+00 0. -1.
<mgrwt>
<rscale>  0 0.78519572E+02</rscale>
<asrwt>0</asrwt>
<pdfrwt beam="1">  1        2 0.28965722E-02 0.78519572E+02</pdfrwt>
<pdfrwt beam="2">  1       -1 0.12594612E-01 0.78519572E+02</pdfrwt>
<totfact> 0.12941549E+05</totfact>
</mgrwt>
</event>
<event>
 8    1  0.2561077E-016  0.8298358E+02  0.7818608E-02  0.1320792E+00
         -1   -1    0    0    0  501 -0.00000000000E+00  0.00000000000E+00  0.21752890269E+03  0.21752890275E+03  0.50400000000E-02 0.  1.
          2   -1    0    0  501    0  0.00000000000E+00 -0.00000000000E+00 -0.79142053769E+01  0.79142057877E+01  0.25500000000E-02 0. -1.
         24    2    1    2    0    0 -0.88817841970E-15  0.00000000000E+00  0.20961469731E+03  0.22544310853E+03  0.82983575825E+02 0.  0.
         66    2    3    3    0    0 -0.73974138860E+01  0.30016213417E+02  0.29782888421E+02  0.42973424880E+02  0.20000007869E+01 0.  0.
        -13    1    3    3    0    0  0.73974138860E+01 -0.30016213417E+02  0.17983180889E+03  0.18246968366E+03  0.10566000000E+00 0.  1.
         13    1    4    4    0    0 -0.89678676034E+00  0.22991638423E+01  0.25308185137E+01  0.35364653614E+01  0.10566000000E+00 0. -1.
        -13    1    4    4    0    0 -0.37993663120E+01  0.19083469898E+02  0.18792398613E+02  0.27051421726E+02  0.10566000000E+00 0.  1.
         14    1    4    4    0    0 -0.27012608137E+01  0.86335796763E+01  0.84596712937E+01  0.12385537792E+02  0.00000000000E+00 0. -1.
<mgrwt>
<rscale>  0 0.82983576E+02</rscale>
<asrwt>0</asrwt>
<pdfrwt beam="1">  1        2 0.12175702E-02 0.82983576E+02</pdfrwt>
<pdfrwt beam="2">  1       -1 0.33465983E-01 0.82983576E+02</pdfrwt>
<totfact> 0.88379179E+04</totfact>
</mgrwt>
</event>
<event>
 8    1  0.2561077E-016  0.8044107E+02  0.7818608E-02  0.1327804E+00
          2   -1    0    0  501    0  0.00000000000E+00  0.00000000000E+00  0.24505896432E+03  0.24505896434E+03  0.25500000000E-02 0. -1.
         -1   -1    0    0    0  501 -0.00000000000E+00 -0.00000000000E+00 -0.66012326497E+01  0.66012345737E+01  0.50400000000E-02 0.  1.
         24    2    1    2    0    0 -0.71054273576E-14  0.44408920985E-15  0.23845773167E+03  0.25166019891E+03  0.80441071106E+02 0.  0.
         66    2    3    3    0    0 -0.40095235371E+02  0.27080162226E+01  0.12196667027E+03  0.12843219965E+03  0.19999995569E+01 0.  0.
        -13    1    3    3    0    0  0.40095235371E+02 -0.27080162226E+01  0.11649106140E+03  0.12322799926E+03  0.10566000000E+00 0.  1.
         13    1    4    4    0    0 -0.29013917684E+02  0.18306987886E+01  0.89556572048E+02  0.94157047737E+02  0.10566000000E+00 0. -1.
        -13    1    4    4    0    0 -0.40886189473E+01  0.55725246091E-01  0.10911250365E+02  0.11652744688E+02  0.10566000000E+00 0.  1.
        -14    1    4    4    0    0 -0.69926987395E+01  0.82159218784E+00  0.21498847857E+02  0.22622407223E+02  0.00000000000E+00 0.  1.
<mgrwt>
<rscale>  0 0.80441071E+02</rscale>
<asrwt>0</asrwt>
<pdfrwt beam="1">  1        2 0.37701382E-01 0.80441071E+02</pdfrwt>
<pdfrwt beam="2">  1       -1 0.10155743E-02 0.80441071E+02</pdfrwt>
<totfact> 0.23358173E+05</totfact>
</mgrwt>
</event>
<event>
 8    1  0.2561077E-016  0.8256951E+02  0.7818608E-02  0.1321914E+00
          2   -1    0    0  501    0  0.00000000000E+00  0.00000000000E+00  0.53890642594E+01  0.53890648628E+01  0.25500000000E-02 0. -1.
         -1   -1    0    0    0  501 -0.00000000000E+00 -0.00000000000E+00 -0.31627582792E+03  0.31627582796E+03  0.50400000000E-02 0.  1.
         24    2    1    2    0    0  0.00000000000E+00 -0.44408920985E-15 -0.31088676366E+03  0.32166489282E+03  0.82569506814E+02 0.  0.
         66    2    3    3    0    0  0.38722433309E+02  0.27143507699E+01 -0.10104603743E+03  0.10826401164E+03  0.19999985387E+01 0.  0.
        -13    1    3    3    0    0 -0.38722433309E+02 -0.27143507699E+01 -0.20984072623E+03  0.21340088119E+03  0.10566000000E+00 0.  1.
         13    1    4    4    0    0  0.16868417605E+02  0.71502316256E+00 -0.42293938647E+02  0.45539468386E+02  0.10566000000E+00 0. -1.
        -13    1    4    4    0    0  0.13309171751E+02  0.16930906165E+01 -0.35815989313E+02  0.38246527464E+02  0.10566000000E+00 0.  1.
         14    1    4    4    0    0  0.85448439530E+01  0.30623699093E+00 -0.22936109471E+02  0.24478015788E+02  0.00000000000E+00 0. -1.
<mgrwt>
<rscale>  0 0.82569507E+02</rscale>
<asrwt>0</asrwt>
<pdfrwt beam="1">  1        2 0.82908710E-03 0.82569507E+02</pdfrwt>
<pdfrwt beam="2">  1       -1 0.48657805E-01 0.82569507E+02</pdfrwt>
<totfact> 0.77969223E+04</totfact>
</mgrwt>
</event>
<event>
 8    1  0.2561077E-016  0.7910859E+02  0.7818608E-02  0.1331600E+00
          2   -1    0    0  501    0  0.00000000000E+00  0.00000000000E+00  0.22269370954E+03  0.22269370955E+03  0.25500000000E-02 0. -1.
         -1   -1    0    0    0  501 -0.00000000000E+00 -0.00000000000E+00 -0.70255325913E+01  0.70255343991E+01  0.50400000000E-02 0.  1.
         24    2    1    2    0    0  0.00000000000E+00  0.00000000000E+00  0.21566817695E+03  0.22971924395E+03  0.79108586729E+02 0.  0.
         66    2    3    3    0    0  0.26321384771E+02 -0.13311080918E+02  0.18432074555E+03  0.18667655827E+03  0.19999989273E+01 0.  0.
        -13    1    3    3    0    0 -0.26321384771E+02  0.13311080918E+02  0.31347431395E+02  0.43042685681E+02  0.10566000000E+00 0.  1.
         13    1    4    4    0    0  0.27096724847E+01 -0.99057360031E+00  0.18703178310E+02  0.18924682401E+02  0.10566000000E+00 0. -1.
        -13    1    4    4    0    0  0.18731824162E+02 -0.97410019038E+01  0.13491649588E+03  0.13655856025E+03  0.10566000000E+00 0.  1.
        -14    1    4    4    0    0  0.48798881246E+01 -0.25795054144E+01  0.30701071364E+02  0.31193315617E+02  0.00000000000E+00 0.  1.
<mgrwt>
<rscale>  0 0.79108587E+02</rscale>
<asrwt>0</asrwt>
<pdfrwt beam="1">  1        2 0.34260576E-01 0.79108587E+02</pdfrwt>
<pdfrwt beam="2">  1       -1 0.10808512E-02 0.79108587E+02</pdfrwt>
<totfact> 0.23591146E+05</totfact>
</mgrwt>
</event>
<event>
 8    1  0.2561077E-016  0.8015554E+02  0.7818608E-02  0.1328611E+00
         -1   -1    0    0    0  501 -0.00000000000E+00  0.00000000000E+00  0.18430271988E+02  0.18430272677E+02  0.50400000000E-02 0.  1.
          2   -1    0    0  501    0  0.00000000000E+00 -0.00000000000E+00 -0.87151598806E+02  0.87151598844E+02  0.25500000000E-02 0. -1.
         24    2    1    2    0    0  0.17763568394E-14  0.71054273576E-14 -0.68721326819E+02  0.10558187152E+03  0.80155541505E+02 0.  0.
         66    2    3    3    0    0 -0.12511664731E+02 -0.36877779238E+02 -0.46718193807E+02  0.60853118103E+02  0.19999986109E+01 0.  0.
        -13    1    3    3    0    0  0.12511664731E+02  0.36877779238E+02 -0.22003133012E+02  0.44728753417E+02  0.10566000000E+00 0.  1.
         13    1    4    4    0    0 -0.73526706449E+01 -0.19490581444E+02 -0.25421229281E+02  0.32866313952E+02  0.10566000000E+00 0. -1.
        -13    1    4    4    0    0 -0.46365050865E+01 -0.15255535216E+02 -0.18297365216E+02  0.24270007664E+02  0.10566000000E+00 0.  1.
         14    1    4    4    0    0 -0.52248900007E+00 -0.21316625787E+01 -0.29995993103E+01  0.37167964871E+01  0.00000000000E+00 0. -1.
<mgrwt>
<rscale>  0 0.80155542E+02</rscale>
<asrwt>0</asrwt>
<pdfrwt beam="1">  1        2 0.13407938E-01 0.80155542E+02</pdfrwt>
<pdfrwt beam="2">  1       -1 0.28354266E-02 0.80155542E+02</pdfrwt>
<totfact> 0.16984363E+05</totfact>
</mgrwt>
</event>
<event>
 8    1  0.2561077E-016  0.8081499E+02  0.7818608E-02  0.1326754E+00
          2   -1    0    0  501    0  0.00000000000E+00  0.00000000000E+00  0.48621140027E+02  0.48621140094E+02  0.25500000000E-02 0. -1.
         -1   -1    0    0    0  501 -0.00000000000E+00 -0.00000000000E+00 -0.33581394559E+02  0.33581394937E+02  0.50400000000E-02 0.  1.
         24    2    1    2    0    0 -0.35527136788E-14  0.35527136788E-14  0.15039745468E+02  0.82202535031E+02  0.80814991318E+02 0.  0.
         66    2    3    3    0    0  0.19206443624E+02 -0.17845433979E+02  0.38766864919E+02  0.46842467836E+02  0.19999966917E+01 0.  0.
        -13    1    3    3    0    0 -0.19206443624E+02  0.17845433979E+02 -0.23727119451E+02  0.35360067195E+02  0.10566000000E+00 0.  1.
         13    1    4    4    0    0  0.64274392363E+01 -0.61657229060E+01  0.14577097855E+02  0.17083063542E+02  0.10566000000E+00 0. -1.
        -13    1    4    4    0    0  0.75613868165E+01 -0.69572239314E+01  0.13628559294E+02  0.17068284269E+02  0.10566000000E+00 0.  1.
        -14    1    4    4    0    0  0.52176175707E+01 -0.47224871412E+01  0.10561207770E+02  0.12691120025E+02  0.00000000000E+00 0.  1.
<mgrwt>
<rscale>  0 0.80814991E+02</rscale>
<asrwt>0</asrwt>
<pdfrwt beam="1">  1        2 0.74801755E-02 0.80814991E+02</pdfrwt>
<pdfrwt beam="2">  1       -1 0.51663684E-02 0.80814991E+02</pdfrwt>
<totfact> 0.14445253E+05</totfact>
</mgrwt>
</event>
<event>
 8    1  0.2561077E-016  0.7918594E+02  0.7818608E-02  0.1331378E+00
         -1   -1    0    0    0  501 -0.00000000000E+00  0.00000000000E+00  0.47667693458E+02  0.47667693724E+02  0.50400000000E-02 0.  1.
          2   -1    0    0  501    0  0.00000000000E+00 -0.00000000000E+00 -0.32886069148E+02  0.32886069247E+02  0.25500000000E-02 0. -1.
         24    2    1    2    0    0  0.00000000000E+00  0.00000000000E+00  0.14781624310E+02  0.80553762971E+02  0.79185935062E+02 0.  0.
         66    2    3    3    0    0 -0.67184722878E+01  0.82866876031E+01 -0.31365028710E+02  0.33189939115E+02  0.19999927949E+01 0.  0.
        -13    1    3    3    0    0  0.67184722878E+01 -0.82866876031E+01  0.46146653020E+02  0.47363823856E+02  0.10566000000E+00 0.  1.
         13    1    4    4    0    0 -0.26723137843E+01  0.42543972046E+01 -0.13461933677E+02  0.14369272038E+02  0.10566000000E+00 0. -1.
        -13    1    4    4    0    0 -0.18904700404E+01  0.25522960882E+01 -0.10422866240E+02  0.10896577306E+02  0.10566000000E+00 0.  1.
        -14    1    4    4    0    0 -0.21556884631E+01  0.14799943103E+01 -0.74802287924E+01  0.79240897707E+01  0.00000000000E+00 0.  1.
<mgrwt>
<rscale>  0 0.79185935E+02</rscale>
<asrwt>0</asrwt>
<pdfrwt beam="1">  1        2 0.50593953E-02 0.79185935E+02</pdfrwt>
<pdfrwt beam="2">  1       -1 0.73334914E-02 0.79185935E+02</pdfrwt>
<totfact> 0.14098630E+05</totfact>
</mgrwt>
</event>
<event>
 8    1  0.2561077E-016  0.7992784E+02  0.7818608E-02  0.1329256E+00
          2   -1    0    0  501    0  0.00000000000E+00  0.00000000000E+00  0.39367769534E+02  0.39367769617E+02  0.25500000000E-02 0. -1.
         -1   -1    0    0    0  501 -0.00000000000E+00 -0.00000000000E+00 -0.40569093949E+02  0.40569094262E+02  0.50400000000E-02 0.  1.
         24    2    1    2    0    0  0.00000000000E+00  0.00000000000E+00 -0.12013244148E+01  0.79936863879E+02  0.79927836368E+02 0.  0.
         66    2    3    3    0    0  0.10468825006E+02  0.35966984952E+02  0.13252945679E+02  0.39785184069E+02  0.19999996744E+01 0.  0.
        -13    1    3    3    0    0 -0.10468825006E+02 -0.35966984952E+02 -0.14454270094E+02  0.40151679810E+02  0.10566000000E+00 0.  1.
         13    1    4    4    0    0  0.14351621902E+01  0.68800467012E+01  0.28068731408E+01  0.75686480951E+01  0.10566000000E+00 0. -1.
        -13    1    4    4    0    0  0.44882318994E+01  0.12695630792E+02  0.45878194923E+01  0.14226120993E+02  0.10566000000E+00 0. -1.
        -14    1    4    4    0    0  0.45454309165E+01  0.16391307460E+02  0.58582530458E+01  0.17990414981E+02  0.00000000000E+00 0.  1.
<mgrwt>
<rscale>  0 0.79927836E+02</rscale>
<asrwt>0</asrwt>
<pdfrwt beam="1">  1        2 0.60565799E-02 0.79927836E+02</pdfrwt>
<pdfrwt beam="2">  1       -1 0.62413991E-02 0.79927836E+02</pdfrwt>
<totfact> 0.14244224E+05</totfact>
</mgrwt>
</event>
<event>
 8    1  0.2561077E-016  0.7916460E+02  0.7818608E-02  0.1331439E+00
          2   -1    0    0  501    0  0.00000000000E+00  0.00000000000E+00  0.28756115470E+03  0.28756115471E+03  0.25500000000E-02 0. -1.
         -1   -1    0    0    0  501 -0.00000000000E+00 -0.00000000000E+00 -0.54484346867E+01  0.54484370178E+01  0.50400000000E-02 0.  1.
         24    2    1    2    0    0 -0.44408920985E-15  0.35527136788E-14  0.28211272001E+03  0.29300959173E+03  0.79164601003E+02 0.  0.
         66    2    3    3    0    0  0.25167397519E+01 -0.30432600469E+02  0.23421497956E+03  0.23620570229E+03  0.19999990820E+01 0.  0.
        -13    1    3    3    0    0 -0.25167397519E+01  0.30432600469E+02  0.47897740459E+02  0.56803889439E+02  0.10566000000E+00 0.  1.
         13    1    4    4    0    0  0.20083014629E+01 -0.20392102459E+02  0.15240221365E+03  0.15377359008E+03  0.10566000000E+00 0. -1.
        -13    1    4    4    0    0  0.10536642954E+00 -0.35129520377E+00  0.37186862219E+01  0.37382217239E+01  0.10566000000E+00 0.  1.
         14    1    4    4    0    0  0.40307185952E+00 -0.96892028068E+01  0.78094079684E+02  0.78693890485E+02  0.00000000000E+00 0. -1.
<mgrwt>
<rscale>  0 0.79164601E+02</rscale>
<asrwt>0</asrwt>
<pdfrwt beam="1">  1        2 0.44240173E-01 0.79164601E+02</pdfrwt>
<pdfrwt beam="2">  1       -1 0.83822099E-03 0.79164601E+02</pdfrwt>
<totfact> 0.25807024E+05</totfact>
</mgrwt>
</event>
<event>
 8    1  0.2561077E-016  0.7950872E+02  0.7818608E-02  0.1330451E+00
          2   -1    0    0  501    0  0.00000000000E+00  0.00000000000E+00  0.11657058006E+03  0.11657058009E+03  0.25500000000E-02 0. -1.
         -1   -1    0    0    0  501 -0.00000000000E+00 -0.00000000000E+00 -0.13557528197E+02  0.13557529134E+02  0.50400000000E-02 0.  1.
         24    2    1    2    0    0  0.00000000000E+00  0.17763568394E-14  0.10301305186E+03  0.13012810922E+03  0.79508716224E+02 0.  0.
         66    2    3    3    0    0 -0.37861858354E+02 -0.11402080301E+02  0.57851556946E+02  0.70102285276E+02  0.20000016770E+01 0.  0.
        -13    1    3    3    0    0  0.37861858354E+02  0.11402080301E+02  0.45161494919E+02  0.60025823947E+02  0.10566000000E+00 0.  1.
         13    1    4    4    0    0 -0.31877101189E+01 -0.52423288264E+00  0.42400128862E+01  0.53315278512E+01  0.10566000000E+00 0.  1.
        -13    1    4    4    0    0 -0.18198090354E+02 -0.54810823793E+01  0.28452030450E+02  0.34216106695E+02  0.10566000000E+00 0. -1.
        -14    1    4    4    0    0 -0.16476057881E+02 -0.53967650389E+01  0.25159513609E+02  0.30554650730E+02  0.00000000000E+00 0.  1.
<mgrwt>
<rscale>  0 0.79508716E+02</rscale>
<asrwt>0</asrwt>
<pdfrwt beam="1">  1        2 0.17933935E-01 0.79508716E+02</pdfrwt>
<pdfrwt beam="2">  1       -1 0.20857736E-02 0.79508716E+02</pdfrwt>
<totfact> 0.18832979E+05</totfact>
</mgrwt>
</event>
<event>
 8    1  0.2561077E-016  0.8116977E+02  0.7818608E-02  0.1325764E+00
          2   -1    0    0  501    0  0.00000000000E+00  0.00000000000E+00  0.20412392483E+03  0.20412392485E+03  0.25500000000E-02 0. -1.
         -1   -1    0    0    0  501 -0.00000000000E+00 -0.00000000000E+00 -0.80692790069E+01  0.80692805809E+01  0.50400000000E-02 0.  1.
         24    2    1    2    0    0  0.00000000000E+00  0.35527136788E-14  0.19605464582E+03  0.21219320543E+03  0.81169774427E+02 0.  0.
         66    2    3    3    0    0 -0.30784804284E+02  0.19790840629E+02  0.14379737518E+03  0.14839496841E+03  0.19999981093E+01 0.  0.
        -13    1    3    3    0    0  0.30784804284E+02 -0.19790840629E+02  0.52257270640E+02  0.63798237016E+02  0.10566000000E+00 0.  1.
         13    1    4    4    0    0 -0.15124420980E+02  0.10300317654E+02  0.73193631066E+02  0.75446427658E+02  0.10566000000E+00 0. -1.
        -13    1    4    4    0    0 -0.10308214701E+01  0.77713350769E+00  0.60201610703E+01  0.61579243857E+01  0.10566000000E+00 0. -1.
         14    1    4    4    0    0 -0.14629561833E+02  0.87133894682E+01  0.64583583048E+02  0.66790616367E+02  0.00000000000E+00 0. -1.
<mgrwt>
<rscale>  0 0.81169774E+02</rscale>
<asrwt>0</asrwt>
<pdfrwt beam="1">  1        2 0.31403678E-01 0.81169774E+02</pdfrwt>
<pdfrwt beam="2">  1       -1 0.12414278E-02 0.81169774E+02</pdfrwt>
<totfact> 0.21380582E+05</totfact>
</mgrwt>
</event>
<event>
 8    1  0.2561077E-016  0.7970681E+02  0.7818608E-02  0.1329886E+00
         -1   -1    0    0    0  501 -0.00000000000E+00  0.00000000000E+00  0.18164021939E+01  0.18164091862E+01  0.50400000000E-02 0.  1.
          2   -1    0    0  501    0  0.00000000000E+00 -0.00000000000E+00 -0.87441571672E+03  0.87441571672E+03  0.25500000000E-02 0. -1.
         24    2    1    2    0    0  0.00000000000E+00  0.00000000000E+00 -0.87259931452E+03  0.87623212591E+03  0.79706805012E+02 0.  0.
         66    2    3    3    0    0 -0.21885217747E+02  0.54484984720E+01 -0.79745174018E+03  0.79777310485E+03  0.20000037282E+01 0.  0.
        -13    1    3    3    0    0  0.21885217747E+02 -0.54484984720E+01 -0.75147574339E+02  0.78459021052E+02  0.10566000000E+00 0.  1.
         13    1    4    4    0    0 -0.11398830044E+02  0.29824698576E+01 -0.43066076766E+03  0.43082193122E+03  0.10566000000E+00 0. -1.
        -13    1    4    4    0    0 -0.94730156733E+01  0.18398127517E+01 -0.32622116230E+03  0.32636387795E+03  0.10566000000E+00 0.  1.
        -14    1    4    4    0    0 -0.10133720300E+01  0.62621586278E+00 -0.40569810222E+02  0.40587295680E+02  0.00000000000E+00 0.  1.
<mgrwt>
<rscale>  0 0.79706805E+02</rscale>
<asrwt>0</asrwt>
<pdfrwt beam="1">  1        2 0.13452516E+00 0.79706805E+02</pdfrwt>
<pdfrwt beam="2">  1       -1 0.27944773E-03 0.79706805E+02</pdfrwt>
<totfact> 0.35161092E+05</totfact>
</mgrwt>
</event>
<event>
 8    1  0.2561077E-016  0.7787578E+02  0.7818608E-02  0.1335190E+00
          2   -1    0    0  501    0  0.00000000000E+00  0.00000000000E+00  0.42106675945E+03  0.42106675946E+03  0.25500000000E-02 0. -1.
         -1   -1    0    0    0  501 -0.00000000000E+00 -0.00000000000E+00 -0.36007553871E+01  0.36007589144E+01  0.50400000000E-02 0.  1.
         24    2    1    2    0    0  0.00000000000E+00  0.00000000000E+00  0.41746600407E+03  0.42466751837E+03  0.77875776800E+02 0.  0.
         66    2    3    3    0    0 -0.24875173110E+02 -0.22786478683E+02  0.31463258682E+03  0.31644219457E+03  0.19999904382E+01 0.  0.
        -13    1    3    3    0    0  0.24875173110E+02  0.22786478683E+02  0.10283341724E+03  0.10822532381E+03  0.10566000000E+00 0.  1.
         13    1    4    4    0    0 -0.46755123157E+01 -0.50595879707E+01  0.65344741494E+02  0.65706972620E+02  0.10566000000E+00 0.  1.
        -13    1    4    4    0    0 -0.50219887146E+01 -0.50999760433E+01  0.66941352644E+02  0.67322997439E+02  0.10566000000E+00 0. -1.
        -14    1    4    4    0    0 -0.15177672080E+02 -0.12626914669E+02  0.18234649269E+03  0.18341222451E+03  0.00000000000E+00 0.  1.
<mgrwt>
<rscale>  0 0.77875777E+02</rscale>
<asrwt>0</asrwt>
<pdfrwt beam="1">  1        2 0.64779447E-01 0.77875777E+02</pdfrwt>
<pdfrwt beam="2">  1       -1 0.55396311E-03 0.77875777E+02</pdfrwt>
<totfact> 0.30851734E+05</totfact>
</mgrwt>
</event>
<event>
 8    1  0.2561077E-016  0.8011505E+02  0.7818608E-02  0.1328725E+00
          2   -1    0    0  501    0  0.00000000000E+00  0.00000000000E+00  0.45407539744E+03  0.45407539745E+03  0.25500000000E-02 0. -1.
         -1   -1    0    0    0  501 -0.00000000000E+00 -0.00000000000E+00 -0.35337841666E+01  0.35337877607E+01  0.50400000000E-02 0.  1.
         24    2    1    2    0    0  0.00000000000E+00  0.00000000000E+00  0.45054161328E+03  0.45760918521E+03  0.80115049121E+02 0.  0.
         66    2    3    3    0    0  0.20862931429E+02 -0.20996526348E+02  0.37936578512E+03  0.38052400049E+03  0.19999995558E+01 0.  0.
        -13    1    3    3    0    0 -0.20862931429E+02  0.20996526348E+02  0.71175828154E+02  0.77085184724E+02  0.10566000000E+00 0.  1.
         13    1    4    4    0    0  0.15500079563E+02 -0.15365449653E+02  0.28727278969E+03  0.28810070525E+03  0.10566000000E+00 0. -1.
        -13    1    4    4    0    0  0.46016880776E+01 -0.44731801390E+01  0.74794586875E+02  0.75069476244E+02  0.10566000000E+00 0.  1.
        -14    1    4    4    0    0  0.76116378848E+00 -0.11578965562E+01  0.17298408560E+02  0.17353818988E+02  0.00000000000E+00 0.  1.
<mgrwt>
<rscale>  0 0.80115049E+02</rscale>
<asrwt>0</asrwt>
<pdfrwt beam="1">  1        2 0.69857751E-01 0.80115049E+02</pdfrwt>
<pdfrwt beam="2">  1       -1 0.54365940E-03 0.80115049E+02</pdfrwt>
<totfact> 0.29397062E+05</totfact>
</mgrwt>
</event>
<event>
 8    1  0.2561077E-016  0.7826851E+02  0.7818608E-02  0.1334038E+00
         -1   -1    0    0    0  501 -0.00000000000E+00  0.00000000000E+00  0.22847304557E+02  0.22847305112E+02  0.50400000000E-02 0.  1.
          2   -1    0    0  501    0  0.00000000000E+00 -0.00000000000E+00 -0.67031530450E+02  0.67031530498E+02  0.25500000000E-02 0. -1.
         24    2    1    2    0    0  0.00000000000E+00 -0.71054273576E-14 -0.44184225893E+02  0.89878835611E+02  0.78268507543E+02 0.  0.
         66    2    3    3    0    0 -0.41704952127E+01  0.35047923833E+02 -0.41449628213E+02  0.54477717212E+02  0.19999995812E+01 0.  0.
        -13    1    3    3    0    0  0.41704952127E+01 -0.35047923833E+02 -0.27345976805E+01  0.35401118399E+02  0.10566000000E+00 0.  1.
         13    1    4    4    0    0 -0.30650817360E+01  0.17982019453E+02 -0.21431220729E+02  0.28143491887E+02  0.10566000000E+00 0. -1.
        -13    1    4    4    0    0 -0.36871424716E+00  0.96295678147E+01 -0.11327471362E+02  0.14872366926E+02  0.10566000000E+00 0.  1.
         14    1    4    4    0    0 -0.73669922957E+00  0.74363365660E+01 -0.86909361221E+01  0.11461858399E+02  0.00000000000E+00 0. -1.
<mgrwt>
<rscale>  0 0.78268508E+02</rscale>
<asrwt>0</asrwt>
<pdfrwt beam="1">  1        2 0.10312543E-01 0.78268508E+02</pdfrwt>
<pdfrwt beam="2">  1       -1 0.35149700E-02 0.78268508E+02</pdfrwt>
<totfact> 0.16952806E+05</totfact>
</mgrwt>
</event>
<event>
 8    1  0.2561077E-016  0.8113412E+02  0.7818608E-02  0.1325863E+00
         -1   -1    0    0    0  501 -0.00000000000E+00  0.00000000000E+00  0.49632696426E+02  0.49632696682E+02  0.50400000000E-02 0.  1.
          2   -1    0    0  501    0  0.00000000000E+00 -0.00000000000E+00 -0.33157301994E+02  0.33157302093E+02  0.25500000000E-02 0. -1.
         24    2    1    2    0    0 -0.35527136788E-14  0.00000000000E+00  0.16475394432E+02  0.82789998774E+02  0.81134119058E+02 0.  0.
         66    2    3    3    0    0  0.26539387721E+02 -0.30533915097E+02  0.55386489722E+01  0.40881972848E+02  0.19999999219E+01 0.  0.
        -13    1    3    3    0    0 -0.26539387721E+02  0.30533915097E+02  0.10936745459E+02  0.41908025927E+02  0.10566000000E+00 0.  1.
         13    1    4    4    0    0  0.23366121257E+02 -0.26627441818E+02  0.51218809038E+01  0.35794428455E+02  0.10566000000E+00 0. -1.
        -13    1    4    4    0    0  0.18795214225E+01 -0.24284783793E+01  0.53866386936E+00  0.31195241329E+01  0.10566000000E+00 0.  1.
         14    1    4    4    0    0  0.12937450414E+01 -0.14779948996E+01 -0.12189580092E+00  0.19680202595E+01  0.00000000000E+00 0. -1.
<mgrwt>
<rscale>  0 0.81134119E+02</rscale>
<asrwt>0</asrwt>
<pdfrwt beam="1">  1        2 0.51011234E-02 0.81134119E+02</pdfrwt>
<pdfrwt beam="2">  1       -1 0.76357994E-02 0.81134119E+02</pdfrwt>
<totfact> 0.13195823E+05</totfact>
</mgrwt>
</event>
<event>
 8    1  0.2561077E-016  0.7935277E+02  0.7818608E-02  0.1330898E+00
         -1   -1    0    0    0  501 -0.00000000000E+00  0.00000000000E+00  0.14659810211E+01  0.14659896848E+01  0.50400000000E-02 0.  1.
          2   -1    0    0  501    0  0.00000000000E+00 -0.00000000000E+00 -0.10738275047E+04  0.10738275047E+04  0.25500000000E-02 0. -1.
         24    2    1    2    0    0  0.00000000000E+00  0.00000000000E+00 -0.10723615236E+04  0.10752934943E+04  0.79352766843E+02 0.  0.
         66    2    3    3    0    0 -0.87681294844E+01 -0.12470923078E+02 -0.10325253205E+04  0.10326397927E+04  0.20000100923E+01 0.  0.
        -13    1    3    3    0    0  0.87681294844E+01  0.12470923078E+02 -0.39836203138E+02  0.42653701617E+02  0.10566000000E+00 0.  1.
         13    1    4    4    0    0 -0.41107633402E+01 -0.49019383118E+01 -0.46836283169E+03  0.46840653353E+03  0.10566000000E+00 0. -1.
        -13    1    4    4    0    0 -0.10138908674E+00 -0.47432851163E+00 -0.26242403715E+02  0.26247098583E+02  0.10566000000E+00 0.  1.
         14    1    4    4    0    0 -0.45559770574E+01 -0.70946562548E+01 -0.53792008509E+03  0.53798616062E+03  0.00000000000E+00 0. -1.
<mgrwt>
<rscale>  0 0.79352767E+02</rscale>
<asrwt>0</asrwt>
<pdfrwt beam="1">  1        2 0.16520360E+00 0.79352767E+02</pdfrwt>
<pdfrwt beam="2">  1       -1 0.22553707E-03 0.79352767E+02</pdfrwt>
<totfact> 0.36021706E+05</totfact>
</mgrwt>
</event>
<event>
 8    1  0.2561077E-016  0.8347609E+02  0.7818608E-02  0.1319467E+00
         -1   -1    0    0    0  501 -0.00000000000E+00  0.00000000000E+00  0.67916956011E+01  0.67916974711E+01  0.50400000000E-02 0.  1.
          2   -1    0    0  501    0  0.00000000000E+00 -0.00000000000E+00 -0.25649914457E+03  0.25649914458E+03  0.25500000000E-02 0. -1.
         24    2    1    2    0    0  0.00000000000E+00  0.00000000000E+00 -0.24970744897E+03  0.26329084205E+03  0.83476089024E+02 0.  0.
         66    2    3    3    0    0 -0.99881005282E+01 -0.21978156150E+02 -0.23222247805E+03  0.23348250644E+03  0.20000006539E+01 0.  0.
        -13    1    3    3    0    0  0.99881005282E+01  0.21978156150E+02 -0.17484970920E+02  0.29808335613E+02  0.10566000000E+00 0.  1.
         13    1    4    4    0    0 -0.25411032055E+01 -0.69268665713E+01 -0.76582924971E+02  0.76937599697E+02  0.10566000000E+00 0. -1.
        -13    1    4    4    0    0 -0.42837756031E+01 -0.78905760809E+01 -0.84955144735E+02  0.85428330811E+02  0.10566000000E+00 0.  1.
         14    1    4    4    0    0 -0.31632217196E+01 -0.71607134980E+01 -0.70684408342E+02  0.71116575930E+02  0.00000000000E+00 0. -1.
<mgrwt>
<rscale>  0 0.83476089E+02</rscale>
<asrwt>0</asrwt>
<pdfrwt beam="1">  1        2 0.39461399E-01 0.83476089E+02</pdfrwt>
<pdfrwt beam="2">  1       -1 0.10448766E-02 0.83476089E+02</pdfrwt>
<totfact> 0.21536341E+05</totfact>
</mgrwt>
</event>
<event>
 8    1  0.2561077E-016  0.8177708E+02  0.7818608E-02  0.1324083E+00
         -1   -1    0    0    0  501 -0.00000000000E+00  0.00000000000E+00  0.25433421922E+01  0.25433471859E+01  0.50400000000E-02 0.  1.
          2   -1    0    0  501    0  0.00000000000E+00 -0.00000000000E+00 -0.65735207081E+03  0.65735207082E+03  0.25500000000E-02 0. -1.
         24    2    1    2    0    0  0.71054273576E-14 -0.88817841970E-15 -0.65480872862E+03  0.65989541800E+03  0.81777084959E+02 0.  0.
         66    2    3    3    0    0 -0.31571446141E+02  0.66483984357E+01 -0.52996581845E+03  0.53095077562E+03  0.20000006664E+01 0.  0.
        -13    1    3    3    0    0  0.31571446141E+02 -0.66483984357E+01 -0.12484291018E+03  0.12894464238E+03  0.10566000000E+00 0.  1.
         13    1    4    4    0    0 -0.10171638502E+01  0.29788524911E+00 -0.16447455582E+02  0.16481908782E+02  0.10566000000E+00 0. -1.
        -13    1    4    4    0    0 -0.55746292749E+01  0.13934886346E+01 -0.84329871280E+02  0.84525479332E+02  0.10566000000E+00 0.  1.
        -14    1    4    4    0    0 -0.24979653016E+02  0.49570245519E+01 -0.42918849158E+03  0.42994338751E+03  0.00000000000E+00 0.  1.
<mgrwt>
<rscale>  0 0.81777085E+02</rscale>
<asrwt>0</asrwt>
<pdfrwt beam="1">  1        2 0.10113095E+00 0.81777085E+02</pdfrwt>
<pdfrwt beam="2">  1       -1 0.39128432E-03 0.81777085E+02</pdfrwt>
<totfact> 0.31119008E+05</totfact>
</mgrwt>
</event>
<event>
 8    1  0.2561077E-016  0.8208687E+02  0.7818608E-02  0.1323231E+00
          2   -1    0    0  501    0  0.00000000000E+00  0.00000000000E+00  0.51986533524E+02  0.51986533586E+02  0.25500000000E-02 0. -1.
         -1   -1    0    0    0  501 -0.00000000000E+00 -0.00000000000E+00 -0.32403840965E+02  0.32403841357E+02  0.50400000000E-02 0.  1.
         24    2    1    2    0    0 -0.17763568394E-14  0.71054273576E-14  0.19582692558E+02  0.84390374944E+02  0.82086865790E+02 0.  0.
         66    2    3    3    0    0 -0.10296746618E+02  0.34679230539E+02  0.29675892086E+02  0.46833007325E+02  0.19999955571E+01 0.  0.
        -13    1    3    3    0    0  0.10296746618E+02 -0.34679230539E+02 -0.10093199528E+02  0.37557367619E+02  0.10566000000E+00 0.  1.
         13    1    4    4    0    0 -0.22276362211E+01  0.91921449869E+01  0.74834894100E+01  0.12061163724E+02  0.10566000000E+00 0.  1.
        -13    1    4    4    0    0 -0.16654560307E+01  0.72001631860E+01  0.59275863301E+01  0.94743621121E+01  0.10566000000E+00 0. -1.
         14    1    4    4    0    0 -0.64036543665E+01  0.18286922367E+02  0.16264816346E+02  0.25297481488E+02  0.00000000000E+00 0. -1.
<mgrwt>
<rscale>  0 0.82086866E+02</rscale>
<asrwt>0</asrwt>
<pdfrwt beam="1">  1        2 0.79979281E-02 0.82086866E+02</pdfrwt>
<pdfrwt beam="2">  1       -1 0.49852064E-02 0.82086866E+02</pdfrwt>
<totfact> 0.14044197E+05</totfact>
</mgrwt>
</event>
<event>
 8    1  0.2561077E-016  0.8039891E+02  0.7818608E-02  0.1327923E+00
          2   -1    0    0  501    0  0.00000000000E+00  0.00000000000E+00  0.18244731160E+02  0.18244731339E+02  0.25500000000E-02 0. -1.
         -1   -1    0    0    0  501 -0.00000000000E+00 -0.00000000000E+00 -0.88573308856E+02  0.88573309000E+02  0.50400000000E-02 0.  1.
         24    2    1    2    0    0  0.00000000000E+00  0.71054273576E-14 -0.70328577696E+02  0.10681804034E+03  0.80398911069E+02 0.  0.
         66    2    3    3    0    0  0.12066655993E+01 -0.39996173263E+02 -0.30424972733E+02  0.50307344265E+02  0.20000009094E+01 0.  0.
        -13    1    3    3    0    0 -0.12066655993E+01  0.39996173263E+02 -0.39903604963E+02  0.56510696073E+02  0.10566000000E+00 0.  1.
         13    1    4    4    0    0  0.11813626888E+01 -0.25210638793E+02 -0.19106801414E+02  0.31655219956E+02  0.10566000000E+00 0. -1.
        -13    1    4    4    0    0 -0.23744961400E+00 -0.11697612453E+02 -0.93870554077E+01  0.15000616410E+02  0.10566000000E+00 0.  1.
        -14    1    4    4    0    0  0.26275252443E+00 -0.30879220179E+01 -0.19311159111E+01  0.36515078995E+01  0.00000000000E+00 0.  1.
<mgrwt>
<rscale>  0 0.80398911E+02</rscale>
<asrwt>0</asrwt>
<pdfrwt beam="1">  1        2 0.28068818E-02 0.80398911E+02</pdfrwt>
<pdfrwt beam="2">  1       -1 0.13626663E-01 0.80398911E+02</pdfrwt>
<totfact> 0.12010717E+05</totfact>
</mgrwt>
</event>
<event>
 8    1  0.2561077E-016  0.8015760E+02  0.7818608E-02  0.1328605E+00
         -1   -1    0    0    0  501 -0.00000000000E+00  0.00000000000E+00  0.49745101128E+01  0.49745126660E+01  0.50400000000E-02 0.  1.
          2   -1    0    0  501    0  0.00000000000E+00 -0.00000000000E+00 -0.32290816899E+03  0.32290816900E+03  0.25500000000E-02 0. -1.
         24    2    1    2    0    0  0.00000000000E+00  0.00000000000E+00 -0.31793365888E+03  0.32788268167E+03  0.80157604066E+02 0.  0.
         66    2    3    3    0    0 -0.17057567820E+02 -0.36235714634E+02 -0.15675965449E+03  0.16180722144E+03  0.19999998678E+01 0.  0.
        -13    1    3    3    0    0  0.17057567820E+02  0.36235714634E+02 -0.16117400439E+03  0.16607546023E+03  0.10566000000E+00 0.  1.
         13    1    4    4    0    0 -0.34617542234E+01 -0.73141189762E+01 -0.32868039826E+02  0.33849657085E+02  0.10566000000E+00 0. -1.
        -13    1    4    4    0    0 -0.11530851040E+02 -0.24393712751E+02 -0.10211977244E+03  0.10562420573E+03  0.10566000000E+00 0.  1.
        -14    1    4    4    0    0 -0.20649625566E+01 -0.45278829064E+01 -0.21771842217E+02  0.22333358626E+02  0.00000000000E+00 0.  1.
<mgrwt>
<rscale>  0 0.80157604E+02</rscale>
<asrwt>0</asrwt>
<pdfrwt beam="1">  1        2 0.49678163E-01 0.80157604E+02</pdfrwt>
<pdfrwt beam="2">  1       -1 0.76530970E-03 0.80157604E+02</pdfrwt>
<totfact> 0.26046880E+05</totfact>
</mgrwt>
</event>
<event>
 8    1  0.2561077E-016  0.7932287E+02  0.7818608E-02  0.1330984E+00
          2   -1    0    0  501    0  0.00000000000E+00  0.00000000000E+00  0.62994631329E+02  0.62994631381E+02  0.25500000000E-02 0. -1.
         -1   -1    0    0    0  501 -0.00000000000E+00 -0.00000000000E+00 -0.24970846961E+02  0.24970847469E+02  0.50400000000E-02 0.  1.
         24    2    1    2    0    0  0.00000000000E+00  0.00000000000E+00  0.38023784369E+02  0.87965478850E+02  0.79322867394E+02 0.  0.
         66    2    3    3    0    0  0.22414838546E+02  0.11500018107E+01  0.55252616852E+02  0.59670756304E+02  0.19999994392E+01 0.  0.
        -13    1    3    3    0    0 -0.22414838546E+02 -0.11500018107E+01 -0.17228832483E+02  0.28294722546E+02  0.10566000000E+00 0.  1.
         13    1    4    4    0    0  0.54858850030E+01  0.51220246781E+00  0.12508134385E+02  0.13668279901E+02  0.10566000000E+00 0.  1.
        -13    1    4    4    0    0  0.49870084739E+01  0.66585506572E+00  0.11461576433E+02  0.12517688079E+02  0.10566000000E+00 0. -1.
         14    1    4    4    0    0  0.11941945069E+02 -0.28055722842E-01  0.31282906034E+02  0.33484788324E+02  0.00000000000E+00 0. -1.
<mgrwt>
<rscale>  0 0.79322867E+02</rscale>
<asrwt>0</asrwt>
<pdfrwt beam="1">  1        2 0.96914817E-02 0.79322867E+02</pdfrwt>
<pdfrwt beam="2">  1       -1 0.38416688E-02 0.79322867E+02</pdfrwt>
<totfact> 0.16111313E+05</totfact>
</mgrwt>
</event>
<event>
 8    1  0.2561077E-016  0.7858375E+02  0.7818608E-02  0.1333119E+00
          2   -1    0    0  501    0  0.00000000000E+00  0.00000000000E+00  0.53049301818E+03  0.53049301818E+03  0.25500000000E-02 0. -1.
         -1   -1    0    0    0  501 -0.00000000000E+00 -0.00000000000E+00 -0.29102178390E+01  0.29102222032E+01  0.50400000000E-02 0.  1.
         24    2    1    2    0    0 -0.71054273576E-14 -0.88817841970E-15  0.52758280034E+03  0.53340324039E+03  0.78583749224E+02 0.  0.
         66    2    3    3    0    0 -0.38314901677E+02 -0.57475892367E+01  0.30730753763E+03  0.30974665319E+03  0.20000009285E+01 0.  0.
        -13    1    3    3    0    0  0.38314901677E+02  0.57475892367E+01  0.22027526270E+03  0.22365658720E+03  0.10566000000E+00 0.  1.
         13    1    4    4    0    0 -0.21600441687E+02 -0.32277749202E+01  0.17123455383E+03  0.17262178658E+03  0.10566000000E+00 0. -1.
        -13    1    4    4    0    0 -0.46040301539E+01 -0.11402329674E+01  0.35276527996E+02  0.35594126150E+02  0.10566000000E+00 0.  1.
         14    1    4    4    0    0 -0.12110429836E+02 -0.13795813491E+01  0.10079645581E+03  0.10153074046E+03  0.00000000000E+00 0. -1.
<mgrwt>
<rscale>  0 0.78583749E+02</rscale>
<asrwt>0</asrwt>
<pdfrwt beam="1">  1        2 0.81614354E-01 0.78583749E+02</pdfrwt>
<pdfrwt beam="2">  1       -1 0.44772592E-03 0.78583749E+02</pdfrwt>
<totfact> 0.32496907E+05</totfact>
</mgrwt>
</event>
<event>
 8    1  0.2561077E-016  0.7755283E+02  0.7818608E-02  0.1336143E+00
          2   -1    0    0  501    0  0.00000000000E+00  0.00000000000E+00  0.17521330969E+02  0.17521331155E+02  0.25500000000E-02 0. -1.
         -1   -1    0    0    0  501 -0.00000000000E+00 -0.00000000000E+00 -0.85815994047E+02  0.85815994195E+02  0.50400000000E-02 0.  1.
         24    2    1    2    0    0  0.00000000000E+00  0.35527136788E-14 -0.68294663078E+02  0.10333732535E+03  0.77552832350E+02 0.  0.
         66    2    3    3    0    0  0.29615954148E+02  0.18254067225E+02 -0.11428316197E+02  0.36673179949E+02  0.20000015210E+01 0.  0.
        -13    1    3    3    0    0 -0.29615954148E+02 -0.18254067225E+02 -0.56866346881E+02  0.66664145401E+02  0.10566000000E+00 0.  1.
         13    1    4    4    0    0  0.20450967606E+02  0.11839844869E+02 -0.81529280523E+01  0.24998107976E+02  0.10566000000E+00 0.  1.
        -13    1    4    4    0    0  0.61772061902E+01  0.43041851189E+01 -0.18849425472E+01  0.77619622709E+01  0.10566000000E+00 0. -1.
        -14    1    4    4    0    0  0.29877803519E+01  0.21100372376E+01 -0.13904455972E+01  0.39131097012E+01  0.00000000000E+00 0.  1.
<mgrwt>
<rscale>  0 0.77552832E+02</rscale>
<asrwt>0</asrwt>
<pdfrwt beam="1">  1        2 0.26955894E-02 0.77552832E+02</pdfrwt>
<pdfrwt beam="2">  1       -1 0.13202460E-01 0.77552832E+02</pdfrwt>
<totfact> 0.13218133E+05</totfact>
</mgrwt>
</event>
<event>
 8    1  0.2561077E-016  0.7994617E+02  0.7818608E-02  0.1329204E+00
         -1   -1    0    0    0  501 -0.00000000000E+00  0.00000000000E+00  0.59512314290E+01  0.59512335632E+01  0.50400000000E-02 0.  1.
          2   -1    0    0  501    0  0.00000000000E+00 -0.00000000000E+00 -0.26849018005E+03  0.26849018006E+03  0.25500000000E-02 0. -1.
         24    2    1    2    0    0 -0.71054273576E-14  0.44408920985E-15 -0.26253894862E+03  0.27444141362E+03  0.79946169199E+02 0.  0.
         66    2    3    3    0    0 -0.39791468318E+02 -0.35058563014E+01 -0.13284994346E+03  0.13873989852E+03  0.19999959025E+01 0.  0.
        -13    1    3    3    0    0  0.39791468318E+02  0.35058563014E+01 -0.12968900516E+03  0.13570151510E+03  0.10566000000E+00 0.  1.
         13    1    4    4    0    0 -0.33290067614E+02 -0.29499343716E+01 -0.11070111515E+03  0.11563597526E+03  0.10566000000E+00 0. -1.
        -13    1    4    4    0    0 -0.13963523620E+01 -0.37826198495E+00 -0.42674349608E+01  0.45072216750E+01  0.10566000000E+00 0.  1.
         14    1    4    4    0    0 -0.51050483418E+01 -0.17765994484E+00 -0.17881393354E+02  0.18596701587E+02  0.00000000000E+00 0. -1.
<mgrwt>
<rscale>  0 0.79946169E+02</rscale>
<asrwt>0</asrwt>
<pdfrwt beam="1">  1        2 0.41306172E-01 0.79946169E+02</pdfrwt>
<pdfrwt beam="2">  1       -1 0.91557444E-03 0.79946169E+02</pdfrwt>
<totfact> 0.24533434E+05</totfact>
</mgrwt>
</event>
<event>
 8    1  0.2561077E-016  0.8025802E+02  0.7818608E-02  0.1328321E+00
         -1   -1    0    0    0  501 -0.00000000000E+00  0.00000000000E+00  0.14924007312E+02  0.14924008163E+02  0.50400000000E-02 0.  1.
          2   -1    0    0  501    0  0.00000000000E+00 -0.00000000000E+00 -0.10790247715E+03  0.10790247718E+03  0.25500000000E-02 0. -1.
         24    2    1    2    0    0  0.00000000000E+00  0.00000000000E+00 -0.92978469842E+02  0.12282648535E+03  0.80258019217E+02 0.  0.
         66    2    3    3    0    0  0.17479847685E+02  0.35921190502E+02 -0.51919132808E+02  0.65539861046E+02  0.20000080534E+01 0.  0.
        -13    1    3    3    0    0 -0.17479847685E+02 -0.35921190502E+02 -0.41059337034E+02  0.57286624301E+02  0.10566000000E+00 0.  1.
         13    1    4    4    0    0  0.87259487498E+01  0.19733629618E+02 -0.28043196546E+02  0.35383475748E+02  0.10566000000E+00 0. -1.
        -13    1    4    4    0    0  0.68699195082E+00  0.10010487450E+01 -0.17884929084E+01  0.21642383070E+01  0.10566000000E+00 0.  1.
         14    1    4    4    0    0  0.80669069845E+01  0.15186512139E+02 -0.22087443354E+02  0.27992146991E+02  0.00000000000E+00 0. -1.
<mgrwt>
<rscale>  0 0.80258019E+02</rscale>
<asrwt>0</asrwt>
<pdfrwt beam="1">  1        2 0.16600381E-01 0.80258019E+02</pdfrwt>
<pdfrwt beam="2">  1       -1 0.22960013E-02 0.80258019E+02</pdfrwt>
<totfact> 0.17957449E+05</totfact>
</mgrwt>
</event>
<event>
 8    1  0.2561077E-016  0.7936652E+02  0.7818608E-02  0.1330859E+00
          2   -1    0    0  501    0  0.00000000000E+00  0.00000000000E+00  0.37012932958E+02  0.37012933045E+02  0.25500000000E-02 0. -1.
         -1   -1    0    0    0  501 -0.00000000000E+00 -0.00000000000E+00 -0.42546236823E+02  0.42546237122E+02  0.50400000000E-02 0.  1.
         24    2    1    2    0    0  0.00000000000E+00  0.00000000000E+00 -0.55333038659E+01  0.79559170167E+02  0.79366517538E+02 0.  0.
         66    2    3    3    0    0  0.37711837648E+02 -0.46695528610E+01 -0.14143576597E+02  0.40595913332E+02  0.19999993912E+01 0.  0.
        -13    1    3    3    0    0 -0.37711837648E+02  0.46695528610E+01  0.86102727313E+01  0.38963256836E+02  0.10566000000E+00 0.  1.
         13    1    4    4    0    0  0.21742006291E+02 -0.23299521142E+01 -0.88229420114E+01  0.23579630705E+02  0.10566000000E+00 0. -1.
        -13    1    4    4    0    0  0.23509288675E+01 -0.15808898334E+00 -0.10109216966E+01  0.25661226352E+01  0.10566000000E+00 0.  1.
         14    1    4    4    0    0  0.13618902490E+02 -0.21815117634E+01 -0.43097128892E+01  0.14450159992E+02  0.00000000000E+00 0. -1.
<mgrwt>
<rscale>  0 0.79366518E+02</rscale>
<asrwt>0</asrwt>
<pdfrwt beam="1">  1        2 0.56942974E-02 0.79366518E+02</pdfrwt>
<pdfrwt beam="2">  1       -1 0.65455749E-02 0.79366518E+02</pdfrwt>
<totfact> 0.14344004E+05</totfact>
</mgrwt>
</event>
<event>
 8    1  0.2561077E-016  0.7687531E+02  0.7818608E-02  0.1338160E+00
          2   -1    0    0  501    0  0.00000000000E+00  0.00000000000E+00  0.27970795293E+02  0.27970795410E+02  0.25500000000E-02 0. -1.
         -1   -1    0    0    0  501 -0.00000000000E+00 -0.00000000000E+00 -0.52821286293E+02  0.52821286534E+02  0.50400000000E-02 0.  1.
         24    2    1    2    0    0  0.00000000000E+00  0.35527136788E-14 -0.24850491000E+02  0.80792081943E+02  0.76875312043E+02 0.  0.
         66    2    3    3    0    0  0.22014053375E+02 -0.20941847029E+02  0.12264109176E+02  0.32826633824E+02  0.20000028391E+01 0.  0.
        -13    1    3    3    0    0 -0.22014053375E+02  0.20941847029E+02 -0.37114600176E+02  0.47965448119E+02  0.10566000000E+00 0.  1.
         13    1    4    4    0    0  0.12758401341E+02 -0.12045528048E+02  0.60525888557E+01  0.18561156931E+02  0.10566000000E+00 0. -1.
        -13    1    4    4    0    0  0.62644224287E+01 -0.58265766919E+01  0.41712356836E+01  0.95185269594E+01  0.10566000000E+00 0.  1.
         14    1    4    4    0    0  0.29912296057E+01 -0.30697422895E+01  0.20402846365E+01  0.47469499340E+01  0.00000000000E+00 0. -1.
<mgrwt>
<rscale>  0 0.76875312E+02</rscale>
<asrwt>0</asrwt>
<pdfrwt beam="1">  1        2 0.43031993E-02 0.76875312E+02</pdfrwt>
<pdfrwt beam="2">  1       -1 0.81263518E-02 0.76875312E+02</pdfrwt>
<totfact> 0.14839128E+05</totfact>
</mgrwt>
</event>
<event>
 8    1  0.2561077E-016  0.7395780E+02  0.7818608E-02  0.1347129E+00
          2   -1    0    0  501    0  0.00000000000E+00  0.00000000000E+00  0.15195280148E+03  0.15195280150E+03  0.25500000000E-02 0. -1.
         -1   -1    0    0    0  501 -0.00000000000E+00 -0.00000000000E+00 -0.89991019916E+01  0.89991034029E+01  0.50400000000E-02 0.  1.
         24    2    1    2    0    0  0.00000000000E+00  0.00000000000E+00  0.14295369949E+03  0.16095190490E+03  0.73957795362E+02 0.  0.
         66    2    3    3    0    0  0.16542386197E+01 -0.16086814329E+02  0.14383581334E+03  0.14475587485E+03  0.20000007966E+01 0.  0.
        -13    1    3    3    0    0 -0.16542386197E+01  0.16086814329E+02 -0.88211385215E+00  0.16196030056E+02  0.10566000000E+00 0.  1.
         13    1    4    4    0    0  0.50386451870E+00 -0.50590625535E+01  0.46872340082E+02  0.47147379802E+02  0.10566000000E+00 0. -1.
        -13    1    4    4    0    0  0.45320369379E+00 -0.12426290030E+01  0.85318686665E+01  0.86344349789E+01  0.10566000000E+00 0.  1.
        -14    1    4    4    0    0  0.69717040719E+00 -0.97851227728E+01  0.88431604591E+02  0.88974060067E+02  0.00000000000E+00 0.  1.
<mgrwt>
<rscale>  0 0.73957795E+02</rscale>
<asrwt>0</asrwt>
<pdfrwt beam="1">  1        2 0.23377352E-01 0.73957795E+02</pdfrwt>
<pdfrwt beam="2">  1       -1 0.13844775E-02 0.73957795E+02</pdfrwt>
<totfact> 0.24748318E+05</totfact>
</mgrwt>
</event>
<event>
 8    1  0.2561077E-016  0.7969675E+02  0.7818608E-02  0.1329914E+00
          2   -1    0    0  501    0  0.00000000000E+00  0.00000000000E+00  0.11035370565E+02  0.11035370860E+02  0.25500000000E-02 0. -1.
         -1   -1    0    0    0  501 -0.00000000000E+00 -0.00000000000E+00 -0.14389120665E+03  0.14389120674E+03  0.50400000000E-02 0.  1.
         24    2    1    2    0    0  0.00000000000E+00  0.00000000000E+00 -0.13285583609E+03  0.15492657760E+03  0.79696745634E+02 0.  0.
         66    2    3    3    0    0  0.36888812405E+02 -0.54915194964E+01 -0.39327552864E+02  0.54236497684E+02  0.19999999246E+01 0.  0.
        -13    1    3    3    0    0 -0.36888812405E+02  0.54915194964E+01 -0.93528283223E+02  0.10069007992E+03  0.10566000000E+00 0.  1.
         13    1    4    4    0    0  0.11620025751E+02 -0.17376296068E+01 -0.12016892617E+02  0.16806582857E+02  0.10566000000E+00 0. -1.
        -13    1    4    4    0    0  0.13670128088E+02 -0.13226754752E+01 -0.14129470982E+02  0.19704694533E+02  0.10566000000E+00 0.  1.
         14    1    4    4    0    0  0.11598658566E+02 -0.24312144145E+01 -0.13181189265E+02  0.17725220294E+02  0.00000000000E+00 0. -1.
<mgrwt>
<rscale>  0 0.79696746E+02</rscale>
<asrwt>0</asrwt>
<pdfrwt beam="1">  1        2 0.16977494E-02 0.79696746E+02</pdfrwt>
<pdfrwt beam="2">  1       -1 0.22137107E-01 0.79696746E+02</pdfrwt>
<totfact> 0.11005979E+05</totfact>
</mgrwt>
</event>
<event>
 8    1  0.2561077E-016  0.7875638E+02  0.7818608E-02  0.1332618E+00
         -1   -1    0    0    0  501 -0.00000000000E+00  0.00000000000E+00  0.71115555534E+02  0.71115555712E+02  0.50400000000E-02 0.  1.
          2   -1    0    0  501    0  0.00000000000E+00 -0.00000000000E+00 -0.21804540340E+02  0.21804540489E+02  0.25500000000E-02 0. -1.
         24    2    1    2    0    0  0.35527136788E-14  0.00000000000E+00  0.49311015194E+02  0.92920096201E+02  0.78756384240E+02 0.  0.
         66    2    3    3    0    0  0.16929780393E+02  0.24253791503E+02 -0.59539646964E+01  0.30237618325E+02  0.19999999917E+01 0.  0.
        -13    1    3    3    0    0 -0.16929780393E+02 -0.24253791503E+02  0.55264979890E+02  0.62682477876E+02  0.10566000000E+00 0.  1.
         13    1    4    4    0    0  0.12118357558E+02  0.18018213073E+02 -0.41938601984E+01  0.22115836399E+02  0.10566000000E+00 0. -1.
        -13    1    4    4    0    0  0.31681263395E+01  0.38209985293E+01 -0.69595378476E+00  0.50132394686E+01  0.10566000000E+00 0.  1.
         14    1    4    4    0    0  0.16432964950E+01  0.24145799006E+01 -0.10641507132E+01  0.31085424571E+01  0.00000000000E+00 0. -1.
<mgrwt>
<rscale>  0 0.78756384E+02</rscale>
<asrwt>0</asrwt>
<pdfrwt beam="1">  1        2 0.33545447E-02 0.78756384E+02</pdfrwt>
<pdfrwt beam="2">  1       -1 0.10940855E-01 0.78756384E+02</pdfrwt>
<totfact> 0.13210234E+05</totfact>
</mgrwt>
</event>
<event>
 8    1  0.2561077E-016  0.8360623E+02  0.7818608E-02  0.1319118E+00
          2   -1    0    0  501    0  0.00000000000E+00  0.00000000000E+00  0.13993818782E+04  0.13993818782E+04  0.25500000000E-02 0. -1.
         -1   -1    0    0    0  501 -0.00000000000E+00 -0.00000000000E+00 -0.12487607925E+01  0.12487709632E+01  0.50400000000E-02 0.  1.
         24    2    1    2    0    0  0.00000000000E+00 -0.35527136788E-14  0.13981331174E+04  0.14006306492E+04  0.83606228180E+02 0.  0.
         66    2    3    3    0    0  0.88749353579E+01 -0.14535505754E+02  0.13385872771E+04  0.13386971068E+04  0.19999998630E+01 0.  0.
        -13    1    3    3    0    0 -0.88749353579E+01  0.14535505754E+02  0.59545840332E+02  0.61933542366E+02  0.10566000000E+00 0.  1.
         13    1    4    4    0    0  0.27103030635E+01 -0.38484175259E+01  0.38343960244E+03  0.38346850711E+03  0.10566000000E+00 0. -1.
        -13    1    4    4    0    0  0.20369280009E+01 -0.26032020868E+01  0.21899463128E+03  0.21901960056E+03  0.10566000000E+00 0.  1.
         14    1    4    4    0    0  0.41277042934E+01 -0.80838861418E+01  0.73615304340E+03  0.73620899917E+03  0.00000000000E+00 0. -1.
<mgrwt>
<rscale>  0 0.83606228E+02</rscale>
<asrwt>0</asrwt>
<pdfrwt beam="1">  1        2 0.21529013E+00 0.83606228E+02</pdfrwt>
<pdfrwt beam="2">  1       -1 0.19211729E-03 0.83606228E+02</pdfrwt>
<totfact> 0.30328135E+05</totfact>
</mgrwt>
</event>
<event>
 8    1  0.2561077E-016  0.8010238E+02  0.7818608E-02  0.1328761E+00
          2   -1    0    0  501    0  0.00000000000E+00  0.00000000000E+00  0.48161910590E+03  0.48161910590E+03  0.25500000000E-02 0. -1.
         -1   -1    0    0    0  501 -0.00000000000E+00 -0.00000000000E+00 -0.33306334795E+01  0.33306372929E+01  0.50400000000E-02 0.  1.
         24    2    1    2    0    0  0.00000000000E+00  0.00000000000E+00  0.47828847242E+03  0.48494974320E+03  0.80102375614E+02 0.  0.
         66    2    3    3    0    0  0.15370732883E+02  0.22575579116E+02  0.41643956995E+03  0.41733898886E+03  0.19999997720E+01 0.  0.
        -13    1    3    3    0    0 -0.15370732883E+02 -0.22575579116E+02  0.61848902466E+02  0.67610754337E+02  0.10566000000E+00 0.  1.
         13    1    4    4    0    0  0.20862472735E+00  0.32105187957E+00  0.69143489923E+01  0.69257479458E+01  0.10566000000E+00 0.  1.
        -13    1    4    4    0    0  0.24309947334E+01  0.31336050584E+01  0.52401280231E+02  0.52551256407E+02  0.10566000000E+00 0.  1.
         14    1    4    4    0    0  0.12731113422E+02  0.19120922178E+02  0.35712394073E+03  0.35786198451E+03  0.00000000000E+00 0. -1.
<mgrwt>
<rscale>  0 0.80102376E+02</rscale>
<asrwt>0</asrwt>
<pdfrwt beam="1">  1        2 0.74095274E-01 0.80102376E+02</pdfrwt>
<pdfrwt beam="2">  1       -1 0.51240526E-03 0.80102376E+02</pdfrwt>
<totfact> 0.29986181E+05</totfact>
</mgrwt>
</event>
<event>
 8    1  0.2561077E-016  0.7785266E+02  0.7818608E-02  0.1335258E+00
         -1   -1    0    0    0  501 -0.00000000000E+00  0.00000000000E+00  0.30826291349E+02  0.30826291761E+02  0.50400000000E-02 0.  1.
          2   -1    0    0  501    0  0.00000000000E+00 -0.00000000000E+00 -0.49154769358E+02  0.49154769424E+02  0.25500000000E-02 0. -1.
         24    2    1    2    0    0  0.00000000000E+00  0.17763568394E-14 -0.18328478009E+02  0.79981061185E+02  0.77852662396E+02 0.  0.
         66    2    3    3    0    0  0.26406096165E+02  0.90214575322E+01 -0.37014481761E+02  0.46397635051E+02  0.20000169018E+01 0.  0.
        -13    1    3    3    0    0 -0.26406096165E+02 -0.90214575322E+01  0.18686003752E+02  0.33583426134E+02  0.10566000000E+00 0.  1.
         13    1    4    4    0    0  0.23775032604E+00 -0.52570648354E-01 -0.33700142694E+00  0.42897888987E+00  0.10566000000E+00 0. -1.
        -13    1    4    4    0    0  0.87808963392E+01  0.32920342513E+01 -0.11875141552E+02  0.15131813538E+02  0.10566000000E+00 0.  1.
         14    1    4    4    0    0  0.17387449500E+02  0.57819939292E+01 -0.24802338782E+02  0.30836842623E+02  0.00000000000E+00 0. -1.
<mgrwt>
<rscale>  0 0.77852662E+02</rscale>
<asrwt>0</asrwt>
<pdfrwt beam="1">  1        2 0.75622722E-02 0.77852662E+02</pdfrwt>
<pdfrwt beam="2">  1       -1 0.47425064E-02 0.77852662E+02</pdfrwt>
<totfact> 0.16038247E+05</totfact>
</mgrwt>
</event>
<event>
 8    1  0.2561077E-016  0.8122688E+02  0.7818608E-02  0.1325605E+00
         -1   -1    0    0    0  501 -0.00000000000E+00  0.00000000000E+00  0.77505495242E+01  0.77505511629E+01  0.50400000000E-02 0.  1.
          2   -1    0    0  501    0  0.00000000000E+00 -0.00000000000E+00 -0.21281736191E+03  0.21281736193E+03  0.25500000000E-02 0. -1.
         24    2    1    2    0    0  0.35527136788E-14 -0.88817841970E-15 -0.20506681239E+03  0.22056791309E+03  0.81226884355E+02 0.  0.
         66    2    3    3    0    0 -0.21514633777E+02  0.51876611616E+01 -0.19498693180E+03  0.19624906337E+03  0.20000017250E+01 0.  0.
        -13    1    3    3    0    0  0.21514633777E+02 -0.51876611616E+01 -0.10079880588E+02  0.24318849718E+02  0.10566000000E+00 0.  1.
         13    1    4    4    0    0 -0.29702355058E+01  0.58314061652E+00 -0.28699385836E+02  0.28858764064E+02  0.10566000000E+00 0. -1.
        -13    1    4    4    0    0 -0.12323818516E+02  0.33309050456E+01 -0.10430809365E+03  0.10508644535E+03  0.10566000000E+00 0.  1.
        -14    1    4    4    0    0 -0.62205797560E+01  0.12736154995E+01 -0.61979452314E+02  0.62303853958E+02  0.00000000000E+00 0.  1.
<mgrwt>
<rscale>  0 0.81226884E+02</rscale>
<asrwt>0</asrwt>
<pdfrwt beam="1">  1        2 0.32741128E-01 0.81226884E+02</pdfrwt>
<pdfrwt beam="2">  1       -1 0.11923925E-02 0.81226884E+02</pdfrwt>
<totfact> 0.21655191E+05</totfact>
</mgrwt>
</event>
<event>
 8    1  0.2561077E-016  0.7792342E+02  0.7818608E-02  0.1335050E+00
         -1   -1    0    0    0  501 -0.00000000000E+00  0.00000000000E+00  0.11099958044E+02  0.11099959188E+02  0.50400000000E-02 0.  1.
          2   -1    0    0  501    0  0.00000000000E+00 -0.00000000000E+00 -0.13675862066E+03  0.13675862068E+03  0.25500000000E-02 0. -1.
         24    2    1    2    0    0 -0.71054273576E-14  0.17763568394E-14 -0.12565866261E+03  0.14785857987E+03  0.77923424919E+02 0.  0.
         66    2    3    3    0    0  0.35652777132E+02 -0.90828988317E+01 -0.38690461419E+02  0.53428188832E+02  0.19999971755E+01 0.  0.
        -13    1    3    3    0    0 -0.35652777132E+02  0.90828988317E+01 -0.86968201193E+02  0.94430391036E+02  0.10566000000E+00 0.  1.
         13    1    4    4    0    0  0.20767327453E+02 -0.56390201398E+01 -0.22015914946E+02  0.30786232517E+02  0.10566000000E+00 0. -1.
        -13    1    4    4    0    0  0.98523986483E+01 -0.17550614740E+01 -0.10967573415E+02  0.14847519340E+02  0.10566000000E+00 0.  1.
        -14    1    4    4    0    0  0.50330510303E+01 -0.16888172179E+01 -0.57069730582E+01  0.77944369749E+01  0.00000000000E+00 0.  1.
<mgrwt>
<rscale>  0 0.77923425E+02</rscale>
<asrwt>0</asrwt>
<pdfrwt beam="1">  1        2 0.21039787E-01 0.77923425E+02</pdfrwt>
<pdfrwt beam="2">  1       -1 0.17076861E-02 0.77923425E+02</pdfrwt>
<totfact> 0.20856958E+05</totfact>
</mgrwt>
</event>
<event>
 8    1  0.2561077E-016  0.7990948E+02  0.7818608E-02  0.1329309E+00
          2   -1    0    0  501    0  0.00000000000E+00  0.00000000000E+00  0.17006654122E+02  0.17006654313E+02  0.25500000000E-02 0. -1.
         -1   -1    0    0    0  501 -0.00000000000E+00 -0.00000000000E+00 -0.93868040049E+02  0.93868040185E+02  0.50400000000E-02 0.  1.
         24    2    1    2    0    0  0.88817841970E-15  0.35527136788E-14 -0.76861385927E+02  0.11087469450E+03  0.79909481498E+02 0.  0.
         66    2    3    3    0    0  0.65892132458E+01  0.17623205889E+02  0.10411854857E+02  0.21596338565E+02  0.20000002176E+01 0.  0.
        -13    1    3    3    0    0 -0.65892132458E+01 -0.17623205889E+02 -0.87273240784E+02  0.89278355932E+02  0.10566000000E+00 0.  1.
         13    1    4    4    0    0  0.28457950333E+01  0.65474907799E+01  0.38720142868E+01  0.81223053105E+01  0.10566000000E+00 0. -1.
        -13    1    4    4    0    0  0.11869625411E+01  0.44203293889E+01  0.32965176528E+01  0.56414878048E+01  0.10566000000E+00 0.  1.
        -14    1    4    4    0    0  0.25564556714E+01  0.66553857199E+01  0.32433229173E+01  0.78325454500E+01  0.00000000000E+00 0.  1.
<mgrwt>
<rscale>  0 0.79909481E+02</rscale>
<asrwt>0</asrwt>
<pdfrwt beam="1">  1        2 0.26164084E-02 0.79909481E+02</pdfrwt>
<pdfrwt beam="2">  1       -1 0.14441237E-01 0.79909481E+02</pdfrwt>
<totfact> 0.12047139E+05</totfact>
</mgrwt>
</event>
<event>
 8    1  0.2561077E-016  0.7981420E+02  0.7818608E-02  0.1329580E+00
         -1   -1    0    0    0  501 -0.00000000000E+00  0.00000000000E+00  0.58556783305E+02  0.58556783522E+02  0.50400000000E-02 0.  1.
          2   -1    0    0  501    0  0.00000000000E+00 -0.00000000000E+00 -0.27197130627E+02  0.27197130747E+02  0.25500000000E-02 0. -1.
         24    2    1    2    0    0  0.00000000000E+00 -0.17763568394E-14  0.31359652678E+02  0.85753914269E+02  0.79814196710E+02 0.  0.
         66    2    3    3    0    0 -0.85749583955E+01 -0.94914531250E+01 -0.24896592298E+02  0.28061680331E+02  0.20000002529E+01 0.  0.
        -13    1    3    3    0    0  0.85749583955E+01  0.94914531250E+01  0.56256244976E+02  0.57692233938E+02  0.10566000000E+00 0.  1.
         13    1    4    4    0    0 -0.16621152035E+01 -0.19082916542E+01 -0.57744383075E+01  0.63055139195E+01  0.10566000000E+00 0. -1.
        -13    1    4    4    0    0 -0.50423501093E+01 -0.47761186824E+01 -0.13907540338E+02  0.15545656840E+02  0.10566000000E+00 0.  1.
        -14    1    4    4    0    0 -0.18704930826E+01 -0.28070427885E+01 -0.52146136529E+01  0.62105095714E+01  0.00000000000E+00 0.  1.
<mgrwt>
<rscale>  0 0.79814197E+02</rscale>
<asrwt>0</asrwt>
<pdfrwt beam="1">  1        2 0.41841740E-02 0.79814197E+02</pdfrwt>
<pdfrwt beam="2">  1       -1 0.90087359E-02 0.79814197E+02</pdfrwt>
<totfact> 0.13284463E+05</totfact>
</mgrwt>
</event>
<event>
 8    1  0.2561077E-016  0.8003208E+02  0.7818608E-02  0.1328960E+00
          2   -1    0    0  501    0  0.00000000000E+00  0.00000000000E+00  0.12754520176E+02  0.12754520431E+02  0.25500000000E-02 0. -1.
         -1   -1    0    0    0  501 -0.00000000000E+00 -0.00000000000E+00 -0.12554635008E+03  0.12554635018E+03  0.50400000000E-02 0.  1.
         24    2    1    2    0    0  0.17763568394E-14  0.00000000000E+00 -0.11279182991E+03  0.13830087061E+03  0.80032080561E+02 0.  0.
         66    2    3    3    0    0 -0.66912496153E+01 -0.38978051055E+02 -0.66686100998E+02  0.77557058685E+02  0.20000000423E+01 0.  0.
        -13    1    3    3    0    0  0.66912496153E+01  0.38978051055E+02 -0.46105728909E+02  0.60743811929E+02  0.10566000000E+00 0.  1.
         13    1    4    4    0    0 -0.18170227877E+01 -0.12554814703E+02 -0.20841088003E+02  0.24398505225E+02  0.10566000000E+00 0. -1.
        -13    1    4    4    0    0 -0.35660020267E+01 -0.19869196171E+02 -0.33184615178E+02  0.38842388900E+02  0.10566000000E+00 0.  1.
         14    1    4    4    0    0 -0.13082248009E+01 -0.65540401803E+01 -0.12660397817E+02  0.14316164559E+02  0.00000000000E+00 0. -1.
<mgrwt>
<rscale>  0 0.80032081E+02</rscale>
<asrwt>0</asrwt>
<pdfrwt beam="1">  1        2 0.19622340E-02 0.80032081E+02</pdfrwt>
<pdfrwt beam="2">  1       -1 0.19314822E-01 0.80032081E+02</pdfrwt>
<totfact> 0.11254640E+05</totfact>
</mgrwt>
</event>
<event>
 8    1  0.2561077E-016  0.7929511E+02  0.7818608E-02  0.1331064E+00
          2   -1    0    0  501    0  0.00000000000E+00  0.00000000000E+00  0.44572462781E+03  0.44572462781E+03  0.25500000000E-02 0. -1.
         -1   -1    0    0    0  501 -0.00000000000E+00 -0.00000000000E+00 -0.35266797065E+01  0.35266833078E+01  0.50400000000E-02 0.  1.
         24    2    1    2    0    0  0.00000000000E+00 -0.35527136788E-14  0.44219794810E+03  0.44925131112E+03  0.79295114860E+02 0.  0.
         66    2    3    3    0    0  0.38034754907E+01 -0.21249875208E+02  0.40947746757E+03  0.41005099694E+03  0.20000043564E+01 0.  0.
        -13    1    3    3    0    0 -0.38034754907E+01  0.21249875208E+02  0.32720480526E+02  0.39200314183E+02  0.10566000000E+00 0.  1.
         13    1    4    4    0    0  0.33370059756E+00 -0.97636040380E+00  0.20232325246E+02  0.20258893964E+02  0.10566000000E+00 0. -1.
        -13    1    4    4    0    0  0.25107386159E+01 -0.10534345312E+02  0.21422586752E+03  0.21449943990E+03  0.10566000000E+00 0.  1.
        -14    1    4    4    0    0  0.95903627721E+00 -0.97391694915E+01  0.17501927481E+03  0.17529266308E+03  0.00000000000E+00 0.  1.
<mgrwt>
<rscale>  0 0.79295115E+02</rscale>
<asrwt>0</asrwt>
<pdfrwt beam="1">  1        2 0.68573009E-01 0.79295115E+02</pdfrwt>
<pdfrwt beam="2">  1       -1 0.54256647E-03 0.79295115E+02</pdfrwt>
<totfact> 0.30008916E+05</totfact>
</mgrwt>
</event>
<event>
 8    1  0.2561077E-016  0.7921229E+02  0.7818608E-02  0.1331302E+00
          2   -1    0    0  501    0  0.00000000000E+00  0.00000000000E+00  0.58022751571E+03  0.58022751571E+03  0.25500000000E-02 0. -1.
         -1   -1    0    0    0  501 -0.00000000000E+00 -0.00000000000E+00 -0.27035003687E+01  0.27035050666E+01  0.50400000000E-02 0.  1.
         24    2    1    2    0    0  0.00000000000E+00  0.00000000000E+00  0.57752401534E+03  0.58293102078E+03  0.79212288783E+02 0.  0.
         66    2    3    3    0    0 -0.10319809153E+02 -0.16458242979E+02  0.54272987416E+03  0.54308110676E+03  0.19999981527E+01 0.  0.
        -13    1    3    3    0    0  0.10319809153E+02  0.16458242979E+02  0.34794141183E+02  0.39849914023E+02  0.10566000000E+00 0.  1.
         13    1    4    4    0    0 -0.30873249909E+01 -0.52921516566E+01  0.14812991579E+03  0.14825660714E+03  0.10566000000E+00 0. -1.
        -13    1    4    4    0    0 -0.29142388256E+01 -0.40646749478E+01  0.14804462440E+03  0.14812912052E+03  0.10566000000E+00 0.  1.
        -14    1    4    4    0    0 -0.43182453369E+01 -0.71014163742E+01  0.24655533397E+03  0.24669537909E+03  0.00000000000E+00 0.  1.
<mgrwt>
<rscale>  0 0.79212289E+02</rscale>
<asrwt>0</asrwt>
<pdfrwt beam="1">  1        2 0.89265784E-01 0.79212289E+02</pdfrwt>
<pdfrwt beam="2">  1       -1 0.41592344E-03 0.79212289E+02</pdfrwt>
<totfact> 0.32690955E+05</totfact>
</mgrwt>
</event>
<event>
 8    1  0.2561077E-016  0.8103743E+02  0.7818608E-02  0.1326133E+00
         -1   -1    0    0    0  501 -0.00000000000E+00  0.00000000000E+00  0.30879319101E+02  0.30879319512E+02  0.50400000000E-02 0.  1.
          2   -1    0    0  501    0  0.00000000000E+00 -0.00000000000E+00 -0.53167172740E+02  0.53167172801E+02  0.25500000000E-02 0. -1.
         24    2    1    2    0    0  0.00000000000E+00  0.00000000000E+00 -0.22287853639E+02  0.84046492313E+02  0.81037426232E+02 0.  0.
         66    2    3    3    0    0 -0.24507541177E+02 -0.12356391884E+02 -0.42029736681E+02  0.50237423929E+02  0.20000006594E+01 0.  0.
        -13    1    3    3    0    0  0.24507541177E+02  0.12356391884E+02  0.19741883042E+02  0.33809068384E+02  0.10566000000E+00 0.  1.
         13    1    4    4    0    0 -0.88852150582E+01 -0.35743761443E+01 -0.14001902940E+02  0.16964305510E+02  0.10566000000E+00 0. -1.
        -13    1    4    4    0    0 -0.45969794712E+01 -0.28377947165E+01 -0.87050859663E+01  0.10245730078E+02  0.10566000000E+00 0.  1.
         14    1    4    4    0    0 -0.11025346648E+02 -0.59442210227E+01 -0.19322747774E+02  0.23027388341E+02  0.00000000000E+00 0. -1.
<mgrwt>
<rscale>  0 0.81037426E+02</rscale>
<asrwt>0</asrwt>
<pdfrwt beam="1">  1        2 0.81795650E-02 0.81037426E+02</pdfrwt>
<pdfrwt beam="2">  1       -1 0.47506645E-02 0.81037426E+02</pdfrwt>
<totfact> 0.14621514E+05</totfact>
</mgrwt>
</event>
<event>
 8    1  0.2561077E-016  0.8024964E+02  0.7818608E-02  0.1328344E+00
          2   -1    0    0  501    0  0.00000000000E+00  0.00000000000E+00  0.54076867256E+03  0.54076867257E+03  0.25500000000E-02 0. -1.
         -1   -1    0    0    0  501 -0.00000000000E+00 -0.00000000000E+00 -0.29772437873E+01  0.29772480533E+01  0.50400000000E-02 0.  1.
         24    2    1    2    0    0  0.00000000000E+00  0.00000000000E+00  0.53779142877E+03  0.54374592062E+03  0.80249643792E+02 0.  0.
         66    2    3    3    0    0  0.30563657574E+02  0.15221260062E+02  0.41154056893E+03  0.41295939724E+03  0.19999931553E+01 0.  0.
        -13    1    3    3    0    0 -0.30563657574E+02 -0.15221260062E+02  0.12625085984E+03  0.13078652338E+03  0.10566000000E+00 0.  1.
         13    1    4    4    0    0  0.11175659541E+01  0.68003342439E+00  0.13798164158E+02  0.13860443618E+02  0.10566000000E+00 0. -1.
        -13    1    4    4    0    0  0.15391309451E+02  0.68306830885E+01  0.19944649363E+03  0.20015610314E+03  0.10566000000E+00 0.  1.
         14    1    4    4    0    0  0.14054782169E+02  0.77105435493E+01  0.19829591114E+03  0.19894285048E+03  0.00000000000E+00 0. -1.
<mgrwt>
<rscale>  0 0.80249644E+02</rscale>
<asrwt>0</asrwt>
<pdfrwt beam="1">  1        2 0.83195250E-01 0.80249644E+02</pdfrwt>
<pdfrwt beam="2">  1       -1 0.45803745E-03 0.80249644E+02</pdfrwt>
<totfact> 0.30950843E+05</totfact>
</mgrwt>
</event>
<event>
 8    1  0.2561077E-016  0.8126772E+02  0.7818608E-02  0.1325492E+00
          2   -1    0    0  501    0  0.00000000000E+00  0.00000000000E+00  0.19444299071E+02  0.19444299239E+02  0.25500000000E-02 0. -1.
         -1   -1    0    0    0  501 -0.00000000000E+00 -0.00000000000E+00 -0.84914892295E+02  0.84914892445E+02  0.50400000000E-02 0.  1.
         24    2    1    2    0    0  0.00000000000E+00  0.00000000000E+00 -0.65470593224E+02  0.10435919168E+03  0.81267719986E+02 0.  0.
         66    2    3    3    0    0  0.23533291640E+02 -0.67124552803E+01  0.88604600966E+01  0.26103268437E+02  0.19999996714E+01 0.  0.
        -13    1    3    3    0    0 -0.23533291640E+02  0.67124552803E+01 -0.74331053321E+02  0.78255923246E+02  0.10566000000E+00 0.  1.
         13    1    4    4    0    0  0.81588176744E+01 -0.29474600283E+01  0.30512247646E+01  0.91964647046E+01  0.10566000000E+00 0. -1.
        -13    1    4    4    0    0  0.85606463352E+01 -0.24218457044E+01  0.27024550567E+01  0.92986251490E+01  0.10566000000E+00 0.  1.
         14    1    4    4    0    0  0.68138276305E+01 -0.13431495476E+01  0.31067802753E+01  0.76081785839E+01  0.00000000000E+00 0. -1.
<mgrwt>
<rscale>  0 0.81267720E+02</rscale>
<asrwt>0</asrwt>
<pdfrwt beam="1">  1        2 0.29914307E-02 0.81267720E+02</pdfrwt>
<pdfrwt beam="2">  1       -1 0.13063829E-01 0.81267720E+02</pdfrwt>
<totfact> 0.11797936E+05</totfact>
</mgrwt>
</event>
<event>
 8    1  0.2561077E-016  0.7442297E+02  0.7818608E-02  0.1345667E+00
          2   -1    0    0  501    0  0.00000000000E+00  0.00000000000E+00  0.27449609226E+03  0.27449609228E+03  0.25500000000E-02 0. -1.
         -1   -1    0    0    0  501 -0.00000000000E+00 -0.00000000000E+00 -0.50444958901E+01  0.50444984078E+01  0.50400000000E-02 0.  1.
         24    2    1    2    0    0 -0.71054273576E-14  0.00000000000E+00  0.26945159637E+03  0.27954059068E+03  0.74422973948E+02 0.  0.
         66    2    3    3    0    0  0.34215648842E+02  0.69984043989E+01  0.18277781261E+03  0.18609518285E+03  0.20000016003E+01 0.  0.
        -13    1    3    3    0    0 -0.34215648842E+02 -0.69984043989E+01  0.86673783765E+02  0.93445407838E+02  0.10566000000E+00 0.  1.
         13    1    4    4    0    0  0.32663268193E+01  0.38900793239E+00  0.15894727577E+02  0.16231874410E+02  0.10566000000E+00 0.  1.
        -13    1    4    4    0    0  0.22941460825E+02  0.48989771676E+01  0.12696083570E+03  0.12910993598E+03  0.10566000000E+00 0. -1.
         14    1    4    4    0    0  0.80078611986E+01  0.17104192990E+01  0.39922249330E+02  0.40753372458E+02  0.00000000000E+00 0. -1.
<mgrwt>
<rscale>  0 0.74422974E+02</rscale>
<asrwt>0</asrwt>
<pdfrwt beam="1">  1        2 0.42230166E-01 0.74422974E+02</pdfrwt>
<pdfrwt beam="2">  1       -1 0.77607654E-03 0.74422974E+02</pdfrwt>
<totfact> 0.29821670E+05</totfact>
</mgrwt>
</event>
<event>
 8    1  0.2561077E-016  0.8054825E+02  0.7818608E-02  0.1327503E+00
          2   -1    0    0  501    0  0.00000000000E+00  0.00000000000E+00  0.62873005988E+03  0.62873005989E+03  0.25500000000E-02 0. -1.
         -1   -1    0    0    0  501 -0.00000000000E+00 -0.00000000000E+00 -0.25798092683E+01  0.25798141915E+01  0.50400000000E-02 0.  1.
         24    2    1    2    0    0  0.00000000000E+00 -0.35527136788E-14  0.62615025061E+03  0.63130987408E+03  0.80548251164E+02 0.  0.
         66    2    3    3    0    0 -0.51727849332E+01  0.14234243687E+02  0.60554288042E+03  0.60573554578E+03  0.20000010623E+01 0.  0.
        -13    1    3    3    0    0  0.51727849332E+01 -0.14234243687E+02  0.20607370198E+02  0.25574328296E+02  0.10566000000E+00 0.  1.
         13    1    4    4    0    0 -0.10085388307E+01  0.17139568735E+01  0.96885136133E+02  0.96905601315E+02  0.10566000000E+00 0. -1.
        -13    1    4    4    0    0 -0.17559493941E+00  0.14140267005E+01  0.49948189580E+02  0.49968621268E+02  0.10566000000E+00 0.  1.
         14    1    4    4    0    0 -0.39886511631E+01  0.11106260113E+02  0.45870955470E+03  0.45886132320E+03  0.00000000000E+00 0. -1.
<mgrwt>
<rscale>  0 0.80548251E+02</rscale>
<asrwt>0</asrwt>
<pdfrwt beam="1">  1        2 0.96727654E-01 0.80548251E+02</pdfrwt>
<pdfrwt beam="2">  1       -1 0.39689431E-03 0.80548251E+02</pdfrwt>
<totfact> 0.32000949E+05</totfact>
</mgrwt>
</event>
<event>
 8    1  0.2561077E-016  0.8059120E+02  0.7818608E-02  0.1327382E+00
          2   -1    0    0  501    0  0.00000000000E+00  0.00000000000E+00  0.73161095794E+01  0.73161100238E+01  0.25500000000E-02 0. -1.
         -1   -1    0    0    0  501 -0.00000000000E+00 -0.00000000000E+00 -0.22193973517E+03  0.22193973523E+03  0.50400000000E-02 0.  1.
         24    2    1    2    0    0 -0.35527136788E-14  0.00000000000E+00 -0.21462362559E+03  0.22925584525E+03  0.80591202498E+02 0.  0.
         66    2    3    3    0    0  0.30037982187E+02 -0.37192624902E+01 -0.31813296157E+02  0.43956786972E+02  0.20000052981E+01 0.  0.
        -13    1    3    3    0    0 -0.30037982187E+02  0.37192624902E+01 -0.18281032943E+03  0.18529905828E+03  0.10566000000E+00 0.  1.
         13    1    4    4    0    0  0.24833960491E+02 -0.26734038088E+01 -0.25660585863E+02  0.35809908021E+02  0.10566000000E+00 0. -1.
        -13    1    4    4    0    0  0.22515991217E+01 -0.42851793983E+00 -0.30849893234E+01  0.38446910657E+01  0.10566000000E+00 0.  1.
        -14    1    4    4    0    0  0.29524225747E+01 -0.61734074155E+00 -0.30677209711E+01  0.43021878861E+01  0.00000000000E+00 0.  1.
<mgrwt>
<rscale>  0 0.80591202E+02</rscale>
<asrwt>0</asrwt>
<pdfrwt beam="1">  1        2 0.11255555E-02 0.80591202E+02</pdfrwt>
<pdfrwt beam="2">  1       -1 0.34144570E-01 0.80591202E+02</pdfrwt>
<totfact> 0.94615448E+04</totfact>
</mgrwt>
</event>
<event>
 8    1  0.2561077E-016  0.7716167E+02  0.7818608E-02  0.1337305E+00
         -1   -1    0    0    0  501 -0.00000000000E+00  0.00000000000E+00  0.19894281190E+01  0.19894345031E+01  0.50400000000E-02 0.  1.
          2   -1    0    0  501    0  0.00000000000E+00 -0.00000000000E+00 -0.74819407016E+03  0.74819407016E+03  0.25500000000E-02 0. -1.
         24    2    1    2    0    0 -0.17763568394E-14  0.00000000000E+00 -0.74620464204E+03  0.75018350467E+03  0.77161667112E+02 0.  0.
         66    2    3    3    0    0 -0.14598883909E+02 -0.16224761995E+02 -0.68234573178E+03  0.68269764025E+03  0.20000008187E+01 0.  0.
        -13    1    3    3    0    0  0.14598883909E+02  0.16224761995E+02 -0.63858910257E+02  0.67485864419E+02  0.10566000000E+00 0.  1.
         13    1    4    4    0    0 -0.24234373229E+01 -0.19172296632E+01 -0.10180130950E+03  0.10184825280E+03  0.10566000000E+00 0.  1.
        -13    1    4    4    0    0 -0.69173782944E+01 -0.75150530246E+01 -0.32701705078E+03  0.32717654074E+03  0.10566000000E+00 0. -1.
         14    1    4    4    0    0 -0.52580682917E+01 -0.67924793071E+01 -0.25352737150E+03  0.25367284671E+03  0.00000000000E+00 0. -1.
<mgrwt>
<rscale>  0 0.77161667E+02</rscale>
<asrwt>0</asrwt>
<pdfrwt beam="1">  1        2 0.11510656E+00 0.77161667E+02</pdfrwt>
<pdfrwt beam="2">  1       -1 0.30606695E-03 0.77161667E+02</pdfrwt>
<totfact> 0.37269704E+05</totfact>
</mgrwt>
</event>
<event>
 8    1  0.2561077E-016  0.7927211E+02  0.7818608E-02  0.1331130E+00
          2   -1    0    0  501    0  0.00000000000E+00  0.00000000000E+00  0.64954664205E+01  0.64954669211E+01  0.25500000000E-02 0. -1.
         -1   -1    0    0    0  501 -0.00000000000E+00 -0.00000000000E+00 -0.24186357971E+03  0.24186357977E+03  0.50400000000E-02 0.  1.
         24    2    1    2    0    0  0.00000000000E+00  0.00000000000E+00 -0.23536811329E+03  0.24835904669E+03  0.79272109321E+02 0.  0.
         66    2    3    3    0    0 -0.52676738521E+01 -0.36172024097E+02 -0.16556625104E+03  0.16956517095E+03  0.20000005464E+01 0.  0.
        -13    1    3    3    0    0  0.52676738521E+01  0.36172024097E+02 -0.69801862257E+02  0.78793875737E+02  0.10566000000E+00 0.  1.
         13    1    4    4    0    0 -0.13279272457E+01 -0.13096574214E+02 -0.58942796245E+02  0.60394933895E+02  0.10566000000E+00 0. -1.
        -13    1    4    4    0    0 -0.20774288599E+01 -0.13196317774E+02 -0.58054436592E+02  0.59571698695E+02  0.10566000000E+00 0.  1.
        -14    1    4    4    0    0 -0.18623177465E+01 -0.98791321086E+01 -0.48569018200E+02  0.49598538361E+02  0.00000000000E+00 0.  1.
<mgrwt>
<rscale>  0 0.79272109E+02</rscale>
<asrwt>0</asrwt>
<pdfrwt beam="1">  1        2 0.99930275E-03 0.79272109E+02</pdfrwt>
<pdfrwt beam="2">  1       -1 0.37209775E-01 0.79272109E+02</pdfrwt>
<totfact> 0.95893856E+04</totfact>
</mgrwt>
</event>
<event>
 8    1  0.2561077E-016  0.7950959E+02  0.7818608E-02  0.1330449E+00
          2   -1    0    0  501    0  0.00000000000E+00  0.00000000000E+00  0.15866818273E+03  0.15866818275E+03  0.25500000000E-02 0. -1.
         -1   -1    0    0    0  501 -0.00000000000E+00 -0.00000000000E+00 -0.99606836585E+01  0.99606849336E+01  0.50400000000E-02 0.  1.
         24    2    1    2    0    0  0.17763568394E-14  0.00000000000E+00  0.14870749907E+03  0.16862886768E+03  0.79509588958E+02 0.  0.
         66    2    3    3    0    0  0.74325218343E+01 -0.16920745146E+02  0.14899005001E+03  0.15014522637E+03  0.20000005618E+01 0.  0.
        -13    1    3    3    0    0 -0.74325218343E+01  0.16920745146E+02 -0.28255094082E+00  0.18483641313E+02  0.10566000000E+00 0.  1.
         13    1    4    4    0    0  0.37152694991E+01 -0.92200634340E+01  0.80192855521E+02  0.80806670750E+02  0.10566000000E+00 0. -1.
        -13    1    4    4    0    0  0.92831658788E+00 -0.24202145991E+01  0.25464664555E+02  0.25596474666E+02  0.10566000000E+00 0.  1.
         14    1    4    4    0    0  0.27889357473E+01 -0.52804671130E+01  0.43332529936E+02  0.43742080954E+02  0.00000000000E+00 0. -1.
<mgrwt>
<rscale>  0 0.79509589E+02</rscale>
<asrwt>0</asrwt>
<pdfrwt beam="1">  1        2 0.24410488E-01 0.79509589E+02</pdfrwt>
<pdfrwt beam="2">  1       -1 0.15324131E-02 0.79509589E+02</pdfrwt>
<totfact> 0.20733966E+05</totfact>
</mgrwt>
</event>
<event>
 8    1  0.2561077E-016  0.8088910E+02  0.7818608E-02  0.1326547E+00
         -1   -1    0    0    0  501 -0.00000000000E+00  0.00000000000E+00  0.63472302016E+01  0.63472322025E+01  0.50400000000E-02 0.  1.
          2   -1    0    0  501    0  0.00000000000E+00 -0.00000000000E+00 -0.25771263015E+03  0.25771263016E+03  0.25500000000E-02 0. -1.
         24    2    1    2    0    0  0.00000000000E+00  0.00000000000E+00 -0.25136539995E+03  0.26405986236E+03  0.80889100756E+02 0.  0.
         66    2    3    3    0    0  0.53001062695E+01  0.29415470322E+02 -0.21458618137E+03  0.21666700315E+03  0.20000003114E+01 0.  0.
        -13    1    3    3    0    0 -0.53001062695E+01 -0.29415470322E+02 -0.36779218581E+02  0.47392859211E+02  0.10566000000E+00 0.  1.
         13    1    4    4    0    0  0.12033878373E+01  0.79689521063E+01 -0.60352628461E+02  0.60888449366E+02  0.10566000000E+00 0. -1.
        -13    1    4    4    0    0  0.51664849935E+00  0.39433465462E+01 -0.24576496548E+02  0.24896430553E+02  0.10566000000E+00 0.  1.
        -14    1    4    4    0    0  0.35800699328E+01  0.17503171669E+02 -0.12965705636E+03  0.13088212323E+03  0.00000000000E+00 0.  1.
<mgrwt>
<rscale>  0 0.80889101E+02</rscale>
<asrwt>0</asrwt>
<pdfrwt beam="1">  1        2 0.39648089E-01 0.80889101E+02</pdfrwt>
<pdfrwt beam="2">  1       -1 0.97649731E-03 0.80889101E+02</pdfrwt>
<totfact> 0.23439022E+05</totfact>
</mgrwt>
</event>
<event>
 8    1  0.2561077E-016  0.7975002E+02  0.7818608E-02  0.1329762E+00
         -1   -1    0    0    0  501 -0.00000000000E+00  0.00000000000E+00  0.10667665821E+02  0.10667667011E+02  0.50400000000E-02 0.  1.
          2   -1    0    0  501    0  0.00000000000E+00 -0.00000000000E+00 -0.14905006688E+03  0.14905006690E+03  0.25500000000E-02 0. -1.
         24    2    1    2    0    0  0.00000000000E+00  0.00000000000E+00 -0.13838240106E+03  0.15971773391E+03  0.79750019457E+02 0.  0.
         66    2    3    3    0    0  0.22159769918E+02 -0.20761113105E+02 -0.12091636285E+03  0.12468699206E+03  0.19999907151E+01 0.  0.
        -13    1    3    3    0    0 -0.22159769918E+02  0.20761113105E+02 -0.17466038205E+02  0.35030741853E+02  0.10566000000E+00 0.  1.
         13    1    4    4    0    0  0.12964285115E+02 -0.12678497972E+02 -0.72930891697E+02  0.75151467898E+02  0.10566000000E+00 0. -1.
        -13    1    4    4    0    0  0.38355044120E+01 -0.32449844219E+01 -0.21909076434E+02  0.22477985057E+02  0.10566000000E+00 0.  1.
        -14    1    4    4    0    0  0.53599803907E+01 -0.48376307109E+01 -0.26076394721E+02  0.27057539104E+02  0.00000000000E+00 0.  1.
<mgrwt>
<rscale>  0 0.79750019E+02</rscale>
<asrwt>0</asrwt>
<pdfrwt beam="1">  1        2 0.22930778E-01 0.79750019E+02</pdfrwt>
<pdfrwt beam="2">  1       -1 0.16411796E-02 0.79750019E+02</pdfrwt>
<totfact> 0.20155773E+05</totfact>
</mgrwt>
</event>
<event>
 8    1  0.2561077E-016  0.7955727E+02  0.7818608E-02  0.1330313E+00
          2   -1    0    0  501    0  0.00000000000E+00  0.00000000000E+00  0.38429990482E+03  0.38429990483E+03  0.25500000000E-02 0. -1.
         -1   -1    0    0    0  501 -0.00000000000E+00 -0.00000000000E+00 -0.41174594537E+01  0.41174625383E+01  0.50400000000E-02 0.  1.
         24    2    1    2    0    0 -0.35527136788E-14 -0.17763568394E-14  0.38018244536E+03  0.38841736736E+03  0.79557271870E+02 0.  0.
         66    2    3    3    0    0 -0.22999530025E+02 -0.79549298306E+01  0.34367761372E+03  0.34454399061E+03  0.20000017401E+01 0.  0.
        -13    1    3    3    0    0  0.22999530025E+02  0.79549298306E+01  0.36504831644E+02  0.43873376749E+02  0.10566000000E+00 0.  1.
         13    1    4    4    0    0 -0.10481253128E+02 -0.36877382903E+01  0.15289039038E+03  0.15329363560E+03  0.10566000000E+00 0. -1.
        -13    1    4    4    0    0 -0.20902761040E+01 -0.45943720463E+00  0.24862848296E+02  0.24955014049E+02  0.10566000000E+00 0.  1.
         14    1    4    4    0    0 -0.10428000793E+02 -0.38077543357E+01  0.16592437505E+03  0.16629534097E+03  0.00000000000E+00 0. -1.
<mgrwt>
<rscale>  0 0.79557272E+02</rscale>
<asrwt>0</asrwt>
<pdfrwt beam="1">  1        2 0.59123059E-01 0.79557272E+02</pdfrwt>
<pdfrwt beam="2">  1       -1 0.63345557E-03 0.79557272E+02</pdfrwt>
<totfact> 0.28265780E+05</totfact>
</mgrwt>
</event>
<event>
 8    1  0.2561077E-016  0.8044170E+02  0.7818608E-02  0.1327803E+00
          2   -1    0    0  501    0  0.00000000000E+00  0.00000000000E+00  0.61160418368E+03  0.61160418368E+03  0.25500000000E-02 0. -1.
         -1   -1    0    0    0  501 -0.00000000000E+00 -0.00000000000E+00 -0.26450362810E+01  0.26450410827E+01  0.50400000000E-02 0.  1.
         24    2    1    2    0    0  0.17763568394E-14 -0.71054273576E-14  0.60895914739E+03  0.61424922476E+03  0.80441698933E+02 0.  0.
         66    2    3    3    0    0  0.14835194989E+02 -0.35653146468E+02  0.38986273116E+03  0.39177567434E+03  0.20000000682E+01 0.  0.
        -13    1    3    3    0    0 -0.14835194989E+02  0.35653146468E+02  0.21909641624E+03  0.22247355042E+03  0.10566000000E+00 0.  1.
         13    1    4    4    0    0  0.89385249029E+01 -0.20965368365E+02  0.23893197245E+03  0.24001654635E+03  0.10566000000E+00 0. -1.
        -13    1    4    4    0    0  0.41529651268E+01 -0.10775121063E+02  0.11137015669E+03  0.11196728682E+03  0.10566000000E+00 0.  1.
         14    1    4    4    0    0  0.17437049590E+01 -0.39126570409E+01  0.39560602015E+02  0.39791841173E+02  0.00000000000E+00 0. -1.
<mgrwt>
<rscale>  0 0.80441699E+02</rscale>
<asrwt>0</asrwt>
<pdfrwt beam="1">  1        2 0.94092982E-01 0.80441699E+02</pdfrwt>
<pdfrwt beam="2">  1       -1 0.40692890E-03 0.80441699E+02</pdfrwt>
<totfact> 0.31873767E+05</totfact>
</mgrwt>
</event>
<event>
 8    1  0.2561077E-016  0.8164459E+02  0.7818608E-02  0.1324448E+00
          2   -1    0    0  501    0  0.00000000000E+00  0.00000000000E+00  0.51900881138E+02  0.51900881200E+02  0.25500000000E-02 0. -1.
         -1   -1    0    0    0  501 -0.00000000000E+00 -0.00000000000E+00 -0.32108506939E+02  0.32108507334E+02  0.50400000000E-02 0.  1.
         24    2    1    2    0    0  0.00000000000E+00  0.00000000000E+00  0.19792374199E+02  0.84009388535E+02  0.81644591282E+02 0.  0.
         66    2    3    3    0    0 -0.38142857458E+02  0.14462537387E+02  0.92414264632E+01  0.41874174937E+02  0.20000002020E+01 0.  0.
        -13    1    3    3    0    0  0.38142857458E+02 -0.14462537387E+02  0.10550947736E+02  0.42135213598E+02  0.10566000000E+00 0.  1.
         13    1    4    4    0    0 -0.13729691572E+02  0.52027602159E+01  0.26773462569E+01  0.14924895026E+02  0.10566000000E+00 0. -1.
        -13    1    4    4    0    0 -0.34011389947E+01  0.90529586369E+00  0.10559926602E+01  0.36760837308E+01  0.10566000000E+00 0.  1.
        -14    1    4    4    0    0 -0.21012026892E+02  0.83544813074E+01  0.55080875461E+01  0.23273196180E+02  0.00000000000E+00 0.  1.
<mgrwt>
<rscale>  0 0.81644591E+02</rscale>
<asrwt>0</asrwt>
<pdfrwt beam="1">  1        2 0.79847509E-02 0.81644591E+02</pdfrwt>
<pdfrwt beam="2">  1       -1 0.49397704E-02 0.81644591E+02</pdfrwt>
<totfact> 0.14248734E+05</totfact>
</mgrwt>
</event>
<event>
 8    1  0.2561077E-016  0.7926707E+02  0.7818608E-02  0.1331144E+00
          2   -1    0    0  501    0  0.00000000000E+00  0.00000000000E+00  0.23417183378E+02  0.23417183516E+02  0.25500000000E-02 0. -1.
         -1   -1    0    0    0  501 -0.00000000000E+00 -0.00000000000E+00 -0.67079676881E+02  0.67079677071E+02  0.50400000000E-02 0.  1.
         24    2    1    2    0    0  0.00000000000E+00  0.88817841970E-15 -0.43662493504E+02  0.90496860587E+02  0.79267070320E+02 0.  0.
         66    2    3    3    0    0 -0.33550147759E+02  0.47050606524E+01  0.15817391918E+01  0.33974283093E+02  0.20000006022E+01 0.  0.
        -13    1    3    3    0    0  0.33550147759E+02 -0.47050606524E+01 -0.45244232695E+02  0.56522577494E+02  0.10566000000E+00 0.  1.
         13    1    4    4    0    0 -0.70413796117E+00 -0.69071095134E-01  0.17782683242E+00  0.73713465695E+00  0.10566000000E+00 0. -1.
        -13    1    4    4    0    0 -0.96232862738E+01  0.16516722078E+01  0.80672519916E+00  0.97978379948E+01  0.10566000000E+00 0.  1.
         14    1    4    4    0    0 -0.23222723524E+02  0.31224595397E+01  0.59718716018E+00  0.23439310441E+02  0.00000000000E+00 0. -1.
<mgrwt>
<rscale>  0 0.79267070E+02</rscale>
<asrwt>0</asrwt>
<pdfrwt beam="1">  1        2 0.36026436E-02 0.79267070E+02</pdfrwt>
<pdfrwt beam="2">  1       -1 0.10319950E-01 0.79267070E+02</pdfrwt>
<totfact> 0.13153003E+05</totfact>
</mgrwt>
</event>
<event>
 8    1  0.2561077E-016  0.7986236E+02  0.7818608E-02  0.1329442E+00
         -1   -1    0    0    0  501 -0.00000000000E+00  0.00000000000E+00  0.12657036452E+02  0.12657037456E+02  0.50400000000E-02 0.  1.
          2   -1    0    0  501    0  0.00000000000E+00 -0.00000000000E+00 -0.12597728237E+03  0.12597728240E+03  0.25500000000E-02 0. -1.
         24    2    1    2    0    0  0.00000000000E+00 -0.71054273576E-14 -0.11332024592E+03  0.13863431985E+03  0.79862359757E+02 0.  0.
         66    2    3    3    0    0 -0.19455638273E+02 -0.34301707709E+02 -0.46084419305E+02  0.60686923765E+02  0.20000002623E+01 0.  0.
        -13    1    3    3    0    0  0.19455638273E+02  0.34301707709E+02 -0.67235826614E+02  0.77947396088E+02  0.10566000000E+00 0.  1.
         13    1    4    4    0    0 -0.13045059385E+02 -0.21534735230E+02 -0.29931770896E+02  0.39113175131E+02  0.10566000000E+00 0. -1.
        -13    1    4    4    0    0 -0.48962410770E+01 -0.92522449918E+01 -0.11561225915E+02  0.15596484308E+02  0.10566000000E+00 0.  1.
        -14    1    4    4    0    0 -0.15143378115E+01 -0.35147274875E+01 -0.45914224941E+01  0.59772643272E+01  0.00000000000E+00 0.  1.
<mgrwt>
<rscale>  0 0.79862360E+02</rscale>
<asrwt>0</asrwt>
<pdfrwt beam="1">  1        2 0.19381120E-01 0.79862360E+02</pdfrwt>
<pdfrwt beam="2">  1       -1 0.19472365E-02 0.79862360E+02</pdfrwt>
<totfact> 0.19050158E+05</totfact>
</mgrwt>
</event>
<event>
 8    1  0.2561077E-016  0.7556059E+02  0.7818608E-02  0.1342144E+00
          2   -1    0    0  501    0  0.00000000000E+00  0.00000000000E+00  0.60585724607E+01  0.60585729973E+01  0.25500000000E-02 0. -1.
         -1   -1    0    0    0  501 -0.00000000000E+00 -0.00000000000E+00 -0.23559187948E+03  0.23559187953E+03  0.50400000000E-02 0.  1.
         24    2    1    2    0    0  0.17763568394E-14 -0.71054273576E-14 -0.22953330702E+03  0.24165045253E+03  0.75560586136E+02 0.  0.
         66    2    3    3    0    0 -0.10231694946E+02 -0.33828579512E+02 -0.72384846289E+02  0.80576835054E+02  0.20000004313E+01 0.  0.
        -13    1    3    3    0    0  0.10231694946E+02  0.33828579512E+02 -0.15714846073E+03  0.16107361747E+03  0.10566000000E+00 0.  1.
         13    1    4    4    0    0 -0.12230663508E+01 -0.34378317105E+01 -0.67192206363E+01  0.76468077107E+01  0.10566000000E+00 0. -1.
        -13    1    4    4    0    0 -0.57618086793E+00 -0.21866672640E+01 -0.39369969867E+01  0.45414323098E+01  0.10566000000E+00 0.  1.
        -14    1    4    4    0    0 -0.84324477268E+01 -0.28204080538E+02 -0.61728628666E+02  0.68388595034E+02  0.00000000000E+00 0.  1.
<mgrwt>
<rscale>  0 0.75560586E+02</rscale>
<asrwt>0</asrwt>
<pdfrwt beam="1">  1        2 0.93208829E-03 0.75560586E+02</pdfrwt>
<pdfrwt beam="2">  1       -1 0.36244898E-01 0.75560586E+02</pdfrwt>
<totfact> 0.10933954E+05</totfact>
</mgrwt>
</event>
<event>
 8    1  0.2561077E-016  0.7741537E+02  0.7818608E-02  0.1336550E+00
          2   -1    0    0  501    0  0.00000000000E+00  0.00000000000E+00  0.48106551880E+03  0.48106551881E+03  0.25500000000E-02 0. -1.
         -1   -1    0    0    0  501 -0.00000000000E+00 -0.00000000000E+00 -0.31145110610E+01  0.31145151389E+01  0.50400000000E-02 0.  1.
         24    2    1    2    0    0 -0.44408920985E-15  0.00000000000E+00  0.47795100774E+03  0.48418003394E+03  0.77415369746E+02 0.  0.
         66    2    3    3    0    0 -0.33042365530E+01 -0.27473432036E+02  0.40818306744E+03  0.40912482690E+03  0.19999986006E+01 0.  0.
        -13    1    3    3    0    0  0.33042365530E+01  0.27473432036E+02  0.69767940301E+02  0.75055207047E+02  0.10566000000E+00 0.  1.
         13    1    4    4    0    0 -0.34148463929E+01 -0.24302771377E+02  0.35766742608E+03  0.35850841652E+03  0.10566000000E+00 0. -1.
        -13    1    4    4    0    0  0.12644158499E+00 -0.13943161312E+01  0.24490412992E+02  0.24530625705E+02  0.10566000000E+00 0.  1.
         14    1    4    4    0    0 -0.15831745089E-01 -0.17763445279E+01  0.26025228367E+02  0.26085784675E+02  0.00000000000E+00 0. -1.
<mgrwt>
<rscale>  0 0.77415370E+02</rscale>
<asrwt>0</asrwt>
<pdfrwt beam="1">  1        2 0.74010065E-01 0.77415370E+02</pdfrwt>
<pdfrwt beam="2">  1       -1 0.47915596E-03 0.77415370E+02</pdfrwt>
<totfact> 0.32759110E+05</totfact>
</mgrwt>
</event>
<event>
 8    1  0.2561077E-016  0.8074382E+02  0.7818608E-02  0.1326954E+00
         -1   -1    0    0    0  501 -0.00000000000E+00  0.00000000000E+00  0.21819835343E+01  0.21819893551E+01  0.50400000000E-02 0.  1.
          2   -1    0    0  501    0  0.00000000000E+00 -0.00000000000E+00 -0.74697579828E+03  0.74697579828E+03  0.25500000000E-02 0. -1.
         24    2    1    2    0    0  0.00000000000E+00  0.00000000000E+00 -0.74479381474E+03  0.74915778764E+03  0.80743818942E+02 0.  0.
         66    2    3    3    0    0  0.15605438305E+02  0.32926074845E+02 -0.53338958294E+03  0.53463642158E+03  0.19999936507E+01 0.  0.
        -13    1    3    3    0    0 -0.15605438305E+02 -0.32926074845E+02 -0.21140423180E+03  0.21452136606E+03  0.10566000000E+00 0.  1.
         13    1    4    4    0    0  0.29993086638E+01  0.56291589727E+01 -0.10384666247E+03  0.10404241325E+03  0.10566000000E+00 0. -1.
        -13    1    4    4    0    0  0.77297231031E+01  0.16658217317E+02 -0.26335074072E+03  0.26399028131E+03  0.10566000000E+00 0.  1.
         14    1    4    4    0    0  0.48764065385E+01  0.10638698555E+02 -0.16619217975E+03  0.16660372702E+03  0.00000000000E+00 0. -1.
<mgrwt>
<rscale>  0 0.80743819E+02</rscale>
<asrwt>0</asrwt>
<pdfrwt beam="1">  1        2 0.11491915E+00 0.80743819E+02</pdfrwt>
<pdfrwt beam="2">  1       -1 0.33569082E-03 0.80743819E+02</pdfrwt>
<totfact> 0.33118483E+05</totfact>
</mgrwt>
</event>
<event>
 8    1  0.2561077E-016  0.8108338E+02  0.7818608E-02  0.1326005E+00
         -1   -1    0    0    0  501 -0.00000000000E+00  0.00000000000E+00  0.10642481815E+02  0.10642483008E+02  0.50400000000E-02 0.  1.
          2   -1    0    0  501    0  0.00000000000E+00 -0.00000000000E+00 -0.15444035508E+03  0.15444035510E+03  0.25500000000E-02 0. -1.
         24    2    1    2    0    0  0.00000000000E+00 -0.71054273576E-14 -0.14379787327E+03  0.16508283811E+03  0.81083383518E+02 0.  0.
         66    2    3    3    0    0 -0.21419485797E+02  0.34216126809E+02 -0.64864519903E+02  0.76426066554E+02  0.20000002546E+01 0.  0.
        -13    1    3    3    0    0  0.21419485797E+02 -0.34216126809E+02 -0.78933353366E+02  0.88656771559E+02  0.10566000000E+00 0.  1.
         13    1    4    4    0    0 -0.48234636849E+01  0.84607694286E+01 -0.16852282085E+02  0.19464351948E+02  0.10566000000E+00 0. -1.
        -13    1    4    4    0    0 -0.25376651898E+01  0.44602986638E+01 -0.78786827862E+01  0.94031279512E+01  0.10566000000E+00 0.  1.
         14    1    4    4    0    0 -0.14058356922E+02  0.21295058717E+02 -0.40133555032E+02  0.47558586655E+02  0.00000000000E+00 0. -1.
<mgrwt>
<rscale>  0 0.81083384E+02</rscale>
<asrwt>0</asrwt>
<pdfrwt beam="1">  1        2 0.23760053E-01 0.81083384E+02</pdfrwt>
<pdfrwt beam="2">  1       -1 0.16373051E-02 0.81083384E+02</pdfrwt>
<totfact> 0.19510911E+05</totfact>
</mgrwt>
</event>
<event>
 8    1  0.2561077E-016  0.7877239E+02  0.7818608E-02  0.1332572E+00
          2   -1    0    0  501    0  0.00000000000E+00  0.00000000000E+00  0.26350487290E+02  0.26350487414E+02  0.25500000000E-02 0. -1.
         -1   -1    0    0    0  501 -0.00000000000E+00 -0.00000000000E+00 -0.58870728817E+02  0.58870729033E+02  0.50400000000E-02 0.  1.
         24    2    1    2    0    0  0.00000000000E+00  0.00000000000E+00 -0.32520241527E+02  0.85221216446E+02  0.78772391252E+02 0.  0.
         66    2    3    3    0    0  0.12052778939E+02  0.16523312793E+02  0.20112619203E+02  0.28754247886E+02  0.19999936260E+01 0.  0.
        -13    1    3    3    0    0 -0.12052778939E+02 -0.16523312793E+02 -0.52632860729E+02  0.56466968560E+02  0.10566000000E+00 0.  1.
         13    1    4    4    0    0  0.72655297752E+01  0.96576930533E+01  0.12263564506E+02  0.17218162982E+02  0.10566000000E+00 0. -1.
        -13    1    4    4    0    0  0.46885685141E+01  0.67113625946E+01  0.73432823582E+01  0.10998182687E+02  0.10566000000E+00 0.  1.
         14    1    4    4    0    0  0.98680649434E-01  0.15425714461E+00  0.50577233840E+00  0.53790221744E+00  0.00000000000E+00 0. -1.
<mgrwt>
<rscale>  0 0.78772391E+02</rscale>
<asrwt>0</asrwt>
<pdfrwt beam="1">  1        2 0.40539212E-02 0.78772391E+02</pdfrwt>
<pdfrwt beam="2">  1       -1 0.90570352E-02 0.78772391E+02</pdfrwt>
<totfact> 0.13700171E+05</totfact>
</mgrwt>
</event>
<event>
 8    1  0.2561077E-016  0.7710299E+02  0.7818608E-02  0.1337480E+00
          2   -1    0    0  501    0  0.00000000000E+00  0.00000000000E+00  0.19916936436E+02  0.19916936599E+02  0.25500000000E-02 0. -1.
         -1   -1    0    0    0  501 -0.00000000000E+00 -0.00000000000E+00 -0.74620799903E+02  0.74620800073E+02  0.50400000000E-02 0.  1.
         24    2    1    2    0    0  0.00000000000E+00 -0.35527136788E-14 -0.54703863467E+02  0.94537736672E+02  0.77102989416E+02 0.  0.
         66    2    3    3    0    0  0.98373466830E+01 -0.31463141567E+02 -0.29242673463E+01  0.33154999641E+02  0.19999986579E+01 0.  0.
        -13    1    3    3    0    0 -0.98373466830E+01  0.31463141567E+02 -0.51779596120E+02  0.61382737031E+02  0.10566000000E+00 0.  1.
         13    1    4    4    0    0  0.66562816332E+01 -0.20852155120E+02 -0.15068664309E+01  0.21940835645E+02  0.10566000000E+00 0. -1.
        -13    1    4    4    0    0  0.16551784976E+01 -0.39329548792E+01 -0.71925659511E+00  0.43285383245E+01  0.10566000000E+00 0.  1.
        -14    1    4    4    0    0  0.15258865521E+01 -0.66780315679E+01 -0.69814432033E+00  0.68856256712E+01  0.00000000000E+00 0.  1.
<mgrwt>
<rscale>  0 0.77102989E+02</rscale>
<asrwt>0</asrwt>
<pdfrwt beam="1">  1        2 0.30641441E-02 0.77102989E+02</pdfrwt>
<pdfrwt beam="2">  1       -1 0.11480123E-01 0.77102989E+02</pdfrwt>
<totfact> 0.13786607E+05</totfact>
</mgrwt>
</event>
<event>
 8    1  0.2561077E-016  0.7930293E+02  0.7818608E-02  0.1331041E+00
         -1   -1    0    0    0  501 -0.00000000000E+00  0.00000000000E+00  0.40591294972E+02  0.40591295285E+02  0.50400000000E-02 0.  1.
          2   -1    0    0  501    0  0.00000000000E+00 -0.00000000000E+00 -0.38733392739E+02  0.38733392823E+02  0.25500000000E-02 0. -1.
         24    2    1    2    0    0  0.00000000000E+00 -0.35527136788E-14  0.18579022331E+01  0.79324688108E+02  0.79302927706E+02 0.  0.
         66    2    3    3    0    0 -0.21811102076E+02 -0.28577020815E+02 -0.15744266945E+02  0.39296975006E+02  0.20000026316E+01 0.  0.
        -13    1    3    3    0    0  0.21811102076E+02  0.28577020815E+02  0.17602169178E+02  0.40027713103E+02  0.10566000000E+00 0.  1.
         13    1    4    4    0    0 -0.72671914650E+01 -0.91241359672E+01 -0.48205431351E+01  0.12621835409E+02  0.10566000000E+00 0. -1.
        -13    1    4    4    0    0 -0.29231255148E+01 -0.49289380750E+01 -0.23785262372E+01  0.62054527973E+01  0.10566000000E+00 0.  1.
        -14    1    4    4    0    0 -0.11620785096E+02 -0.14523946773E+02 -0.85451975725E+01  0.20469686799E+02  0.00000000000E+00 0.  1.
<mgrwt>
<rscale>  0 0.79302928E+02</rscale>
<asrwt>0</asrwt>
<pdfrwt beam="1">  1        2 0.59589835E-02 0.79302928E+02</pdfrwt>
<pdfrwt beam="2">  1       -1 0.62448146E-02 0.79302928E+02</pdfrwt>
<totfact> 0.14508639E+05</totfact>
</mgrwt>
</event>
<event>
 8    1  0.2561077E-016  0.7906965E+02  0.7818608E-02  0.1331713E+00
          2   -1    0    0  501    0  0.00000000000E+00  0.00000000000E+00  0.30971219291E+03  0.30971219292E+03  0.25500000000E-02 0. -1.
         -1   -1    0    0    0  501 -0.00000000000E+00 -0.00000000000E+00 -0.50466272968E+01  0.50466298135E+01  0.50400000000E-02 0.  1.
         24    2    1    2    0    0  0.00000000000E+00 -0.88817841970E-15  0.30466556562E+03  0.31475882274E+03  0.79069650426E+02 0.  0.
         66    2    3    3    0    0  0.35143952521E+02 -0.25935265028E+01  0.22354831555E+03  0.22631763776E+03  0.19999988710E+01 0.  0.
        -13    1    3    3    0    0 -0.35143952521E+02  0.25935265028E+01  0.81117250063E+02  0.88441184978E+02  0.10566000000E+00 0.  1.
         13    1    4    4    0    0  0.38604754656E+01 -0.31799120929E+00  0.27242572359E+02  0.27516782189E+02  0.10566000000E+00 0. -1.
        -13    1    4    4    0    0  0.11976516982E+02 -0.27938920334E+00  0.72767048072E+02  0.73746657324E+02  0.10566000000E+00 0.  1.
        -14    1    4    4    0    0  0.19306960074E+02 -0.19961460901E+01  0.12353869512E+03  0.12505419825E+03  0.00000000000E+00 0.  1.
<mgrwt>
<rscale>  0 0.79069650E+02</rscale>
<asrwt>0</asrwt>
<pdfrwt beam="1">  1        2 0.47648025E-01 0.79069650E+02</pdfrwt>
<pdfrwt beam="2">  1       -1 0.77640448E-03 0.79069650E+02</pdfrwt>
<totfact> 0.26592448E+05</totfact>
</mgrwt>
</event>
<event>
 8    1  0.2561077E-016  0.7917427E+02  0.7818608E-02  0.1331411E+00
         -1   -1    0    0    0  501 -0.00000000000E+00  0.00000000000E+00  0.66578969312E+00  0.66580876914E+00  0.50400000000E-02 0.  1.
          2   -1    0    0  501    0  0.00000000000E+00 -0.00000000000E+00 -0.23537744016E+04  0.23537744016E+04  0.25500000000E-02 0. -1.
         24    2    1    2    0    0  0.00000000000E+00  0.00000000000E+00 -0.23531086119E+04  0.23544402104E+04  0.79174268417E+02 0.  0.
         66    2    3    3    0    0 -0.29606534199E+01 -0.10689826135E+02 -0.23065814602E+04  0.23066089982E+04  0.20000014426E+01 0.  0.
        -13    1    3    3    0    0  0.29606534199E+01  0.10689826135E+02 -0.46527151702E+02  0.47831212205E+02  0.10566000000E+00 0.  1.
         13    1    4    4    0    0 -0.11402896942E+01 -0.56611137561E+01 -0.11650027499E+04  0.11650170672E+04  0.10566000000E+00 0. -1.
        -13    1    4    4    0    0 -0.13228334233E+01 -0.29084148622E+01 -0.55808462025E+03  0.55809377642E+03  0.10566000000E+00 0.  1.
         14    1    4    4    0    0 -0.49753030236E+00 -0.21202975165E+01 -0.58349409009E+03  0.58349815456E+03  0.00000000000E+00 0. -1.
<mgrwt>
<rscale>  0 0.79174268E+02</rscale>
<asrwt>0</asrwt>
<pdfrwt beam="1">  1        2 0.36211248E+00 0.79174268E+02</pdfrwt>
<pdfrwt beam="2">  1       -1 0.10243254E-03 0.79174268E+02</pdfrwt>
<totfact> 0.23633804E+05</totfact>
</mgrwt>
</event>
<event>
 8    1  0.2561077E-016  0.7905280E+02  0.7818608E-02  0.1331761E+00
          2   -1    0    0  501    0  0.00000000000E+00  0.00000000000E+00  0.15421489039E+03  0.15421489041E+03  0.25500000000E-02 0. -1.
         -1   -1    0    0    0  501 -0.00000000000E+00 -0.00000000000E+00 -0.10130904750E+02  0.10130906003E+02  0.50400000000E-02 0.  1.
         24    2    1    2    0    0  0.00000000000E+00  0.00000000000E+00  0.14408398564E+03  0.16434579642E+03  0.79052804385E+02 0.  0.
         66    2    3    3    0    0 -0.25949891777E+02  0.19629404312E+02  0.11864971889E+03  0.12304660167E+03  0.19999987979E+01 0.  0.
        -13    1    3    3    0    0  0.25949891777E+02 -0.19629404312E+02  0.25434266758E+02  0.41299194743E+02  0.10566000000E+00 0.  1.
         13    1    4    4    0    0 -0.14236334567E+02  0.10593708156E+02  0.67681619284E+02  0.69969369208E+02  0.10566000000E+00 0. -1.
        -13    1    4    4    0    0 -0.79782362221E+01  0.65239923110E+01  0.36152751284E+02  0.37593181806E+02  0.10566000000E+00 0.  1.
         14    1    4    4    0    0 -0.37353209876E+01  0.25117038443E+01  0.14815348318E+02  0.15484050661E+02  0.00000000000E+00 0. -1.
<mgrwt>
<rscale>  0 0.79052804E+02</rscale>
<asrwt>0</asrwt>
<pdfrwt beam="1">  1        2 0.23725366E-01 0.79052804E+02</pdfrwt>
<pdfrwt beam="2">  1       -1 0.15586010E-02 0.79052804E+02</pdfrwt>
<totfact> 0.20858533E+05</totfact>
</mgrwt>
</event>
<event>
 8    1  0.2561077E-016  0.7798527E+02  0.7818608E-02  0.1334868E+00
         -1   -1    0    0    0  501 -0.00000000000E+00  0.00000000000E+00  0.16090595467E+02  0.16090596257E+02  0.50400000000E-02 0.  1.
          2   -1    0    0  501    0  0.00000000000E+00 -0.00000000000E+00 -0.94491569935E+02  0.94491569969E+02  0.25500000000E-02 0. -1.
         24    2    1    2    0    0  0.00000000000E+00  0.00000000000E+00 -0.78400974468E+02  0.11058216623E+03  0.77985272262E+02 0.  0.
         66    2    3    3    0    0  0.20030569713E+02  0.45920042674E+01 -0.86172314459E+02  0.88611387553E+02  0.19999996642E+01 0.  0.
        -13    1    3    3    0    0 -0.20030569713E+02 -0.45920042674E+01  0.77713399912E+01  0.21970778673E+02  0.10566000000E+00 0.  1.
         13    1    4    4    0    0  0.43831323265E+01  0.11611996724E+01 -0.18683326594E+02  0.19225974366E+02  0.10566000000E+00 0. -1.
        -13    1    4    4    0    0  0.41056419711E+01  0.16318504338E+01 -0.17412842512E+02  0.17964895775E+02  0.10566000000E+00 0.  1.
        -14    1    4    4    0    0  0.11541795415E+02  0.17989541611E+01 -0.50076145353E+02  0.51420517412E+02  0.00000000000E+00 0.  1.
<mgrwt>
<rscale>  0 0.77985272E+02</rscale>
<asrwt>0</asrwt>
<pdfrwt beam="1">  1        2 0.14537164E-01 0.77985272E+02</pdfrwt>
<pdfrwt beam="2">  1       -1 0.24754763E-02 0.77985272E+02</pdfrwt>
<totfact> 0.18683846E+05</totfact>
</mgrwt>
</event>
<event>
 8    1  0.2561077E-016  0.7940545E+02  0.7818608E-02  0.1330747E+00
          2   -1    0    0  501    0  0.00000000000E+00  0.00000000000E+00  0.77232050668E+03  0.77232050668E+03  0.25500000000E-02 0. -1.
         -1   -1    0    0    0  501 -0.00000000000E+00 -0.00000000000E+00 -0.20409970059E+01  0.20410032288E+01  0.50400000000E-02 0.  1.
         24    2    1    2    0    0  0.00000000000E+00  0.00000000000E+00  0.77027950967E+03  0.77436150991E+03  0.79405446985E+02 0.  0.
         66    2    3    3    0    0  0.28684260499E+02 -0.14205592024E+01  0.65236312239E+03  0.65299804612E+03  0.19999994866E+01 0.  0.
        -13    1    3    3    0    0 -0.28684260499E+02  0.14205592024E+01  0.11791638728E+03  0.12136346379E+03  0.10566000000E+00 0.  1.
         13    1    4    4    0    0  0.18824881967E+01  0.97550333560E-01  0.37188428956E+02  0.37236322188E+02  0.10566000000E+00 0. -1.
        -13    1    4    4    0    0  0.43259358534E+01 -0.62825946697E+00  0.92728184405E+02  0.92831222000E+02  0.10566000000E+00 0.  1.
         14    1    4    4    0    0  0.22475836448E+02 -0.88985006899E+00  0.52244650903E+03  0.52293050194E+03  0.00000000000E+00 0. -1.
<mgrwt>
<rscale>  0 0.79405447E+02</rscale>
<asrwt>0</asrwt>
<pdfrwt beam="1">  1        2 0.11881875E+00 0.79405447E+02</pdfrwt>
<pdfrwt beam="2">  1       -1 0.31399947E-03 0.79405447E+02</pdfrwt>
<totfact> 0.34815774E+05</totfact>
</mgrwt>
</event>
<event>
 8    1  0.2561077E-016  0.7979316E+02  0.7818608E-02  0.1329639E+00
         -1   -1    0    0    0  501 -0.00000000000E+00  0.00000000000E+00  0.32648742290E+02  0.32648742679E+02  0.50400000000E-02 0.  1.
          2   -1    0    0  501    0  0.00000000000E+00 -0.00000000000E+00 -0.48753398611E+02  0.48753398677E+02  0.25500000000E-02 0. -1.
         24    2    1    2    0    0  0.35527136788E-14  0.00000000000E+00 -0.16104656320E+02  0.81402141356E+02  0.79793161751E+02 0.  0.
         66    2    3    3    0    0  0.19861737365E+02 -0.19827472464E+02 -0.36950094689E+02  0.46442725739E+02  0.20000002747E+01 0.  0.
        -13    1    3    3    0    0 -0.19861737365E+02  0.19827472464E+02  0.20845438369E+02  0.34959415617E+02  0.10566000000E+00 0.  1.
         13    1    4    4    0    0  0.18790786143E+02 -0.18396457316E+02 -0.33977605237E+02  0.42965243015E+02  0.10566000000E+00 0. -1.
        -13    1    4    4    0    0  0.48134096343E+00 -0.56978839462E+00 -0.14066408867E+01  0.15956661798E+01  0.10566000000E+00 0. -1.
         14    1    4    4    0    0  0.58961025853E+00 -0.86122675386E+00 -0.15658485656E+01  0.18818165450E+01  0.00000000000E+00 0. -1.
<mgrwt>
<rscale>  0 0.79793162E+02</rscale>
<asrwt>0</asrwt>
<pdfrwt beam="1">  1        2 0.75005229E-02 0.79793162E+02</pdfrwt>
<pdfrwt beam="2">  1       -1 0.50228835E-02 0.79793162E+02</pdfrwt>
<totfact> 0.14967252E+05</totfact>
</mgrwt>
</event>
<event>
 8    1  0.2561077E-016  0.7982771E+02  0.7818608E-02  0.1329541E+00
          2   -1    0    0  501    0  0.00000000000E+00  0.00000000000E+00  0.17610556496E+03  0.17610556497E+03  0.25500000000E-02 0. -1.
         -1   -1    0    0    0  501 -0.00000000000E+00 -0.00000000000E+00 -0.90463674623E+01  0.90463688663E+01  0.50400000000E-02 0.  1.
         24    2    1    2    0    0  0.00000000000E+00  0.00000000000E+00  0.16705919749E+03  0.18515193384E+03  0.79827709085E+02 0.  0.
         66    2    3    3    0    0 -0.29516552828E+02 -0.23422199893E+02  0.53226648943E+02  0.65244942334E+02  0.20000009449E+01 0.  0.
        -13    1    3    3    0    0  0.29516552828E+02  0.23422199893E+02  0.11383254855E+03  0.11990699151E+03  0.10566000000E+00 0.  1.
         13    1    4    4    0    0 -0.14667260137E+02 -0.12110712782E+02  0.28138570515E+02  0.33964513814E+02  0.10566000000E+00 0. -1.
        -13    1    4    4    0    0 -0.79032119813E+00 -0.69498425658E+00  0.12176210320E+01  0.16128780879E+01  0.10566000000E+00 0. -1.
         14    1    4    4    0    0 -0.14058971493E+02 -0.10616502854E+02  0.23870457396E+02  0.29667550431E+02  0.00000000000E+00 0. -1.
<mgrwt>
<rscale>  0 0.79827709E+02</rscale>
<asrwt>0</asrwt>
<pdfrwt beam="1">  1        2 0.27093163E-01 0.79827709E+02</pdfrwt>
<pdfrwt beam="2">  1       -1 0.13917490E-02 0.79827709E+02</pdfrwt>
<totfact> 0.21238259E+05</totfact>
</mgrwt>
</event>
<event>
 8    1  0.2561077E-016  0.7209138E+02  0.7818608E-02  0.1353122E+00
         -1   -1    0    0    0  501 -0.00000000000E+00  0.00000000000E+00  0.74238219154E+01  0.74238236262E+01  0.50400000000E-02 0.  1.
          2   -1    0    0  501    0  0.00000000000E+00 -0.00000000000E+00 -0.17501653862E+03  0.17501653864E+03  0.25500000000E-02 0. -1.
         24    2    1    2    0    0  0.35527136788E-14  0.35527136788E-14 -0.16759271670E+03  0.18244036227E+03  0.72091380143E+02 0.  0.
         66    2    3    3    0    0 -0.24308704801E+02 -0.18470442660E+02 -0.13222362699E+03  0.13571719829E+03  0.19999985596E+01 0.  0.
        -13    1    3    3    0    0  0.24308704801E+02  0.18470442660E+02 -0.35369089713E+02  0.46723163980E+02  0.10566000000E+00 0.  1.
         13    1    4    4    0    0 -0.17069275944E+02 -0.13386934803E+02 -0.93657543333E+02  0.96136968914E+02  0.10566000000E+00 0. -1.
        -13    1    4    4    0    0 -0.17920333149E+01 -0.17750388025E+01 -0.11512247155E+02  0.11785802677E+02  0.10566000000E+00 0. -1.
         14    1    4    4    0    0 -0.54473955424E+01 -0.33084690550E+01 -0.27053836505E+02  0.27794426695E+02  0.00000000000E+00 0. -1.
<mgrwt>
<rscale>  0 0.72091380E+02</rscale>
<asrwt>0</asrwt>
<pdfrwt beam="1">  1        2 0.26925618E-01 0.72091380E+02</pdfrwt>
<pdfrwt beam="2">  1       -1 0.11421267E-02 0.72091380E+02</pdfrwt>
<totfact> 0.27705692E+05</totfact>
</mgrwt>
</event>
<event>
 8    1  0.2561077E-016  0.8125983E+02  0.7818608E-02  0.1325514E+00
         -1   -1    0    0    0  501 -0.00000000000E+00  0.00000000000E+00  0.23265226068E+01  0.23265280660E+01  0.50400000000E-02 0.  1.
          2   -1    0    0  501    0  0.00000000000E+00 -0.00000000000E+00 -0.70955168276E+03  0.70955168276E+03  0.25500000000E-02 0. -1.
         24    2    1    2    0    0  0.35527136788E-14  0.00000000000E+00 -0.70722516015E+03  0.71187821083E+03  0.81259829569E+02 0.  0.
         66    2    3    3    0    0 -0.30497736506E+02  0.13668336793E+02 -0.55586008027E+03  0.55686745658E+03  0.19999980878E+01 0.  0.
        -13    1    3    3    0    0  0.30497736506E+02 -0.13668336793E+02 -0.15136507988E+03  0.15501075425E+03  0.10566000000E+00 0.  1.
         13    1    4    4    0    0 -0.14388488517E+02  0.60857987405E+01 -0.27333655500E+03  0.27378266748E+03  0.10566000000E+00 0. -1.
        -13    1    4    4    0    0 -0.43439716469E+01  0.19313233837E+01 -0.71315768807E+02  0.71474122200E+02  0.10566000000E+00 0.  1.
         14    1    4    4    0    0 -0.11765276341E+02  0.56512146683E+01 -0.21120775647E+03  0.21161066690E+03  0.00000000000E+00 0. -1.
<mgrwt>
<rscale>  0 0.81259830E+02</rscale>
<asrwt>0</asrwt>
<pdfrwt beam="1">  1        2 0.10916163E+00 0.81259830E+02</pdfrwt>
<pdfrwt beam="2">  1       -1 0.35792754E-03 0.81259830E+02</pdfrwt>
<totfact> 0.32217932E+05</totfact>
</mgrwt>
</event>
<event>
 8    1  0.2561077E-016  0.8143669E+02  0.7818608E-02  0.1325023E+00
         -1   -1    0    0    0  501 -0.00000000000E+00  0.00000000000E+00  0.36003160969E+01  0.36003196246E+01  0.50400000000E-02 0.  1.
          2   -1    0    0  501    0  0.00000000000E+00 -0.00000000000E+00 -0.46051039869E+03  0.46051039870E+03  0.25500000000E-02 0. -1.
         24    2    1    2    0    0  0.00000000000E+00  0.00000000000E+00 -0.45691008259E+03  0.46411071832E+03  0.81436694959E+02 0.  0.
         66    2    3    3    0    0 -0.21740524100E+02  0.24983958370E+02 -0.36335150430E+03  0.36486321306E+03  0.20000012786E+01 0.  0.
        -13    1    3    3    0    0  0.21740524100E+02 -0.24983958370E+02 -0.93558578297E+02  0.99247505263E+02  0.10566000000E+00 0.  1.
         13    1    4    4    0    0 -0.11522668554E+02  0.13869387209E+02 -0.19950692089E+03  0.20032012989E+03  0.10566000000E+00 0. -1.
        -13    1    4    4    0    0 -0.29058259125E+00  0.54646738990E+00 -0.85816908816E+01  0.86046294095E+01  0.10566000000E+00 0.  1.
        -14    1    4    4    0    0 -0.99272729551E+01  0.10568103771E+02 -0.15526289252E+03  0.15593845376E+03  0.00000000000E+00 0.  1.
<mgrwt>
<rscale>  0 0.81436695E+02</rscale>
<asrwt>0</asrwt>
<pdfrwt beam="1">  1        2 0.70847707E-01 0.81436695E+02</pdfrwt>
<pdfrwt beam="2">  1       -1 0.55389542E-03 0.81436695E+02</pdfrwt>
<totfact> 0.28300169E+05</totfact>
</mgrwt>
</event>
<event>
 8    1  0.2561077E-016  0.7939727E+02  0.7818608E-02  0.1330771E+00
         -1   -1    0    0    0  501 -0.00000000000E+00  0.00000000000E+00  0.33353267046E+01  0.33353305125E+01  0.50400000000E-02 0.  1.
          2   -1    0    0  501    0  0.00000000000E+00 -0.00000000000E+00 -0.47251169790E+03  0.47251169790E+03  0.25500000000E-02 0. -1.
         24    2    1    2    0    0  0.00000000000E+00 -0.17763568394E-14 -0.46917637119E+03  0.47584702842E+03  0.79397274307E+02 0.  0.
         66    2    3    3    0    0 -0.37266718155E+02  0.10469702692E+02 -0.28683091774E+03  0.28943807339E+03  0.19999993997E+01 0.  0.
        -13    1    3    3    0    0  0.37266718155E+02 -0.10469702692E+02 -0.18234545345E+03  0.18640895503E+03  0.10566000000E+00 0.  1.
         13    1    4    4    0    0 -0.15102555760E+02  0.43056365688E+01 -0.11975611966E+03  0.12078147646E+03  0.10566000000E+00 0. -1.
        -13    1    4    4    0    0 -0.93348253310E+00  0.16247331218E+00 -0.87985302247E+01  0.88500330716E+01  0.10566000000E+00 0.  1.
        -14    1    4    4    0    0 -0.21230679863E+02  0.60015928108E+01 -0.15827626786E+03  0.15980656386E+03  0.00000000000E+00 0.  1.
<mgrwt>
<rscale>  0 0.79397274E+02</rscale>
<asrwt>0</asrwt>
<pdfrwt beam="1">  1        2 0.72694054E-01 0.79397274E+02</pdfrwt>
<pdfrwt beam="2">  1       -1 0.51312785E-03 0.79397274E+02</pdfrwt>
<totfact> 0.30494477E+05</totfact>
</mgrwt>
</event>
<event>
 8    1  0.2561077E-016  0.7741354E+02  0.7818608E-02  0.1336556E+00
         -1   -1    0    0    0  501 -0.00000000000E+00  0.00000000000E+00  0.28063758990E+02  0.28063759442E+02  0.50400000000E-02 0.  1.
          2   -1    0    0  501    0  0.00000000000E+00 -0.00000000000E+00 -0.53386074215E+02  0.53386074276E+02  0.25500000000E-02 0. -1.
         24    2    1    2    0    0  0.35527136788E-14  0.00000000000E+00 -0.25322315225E+02  0.81449833718E+02  0.77413537346E+02 0.  0.
         66    2    3    3    0    0  0.18287763557E+02 -0.40370186132E+01 -0.48279013110E+02  0.51822802868E+02  0.19999937434E+01 0.  0.
        -13    1    3    3    0    0 -0.18287763557E+02  0.40370186132E+01  0.22956697885E+02  0.29627030851E+02  0.10566000000E+00 0.  1.
         13    1    4    4    0    0  0.82277556106E+01 -0.22036665592E+01 -0.21035128665E+02  0.22694490756E+02  0.10566000000E+00 0. -1.
        -13    1    4    4    0    0  0.57837638806E+00  0.17410001588E+00 -0.17528738421E+01  0.18570301030E+01  0.10566000000E+00 0.  1.
        -14    1    4    4    0    0  0.94816315581E+01 -0.20074520699E+01 -0.25491010604E+02  0.27271282009E+02  0.00000000000E+00 0.  1.
<mgrwt>
<rscale>  0 0.77413537E+02</rscale>
<asrwt>0</asrwt>
<pdfrwt beam="1">  1        2 0.82132422E-02 0.77413537E+02</pdfrwt>
<pdfrwt beam="2">  1       -1 0.43175014E-02 0.77413537E+02</pdfrwt>
<totfact> 0.16580865E+05</totfact>
</mgrwt>
</event>
<event>
 8    1  0.2561077E-016  0.7935449E+02  0.7818608E-02  0.1330893E+00
         -1   -1    0    0    0  501 -0.00000000000E+00  0.00000000000E+00  0.10860198128E+01  0.10860315075E+01  0.50400000000E-02 0.  1.
          2   -1    0    0  501    0  0.00000000000E+00 -0.00000000000E+00 -0.14495826056E+04  0.14495826056E+04  0.25500000000E-02 0. -1.
         24    2    1    2    0    0  0.00000000000E+00  0.00000000000E+00 -0.14484965858E+04  0.14506686371E+04  0.79354493614E+02 0.  0.
         66    2    3    3    0    0  0.55434662270E+01 -0.19691827793E+02 -0.13456595343E+04  0.13458165107E+04  0.19999995209E+01 0.  0.
        -13    1    3    3    0    0 -0.55434662270E+01  0.19691827793E+02 -0.10283705150E+03  0.10485212647E+03  0.10566000000E+00 0.  1.
         13    1    4    4    0    0  0.11807660216E+01 -0.33639157284E+01 -0.22244080088E+03  0.22246939385E+03  0.10566000000E+00 0. -1.
        -13    1    4    4    0    0  0.40479197819E+01 -0.14611845450E+02 -0.10358258536E+04  0.10359368233E+04  0.10566000000E+00 0.  1.
        -14    1    4    4    0    0  0.31478042353E+00 -0.17160666142E+01 -0.87392879790E+02  0.87410293498E+02  0.00000000000E+00 0.  1.
<mgrwt>
<rscale>  0 0.79354494E+02</rscale>
<asrwt>0</asrwt>
<pdfrwt beam="1">  1        2 0.22301116E+00 0.79354494E+02</pdfrwt>
<pdfrwt beam="2">  1       -1 0.16708203E-03 0.79354494E+02</pdfrwt>
<totfact> 0.34370214E+05</totfact>
</mgrwt>
</event>
<event>
 8    1  0.2561077E-016  0.7877424E+02  0.7818608E-02  0.1332566E+00
          2   -1    0    0  501    0  0.00000000000E+00  0.00000000000E+00  0.34190412015E+03  0.34190412016E+03  0.25500000000E-02 0. -1.
         -1   -1    0    0    0  501 -0.00000000000E+00 -0.00000000000E+00 -0.45373682111E+01  0.45373710103E+01  0.50400000000E-02 0.  1.
         24    2    1    2    0    0  0.00000000000E+00  0.00000000000E+00  0.33736675194E+03  0.34644149117E+03  0.78774243825E+02 0.  0.
         66    2    3    3    0    0  0.15629841404E+02 -0.29772839022E+02  0.25877450971E+03  0.26095777583E+03  0.20000011344E+01 0.  0.
        -13    1    3    3    0    0 -0.15629841404E+02  0.29772839022E+02  0.78592242231E+02  0.85483715342E+02  0.10566000000E+00 0.  1.
         13    1    4    4    0    0  0.32154323087E+01 -0.66148123754E+01  0.59144438012E+02  0.59600087748E+02  0.10566000000E+00 0. -1.
        -13    1    4    4    0    0  0.36497785668E+01 -0.72527570496E+01  0.66918968373E+02  0.67409812791E+02  0.10566000000E+00 0.  1.
         14    1    4    4    0    0  0.87646305286E+01 -0.15905269597E+02  0.13271110332E+03  0.13394787529E+03  0.00000000000E+00 0. -1.
<mgrwt>
<rscale>  0 0.78774244E+02</rscale>
<asrwt>0</asrwt>
<pdfrwt beam="1">  1        2 0.52600649E-01 0.78774244E+02</pdfrwt>
<pdfrwt beam="2">  1       -1 0.69805666E-03 0.78774244E+02</pdfrwt>
<totfact> 0.27826234E+05</totfact>
</mgrwt>
</event>
<event>
 8    1  0.2561077E-016  0.7955886E+02  0.7818608E-02  0.1330308E+00
          2   -1    0    0  501    0  0.00000000000E+00  0.00000000000E+00  0.18796537429E+03  0.18796537431E+03  0.25500000000E-02 0. -1.
         -1   -1    0    0    0  501 -0.00000000000E+00 -0.00000000000E+00 -0.84185881076E+01  0.84185896163E+01  0.50400000000E-02 0.  1.
         24    2    1    2    0    0 -0.35527136788E-14  0.00000000000E+00  0.17954678618E+03  0.19638396392E+03  0.79558864106E+02 0.  0.
         66    2    3    3    0    0 -0.31674003289E+02  0.19241278094E+02  0.12533812309E+03  0.13071768959E+03  0.20000009755E+01 0.  0.
        -13    1    3    3    0    0  0.31674003289E+02 -0.19241278094E+02  0.54208663089E+02  0.65666274334E+02  0.10566000000E+00 0.  1.
         13    1    4    4    0    0 -0.67699663393E+01  0.39137453248E+01  0.28326325148E+02  0.29386080159E+02  0.10566000000E+00 0.  1.
        -13    1    4    4    0    0 -0.20732845129E+02  0.13216131810E+02  0.82411387948E+02  0.86000959499E+02  0.10566000000E+00 0. -1.
        -14    1    4    4    0    0 -0.41711918208E+01  0.21114009592E+01  0.14600409996E+02  0.15330649930E+02  0.00000000000E+00 0.  1.
<mgrwt>
<rscale>  0 0.79558864E+02</rscale>
<asrwt>0</asrwt>
<pdfrwt beam="1">  1        2 0.28917750E-01 0.79558864E+02</pdfrwt>
<pdfrwt beam="2">  1       -1 0.12951675E-02 0.79558864E+02</pdfrwt>
<totfact> 0.21908711E+05</totfact>
</mgrwt>
</event>
<event>
 8    1  0.2561077E-016  0.7957305E+02  0.7818608E-02  0.1330267E+00
         -1   -1    0    0    0  501 -0.00000000000E+00  0.00000000000E+00  0.30829326258E+01  0.30829367455E+01  0.50400000000E-02 0.  1.
          2   -1    0    0  501    0  0.00000000000E+00 -0.00000000000E+00 -0.51346131756E+03  0.51346131757E+03  0.25500000000E-02 0. -1.
         24    2    1    2    0    0  0.00000000000E+00  0.00000000000E+00 -0.51037838493E+03  0.51654425431E+03  0.79573053571E+02 0.  0.
         66    2    3    3    0    0  0.30831843379E+02 -0.24605704495E+02 -0.28775488732E+03  0.29045295392E+03  0.20000007837E+01 0.  0.
        -13    1    3    3    0    0 -0.30831843379E+02  0.24605704495E+02 -0.22262349761E+03  0.22609130039E+03  0.10566000000E+00 0.  1.
         13    1    4    4    0    0  0.75489246048E+01 -0.56894009471E+01 -0.66197989585E+02  0.66869578546E+02  0.10566000000E+00 0. -1.
        -13    1    4    4    0    0  0.13042438359E+02 -0.11080868900E+02 -0.12174343386E+03  0.12294049660E+03  0.10566000000E+00 0.  1.
        -14    1    4    4    0    0  0.10240480415E+02 -0.78354346487E+01 -0.99813463883E+02  0.10064287877E+03  0.00000000000E+00 0.  1.
<mgrwt>
<rscale>  0 0.79573054E+02</rscale>
<asrwt>0</asrwt>
<pdfrwt beam="1">  1        2 0.78993981E-01 0.79573054E+02</pdfrwt>
<pdfrwt beam="2">  1       -1 0.47429805E-03 0.79573054E+02</pdfrwt>
<totfact> 0.31139234E+05</totfact>
</mgrwt>
</event>
<event>
 8    1  0.2561077E-016  0.8071641E+02  0.7818608E-02  0.1327031E+00
          2   -1    0    0  501    0  0.00000000000E+00  0.00000000000E+00  0.46536086389E+03  0.46536086390E+03  0.25500000000E-02 0. -1.
         -1   -1    0    0    0  501 -0.00000000000E+00 -0.00000000000E+00 -0.35000449390E+01  0.35000485677E+01  0.50400000000E-02 0.  1.
         24    2    1    2    0    0  0.35527136788E-14  0.88817841970E-15  0.46186081896E+03  0.46886091247E+03  0.80716411932E+02 0.  0.
         66    2    3    3    0    0  0.26573890959E+02  0.59395021001E+01  0.40390806293E+03  0.40482980705E+03  0.20000030687E+01 0.  0.
        -13    1    3    3    0    0 -0.26573890959E+02 -0.59395021001E+01  0.57952756023E+02  0.64031105415E+02  0.10566000000E+00 0.  1.
         13    1    4    4    0    0  0.39363988750E+01  0.49603502572E+00  0.66899148740E+02  0.67016778146E+02  0.10566000000E+00 0. -1.
        -13    1    4    4    0    0  0.84336259772E+01  0.19994909419E+01  0.13052780061E+03  0.13081529692E+03  0.10566000000E+00 0. -1.
         14    1    4    4    0    0  0.14203866107E+02  0.34439761324E+01  0.20648111358E+03  0.20699773199E+03  0.00000000000E+00 0. -1.
<mgrwt>
<rscale>  0 0.80716412E+02</rscale>
<asrwt>0</asrwt>
<pdfrwt beam="1">  1        2 0.71593991E-01 0.80716412E+02</pdfrwt>
<pdfrwt beam="2">  1       -1 0.53846864E-03 0.80716412E+02</pdfrwt>
<totfact> 0.29065341E+05</totfact>
</mgrwt>
</event>
<event>
 8    1  0.2561077E-016  0.7894291E+02  0.7818608E-02  0.1332078E+00
          2   -1    0    0  501    0  0.00000000000E+00  0.00000000000E+00  0.92508925653E+03  0.92508925653E+03  0.25500000000E-02 0. -1.
         -1   -1    0    0    0  501 -0.00000000000E+00 -0.00000000000E+00 -0.16841532997E+01  0.16841608410E+01  0.50400000000E-02 0.  1.
         24    2    1    2    0    0  0.00000000000E+00  0.35527136788E-14  0.92340510323E+03  0.92677341738E+03  0.78942906460E+02 0.  0.
         66    2    3    3    0    0 -0.69963199110E+01 -0.28642060454E+02  0.76963320334E+03  0.77020035303E+03  0.19999999121E+01 0.  0.
        -13    1    3    3    0    0  0.69963199110E+01  0.28642060454E+02  0.15377189989E+03  0.15657306435E+03  0.10566000000E+00 0.  1.
         13    1    4    4    0    0 -0.97629894113E+00 -0.52099379636E+01  0.14159341633E+03  0.14169263681E+03  0.10566000000E+00 0. -1.
        -13    1    4    4    0    0 -0.38468976333E+01 -0.17297039815E+02  0.47030609794E+03  0.47063980190E+03  0.10566000000E+00 0.  1.
        -14    1    4    4    0    0 -0.21731233366E+01 -0.61350826752E+01  0.15773368907E+03  0.15786791432E+03  0.00000000000E+00 0.  1.
<mgrwt>
<rscale>  0 0.78942906E+02</rscale>
<asrwt>0</asrwt>
<pdfrwt beam="1">  1        2 0.14232132E+00 0.78942906E+02</pdfrwt>
<pdfrwt beam="2">  1       -1 0.25910129E-03 0.78942906E+02</pdfrwt>
<totfact> 0.36275150E+05</totfact>
</mgrwt>
</event>
<event>
 8    1  0.2561077E-016  0.8070986E+02  0.7818608E-02  0.1327049E+00
          2   -1    0    0  501    0  0.00000000000E+00  0.00000000000E+00  0.96680453878E+01  0.96680457241E+01  0.25500000000E-02 0. -1.
         -1   -1    0    0    0  501 -0.00000000000E+00 -0.00000000000E+00 -0.16844358620E+03  0.16844358627E+03  0.50400000000E-02 0.  1.
         24    2    1    2    0    0  0.00000000000E+00  0.00000000000E+00 -0.15877554081E+03  0.17811163200E+03  0.80709857472E+02 0.  0.
         66    2    3    3    0    0  0.17211343669E+02  0.30169816906E+02 -0.34206544441E+02  0.48790735683E+02  0.20000007216E+01 0.  0.
        -13    1    3    3    0    0 -0.17211343669E+02 -0.30169816906E+02 -0.12456899637E+03  0.12932089631E+03  0.10566000000E+00 0.  1.
         13    1    4    4    0    0  0.31202687153E+01  0.60549784321E+01 -0.71229742008E+01  0.98563059089E+01  0.10566000000E+00 0. -1.
        -13    1    4    4    0    0  0.40496476379E+01  0.59078477986E+01 -0.75057823103E+01  0.10375463543E+02  0.10566000000E+00 0.  1.
        -14    1    4    4    0    0  0.10041427316E+02  0.18206990675E+02 -0.19577787930E+02  0.28558966232E+02  0.00000000000E+00 0.  1.
<mgrwt>
<rscale>  0 0.80709857E+02</rscale>
<asrwt>0</asrwt>
<pdfrwt beam="1">  1        2 0.14873917E-02 0.80709857E+02</pdfrwt>
<pdfrwt beam="2">  1       -1 0.25914396E-01 0.80709857E+02</pdfrwt>
<totfact> 0.10231349E+05</totfact>
</mgrwt>
</event>
<event>
 8    1  0.2561077E-016  0.8030137E+02  0.7818608E-02  0.1328198E+00
          2   -1    0    0  501    0  0.00000000000E+00  0.00000000000E+00  0.16975247872E+03  0.16975247874E+03  0.25500000000E-02 0. -1.
         -1   -1    0    0    0  501 -0.00000000000E+00 -0.00000000000E+00 -0.94966344122E+01  0.94966357496E+01  0.50400000000E-02 0.  1.
         24    2    1    2    0    0  0.17763568394E-14  0.00000000000E+00  0.16025584431E+03  0.17924911449E+03  0.80301366179E+02 0.  0.
         66    2    3    3    0    0 -0.73811338368E+01 -0.31396908330E+02  0.13346249011E+03  0.13731891078E+03  0.20000009936E+01 0.  0.
        -13    1    3    3    0    0  0.73811338368E+01  0.31396908330E+02  0.26793354204E+02  0.41930203708E+02  0.10566000000E+00 0.  1.
         13    1    4    4    0    0 -0.53987188173E+00 -0.22695570322E+01  0.10996860817E+02  0.11242084444E+02  0.10566000000E+00 0. -1.
        -13    1    4    4    0    0 -0.60461869322E+01 -0.27017908183E+02  0.11434377506E+03  0.11764792305E+03  0.10566000000E+00 0.  1.
        -14    1    4    4    0    0 -0.79507502291E+00 -0.21094431156E+01  0.81218542330E+01  0.84289032935E+01  0.00000000000E+00 0.  1.
<mgrwt>
<rscale>  0 0.80301366E+02</rscale>
<asrwt>0</asrwt>
<pdfrwt beam="1">  1        2 0.26115763E-01 0.80301366E+02</pdfrwt>
<pdfrwt beam="2">  1       -1 0.14610209E-02 0.80301366E+02</pdfrwt>
<totfact> 0.20652579E+05</totfact>
</mgrwt>
</event>
<event>
 8    1  0.2561077E-016  0.7662669E+02  0.7818608E-02  0.1338906E+00
          2   -1    0    0  501    0  0.00000000000E+00  0.00000000000E+00  0.27444477112E+02  0.27444477230E+02  0.25500000000E-02 0. -1.
         -1   -1    0    0    0  501 -0.00000000000E+00 -0.00000000000E+00 -0.53486622310E+02  0.53486622548E+02  0.50400000000E-02 0.  1.
         24    2    1    2    0    0  0.00000000000E+00  0.00000000000E+00 -0.26042145199E+02  0.80931099778E+02  0.76626689768E+02 0.  0.
         66    2    3    3    0    0  0.85358677053E+01  0.19470475895E+02  0.20601331720E+02  0.29671119558E+02  0.19999995268E+01 0.  0.
        -13    1    3    3    0    0 -0.85358677053E+01 -0.19470475895E+02 -0.46643476919E+02  0.51259980220E+02  0.10566000000E+00 0.  1.
         13    1    4    4    0    0  0.98451563701E+00  0.31925133888E+01  0.29623099066E+01  0.44663023627E+01  0.10566000000E+00 0.  1.
        -13    1    4    4    0    0  0.44063805314E+01  0.92776793530E+01  0.11090888704E+02  0.15116563758E+02  0.10566000000E+00 0. -1.
         14    1    4    4    0    0  0.31449715369E+01  0.70002831531E+01  0.65481331099E+01  0.10088253437E+02  0.00000000000E+00 0. -1.
<mgrwt>
<rscale>  0 0.76626690E+02</rscale>
<asrwt>0</asrwt>
<pdfrwt beam="1">  1        2 0.42222273E-02 0.76626690E+02</pdfrwt>
<pdfrwt beam="2">  1       -1 0.82287112E-02 0.76626690E+02</pdfrwt>
<totfact> 0.14919966E+05</totfact>
</mgrwt>
</event>
<event>
 8    1  0.2561077E-016  0.7717499E+02  0.7818608E-02  0.1337265E+00
          2   -1    0    0  501    0  0.00000000000E+00  0.00000000000E+00  0.32665695748E+03  0.32665695749E+03  0.25500000000E-02 0. -1.
         -1   -1    0    0    0  501 -0.00000000000E+00 -0.00000000000E+00 -0.45582818401E+01  0.45582846264E+01  0.50400000000E-02 0.  1.
         24    2    1    2    0    0  0.00000000000E+00  0.00000000000E+00  0.32209867564E+03  0.33121524212E+03  0.77174994404E+02 0.  0.
         66    2    3    3    0    0 -0.19257502538E+02  0.20318582070E+01  0.30427316230E+03  0.30489528882E+03  0.19999989825E+01 0.  0.
        -13    1    3    3    0    0  0.19257502538E+02 -0.20318582070E+01  0.17825513343E+02  0.26319953301E+02  0.10566000000E+00 0.  1.
         13    1    4    4    0    0 -0.94297753361E+01  0.10525318325E+01  0.13863123012E+03  0.13895559583E+03  0.10566000000E+00 0. -1.
        -13    1    4    4    0    0 -0.55255401221E+01  0.10799028305E+01  0.95520896496E+02  0.95686731657E+02  0.10566000000E+00 0.  1.
        -14    1    4    4    0    0 -0.43021870802E+01 -0.10057645606E+00  0.70121035687E+02  0.70252961326E+02  0.00000000000E+00 0.  1.
<mgrwt>
<rscale>  0 0.77174994E+02</rscale>
<asrwt>0</asrwt>
<pdfrwt beam="1">  1        2 0.50254912E-01 0.77174994E+02</pdfrwt>
<pdfrwt beam="2">  1       -1 0.70127441E-03 0.77174994E+02</pdfrwt>
<totfact> 0.28881262E+05</totfact>
</mgrwt>
</event>
<event>
 8    1  0.2561077E-016  0.7885152E+02  0.7818608E-02  0.1332343E+00
          2   -1    0    0  501    0  0.00000000000E+00  0.00000000000E+00  0.65432498760E+03  0.65432498761E+03  0.25500000000E-02 0. -1.
         -1   -1    0    0    0  501 -0.00000000000E+00 -0.00000000000E+00 -0.23755610536E+01  0.23755664001E+01  0.50400000000E-02 0.  1.
         24    2    1    2    0    0 -0.88817841970E-15 -0.26645352591E-14  0.65194942655E+03  0.65670055401E+03  0.78851524122E+02 0.  0.
         66    2    3    3    0    0  0.75522726188E+01  0.71087706361E+01  0.64274914184E+03  0.64283592836E+03  0.20000021306E+01 0.  0.
        -13    1    3    3    0    0 -0.75522726188E+01 -0.71087706361E+01  0.92002847077E+01  0.13864625650E+02  0.10566000000E+00 0.  1.
         13    1    4    4    0    0  0.21154363443E+01  0.23971418641E+01  0.23254834977E+03  0.23257034958E+03  0.10566000000E+00 0. -1.
        -13    1    4    4    0    0  0.68388120306E+00  0.25242719041E+00  0.30745858114E+02  0.30754680427E+02  0.10566000000E+00 0.  1.
         14    1    4    4    0    0  0.47529550714E+01  0.44592015816E+01  0.37945493396E+03  0.37951089835E+03  0.00000000000E+00 0. -1.
<mgrwt>
<rscale>  0 0.78851524E+02</rscale>
<asrwt>0</asrwt>
<pdfrwt beam="1">  1        2 0.10066552E+00 0.78851524E+02</pdfrwt>
<pdfrwt beam="2">  1       -1 0.36547085E-03 0.78851524E+02</pdfrwt>
<totfact> 0.34172892E+05</totfact>
</mgrwt>
</event>
<event>
 8    1  0.2561077E-016  0.7754615E+02  0.7818608E-02  0.1336163E+00
         -1   -1    0    0    0  501 -0.00000000000E+00  0.00000000000E+00  0.86801738731E+02  0.86801738877E+02  0.50400000000E-02 0.  1.
          2   -1    0    0  501    0  0.00000000000E+00 -0.00000000000E+00 -0.17319370326E+02  0.17319370514E+02  0.25500000000E-02 0. -1.
         24    2    1    2    0    0  0.44408920985E-15  0.00000000000E+00  0.69482368405E+02  0.10412110939E+03  0.77546153364E+02 0.  0.
         66    2    3    3    0    0 -0.19026553976E+01  0.16693758578E+02 -0.12115854452E+02  0.20810949083E+02  0.19999999003E+01 0.  0.
        -13    1    3    3    0    0  0.19026553976E+01 -0.16693758578E+02  0.81598222857E+02  0.83310160308E+02  0.10566000000E+00 0.  1.
         13    1    4    4    0    0 -0.21832186039E-01  0.44970744255E+01 -0.41124405237E+01  0.60948737583E+01  0.10566000000E+00 0. -1.
        -13    1    4    4    0    0 -0.71617986623E+00  0.44003313590E+01 -0.26537223913E+01  0.51893387089E+01  0.10566000000E+00 0.  1.
         14    1    4    4    0    0 -0.11646433453E+01  0.77963527930E+01 -0.53496915374E+01  0.95267366155E+01  0.00000000000E+00 0. -1.
<mgrwt>
<rscale>  0 0.77546153E+02</rscale>
<asrwt>0</asrwt>
<pdfrwt beam="1">  1        2 0.26645185E-02 0.77546153E+02</pdfrwt>
<pdfrwt beam="2">  1       -1 0.13354114E-01 0.77546153E+02</pdfrwt>
<totfact> 0.13190430E+05</totfact>
</mgrwt>
</event>
<event>
 8    1  0.2561077E-016  0.8358395E+02  0.7818608E-02  0.1319178E+00
          2   -1    0    0  501    0  0.00000000000E+00  0.00000000000E+00  0.77010767035E+03  0.77010767035E+03  0.25500000000E-02 0. -1.
         -1   -1    0    0    0  501 -0.00000000000E+00 -0.00000000000E+00 -0.22679518669E+01  0.22679574671E+01  0.50400000000E-02 0.  1.
         24    2    1    2    0    0  0.00000000000E+00  0.00000000000E+00  0.76783971848E+03  0.77237562782E+03  0.83583952839E+02 0.  0.
         66    2    3    3    0    0 -0.20081176634E+02  0.16811715267E+02  0.68480716735E+03  0.68531069150E+03  0.20000006491E+01 0.  0.
        -13    1    3    3    0    0  0.20081176634E+02 -0.16811715267E+02  0.83032551131E+02  0.87064936321E+02  0.10566000000E+00 0.  1.
         13    1    4    4    0    0 -0.11382642418E+02  0.95137844177E+01  0.39126789075E+03  0.39154903925E+03  0.10566000000E+00 0. -1.
        -13    1    4    4    0    0 -0.47429204416E+01  0.37986482257E+01  0.17304643847E+03  0.17315312891E+03  0.10566000000E+00 0.  1.
        -14    1    4    4    0    0 -0.39556137745E+01  0.34992826235E+01  0.12049283813E+03  0.12060852333E+03  0.00000000000E+00 0.  1.
<mgrwt>
<rscale>  0 0.83583953E+02</rscale>
<asrwt>0</asrwt>
<pdfrwt beam="1">  1        2 0.11847815E+00 0.83583953E+02</pdfrwt>
<pdfrwt beam="2">  1       -1 0.34891596E-03 0.83583953E+02</pdfrwt>
<totfact> 0.30448511E+05</totfact>
</mgrwt>
</event>
<event>
 8    1  0.2561077E-016  0.7956790E+02  0.7818608E-02  0.1330282E+00
         -1   -1    0    0    0  501 -0.00000000000E+00  0.00000000000E+00  0.47496860041E+02  0.47496860308E+02  0.50400000000E-02 0.  1.
          2   -1    0    0  501    0  0.00000000000E+00 -0.00000000000E+00 -0.33323520993E+02  0.33323521091E+02  0.25500000000E-02 0. -1.
         24    2    1    2    0    0  0.00000000000E+00  0.00000000000E+00  0.14173339047E+02  0.80820381399E+02  0.79567898739E+02 0.  0.
         66    2    3    3    0    0  0.34829683801E+02 -0.18613045354E+02  0.24137206690E+01  0.39615380253E+02  0.19999935097E+01 0.  0.
        -13    1    3    3    0    0 -0.34829683801E+02  0.18613045354E+02  0.11759618378E+02  0.41205001147E+02  0.10566000000E+00 0.  1.
         13    1    4    4    0    0  0.28766915156E+01 -0.15421836821E+01 -0.67454502101E-01  0.32664045571E+01  0.10566000000E+00 0. -1.
        -13    1    4    4    0    0  0.28327602752E+02 -0.14653542199E+02  0.25034223038E+01  0.31991524876E+02  0.10566000000E+00 0.  1.
        -14    1    4    4    0    0  0.36253895337E+01 -0.24173194731E+01 -0.22247132682E-01  0.43574508191E+01  0.00000000000E+00 0.  1.
<mgrwt>
<rscale>  0 0.79567899E+02</rscale>
<asrwt>0</asrwt>
<pdfrwt beam="1">  1        2 0.51266956E-02 0.79567899E+02</pdfrwt>
<pdfrwt beam="2">  1       -1 0.73072093E-02 0.79567899E+02</pdfrwt>
<totfact> 0.13947393E+05</totfact>
</mgrwt>
</event>
<event>
 8    1  0.2561077E-016  0.7734876E+02  0.7818608E-02  0.1336748E+00
         -1   -1    0    0    0  501 -0.00000000000E+00  0.00000000000E+00  0.22675685054E+03  0.22675685060E+03  0.50400000000E-02 0.  1.
          2   -1    0    0  501    0  0.00000000000E+00 -0.00000000000E+00 -0.65960864082E+01  0.65960869011E+01  0.25500000000E-02 0. -1.
         24    2    1    2    0    0  0.00000000000E+00  0.00000000000E+00  0.22016076414E+03  0.23335293750E+03  0.77348764538E+02 0.  0.
         66    2    3    3    0    0 -0.32180086688E+02  0.15897438680E+02  0.66914595763E+02  0.75959526518E+02  0.20000017203E+01 0.  0.
        -13    1    3    3    0    0  0.32180086688E+02 -0.15897438680E+02  0.15324616837E+03  0.15739341098E+03  0.10566000000E+00 0.  1.
         13    1    4    4    0    0 -0.57492888266E+01  0.29705578416E+01  0.11192434143E+02  0.12929047992E+02  0.10566000000E+00 0. -1.
        -13    1    4    4    0    0 -0.62573170981E+01  0.23824865319E+01  0.12516635167E+02  0.14195336533E+02  0.10566000000E+00 0.  1.
         14    1    4    4    0    0 -0.20173480764E+02  0.10544394307E+02  0.43205526453E+02  0.48835141994E+02  0.00000000000E+00 0. -1.
<mgrwt>
<rscale>  0 0.77348765E+02</rscale>
<asrwt>0</asrwt>
<pdfrwt beam="1">  1        2 0.10147826E-02 0.77348765E+02</pdfrwt>
<pdfrwt beam="2">  1       -1 0.34885669E-01 0.77348765E+02</pdfrwt>
<totfact> 0.10432763E+05</totfact>
</mgrwt>
</event>
<event>
 8    1  0.2561077E-016  0.8243744E+02  0.7818608E-02  0.1322273E+00
         -1   -1    0    0    0  501 -0.00000000000E+00  0.00000000000E+00  0.11125520913E+03  0.11125520924E+03  0.50400000000E-02 0.  1.
          2   -1    0    0  501    0  0.00000000000E+00 -0.00000000000E+00 -0.15271041299E+02  0.15271041512E+02  0.25500000000E-02 0. -1.
         24    2    1    2    0    0 -0.35527136788E-14  0.00000000000E+00  0.95984167831E+02  0.12652625076E+03  0.82437440863E+02 0.  0.
         66    2    3    3    0    0 -0.24229569254E+02 -0.32782819745E+02  0.38915208126E+02  0.56393072997E+02  0.19999904645E+01 0.  0.
        -13    1    3    3    0    0  0.24229569254E+02  0.32782819745E+02  0.57068959705E+02  0.70133177759E+02  0.10566000000E+00 0.  1.
         13    1    4    4    0    0 -0.12732368211E+02 -0.16770577146E+02  0.18879633306E+02  0.28281039158E+02  0.10566000000E+00 0. -1.
        -13    1    4    4    0    0 -0.94375072321E+01 -0.12870813988E+02  0.16033937113E+02  0.22623498820E+02  0.10566000000E+00 0.  1.
        -14    1    4    4    0    0 -0.20596938114E+01 -0.31414286109E+01  0.40016377074E+01  0.54885350191E+01  0.00000000000E+00 0.  1.
<mgrwt>
<rscale>  0 0.82437441E+02</rscale>
<asrwt>0</asrwt>
<pdfrwt beam="1">  1        2 0.23493909E-02 0.82437441E+02</pdfrwt>
<pdfrwt beam="2">  1       -1 0.17116187E-01 0.82437441E+02</pdfrwt>
<totfact> 0.10742299E+05</totfact>
</mgrwt>
</event>
<event>
 8    1  0.2561077E-016  0.8111529E+02  0.7818608E-02  0.1325916E+00
         -1   -1    0    0    0  501 -0.00000000000E+00  0.00000000000E+00  0.85656483771E+01  0.85656498599E+01  0.50400000000E-02 0.  1.
          2   -1    0    0  501    0  0.00000000000E+00 -0.00000000000E+00 -0.19203712891E+03  0.19203712892E+03  0.25500000000E-02 0. -1.
         24    2    1    2    0    0  0.17763568394E-14  0.00000000000E+00 -0.18347148053E+03  0.20060277878E+03  0.81115292565E+02 0.  0.
         66    2    3    3    0    0  0.13754379750E+02  0.12570318817E+01 -0.18603251592E+03  0.18655524669E+03  0.19999993015E+01 0.  0.
        -13    1    3    3    0    0 -0.13754379750E+02 -0.12570318817E+01  0.25610353936E+01  0.14047532089E+02  0.10566000000E+00 0.  1.
         13    1    4    4    0    0  0.11709518321E+02  0.93913307923E+00 -0.15049780846E+03  0.15095561038E+03  0.10566000000E+00 0. -1.
        -13    1    4    4    0    0  0.78393482074E+00  0.20482641560E+00 -0.98891711061E+01  0.99228714023E+01  0.10566000000E+00 0. -1.
         14    1    4    4    0    0  0.12609266084E+01  0.11307238689E+00 -0.25645536359E+02  0.25676764913E+02  0.00000000000E+00 0. -1.
<mgrwt>
<rscale>  0 0.81115293E+02</rscale>
<asrwt>0</asrwt>
<pdfrwt beam="1">  1        2 0.29544170E-01 0.81115293E+02</pdfrwt>
<pdfrwt beam="2">  1       -1 0.13177923E-02 0.81115293E+02</pdfrwt>
<totfact> 0.20969371E+05</totfact>
</mgrwt>
</event>
<event>
 8    1  0.2561077E-016  0.7921644E+02  0.7818608E-02  0.1331290E+00
         -1   -1    0    0    0  501 -0.00000000000E+00  0.00000000000E+00  0.19245795933E+01  0.19245861925E+01  0.50400000000E-02 0.  1.
          2   -1    0    0  501    0  0.00000000000E+00 -0.00000000000E+00 -0.81514342948E+03  0.81514342949E+03  0.25500000000E-02 0. -1.
         24    2    1    2    0    0  0.17763568394E-14  0.35527136788E-14 -0.81321884989E+03  0.81706801568E+03  0.79216440405E+02 0.  0.
         66    2    3    3    0    0  0.12875027807E+02  0.19893750771E+02 -0.73389674710E+03  0.73428193705E+03  0.20000011373E+01 0.  0.
        -13    1    3    3    0    0 -0.12875027807E+02 -0.19893750771E+02 -0.79322102784E+02  0.82786078630E+02  0.10566000000E+00 0.  1.
         13    1    4    4    0    0  0.65064408294E+01  0.83242436164E+01 -0.31929424694E+03  0.31946901899E+03  0.10566000000E+00 0. -1.
        -13    1    4    4    0    0  0.12672254025E+01  0.24976853921E+01 -0.87008577047E+02  0.87053707195E+02  0.10566000000E+00 0.  1.
         14    1    4    4    0    0  0.51013615748E+01  0.90718217627E+01 -0.32759392312E+03  0.32775921086E+03  0.00000000000E+00 0. -1.
<mgrwt>
<rscale>  0 0.79216440E+02</rscale>
<asrwt>0</asrwt>
<pdfrwt beam="1">  1        2 0.12540641E+00 0.79216440E+02</pdfrwt>
<pdfrwt beam="2">  1       -1 0.29609033E-03 0.79216440E+02</pdfrwt>
<totfact> 0.35366304E+05</totfact>
</mgrwt>
</event>
<event>
 8    1  0.2561077E-016  0.7875775E+02  0.7818608E-02  0.1332614E+00
          2   -1    0    0  501    0  0.00000000000E+00  0.00000000000E+00  0.14835504265E+02  0.14835504484E+02  0.25500000000E-02 0. -1.
         -1   -1    0    0    0  501 -0.00000000000E+00 -0.00000000000E+00 -0.10452598158E+03  0.10452598171E+03  0.50400000000E-02 0.  1.
         24    2    1    2    0    0  0.00000000000E+00 -0.17763568394E-14 -0.89690477319E+02  0.11936148619E+03  0.78757746690E+02 0.  0.
         66    2    3    3    0    0  0.33811442647E+02 -0.11114403559E+02 -0.19426013043E+02  0.40596965468E+02  0.20000005422E+01 0.  0.
        -13    1    3    3    0    0 -0.33811442647E+02  0.11114403559E+02 -0.70264464276E+02  0.78764520721E+02  0.10566000000E+00 0.  1.
         13    1    4    4    0    0  0.18107295038E+02 -0.64512880935E+01 -0.10266250812E+02  0.21792207815E+02  0.10566000000E+00 0. -1.
        -13    1    4    4    0    0  0.69110493077E+00 -0.41529370080E+00 -0.33406906366E+00  0.87912516637E+00  0.10566000000E+00 0.  1.
        -14    1    4    4    0    0  0.15013042678E+02 -0.42478217647E+01 -0.88256931664E+01  0.17925632487E+02  0.00000000000E+00 0.  1.
<mgrwt>
<rscale>  0 0.78757747E+02</rscale>
<asrwt>0</asrwt>
<pdfrwt beam="1">  1        2 0.22823854E-02 0.78757747E+02</pdfrwt>
<pdfrwt beam="2">  1       -1 0.16080920E-01 0.78757747E+02</pdfrwt>
<totfact> 0.12208194E+05</totfact>
</mgrwt>
</event>
<event>
 8    1  0.2561077E-016  0.7983561E+02  0.7818608E-02  0.1329519E+00
          2   -1    0    0  501    0  0.00000000000E+00  0.00000000000E+00  0.46160021955E+01  0.46160028999E+01  0.25500000000E-02 0. -1.
         -1   -1    0    0    0  501 -0.00000000000E+00 -0.00000000000E+00 -0.34519723923E+03  0.34519723927E+03  0.50400000000E-02 0.  1.
         24    2    1    2    0    0 -0.17763568394E-14  0.00000000000E+00 -0.34058123704E+03  0.34981324217E+03  0.79835614705E+02 0.  0.
         66    2    3    3    0    0  0.13486136197E+02  0.16935141856E+02 -0.31721589644E+03  0.31796006015E+03  0.20000000378E+01 0.  0.
        -13    1    3    3    0    0 -0.13486136197E+02 -0.16935141856E+02 -0.23365340598E+02  0.31853182015E+02  0.10566000000E+00 0.  1.
         13    1    4    4    0    0  0.61256999522E+01  0.91539891176E+01 -0.16478277961E+03  0.16515052327E+03  0.10566000000E+00 0. -1.
        -13    1    4    4    0    0  0.56100733967E+01  0.58347545648E+01 -0.11742075542E+03  0.11769945731E+03  0.10566000000E+00 0.  1.
         14    1    4    4    0    0  0.17503628479E+01  0.19463981738E+01 -0.35012361409E+02  0.35110079569E+02  0.00000000000E+00 0. -1.
<mgrwt>
<rscale>  0 0.79835615E+02</rscale>
<asrwt>0</asrwt>
<pdfrwt beam="1">  1        2 0.71015451E-03 0.79835615E+02</pdfrwt>
<pdfrwt beam="2">  1       -1 0.53107248E-01 0.79835615E+02</pdfrwt>
<totfact> 0.81817957E+04</totfact>
</mgrwt>
</event>
<event>
 8    1  0.2561077E-016  0.7958566E+02  0.7818608E-02  0.1330231E+00
          2   -1    0    0  501    0  0.00000000000E+00  0.00000000000E+00  0.25553626305E+02  0.25553626432E+02  0.25500000000E-02 0. -1.
         -1   -1    0    0    0  501 -0.00000000000E+00 -0.00000000000E+00 -0.61966513678E+02  0.61966513883E+02  0.50400000000E-02 0.  1.
         24    2    1    2    0    0  0.71054273576E-14  0.00000000000E+00 -0.36412887373E+02  0.87520140315E+02  0.79585655704E+02 0.  0.
         66    2    3    3    0    0 -0.35947268599E+02 -0.23602553067E+01  0.30431444533E+00  0.36081429228E+02  0.20000007587E+01 0.  0.
        -13    1    3    3    0    0  0.35947268599E+02  0.23602553067E+01 -0.36717201818E+02  0.51438711086E+02  0.10566000000E+00 0.  1.
         13    1    4    4    0    0 -0.21017767729E+02 -0.17161712226E+01  0.71854928986E+00  0.21100219930E+02  0.10566000000E+00 0. -1.
        -13    1    4    4    0    0 -0.14046886547E+02 -0.74244307815E+00 -0.57527297179E+00  0.14078648601E+02  0.10566000000E+00 0.  1.
        -14    1    4    4    0    0 -0.88261432241E+00  0.98358994001E-01  0.16103812726E+00  0.90256069727E+00  0.00000000000E+00 0.  1.
<mgrwt>
<rscale>  0 0.79585656E+02</rscale>
<asrwt>0</asrwt>
<pdfrwt beam="1">  1        2 0.39313272E-02 0.79585656E+02</pdfrwt>
<pdfrwt beam="2">  1       -1 0.95333098E-02 0.79585656E+02</pdfrwt>
<totfact> 0.13229357E+05</totfact>
</mgrwt>
</event>
<event>
 8    1  0.2561077E-016  0.8144602E+02  0.7818608E-02  0.1324997E+00
         -1   -1    0    0    0  501 -0.00000000000E+00  0.00000000000E+00  0.20483424196E+03  0.20483424202E+03  0.50400000000E-02 0.  1.
          2   -1    0    0  501    0  0.00000000000E+00 -0.00000000000E+00 -0.80961251875E+01  0.80961255891E+01  0.25500000000E-02 0. -1.
         24    2    1    2    0    0  0.35527136788E-14  0.00000000000E+00  0.19673811677E+03  0.21293036761E+03  0.81446024211E+02 0.  0.
         66    2    3    3    0    0  0.29733917377E+02  0.18303496844E+02  0.15309519536E+03  0.15703904813E+03  0.19999893498E+01 0.  0.
        -13    1    3    3    0    0 -0.29733917377E+02 -0.18303496844E+02  0.43642921410E+02  0.55891319474E+02  0.10566000000E+00 0.  1.
         13    1    4    4    0    0  0.14257085509E+02  0.86045798484E+01  0.72158406479E+02  0.74055047574E+02  0.10566000000E+00 0. -1.
        -13    1    4    4    0    0  0.40380612497E+01  0.21364622954E+01  0.18039413292E+02  0.18609191432E+02  0.10566000000E+00 0.  1.
         14    1    4    4    0    0  0.11438770619E+02  0.75624547003E+01  0.62897375589E+02  0.64374809129E+02  0.00000000000E+00 0. -1.
<mgrwt>
<rscale>  0 0.81446024E+02</rscale>
<asrwt>0</asrwt>
<pdfrwt beam="1">  1        2 0.12455576E-02 0.81446024E+02</pdfrwt>
<pdfrwt beam="2">  1       -1 0.31512965E-01 0.81446024E+02</pdfrwt>
<totfact> 0.94469960E+04</totfact>
</mgrwt>
</event>
<event>
 8    1  0.2561077E-016  0.7959867E+02  0.7818608E-02  0.1330194E+00
         -1   -1    0    0    0  501 -0.00000000000E+00  0.00000000000E+00  0.13397790357E+02  0.13397791305E+02  0.50400000000E-02 0.  1.
          2   -1    0    0  501    0  0.00000000000E+00 -0.00000000000E+00 -0.11822746971E+03  0.11822746973E+03  0.25500000000E-02 0. -1.
         24    2    1    2    0    0 -0.17763568394E-14 -0.35527136788E-14 -0.10482967935E+03  0.13162526104E+03  0.79598666264E+02 0.  0.
         66    2    3    3    0    0  0.85562269043E+01  0.28718598046E+02 -0.95695863838E+02  0.10029788256E+03  0.19999993532E+01 0.  0.
        -13    1    3    3    0    0 -0.85562269043E+01 -0.28718598046E+02 -0.91338155105E+01  0.31327378480E+02  0.10566000000E+00 0.  1.
         13    1    4    4    0    0  0.58149524501E+01  0.18327085582E+02 -0.62730692695E+02  0.65611330637E+02  0.10566000000E+00 0. -1.
        -13    1    4    4    0    0  0.21122084627E+01  0.86424247948E+01 -0.28259323937E+02  0.29626904738E+02  0.10566000000E+00 0.  1.
        -14    1    4    4    0    0  0.62906599157E+00  0.17490876698E+01 -0.47058472061E+01  0.50596471839E+01  0.00000000000E+00 0.  1.
<mgrwt>
<rscale>  0 0.79598666E+02</rscale>
<asrwt>0</asrwt>
<pdfrwt beam="1">  1        2 0.18188841E-01 0.79598666E+02</pdfrwt>
<pdfrwt beam="2">  1       -1 0.20611987E-02 0.79598666E+02</pdfrwt>
<totfact> 0.18855001E+05</totfact>
</mgrwt>
</event>
<event>
 8    1  0.2561077E-016  0.8038168E+02  0.7818608E-02  0.1327972E+00
         -1   -1    0    0    0  501 -0.00000000000E+00  0.00000000000E+00  0.34552604249E+01  0.34552641007E+01  0.50400000000E-02 0.  1.
          2   -1    0    0  501    0  0.00000000000E+00 -0.00000000000E+00 -0.46749085672E+03  0.46749085673E+03  0.25500000000E-02 0. -1.
         24    2    1    2    0    0  0.35527136788E-14  0.00000000000E+00 -0.46403559630E+03  0.47094612083E+03  0.80381677600E+02 0.  0.
         66    2    3    3    0    0  0.28645874599E+02  0.87599839013E+01 -0.38893109290E+03  0.39008809066E+03  0.19999988889E+01 0.  0.
        -13    1    3    3    0    0 -0.28645874599E+02 -0.87599839013E+01 -0.75104503396E+02  0.80858030176E+02  0.10566000000E+00 0.  1.
         13    1    4    4    0    0  0.42979792911E+01  0.11159199869E+01 -0.54312515606E+02  0.54493838358E+02  0.10566000000E+00 0. -1.
        -13    1    4    4    0    0  0.24071643763E+02  0.76118471170E+01 -0.33256526329E+03  0.33352218781E+03  0.10566000000E+00 0.  1.
        -14    1    4    4    0    0  0.27625154459E+00  0.32216797444E-01 -0.20533140110E+01  0.20720644936E+01  0.00000000000E+00 0.  1.
<mgrwt>
<rscale>  0 0.80381678E+02</rscale>
<asrwt>0</asrwt>
<pdfrwt beam="1">  1        2 0.71921620E-01 0.80381678E+02</pdfrwt>
<pdfrwt beam="2">  1       -1 0.53157918E-03 0.80381678E+02</pdfrwt>
<totfact> 0.29426647E+05</totfact>
</mgrwt>
</event>
<event>
 8    1  0.2561077E-016  0.7658312E+02  0.7818608E-02  0.1339038E+00
         -1   -1    0    0    0  501 -0.00000000000E+00  0.00000000000E+00  0.49332871349E+01  0.49332897094E+01  0.50400000000E-02 0.  1.
          2   -1    0    0  501    0  0.00000000000E+00 -0.00000000000E+00 -0.29721420228E+03  0.29721420229E+03  0.25500000000E-02 0. -1.
         24    2    1    2    0    0  0.00000000000E+00  0.00000000000E+00 -0.29228091514E+03  0.30214749200E+03  0.76583115398E+02 0.  0.
         66    2    3    3    0    0  0.18456978825E+02  0.14573691946E+02 -0.26533373511E+03  0.26638138737E+03  0.19999969866E+01 0.  0.
        -13    1    3    3    0    0 -0.18456978825E+02 -0.14573691946E+02 -0.26947180037E+02  0.35766104628E+02  0.10566000000E+00 0.  1.
         13    1    4    4    0    0  0.14922527619E+02  0.11907896721E+02 -0.21028426758E+03  0.21114915152E+03  0.10566000000E+00 0. -1.
        -13    1    4    4    0    0  0.64568288526E+00  0.86814212669E+00 -0.13239007839E+02  0.13283563894E+02  0.10566000000E+00 0. -1.
         14    1    4    4    0    0  0.28887683200E+01  0.17976530984E+01 -0.41810459693E+02  0.41948671955E+02  0.00000000000E+00 0. -1.
<mgrwt>
<rscale>  0 0.76583115E+02</rscale>
<asrwt>0</asrwt>
<pdfrwt beam="1">  1        2 0.45725248E-01 0.76583115E+02</pdfrwt>
<pdfrwt beam="2">  1       -1 0.75896768E-03 0.76583115E+02</pdfrwt>
<totfact> 0.28482536E+05</totfact>
</mgrwt>
</event>
<event>
 8    1  0.2561077E-016  0.8201098E+02  0.7818608E-02  0.1323440E+00
         -1   -1    0    0    0  501 -0.00000000000E+00  0.00000000000E+00  0.20770933606E+02  0.20770934217E+02  0.50400000000E-02 0.  1.
          2   -1    0    0  501    0  0.00000000000E+00 -0.00000000000E+00 -0.80952078360E+02  0.80952078400E+02  0.25500000000E-02 0. -1.
         24    2    1    2    0    0  0.00000000000E+00  0.00000000000E+00 -0.60181144754E+02  0.10172301262E+03  0.82010981655E+02 0.  0.
         66    2    3    3    0    0  0.30948672413E+02  0.21797597829E+02 -0.49582032908E+02  0.62412607745E+02  0.20000057511E+01 0.  0.
        -13    1    3    3    0    0 -0.30948672413E+02 -0.21797597829E+02 -0.10599111846E+02  0.39310404872E+02  0.10566000000E+00 0.  1.
         13    1    4    4    0    0  0.11842214627E+02  0.81854049397E+01 -0.17819471358E+02  0.22908156295E+02  0.10566000000E+00 0. -1.
        -13    1    4    4    0    0  0.15486140724E+02  0.11239274159E+02 -0.26593808595E+02  0.32762534362E+02  0.10566000000E+00 0.  1.
        -14    1    4    4    0    0  0.36203170615E+01  0.23729187301E+01 -0.51687529545E+01  0.67419170886E+01  0.00000000000E+00 0.  1.
<mgrwt>
<rscale>  0 0.82010982E+02</rscale>
<asrwt>0</asrwt>
<pdfrwt beam="1">  1        2 0.12454166E-01 0.82010982E+02</pdfrwt>
<pdfrwt beam="2">  1       -1 0.31955284E-02 0.82010982E+02</pdfrwt>
<totfact> 0.15661163E+05</totfact>
</mgrwt>
</event>
<event>
 8    1  0.2561077E-016  0.7991582E+02  0.7818608E-02  0.1329291E+00
          2   -1    0    0  501    0  0.00000000000E+00  0.00000000000E+00  0.17102831240E+03  0.17102831242E+03  0.25500000000E-02 0. -1.
         -1   -1    0    0    0  501 -0.00000000000E+00 -0.00000000000E+00 -0.93354973887E+01  0.93354987492E+01  0.50400000000E-02 0.  1.
         24    2    1    2    0    0 -0.88817841970E-15  0.00000000000E+00  0.16169281501E+03  0.18036381117E+03  0.79915817914E+02 0.  0.
         66    2    3    3    0    0 -0.73539439796E+01  0.33181012548E+02  0.12821533997E+03  0.13265833365E+03  0.19999995940E+01 0.  0.
        -13    1    3    3    0    0  0.73539439796E+01 -0.33181012548E+02  0.33477475042E+02  0.47705477516E+02  0.10566000000E+00 0.  1.
         13    1    4    4    0    0 -0.25535290134E+01  0.15487649376E+02  0.59701500675E+02  0.61730609430E+02  0.10566000000E+00 0. -1.
        -13    1    4    4    0    0 -0.53341149371E+00  0.13997289352E+01  0.53406646671E+01  0.55477591905E+01  0.10566000000E+00 0. -1.
        -14    1    4    4    0    0 -0.42670034725E+01  0.16293634236E+02  0.63173174629E+02  0.65379965035E+02  0.00000000000E+00 0.  1.
<mgrwt>
<rscale>  0 0.79915818E+02</rscale>
<asrwt>0</asrwt>
<pdfrwt beam="1">  1        2 0.26312049E-01 0.79915818E+02</pdfrwt>
<pdfrwt beam="2">  1       -1 0.14362304E-02 0.79915818E+02</pdfrwt>
<totfact> 0.20969726E+05</totfact>
</mgrwt>
</event>
<event>
 8    1  0.2561077E-016  0.7887325E+02  0.7818608E-02  0.1332280E+00
         -1   -1    0    0    0  501 -0.00000000000E+00  0.00000000000E+00  0.14893926004E+02  0.14893926856E+02  0.50400000000E-02 0.  1.
          2   -1    0    0  501    0  0.00000000000E+00 -0.00000000000E+00 -0.10442158523E+03  0.10442158527E+03  0.25500000000E-02 0. -1.
         24    2    1    2    0    0 -0.44408920985E-15  0.17763568394E-14 -0.89527659231E+02  0.11931551212E+03  0.78873250634E+02 0.  0.
         66    2    3    3    0    0 -0.34983036740E+01  0.11792816052E+02 -0.10143353384E+03  0.10219623488E+03  0.19999996297E+01 0.  0.
        -13    1    3    3    0    0  0.34983036740E+01 -0.11792816052E+02  0.11905874606E+02  0.17119277239E+02  0.10566000000E+00 0.  1.
         13    1    4    4    0    0 -0.92181252333E+00  0.19774674113E+01 -0.19745149053E+02  0.19865603209E+02  0.10566000000E+00 0. -1.
        -13    1    4    4    0    0 -0.53625395175E+00  0.26627131701E+01 -0.27533046606E+02  0.27666901330E+02  0.10566000000E+00 0.  1.
        -14    1    4    4    0    0 -0.20402371989E+01  0.71526354705E+01 -0.54155338178E+02  0.54663730344E+02  0.00000000000E+00 0.  1.
<mgrwt>
<rscale>  0 0.78873251E+02</rscale>
<asrwt>0</asrwt>
<pdfrwt beam="1">  1        2 0.16064859E-01 0.78873251E+02</pdfrwt>
<pdfrwt beam="2">  1       -1 0.22913734E-02 0.78873251E+02</pdfrwt>
<totfact> 0.18637158E+05</totfact>
</mgrwt>
</event>
<event>
 8    1  0.2561077E-016  0.7998022E+02  0.7818608E-02  0.1329108E+00
         -1   -1    0    0    0  501 -0.00000000000E+00  0.00000000000E+00  0.97582170873E+00  0.97583472414E+00  0.50400000000E-02 0.  1.
          2   -1    0    0  501    0  0.00000000000E+00 -0.00000000000E+00 -0.16388220486E+04  0.16388220486E+04  0.25500000000E-02 0. -1.
         24    2    1    2    0    0  0.00000000000E+00  0.55511151231E-16 -0.16378462269E+04  0.16397978834E+04  0.79980217673E+02 0.  0.
         66    2    3    3    0    0 -0.12134052155E+02  0.22884038460E+00 -0.16001248118E+04  0.16001720847E+04  0.20000007264E+01 0.  0.
        -13    1    3    3    0    0  0.12134052155E+02 -0.22884038460E+00 -0.37721415161E+02  0.39625798610E+02  0.10566000000E+00 0.  1.
         13    1    4    4    0    0 -0.20207234996E+01  0.13093069959E+00 -0.35327129468E+03  0.35327711400E+03  0.10566000000E+00 0. -1.
        -13    1    4    4    0    0 -0.12370252716E+01 -0.31653431137E+00 -0.15502899979E+03  0.15503429416E+03  0.10566000000E+00 0.  1.
         14    1    4    4    0    0 -0.88763033842E+01  0.41444399638E+00 -0.10918245173E+04  0.10918606766E+04  0.00000000000E+00 0. -1.
<mgrwt>
<rscale>  0 0.79980218E+02</rscale>
<asrwt>0</asrwt>
<pdfrwt beam="1">  1        2 0.25212427E+00 0.79980218E+02</pdfrwt>
<pdfrwt beam="2">  1       -1 0.15012873E-03 0.79980218E+02</pdfrwt>
<totfact> 0.31990669E+05</totfact>
</mgrwt>
</event>
<event>
 8    1  0.2561077E-016  0.7958775E+02  0.7818608E-02  0.1330225E+00
          2   -1    0    0  501    0  0.00000000000E+00  0.00000000000E+00  0.27900973992E+02  0.27900974108E+02  0.25500000000E-02 0. -1.
         -1   -1    0    0    0  501 -0.00000000000E+00 -0.00000000000E+00 -0.56756175620E+02  0.56756175844E+02  0.50400000000E-02 0.  1.
         24    2    1    2    0    0  0.00000000000E+00  0.00000000000E+00 -0.28855201629E+02  0.84657149953E+02  0.79587752682E+02 0.  0.
         66    2    3    3    0    0 -0.78428714652E+01  0.35621627375E+02  0.24200102284E+01  0.36609662917E+02  0.19999999368E+01 0.  0.
        -13    1    3    3    0    0  0.78428714652E+01 -0.35621627375E+02 -0.31275211857E+02  0.48047487035E+02  0.10566000000E+00 0.  1.
         13    1    4    4    0    0 -0.23385118907E+01  0.11727290246E+02  0.10675640240E+01  0.12006199705E+02  0.10566000000E+00 0. -1.
        -13    1    4    4    0    0 -0.20388485977E+01  0.96661196316E+01  0.12566592741E+01  0.99589722815E+01  0.10566000000E+00 0.  1.
         14    1    4    4    0    0 -0.34655109769E+01  0.14228217498E+02  0.95786930297E-01  0.14644490931E+02  0.00000000000E+00 0. -1.
<mgrwt>
<rscale>  0 0.79587753E+02</rscale>
<asrwt>0</asrwt>
<pdfrwt beam="1">  1        2 0.42924575E-02 0.79587753E+02</pdfrwt>
<pdfrwt beam="2">  1       -1 0.87317194E-02 0.79587753E+02</pdfrwt>
<totfact> 0.13458426E+05</totfact>
</mgrwt>
</event>
<event>
 8    1  0.2561077E-016  0.8007911E+02  0.7818608E-02  0.1328827E+00
          2   -1    0    0  501    0  0.00000000000E+00  0.00000000000E+00  0.75630595466E+03  0.75630595467E+03  0.25500000000E-02 0. -1.
         -1   -1    0    0    0  501 -0.00000000000E+00 -0.00000000000E+00 -0.21197288485E+01  0.21197348402E+01  0.50400000000E-02 0.  1.
         24    2    1    2    0    0  0.00000000000E+00  0.00000000000E+00  0.75418622582E+03  0.75842568951E+03  0.80079106493E+02 0.  0.
         66    2    3    3    0    0 -0.15742252805E+02 -0.23084423352E+02  0.64860927283E+03  0.64921390768E+03  0.19999991350E+01 0.  0.
        -13    1    3    3    0    0  0.15742252805E+02  0.23084423352E+02  0.10557695298E+03  0.10921178183E+03  0.10566000000E+00 0.  1.
         13    1    4    4    0    0 -0.13411989110E+02 -0.19995848199E+02  0.56531432623E+03  0.56582684101E+03  0.10566000000E+00 0. -1.
        -13    1    4    4    0    0 -0.95697785951E+00 -0.17370861397E+01  0.44521629642E+02  0.44565905633E+02  0.10566000000E+00 0.  1.
         14    1    4    4    0    0 -0.13732858347E+01 -0.13514890137E+01  0.38773316959E+02  0.38821161041E+02  0.00000000000E+00 0. -1.
<mgrwt>
<rscale>  0 0.80079106E+02</rscale>
<asrwt>0</asrwt>
<pdfrwt beam="1">  1        2 0.11635492E+00 0.80079106E+02</pdfrwt>
<pdfrwt beam="2">  1       -1 0.32611215E-03 0.80079106E+02</pdfrwt>
<totfact> 0.33922382E+05</totfact>
</mgrwt>
</event>
<event>
 8    1  0.2561077E-016  0.7998751E+02  0.7818608E-02  0.1329087E+00
         -1   -1    0    0    0  501 -0.00000000000E+00  0.00000000000E+00  0.41439637662E+01  0.41439668311E+01  0.50400000000E-02 0.  1.
          2   -1    0    0  501    0  0.00000000000E+00 -0.00000000000E+00 -0.38598311146E+03  0.38598311147E+03  0.25500000000E-02 0. -1.
         24    2    1    2    0    0 -0.88817841970E-15  0.00000000000E+00 -0.38183914770E+03  0.39012707830E+03  0.79987514720E+02 0.  0.
         66    2    3    3    0    0  0.67332426741E+01  0.33317201352E+02 -0.29359329751E+03  0.29556115578E+03  0.20000004525E+01 0.  0.
        -13    1    3    3    0    0 -0.67332426741E+01 -0.33317201352E+02 -0.88245850184E+02  0.94565922517E+02  0.10566000000E+00 0.  1.
         13    1    4    4    0    0  0.11462818778E+01  0.37650865778E+01 -0.32357121961E+02  0.32595771885E+02  0.10566000000E+00 0. -1.
        -13    1    4    4    0    0 -0.46007382331E-02  0.10527899925E+01 -0.10251838283E+02  0.10306296141E+02  0.10566000000E+00 0.  1.
         14    1    4    4    0    0  0.55915615346E+01  0.28499324782E+02 -0.25098433727E+03  0.25265908776E+03  0.00000000000E+00 0. -1.
<mgrwt>
<rscale>  0 0.79987515E+02</rscale>
<asrwt>0</asrwt>
<pdfrwt beam="1">  1        2 0.59381989E-01 0.79987515E+02</pdfrwt>
<pdfrwt beam="2">  1       -1 0.63753343E-03 0.79987515E+02</pdfrwt>
<totfact> 0.27913288E+05</totfact>
</mgrwt>
</event>
<event>
 8    1  0.2561077E-016  0.8138575E+02  0.7818608E-02  0.1325164E+00
          2   -1    0    0  501    0  0.00000000000E+00  0.00000000000E+00  0.55383970111E+03  0.55383970112E+03  0.25500000000E-02 0. -1.
         -1   -1    0    0    0  501 -0.00000000000E+00 -0.00000000000E+00 -0.29898702266E+01  0.29898744746E+01  0.50400000000E-02 0.  1.
         24    2    1    2    0    0  0.71054273576E-14  0.00000000000E+00  0.55084983089E+03  0.55682957559E+03  0.81385748556E+02 0.  0.
         66    2    3    3    0    0 -0.34307649060E+02  0.19980678779E+02  0.33588563305E+03  0.33822980472E+03  0.20000015204E+01 0.  0.
        -13    1    3    3    0    0  0.34307649060E+02 -0.19980678779E+02  0.21496419784E+03  0.21859977087E+03  0.10566000000E+00 0.  1.
         13    1    4    4    0    0 -0.11246040797E+02  0.65068741263E+01  0.10471848704E+03  0.10552149324E+03  0.10566000000E+00 0. -1.
        -13    1    4    4    0    0 -0.15690910476E+02  0.94927405752E+01  0.16293490185E+03  0.16396374660E+03  0.10566000000E+00 0.  1.
        -14    1    4    4    0    0 -0.73706977872E+01  0.39810640771E+01  0.68232244162E+02  0.68744564879E+02  0.00000000000E+00 0.  1.
<mgrwt>
<rscale>  0 0.81385749E+02</rscale>
<asrwt>0</asrwt>
<pdfrwt beam="1">  1        2 0.85206134E-01 0.81385749E+02</pdfrwt>
<pdfrwt beam="2">  1       -1 0.45998022E-03 0.81385749E+02</pdfrwt>
<totfact> 0.30052934E+05</totfact>
</mgrwt>
</event>
<event>
 8    1  0.2561077E-016  0.8027172E+02  0.7818608E-02  0.1328282E+00
          2   -1    0    0  501    0  0.00000000000E+00  0.00000000000E+00  0.43857155682E+03  0.43857155683E+03  0.25500000000E-02 0. -1.
         -1   -1    0    0    0  501 -0.00000000000E+00 -0.00000000000E+00 -0.36730303266E+01  0.36730337845E+01  0.50400000000E-02 0.  1.
         24    2    1    2    0    0  0.00000000000E+00 -0.71054273576E-14  0.43489852649E+03  0.44224459061E+03  0.80271723411E+02 0.  0.
         66    2    3    3    0    0 -0.65884749021E+01 -0.30711827949E+02  0.35501503149E+03  0.35640748724E+03  0.19999996658E+01 0.  0.
        -13    1    3    3    0    0  0.65884749021E+01  0.30711827949E+02  0.79883495005E+02  0.85837103375E+02  0.10566000000E+00 0.  1.
         13    1    4    4    0    0 -0.29706239652E+01 -0.14339762063E+02  0.16976261612E+03  0.17039310543E+03  0.10566000000E+00 0. -1.
        -13    1    4    4    0    0 -0.76270141598E+00 -0.34424989184E+01  0.45191591935E+02  0.45329059751E+02  0.10566000000E+00 0.  1.
         14    1    4    4    0    0 -0.28551495209E+01 -0.12929566967E+02  0.14006082343E+03  0.14068532205E+03  0.00000000000E+00 0. -1.
<mgrwt>
<rscale>  0 0.80271723E+02</rscale>
<asrwt>0</asrwt>
<pdfrwt beam="1">  1        2 0.67472552E-01 0.80271723E+02</pdfrwt>
<pdfrwt beam="2">  1       -1 0.56508181E-03 0.80271723E+02</pdfrwt>
<totfact> 0.28907299E+05</totfact>
</mgrwt>
</event>
<event>
 8    1  0.2561077E-016  0.8142650E+02  0.7818608E-02  0.1325051E+00
         -1   -1    0    0    0  501 -0.00000000000E+00  0.00000000000E+00  0.54664321948E+01  0.54664345182E+01  0.50400000000E-02 0.  1.
          2   -1    0    0  501    0  0.00000000000E+00 -0.00000000000E+00 -0.30322674852E+03  0.30322674853E+03  0.25500000000E-02 0. -1.
         24    2    1    2    0    0  0.88817841970E-15  0.35527136788E-14 -0.29776031632E+03  0.30869318304E+03  0.81426502336E+02 0.  0.
         66    2    3    3    0    0 -0.71351765210E+01 -0.31850053124E+02 -0.24107211001E+03  0.24327987762E+03  0.20000004115E+01 0.  0.
        -13    1    3    3    0    0  0.71351765210E+01  0.31850053124E+02 -0.56688206313E+02  0.65413305428E+02  0.10566000000E+00 0.  1.
         13    1    4    4    0    0 -0.20297542608E+01 -0.62985115463E+01 -0.48932350263E+02  0.49377902106E+02  0.10566000000E+00 0.  1.
        -13    1    4    4    0    0 -0.93042417969E+00 -0.54014248528E+01 -0.37247452380E+02  0.37648704525E+02  0.10566000000E+00 0. -1.
        -14    1    4    4    0    0 -0.41749980804E+01 -0.20150116725E+02 -0.15489230736E+03  0.15625327099E+03  0.00000000000E+00 0.  1.
<mgrwt>
<rscale>  0 0.81426502E+02</rscale>
<asrwt>0</asrwt>
<pdfrwt beam="1">  1        2 0.46650256E-01 0.81426502E+02</pdfrwt>
<pdfrwt beam="2">  1       -1 0.84098999E-03 0.81426502E+02</pdfrwt>
<totfact> 0.24433690E+05</totfact>
</mgrwt>
</event>
<event>
 8    1  0.2561077E-016  0.7967889E+02  0.7818608E-02  0.1329965E+00
          2   -1    0    0  501    0  0.00000000000E+00  0.00000000000E+00  0.69882261781E+01  0.69882266433E+01  0.25500000000E-02 0. -1.
         -1   -1    0    0    0  501 -0.00000000000E+00 -0.00000000000E+00 -0.22712217979E+03  0.22712217984E+03  0.50400000000E-02 0.  1.
         24    2    1    2    0    0  0.00000000000E+00  0.00000000000E+00 -0.22013395361E+03  0.23411040649E+03  0.79678886122E+02 0.  0.
         66    2    3    3    0    0  0.35162776091E+02  0.17842097179E+02 -0.93932159996E+02  0.10189215839E+03  0.20000014951E+01 0.  0.
        -13    1    3    3    0    0 -0.35162776091E+02 -0.17842097179E+02 -0.12620179361E+03  0.13221824810E+03  0.10566000000E+00 0.  1.
         13    1    4    4    0    0  0.36434946419E+01  0.22154427139E+01 -0.99917333042E+01  0.10864121597E+02  0.10566000000E+00 0. -1.
        -13    1    4    4    0    0  0.98177281860E+01  0.54605717760E+01 -0.25531997711E+02  0.27894438550E+02  0.10566000000E+00 0.  1.
        -14    1    4    4    0    0  0.21701553263E+02  0.10166082689E+02 -0.58408428981E+02  0.63133598244E+02  0.00000000000E+00 0.  1.
<mgrwt>
<rscale>  0 0.79678886E+02</rscale>
<asrwt>0</asrwt>
<pdfrwt beam="1">  1        2 0.10751119E-02 0.79678886E+02</pdfrwt>
<pdfrwt beam="2">  1       -1 0.34941868E-01 0.79678886E+02</pdfrwt>
<totfact> 0.96672300E+04</totfact>
</mgrwt>
</event>
<event>
 8    1  0.2561077E-016  0.8148715E+02  0.7818608E-02  0.1324883E+00
          2   -1    0    0  501    0  0.00000000000E+00  0.00000000000E+00  0.11940308170E+03  0.11940308173E+03  0.25500000000E-02 0. -1.
         -1   -1    0    0    0  501 -0.00000000000E+00 -0.00000000000E+00 -0.13902812605E+02  0.13902813518E+02  0.50400000000E-02 0.  1.
         24    2    1    2    0    0 -0.35527136788E-14  0.00000000000E+00  0.10550026910E+03  0.13330589525E+03  0.81487145785E+02 0.  0.
         66    2    3    3    0    0 -0.21436345724E+02  0.25333786959E+02  0.91380917919E+02  0.97240885593E+02  0.19999978828E+01 0.  0.
        -13    1    3    3    0    0  0.21436345724E+02 -0.25333786959E+02  0.14119351180E+02  0.36065009656E+02  0.10566000000E+00 0.  1.
         13    1    4    4    0    0 -0.13141656297E+02  0.15799237237E+02  0.54516885978E+02  0.58261660191E+02  0.10566000000E+00 0. -1.
        -13    1    4    4    0    0 -0.55525677655E+01  0.66878150236E+01  0.26339141282E+02  0.27736607689E+02  0.10566000000E+00 0.  1.
        -14    1    4    4    0    0 -0.27421216613E+01  0.28467346992E+01  0.10524890659E+02  0.11242617713E+02  0.00000000000E+00 0.  1.
<mgrwt>
<rscale>  0 0.81487146E+02</rscale>
<asrwt>0</asrwt>
<pdfrwt beam="1">  1        2 0.18369705E-01 0.81487146E+02</pdfrwt>
<pdfrwt beam="2">  1       -1 0.21388943E-02 0.81487146E+02</pdfrwt>
<totfact> 0.17763334E+05</totfact>
</mgrwt>
</event>
<event>
 8    1  0.2561077E-016  0.7947770E+02  0.7818608E-02  0.1330540E+00
         -1   -1    0    0    0  501 -0.00000000000E+00  0.00000000000E+00  0.57052244248E+02  0.57052244470E+02  0.50400000000E-02 0.  1.
          2   -1    0    0  501    0  0.00000000000E+00 -0.00000000000E+00 -0.27679478250E+02  0.27679478368E+02  0.25500000000E-02 0. -1.
         24    2    1    2    0    0 -0.71054273576E-14  0.88817841970E-15  0.29372765997E+02  0.84731722838E+02  0.79477704250E+02 0.  0.
         66    2    3    3    0    0  0.36937204136E+02  0.71217745262E+01  0.11223672859E+01  0.37687351090E+02  0.20000005145E+01 0.  0.
        -13    1    3    3    0    0 -0.36937204136E+02 -0.71217745262E+01  0.28250398711E+02  0.47044371748E+02  0.10566000000E+00 0.  1.
         13    1    4    4    0    0  0.24477617035E+02  0.45706396411E+01 -0.31091742752E-01  0.24900935990E+02  0.10566000000E+00 0. -1.
        -13    1    4    4    0    0  0.11934752487E+02  0.25683796819E+01  0.10787422895E+01  0.12256008325E+02  0.10566000000E+00 0.  1.
        -14    1    4    4    0    0  0.52483461468E+00 -0.17244796799E-01  0.74716739164E-01  0.53040677493E+00  0.00000000000E+00 0.  1.
<mgrwt>
<rscale>  0 0.79477704E+02</rscale>
<asrwt>0</asrwt>
<pdfrwt beam="1">  1        2 0.42583813E-02 0.79477704E+02</pdfrwt>
<pdfrwt beam="2">  1       -1 0.87772684E-02 0.79477704E+02</pdfrwt>
<totfact> 0.13489807E+05</totfact>
</mgrwt>
</event>
<event>
 8    1  0.2561077E-016  0.7899833E+02  0.7818608E-02  0.1331918E+00
         -1   -1    0    0    0  501 -0.00000000000E+00  0.00000000000E+00  0.12676988139E+02  0.12676989141E+02  0.50400000000E-02 0.  1.
          2   -1    0    0  501    0  0.00000000000E+00 -0.00000000000E+00 -0.12307212850E+03  0.12307212852E+03  0.25500000000E-02 0. -1.
         24    2    1    2    0    0  0.00000000000E+00 -0.35527136788E-14 -0.11039514036E+03  0.13574911767E+03  0.78998328666E+02 0.  0.
         66    2    3    3    0    0 -0.26094120968E+02  0.17004117802E+02 -0.96906155303E+02  0.10180788827E+03  0.20000015180E+01 0.  0.
        -13    1    3    3    0    0  0.26094120968E+02 -0.17004117802E+02 -0.13488985056E+02  0.33941229400E+02  0.10566000000E+00 0.  1.
         13    1    4    4    0    0 -0.44862898665E+01  0.26630001130E+01 -0.18358779482E+02  0.19085971667E+02  0.10566000000E+00 0.  1.
        -13    1    4    4    0    0 -0.63769677359E+01  0.44836576656E+01 -0.24558083905E+02  0.25765860216E+02  0.10566000000E+00 0. -1.
        -14    1    4    4    0    0 -0.15230863366E+02  0.98574600232E+01 -0.53989291916E+02  0.56956056382E+02  0.00000000000E+00 0.  1.
<mgrwt>
<rscale>  0 0.78998329E+02</rscale>
<asrwt>0</asrwt>
<pdfrwt beam="1">  1        2 0.18934173E-01 0.78998329E+02</pdfrwt>
<pdfrwt beam="2">  1       -1 0.19503060E-02 0.78998329E+02</pdfrwt>
<totfact> 0.19471661E+05</totfact>
</mgrwt>
</event>
<event>
 8    1  0.2561077E-016  0.8073779E+02  0.7818608E-02  0.1326971E+00
          2   -1    0    0  501    0  0.00000000000E+00  0.00000000000E+00  0.17321200342E+03  0.17321200344E+03  0.25500000000E-02 0. -1.
         -1   -1    0    0    0  501 -0.00000000000E+00 -0.00000000000E+00 -0.94083994961E+01  0.94084008460E+01  0.50400000000E-02 0.  1.
         24    2    1    2    0    0 -0.35527136788E-14  0.00000000000E+00  0.16380360392E+03  0.18262040429E+03  0.80737794141E+02 0.  0.
         66    2    3    3    0    0 -0.28090596673E+02 -0.55555236379E+01  0.14623501227E+03  0.14902558264E+03  0.20000011383E+01 0.  0.
        -13    1    3    3    0    0  0.28090596673E+02  0.55555236379E+01  0.17568591654E+02  0.33594821641E+02  0.10566000000E+00 0.  1.
         13    1    4    4    0    0 -0.94008775653E+01 -0.18288350808E+01  0.53842822030E+02  0.54688040602E+02  0.10566000000E+00 0. -1.
        -13    1    4    4    0    0 -0.14408289121E+02 -0.27990247877E+01  0.71425680281E+02  0.72918257678E+02  0.10566000000E+00 0.  1.
         14    1    4    4    0    0 -0.42814299862E+01 -0.92766376939E+00  0.20966509960E+02  0.21419284364E+02  0.00000000000E+00 0. -1.
<mgrwt>
<rscale>  0 0.80737794E+02</rscale>
<asrwt>0</asrwt>
<pdfrwt beam="1">  1        2 0.26648001E-01 0.80737794E+02</pdfrwt>
<pdfrwt beam="2">  1       -1 0.14474462E-02 0.80737794E+02</pdfrwt>
<totfact> 0.20496147E+05</totfact>
</mgrwt>
</event>
<event>
 8    1  0.2561077E-016  0.7909373E+02  0.7818608E-02  0.1331643E+00
          2   -1    0    0  501    0  0.00000000000E+00  0.00000000000E+00  0.55898501726E+02  0.55898501784E+02  0.25500000000E-02 0. -1.
         -1   -1    0    0    0  501 -0.00000000000E+00 -0.00000000000E+00 -0.27978470343E+02  0.27978470797E+02  0.50400000000E-02 0.  1.
         24    2    1    2    0    0  0.00000000000E+00  0.00000000000E+00  0.27920031383E+02  0.83876972581E+02  0.79093731590E+02 0.  0.
         66    2    3    3    0    0 -0.12065212811E+02 -0.15976278149E+02  0.50105139597E+02  0.53993850017E+02  0.20000004855E+01 0.  0.
        -13    1    3    3    0    0  0.12065212811E+02  0.15976278149E+02 -0.22185108214E+02  0.29883122564E+02  0.10566000000E+00 0.  1.
         13    1    4    4    0    0 -0.12474548957E+01 -0.14103668674E+01  0.54065759134E+01  0.57260375096E+01  0.10566000000E+00 0. -1.
        -13    1    4    4    0    0 -0.42241558599E+01 -0.44219934020E+01  0.15263638192E+02  0.16443458677E+02  0.10566000000E+00 0.  1.
         14    1    4    4    0    0 -0.65936020554E+01 -0.10143917880E+02  0.29434925492E+02  0.31824353830E+02  0.00000000000E+00 0. -1.
<mgrwt>
<rscale>  0 0.79093732E+02</rscale>
<asrwt>0</asrwt>
<pdfrwt beam="1">  1        2 0.85997695E-02 0.79093732E+02</pdfrwt>
<pdfrwt beam="2">  1       -1 0.43043801E-02 0.79093732E+02</pdfrwt>
<totfact> 0.15799812E+05</totfact>
</mgrwt>
</event>
<event>
 8    1  0.2561077E-016  0.7844622E+02  0.7818608E-02  0.1333520E+00
         -1   -1    0    0    0  501 -0.00000000000E+00  0.00000000000E+00  0.11547068013E+02  0.11547069113E+02  0.50400000000E-02 0.  1.
          2   -1    0    0  501    0  0.00000000000E+00 -0.00000000000E+00 -0.13323314237E+03  0.13323314239E+03  0.25500000000E-02 0. -1.
         24    2    1    2    0    0 -0.17763568394E-14  0.71054273576E-14 -0.12168607436E+03  0.14478021151E+03  0.78446216938E+02 0.  0.
         66    2    3    3    0    0 -0.15564391277E+02 -0.34672050526E+02 -0.78589251981E+02  0.87319367219E+02  0.20000002565E+01 0.  0.
        -13    1    3    3    0    0  0.15564391277E+02  0.34672050526E+02 -0.43096822376E+02  0.57460844289E+02  0.10566000000E+00 0.  1.
         13    1    4    4    0    0 -0.35976117428E+01 -0.96693846620E+01 -0.20672411330E+02  0.23104102757E+02  0.10566000000E+00 0.  1.
        -13    1    4    4    0    0 -0.84538193188E+01 -0.17935559851E+02 -0.42360148636E+02  0.46771195459E+02  0.10566000000E+00 0. -1.
         14    1    4    4    0    0 -0.35129602157E+01 -0.70671060131E+01 -0.15556692016E+02  0.17444069002E+02  0.00000000000E+00 0. -1.
<mgrwt>
<rscale>  0 0.78446217E+02</rscale>
<asrwt>0</asrwt>
<pdfrwt beam="1">  1        2 0.20497405E-01 0.78446217E+02</pdfrwt>
<pdfrwt beam="2">  1       -1 0.17764722E-02 0.78446217E+02</pdfrwt>
<totfact> 0.20324739E+05</totfact>
</mgrwt>
</event>
<event>
 8    1  0.2561077E-016  0.7992431E+02  0.7818608E-02  0.1329266E+00
          2   -1    0    0  501    0  0.00000000000E+00  0.00000000000E+00  0.11058896529E+03  0.11058896532E+03  0.25500000000E-02 0. -1.
         -1   -1    0    0    0  501 -0.00000000000E+00 -0.00000000000E+00 -0.14440626551E+02  0.14440627431E+02  0.50400000000E-02 0.  1.
         24    2    1    2    0    0  0.17763568394E-14  0.00000000000E+00  0.96148338740E+02  0.12502959275E+03  0.79924314330E+02 0.  0.
         66    2    3    3    0    0 -0.97955240408E+01  0.17714162078E+02  0.10196021898E+03  0.10396937088E+03  0.19999995517E+01 0.  0.
        -13    1    3    3    0    0  0.97955240408E+01 -0.17714162078E+02 -0.58118802361E+01  0.21060221871E+02  0.10566000000E+00 0.  1.
         13    1    4    4    0    0 -0.31045924166E+01  0.47542086020E+01  0.29609596711E+02  0.30149301401E+02  0.10566000000E+00 0. -1.
        -13    1    4    4    0    0 -0.18119022009E+00  0.41311744214E+00  0.37359618122E+01  0.37645810676E+01  0.10566000000E+00 0.  1.
         14    1    4    4    0    0 -0.65097414041E+01  0.12546836034E+02  0.68614660452E+02  0.70055488412E+02  0.00000000000E+00 0. -1.
<mgrwt>
<rscale>  0 0.79924314E+02</rscale>
<asrwt>0</asrwt>
<pdfrwt beam="1">  1        2 0.17013687E-01 0.79924314E+02</pdfrwt>
<pdfrwt beam="2">  1       -1 0.22216350E-02 0.79924314E+02</pdfrwt>
<totfact> 0.18288219E+05</totfact>
</mgrwt>
</event>
<event>
 8    1  0.2561077E-016  0.7919776E+02  0.7818608E-02  0.1331344E+00
          2   -1    0    0  501    0  0.00000000000E+00  0.00000000000E+00  0.16341609621E+03  0.16341609623E+03  0.25500000000E-02 0. -1.
         -1   -1    0    0    0  501 -0.00000000000E+00 -0.00000000000E+00 -0.95955732991E+01  0.95955746227E+01  0.50400000000E-02 0.  1.
         24    2    1    2    0    0  0.35527136788E-14  0.00000000000E+00  0.15382052291E+03  0.17301167085E+03  0.79197758696E+02 0.  0.
         66    2    3    3    0    0  0.27985052914E+02  0.25334793340E+02  0.10290402101E+03  0.10962779065E+03  0.20000003648E+01 0.  0.
        -13    1    3    3    0    0 -0.27985052914E+02 -0.25334793340E+02  0.50916501895E+02  0.63383880202E+02  0.10566000000E+00 0.  1.
         13    1    4    4    0    0  0.10302855169E+02  0.97388290868E+01  0.36724898593E+02  0.39366520767E+02  0.10566000000E+00 0. -1.
        -13    1    4    4    0    0  0.24063089927E+01  0.25930556968E+01  0.97685325328E+01  0.10389882227E+02  0.10566000000E+00 0.  1.
        -14    1    4    4    0    0  0.15275888752E+02  0.13002908556E+02  0.56410589887E+02  0.59871387653E+02  0.00000000000E+00 0.  1.
<mgrwt>
<rscale>  0 0.79197759E+02</rscale>
<asrwt>0</asrwt>
<pdfrwt beam="1">  1        2 0.25140936E-01 0.79197759E+02</pdfrwt>
<pdfrwt beam="2">  1       -1 0.14762423E-02 0.79197759E+02</pdfrwt>
<totfact> 0.21154595E+05</totfact>
</mgrwt>
</event>
<event>
 8    1  0.2561077E-016  0.7871084E+02  0.7818608E-02  0.1332750E+00
          2   -1    0    0  501    0  0.00000000000E+00  0.00000000000E+00  0.14819903935E+02  0.14819904154E+02  0.25500000000E-02 0. -1.
         -1   -1    0    0    0  501 -0.00000000000E+00 -0.00000000000E+00 -0.10451139844E+03  0.10451139856E+03  0.50400000000E-02 0.  1.
         24    2    1    2    0    0  0.00000000000E+00  0.00000000000E+00 -0.89691494507E+02  0.11933130272E+03  0.78710835476E+02 0.  0.
         66    2    3    3    0    0 -0.37960775917E+02 -0.10188017818E+02 -0.47033498092E+02  0.61326716369E+02  0.19999956159E+01 0.  0.
        -13    1    3    3    0    0  0.37960775917E+02  0.10188017818E+02 -0.42657996415E+02  0.58004586349E+02  0.10566000000E+00 0.  1.
         13    1    4    4    0    0 -0.30531988549E+00 -0.65232745272E-01 -0.24507993017E+00  0.41073562215E+00  0.10566000000E+00 0. -1.
        -13    1    4    4    0    0 -0.90741990733E+01 -0.19714263134E+01 -0.11240748633E+02  0.14580576271E+02  0.10566000000E+00 0.  1.
         14    1    4    4    0    0 -0.28581256959E+02 -0.81513587590E+01 -0.35547669529E+02  0.46335404475E+02  0.00000000000E+00 0. -1.
<mgrwt>
<rscale>  0 0.78710835E+02</rscale>
<asrwt>0</asrwt>
<pdfrwt beam="1">  1        2 0.22799853E-02 0.78710835E+02</pdfrwt>
<pdfrwt beam="2">  1       -1 0.16078676E-01 0.78710835E+02</pdfrwt>
<totfact> 0.12226739E+05</totfact>
</mgrwt>
</event>
<event>
 8    1  0.2561077E-016  0.8015405E+02  0.7818608E-02  0.1328615E+00
          2   -1    0    0  501    0  0.00000000000E+00  0.00000000000E+00  0.13933715370E+02  0.13933715603E+02  0.25500000000E-02 0. -1.
         -1   -1    0    0    0  501 -0.00000000000E+00 -0.00000000000E+00 -0.11527204384E+03  0.11527204395E+03  0.50400000000E-02 0.  1.
         24    2    1    2    0    0  0.71054273576E-14 -0.35527136788E-14 -0.10133832847E+03  0.12920575955E+03  0.80154048461E+02 0.  0.
         66    2    3    3    0    0 -0.26226826355E+02  0.20043375327E+02 -0.14134182157E+02  0.35963292762E+02  0.20000014763E+01 0.  0.
        -13    1    3    3    0    0  0.26226826355E+02 -0.20043375327E+02 -0.87204146314E+02  0.93242466793E+02  0.10566000000E+00 0.  1.
         13    1    4    4    0    0 -0.14322075165E+02  0.99614310654E+01 -0.76815592243E+01  0.19062252282E+02  0.10566000000E+00 0. -1.
        -13    1    4    4    0    0 -0.10682706633E+02  0.87674949757E+01 -0.55630468126E+01  0.14897914050E+02  0.10566000000E+00 0.  1.
        -14    1    4    4    0    0 -0.12220445566E+01  0.13144492858E+01 -0.88957611982E+00  0.20031264304E+01  0.00000000000E+00 0.  1.
<mgrwt>
<rscale>  0 0.80154048E+02</rscale>
<asrwt>0</asrwt>
<pdfrwt beam="1">  1        2 0.21436486E-02 0.80154048E+02</pdfrwt>
<pdfrwt beam="2">  1       -1 0.17734160E-01 0.80154048E+02</pdfrwt>
<totfact> 0.11433615E+05</totfact>
</mgrwt>
</event>
<event>
 8    1  0.2561077E-016  0.8376091E+02  0.7818608E-02  0.1318705E+00
          2   -1    0    0  501    0  0.00000000000E+00  0.00000000000E+00  0.11377544288E+02  0.11377544574E+02  0.25500000000E-02 0. -1.
         -1   -1    0    0    0  501 -0.00000000000E+00 -0.00000000000E+00 -0.15416089773E+03  0.15416089781E+03  0.50400000000E-02 0.  1.
         24    2    1    2    0    0  0.00000000000E+00  0.00000000000E+00 -0.14278335344E+03  0.16553844239E+03  0.83760909067E+02 0.  0.
         66    2    3    3    0    0  0.28087859810E+02 -0.15638206467E+02 -0.18457790651E+02  0.37123731011E+02  0.19999995738E+01 0.  0.
        -13    1    3    3    0    0 -0.28087859810E+02  0.15638206467E+02 -0.12432556279E+03  0.12841471138E+03  0.10566000000E+00 0.  1.
         13    1    4    4    0    0  0.11822497166E+02 -0.64501470973E+01 -0.75981369936E+01  0.15463462957E+02  0.10566000000E+00 0. -1.
        -13    1    4    4    0    0  0.20683033127E+01 -0.13919336745E+01 -0.93562565195E+00  0.26649422777E+01  0.10566000000E+00 0.  1.
         14    1    4    4    0    0  0.14197059331E+02 -0.77961256953E+01 -0.99240280052E+01  0.18995325776E+02  0.00000000000E+00 0. -1.
<mgrwt>
<rscale>  0 0.83760909E+02</rscale>
<asrwt>0</asrwt>
<pdfrwt beam="1">  1        2 0.17503916E-02 0.83760909E+02</pdfrwt>
<pdfrwt beam="2">  1       -1 0.23717060E-01 0.83760909E+02</pdfrwt>
<totfact> 0.95360947E+04</totfact>
</mgrwt>
</event>
<event>
 8    1  0.2561077E-016  0.8052806E+02  0.7818608E-02  0.1327560E+00
          2   -1    0    0  501    0  0.00000000000E+00  0.00000000000E+00  0.43955388799E+03  0.43955388800E+03  0.25500000000E-02 0. -1.
         -1   -1    0    0    0  501 -0.00000000000E+00 -0.00000000000E+00 -0.36882651253E+01  0.36882685689E+01  0.50400000000E-02 0.  1.
         24    2    1    2    0    0  0.35527136788E-14 -0.44408920985E-15  0.43586562286E+03  0.44324215657E+03  0.80528058230E+02 0.  0.
         66    2    3    3    0    0 -0.26977967310E+02  0.30767589015E+01  0.38152477413E+03  0.38249500708E+03  0.19999999971E+01 0.  0.
        -13    1    3    3    0    0  0.26977967310E+02 -0.30767589015E+01  0.54340848730E+02  0.60747149482E+02  0.10566000000E+00 0.  1.
         13    1    4    4    0    0 -0.11030414040E+02  0.18839982876E+01  0.16001473612E+03  0.16040556855E+03  0.10566000000E+00 0. -1.
        -13    1    4    4    0    0 -0.13595626619E+02  0.12051127583E+01  0.19351854758E+03  0.19399931129E+03  0.10566000000E+00 0.  1.
         14    1    4    4    0    0 -0.23519266511E+01 -0.12352144427E-01  0.27991490440E+02  0.28090127245E+02  0.00000000000E+00 0. -1.
<mgrwt>
<rscale>  0 0.80528058E+02</rscale>
<asrwt>0</asrwt>
<pdfrwt beam="1">  1        2 0.67623670E-01 0.80528058E+02</pdfrwt>
<pdfrwt beam="2">  1       -1 0.56742571E-03 0.80528058E+02</pdfrwt>
<totfact> 0.28689430E+05</totfact>
</mgrwt>
</event>
<event>
 8    1  0.2561077E-016  0.7851223E+02  0.7818608E-02  0.1333327E+00
          2   -1    0    0  501    0  0.00000000000E+00  0.00000000000E+00  0.15528448236E+02  0.15528448446E+02  0.25500000000E-02 0. -1.
         -1   -1    0    0    0  501 -0.00000000000E+00 -0.00000000000E+00 -0.99239947519E+02  0.99239947647E+02  0.50400000000E-02 0.  1.
         24    2    1    2    0    0  0.35527136788E-14  0.88817841970E-15 -0.83711499283E+02  0.11476839609E+03  0.78512225988E+02 0.  0.
         66    2    3    3    0    0  0.31233569062E+02  0.27574562951E+01 -0.74174920472E+01  0.32282481503E+02  0.20000055478E+01 0.  0.
        -13    1    3    3    0    0 -0.31233569062E+02 -0.27574562951E+01 -0.76294007235E+02  0.82485914589E+02  0.10566000000E+00 0.  1.
         13    1    4    4    0    0  0.11492002640E+02  0.50687713213E+00 -0.18894643764E+01  0.11657799483E+02  0.10566000000E+00 0. -1.
        -13    1    4    4    0    0  0.14062468695E+02  0.15677749451E+01 -0.39147982460E+01  0.14681544654E+02  0.10566000000E+00 0. -1.
         14    1    4    4    0    0  0.56790977264E+01  0.68280421788E+00 -0.16132294248E+01  0.59431373670E+01  0.00000000000E+00 0. -1.
<mgrwt>
<rscale>  0 0.78512226E+02</rscale>
<asrwt>0</asrwt>
<pdfrwt beam="1">  1        2 0.23889921E-02 0.78512226E+02</pdfrwt>
<pdfrwt beam="2">  1       -1 0.15267684E-01 0.78512226E+02</pdfrwt>
<totfact> 0.12440938E+05</totfact>
</mgrwt>
</event>
<event>
 8    1  0.2561077E-016  0.7945297E+02  0.7818608E-02  0.1330611E+00
         -1   -1    0    0    0  501 -0.00000000000E+00  0.00000000000E+00  0.25141423449E+02  0.25141423954E+02  0.50400000000E-02 0.  1.
          2   -1    0    0  501    0  0.00000000000E+00 -0.00000000000E+00 -0.62772650207E+02  0.62772650259E+02  0.25500000000E-02 0. -1.
         24    2    1    2    0    0 -0.17763568394E-14  0.00000000000E+00 -0.37631226758E+02  0.87914074213E+02  0.79452974881E+02 0.  0.
         66    2    3    3    0    0  0.10874920199E+02  0.28323244616E+02 -0.47161447976E+02  0.56113030907E+02  0.19999968460E+01 0.  0.
        -13    1    3    3    0    0 -0.10874920199E+02 -0.28323244616E+02  0.95302212185E+01  0.31801043307E+02  0.10566000000E+00 0.  1.
         13    1    4    4    0    0  0.65860673485E+01  0.16879301248E+02 -0.27250876253E+02  0.32724738568E+02  0.10566000000E+00 0. -1.
        -13    1    4    4    0    0  0.28458223978E+01  0.88309130116E+01 -0.14709102402E+02  0.17391164057E+02  0.10566000000E+00 0.  1.
        -14    1    4    4    0    0  0.14430304525E+01  0.26130303564E+01 -0.52014693215E+01  0.59971282822E+01  0.00000000000E+00 0.  1.
<mgrwt>
<rscale>  0 0.79452975E+02</rscale>
<asrwt>0</asrwt>
<pdfrwt beam="1">  1        2 0.96573308E-02 0.79452975E+02</pdfrwt>
<pdfrwt beam="2">  1       -1 0.38679114E-02 0.79452975E+02</pdfrwt>
<totfact> 0.16026572E+05</totfact>
</mgrwt>
</event>
<event>
 8    1  0.2561077E-016  0.8069144E+02  0.7818608E-02  0.1327101E+00
         -1   -1    0    0    0  501 -0.00000000000E+00  0.00000000000E+00  0.27223257873E+02  0.27223258340E+02  0.50400000000E-02 0.  1.
          2   -1    0    0  501    0  0.00000000000E+00 -0.00000000000E+00 -0.59793624191E+02  0.59793624245E+02  0.25500000000E-02 0. -1.
         24    2    1    2    0    0  0.00000000000E+00 -0.35527136788E-14 -0.32570366317E+02  0.87016882585E+02  0.80691443740E+02 0.  0.
         66    2    3    3    0    0  0.26360223667E+02  0.19130606880E+02 -0.41926638177E+02  0.53128942274E+02  0.20000017469E+01 0.  0.
        -13    1    3    3    0    0 -0.26360223667E+02 -0.19130606880E+02  0.93562718598E+01  0.33887940311E+02  0.10566000000E+00 0.  1.
         13    1    4    4    0    0  0.80279681829E+01  0.63032149359E+01 -0.12531442369E+02  0.16162518478E+02  0.10566000000E+00 0. -1.
        -13    1    4    4    0    0  0.98367998450E+00  0.10436965549E+01 -0.20829682014E+01  0.25311754926E+01  0.10566000000E+00 0.  1.
        -14    1    4    4    0    0  0.17348575500E+02  0.11783695389E+02 -0.27312227607E+02  0.34435248304E+02  0.00000000000E+00 0.  1.
<mgrwt>
<rscale>  0 0.80691444E+02</rscale>
<asrwt>0</asrwt>
<pdfrwt beam="1">  1        2 0.91990191E-02 0.80691444E+02</pdfrwt>
<pdfrwt beam="2">  1       -1 0.41881936E-02 0.80691444E+02</pdfrwt>
<totfact> 0.15193625E+05</totfact>
</mgrwt>
</event>
<event>
 8    1  0.2561077E-016  0.7985826E+02  0.7818608E-02  0.1329454E+00
          2   -1    0    0  501    0  0.00000000000E+00  0.00000000000E+00  0.35444980979E+03  0.35444980980E+03  0.25500000000E-02 0. -1.
         -1   -1    0    0    0  501 -0.00000000000E+00 -0.00000000000E+00 -0.44980560485E+01  0.44980588721E+01  0.50400000000E-02 0.  1.
         24    2    1    2    0    0  0.00000000000E+00  0.00000000000E+00  0.34995175374E+03  0.35894786867E+03  0.79858264925E+02 0.  0.
         66    2    3    3    0    0 -0.48714177140E+01  0.19538303352E+02  0.32993498658E+03  0.33055494455E+03  0.19999973766E+01 0.  0.
        -13    1    3    3    0    0  0.48714177140E+01 -0.19538303352E+02  0.20016767160E+02  0.28392924118E+02  0.10566000000E+00 0.  1.
         13    1    4    4    0    0 -0.22897201919E+01  0.12207666510E+02  0.20349920039E+03  0.20387791853E+03  0.10566000000E+00 0. -1.
        -13    1    4    4    0    0 -0.11411595398E-01  0.27190865784E+00  0.61107360112E+01  0.61177057118E+01  0.10566000000E+00 0. -1.
        -14    1    4    4    0    0 -0.25702859267E+01  0.70587281840E+01  0.12032505018E+03  0.12055932031E+03  0.00000000000E+00 0.  1.
<mgrwt>
<rscale>  0 0.79858265E+02</rscale>
<asrwt>0</asrwt>
<pdfrwt beam="1">  1        2 0.54530733E-01 0.79858265E+02</pdfrwt>
<pdfrwt beam="2">  1       -1 0.69200893E-03 0.79858265E+02</pdfrwt>
<totfact> 0.27197177E+05</totfact>
</mgrwt>
</event>
<event>
 8    1  0.2561077E-016  0.8028112E+02  0.7818608E-02  0.1328256E+00
         -1   -1    0    0    0  501 -0.00000000000E+00  0.00000000000E+00  0.28237635503E+01  0.28237680482E+01  0.50400000000E-02 0.  1.
          2   -1    0    0  501    0  0.00000000000E+00 -0.00000000000E+00 -0.57060844894E+03  0.57060844895E+03  0.25500000000E-02 0. -1.
         24    2    1    2    0    0  0.00000000000E+00 -0.88817841970E-15 -0.56778468539E+03  0.57343221699E+03  0.80281121837E+02 0.  0.
         66    2    3    3    0    0  0.14380575955E+02  0.53773575971E+01 -0.54878986511E+03  0.54900822671E+03  0.20000044709E+01 0.  0.
        -13    1    3    3    0    0 -0.14380575955E+02 -0.53773575971E+01 -0.18994820284E+02  0.24423990279E+02  0.10566000000E+00 0.  1.
         13    1    4    4    0    0  0.25871153427E+01  0.76191187258E+00 -0.97391657007E+02  0.97429049539E+02  0.10566000000E+00 0. -1.
        -13    1    4    4    0    0  0.66938125232E+01  0.24421747596E+01 -0.22358912761E+03  0.22370266089E+03  0.10566000000E+00 0.  1.
         14    1    4    4    0    0  0.50996480887E+01  0.21732709649E+01 -0.22780908049E+03  0.22787651628E+03  0.00000000000E+00 0. -1.
<mgrwt>
<rscale>  0 0.80281122E+02</rscale>
<asrwt>0</asrwt>
<pdfrwt beam="1">  1        2 0.87785823E-01 0.80281122E+02</pdfrwt>
<pdfrwt beam="2">  1       -1 0.43442596E-03 0.80281122E+02</pdfrwt>
<totfact> 0.31418112E+05</totfact>
</mgrwt>
</event>
<event>
 8    1  0.2561077E-016  0.8054587E+02  0.7818608E-02  0.1327509E+00
         -1   -1    0    0    0  501 -0.00000000000E+00  0.00000000000E+00  0.38872415004E+01  0.38872447677E+01  0.50400000000E-02 0.  1.
          2   -1    0    0  501    0  0.00000000000E+00 -0.00000000000E+00 -0.41723900902E+03  0.41723900903E+03  0.25500000000E-02 0. -1.
         24    2    1    2    0    0  0.00000000000E+00  0.00000000000E+00 -0.41335176752E+03  0.42112625380E+03  0.80545874658E+02 0.  0.
         66    2    3    3    0    0 -0.34799815747E+02  0.16850674737E+02 -0.26524239531E+03  0.26805316760E+03  0.19999947693E+01 0.  0.
        -13    1    3    3    0    0  0.34799815747E+02 -0.16850674737E+02 -0.14810937222E+03  0.15307308620E+03  0.10566000000E+00 0.  1.
         13    1    4    4    0    0 -0.12897315522E+01  0.58822540982E+00 -0.10652928857E+02  0.10747347295E+02  0.10566000000E+00 0. -1.
        -13    1    4    4    0    0 -0.32520103573E+02  0.15553880718E+02 -0.24449716554E+03  0.24714035580E+03  0.10566000000E+00 0.  1.
        -14    1    4    4    0    0 -0.98998062147E+00  0.70856860905E+00 -0.10092300909E+02  0.10165464511E+02  0.00000000000E+00 0.  1.
<mgrwt>
<rscale>  0 0.80545875E+02</rscale>
<asrwt>0</asrwt>
<pdfrwt beam="1">  1        2 0.64190581E-01 0.80545875E+02</pdfrwt>
<pdfrwt beam="2">  1       -1 0.59803774E-03 0.80545875E+02</pdfrwt>
<totfact> 0.28166079E+05</totfact>
</mgrwt>
</event>
<event>
 8    1  0.2561077E-016  0.7805156E+02  0.7818608E-02  0.1334674E+00
         -1   -1    0    0    0  501 -0.00000000000E+00  0.00000000000E+00  0.59018258080E+02  0.59018258295E+02  0.50400000000E-02 0.  1.
          2   -1    0    0  501    0  0.00000000000E+00 -0.00000000000E+00 -0.25805767079E+02  0.25805767205E+02  0.25500000000E-02 0. -1.
         24    2    1    2    0    0 -0.44408920985E-15 -0.35527136788E-14  0.33212491001E+02  0.84824025501E+02  0.78051558239E+02 0.  0.
         66    2    3    3    0    0  0.30765603954E+01 -0.19491858178E+02 -0.19941135706E+02  0.28125551488E+02  0.19999985398E+01 0.  0.
        -13    1    3    3    0    0 -0.30765603954E+01  0.19491858178E+02  0.53153626708E+02  0.56698474012E+02  0.10566000000E+00 0.  1.
         13    1    4    4    0    0  0.20296189736E+00 -0.32197569611E+01 -0.38968037591E+01  0.50600664020E+01  0.10566000000E+00 0. -1.
        -13    1    4    4    0    0  0.74886543149E-01 -0.31529957027E+01 -0.31543512755E+01  0.44618478123E+01  0.10566000000E+00 0.  1.
         14    1    4    4    0    0  0.27987119549E+01 -0.13119105514E+02 -0.12889980672E+02  0.18603637274E+02  0.00000000000E+00 0. -1.
<mgrwt>
<rscale>  0 0.78051558E+02</rscale>
<asrwt>0</asrwt>
<pdfrwt beam="1">  1        2 0.39701180E-02 0.78051558E+02</pdfrwt>
<pdfrwt beam="2">  1       -1 0.90797320E-02 0.78051558E+02</pdfrwt>
<totfact> 0.14002453E+05</totfact>
</mgrwt>
</event>
<event>
 8    1  0.2561077E-016  0.7963578E+02  0.7818608E-02  0.1330088E+00
          2   -1    0    0  501    0  0.00000000000E+00  0.00000000000E+00  0.45588339529E+03  0.45588339530E+03  0.25500000000E-02 0. -1.
         -1   -1    0    0    0  501 -0.00000000000E+00 -0.00000000000E+00 -0.34777827928E+01  0.34777864448E+01  0.50400000000E-02 0.  1.
         24    2    1    2    0    0  0.00000000000E+00  0.00000000000E+00  0.45240561250E+03  0.45936118174E+03  0.79635777590E+02 0.  0.
         66    2    3    3    0    0  0.24987735482E+02  0.57008882784E+01  0.40192939478E+03  0.40275069887E+03  0.20000005585E+01 0.  0.
        -13    1    3    3    0    0 -0.24987735482E+02 -0.57008882784E+01  0.50476217720E+02  0.56610482872E+02  0.10566000000E+00 0.  1.
         13    1    4    4    0    0  0.13384938589E+02  0.26383805770E+01  0.21521610148E+03  0.21564809096E+03  0.10566000000E+00 0. -1.
        -13    1    4    4    0    0  0.72096800426E+01  0.21112805492E+01  0.10792473017E+03  0.10818593040E+03  0.10566000000E+00 0. -1.
         14    1    4    4    0    0  0.43931168509E+01  0.95122715216E+00  0.78788563136E+02  0.78916677513E+02  0.00000000000E+00 0. -1.
<mgrwt>
<rscale>  0 0.79635778E+02</rscale>
<asrwt>0</asrwt>
<pdfrwt beam="1">  1        2 0.70135892E-01 0.79635778E+02</pdfrwt>
<pdfrwt beam="2">  1       -1 0.53504390E-03 0.79635778E+02</pdfrwt>
<totfact> 0.29900403E+05</totfact>
</mgrwt>
</event>
<event>
 8    1  0.2561077E-016  0.7915857E+02  0.7818608E-02  0.1331456E+00
         -1   -1    0    0    0  501 -0.00000000000E+00  0.00000000000E+00  0.33757800873E+01  0.33757838497E+01  0.50400000000E-02 0.  1.
          2   -1    0    0  501    0  0.00000000000E+00 -0.00000000000E+00 -0.46404654662E+03  0.46404654663E+03  0.25500000000E-02 0. -1.
         24    2    1    2    0    0  0.44408920985E-15  0.00000000000E+00 -0.46067076654E+03  0.46742233048E+03  0.79158574333E+02 0.  0.
         66    2    3    3    0    0  0.39742991130E+01 -0.37357309024E+02 -0.30355754775E+03  0.30587995748E+03  0.20000013006E+01 0.  0.
        -13    1    3    3    0    0 -0.39742991130E+01  0.37357309024E+02 -0.15711321879E+03  0.16154237300E+03  0.10566000000E+00 0.  1.
         13    1    4    4    0    0  0.28106830310E+01 -0.28907865154E+02 -0.23520935487E+03  0.23699581513E+03  0.10566000000E+00 0. -1.
        -13    1    4    4    0    0  0.13799285782E+00 -0.31361458001E+01 -0.27622988402E+02  0.27800991075E+02  0.10566000000E+00 0.  1.
         14    1    4    4    0    0  0.10256232241E+01 -0.53132980701E+01 -0.40725204477E+02  0.41083151280E+02  0.00000000000E+00 0. -1.
<mgrwt>
<rscale>  0 0.79158574E+02</rscale>
<asrwt>0</asrwt>
<pdfrwt beam="1">  1        2 0.71391726E-01 0.79158574E+02</pdfrwt>
<pdfrwt beam="2">  1       -1 0.51935144E-03 0.79158574E+02</pdfrwt>
<totfact> 0.30552121E+05</totfact>
</mgrwt>
</event>
<event>
 8    1  0.2561077E-016  0.8222689E+02  0.7818608E-02  0.1322848E+00
         -1   -1    0    0    0  501 -0.00000000000E+00  0.00000000000E+00  0.77768851749E+02  0.77768851912E+02  0.50400000000E-02 0.  1.
          2   -1    0    0  501    0  0.00000000000E+00 -0.00000000000E+00 -0.21735119795E+02  0.21735119944E+02  0.25500000000E-02 0. -1.
         24    2    1    2    0    0  0.00000000000E+00 -0.17763568394E-14  0.56033731954E+02  0.99503971856E+02  0.82226889145E+02 0.  0.
         66    2    3    3    0    0 -0.36650021184E+02 -0.11302388508E+02  0.10193237434E+02  0.39734998796E+02  0.20000002828E+01 0.  0.
        -13    1    3    3    0    0  0.36650021184E+02  0.11302388508E+02  0.45840494520E+02  0.59768973060E+02  0.10566000000E+00 0.  1.
         13    1    4    4    0    0 -0.92512167493E+01 -0.26748250763E+01  0.19641786885E+01  0.98289807451E+01  0.10566000000E+00 0. -1.
        -13    1    4    4    0    0 -0.41683690530E+01 -0.17158568833E+01  0.15097699858E+01  0.47550010359E+01  0.10566000000E+00 0.  1.
         14    1    4    4    0    0 -0.23230435382E+02 -0.69117065485E+01  0.67192887597E+01  0.25151017015E+02  0.00000000000E+00 0. -1.
<mgrwt>
<rscale>  0 0.82226889E+02</rscale>
<asrwt>0</asrwt>
<pdfrwt beam="1">  1        2 0.33438646E-02 0.82226889E+02</pdfrwt>
<pdfrwt beam="2">  1       -1 0.11964439E-01 0.82226889E+02</pdfrwt>
<totfact> 0.11670309E+05</totfact>
</mgrwt>
</event>
<event>
 8    1  0.2561077E-016  0.8012788E+02  0.7818608E-02  0.1328689E+00
         -1   -1    0    0    0  501 -0.00000000000E+00  0.00000000000E+00  0.30753924281E+01  0.30753965579E+01  0.50400000000E-02 0.  1.
          2   -1    0    0  501    0  0.00000000000E+00 -0.00000000000E+00 -0.52192304724E+03  0.52192304724E+03  0.25500000000E-02 0. -1.
         24    2    1    2    0    0  0.00000000000E+00  0.00000000000E+00 -0.51884765481E+03  0.52499844380E+03  0.80127879624E+02 0.  0.
         66    2    3    3    0    0  0.23351114641E+02  0.32068686317E+02 -0.29513476127E+03  0.29779557168E+03  0.20000024594E+01 0.  0.
        -13    1    3    3    0    0 -0.23351114641E+02 -0.32068686317E+02 -0.22371289354E+03  0.22720287212E+03  0.10566000000E+00 0.  1.
         13    1    4    4    0    0  0.31532742332E+01  0.40478775360E+01 -0.35853904109E+02  0.36219360221E+02  0.10566000000E+00 0. -1.
        -13    1    4    4    0    0  0.92885366214E+00  0.11433414805E+01 -0.91111735770E+01  0.92300946286E+01  0.10566000000E+00 0.  1.
         14    1    4    4    0    0  0.19268986745E+02  0.26877467300E+02 -0.25016968358E+03  0.25234611683E+03  0.00000000000E+00 0. -1.
<mgrwt>
<rscale>  0 0.80127880E+02</rscale>
<asrwt>0</asrwt>
<pdfrwt beam="1">  1        2 0.80295783E-01 0.80127880E+02</pdfrwt>
<pdfrwt beam="2">  1       -1 0.47313803E-03 0.80127880E+02</pdfrwt>
<totfact> 0.30737052E+05</totfact>
</mgrwt>
</event>
<event>
 8    1  0.2561077E-016  0.7992570E+02  0.7818608E-02  0.1329262E+00
          2   -1    0    0  501    0  0.00000000000E+00  0.00000000000E+00  0.48835713324E+03  0.48835713325E+03  0.25500000000E-02 0. -1.
         -1   -1    0    0    0  501 -0.00000000000E+00 -0.00000000000E+00 -0.32702061129E+01  0.32702099966E+01  0.50400000000E-02 0.  1.
         24    2    1    2    0    0  0.00000000000E+00  0.00000000000E+00  0.48508692713E+03  0.49162734325E+03  0.79925701466E+02 0.  0.
         66    2    3    3    0    0  0.39123395806E+02 -0.74669499368E+01  0.26076377116E+03  0.26379564021E+03  0.20000006328E+01 0.  0.
        -13    1    3    3    0    0 -0.39123395806E+02  0.74669499368E+01  0.22432315597E+03  0.22783170304E+03  0.10566000000E+00 0.  1.
         13    1    4    4    0    0  0.19978514640E+01 -0.56342091046E+00  0.12849039300E+02  0.13016060408E+02  0.10566000000E+00 0.  1.
        -13    1    4    4    0    0  0.13705840474E+02 -0.31069852921E+01  0.88463101254E+02  0.89572511789E+02  0.10566000000E+00 0. -1.
         14    1    4    4    0    0  0.23419703868E+02 -0.37965437342E+01  0.15945163061E+03  0.16120706801E+03  0.00000000000E+00 0. -1.
<mgrwt>
<rscale>  0 0.79925701E+02</rscale>
<asrwt>0</asrwt>
<pdfrwt beam="1">  1        2 0.75131830E-01 0.79925701E+02</pdfrwt>
<pdfrwt beam="2">  1       -1 0.50310918E-03 0.79925701E+02</pdfrwt>
<totfact> 0.30295358E+05</totfact>
</mgrwt>
</event>
<event>
 8    1  0.2561077E-016  0.7749523E+02  0.7818608E-02  0.1336314E+00
         -1   -1    0    0    0  501 -0.00000000000E+00  0.00000000000E+00  0.20524110349E+01  0.20524172231E+01  0.50400000000E-02 0.  1.
          2   -1    0    0  501    0  0.00000000000E+00 -0.00000000000E+00 -0.73151781214E+03  0.73151781214E+03  0.25500000000E-02 0. -1.
         24    2    1    2    0    0  0.35527136788E-14  0.00000000000E+00 -0.72946540110E+03  0.73357022936E+03  0.77495225691E+02 0.  0.
         66    2    3    3    0    0 -0.26895390009E+02 -0.16158312190E+02 -0.57977601995E+03  0.58062783808E+03  0.19999984708E+01 0.  0.
        -13    1    3    3    0    0  0.26895390009E+02  0.16158312190E+02 -0.14968938115E+03  0.15294239128E+03  0.10566000000E+00 0.  1.
         13    1    4    4    0    0 -0.20553420027E+02 -0.12512842788E+02 -0.45385732461E+03  0.45449477068E+03  0.10566000000E+00 0. -1.
        -13    1    4    4    0    0 -0.62283756260E+01 -0.36633902708E+01 -0.12300362415E+03  0.12321572874E+03  0.10566000000E+00 0.  1.
        -14    1    4    4    0    0 -0.11359435515E+00  0.17920869148E-01 -0.29150711899E+01  0.29173386634E+01  0.00000000000E+00 0.  1.
<mgrwt>
<rscale>  0 0.77495226E+02</rscale>
<asrwt>0</asrwt>
<pdfrwt beam="1">  1        2 0.11254099E+00 0.77495226E+02</pdfrwt>
<pdfrwt beam="2">  1       -1 0.31575660E-03 0.77495226E+02</pdfrwt>
<totfact> 0.36684343E+05</totfact>
</mgrwt>
</event>
<event>
 8    1  0.2561077E-016  0.7830034E+02  0.7818608E-02  0.1333945E+00
         -1   -1    0    0    0  501 -0.00000000000E+00  0.00000000000E+00  0.19028283725E+01  0.19028350472E+01  0.50400000000E-02 0.  1.
          2   -1    0    0  501    0  0.00000000000E+00 -0.00000000000E+00 -0.80550248390E+03  0.80550248391E+03  0.25500000000E-02 0. -1.
         24    2    1    2    0    0  0.00000000000E+00  0.00000000000E+00 -0.80359965553E+03  0.80740531896E+03  0.78300336570E+02 0.  0.
         66    2    3    3    0    0 -0.24055786812E+01 -0.26281602245E+02 -0.69989136360E+03  0.70039162635E+03  0.19999989636E+01 0.  0.
        -13    1    3    3    0    0  0.24055786812E+01  0.26281602245E+02 -0.10370829193E+03  0.10701369260E+03  0.10566000000E+00 0.  1.
         13    1    4    4    0    0 -0.17963149868E+01 -0.13533642935E+02 -0.38085630432E+03  0.38110093406E+03  0.10566000000E+00 0. -1.
        -13    1    4    4    0    0 -0.22016336627E+00 -0.33212454742E+01 -0.78040448345E+02  0.78111470894E+02  0.10566000000E+00 0.  1.
         14    1    4    4    0    0 -0.38910032811E+00 -0.94267138350E+01 -0.24099461094E+03  0.24117922140E+03  0.00000000000E+00 0. -1.
<mgrwt>
<rscale>  0 0.78300337E+02</rscale>
<asrwt>0</asrwt>
<pdfrwt beam="1">  1        2 0.12392319E+00 0.78300337E+02</pdfrwt>
<pdfrwt beam="2">  1       -1 0.29274398E-03 0.78300337E+02</pdfrwt>
<totfact> 0.36377465E+05</totfact>
</mgrwt>
</event>
<event>
 8    1  0.2561077E-016  0.8636282E+02  0.7818608E-02  0.1311907E+00
         -1   -1    0    0    0  501 -0.00000000000E+00  0.00000000000E+00  0.37200201974E+01  0.37200236116E+01  0.50400000000E-02 0.  1.
          2   -1    0    0  501    0  0.00000000000E+00 -0.00000000000E+00 -0.50124282027E+03  0.50124282027E+03  0.25500000000E-02 0. -1.
         24    2    1    2    0    0  0.00000000000E+00  0.00000000000E+00 -0.49752280007E+03  0.50496284389E+03  0.86362822530E+02 0.  0.
         66    2    3    3    0    0 -0.35040656098E+01 -0.42963939012E+02 -0.26122965139E+03  0.26476991766E+03  0.20000003905E+01 0.  0.
        -13    1    3    3    0    0  0.35040656098E+01  0.42963939012E+02 -0.23629314868E+03  0.24019292622E+03  0.10566000000E+00 0.  1.
         13    1    4    4    0    0 -0.16588154603E+01 -0.19413946946E+02 -0.11812233939E+03  0.11971863361E+03  0.10566000000E+00 0. -1.
        -13    1    4    4    0    0 -0.49550823036E+00 -0.11389884252E+02 -0.65267603646E+02  0.66255914765E+02  0.10566000000E+00 0.  1.
        -14    1    4    4    0    0 -0.13497419192E+01 -0.12160107813E+02 -0.77839708351E+02  0.78795369290E+02  0.00000000000E+00 0.  1.
<mgrwt>
<rscale>  0 0.86362823E+02</rscale>
<asrwt>0</asrwt>
<pdfrwt beam="1">  1        2 0.77114227E-01 0.86362823E+02</pdfrwt>
<pdfrwt beam="2">  1       -1 0.57231146E-03 0.86362823E+02</pdfrwt>
<totfact> 0.24946237E+05</totfact>
</mgrwt>
</event>
<event>
 8    1  0.2561077E-016  0.7899035E+02  0.7818608E-02  0.1331941E+00
         -1   -1    0    0    0  501 -0.00000000000E+00  0.00000000000E+00  0.37881902028E+02  0.37881902363E+02  0.50400000000E-02 0.  1.
          2   -1    0    0  501    0  0.00000000000E+00 -0.00000000000E+00 -0.41177154483E+02  0.41177154561E+02  0.25500000000E-02 0. -1.
         24    2    1    2    0    0  0.00000000000E+00  0.00000000000E+00 -0.32952524547E+01  0.79059056925E+02  0.78990352532E+02 0.  0.
         66    2    3    3    0    0  0.29247951493E+01  0.20500440942E+02 -0.35279118109E+02  0.40956546092E+02  0.19999969264E+01 0.  0.
        -13    1    3    3    0    0 -0.29247951493E+01 -0.20500440942E+02  0.31983865655E+02  0.38102510833E+02  0.10566000000E+00 0.  1.
         13    1    4    4    0    0  0.25959584996E+01  0.16625295392E+02 -0.28531732243E+02  0.33124165744E+02  0.10566000000E+00 0. -1.
        -13    1    4    4    0    0 -0.16511200930E+00  0.26324544507E+01 -0.45240703409E+01  0.52378864913E+01  0.10566000000E+00 0.  1.
         14    1    4    4    0    0  0.49394865910E+00  0.12426910993E+01 -0.22233155253E+01  0.25944938564E+01  0.00000000000E+00 0. -1.
<mgrwt>
<rscale>  0 0.78990353E+02</rscale>
<asrwt>0</asrwt>
<pdfrwt beam="1">  1        2 0.63349468E-02 0.78990353E+02</pdfrwt>
<pdfrwt beam="2">  1       -1 0.58279850E-02 0.78990353E+02</pdfrwt>
<totfact> 0.14852001E+05</totfact>
</mgrwt>
</event>
<event>
 8    1  0.2561077E-016  0.8032928E+02  0.7818608E-02  0.1328120E+00
          2   -1    0    0  501    0  0.00000000000E+00  0.00000000000E+00  0.76725664089E+01  0.76725668327E+01  0.25500000000E-02 0. -1.
         -1   -1    0    0    0  501 -0.00000000000E+00 -0.00000000000E+00 -0.21025536244E+03  0.21025536250E+03  0.50400000000E-02 0.  1.
         24    2    1    2    0    0  0.11102230246E-15  0.00000000000E+00 -0.20258279603E+03  0.21792792933E+03  0.80329279441E+02 0.  0.
         66    2    3    3    0    0 -0.53576679282E+00  0.40119010381E+02 -0.98177124722E+02  0.10607813092E+03  0.20000000759E+01 0.  0.
        -13    1    3    3    0    0  0.53576679282E+00 -0.40119010381E+02 -0.10440567131E+03  0.11184979841E+03  0.10566000000E+00 0.  1.
         13    1    4    4    0    0 -0.18607663581E+00  0.21550482575E+02 -0.50331240205E+02  0.54751281523E+02  0.10566000000E+00 0. -1.
        -13    1    4    4    0    0 -0.12155068989E-01  0.11657047742E+02 -0.29594513161E+02  0.31807755078E+02  0.10566000000E+00 0.  1.
         14    1    4    4    0    0 -0.33753508802E+00  0.69114800644E+01 -0.18251371355E+02  0.19519094317E+02  0.00000000000E+00 0. -1.
<mgrwt>
<rscale>  0 0.80329279E+02</rscale>
<asrwt>0</asrwt>
<pdfrwt beam="1">  1        2 0.11803950E-02 0.80329279E+02</pdfrwt>
<pdfrwt beam="2">  1       -1 0.32346975E-01 0.80329279E+02</pdfrwt>
<totfact> 0.97062437E+04</totfact>
</mgrwt>
</event>
<event>
 8    1  0.2561077E-016  0.7812266E+02  0.7818608E-02  0.1334465E+00
          2   -1    0    0  501    0  0.00000000000E+00  0.00000000000E+00  0.24027368197E+03  0.24027368199E+03  0.25500000000E-02 0. -1.
         -1   -1    0    0    0  501 -0.00000000000E+00 -0.00000000000E+00 -0.63502059098E+01  0.63502079098E+01  0.50400000000E-02 0.  1.
         24    2    1    2    0    0  0.17763568394E-14  0.00000000000E+00  0.23392347606E+03  0.24662388990E+03  0.78122662615E+02 0.  0.
         66    2    3    3    0    0  0.13935569965E+02 -0.31676988703E+02  0.17405033238E+03  0.17746872941E+03  0.19999981641E+01 0.  0.
        -13    1    3    3    0    0 -0.13935569965E+02  0.31676988703E+02  0.59873143680E+02  0.69155160485E+02  0.10566000000E+00 0.  1.
         13    1    4    4    0    0  0.45347819357E+01 -0.90133477089E+01  0.47508685885E+02  0.48568416514E+02  0.10566000000E+00 0. -1.
        -13    1    4    4    0    0  0.67622566054E+01 -0.17077597591E+02  0.94832440741E+02  0.96594903772E+02  0.10566000000E+00 0.  1.
        -14    1    4    4    0    0  0.26385314234E+01 -0.55860434036E+01  0.31709205756E+02  0.32305409124E+02  0.00000000000E+00 0.  1.
<mgrwt>
<rscale>  0 0.78122663E+02</rscale>
<asrwt>0</asrwt>
<pdfrwt beam="1">  1        2 0.36965178E-01 0.78122663E+02</pdfrwt>
<pdfrwt beam="2">  1       -1 0.97695502E-03 0.78122663E+02</pdfrwt>
<totfact> 0.25047127E+05</totfact>
</mgrwt>
</event>
<event>
 8    1  0.2561077E-016  0.7854515E+02  0.7818608E-02  0.1333232E+00
         -1   -1    0    0    0  501 -0.00000000000E+00  0.00000000000E+00  0.20332600792E+01  0.20332663257E+01  0.50400000000E-02 0.  1.
          2   -1    0    0  501    0  0.00000000000E+00 -0.00000000000E+00 -0.75855163108E+03  0.75855163108E+03  0.25500000000E-02 0. -1.
         24    2    1    2    0    0 -0.71054273576E-14  0.00000000000E+00 -0.75651837100E+03  0.76058489741E+03  0.78545149478E+02 0.  0.
         66    2    3    3    0    0  0.26115344615E+02 -0.10728510193E+02 -0.64249312635E+03  0.64311626441E+03  0.19999991591E+01 0.  0.
        -13    1    3    3    0    0 -0.26115344615E+02  0.10728510193E+02 -0.11402524465E+03  0.11746863299E+03  0.10566000000E+00 0.  1.
         13    1    4    4    0    0  0.26669091953E+01 -0.10266579633E+01 -0.59590837413E+02  0.59659412492E+02  0.10566000000E+00 0. -1.
        -13    1    4    4    0    0  0.41710826830E+01 -0.10497510276E+01 -0.97664804045E+02  0.97759526499E+02  0.10566000000E+00 0.  1.
         14    1    4    4    0    0  0.19277352736E+02 -0.86521012025E+01 -0.48523748489E+03  0.48569732542E+03  0.00000000000E+00 0. -1.
<mgrwt>
<rscale>  0 0.78545149E+02</rscale>
<asrwt>0</asrwt>
<pdfrwt beam="1">  1        2 0.11670003E+00 0.78545149E+02</pdfrwt>
<pdfrwt beam="2">  1       -1 0.31281033E-03 0.78545149E+02</pdfrwt>
<totfact> 0.35690055E+05</totfact>
</mgrwt>
</event>
<event>
 8    1  0.2561077E-016  0.7531633E+02  0.7818608E-02  0.1342894E+00
         -1   -1    0    0    0  501 -0.00000000000E+00  0.00000000000E+00  0.10864306556E+02  0.10864307725E+02  0.50400000000E-02 0.  1.
          2   -1    0    0  501    0  0.00000000000E+00 -0.00000000000E+00 -0.13053177539E+03  0.13053177541E+03  0.25500000000E-02 0. -1.
         24    2    1    2    0    0  0.00000000000E+00  0.00000000000E+00 -0.11966746883E+03  0.14139608314E+03  0.75316327780E+02 0.  0.
         66    2    3    3    0    0 -0.86885684807E+01  0.50256895331E+01 -0.12796441738E+03  0.12837305366E+03  0.20000029580E+01 0.  0.
        -13    1    3    3    0    0  0.86885684807E+01 -0.50256895331E+01  0.82969485516E+01  0.13023029480E+02  0.10566000000E+00 0.  1.
         13    1    4    4    0    0 -0.19040220050E+00  0.34350899915E+00 -0.31290842440E+01  0.31554054687E+01  0.10566000000E+00 0. -1.
        -13    1    4    4    0    0 -0.77501666514E+00  0.16005274050E+00 -0.78582358833E+01  0.78986899511E+01  0.10566000000E+00 0. -1.
         14    1    4    4    0    0 -0.77231496151E+01  0.45221277934E+01 -0.11697709726E+03  0.11731895824E+03  0.00000000000E+00 0. -1.
<mgrwt>
<rscale>  0 0.75316328E+02</rscale>
<asrwt>0</asrwt>
<pdfrwt beam="1">  1        2 0.20081811E-01 0.75316328E+02</pdfrwt>
<pdfrwt beam="2">  1       -1 0.16714320E-02 0.75316328E+02</pdfrwt>
<totfact> 0.22497305E+05</totfact>
</mgrwt>
</event>
<event>
 8    1  0.2561077E-016  0.7804690E+02  0.7818608E-02  0.1334687E+00
          2   -1    0    0  501    0  0.00000000000E+00  0.00000000000E+00  0.49832447314E+03  0.49832447315E+03  0.25500000000E-02 0. -1.
         -1   -1    0    0    0  501 -0.00000000000E+00 -0.00000000000E+00 -0.30558979529E+01  0.30559021091E+01  0.50400000000E-02 0.  1.
         24    2    1    2    0    0  0.00000000000E+00  0.00000000000E+00  0.49526857519E+03  0.50138037525E+03  0.78046903357E+02 0.  0.
         66    2    3    3    0    0 -0.63933044848E+01 -0.37841602766E+02  0.29228697980E+03  0.29480254374E+03  0.19999988120E+01 0.  0.
        -13    1    3    3    0    0  0.63933044848E+01  0.37841602766E+02  0.20298159539E+03  0.20657783151E+03  0.10566000000E+00 0.  1.
         13    1    4    4    0    0 -0.17758406754E+01 -0.89547106230E+01  0.65215127688E+02  0.65851078168E+02  0.10566000000E+00 0. -1.
        -13    1    4    4    0    0 -0.14940301875E+01 -0.12862416590E+02  0.99211373200E+02  0.10005289413E+03  0.10566000000E+00 0.  1.
        -14    1    4    4    0    0 -0.31234336218E+01 -0.16024475552E+02  0.12786047891E+03  0.12889857145E+03  0.00000000000E+00 0.  1.
<mgrwt>
<rscale>  0 0.78046903E+02</rscale>
<asrwt>0</asrwt>
<pdfrwt beam="1">  1        2 0.76665305E-01 0.78046903E+02</pdfrwt>
<pdfrwt beam="2">  1       -1 0.47013846E-03 0.78046903E+02</pdfrwt>
<totfact> 0.32440250E+05</totfact>
</mgrwt>
</event>
<event>
 8    1  0.2561077E-016  0.7972039E+02  0.7818608E-02  0.1329847E+00
          2   -1    0    0  501    0  0.00000000000E+00  0.00000000000E+00  0.43607803203E+01  0.43607810658E+01  0.25500000000E-02 0. -1.
         -1   -1    0    0    0  501 -0.00000000000E+00 -0.00000000000E+00 -0.36434645592E+03  0.36434645596E+03  0.50400000000E-02 0.  1.
         24    2    1    2    0    0 -0.22204460493E-15 -0.71054273576E-14 -0.35998567560E+03  0.36870723702E+03  0.79720386316E+02 0.  0.
         66    2    3    3    0    0 -0.17593706159E+01 -0.38660777192E+02 -0.13645423967E+03  0.14185031054E+03  0.19999997925E+01 0.  0.
        -13    1    3    3    0    0  0.17593706159E+01  0.38660777192E+02 -0.22353143593E+03  0.22685692648E+03  0.10566000000E+00 0.  1.
         13    1    4    4    0    0 -0.11098733049E+01 -0.11963445175E+02 -0.40020094412E+02  0.41784865202E+02  0.10566000000E+00 0. -1.
        -13    1    4    4    0    0  0.88262819046E-01 -0.25569538319E+01 -0.91994314017E+01  0.95491625483E+01  0.10566000000E+00 0.  1.
        -14    1    4    4    0    0 -0.73776013007E+00 -0.24140378185E+02 -0.87234713856E+02  0.90516282792E+02  0.00000000000E+00 0.  1.
<mgrwt>
<rscale>  0 0.79720386E+02</rscale>
<asrwt>0</asrwt>
<pdfrwt beam="1">  1        2 0.67088963E-03 0.79720386E+02</pdfrwt>
<pdfrwt beam="2">  1       -1 0.56053277E-01 0.79720386E+02</pdfrwt>
<totfact> 0.80094196E+04</totfact>
</mgrwt>
</event>
<event>
 8    1  0.2561077E-016  0.7966689E+02  0.7818608E-02  0.1329999E+00
         -1   -1    0    0    0  501 -0.00000000000E+00  0.00000000000E+00  0.79974336944E+02  0.79974337103E+02  0.50400000000E-02 0.  1.
          2   -1    0    0  501    0  0.00000000000E+00 -0.00000000000E+00 -0.19840157562E+02  0.19840157726E+02  0.25500000000E-02 0. -1.
         24    2    1    2    0    0  0.00000000000E+00  0.00000000000E+00  0.60134179381E+02  0.99814494829E+02  0.79666893049E+02 0.  0.
         66    2    3    3    0    0  0.17551801541E+02 -0.14996828824E+02  0.70717914062E+02  0.74417699442E+02  0.20000022172E+01 0.  0.
        -13    1    3    3    0    0 -0.17551801541E+02  0.14996828824E+02 -0.10583734681E+02  0.25396795387E+02  0.10566000000E+00 0.  1.
         13    1    4    4    0    0  0.66849636692E+01 -0.57057530205E+01  0.26340657815E+02  0.27768431266E+02  0.10566000000E+00 0. -1.
        -13    1    4    4    0    0  0.10164406366E+02 -0.84708426705E+01  0.42070435443E+02  0.44102188548E+02  0.10566000000E+00 0.  1.
        -14    1    4    4    0    0  0.70243150543E+00 -0.82023313265E+00  0.23068208040E+01  0.25470796284E+01  0.00000000000E+00 0.  1.
<mgrwt>
<rscale>  0 0.79666893E+02</rscale>
<asrwt>0</asrwt>
<pdfrwt beam="1">  1        2 0.30523320E-02 0.79666893E+02</pdfrwt>
<pdfrwt beam="2">  1       -1 0.12303744E-01 0.79666893E+02</pdfrwt>
<totfact> 0.12545038E+05</totfact>
</mgrwt>
</event>
<event>
 8    1  0.2561077E-016  0.7834439E+02  0.7818608E-02  0.1333817E+00
          2   -1    0    0  501    0  0.00000000000E+00  0.00000000000E+00  0.38666573905E+03  0.38666573906E+03  0.25500000000E-02 0. -1.
         -1   -1    0    0    0  501 -0.00000000000E+00 -0.00000000000E+00 -0.39684412302E+01  0.39684444306E+01  0.50400000000E-02 0.  1.
         24    2    1    2    0    0 -0.35527136788E-14  0.00000000000E+00  0.38269729782E+03  0.39063418349E+03  0.78344390684E+02 0.  0.
         66    2    3    3    0    0 -0.15517247389E+02 -0.34210346020E+02  0.24639347725E+03  0.24924862762E+03  0.19999999473E+01 0.  0.
        -13    1    3    3    0    0  0.15517247389E+02  0.34210346020E+02  0.13630382057E+03  0.14138555587E+03  0.10566000000E+00 0.  1.
         13    1    4    4    0    0 -0.14649278440E+00 -0.26563191586E+00  0.16770246522E+01  0.17075116897E+01  0.10566000000E+00 0.  1.
        -13    1    4    4    0    0 -0.26414563743E+01 -0.71692591164E+01  0.50675263932E+02  0.51248113201E+02  0.10566000000E+00 0.  1.
         14    1    4    4    0    0 -0.12729298230E+02 -0.26775454988E+02  0.19404118867E+03  0.19629300273E+03  0.00000000000E+00 0. -1.
<mgrwt>
<rscale>  0 0.78344391E+02</rscale>
<asrwt>0</asrwt>
<pdfrwt beam="1">  1        2 0.59487042E-01 0.78344391E+02</pdfrwt>
<pdfrwt beam="2">  1       -1 0.61052962E-03 0.78344391E+02</pdfrwt>
<totfact> 0.29485841E+05</totfact>
</mgrwt>
</event>
<event>
 8    1  0.2561077E-016  0.7917906E+02  0.7818608E-02  0.1331397E+00
         -1   -1    0    0    0  501 -0.00000000000E+00  0.00000000000E+00  0.11160134219E+02  0.11160135357E+02  0.50400000000E-02 0.  1.
          2   -1    0    0  501    0  0.00000000000E+00 -0.00000000000E+00 -0.14044013534E+03  0.14044013537E+03  0.25500000000E-02 0. -1.
         24    2    1    2    0    0  0.00000000000E+00  0.00000000000E+00 -0.12928000112E+03  0.15160027072E+03  0.79179059055E+02 0.  0.
         66    2    3    3    0    0  0.18917525671E+02  0.23007011401E+02 -0.11454044121E+03  0.11836683663E+03  0.19999976316E+01 0.  0.
        -13    1    3    3    0    0 -0.18917525671E+02 -0.23007011401E+02 -0.14739559916E+02  0.33233434093E+02  0.10566000000E+00 0.  1.
         13    1    4    4    0    0  0.84066397644E+01  0.11307361436E+02 -0.55756844153E+02  0.57509693520E+02  0.10566000000E+00 0.  1.
        -13    1    4    4    0    0  0.84088386294E+01  0.98384067992E+01 -0.48426752160E+02  0.50126483062E+02  0.10566000000E+00 0. -1.
        -14    1    4    4    0    0  0.21020472769E+01  0.18612431655E+01 -0.10356844896E+02  0.10730660048E+02  0.00000000000E+00 0.  1.
<mgrwt>
<rscale>  0 0.79179059E+02</rscale>
<asrwt>0</asrwt>
<pdfrwt beam="1">  1        2 0.21606173E-01 0.79179059E+02</pdfrwt>
<pdfrwt beam="2">  1       -1 0.17169439E-02 0.79179059E+02</pdfrwt>
<totfact> 0.20158246E+05</totfact>
</mgrwt>
</event>
<event>
 8    1  0.2561077E-016  0.8267953E+02  0.7818608E-02  0.1321615E+00
          2   -1    0    0  501    0  0.00000000000E+00  0.00000000000E+00  0.27251098480E+02  0.27251098599E+02  0.25500000000E-02 0. -1.
         -1   -1    0    0    0  501 -0.00000000000E+00 -0.00000000000E+00 -0.62712194317E+02  0.62712194520E+02  0.50400000000E-02 0.  1.
         24    2    1    2    0    0  0.00000000000E+00  0.17763568394E-14 -0.35461095837E+02  0.89963293119E+02  0.82679530664E+02 0.  0.
         66    2    3    3    0    0  0.26670203671E+02  0.14806195526E+02  0.12578710065E+02  0.33056726670E+02  0.20000103527E+01 0.  0.
        -13    1    3    3    0    0 -0.26670203671E+02 -0.14806195526E+02 -0.48039805903E+02  0.56906566449E+02  0.10566000000E+00 0.  1.
         13    1    4    4    0    0  0.55480203095E+01  0.33545799787E+01  0.28537919873E+01  0.70844215664E+01  0.10566000000E+00 0. -1.
        -13    1    4    4    0    0  0.11309199051E+02  0.52010405190E+01  0.50239411483E+01  0.13423857656E+02  0.10566000000E+00 0.  1.
        -14    1    4    4    0    0  0.98129843106E+01  0.62505750282E+01  0.47009769297E+01  0.12548447448E+02  0.00000000000E+00 0.  1.
<mgrwt>
<rscale>  0 0.82679531E+02</rscale>
<asrwt>0</asrwt>
<pdfrwt beam="1">  1        2 0.41924767E-02 0.82679531E+02</pdfrwt>
<pdfrwt beam="2">  1       -1 0.96480299E-02 0.82679531E+02</pdfrwt>
<totfact> 0.12029094E+05</totfact>
</mgrwt>
</event>
<event>
 8    1  0.2561077E-016  0.7861630E+02  0.7818608E-02  0.1333025E+00
          2   -1    0    0  501    0  0.00000000000E+00  0.00000000000E+00  0.37867156305E+01  0.37867164891E+01  0.25500000000E-02 0. -1.
         -1   -1    0    0    0  501 -0.00000000000E+00 -0.00000000000E+00 -0.40803971259E+03  0.40803971262E+03  0.50400000000E-02 0.  1.
         24    2    1    2    0    0  0.00000000000E+00  0.00000000000E+00 -0.40425299696E+03  0.41182642911E+03  0.78616297057E+02 0.  0.
         66    2    3    3    0    0  0.34786362726E+02  0.71323807240E+01 -0.29025077629E+03  0.29242174173E+03  0.20000033903E+01 0.  0.
        -13    1    3    3    0    0 -0.34786362726E+02 -0.71323807240E+01 -0.11400222067E+03  0.11940468738E+03  0.10566000000E+00 0.  1.
         13    1    4    4    0    0  0.11359607265E+02  0.19740912184E+01 -0.91108165817E+02  0.91834888555E+02  0.10566000000E+00 0. -1.
        -13    1    4    4    0    0  0.86286750439E+01  0.21798167666E+01 -0.78932048513E+02  0.79432267251E+02  0.10566000000E+00 0.  1.
         14    1    4    4    0    0  0.14798080417E+02  0.29784727390E+01 -0.12021056196E+03  0.12115458593E+03  0.00000000000E+00 0. -1.
<mgrwt>
<rscale>  0 0.78616297E+02</rscale>
<asrwt>0</asrwt>
<pdfrwt beam="1">  1        2 0.58257202E-03 0.78616297E+02</pdfrwt>
<pdfrwt beam="2">  1       -1 0.62775306E-01 0.78616297E+02</pdfrwt>
<totfact> 0.78463897E+04</totfact>
</mgrwt>
</event>
<event>
 8    1  0.2561077E-016  0.8310868E+02  0.7818608E-02  0.1320454E+00
          2   -1    0    0  501    0  0.00000000000E+00  0.00000000000E+00  0.18821098427E+03  0.18821098429E+03  0.25500000000E-02 0. -1.
         -1   -1    0    0    0  501 -0.00000000000E+00 -0.00000000000E+00 -0.91746131894E+01  0.91746145738E+01  0.50400000000E-02 0.  1.
         24    2    1    2    0    0  0.35527136788E-14  0.00000000000E+00  0.17903637108E+03  0.19738559886E+03  0.83108678657E+02 0.  0.
         66    2    3    3    0    0  0.26900441081E+02 -0.30736261848E+02  0.10740738386E+03  0.11492909823E+03  0.19999971678E+01 0.  0.
        -13    1    3    3    0    0 -0.26900441081E+02  0.30736261848E+02  0.71628987221E+02  0.82456500636E+02  0.10566000000E+00 0.  1.
         13    1    4    4    0    0  0.98401169792E+01 -0.10482888736E+02  0.39132601241E+02  0.41690412595E+02  0.10566000000E+00 0. -1.
        -13    1    4    4    0    0  0.27131677574E+01 -0.28657119907E+01  0.93654713164E+01  0.10163503407E+02  0.10566000000E+00 0. -1.
        -14    1    4    4    0    0  0.14347156345E+02 -0.17387661121E+02  0.58909311305E+02  0.63075182226E+02  0.00000000000E+00 0.  1.
<mgrwt>
<rscale>  0 0.83108679E+02</rscale>
<asrwt>0</asrwt>
<pdfrwt beam="1">  1        2 0.28955533E-01 0.83108679E+02</pdfrwt>
<pdfrwt beam="2">  1       -1 0.14114792E-02 0.83108679E+02</pdfrwt>
<totfact> 0.19527511E+05</totfact>
</mgrwt>
</event>
<event>
 8    1  0.2561077E-016  0.7907781E+02  0.7818608E-02  0.1331689E+00
         -1   -1    0    0    0  501 -0.00000000000E+00  0.00000000000E+00  0.54681493803E+01  0.54681517030E+01  0.50400000000E-02 0.  1.
          2   -1    0    0  501    0  0.00000000000E+00 -0.00000000000E+00 -0.28589650816E+03  0.28589650817E+03  0.25500000000E-02 0. -1.
         24    2    1    2    0    0  0.00000000000E+00  0.71054273576E-14 -0.28042835878E+03  0.29136465988E+03  0.79077813677E+02 0.  0.
         66    2    3    3    0    0 -0.82432504011E+01 -0.38571288980E+02 -0.13156521834E+03  0.13736485060E+03  0.19999982421E+01 0.  0.
        -13    1    3    3    0    0  0.82432504011E+01  0.38571288980E+02 -0.14886314044E+03  0.15399980928E+03  0.10566000000E+00 0.  1.
         13    1    4    4    0    0 -0.39868700136E+01 -0.18191398547E+02 -0.63699798104E+02  0.66366388753E+02  0.10566000000E+00 0. -1.
        -13    1    4    4    0    0  0.39323654687E-01 -0.75028926000E+00 -0.27883138912E+01  0.28896952634E+01  0.10566000000E+00 0.  1.
        -14    1    4    4    0    0 -0.42957040422E+01 -0.19629601172E+02 -0.65077106343E+02  0.68108766583E+02  0.00000000000E+00 0.  1.
<mgrwt>
<rscale>  0 0.79077814E+02</rscale>
<asrwt>0</asrwt>
<pdfrwt beam="1">  1        2 0.43984067E-01 0.79077814E+02</pdfrwt>
<pdfrwt beam="2">  1       -1 0.84125415E-03 0.79077814E+02</pdfrwt>
<totfact> 0.25826985E+05</totfact>
</mgrwt>
</event>
<event>
 8    1  0.2561077E-016  0.7899940E+02  0.7818608E-02  0.1331915E+00
          2   -1    0    0  501    0  0.00000000000E+00  0.00000000000E+00  0.69026449432E+01  0.69026454143E+01  0.25500000000E-02 0. -1.
         -1   -1    0    0    0  501 -0.00000000000E+00 -0.00000000000E+00 -0.22603312462E+03  0.22603312468E+03  0.50400000000E-02 0.  1.
         24    2    1    2    0    0  0.00000000000E+00  0.00000000000E+00 -0.21913047968E+03  0.23293577009E+03  0.78999404202E+02 0.  0.
         66    2    3    3    0    0  0.27010422269E+02  0.28327424221E+02 -0.94538199201E+02  0.10234000679E+03  0.20000018105E+01 0.  0.
        -13    1    3    3    0    0 -0.27010422269E+02 -0.28327424221E+02 -0.12459228048E+03  0.13059576330E+03  0.10566000000E+00 0.  1.
         13    1    4    4    0    0  0.19179101812E+02  0.20397578062E+02 -0.68113438208E+02  0.73643402730E+02  0.10566000000E+00 0.  1.
        -13    1    4    4    0    0  0.73681145730E+01  0.72210962303E+01 -0.23840674001E+02  0.25977340973E+02  0.10566000000E+00 0. -1.
        -14    1    4    4    0    0  0.46320588410E+00  0.70874992872E+00 -0.25840869918E+01  0.27192630865E+01  0.00000000000E+00 0.  1.
<mgrwt>
<rscale>  0 0.78999404E+02</rscale>
<asrwt>0</asrwt>
<pdfrwt beam="1">  1        2 0.10619456E-02 0.78999404E+02</pdfrwt>
<pdfrwt beam="2">  1       -1 0.34774321E-01 0.78999404E+02</pdfrwt>
<totfact> 0.98963682E+04</totfact>
</mgrwt>
</event>
<event>
 8    1  0.2561077E-016  0.8031549E+02  0.7818608E-02  0.1328159E+00
         -1   -1    0    0    0  501 -0.00000000000E+00  0.00000000000E+00  0.86003296491E+01  0.86003311259E+01  0.50400000000E-02 0.  1.
          2   -1    0    0  501    0  0.00000000000E+00 -0.00000000000E+00 -0.18750958982E+03  0.18750958983E+03  0.25500000000E-02 0. -1.
         24    2    1    2    0    0  0.00000000000E+00 -0.44408920985E-15 -0.17890926017E+03  0.19610992096E+03  0.80315488701E+02 0.  0.
         66    2    3    3    0    0  0.12083566321E+02  0.29108524380E+01 -0.18268590831E+03  0.18311915993E+03  0.20000000203E+01 0.  0.
        -13    1    3    3    0    0 -0.12083566321E+02 -0.29108524380E+01  0.37766481445E+01  0.12990761032E+02  0.10566000000E+00 0.  1.
         13    1    4    4    0    0  0.83927554001E+01  0.23412625260E+01 -0.13336476195E+03  0.13364913298E+03  0.10566000000E+00 0. -1.
        -13    1    4    4    0    0  0.54406811012E-01 -0.76960982624E-01 -0.17582713478E+01  0.17639629423E+01  0.10566000000E+00 0.  1.
         14    1    4    4    0    0  0.36364041096E+01  0.64655089462E+00 -0.47562875017E+02  0.47706064004E+02  0.00000000000E+00 0. -1.
<mgrwt>
<rscale>  0 0.80315489E+02</rscale>
<asrwt>0</asrwt>
<pdfrwt beam="1">  1        2 0.28847626E-01 0.80315489E+02</pdfrwt>
<pdfrwt beam="2">  1       -1 0.13231279E-02 0.80315489E+02</pdfrwt>
<totfact> 0.21349967E+05</totfact>
</mgrwt>
</event>
<event>
 8    1  0.2561077E-016  0.7959951E+02  0.7818608E-02  0.1330192E+00
          2   -1    0    0  501    0  0.00000000000E+00  0.00000000000E+00  0.76468465232E+02  0.76468465274E+02  0.25500000000E-02 0. -1.
         -1   -1    0    0    0  501 -0.00000000000E+00 -0.00000000000E+00 -0.20714687721E+02  0.20714688334E+02  0.50400000000E-02 0.  1.
         24    2    1    2    0    0  0.00000000000E+00  0.00000000000E+00  0.55753777510E+02  0.97183153609E+02  0.79599507779E+02 0.  0.
         66    2    3    3    0    0  0.28887801375E+02 -0.25320767264E+02  0.40486255637E+02  0.55846067217E+02  0.20000012416E+01 0.  0.
        -13    1    3    3    0    0 -0.28887801375E+02  0.25320767264E+02  0.15267521874E+02  0.41337086392E+02  0.10566000000E+00 0.  1.
         13    1    4    4    0    0  0.45750678217E+01 -0.38190803231E+01  0.68223764702E+01  0.90593931819E+01  0.10566000000E+00 0. -1.
        -13    1    4    4    0    0  0.24950505774E+01 -0.26810311285E+01  0.33672125080E+01  0.49761922597E+01  0.10566000000E+00 0.  1.
         14    1    4    4    0    0  0.21817682976E+02 -0.18820655813E+02  0.30296666659E+02  0.41810481775E+02  0.00000000000E+00 0. -1.
<mgrwt>
<rscale>  0 0.79599508E+02</rscale>
<asrwt>0</asrwt>
<pdfrwt beam="1">  1        2 0.11764379E-01 0.79599508E+02</pdfrwt>
<pdfrwt beam="2">  1       -1 0.31868751E-02 0.79599508E+02</pdfrwt>
<totfact> 0.16729841E+05</totfact>
</mgrwt>
</event>
<event>
 8    1  0.2561077E-016  0.8138669E+02  0.7818608E-02  0.1325162E+00
         -1   -1    0    0    0  501 -0.00000000000E+00  0.00000000000E+00  0.28888904366E+01  0.28888948330E+01  0.50400000000E-02 0.  1.
          2   -1    0    0  501    0  0.00000000000E+00 -0.00000000000E+00 -0.57321214686E+03  0.57321214686E+03  0.25500000000E-02 0. -1.
         24    2    1    2    0    0  0.00000000000E+00 -0.17763568394E-14 -0.57032325642E+03  0.57610104170E+03  0.81386690735E+02 0.  0.
         66    2    3    3    0    0 -0.22344008658E+02  0.10944867835E+02 -0.51304966975E+03  0.51365650832E+03  0.20000125955E+01 0.  0.
        -13    1    3    3    0    0  0.22344008658E+02 -0.10944867835E+02 -0.57273586669E+02  0.62444533378E+02  0.10566000000E+00 0.  1.
         13    1    4    4    0    0 -0.20985996138E+01  0.87305317677E+00 -0.39231764949E+02  0.39297695699E+02  0.10566000000E+00 0. -1.
        -13    1    4    4    0    0 -0.12618157745E+01  0.38378747032E+00 -0.31350139911E+02  0.31378048193E+02  0.10566000000E+00 0.  1.
         14    1    4    4    0    0 -0.18983593270E+02  0.96880271876E+01 -0.44246776489E+03  0.44298076443E+03  0.00000000000E+00 0. -1.
<mgrwt>
<rscale>  0 0.81386691E+02</rscale>
<asrwt>0</asrwt>
<pdfrwt beam="1">  1        2 0.88186394E-01 0.81386691E+02</pdfrwt>
<pdfrwt beam="2">  1       -1 0.44444548E-03 0.81386691E+02</pdfrwt>
<totfact> 0.30358308E+05</totfact>
</mgrwt>
</event>
<event>
 8    1  0.2561077E-016  0.7900293E+02  0.7818608E-02  0.1331905E+00
          2   -1    0    0  501    0  0.00000000000E+00  0.00000000000E+00  0.37982916380E+03  0.37982916381E+03  0.25500000000E-02 0. -1.
         -1   -1    0    0    0  501 -0.00000000000E+00 -0.00000000000E+00 -0.41080709211E+01  0.41080740127E+01  0.50400000000E-02 0.  1.
         24    2    1    2    0    0  0.00000000000E+00  0.00000000000E+00  0.37572109288E+03  0.38393723783E+03  0.79002930020E+02 0.  0.
         66    2    3    3    0    0 -0.11822769791E+02 -0.24971215610E+02  0.32500769069E+03  0.32618604891E+03  0.20000010722E+01 0.  0.
        -13    1    3    3    0    0  0.11822769791E+02  0.24971215610E+02  0.50713402194E+02  0.57751188912E+02  0.10566000000E+00 0.  1.
         13    1    4    4    0    0 -0.50071661303E+01 -0.92851993012E+01  0.13052119854E+03  0.13094686354E+03  0.10566000000E+00 0. -1.
        -13    1    4    4    0    0 -0.38166552826E+00 -0.14419449656E+01  0.17885362619E+02  0.17947764036E+02  0.10566000000E+00 0.  1.
        -14    1    4    4    0    0 -0.64339381325E+01 -0.14244071344E+02  0.17660112953E+03  0.17729142134E+03  0.00000000000E+00 0.  1.
<mgrwt>
<rscale>  0 0.79002930E+02</rscale>
<asrwt>0</asrwt>
<pdfrwt beam="1">  1        2 0.58435265E-01 0.79002930E+02</pdfrwt>
<pdfrwt beam="2">  1       -1 0.63201106E-03 0.79002930E+02</pdfrwt>
<totfact> 0.28667861E+05</totfact>
</mgrwt>
</event>
<event>
 8    1  0.2561077E-016  0.8088067E+02  0.7818608E-02  0.1326571E+00
          2   -1    0    0  501    0  0.00000000000E+00  0.00000000000E+00  0.45236728926E+03  0.45236728927E+03  0.25500000000E-02 0. -1.
         -1   -1    0    0    0  501 -0.00000000000E+00 -0.00000000000E+00 -0.36152479542E+01  0.36152514673E+01  0.50400000000E-02 0.  1.
         24    2    1    2    0    0  0.71054273576E-14  0.35527136788E-14  0.44875204130E+03  0.45598254073E+03  0.80880670612E+02 0.  0.
         66    2    3    3    0    0  0.34030311639E+02  0.21721846607E+02  0.23508264277E+03  0.23853249184E+03  0.20000001683E+01 0.  0.
        -13    1    3    3    0    0 -0.34030311639E+02 -0.21721846607E+02  0.21366939853E+03  0.21745004889E+03  0.10566000000E+00 0.  1.
         13    1    4    4    0    0  0.26683411391E+02  0.16267079399E+02  0.18090676273E+03  0.18358619306E+03  0.10566000000E+00 0. -1.
        -13    1    4    4    0    0  0.56786189698E+01  0.40723023760E+01  0.42586416736E+02  0.43156047253E+02  0.10566000000E+00 0.  1.
         14    1    4    4    0    0  0.16682812775E+01  0.13824648323E+01  0.11589463306E+02  0.11790251531E+02  0.00000000000E+00 0. -1.
<mgrwt>
<rscale>  0 0.80880671E+02</rscale>
<asrwt>0</asrwt>
<pdfrwt beam="1">  1        2 0.69594982E-01 0.80880671E+02</pdfrwt>
<pdfrwt beam="2">  1       -1 0.55619215E-03 0.80880671E+02</pdfrwt>
<totfact> 0.28640050E+05</totfact>
</mgrwt>
</event>
<event>
 8    1  0.2561077E-016  0.7291273E+02  0.7818608E-02  0.1350459E+00
          2   -1    0    0  501    0  0.00000000000E+00  0.00000000000E+00  0.12621626456E+04  0.12621626456E+04  0.25500000000E-02 0. -1.
         -1   -1    0    0    0  501 -0.00000000000E+00 -0.00000000000E+00 -0.10530014316E+01  0.10530134930E+01  0.50400000000E-02 0.  1.
         24    2    1    2    0    0  0.00000000000E+00  0.00000000000E+00  0.12611096442E+04  0.12632156591E+04  0.72912733936E+02 0.  0.
         66    2    3    3    0    0  0.18515761546E+02 -0.10972347112E+02  0.11402295508E+04  0.11404344148E+04  0.19999992449E+01 0.  0.
        -13    1    3    3    0    0 -0.18515761546E+02  0.10972347112E+02  0.12088009336E+03  0.12278124434E+03  0.10566000000E+00 0.  1.
         13    1    4    4    0    0  0.95275756000E+00 -0.73470076469E+00  0.58262232714E+02  0.58274749738E+02  0.10566000000E+00 0. -1.
        -13    1    4    4    0    0  0.11406220804E+02 -0.56882560759E+01  0.67097032183E+03  0.67109138132E+03  0.10566000000E+00 0.  1.
        -14    1    4    4    0    0  0.61567831814E+01 -0.45493902714E+01  0.41099699630E+03  0.41106828374E+03  0.00000000000E+00 0.  1.
<mgrwt>
<rscale>  0 0.72912734E+02</rscale>
<asrwt>0</asrwt>
<pdfrwt beam="1">  1        2 0.19417930E+00 0.72912734E+02</pdfrwt>
<pdfrwt beam="2">  1       -1 0.16200079E-03 0.72912734E+02</pdfrwt>
<totfact> 0.44227968E+05</totfact>
</mgrwt>
</event>
<event>
 8    1  0.2561077E-016  0.8353120E+02  0.7818608E-02  0.1319319E+00
         -1   -1    0    0    0  501 -0.00000000000E+00  0.00000000000E+00  0.12162895816E+02  0.12162896860E+02  0.50400000000E-02 0.  1.
          2   -1    0    0  501    0  0.00000000000E+00 -0.00000000000E+00 -0.14341692290E+03  0.14341692292E+03  0.25500000000E-02 0. -1.
         24    2    1    2    0    0 -0.71054273576E-14  0.00000000000E+00 -0.13125402708E+03  0.15557981978E+03  0.83531195955E+02 0.  0.
         66    2    3    3    0    0 -0.41732672779E+02 -0.21322308280E+00 -0.64107646247E+02  0.76520923604E+02  0.20000001236E+01 0.  0.
        -13    1    3    3    0    0  0.41732672779E+02  0.21322308280E+00 -0.67146380834E+02  0.79058896176E+02  0.10566000000E+00 0.  1.
         13    1    4    4    0    0 -0.19830233810E+02  0.14092863869E+00 -0.29466588214E+02  0.35518291328E+02  0.10566000000E+00 0. -1.
        -13    1    4    4    0    0 -0.60564268489E+01 -0.45226043368E+00 -0.89085471640E+01  0.10782310619E+02  0.10566000000E+00 0.  1.
         14    1    4    4    0    0 -0.15846012120E+02  0.98108712190E-01 -0.25732510868E+02  0.30220321656E+02  0.00000000000E+00 0. -1.
<mgrwt>
<rscale>  0 0.83531196E+02</rscale>
<asrwt>0</asrwt>
<pdfrwt beam="1">  1        2 0.22064141E-01 0.83531196E+02</pdfrwt>
<pdfrwt beam="2">  1       -1 0.18712149E-02 0.83531196E+02</pdfrwt>
<totfact> 0.17599588E+05</totfact>
</mgrwt>
</event>
<event>
 8    1  0.2561077E-016  0.8107403E+02  0.7818608E-02  0.1326031E+00
          2   -1    0    0  501    0  0.00000000000E+00  0.00000000000E+00  0.25606166035E+02  0.25606166162E+02  0.25500000000E-02 0. -1.
         -1   -1    0    0    0  501 -0.00000000000E+00 -0.00000000000E+00 -0.64173978739E+02  0.64173978937E+02  0.50400000000E-02 0.  1.
         24    2    1    2    0    0  0.00000000000E+00  0.88817841970E-15 -0.38567812704E+02  0.89780145099E+02  0.81074029610E+02 0.  0.
         66    2    3    3    0    0  0.35591179049E+02  0.48163594817E+01  0.14605514920E+01  0.36000869825E+02  0.20000181741E+01 0.  0.
        -13    1    3    3    0    0 -0.35591179049E+02 -0.48163594817E+01 -0.40028364196E+02  0.53779275274E+02  0.10566000000E+00 0.  1.
         13    1    4    4    0    0  0.24099375587E+02  0.32182568038E+01  0.17697298971E+01  0.24377862672E+02  0.10566000000E+00 0. -1.
        -13    1    4    4    0    0  0.50172856822E+01  0.69730115429E+00 -0.43177577132E+00  0.50849757983E+01  0.10566000000E+00 0.  1.
         14    1    4    4    0    0  0.64745177806E+01  0.90080152359E+00  0.12259736630E+00  0.65380313544E+01  0.00000000000E+00 0. -1.
<mgrwt>
<rscale>  0 0.81074030E+02</rscale>
<asrwt>0</asrwt>
<pdfrwt beam="1">  1        2 0.39394102E-02 0.81074030E+02</pdfrwt>
<pdfrwt beam="2">  1       -1 0.98729198E-02 0.81074030E+02</pdfrwt>
<totfact> 0.12558629E+05</totfact>
</mgrwt>
</event>
<event>
 8    1  0.2561077E-016  0.8921713E+02  0.7818608E-02  0.1304759E+00
         -1   -1    0    0    0  501 -0.00000000000E+00  0.00000000000E+00  0.19547799080E+01  0.19547864053E+01  0.50400000000E-02 0.  1.
          2   -1    0    0  501    0  0.00000000000E+00 -0.00000000000E+00 -0.10179768388E+04  0.10179768388E+04  0.25500000000E-02 0. -1.
         24    2    1    2    0    0 -0.35527136788E-14  0.00000000000E+00 -0.10160220589E+04  0.10199316252E+04  0.89217128093E+02 0.  0.
         66    2    3    3    0    0  0.19347746172E+02  0.30653914304E+02 -0.80504064434E+03  0.80585881938E+03  0.19999980429E+01 0.  0.
        -13    1    3    3    0    0 -0.19347746172E+02 -0.30653914304E+02 -0.21098141455E+03  0.21407280582E+03  0.10566000000E+00 0.  1.
         13    1    4    4    0    0  0.10100863181E+02  0.16532198401E+02 -0.41305974463E+03  0.41351385081E+03  0.10566000000E+00 0. -1.
        -13    1    4    4    0    0  0.81495275474E+00  0.16273677347E+01 -0.40578755577E+02  0.40619687861E+02  0.10566000000E+00 0.  1.
        -14    1    4    4    0    0  0.84319302361E+01  0.12494348168E+02 -0.35140214414E+03  0.35172528070E+03  0.00000000000E+00 0.  1.
<mgrwt>
<rscale>  0 0.89217128E+02</rscale>
<asrwt>0</asrwt>
<pdfrwt beam="1">  1        2 0.15661140E+00 0.89217128E+02</pdfrwt>
<pdfrwt beam="2">  1       -1 0.30073668E-03 0.89217128E+02</pdfrwt>
<totfact> 0.26520088E+05</totfact>
</mgrwt>
</event>
<event>
 8    1  0.2561077E-016  0.8004348E+02  0.7818608E-02  0.1328928E+00
          2   -1    0    0  501    0  0.00000000000E+00  0.00000000000E+00  0.12734345570E+03  0.12734345572E+03  0.25500000000E-02 0. -1.
         -1   -1    0    0    0  501 -0.00000000000E+00 -0.00000000000E+00 -0.12578106577E+02  0.12578107587E+02  0.50400000000E-02 0.  1.
         24    2    1    2    0    0  0.00000000000E+00 -0.88817841970E-15  0.11476534912E+03  0.13992156331E+03  0.80043478936E+02 0.  0.
         66    2    3    3    0    0 -0.10874409142E+02  0.48131509864E+01  0.12417349726E+03  0.12475767159E+03  0.20000004949E+01 0.  0.
        -13    1    3    3    0    0  0.10874409142E+02 -0.48131509864E+01 -0.94081481406E+01  0.15163891719E+02  0.10566000000E+00 0.  1.
         13    1    4    4    0    0 -0.51420694666E+01  0.23202698072E+01  0.56774806554E+02  0.57054485833E+02  0.10566000000E+00 0. -1.
        -13    1    4    4    0    0 -0.35202637150E+01  0.86753140467E+00  0.34484345536E+02  0.34674574525E+02  0.10566000000E+00 0.  1.
        -14    1    4    4    0    0 -0.22120759605E+01  0.16253497746E+01  0.32914345169E+02  0.33028611231E+02  0.00000000000E+00 0.  1.
<mgrwt>
<rscale>  0 0.80043479E+02</rscale>
<asrwt>0</asrwt>
<pdfrwt beam="1">  1        2 0.19591300E-01 0.80043479E+02</pdfrwt>
<pdfrwt beam="2">  1       -1 0.19350935E-02 0.80043479E+02</pdfrwt>
<totfact> 0.18998050E+05</totfact>
</mgrwt>
</event>
<event>
 8    1  0.2561077E-016  0.7909637E+02  0.7818608E-02  0.1331636E+00
          2   -1    0    0  501    0  0.00000000000E+00  0.00000000000E+00  0.44197395163E+03  0.44197395164E+03  0.25500000000E-02 0. -1.
         -1   -1    0    0    0  501 -0.00000000000E+00 -0.00000000000E+00 -0.35388013947E+01  0.35388049837E+01  0.50400000000E-02 0.  1.
         24    2    1    2    0    0  0.00000000000E+00  0.00000000000E+00  0.43843515024E+03  0.44551275663E+03  0.79096367491E+02 0.  0.
         66    2    3    3    0    0  0.27037684325E+02 -0.22451778912E+02  0.32120109942E+03  0.32312422536E+03  0.19999987758E+01 0.  0.
        -13    1    3    3    0    0 -0.27037684325E+02  0.22451778912E+02  0.11723405082E+03  0.12238853126E+03  0.10566000000E+00 0.  1.
         13    1    4    4    0    0  0.16055759121E+02 -0.12651647695E+02  0.18179066327E+03  0.18293634960E+03  0.10566000000E+00 0. -1.
        -13    1    4    4    0    0  0.59667132997E+01 -0.53198140301E+01  0.79674726205E+02  0.80074810327E+02  0.10566000000E+00 0.  1.
         14    1    4    4    0    0  0.50152119039E+01 -0.44803171873E+01  0.59735709952E+02  0.60113065435E+02  0.00000000000E+00 0. -1.
<mgrwt>
<rscale>  0 0.79096367E+02</rscale>
<asrwt>0</asrwt>
<pdfrwt beam="1">  1        2 0.67995946E-01 0.79096367E+02</pdfrwt>
<pdfrwt beam="2">  1       -1 0.54443164E-03 0.79096367E+02</pdfrwt>
<totfact> 0.30119899E+05</totfact>
</mgrwt>
</event>
<event>
 8    1  0.2561077E-016  0.8080862E+02  0.7818608E-02  0.1326772E+00
         -1   -1    0    0    0  501 -0.00000000000E+00  0.00000000000E+00  0.34282316604E+01  0.34282353652E+01  0.50400000000E-02 0.  1.
          2   -1    0    0  501    0  0.00000000000E+00 -0.00000000000E+00 -0.47619511775E+03  0.47619511776E+03  0.25500000000E-02 0. -1.
         24    2    1    2    0    0  0.71054273576E-14 -0.35527136788E-14 -0.47276688609E+03  0.47962335312E+03  0.80808615118E+02 0.  0.
         66    2    3    3    0    0  0.33202067908E+02 -0.22363289379E+02 -0.26793957485E+03  0.27092085525E+03  0.20000030844E+01 0.  0.
        -13    1    3    3    0    0 -0.33202067908E+02  0.22363289379E+02 -0.20482731124E+03  0.20870249787E+03  0.10566000000E+00 0.  1.
         13    1    4    4    0    0  0.21620235237E+02 -0.15274871400E+02 -0.17689570863E+03  0.17886547784E+03  0.10566000000E+00 0. -1.
        -13    1    4    4    0    0  0.72566546113E+01 -0.47218600234E+01 -0.55545314791E+02  0.56216084509E+02  0.10566000000E+00 0.  1.
        -14    1    4    4    0    0  0.43251780597E+01 -0.23665579557E+01 -0.35498551433E+02  0.35839292901E+02  0.00000000000E+00 0.  1.
<mgrwt>
<rscale>  0 0.80808615E+02</rscale>
<asrwt>0</asrwt>
<pdfrwt beam="1">  1        2 0.73260735E-01 0.80808615E+02</pdfrwt>
<pdfrwt beam="2">  1       -1 0.52742092E-03 0.80808615E+02</pdfrwt>
<totfact> 0.29199197E+05</totfact>
</mgrwt>
</event>
<event>
 8    1  0.2561077E-016  0.8004712E+02  0.7818608E-02  0.1328918E+00
          2   -1    0    0  501    0  0.00000000000E+00  0.00000000000E+00  0.10363206356E+03  0.10363206359E+03  0.25500000000E-02 0. -1.
         -1   -1    0    0    0  501 -0.00000000000E+00 -0.00000000000E+00 -0.15457429714E+02  0.15457430536E+02  0.50400000000E-02 0.  1.
         24    2    1    2    0    0  0.00000000000E+00  0.35527136788E-14  0.88174633844E+02  0.11908949413E+03  0.80047120857E+02 0.  0.
         66    2    3    3    0    0  0.23434414211E+02 -0.22642046171E+02  0.78624177513E+02  0.85132809888E+02  0.20000013882E+01 0.  0.
        -13    1    3    3    0    0 -0.23434414211E+02  0.22642046171E+02  0.95504563308E+01  0.33956684237E+02  0.10566000000E+00 0.  1.
         13    1    4    4    0    0  0.12882796173E+02 -0.13356063648E+02  0.44403626549E+02  0.48125295720E+02  0.10566000000E+00 0. -1.
        -13    1    4    4    0    0  0.22222978519E+01 -0.14966643955E+01  0.61746690404E+01  0.67317392886E+01  0.10566000000E+00 0.  1.
        -14    1    4    4    0    0  0.83293201864E+01 -0.77893181281E+01  0.28045881924E+02  0.30275774880E+02  0.00000000000E+00 0.  1.
<mgrwt>
<rscale>  0 0.80047121E+02</rscale>
<asrwt>0</asrwt>
<pdfrwt beam="1">  1        2 0.15943395E-01 0.80047121E+02</pdfrwt>
<pdfrwt beam="2">  1       -1 0.23780661E-02 0.80047121E+02</pdfrwt>
<totfact> 0.17876742E+05</totfact>
</mgrwt>
</event>
<event>
 8    1  0.2561077E-016  0.7967263E+02  0.7818608E-02  0.1329983E+00
          2   -1    0    0  501    0  0.00000000000E+00  0.00000000000E+00  0.95510652843E+02  0.95510652877E+02  0.25500000000E-02 0. -1.
         -1   -1    0    0    0  501 -0.00000000000E+00 -0.00000000000E+00 -0.16615235416E+02  0.16615236181E+02  0.50400000000E-02 0.  1.
         24    2    1    2    0    0  0.14210854715E-13  0.00000000000E+00  0.78895417427E+02  0.11212588906E+03  0.79672630847E+02 0.  0.
         66    2    3    3    0    0  0.35324971922E+02 -0.10747135803E+02  0.60421081071E+02  0.70838277876E+02  0.20000013451E+01 0.  0.
        -13    1    3    3    0    0 -0.35324971922E+02  0.10747135803E+02  0.18474336355E+02  0.41287611182E+02  0.10566000000E+00 0.  1.
         13    1    4    4    0    0  0.12276628332E+02 -0.36571171330E+01  0.22363056967E+02  0.25772225164E+02  0.10566000000E+00 0. -1.
        -13    1    4    4    0    0  0.26533566157E+01 -0.74319560065E+00  0.49369609945E+01  0.56548553411E+01  0.10566000000E+00 0.  1.
        -14    1    4    4    0    0  0.20394986974E+02 -0.63468230698E+01  0.33121063109E+02  0.39411197371E+02  0.00000000000E+00 0.  1.
<mgrwt>
<rscale>  0 0.79672631E+02</rscale>
<asrwt>0</asrwt>
<pdfrwt beam="1">  1        2 0.14693946E-01 0.79672631E+02</pdfrwt>
<pdfrwt beam="2">  1       -1 0.25561902E-02 0.79672631E+02</pdfrwt>
<totfact> 0.17694845E+05</totfact>
</mgrwt>
</event>
<event>
 8    1  0.2561077E-016  0.8048139E+02  0.7818608E-02  0.1327691E+00
         -1   -1    0    0    0  501 -0.00000000000E+00  0.00000000000E+00  0.59272386278E+01  0.59272407706E+01  0.50400000000E-02 0.  1.
          2   -1    0    0  501    0  0.00000000000E+00 -0.00000000000E+00 -0.27319859543E+03  0.27319859545E+03  0.25500000000E-02 0. -1.
         24    2    1    2    0    0  0.22204460493E-15  0.00000000000E+00 -0.26727135681E+03  0.27912583622E+03  0.80481390859E+02 0.  0.
         66    2    3    3    0    0 -0.19086087568E+01  0.15864838971E+02 -0.26171172465E+03  0.26220671754E+03  0.20000005928E+01 0.  0.
        -13    1    3    3    0    0  0.19086087568E+01 -0.15864838971E+02 -0.55596321572E+01  0.16919118675E+02  0.10566000000E+00 0.  1.
         13    1    4    4    0    0 -0.36908919294E+00  0.10820554434E+02 -0.17669197133E+03  0.17702340106E+03  0.10566000000E+00 0. -1.
        -13    1    4    4    0    0 -0.72860563489E+00  0.23674348304E+01 -0.39859467891E+02  0.39936499076E+02  0.10566000000E+00 0.  1.
         14    1    4    4    0    0 -0.81091392897E+00  0.26768497066E+01 -0.45160285424E+02  0.45246817405E+02  0.00000000000E+00 0. -1.
<mgrwt>
<rscale>  0 0.80481391E+02</rscale>
<asrwt>0</asrwt>
<pdfrwt beam="1">  1        2 0.42030543E-01 0.80481391E+02</pdfrwt>
<pdfrwt beam="2">  1       -1 0.91188325E-03 0.80481391E+02</pdfrwt>
<totfact> 0.24259475E+05</totfact>
</mgrwt>
</event>
<event>
 8    1  0.2561077E-016  0.7941569E+02  0.7818608E-02  0.1330718E+00
          2   -1    0    0  501    0  0.00000000000E+00  0.00000000000E+00  0.45934844674E+03  0.45934844675E+03  0.25500000000E-02 0. -1.
         -1   -1    0    0    0  501 -0.00000000000E+00 -0.00000000000E+00 -0.34324965695E+01  0.34325002697E+01  0.50400000000E-02 0.  1.
         24    2    1    2    0    0  0.35527136788E-14  0.00000000000E+00  0.45591595017E+03  0.46278094702E+03  0.79415686749E+02 0.  0.
         66    2    3    3    0    0 -0.22742866702E+02 -0.17129825291E+02  0.38917670130E+03  0.39022195443E+03  0.19999975146E+01 0.  0.
        -13    1    3    3    0    0  0.22742866702E+02  0.17129825291E+02  0.66739248874E+02  0.72558992583E+02  0.10566000000E+00 0.  1.
         13    1    4    4    0    0 -0.25140799643E+00 -0.33831370760E+00  0.50529084434E+01  0.50715589239E+01  0.10566000000E+00 0. -1.
        -13    1    4    4    0    0 -0.18371047909E+01 -0.10774592485E+01  0.32960302670E+02  0.33029208113E+02  0.10566000000E+00 0.  1.
         14    1    4    4    0    0 -0.20654353915E+02 -0.15714052335E+02  0.35116349018E+03  0.35212118740E+03  0.00000000000E+00 0. -1.
<mgrwt>
<rscale>  0 0.79415687E+02</rscale>
<asrwt>0</asrwt>
<pdfrwt beam="1">  1        2 0.70668976E-01 0.79415687E+02</pdfrwt>
<pdfrwt beam="2">  1       -1 0.52807680E-03 0.79415687E+02</pdfrwt>
<totfact> 0.30192959E+05</totfact>
</mgrwt>
</event>
<event>
 8    1  0.2561077E-016  0.8206193E+02  0.7818608E-02  0.1323300E+00
         -1   -1    0    0    0  501 -0.00000000000E+00  0.00000000000E+00  0.58787948437E+02  0.58787948653E+02  0.50400000000E-02 0.  1.
          2   -1    0    0  501    0  0.00000000000E+00 -0.00000000000E+00 -0.28637504983E+02  0.28637505097E+02  0.25500000000E-02 0. -1.
         24    2    1    2    0    0  0.00000000000E+00 -0.71054273576E-14  0.30150443454E+02  0.87425453750E+02  0.82061932239E+02 0.  0.
         66    2    3    3    0    0 -0.98766380615E+01  0.33991949870E+02 -0.69699356982E+01  0.36132819309E+02  0.19999980610E+01 0.  0.
        -13    1    3    3    0    0  0.98766380615E+01 -0.33991949870E+02  0.37120379152E+02  0.51292634440E+02  0.10566000000E+00 0.  1.
         13    1    4    4    0    0 -0.63498903388E+01  0.21369172468E+02 -0.36242065207E+01  0.22585585585E+02  0.10566000000E+00 0. -1.
        -13    1    4    4    0    0 -0.42607530053E+00  0.12864507839E+01 -0.14843754766E+00  0.13673673692E+01  0.10566000000E+00 0.  1.
         14    1    4    4    0    0 -0.31006724222E+01  0.11336326619E+02 -0.31972916298E+01  0.12179866356E+02  0.00000000000E+00 0. -1.
<mgrwt>
<rscale>  0 0.82061932E+02</rscale>
<asrwt>0</asrwt>
<pdfrwt beam="1">  1        2 0.44057701E-02 0.82061932E+02</pdfrwt>
<pdfrwt beam="2">  1       -1 0.90442996E-02 0.82061932E+02</pdfrwt>
<totfact> 0.12410471E+05</totfact>
</mgrwt>
</event>
<event>
 8    1  0.2561077E-016  0.8031526E+02  0.7818608E-02  0.1328159E+00
          2   -1    0    0  501    0  0.00000000000E+00  0.00000000000E+00  0.39001035069E+02  0.39001035152E+02  0.25500000000E-02 0. -1.
         -1   -1    0    0    0  501 -0.00000000000E+00 -0.00000000000E+00 -0.41348527770E+02  0.41348528078E+02  0.50400000000E-02 0.  1.
         24    2    1    2    0    0  0.00000000000E+00  0.00000000000E+00 -0.23474927017E+01  0.80349563230E+02  0.80315263737E+02 0.  0.
         66    2    3    3    0    0  0.20684995555E+02 -0.24594191076E+02  0.22875077763E+02  0.39496992923E+02  0.19999978769E+01 0.  0.
        -13    1    3    3    0    0 -0.20684995555E+02  0.24594191076E+02 -0.25222570465E+02  0.40852570307E+02  0.10566000000E+00 0.  1.
         13    1    4    4    0    0  0.94792619180E+01 -0.10162849863E+02  0.10534404514E+02  0.17439173328E+02  0.10566000000E+00 0. -1.
        -13    1    4    4    0    0  0.29654234469E+01 -0.37606593493E+01  0.35630671775E+01  0.59701680637E+01  0.10566000000E+00 0.  1.
         14    1    4    4    0    0  0.82403101902E+01 -0.10670681863E+02  0.87776060708E+01  0.16087651531E+02  0.00000000000E+00 0. -1.
<mgrwt>
<rscale>  0 0.80315264E+02</rscale>
<asrwt>0</asrwt>
<pdfrwt beam="1">  1        2 0.60001592E-02 0.80315264E+02</pdfrwt>
<pdfrwt beam="2">  1       -1 0.63613120E-02 0.80315264E+02</pdfrwt>
<totfact> 0.14027919E+05</totfact>
</mgrwt>
</event>
<event>
 8    1  0.2561077E-016  0.8344281E+02  0.7818608E-02  0.1319556E+00
         -1   -1    0    0    0  501 -0.00000000000E+00  0.00000000000E+00  0.27177760986E+01  0.27177807718E+01  0.50400000000E-02 0.  1.
          2   -1    0    0  501    0  0.00000000000E+00 -0.00000000000E+00 -0.64047740631E+03  0.64047740632E+03  0.25500000000E-02 0. -1.
         24    2    1    2    0    0  0.00000000000E+00  0.00000000000E+00 -0.63775963021E+03  0.64319518709E+03  0.83442811340E+02 0.  0.
         66    2    3    3    0    0 -0.23824679711E+02  0.20798175036E+02 -0.52853476249E+03  0.52948387568E+03  0.20000002486E+01 0.  0.
        -13    1    3    3    0    0  0.23824679711E+02 -0.20798175036E+02 -0.10922486773E+03  0.11371131141E+03  0.10566000000E+00 0.  1.
         13    1    4    4    0    0 -0.36697798156E+01  0.34459660324E+01 -0.84929244310E+02  0.85078373685E+02  0.10566000000E+00 0. -1.
        -13    1    4    4    0    0 -0.14633909353E+02  0.12051950259E+02 -0.30448114331E+03  0.30507077638E+03  0.10566000000E+00 0.  1.
        -14    1    4    4    0    0 -0.55209905422E+01  0.53002587454E+01 -0.13912437487E+03  0.13933472561E+03  0.00000000000E+00 0.  1.
<mgrwt>
<rscale>  0 0.83442811E+02</rscale>
<asrwt>0</asrwt>
<pdfrwt beam="1">  1        2 0.98534865E-01 0.83442811E+02</pdfrwt>
<pdfrwt beam="2">  1       -1 0.41812027E-03 0.83442811E+02</pdfrwt>
<totfact> 0.29328711E+05</totfact>
</mgrwt>
</event>
<event>
 8    1  0.2561077E-016  0.7937228E+02  0.7818608E-02  0.1330842E+00
         -1   -1    0    0    0  501 -0.00000000000E+00  0.00000000000E+00  0.44699560533E+01  0.44699588946E+01  0.50400000000E-02 0.  1.
          2   -1    0    0  501    0  0.00000000000E+00 -0.00000000000E+00 -0.35235005462E+03  0.35235005463E+03  0.25500000000E-02 0. -1.
         24    2    1    2    0    0  0.00000000000E+00  0.00000000000E+00 -0.34788009857E+03  0.35682001352E+03  0.79372281512E+02 0.  0.
         66    2    3    3    0    0  0.33759271722E+02 -0.17265533161E+02 -0.22632169428E+03  0.22948484996E+03  0.19999994431E+01 0.  0.
        -13    1    3    3    0    0 -0.33759271722E+02  0.17265533161E+02 -0.12155840429E+03  0.12733516356E+03  0.10566000000E+00 0.  1.
         13    1    4    4    0    0  0.25988877141E+02 -0.12934102956E+02 -0.17080983803E+03  0.17325912584E+03  0.10566000000E+00 0. -1.
        -13    1    4    4    0    0  0.76865088530E+01 -0.42392266829E+01 -0.54017870766E+02  0.54726547373E+02  0.10566000000E+00 0.  1.
         14    1    4    4    0    0  0.83885728734E-01 -0.92203522283E-01 -0.14939854815E+01  0.14991767487E+01  0.00000000000E+00 0. -1.
<mgrwt>
<rscale>  0 0.79372282E+02</rscale>
<asrwt>0</asrwt>
<pdfrwt beam="1">  1        2 0.54207679E-01 0.79372282E+02</pdfrwt>
<pdfrwt beam="2">  1       -1 0.68768605E-03 0.79372282E+02</pdfrwt>
<totfact> 0.27576325E+05</totfact>
</mgrwt>
</event>
<event>
 8    1  0.2561077E-016  0.8309713E+02  0.7818608E-02  0.1320485E+00
         -1   -1    0    0    0  501 -0.00000000000E+00  0.00000000000E+00  0.18407436666E+01  0.18407505664E+01  0.50400000000E-02 0.  1.
          2   -1    0    0  501    0  0.00000000000E+00 -0.00000000000E+00 -0.93781652171E+03  0.93781652171E+03  0.25500000000E-02 0. -1.
         24    2    1    2    0    0  0.35527136788E-14 -0.35527136788E-14 -0.93597577804E+03  0.93965727228E+03  0.83097125489E+02 0.  0.
         66    2    3    3    0    0 -0.19180742604E+02 -0.24006630094E+02 -0.78408371347E+03  0.78468814755E+03  0.20000000805E+01 0.  0.
        -13    1    3    3    0    0  0.19180742604E+02  0.24006630094E+02 -0.15189206457E+03  0.15496912473E+03  0.10566000000E+00 0.  1.
         13    1    4    4    0    0 -0.14673971701E+02 -0.17700456168E+02 -0.58770207009E+03  0.58815165217E+03  0.10566000000E+00 0. -1.
        -13    1    4    4    0    0 -0.13142707595E+01 -0.16475821680E+01 -0.63038789652E+02  0.63074099276E+02  0.10566000000E+00 0.  1.
        -14    1    4    4    0    0 -0.31925001433E+01 -0.46585917578E+01 -0.13334285373E+03  0.13346239611E+03  0.00000000000E+00 0.  1.
<mgrwt>
<rscale>  0 0.83097125E+02</rscale>
<asrwt>0</asrwt>
<pdfrwt beam="1">  1        2 0.14427908E+00 0.83097125E+02</pdfrwt>
<pdfrwt beam="2">  1       -1 0.28319261E-03 0.83097125E+02</pdfrwt>
<totfact> 0.31786023E+05</totfact>
</mgrwt>
</event>
<event>
 8    1  0.2561077E-016  0.7552902E+02  0.7818608E-02  0.1342241E+00
          2   -1    0    0  501    0  0.00000000000E+00  0.00000000000E+00  0.19216470253E+02  0.19216470422E+02  0.25500000000E-02 0. -1.
         -1   -1    0    0    0  501 -0.00000000000E+00 -0.00000000000E+00 -0.74215402269E+02  0.74215402440E+02  0.50400000000E-02 0.  1.
         24    2    1    2    0    0  0.00000000000E+00 -0.35527136788E-14 -0.54998932016E+02  0.93431872862E+02  0.75529016567E+02 0.  0.
         66    2    3    3    0    0 -0.24552362404E+02  0.28584293844E+02 -0.24961642137E+02  0.45243385632E+02  0.20000027777E+01 0.  0.
        -13    1    3    3    0    0  0.24552362404E+02 -0.28584293844E+02 -0.30037289880E+02  0.48188487230E+02  0.10566000000E+00 0.  1.
         13    1    4    4    0    0 -0.15359095546E+02  0.17423504689E+02 -0.14981004657E+02  0.27639138847E+02  0.10566000000E+00 0. -1.
        -13    1    4    4    0    0 -0.63337288237E+01  0.83332753929E+01 -0.68783566799E+01  0.12525276613E+02  0.10566000000E+00 0.  1.
        -14    1    4    4    0    0 -0.28595380345E+01  0.28275137618E+01 -0.31022807998E+01  0.50789701717E+01  0.00000000000E+00 0.  1.
<mgrwt>
<rscale>  0 0.75529017E+02</rscale>
<asrwt>0</asrwt>
<pdfrwt beam="1">  1        2 0.29563801E-02 0.75529017E+02</pdfrwt>
<pdfrwt beam="2">  1       -1 0.11417754E-01 0.75529017E+02</pdfrwt>
<totfact> 0.14519867E+05</totfact>
</mgrwt>
</event>
<event>
 8    1  0.2561077E-016  0.7869266E+02  0.7818608E-02  0.1332803E+00
          2   -1    0    0  501    0  0.00000000000E+00  0.00000000000E+00  0.97378851640E+03  0.97378851641E+03  0.25500000000E-02 0. -1.
         -1   -1    0    0    0  501 -0.00000000000E+00 -0.00000000000E+00 -0.15898008021E+01  0.15898087910E+01  0.50400000000E-02 0.  1.
         24    2    1    2    0    0 -0.35527136788E-14  0.44408920985E-15  0.97219871560E+03  0.97537832520E+03  0.78692659433E+02 0.  0.
         66    2    3    3    0    0  0.21241435090E+02 -0.30722107552E+01  0.89478087065E+03  0.89504047033E+03  0.20000014545E+01 0.  0.
        -13    1    3    3    0    0 -0.21241435090E+02  0.30722107552E+01  0.77417844953E+02  0.80337854868E+02  0.10566000000E+00 0.  1.
         13    1    4    4    0    0  0.15749702922E+02 -0.20964499045E+01  0.69278957540E+03  0.69297175642E+03  0.10566000000E+00 0. -1.
        -13    1    4    4    0    0  0.18583649168E+01 -0.20831143343E+00  0.63203154868E+02  0.63230901173E+02  0.10566000000E+00 0.  1.
         14    1    4    4    0    0  0.36333672512E+01 -0.76744941723E+00  0.13878814037E+03  0.13883781273E+03  0.00000000000E+00 0. -1.
<mgrwt>
<rscale>  0 0.78692659E+02</rscale>
<asrwt>0</asrwt>
<pdfrwt beam="1">  1        2 0.14981367E+00 0.78692659E+02</pdfrwt>
<pdfrwt beam="2">  1       -1 0.24458527E-03 0.78692659E+02</pdfrwt>
<totfact> 0.36719775E+05</totfact>
</mgrwt>
</event>
<event>
 8    1  0.2561077E-016  0.8026412E+02  0.7818608E-02  0.1328304E+00
         -1   -1    0    0    0  501 -0.00000000000E+00  0.00000000000E+00  0.11870170206E+02  0.11870171276E+02  0.50400000000E-02 0.  1.
          2   -1    0    0  501    0  0.00000000000E+00 -0.00000000000E+00 -0.13568317288E+03  0.13568317290E+03  0.25500000000E-02 0. -1.
         24    2    1    2    0    0 -0.71054273576E-14  0.00000000000E+00 -0.12381300267E+03  0.14755334418E+03  0.80264124909E+02 0.  0.
         66    2    3    3    0    0 -0.17215868287E+02  0.28359427703E+02 -0.10337639442E+03  0.10858785456E+03  0.19999934111E+01 0.  0.
        -13    1    3    3    0    0  0.17215868287E+02 -0.28359427703E+02 -0.20436608253E+02  0.38965489621E+02  0.10566000000E+00 0.  1.
         13    1    4    4    0    0 -0.12937832001E+00  0.11552164105E+00 -0.56645020664E+00  0.60175898119E+00  0.10566000000E+00 0.  1.
        -13    1    4    4    0    0 -0.44446660122E+00  0.66502130166E+00 -0.20647734590E+01  0.22168124332E+01  0.10566000000E+00 0.  1.
         14    1    4    4    0    0 -0.16642023366E+02  0.27578884760E+02 -0.10074517075E+03  0.10576928314E+03  0.00000000000E+00 0. -1.
<mgrwt>
<rscale>  0 0.80264125E+02</rscale>
<asrwt>0</asrwt>
<pdfrwt beam="1">  1        2 0.20874333E-01 0.80264125E+02</pdfrwt>
<pdfrwt beam="2">  1       -1 0.18261802E-02 0.80264125E+02</pdfrwt>
<totfact> 0.19233052E+05</totfact>
</mgrwt>
</event>
<event>
 8    1  0.2561077E-016  0.8177258E+02  0.7818608E-02  0.1324095E+00
         -1   -1    0    0    0  501 -0.00000000000E+00  0.00000000000E+00  0.49015232206E+02  0.49015232465E+02  0.50400000000E-02 0.  1.
          2   -1    0    0  501    0  0.00000000000E+00 -0.00000000000E+00 -0.34105495134E+02  0.34105495230E+02  0.25500000000E-02 0. -1.
         24    2    1    2    0    0  0.71054273576E-14  0.17763568394E-14  0.14909737072E+02  0.83120727695E+02  0.81772581670E+02 0.  0.
         66    2    3    3    0    0 -0.39190613341E+02  0.10841137722E+02  0.33618094229E+01  0.40850167749E+02  0.20000003378E+01 0.  0.
        -13    1    3    3    0    0  0.39190613341E+02 -0.10841137722E+02  0.11547927649E+02  0.42270559946E+02  0.10566000000E+00 0.  1.
         13    1    4    4    0    0 -0.26097766500E+02  0.80696881763E+01  0.25994789824E+01  0.27440512724E+02  0.10566000000E+00 0. -1.
        -13    1    4    4    0    0 -0.12137941158E+02  0.25110953494E+01  0.77748202463E+00  0.12419776880E+02  0.10566000000E+00 0.  1.
         14    1    4    4    0    0 -0.95490568275E+00  0.26035419658E+00 -0.15151584161E-01  0.98987814459E+00  0.00000000000E+00 0. -1.
<mgrwt>
<rscale>  0 0.81772582E+02</rscale>
<asrwt>0</asrwt>
<pdfrwt beam="1">  1        2 0.52469993E-02 0.81772582E+02</pdfrwt>
<pdfrwt beam="2">  1       -1 0.75408050E-02 0.81772582E+02</pdfrwt>
<totfact> 0.12983617E+05</totfact>
</mgrwt>
</event>
<event>
 8    1  0.2561077E-016  0.7734522E+02  0.7818608E-02  0.1336759E+00
          2   -1    0    0  501    0  0.00000000000E+00  0.00000000000E+00  0.31843688591E+03  0.31843688592E+03  0.25500000000E-02 0. -1.
         -1   -1    0    0    0  501 -0.00000000000E+00 -0.00000000000E+00 -0.46965984477E+01  0.46966011520E+01  0.50400000000E-02 0.  1.
         24    2    1    2    0    0  0.00000000000E+00  0.35527136788E-14  0.31374028746E+03  0.32313348707E+03  0.77345216339E+02 0.  0.
         66    2    3    3    0    0 -0.16927416020E+02 -0.16952978001E+02  0.28366810058E+03  0.28468497001E+03  0.19999969506E+01 0.  0.
        -13    1    3    3    0    0  0.16927416020E+02  0.16952978001E+02  0.30072186882E+02  0.38448517060E+02  0.10566000000E+00 0.  1.
         13    1    4    4    0    0 -0.16897178103E+01 -0.18451623183E+01  0.23508498270E+02  0.23641497948E+02  0.10566000000E+00 0.  1.
        -13    1    4    4    0    0 -0.25373078723E+01 -0.23503816221E+01  0.40767991052E+02  0.40914575441E+02  0.10566000000E+00 0. -1.
        -14    1    4    4    0    0 -0.12700390337E+02 -0.12757434061E+02  0.21939161125E+03  0.22012889662E+03  0.00000000000E+00 0.  1.
<mgrwt>
<rscale>  0 0.77345216E+02</rscale>
<asrwt>0</asrwt>
<pdfrwt beam="1">  1        2 0.48990291E-01 0.77345216E+02</pdfrwt>
<pdfrwt beam="2">  1       -1 0.72255381E-03 0.77345216E+02</pdfrwt>
<totfact> 0.28453905E+05</totfact>
</mgrwt>
</event>
<event>
 8    1  0.2561077E-016  0.8149744E+02  0.7818608E-02  0.1324855E+00
          2   -1    0    0  501    0  0.00000000000E+00  0.00000000000E+00  0.99000453860E+03  0.99000453861E+03  0.25500000000E-02 0. -1.
         -1   -1    0    0    0  501 -0.00000000000E+00 -0.00000000000E+00 -0.16772189704E+01  0.16772265429E+01  0.50400000000E-02 0.  1.
         24    2    1    2    0    0  0.00000000000E+00  0.00000000000E+00  0.98832731963E+03  0.99168176515E+03  0.81497439208E+02 0.  0.
         66    2    3    3    0    0  0.26116437263E+02 -0.18448588051E+02  0.80134051120E+03  0.80198069402E+03  0.19999978859E+01 0.  0.
        -13    1    3    3    0    0 -0.26116437263E+02  0.18448588051E+02  0.18698680843E+03  0.18970107113E+03  0.10566000000E+00 0.  1.
         13    1    4    4    0    0  0.61538936597E+01 -0.40175559555E+01  0.18464685743E+03  0.18479308506E+03  0.10566000000E+00 0. -1.
        -13    1    4    4    0    0  0.18994705530E+02 -0.13289965628E+02  0.57516386138E+03  0.57563087184E+03  0.10566000000E+00 0.  1.
        -14    1    4    4    0    0  0.96783807349E+00 -0.11410664668E+01  0.41529792393E+02  0.41556737113E+02  0.00000000000E+00 0.  1.
<mgrwt>
<rscale>  0 0.81497439E+02</rscale>
<asrwt>0</asrwt>
<pdfrwt beam="1">  1        2 0.15230878E+00 0.81497439E+02</pdfrwt>
<pdfrwt beam="2">  1       -1 0.25803361E-03 0.81497439E+02</pdfrwt>
<totfact> 0.33558274E+05</totfact>
</mgrwt>
</event>
<event>
 8    1  0.2561077E-016  0.7895715E+02  0.7818608E-02  0.1332037E+00
         -1   -1    0    0    0  501 -0.00000000000E+00  0.00000000000E+00  0.14673869995E+01  0.14673956548E+01  0.50400000000E-02 0.  1.
          2   -1    0    0  501    0  0.00000000000E+00 -0.00000000000E+00 -0.10621281951E+04  0.10621281951E+04  0.25500000000E-02 0. -1.
         24    2    1    2    0    0  0.00000000000E+00  0.00000000000E+00 -0.10606608081E+04  0.10635955908E+04  0.78957145587E+02 0.  0.
         66    2    3    3    0    0  0.15613278393E+02 -0.14228788910E+02 -0.97952790454E+03  0.97975769897E+03  0.20000035169E+01 0.  0.
        -13    1    3    3    0    0 -0.15613278393E+02  0.14228788910E+02 -0.81132903570E+02  0.83837891802E+02  0.10566000000E+00 0.  1.
         13    1    4    4    0    0  0.76628956334E+01 -0.67337082540E+01 -0.48091771539E+03  0.48102590672E+03  0.10566000000E+00 0. -1.
        -13    1    4    4    0    0  0.63793446580E+01 -0.66581526690E+01 -0.42582635638E+03  0.42592619547E+03  0.10566000000E+00 0.  1.
        -14    1    4    4    0    0  0.15710381013E+01 -0.83692798701E+00 -0.72783832766E+02  0.72805596772E+02  0.00000000000E+00 0.  1.
<mgrwt>
<rscale>  0 0.78957146E+02</rscale>
<asrwt>0</asrwt>
<pdfrwt beam="1">  1        2 0.16340372E+00 0.78957146E+02</pdfrwt>
<pdfrwt beam="2">  1       -1 0.22575336E-03 0.78957146E+02</pdfrwt>
<totfact> 0.36494628E+05</totfact>
</mgrwt>
</event>
<event>
 8    1  0.2561077E-016  0.7937277E+02  0.7818608E-02  0.1330841E+00
          2   -1    0    0  501    0  0.00000000000E+00  0.00000000000E+00  0.78719468472E+02  0.78719468513E+02  0.25500000000E-02 0. -1.
         -1   -1    0    0    0  501 -0.00000000000E+00 -0.00000000000E+00 -0.20007871857E+02  0.20007872492E+02  0.50400000000E-02 0.  1.
         24    2    1    2    0    0  0.35527136788E-14  0.00000000000E+00  0.58711596615E+02  0.98727341005E+02  0.79372767905E+02 0.  0.
         66    2    3    3    0    0 -0.25517722380E+02 -0.30002446557E+02  0.35169038531E+02  0.52840914254E+02  0.19999982745E+01 0.  0.
        -13    1    3    3    0    0  0.25517722380E+02  0.30002446557E+02  0.23542558084E+02  0.45886426752E+02  0.10566000000E+00 0.  1.
         13    1    4    4    0    0 -0.17623402130E+02 -0.20229313462E+02  0.24483197995E+02  0.36321447850E+02  0.10566000000E+00 0. -1.
        -13    1    4    4    0    0 -0.51307471176E+00 -0.36842009711E+00  0.60994180330E+00  0.88440492243E+00  0.10566000000E+00 0.  1.
         14    1    4    4    0    0 -0.73812455375E+01 -0.94047129977E+01  0.10075898733E+02  0.15635061481E+02  0.00000000000E+00 0. -1.
<mgrwt>
<rscale>  0 0.79372768E+02</rscale>
<asrwt>0</asrwt>
<pdfrwt beam="1">  1        2 0.12110687E-01 0.79372768E+02</pdfrwt>
<pdfrwt beam="2">  1       -1 0.30781342E-02 0.79372768E+02</pdfrwt>
<totfact> 0.16983389E+05</totfact>
</mgrwt>
</event>
<event>
 8    1  0.2561077E-016  0.7983711E+02  0.7818608E-02  0.1329514E+00
          2   -1    0    0  501    0  0.00000000000E+00  0.00000000000E+00  0.32881401325E+02  0.32881401424E+02  0.25500000000E-02 0. -1.
         -1   -1    0    0    0  501 -0.00000000000E+00 -0.00000000000E+00 -0.48461777673E+02  0.48461777935E+02  0.50400000000E-02 0.  1.
         24    2    1    2    0    0  0.00000000000E+00  0.00000000000E+00 -0.15580376347E+02  0.81343179359E+02  0.79837113557E+02 0.  0.
         66    2    3    3    0    0 -0.17606738064E+02  0.23541701538E+02  0.19681747680E+02  0.35434166175E+02  0.20000010574E+01 0.  0.
        -13    1    3    3    0    0  0.17606738064E+02 -0.23541701538E+02 -0.35262124028E+02  0.45909013184E+02  0.10566000000E+00 0.  1.
         13    1    4    4    0    0 -0.10906071446E+02  0.15789334308E+02  0.12180027074E+02  0.22729049602E+02  0.10566000000E+00 0. -1.
        -13    1    4    4    0    0 -0.27231349825E+01  0.29194161254E+01  0.28340251193E+01  0.48970722946E+01  0.10566000000E+00 0.  1.
         14    1    4    4    0    0 -0.39775316349E+01  0.48329511047E+01  0.46676954872E+01  0.78080442780E+01  0.00000000000E+00 0. -1.
<mgrwt>
<rscale>  0 0.79837114E+02</rscale>
<asrwt>0</asrwt>
<pdfrwt beam="1">  1        2 0.50586771E-02 0.79837114E+02</pdfrwt>
<pdfrwt beam="2">  1       -1 0.74556581E-02 0.79837114E+02</pdfrwt>
<totfact> 0.13780080E+05</totfact>
</mgrwt>
</event>
<event>
 8    1  0.2561077E-016  0.7986544E+02  0.7818608E-02  0.1329434E+00
         -1   -1    0    0    0  501 -0.00000000000E+00  0.00000000000E+00  0.80818648501E+02  0.80818648658E+02  0.50400000000E-02 0.  1.
          2   -1    0    0  501    0  0.00000000000E+00 -0.00000000000E+00 -0.19730867143E+02  0.19730867308E+02  0.25500000000E-02 0. -1.
         24    2    1    2    0    0 -0.35527136788E-14 -0.88817841970E-15  0.61087781358E+02  0.10054951597E+03  0.79865437642E+02 0.  0.
         66    2    3    3    0    0  0.19003769057E+02  0.58132979029E+01 -0.13007393428E+02  0.23835477084E+02  0.20000032868E+01 0.  0.
        -13    1    3    3    0    0 -0.19003769057E+02 -0.58132979029E+01  0.74095174787E+02  0.76714038882E+02  0.10566000000E+00 0.  1.
         13    1    4    4    0    0  0.91216455226E+01  0.18672094814E+01 -0.55788159744E+01  0.10854733530E+02  0.10566000000E+00 0. -1.
        -13    1    4    4    0    0  0.73869069240E+01  0.28832153061E+01 -0.56568394546E+01  0.97411663089E+01  0.10566000000E+00 0.  1.
         14    1    4    4    0    0  0.24952166105E+01  0.10628731154E+01 -0.17717379994E+01  0.32395772457E+01  0.00000000000E+00 0. -1.
<mgrwt>
<rscale>  0 0.79865438E+02</rscale>
<asrwt>0</asrwt>
<pdfrwt beam="1">  1        2 0.30355180E-02 0.79865438E+02</pdfrwt>
<pdfrwt beam="2">  1       -1 0.12433638E-01 0.79865438E+02</pdfrwt>
<totfact> 0.12441758E+05</totfact>
</mgrwt>
</event>
<event>
 8    1  0.2561077E-016  0.7980416E+02  0.7818608E-02  0.1329608E+00
          2   -1    0    0  501    0  0.00000000000E+00  0.00000000000E+00  0.29055290299E+03  0.29055290300E+03  0.25500000000E-02 0. -1.
         -1   -1    0    0    0  501 -0.00000000000E+00 -0.00000000000E+00 -0.54798127596E+01  0.54798150773E+01  0.50400000000E-02 0.  1.
         24    2    1    2    0    0  0.00000000000E+00  0.00000000000E+00  0.28507309023E+03  0.29603271808E+03  0.79804156530E+02 0.  0.
         66    2    3    3    0    0 -0.30272776575E+02  0.24487939262E+02  0.11070033424E+03  0.11736551525E+03  0.19999995339E+01 0.  0.
        -13    1    3    3    0    0  0.30272776575E+02 -0.24487939262E+02  0.17437275598E+03  0.17866720282E+03  0.10566000000E+00 0.  1.
         13    1    4    4    0    0 -0.88575435904E+01  0.69087437415E+01  0.31030061736E+02  0.33000950197E+02  0.10566000000E+00 0. -1.
        -13    1    4    4    0    0 -0.91552045057E-01  0.15559393643E+00  0.49721248171E+00  0.53942148416E+00  0.10566000000E+00 0.  1.
        -14    1    4    4    0    0 -0.21323680940E+02  0.17423601585E+02  0.79173060027E+02  0.83825143573E+02  0.00000000000E+00 0.  1.
<mgrwt>
<rscale>  0 0.79804157E+02</rscale>
<asrwt>0</asrwt>
<pdfrwt beam="1">  1        2 0.44700455E-01 0.79804157E+02</pdfrwt>
<pdfrwt beam="2">  1       -1 0.84304814E-03 0.79804157E+02</pdfrwt>
<totfact> 0.25363251E+05</totfact>
</mgrwt>
</event>
<event>
 8    1  0.2561077E-016  0.8115127E+02  0.7818608E-02  0.1325816E+00
          2   -1    0    0  501    0  0.00000000000E+00  0.00000000000E+00  0.50584056491E+03  0.50584056492E+03  0.25500000000E-02 0. -1.
         -1   -1    0    0    0  501 -0.00000000000E+00 -0.00000000000E+00 -0.32547436086E+01  0.32547475108E+01  0.50400000000E-02 0.  1.
         24    2    1    2    0    0  0.00000000000E+00  0.00000000000E+00  0.50258582130E+03  0.50909531243E+03  0.81151274556E+02 0.  0.
         66    2    3    3    0    0 -0.10192441312E+02  0.25343326527E+00  0.49766569959E+03  0.49777414420E+03  0.19999992418E+01 0.  0.
        -13    1    3    3    0    0  0.10192441312E+02 -0.25343326527E+00  0.49201217095E+01  0.11321168226E+02  0.10566000000E+00 0.  1.
         13    1    4    4    0    0 -0.43511850784E+01  0.38980858594E+00  0.22048019893E+03  0.22052349998E+03  0.10566000000E+00 0. -1.
        -13    1    4    4    0    0 -0.53829454745E+01 -0.12932703426E+00  0.23055941058E+03  0.23062230117E+03  0.10566000000E+00 0.  1.
         14    1    4    4    0    0 -0.45831075928E+00 -0.70482864137E-02  0.46626090083E+02  0.46628343042E+02  0.00000000000E+00 0. -1.
<mgrwt>
<rscale>  0 0.81151275E+02</rscale>
<asrwt>0</asrwt>
<pdfrwt beam="1">  1        2 0.77821644E-01 0.81151275E+02</pdfrwt>
<pdfrwt beam="2">  1       -1 0.50072997E-03 0.81151275E+02</pdfrwt>
<totfact> 0.29445981E+05</totfact>
</mgrwt>
</event>
<event>
 8    1  0.2561077E-016  0.7994053E+02  0.7818608E-02  0.1329220E+00
          2   -1    0    0  501    0  0.00000000000E+00  0.00000000000E+00  0.17948963359E+03  0.17948963360E+03  0.25500000000E-02 0. -1.
         -1   -1    0    0    0  501 -0.00000000000E+00 -0.00000000000E+00 -0.89009147268E+01  0.89009161537E+01  0.50400000000E-02 0.  1.
         24    2    1    2    0    0  0.00000000000E+00  0.00000000000E+00  0.17058871886E+03  0.18839054976E+03  0.79940529371E+02 0.  0.
         66    2    3    3    0    0 -0.18563679679E+02 -0.28677358181E+02  0.13413709073E+03  0.13843323365E+03  0.19999984883E+01 0.  0.
        -13    1    3    3    0    0  0.18563679679E+02  0.28677358181E+02  0.36451628132E+02  0.49957316110E+02  0.10566000000E+00 0.  1.
         13    1    4    4    0    0 -0.12680409930E+01 -0.23723921486E+01  0.10030014141E+02  0.10385014211E+02  0.10566000000E+00 0. -1.
        -13    1    4    4    0    0 -0.34458210729E+01 -0.59793093123E+01  0.29429967772E+02  0.30228463240E+02  0.10566000000E+00 0.  1.
        -14    1    4    4    0    0 -0.13849817613E+02 -0.20325656720E+02  0.94677108814E+02  0.97819756196E+02  0.00000000000E+00 0.  1.
<mgrwt>
<rscale>  0 0.79940529E+02</rscale>
<asrwt>0</asrwt>
<pdfrwt beam="1">  1        2 0.27613789E-01 0.79940529E+02</pdfrwt>
<pdfrwt beam="2">  1       -1 0.13693716E-02 0.79940529E+02</pdfrwt>
<totfact> 0.21295767E+05</totfact>
</mgrwt>
</event>
<event>
 8    1  0.2561077E-016  0.6979691E+02  0.7818608E-02  0.1360785E+00
         -1   -1    0    0    0  501 -0.00000000000E+00  0.00000000000E+00  0.56000610566E+02  0.56000610793E+02  0.50400000000E-02 0.  1.
          2   -1    0    0  501    0  0.00000000000E+00 -0.00000000000E+00 -0.21748014969E+02  0.21748015119E+02  0.25500000000E-02 0. -1.
         24    2    1    2    0    0 -0.35527136788E-14  0.00000000000E+00  0.34252595597E+02  0.77748625912E+02  0.69796909144E+02 0.  0.
         66    2    3    3    0    0 -0.31047588223E+02  0.59819673696E+01  0.76292269732E+00  0.31690987859E+02  0.19999980864E+01 0.  0.
        -13    1    3    3    0    0  0.31047588223E+02 -0.59819673696E+01  0.33489672900E+02  0.46057638053E+02  0.10566000000E+00 0.  1.
         13    1    4    4    0    0 -0.38034774688E+01  0.84578804897E+00  0.44533074437E+00  0.39231724136E+01  0.10566000000E+00 0. -1.
        -13    1    4    4    0    0 -0.53071999218E+01  0.48116042808E+00  0.36353941160E+00  0.53423975242E+01  0.10566000000E+00 0.  1.
         14    1    4    4    0    0 -0.21936910832E+02  0.46550188926E+01 -0.45947458641E-01  0.22425417921E+02  0.00000000000E+00 0. -1.
<mgrwt>
<rscale>  0 0.69796909E+02</rscale>
<asrwt>0</asrwt>
<pdfrwt beam="1">  1        2 0.33458485E-02 0.69796909E+02</pdfrwt>
<pdfrwt beam="2">  1       -1 0.86154786E-02 0.69796909E+02</pdfrwt>
<totfact> 0.18541340E+05</totfact>
</mgrwt>
</event>
<event>
 8    1  0.2561077E-016  0.7369872E+02  0.7818608E-02  0.1347949E+00
         -1   -1    0    0    0  501 -0.00000000000E+00  0.00000000000E+00  0.14675976367E+01  0.14676062908E+01  0.50400000000E-02 0.  1.
          2   -1    0    0  501    0  0.00000000000E+00 -0.00000000000E+00 -0.92523415212E+03  0.92523415212E+03  0.25500000000E-02 0. -1.
         24    2    1    2    0    0  0.00000000000E+00  0.55511151231E-16 -0.92376655448E+03  0.92670175841E+03  0.73698723640E+02 0.  0.
         66    2    3    3    0    0  0.13181990268E+02  0.26042744175E+00 -0.89453292237E+03  0.89463231657E+03  0.19999876663E+01 0.  0.
        -13    1    3    3    0    0 -0.13181990268E+02 -0.26042744175E+00 -0.29233632111E+02  0.32069441846E+02  0.10566000000E+00 0.  1.
         13    1    4    4    0    0  0.33216584877E+01  0.65463344375E+00 -0.21866316922E+03  0.21868940235E+03  0.10566000000E+00 0. -1.
        -13    1    4    4    0    0  0.65706383332E+01 -0.14332458916E+00 -0.48684931684E+03  0.48689368686E+03  0.10566000000E+00 0.  1.
        -14    1    4    4    0    0  0.32896934469E+01 -0.25088141284E+00 -0.18902043631E+03  0.18904922736E+03  0.00000000000E+00 0.  1.
<mgrwt>
<rscale>  0 0.73698724E+02</rscale>
<asrwt>0</asrwt>
<pdfrwt beam="1">  1        2 0.14234325E+00 0.73698724E+02</pdfrwt>
<pdfrwt beam="2">  1       -1 0.22578566E-03 0.73698724E+02</pdfrwt>
<totfact> 0.43326203E+05</totfact>
</mgrwt>
</event>
<event>
 8    1  0.2561077E-016  0.7980070E+02  0.7818608E-02  0.1329618E+00
          2   -1    0    0  501    0  0.00000000000E+00  0.00000000000E+00  0.29256935819E+02  0.29256935930E+02  0.25500000000E-02 0. -1.
         -1   -1    0    0    0  501 -0.00000000000E+00 -0.00000000000E+00 -0.54415746610E+02  0.54415746844E+02  0.50400000000E-02 0.  1.
         24    2    1    2    0    0  0.00000000000E+00  0.00000000000E+00 -0.25158810791E+02  0.83672682773E+02  0.79800702265E+02 0.  0.
         66    2    3    3    0    0 -0.38921307449E+02  0.86243065834E+01 -0.11657567305E+02  0.41582997846E+02  0.19999992075E+01 0.  0.
        -13    1    3    3    0    0  0.38921307449E+02 -0.86243065834E+01 -0.13501243486E+02  0.42089684927E+02  0.10566000000E+00 0.  1.
         13    1    4    4    0    0 -0.62077465703E+01  0.19104173382E+01 -0.17515317017E+01  0.67279149240E+01  0.10566000000E+00 0. -1.
        -13    1    4    4    0    0 -0.23034056991E+02  0.47271790911E+01 -0.75511654782E+01  0.24697070023E+02  0.10566000000E+00 0.  1.
         14    1    4    4    0    0 -0.96795038877E+01  0.19867101540E+01 -0.23548701252E+01  0.10158012899E+02  0.00000000000E+00 0. -1.
<mgrwt>
<rscale>  0 0.79800702E+02</rscale>
<asrwt>0</asrwt>
<pdfrwt beam="1">  1        2 0.45010671E-02 0.79800702E+02</pdfrwt>
<pdfrwt beam="2">  1       -1 0.83716534E-02 0.79800702E+02</pdfrwt>
<totfact> 0.13482859E+05</totfact>
</mgrwt>
</event>
<event>
 8    1  0.2561077E-016  0.8037987E+02  0.7818608E-02  0.1327977E+00
          2   -1    0    0  501    0  0.00000000000E+00  0.00000000000E+00  0.12001358827E+02  0.12001359098E+02  0.25500000000E-02 0. -1.
         -1   -1    0    0    0  501 -0.00000000000E+00 -0.00000000000E+00 -0.13458734075E+03  0.13458734084E+03  0.50400000000E-02 0.  1.
         24    2    1    2    0    0 -0.35527136788E-14  0.00000000000E+00 -0.12258598192E+03  0.14658869994E+03  0.80379873020E+02 0.  0.
         66    2    3    3    0    0 -0.29492725212E+02  0.13803694038E+02 -0.18450116151E+02  0.37480256119E+02  0.20000008121E+01 0.  0.
        -13    1    3    3    0    0  0.29492725212E+02 -0.13803694038E+02 -0.10413586577E+03  0.10910844382E+03  0.10566000000E+00 0.  1.
         13    1    4    4    0    0 -0.75009146794E+01  0.35242661007E+01 -0.51630082436E+01  0.97648343937E+01  0.10566000000E+00 0.  1.
        -13    1    4    4    0    0 -0.11002002932E+02  0.43224312628E+01 -0.63205595993E+01  0.13404779678E+02  0.10566000000E+00 0. -1.
        -14    1    4    4    0    0 -0.10989807601E+02  0.59569966742E+01 -0.69665483083E+01  0.14310642047E+02  0.00000000000E+00 0.  1.
<mgrwt>
<rscale>  0 0.80379873E+02</rscale>
<asrwt>0</asrwt>
<pdfrwt beam="1">  1        2 0.18463630E-02 0.80379873E+02</pdfrwt>
<pdfrwt beam="2">  1       -1 0.20705744E-01 0.80379873E+02</pdfrwt>
<totfact> 0.10949843E+05</totfact>
</mgrwt>
</event>
<event>
 8    1  0.2561077E-016  0.8027670E+02  0.7818608E-02  0.1328268E+00
         -1   -1    0    0    0  501 -0.00000000000E+00  0.00000000000E+00  0.10020733145E+02  0.10020734413E+02  0.50400000000E-02 0.  1.
          2   -1    0    0  501    0  0.00000000000E+00 -0.00000000000E+00 -0.16077535343E+03  0.16077535345E+03  0.25500000000E-02 0. -1.
         24    2    1    2    0    0  0.44408920985E-15  0.00000000000E+00 -0.15075462028E+03  0.17079608786E+03  0.80276697067E+02 0.  0.
         66    2    3    3    0    0 -0.18227992614E+01 -0.11995792130E+02 -0.15677093580E+03  0.15725249740E+03  0.20000003749E+01 0.  0.
        -13    1    3    3    0    0  0.18227992614E+01  0.11995792130E+02  0.60163155205E+01  0.13543590456E+02  0.10566000000E+00 0.  1.
         13    1    4    4    0    0 -0.42026788268E+00 -0.61562499230E+01 -0.69848586508E+02  0.70120697654E+02  0.10566000000E+00 0. -1.
        -13    1    4    4    0    0 -0.13332317916E+01 -0.55522545950E+01 -0.80282889626E+02  0.80485766250E+02  0.10566000000E+00 0.  1.
         14    1    4    4    0    0 -0.69299587192E-01 -0.28728761185E+00 -0.66394596681E+01  0.66460335004E+01  0.00000000000E+00 0. -1.
<mgrwt>
<rscale>  0 0.80276697E+02</rscale>
<asrwt>0</asrwt>
<pdfrwt beam="1">  1        2 0.24734668E-01 0.80276697E+02</pdfrwt>
<pdfrwt beam="2">  1       -1 0.15416515E-02 0.80276697E+02</pdfrwt>
<totfact> 0.20300752E+05</totfact>
</mgrwt>
</event>
<event>
 8    1  0.2561077E-016  0.8489197E+02  0.7818608E-02  0.1315715E+00
         -1   -1    0    0    0  501 -0.00000000000E+00  0.00000000000E+00  0.38350393459E+01  0.38350426576E+01  0.50400000000E-02 0.  1.
          2   -1    0    0  501    0  0.00000000000E+00 -0.00000000000E+00 -0.46978936421E+03  0.46978936422E+03  0.25500000000E-02 0. -1.
         24    2    1    2    0    0 -0.35527136788E-14  0.00000000000E+00 -0.46595432486E+03  0.47362440687E+03  0.84891966214E+02 0.  0.
         66    2    3    3    0    0 -0.24358051349E+02 -0.25136100599E+02 -0.36683320213E+03  0.36850473053E+03  0.20000046384E+01 0.  0.
        -13    1    3    3    0    0  0.24358051349E+02  0.25136100599E+02 -0.99121122733E+02  0.10511967634E+03  0.10566000000E+00 0.  1.
         13    1    4    4    0    0 -0.15087436116E+02 -0.14803815305E+02 -0.22438403977E+03  0.22537744373E+03  0.10566000000E+00 0. -1.
        -13    1    4    4    0    0 -0.86718471575E+01 -0.92662637683E+01 -0.12926213833E+03  0.12988370239E+03  0.10566000000E+00 0.  1.
        -14    1    4    4    0    0 -0.59876807632E+00 -0.10660215252E+01 -0.13187024032E+02  0.13243584406E+02  0.00000000000E+00 0.  1.
<mgrwt>
<rscale>  0 0.84891966E+02</rscale>
<asrwt>0</asrwt>
<pdfrwt beam="1">  1        2 0.72275241E-01 0.84891966E+02</pdfrwt>
<pdfrwt beam="2">  1       -1 0.59000668E-03 0.84891966E+02</pdfrwt>
<totfact> 0.25551717E+05</totfact>
</mgrwt>
</event>
<event>
 8    1  0.2561077E-016  0.7772207E+02  0.7818608E-02  0.1335643E+00
          2   -1    0    0  501    0  0.00000000000E+00  0.00000000000E+00  0.93101186639E+02  0.93101186673E+02  0.25500000000E-02 0. -1.
         -1   -1    0    0    0  501 -0.00000000000E+00 -0.00000000000E+00 -0.16220846024E+02  0.16220846807E+02  0.50400000000E-02 0.  1.
         24    2    1    2    0    0  0.00000000000E+00  0.35527136788E-14  0.76880340615E+02  0.10932203348E+03  0.77722070425E+02 0.  0.
         66    2    3    3    0    0 -0.11662007757E+02 -0.19472186044E+02  0.82789602169E+02  0.85867844293E+02  0.20000004648E+01 0.  0.
        -13    1    3    3    0    0  0.11662007757E+02  0.19472186044E+02 -0.59092615547E+01  0.23454189187E+02  0.10566000000E+00 0.  1.
         13    1    4    4    0    0 -0.58844395718E+01 -0.96373674908E+01  0.40859629602E+02  0.42391343179E+02  0.10566000000E+00 0. -1.
        -13    1    4    4    0    0 -0.17663083104E+01 -0.21561929276E+01  0.87252013059E+01  0.91602027735E+01  0.10566000000E+00 0.  1.
        -14    1    4    4    0    0 -0.40112598749E+01 -0.76786256261E+01  0.33204771262E+02  0.34316298341E+02  0.00000000000E+00 0.  1.
<mgrwt>
<rscale>  0 0.77722070E+02</rscale>
<asrwt>0</asrwt>
<pdfrwt beam="1">  1        2 0.14323259E-01 0.77722070E+02</pdfrwt>
<pdfrwt beam="2">  1       -1 0.24955149E-02 0.77722070E+02</pdfrwt>
<totfact> 0.18777889E+05</totfact>
</mgrwt>
</event>
<event>
 8    1  0.2561077E-016  0.8160970E+02  0.7818608E-02  0.1324544E+00
          2   -1    0    0  501    0  0.00000000000E+00  0.00000000000E+00  0.14854410987E+03  0.14854410990E+03  0.25500000000E-02 0. -1.
         -1   -1    0    0    0  501 -0.00000000000E+00 -0.00000000000E+00 -0.11209031004E+02  0.11209032137E+02  0.50400000000E-02 0.  1.
         24    2    1    2    0    0  0.35527136788E-14  0.00000000000E+00  0.13733507887E+03  0.15975314203E+03  0.81609696122E+02 0.  0.
         66    2    3    3    0    0  0.17123776834E+02 -0.28202951613E+02  0.11562402222E+03  0.12025616294E+03  0.19999994085E+01 0.  0.
        -13    1    3    3    0    0 -0.17123776834E+02  0.28202951613E+02  0.21711056653E+02  0.39496979096E+02  0.10566000000E+00 0.  1.
         13    1    4    4    0    0  0.34844620824E+01 -0.61583438882E+01  0.26852853843E+02  0.27769652483E+02  0.10566000000E+00 0. -1.
        -13    1    4    4    0    0  0.30065433434E+01 -0.46896573369E+01  0.17433596478E+02  0.18302285076E+02  0.10566000000E+00 0.  1.
        -14    1    4    4    0    0  0.10632771408E+02 -0.17354950388E+02  0.71337571896E+02  0.74184225378E+02  0.00000000000E+00 0.  1.
<mgrwt>
<rscale>  0 0.81609696E+02</rscale>
<asrwt>0</asrwt>
<pdfrwt beam="1">  1        2 0.22852938E-01 0.81609696E+02</pdfrwt>
<pdfrwt beam="2">  1       -1 0.17244666E-02 0.81609696E+02</pdfrwt>
<totfact> 0.18937889E+05</totfact>
</mgrwt>
</event>
<event>
 8    1  0.2561077E-016  0.8023077E+02  0.7818608E-02  0.1328398E+00
          2   -1    0    0  501    0  0.00000000000E+00  0.00000000000E+00  0.91889801898E+01  0.91889805436E+01  0.25500000000E-02 0. -1.
         -1   -1    0    0    0  501 -0.00000000000E+00 -0.00000000000E+00 -0.17512761911E+03  0.17512761918E+03  0.50400000000E-02 0.  1.
         24    2    1    2    0    0  0.00000000000E+00  0.00000000000E+00 -0.16593863892E+03  0.18431659972E+03  0.80230773696E+02 0.  0.
         66    2    3    3    0    0 -0.37755975268E+02 -0.90129154893E+01 -0.59990872536E+02  0.71481823704E+02  0.20000046043E+01 0.  0.
        -13    1    3    3    0    0  0.37755975268E+02  0.90129154893E+01 -0.10594776638E+03  0.11283477602E+03  0.10566000000E+00 0.  1.
         13    1    4    4    0    0 -0.32566958597E+02 -0.74711686244E+01 -0.52090934536E+02  0.61886200221E+02  0.10566000000E+00 0. -1.
        -13    1    4    4    0    0 -0.88160545454E+00 -0.22013607144E+00 -0.10041470807E+01  0.13583679409E+01  0.10566000000E+00 0.  1.
         14    1    4    4    0    0 -0.43074112159E+01 -0.13216107935E+01 -0.68957909189E+01  0.82372555423E+01  0.00000000000E+00 0. -1.
<mgrwt>
<rscale>  0 0.80230774E+02</rscale>
<asrwt>0</asrwt>
<pdfrwt beam="1">  1        2 0.14136894E-02 0.80230774E+02</pdfrwt>
<pdfrwt beam="2">  1       -1 0.26942708E-01 0.80230774E+02</pdfrwt>
<totfact> 0.10276425E+05</totfact>
</mgrwt>
</event>
<event>
 8    1  0.2561077E-016  0.7938480E+02  0.7818608E-02  0.1330806E+00
          2   -1    0    0  501    0  0.00000000000E+00  0.00000000000E+00  0.11924716017E+02  0.11924716290E+02  0.25500000000E-02 0. -1.
         -1   -1    0    0    0  501 -0.00000000000E+00 -0.00000000000E+00 -0.13211943107E+03  0.13211943116E+03  0.50400000000E-02 0.  1.
         24    2    1    2    0    0  0.35527136788E-14  0.00000000000E+00 -0.12019471505E+03  0.14404414745E+03  0.79384802636E+02 0.  0.
         66    2    3    3    0    0 -0.31173960565E+02 -0.23998339320E+02 -0.69342230959E+02  0.79750116550E+02  0.19999970058E+01 0.  0.
        -13    1    3    3    0    0  0.31173960565E+02  0.23998339320E+02 -0.50852484090E+02  0.64294030902E+02  0.10566000000E+00 0.  1.
         13    1    4    4    0    0 -0.44752382265E+01 -0.35691049554E+01 -0.10349259768E+02  0.11827282408E+02  0.10566000000E+00 0. -1.
        -13    1    4    4    0    0 -0.12834445697E+02 -0.87174298415E+01 -0.26960226878E+02  0.31105973329E+02  0.10566000000E+00 0.  1.
        -14    1    4    4    0    0 -0.13864276642E+02 -0.11711804524E+02 -0.32032744312E+02  0.36816860814E+02  0.00000000000E+00 0.  1.
<mgrwt>
<rscale>  0 0.79384803E+02</rscale>
<asrwt>0</asrwt>
<pdfrwt beam="1">  1        2 0.18345718E-02 0.79384803E+02</pdfrwt>
<pdfrwt beam="2">  1       -1 0.20326065E-01 0.79384803E+02</pdfrwt>
<totfact> 0.11349176E+05</totfact>
</mgrwt>
</event>
<event>
 8    1  0.2561077E-016  0.7981222E+02  0.7818608E-02  0.1329585E+00
         -1   -1    0    0    0  501 -0.00000000000E+00  0.00000000000E+00  0.49493963848E+01  0.49493989509E+01  0.50400000000E-02 0.  1.
          2   -1    0    0  501    0  0.00000000000E+00 -0.00000000000E+00 -0.32175581397E+03  0.32175581398E+03  0.25500000000E-02 0. -1.
         24    2    1    2    0    0 -0.17763568394E-14  0.00000000000E+00 -0.31680641759E+03  0.32670521293E+03  0.79812216691E+02 0.  0.
         66    2    3    3    0    0 -0.53763810793E+01  0.33589739058E+02 -0.24371215049E+03  0.24608288916E+03  0.19999997875E+01 0.  0.
        -13    1    3    3    0    0  0.53763810793E+01 -0.33589739058E+02 -0.73094267101E+02  0.80622323773E+02  0.10566000000E+00 0.  1.
         13    1    4    4    0    0 -0.28484128913E+01  0.18688719018E+02 -0.13393139804E+03  0.13525905596E+03  0.10566000000E+00 0. -1.
        -13    1    4    4    0    0  0.14288978755E-01  0.14556270965E+01 -0.12660115730E+02  0.12743969113E+02  0.10566000000E+00 0.  1.
        -14    1    4    4    0    0 -0.25422571667E+01  0.13445392944E+02 -0.97120636715E+02  0.98079864084E+02  0.00000000000E+00 0.  1.
<mgrwt>
<rscale>  0 0.79812217E+02</rscale>
<asrwt>0</asrwt>
<pdfrwt beam="1">  1        2 0.49500878E-01 0.79812217E+02</pdfrwt>
<pdfrwt beam="2">  1       -1 0.76144605E-03 0.79812217E+02</pdfrwt>
<totfact> 0.26309219E+05</totfact>
</mgrwt>
</event>
<event>
 8    1  0.2561077E-016  0.8079387E+02  0.7818608E-02  0.1326814E+00
          2   -1    0    0  501    0  0.00000000000E+00  0.00000000000E+00  0.92278607495E+03  0.92278607495E+03  0.25500000000E-02 0. -1.
         -1   -1    0    0    0  501 -0.00000000000E+00 -0.00000000000E+00 -0.17684588846E+01  0.17684660664E+01  0.50400000000E-02 0.  1.
         24    2    1    2    0    0 -0.35527136788E-14  0.00000000000E+00  0.92101761606E+03  0.92455454102E+03  0.80793874877E+02 0.  0.
         66    2    3    3    0    0 -0.18729115232E+02  0.21398117190E+02  0.78872792649E+03  0.78924292914E+03  0.20000002280E+01 0.  0.
        -13    1    3    3    0    0  0.18729115232E+02 -0.21398117190E+02  0.13228968957E+03  0.13531161187E+03  0.10566000000E+00 0.  1.
         13    1    4    4    0    0 -0.77092622005E+01  0.88149568614E+01  0.34080528271E+03  0.34100643407E+03  0.10566000000E+00 0. -1.
        -13    1    4    4    0    0 -0.38895997590E+01  0.40046743524E+01  0.13659647686E+03  0.13671055211E+03  0.10566000000E+00 0.  1.
        -14    1    4    4    0    0 -0.71302532720E+01  0.85784859758E+01  0.31132616691E+03  0.31152594296E+03  0.00000000000E+00 0.  1.
<mgrwt>
<rscale>  0 0.80793875E+02</rscale>
<asrwt>0</asrwt>
<pdfrwt beam="1">  1        2 0.14196687E+00 0.80793875E+02</pdfrwt>
<pdfrwt beam="2">  1       -1 0.27207156E-03 0.80793875E+02</pdfrwt>
<totfact> 0.34148953E+05</totfact>
</mgrwt>
</event>
<event>
 8    1  0.2561077E-016  0.7679322E+02  0.7818608E-02  0.1338406E+00
         -1   -1    0    0    0  501 -0.00000000000E+00  0.00000000000E+00  0.26213094467E+01  0.26213142919E+01  0.50400000000E-02 0.  1.
          2   -1    0    0  501    0  0.00000000000E+00 -0.00000000000E+00 -0.56242817857E+03  0.56242817858E+03  0.25500000000E-02 0. -1.
         24    2    1    2    0    0  0.00000000000E+00 -0.35527136788E-14 -0.55980686913E+03  0.56504949287E+03  0.76793220224E+02 0.  0.
         66    2    3    3    0    0  0.22219877127E+02  0.27936853964E+02 -0.38365710025E+03  0.38531929789E+03  0.20000010798E+01 0.  0.
        -13    1    3    3    0    0 -0.22219877127E+02 -0.27936853964E+02 -0.17614976887E+03  0.17973019498E+03  0.10566000000E+00 0.  1.
         13    1    4    4    0    0  0.73388631197E+01  0.95034566892E+01 -0.13070167317E+03  0.13125209764E+03  0.10566000000E+00 0. -1.
        -13    1    4    4    0    0  0.16218656489E+01  0.14028369218E+01 -0.20687956869E+02  0.20799065437E+02  0.10566000000E+00 0.  1.
        -14    1    4    4    0    0  0.13259148359E+02  0.17030560353E+02 -0.23226747022E+03  0.23326813482E+03  0.00000000000E+00 0.  1.
<mgrwt>
<rscale>  0 0.76793220E+02</rscale>
<asrwt>0</asrwt>
<pdfrwt beam="1">  1        2 0.86527317E-01 0.76793220E+02</pdfrwt>
<pdfrwt beam="2">  1       -1 0.40327920E-03 0.76793220E+02</pdfrwt>
<totfact> 0.35113121E+05</totfact>
</mgrwt>
</event>
<event>
 8    1  0.2561077E-016  0.7984286E+02  0.7818608E-02  0.1329498E+00
         -1   -1    0    0    0  501 -0.00000000000E+00  0.00000000000E+00  0.11548355725E+03  0.11548355736E+03  0.50400000000E-02 0.  1.
          2   -1    0    0  501    0  0.00000000000E+00 -0.00000000000E+00 -0.13800411826E+02  0.13800412061E+02  0.25500000000E-02 0. -1.
         24    2    1    2    0    0  0.00000000000E+00  0.00000000000E+00  0.10168314542E+03  0.12928396942E+03  0.79842862460E+02 0.  0.
         66    2    3    3    0    0  0.23429949297E+02 -0.23996420944E+02  0.15884337108E+02  0.37163193183E+02  0.20000049941E+01 0.  0.
        -13    1    3    3    0    0 -0.23429949297E+02  0.23996420944E+02  0.85798808312E+02  0.92120776234E+02  0.10566000000E+00 0.  1.
         13    1    4    4    0    0  0.70799968688E+01 -0.66623292131E+01  0.48107959107E+01  0.10847483926E+02  0.10566000000E+00 0.  1.
        -13    1    4    4    0    0  0.53198054686E+01 -0.52351868143E+01  0.41420335179E+01  0.85366923866E+01  0.10566000000E+00 0.  1.
         14    1    4    4    0    0  0.11030146960E+02 -0.12098904917E+02  0.69315076789E+01  0.17779016869E+02  0.00000000000E+00 0. -1.
<mgrwt>
<rscale>  0 0.79842862E+02</rscale>
<asrwt>0</asrwt>
<pdfrwt beam="1">  1        2 0.21231403E-02 0.79842862E+02</pdfrwt>
<pdfrwt beam="2">  1       -1 0.17766701E-01 0.79842862E+02</pdfrwt>
<totfact> 0.11540868E+05</totfact>
</mgrwt>
</event>
<event>
 8    1  0.2561077E-016  0.8533802E+02  0.7818608E-02  0.1314551E+00
         -1   -1    0    0    0  501 -0.00000000000E+00  0.00000000000E+00  0.96119503340E+01  0.96119516553E+01  0.50400000000E-02 0.  1.
          2   -1    0    0  501    0  0.00000000000E+00 -0.00000000000E+00 -0.18941465584E+03  0.18941465586E+03  0.25500000000E-02 0. -1.
         24    2    1    2    0    0  0.00000000000E+00 -0.35527136788E-14 -0.17980270550E+03  0.19902660751E+03  0.85338019608E+02 0.  0.
         66    2    3    3    0    0 -0.20669134455E+02 -0.29116648142E+02 -0.14432907772E+03  0.14869389697E+03  0.20000006942E+01 0.  0.
        -13    1    3    3    0    0  0.20669134455E+02  0.29116648142E+02 -0.35473627786E+02  0.50332710542E+02  0.10566000000E+00 0.  1.
         13    1    4    4    0    0 -0.13342908343E+02 -0.20245133040E+02 -0.96694397814E+02  0.99688095315E+02  0.10566000000E+00 0. -1.
        -13    1    4    4    0    0 -0.89327036990E+00 -0.11550367243E+01 -0.62666179280E+01  0.64353481708E+01  0.10566000000E+00 0.  1.
         14    1    4    4    0    0 -0.64329557426E+01 -0.77164783777E+01 -0.41368061976E+02  0.42570453483E+02  0.00000000000E+00 0. -1.
<mgrwt>
<rscale>  0 0.85338020E+02</rscale>
<asrwt>0</asrwt>
<pdfrwt beam="1">  1        2 0.29140714E-01 0.85338020E+02</pdfrwt>
<pdfrwt beam="2">  1       -1 0.14787618E-02 0.85338020E+02</pdfrwt>
<totfact> 0.18241971E+05</totfact>
</mgrwt>
</event>
<event>
 8    1  0.2561077E-016  0.8090238E+02  0.7818608E-02  0.1326510E+00
         -1   -1    0    0    0  501 -0.00000000000E+00  0.00000000000E+00  0.31865345159E+01  0.31865385016E+01  0.50400000000E-02 0.  1.
          2   -1    0    0  501    0  0.00000000000E+00 -0.00000000000E+00 -0.51350381758E+03  0.51350381759E+03  0.25500000000E-02 0. -1.
         24    2    1    2    0    0 -0.35527136788E-14  0.00000000000E+00 -0.51031728306E+03  0.51669035609E+03  0.80902377470E+02 0.  0.
         66    2    3    3    0    0  0.22469680867E+02 -0.19505775741E+02 -0.43009353368E+03  0.43112621071E+03  0.19999998957E+01 0.  0.
        -13    1    3    3    0    0 -0.22469680867E+02  0.19505775741E+02 -0.80223749382E+02  0.85564145379E+02  0.10566000000E+00 0.  1.
         13    1    4    4    0    0  0.82828621076E+01 -0.66717903717E+01 -0.15108350348E+03  0.15145743554E+03  0.10566000000E+00 0. -1.
        -13    1    4    4    0    0  0.51146693068E+01 -0.37285046458E+01 -0.91507994257E+02  0.91726690586E+02  0.10566000000E+00 0.  1.
         14    1    4    4    0    0  0.90721494524E+01 -0.91054807230E+01 -0.18750203594E+03  0.18794208458E+03  0.00000000000E+00 0. -1.
<mgrwt>
<rscale>  0 0.80902377E+02</rscale>
<asrwt>0</asrwt>
<pdfrwt beam="1">  1        2 0.79000522E-01 0.80902377E+02</pdfrwt>
<pdfrwt beam="2">  1       -1 0.49023680E-03 0.80902377E+02</pdfrwt>
<totfact> 0.29824004E+05</totfact>
</mgrwt>
</event>
<event>
 8    1  0.2561077E-016  0.7852633E+02  0.7818608E-02  0.1333286E+00
         -1   -1    0    0    0  501 -0.00000000000E+00  0.00000000000E+00  0.85597477405E+01  0.85597492243E+01  0.50400000000E-02 0.  1.
          2   -1    0    0  501    0  0.00000000000E+00 -0.00000000000E+00 -0.18009831540E+03  0.18009831542E+03  0.25500000000E-02 0. -1.
         24    2    1    2    0    0  0.00000000000E+00  0.35527136788E-14 -0.17153856766E+03  0.18865806464E+03  0.78526334181E+02 0.  0.
         66    2    3    3    0    0  0.30899255176E+02  0.22694058707E+02 -0.10589765564E+03  0.11264145616E+03  0.19999759282E+01 0.  0.
        -13    1    3    3    0    0 -0.30899255176E+02 -0.22694058707E+02 -0.65640912017E+02  0.76016608484E+02  0.10566000000E+00 0.  1.
         13    1    4    4    0    0  0.35599010086E+01  0.30476656395E+01 -0.12030962213E+02  0.12911869611E+02  0.10566000000E+00 0. -1.
        -13    1    4    4    0    0  0.18920138092E+01  0.10069937425E+01 -0.58098204803E+01  0.61934587026E+01  0.10566000000E+00 0.  1.
         14    1    4    4    0    0  0.25447340359E+02  0.18639399325E+02 -0.88056872947E+02  0.93536127842E+02  0.00000000000E+00 0. -1.
<mgrwt>
<rscale>  0 0.78526334E+02</rscale>
<asrwt>0</asrwt>
<pdfrwt beam="1">  1        2 0.27707430E-01 0.78526334E+02</pdfrwt>
<pdfrwt beam="2">  1       -1 0.13168845E-02 0.78526334E+02</pdfrwt>
<totfact> 0.22349324E+05</totfact>
</mgrwt>
</event>
<event>
 8    1  0.2561077E-016  0.7942350E+02  0.7818608E-02  0.1330695E+00
         -1   -1    0    0    0  501 -0.00000000000E+00  0.00000000000E+00  0.38698476993E+01  0.38698509813E+01  0.50400000000E-02 0.  1.
          2   -1    0    0  501    0  0.00000000000E+00 -0.00000000000E+00 -0.40751535483E+03  0.40751535484E+03  0.25500000000E-02 0. -1.
         24    2    1    2    0    0  0.71054273576E-14  0.00000000000E+00 -0.40364550713E+03  0.41138520582E+03  0.79423498665E+02 0.  0.
         66    2    3    3    0    0 -0.24247620088E+02 -0.27805947372E+02 -0.27770433351E+03  0.28015141381E+03  0.20000045035E+01 0.  0.
        -13    1    3    3    0    0  0.24247620088E+02  0.27805947372E+02 -0.12594117362E+03  0.13123379201E+03  0.10566000000E+00 0.  1.
         13    1    4    4    0    0 -0.12387684816E+02 -0.13967215363E+02 -0.14295034234E+03  0.14416431382E+03  0.10566000000E+00 0. -1.
        -13    1    4    4    0    0 -0.41888512845E+01 -0.40579455059E+01 -0.44985457602E+02  0.45362054147E+02  0.10566000000E+00 0.  1.
        -14    1    4    4    0    0 -0.76710839871E+01 -0.97807865030E+01 -0.89768533573E+02  0.90625045842E+02  0.00000000000E+00 0.  1.
<mgrwt>
<rscale>  0 0.79423499E+02</rscale>
<asrwt>0</asrwt>
<pdfrwt beam="1">  1        2 0.62694636E-01 0.79423499E+02</pdfrwt>
<pdfrwt beam="2">  1       -1 0.59536176E-03 0.79423499E+02</pdfrwt>
<totfact> 0.28979602E+05</totfact>
</mgrwt>
</event>
<event>
 8    1  0.2561077E-016  0.7866775E+02  0.7818608E-02  0.1332875E+00
         -1   -1    0    0    0  501 -0.00000000000E+00  0.00000000000E+00  0.38930053307E+02  0.38930053633E+02  0.50400000000E-02 0.  1.
          2   -1    0    0  501    0  0.00000000000E+00 -0.00000000000E+00 -0.39741884063E+02  0.39741884145E+02  0.25500000000E-02 0. -1.
         24    2    1    2    0    0  0.00000000000E+00  0.35527136788E-14 -0.81183075635E+00  0.78671937778E+02  0.78667748948E+02 0.  0.
         66    2    3    3    0    0 -0.60491158932E+01 -0.26879876019E+02 -0.28443882172E+02  0.39650649135E+02  0.20000014792E+01 0.  0.
        -13    1    3    3    0    0  0.60491158932E+01  0.26879876019E+02  0.27632051416E+02  0.39021288643E+02  0.10566000000E+00 0.  1.
         13    1    4    4    0    0 -0.26838545181E+01 -0.13478410876E+02 -0.14688665516E+02  0.20115633062E+02  0.10566000000E+00 0. -1.
        -13    1    4    4    0    0 -0.20445463466E+01 -0.10279271026E+02 -0.10378900721E+02  0.14750468697E+02  0.10566000000E+00 0.  1.
        -14    1    4    4    0    0 -0.13207150285E+01 -0.31221941171E+01 -0.33763159355E+01  0.47845473754E+01  0.00000000000E+00 0.  1.
<mgrwt>
<rscale>  0 0.78667749E+02</rscale>
<asrwt>0</asrwt>
<pdfrwt beam="1">  1        2 0.61141360E-02 0.78667749E+02</pdfrwt>
<pdfrwt beam="2">  1       -1 0.59892390E-02 0.78667749E+02</pdfrwt>
<totfact> 0.14912089E+05</totfact>
</mgrwt>
</event>
<event>
 8    1  0.2561077E-016  0.7862913E+02  0.7818608E-02  0.1332987E+00
          2   -1    0    0  501    0  0.00000000000E+00  0.00000000000E+00  0.38033124593E+03  0.38033124594E+03  0.25500000000E-02 0. -1.
         -1   -1    0    0    0  501 -0.00000000000E+00 -0.00000000000E+00 -0.40639167962E+01  0.40639199215E+01  0.50400000000E-02 0.  1.
         24    2    1    2    0    0  0.00000000000E+00  0.00000000000E+00  0.37626732913E+03  0.38439516586E+03  0.78629133043E+02 0.  0.
         66    2    3    3    0    0  0.15317027837E+02 -0.33211372980E+02  0.25842527253E+03  0.26100809966E+03  0.19999921592E+01 0.  0.
        -13    1    3    3    0    0 -0.15317027837E+02  0.33211372980E+02  0.11784205660E+03  0.12338706620E+03  0.10566000000E+00 0.  1.
         13    1    4    4    0    0  0.81613664877E+01 -0.17155751218E+02  0.13388730137E+03  0.13522850415E+03  0.10566000000E+00 0. -1.
        -13    1    4    4    0    0  0.49264123930E+01 -0.12420541925E+02  0.95401502904E+02  0.96332742726E+02  0.10566000000E+00 0.  1.
        -14    1    4    4    0    0  0.22292489565E+01 -0.36350798372E+01  0.29136468255E+02  0.29446852781E+02  0.00000000000E+00 0.  1.
<mgrwt>
<rscale>  0 0.78629133E+02</rscale>
<asrwt>0</asrwt>
<pdfrwt beam="1">  1        2 0.58512487E-01 0.78629133E+02</pdfrwt>
<pdfrwt beam="2">  1       -1 0.62521835E-03 0.78629133E+02</pdfrwt>
<totfact> 0.29038465E+05</totfact>
</mgrwt>
</event>
<event>
 8    1  0.2561077E-016  0.7992565E+02  0.7818608E-02  0.1329263E+00
         -1   -1    0    0    0  501 -0.00000000000E+00  0.00000000000E+00  0.61801657077E+01  0.61801677628E+01  0.50400000000E-02 0.  1.
          2   -1    0    0  501    0  0.00000000000E+00 -0.00000000000E+00 -0.25841170653E+03  0.25841170655E+03  0.25500000000E-02 0. -1.
         24    2    1    2    0    0  0.00000000000E+00  0.35527136788E-14 -0.25223154083E+03  0.26459187431E+03  0.79925651470E+02 0.  0.
         66    2    3    3    0    0 -0.68766249959E+01  0.24326260487E+02 -0.22855018671E+03  0.22995269681E+03  0.20000019449E+01 0.  0.
        -13    1    3    3    0    0  0.68766249959E+01 -0.24326260487E+02 -0.23681354121E+02  0.34639177496E+02  0.10566000000E+00 0.  1.
         13    1    4    4    0    0 -0.54050455320E+01  0.16169661844E+02 -0.14968440698E+03  0.15065226629E+03  0.10566000000E+00 0. -1.
        -13    1    4    4    0    0 -0.57357980777E+00  0.28091246115E+01 -0.27252423726E+02  0.27403027895E+02  0.10566000000E+00 0.  1.
         14    1    4    4    0    0 -0.89799965610E+00  0.53474740314E+01 -0.51613355996E+02  0.51897402623E+02  0.00000000000E+00 0. -1.
<mgrwt>
<rscale>  0 0.79925651E+02</rscale>
<asrwt>0</asrwt>
<pdfrwt beam="1">  1        2 0.39755639E-01 0.79925651E+02</pdfrwt>
<pdfrwt beam="2">  1       -1 0.95079509E-03 0.79925651E+02</pdfrwt>
<totfact> 0.24212824E+05</totfact>
</mgrwt>
</event>
<event>
 8    1  0.2561077E-016  0.8086495E+02  0.7818608E-02  0.1326615E+00
         -1   -1    0    0    0  501 -0.00000000000E+00  0.00000000000E+00  0.17986685347E+03  0.17986685354E+03  0.50400000000E-02 0.  1.
          2   -1    0    0  501    0  0.00000000000E+00 -0.00000000000E+00 -0.90888608384E+01  0.90888611961E+01  0.25500000000E-02 0. -1.
         24    2    1    2    0    0  0.71054273576E-14 -0.88817841970E-15  0.17077799263E+03  0.18895571474E+03  0.80864945214E+02 0.  0.
         66    2    3    3    0    0 -0.31354690443E+02  0.70806029714E+01  0.28226783969E+02  0.42825259983E+02  0.20000020384E+01 0.  0.
        -13    1    3    3    0    0  0.31354690443E+02 -0.70806029714E+01  0.14255120867E+03  0.14613045476E+03  0.10566000000E+00 0.  1.
         13    1    4    4    0    0 -0.10966994861E+02  0.21608119738E+01  0.88744236594E+01  0.14272723776E+02  0.10566000000E+00 0. -1.
        -13    1    4    4    0    0 -0.20074091287E+02  0.47472160401E+01  0.18915138339E+02  0.27987476191E+02  0.10566000000E+00 0.  1.
         14    1    4    4    0    0 -0.31360429533E+00  0.17257495754E+00  0.43722197016E+00  0.56506001558E+00  0.00000000000E+00 0. -1.
<mgrwt>
<rscale>  0 0.80864945E+02</rscale>
<asrwt>0</asrwt>
<pdfrwt beam="1">  1        2 0.13982864E-02 0.80864945E+02</pdfrwt>
<pdfrwt beam="2">  1       -1 0.27671822E-01 0.80864945E+02</pdfrwt>
<totfact> 0.99977229E+04</totfact>
</mgrwt>
</event>
<event>
 8    1  0.2561077E-016  0.8103941E+02  0.7818608E-02  0.1326127E+00
         -1   -1    0    0    0  501 -0.00000000000E+00  0.00000000000E+00  0.10236790406E+02  0.10236791647E+02  0.50400000000E-02 0.  1.
          2   -1    0    0  501    0  0.00000000000E+00 -0.00000000000E+00 -0.16038683273E+03  0.16038683275E+03  0.25500000000E-02 0. -1.
         24    2    1    2    0    0  0.71054273576E-14 -0.35527136788E-14 -0.15015004232E+03  0.17062362439E+03  0.81039410118E+02 0.  0.
         66    2    3    3    0    0 -0.27455909648E+02  0.20933914736E+02 -0.11967373024E+03  0.12457069264E+03  0.19999988177E+01 0.  0.
        -13    1    3    3    0    0  0.27455909648E+02 -0.20933914736E+02 -0.30476312084E+02  0.46052931753E+02  0.10566000000E+00 0.  1.
         13    1    4    4    0    0 -0.66636162589E+01  0.57889026299E+01 -0.30517916338E+02  0.31769003084E+02  0.10566000000E+00 0. -1.
        -13    1    4    4    0    0 -0.19009432232E+00  0.22650367997E+00 -0.88674904813E+00  0.94070594682E+00  0.10566000000E+00 0. -1.
         14    1    4    4    0    0 -0.20602199067E+02  0.14918508426E+02 -0.88269064851E+02  0.91860983610E+02  0.00000000000E+00 0. -1.
<mgrwt>
<rscale>  0 0.81039410E+02</rscale>
<asrwt>0</asrwt>
<pdfrwt beam="1">  1        2 0.24674896E-01 0.81039410E+02</pdfrwt>
<pdfrwt beam="2">  1       -1 0.15748911E-02 0.81039410E+02</pdfrwt>
<totfact> 0.19782206E+05</totfact>
</mgrwt>
</event>
<event>
 8    1  0.2561077E-016  0.8086748E+02  0.7818608E-02  0.1326608E+00
          2   -1    0    0  501    0  0.00000000000E+00  0.00000000000E+00  0.18122801640E+02  0.18122801819E+02  0.25500000000E-02 0. -1.
         -1   -1    0    0    0  501 -0.00000000000E+00 -0.00000000000E+00 -0.90211628774E+02  0.90211628915E+02  0.50400000000E-02 0.  1.
         24    2    1    2    0    0  0.00000000000E+00  0.00000000000E+00 -0.72088827134E+02  0.10833443073E+03  0.80867483483E+02 0.  0.
         66    2    3    3    0    0  0.29495788141E+02  0.16290096059E+02 -0.61853994903E+01  0.34316583651E+02  0.19999997397E+01 0.  0.
        -13    1    3    3    0    0 -0.29495788141E+02 -0.16290096059E+02 -0.65903427644E+02  0.74017847084E+02  0.10566000000E+00 0.  1.
         13    1    4    4    0    0  0.23463487641E+02  0.12585892179E+02 -0.46624507304E+01  0.27031269765E+02  0.10566000000E+00 0. -1.
        -13    1    4    4    0    0  0.34257477243E+01  0.21882796168E+01 -0.12667852992E+01  0.42591342057E+01  0.10566000000E+00 0.  1.
         14    1    4    4    0    0  0.26065527750E+01  0.15159242629E+01 -0.25616346081E+00  0.30261796805E+01  0.00000000000E+00 0. -1.
<mgrwt>
<rscale>  0 0.80867483E+02</rscale>
<asrwt>0</asrwt>
<pdfrwt beam="1">  1        2 0.27881234E-02 0.80867483E+02</pdfrwt>
<pdfrwt beam="2">  1       -1 0.13878712E-01 0.80867483E+02</pdfrwt>
<totfact> 0.11793691E+05</totfact>
</mgrwt>
</event>
<event>
 8    1  0.2561077E-016  0.8035481E+02  0.7818608E-02  0.1328048E+00
          2   -1    0    0  501    0  0.00000000000E+00  0.00000000000E+00  0.41466757353E+02  0.41466757431E+02  0.25500000000E-02 0. -1.
         -1   -1    0    0    0  501 -0.00000000000E+00 -0.00000000000E+00 -0.38928141468E+02  0.38928141794E+02  0.50400000000E-02 0.  1.
         24    2    1    2    0    0  0.00000000000E+00  0.00000000000E+00  0.25386158851E+01  0.80394899226E+02  0.80354808511E+02 0.  0.
         66    2    3    3    0    0  0.30801886279E+02  0.19018655293E+02  0.18649809483E+02  0.40771078478E+02  0.19999997448E+01 0.  0.
        -13    1    3    3    0    0 -0.30801886279E+02 -0.19018655293E+02 -0.16111193598E+02  0.39623820748E+02  0.10566000000E+00 0.  1.
         13    1    4    4    0    0  0.42353757713E+01  0.27453623236E+01  0.24982105229E+01  0.56327295394E+01  0.10566000000E+00 0. -1.
        -13    1    4    4    0    0  0.14949066898E+02  0.10186229255E+02  0.94862332457E+01  0.20426298068E+02  0.10566000000E+00 0.  1.
         14    1    4    4    0    0  0.11617443609E+02  0.60870637150E+01  0.66653657145E+01  0.14712050870E+02  0.00000000000E+00 0. -1.
<mgrwt>
<rscale>  0 0.80354809E+02</rscale>
<asrwt>0</asrwt>
<pdfrwt beam="1">  1        2 0.63795012E-02 0.80354809E+02</pdfrwt>
<pdfrwt beam="2">  1       -1 0.59889449E-02 0.80354809E+02</pdfrwt>
<totfact> 0.14187131E+05</totfact>
</mgrwt>
</event>
<event>
 8    1  0.2561077E-016  0.8732365E+02  0.7818608E-02  0.1309465E+00
         -1   -1    0    0    0  501 -0.00000000000E+00  0.00000000000E+00  0.25624922143E+02  0.25624922638E+02  0.50400000000E-02 0.  1.
          2   -1    0    0  501    0  0.00000000000E+00 -0.00000000000E+00 -0.74394565177E+02  0.74394565220E+02  0.25500000000E-02 0. -1.
         24    2    1    2    0    0  0.00000000000E+00  0.00000000000E+00 -0.48769643034E+02  0.10001948786E+03  0.87323650118E+02 0.  0.
         66    2    3    3    0    0 -0.89887199482E+01 -0.68068459053E+01 -0.72683807459E+02  0.73580337689E+02  0.19999975508E+01 0.  0.
        -13    1    3    3    0    0  0.89887199482E+01  0.68068459053E+01  0.23914164425E+02  0.26439150170E+02  0.10566000000E+00 0.  1.
         13    1    4    4    0    0 -0.13555005951E+01 -0.10953708864E+01 -0.15153581630E+02  0.15253832945E+02  0.10566000000E+00 0. -1.
        -13    1    4    4    0    0 -0.10093976588E+01 -0.10812344288E+01 -0.11023687936E+02  0.11122985717E+02  0.10566000000E+00 0.  1.
         14    1    4    4    0    0 -0.66238216943E+01 -0.46302405901E+01 -0.46506537893E+02  0.47203519027E+02  0.00000000000E+00 0. -1.
<mgrwt>
<rscale>  0 0.87323650E+02</rscale>
<asrwt>0</asrwt>
<pdfrwt beam="1">  1        2 0.11445318E-01 0.87323650E+02</pdfrwt>
<pdfrwt beam="2">  1       -1 0.39422958E-02 0.87323650E+02</pdfrwt>
<totfact> 0.12919582E+05</totfact>
</mgrwt>
</event>
<event>
 8    1  0.2561077E-016  0.7801372E+02  0.7818608E-02  0.1334785E+00
          2   -1    0    0  501    0  0.00000000000E+00  0.00000000000E+00  0.46389204990E+02  0.46389205060E+02  0.25500000000E-02 0. -1.
         -1   -1    0    0    0  501 -0.00000000000E+00 -0.00000000000E+00 -0.32799338909E+02  0.32799339296E+02  0.50400000000E-02 0.  1.
         24    2    1    2    0    0  0.00000000000E+00  0.00000000000E+00  0.13589866081E+02  0.79188544356E+02  0.78013723774E+02 0.  0.
         66    2    3    3    0    0 -0.19608659123E+02  0.33317377000E+02  0.11872978915E+02  0.40490921841E+02  0.20000001068E+01 0.  0.
        -13    1    3    3    0    0  0.19608659123E+02 -0.33317377000E+02  0.17168871660E+01  0.38697622515E+02  0.10566000000E+00 0.  1.
         13    1    4    4    0    0 -0.61584667537E+01  0.99836999376E+01  0.40552903400E+01  0.12411991016E+02  0.10566000000E+00 0. -1.
        -13    1    4    4    0    0 -0.13462249447E+02  0.23209652492E+02  0.78374548664E+01  0.27952763581E+02  0.10566000000E+00 0.  1.
        -14    1    4    4    0    0  0.12057078255E-01  0.12402457054E+00 -0.19766291106E-01  0.12616724415E+00  0.00000000000E+00 0.  1.
<mgrwt>
<rscale>  0 0.78013724E+02</rscale>
<asrwt>0</asrwt>
<pdfrwt beam="1">  1        2 0.71368008E-02 0.78013724E+02</pdfrwt>
<pdfrwt beam="2">  1       -1 0.50460522E-02 0.78013724E+02</pdfrwt>
<totfact> 0.15753299E+05</totfact>
</mgrwt>
</event>
<event>
 8    1  0.2561077E-016  0.8117773E+02  0.7818608E-02  0.1325742E+00
          2   -1    0    0  501    0  0.00000000000E+00  0.00000000000E+00  0.81324234177E+03  0.81324234178E+03  0.25500000000E-02 0. -1.
         -1   -1    0    0    0  501 -0.00000000000E+00 -0.00000000000E+00 -0.20257842080E+01  0.20257904775E+01  0.50400000000E-02 0.  1.
         24    2    1    2    0    0 -0.35527136788E-14 -0.35527136788E-14  0.81121655756E+03  0.81526813225E+03  0.81177732181E+02 0.  0.
         66    2    3    3    0    0  0.21814583676E+02  0.20530502456E+02  0.68053926097E+03  0.68120119151E+03  0.19999991173E+01 0.  0.
        -13    1    3    3    0    0 -0.21814583676E+02 -0.20530502456E+02  0.13067729659E+03  0.13406694075E+03  0.10566000000E+00 0.  1.
         13    1    4    4    0    0  0.60445385904E+01  0.57399003538E+01  0.17747710922E+03  0.17767278453E+03  0.10566000000E+00 0. -1.
        -13    1    4    4    0    0  0.48609724286E+01  0.37631600768E+01  0.14719837994E+03  0.14732672754E+03  0.10566000000E+00 0.  1.
        -14    1    4    4    0    0  0.10909072657E+02  0.11027442025E+02  0.35586377181E+03  0.35620167943E+03  0.00000000000E+00 0.  1.
<mgrwt>
<rscale>  0 0.81177732E+02</rscale>
<asrwt>0</asrwt>
<pdfrwt beam="1">  1        2 0.12511403E+00 0.81177732E+02</pdfrwt>
<pdfrwt beam="2">  1       -1 0.31166004E-03 0.81177732E+02</pdfrwt>
<totfact> 0.33176280E+05</totfact>
</mgrwt>
</event>
<event>
 8    1  0.2561077E-016  0.7713324E+02  0.7818608E-02  0.1337389E+00
         -1   -1    0    0    0  501 -0.00000000000E+00  0.00000000000E+00  0.18753355326E+02  0.18753356003E+02  0.50400000000E-02 0.  1.
          2   -1    0    0  501    0  0.00000000000E+00 -0.00000000000E+00 -0.79312970644E+02  0.79312970685E+02  0.25500000000E-02 0. -1.
         24    2    1    2    0    0  0.00000000000E+00 -0.35527136788E-14 -0.60559615318E+02  0.98066326688E+02  0.77133244600E+02 0.  0.
         66    2    3    3    0    0  0.25764433389E+02 -0.22771842407E+02 -0.81685742917E+01  0.35398989276E+02  0.20000003413E+01 0.  0.
        -13    1    3    3    0    0 -0.25764433389E+02  0.22771842407E+02 -0.52391041026E+02  0.62667337412E+02  0.10566000000E+00 0.  1.
         13    1    4    4    0    0  0.14198225679E+02 -0.13160708203E+02 -0.49412483061E+01  0.19980514300E+02  0.10566000000E+00 0. -1.
        -13    1    4    4    0    0  0.50043379775E+01 -0.35195088253E+01 -0.14939526896E+01  0.62986823733E+01  0.10566000000E+00 0.  1.
         14    1    4    4    0    0  0.65618697322E+01 -0.60916253784E+01 -0.17333732960E+01  0.91197926027E+01  0.00000000000E+00 0. -1.
<mgrwt>
<rscale>  0 0.77133245E+02</rscale>
<asrwt>0</asrwt>
<pdfrwt beam="1">  1        2 0.12201995E-01 0.77133245E+02</pdfrwt>
<pdfrwt beam="2">  1       -1 0.28851317E-02 0.77133245E+02</pdfrwt>
<totfact> 0.18377241E+05</totfact>
</mgrwt>
</event>
<event>
 8    1  0.2561077E-016  0.8086917E+02  0.7818608E-02  0.1326603E+00
          2   -1    0    0  501    0  0.00000000000E+00  0.00000000000E+00  0.77761471565E+03  0.77761471566E+03  0.25500000000E-02 0. -1.
         -1   -1    0    0    0  501 -0.00000000000E+00 -0.00000000000E+00 -0.21025237657E+01  0.21025298064E+01  0.50400000000E-02 0.  1.
         24    2    1    2    0    0  0.00000000000E+00  0.00000000000E+00  0.77551219189E+03  0.77971724546E+03  0.80869172788E+02 0.  0.
         66    2    3    3    0    0  0.31825244476E+02 -0.27944452898E+01  0.62657298864E+03  0.62739012201E+03  0.19999992461E+01 0.  0.
        -13    1    3    3    0    0 -0.31825244476E+02  0.27944452898E+01  0.14893920325E+03  0.15232712345E+03  0.10566000000E+00 0.  1.
         13    1    4    4    0    0  0.12900329151E+02 -0.11012288941E+01  0.25793094586E+03  0.25825571668E+03  0.10566000000E+00 0. -1.
        -13    1    4    4    0    0  0.14224875236E+02 -0.16982941239E+01  0.28660874479E+03  0.28696657476E+03  0.10566000000E+00 0.  1.
        -14    1    4    4    0    0  0.47000400887E+01  0.50777281905E-02  0.82033297987E+02  0.82167830574E+02  0.00000000000E+00 0.  1.
<mgrwt>
<rscale>  0 0.80869173E+02</rscale>
<asrwt>0</asrwt>
<pdfrwt beam="1">  1        2 0.11963317E+00 0.80869173E+02</pdfrwt>
<pdfrwt beam="2">  1       -1 0.32346530E-03 0.80869173E+02</pdfrwt>
<totfact> 0.33244343E+05</totfact>
</mgrwt>
</event>
<event>
 8    1  0.2561077E-016  0.7950557E+02  0.7818608E-02  0.1330460E+00
         -1   -1    0    0    0  501 -0.00000000000E+00  0.00000000000E+00  0.30561869508E+01  0.30561911066E+01  0.50400000000E-02 0.  1.
          2   -1    0    0  501    0  0.00000000000E+00 -0.00000000000E+00 -0.51707663291E+03  0.51707663291E+03  0.25500000000E-02 0. -1.
         24    2    1    2    0    0  0.35527136788E-14  0.00000000000E+00 -0.51402044595E+03  0.52013282402E+03  0.79505570634E+02 0.  0.
         66    2    3    3    0    0  0.17409121707E+02  0.21404088470E+02 -0.44417403622E+03  0.44503459076E+03  0.19999995364E+01 0.  0.
        -13    1    3    3    0    0 -0.17409121707E+02 -0.21404088470E+02 -0.69846409733E+02  0.75098233258E+02  0.10566000000E+00 0.  1.
         13    1    4    4    0    0  0.72375086469E+01  0.82474475359E+01 -0.16759306804E+03  0.16795192628E+03  0.10566000000E+00 0. -1.
        -13    1    4    4    0    0  0.45618128663E+01  0.66320136959E+01 -0.13886378890E+03  0.13909693301E+03  0.10566000000E+00 0.  1.
         14    1    4    4    0    0  0.56098001935E+01  0.65246272379E+01 -0.13771717929E+03  0.13798573147E+03  0.00000000000E+00 0. -1.
<mgrwt>
<rscale>  0 0.79505571E+02</rscale>
<asrwt>0</asrwt>
<pdfrwt beam="1">  1        2 0.79550182E-01 0.79505571E+02</pdfrwt>
<pdfrwt beam="2">  1       -1 0.47018334E-03 0.79505571E+02</pdfrwt>
<totfact> 0.31276684E+05</totfact>
</mgrwt>
</event>
<event>
 8    1  0.2561077E-016  0.8471034E+02  0.7818608E-02  0.1316192E+00
          2   -1    0    0  501    0  0.00000000000E+00  0.00000000000E+00  0.86853764358E+02  0.86853764395E+02  0.25500000000E-02 0. -1.
         -1   -1    0    0    0  501 -0.00000000000E+00 -0.00000000000E+00 -0.20654953998E+02  0.20654954613E+02  0.50400000000E-02 0.  1.
         24    2    1    2    0    0  0.00000000000E+00 -0.35527136788E-14  0.66198810360E+02  0.10750871901E+03  0.84710342755E+02 0.  0.
         66    2    3    3    0    0 -0.24394362626E+02  0.22199553964E+02  0.66792921651E+02  0.74519792739E+02  0.20000007693E+01 0.  0.
        -13    1    3    3    0    0  0.24394362626E+02 -0.22199553964E+02 -0.59411129059E+00  0.32988926269E+02  0.10566000000E+00 0.  1.
         13    1    4    4    0    0 -0.81441690214E+01  0.69362137363E+01  0.22786507219E+02  0.25172894655E+02  0.10566000000E+00 0. -1.
        -13    1    4    4    0    0 -0.73896511684E+01  0.64674037995E+01  0.20479974573E+02  0.22712876939E+02  0.10566000000E+00 0.  1.
        -14    1    4    4    0    0 -0.88605424363E+01  0.87959364282E+01  0.23526439858E+02  0.26634021144E+02  0.00000000000E+00 0.  1.
<mgrwt>
<rscale>  0 0.84710343E+02</rscale>
<asrwt>0</asrwt>
<pdfrwt beam="1">  1        2 0.13362118E-01 0.84710343E+02</pdfrwt>
<pdfrwt beam="2">  1       -1 0.31776852E-02 0.84710343E+02</pdfrwt>
<totfact> 0.14617216E+05</totfact>
</mgrwt>
</event>
<event>
 8    1  0.2561077E-016  0.8045592E+02  0.7818608E-02  0.1327763E+00
         -1   -1    0    0    0  501 -0.00000000000E+00  0.00000000000E+00  0.14049420342E+03  0.14049420351E+03  0.50400000000E-02 0.  1.
          2   -1    0    0  501    0  0.00000000000E+00 -0.00000000000E+00 -0.11518545840E+02  0.11518546122E+02  0.25500000000E-02 0. -1.
         24    2    1    2    0    0  0.88817841970E-15 -0.35527136788E-14  0.12897565758E+03  0.15201274963E+03  0.80455924597E+02 0.  0.
         66    2    3    3    0    0  0.70296050331E+01 -0.20808544084E+02  0.90602109054E+00  0.22073326022E+02  0.19999984046E+01 0.  0.
        -13    1    3    3    0    0 -0.70296050331E+01  0.20808544084E+02  0.12806963649E+03  0.12993942361E+03  0.10566000000E+00 0.  1.
         13    1    4    4    0    0  0.49630537813E+01 -0.15481623778E+02  0.10423212981E+00  0.16258370337E+02  0.10566000000E+00 0. -1.
        -13    1    4    4    0    0  0.17013185829E+00 -0.11842839221E+01  0.10158656200E+00  0.12053867108E+01  0.10566000000E+00 0.  1.
         14    1    4    4    0    0  0.18964193935E+01 -0.41426363841E+01  0.70020239874E+00  0.46095689740E+01  0.00000000000E+00 0. -1.
<mgrwt>
<rscale>  0 0.80455925E+02</rscale>
<asrwt>0</asrwt>
<pdfrwt beam="1">  1        2 0.17720840E-02 0.80455925E+02</pdfrwt>
<pdfrwt beam="2">  1       -1 0.21614493E-01 0.80455925E+02</pdfrwt>
<totfact> 0.10809676E+05</totfact>
</mgrwt>
</event>
<event>
 8    1  0.2561077E-016  0.7861873E+02  0.7818608E-02  0.1333018E+00
         -1   -1    0    0    0  501 -0.00000000000E+00  0.00000000000E+00  0.40787731508E+01  0.40787762646E+01  0.50400000000E-02 0.  1.
          2   -1    0    0  501    0  0.00000000000E+00 -0.00000000000E+00 -0.37884565382E+03  0.37884565383E+03  0.25500000000E-02 0. -1.
         24    2    1    2    0    0  0.00000000000E+00 -0.71054273576E-14 -0.37476688067E+03  0.38292443010E+03  0.78618727513E+02 0.  0.
         66    2    3    3    0    0 -0.89083581981E+01  0.38246950299E+02 -0.19245494225E+03  0.19643088568E+03  0.20000000626E+01 0.  0.
        -13    1    3    3    0    0  0.89083581981E+01 -0.38246950299E+02 -0.18231193843E+03  0.18649354442E+03  0.10566000000E+00 0.  1.
         13    1    4    4    0    0 -0.59314151541E+01  0.28773780446E+02 -0.14423952560E+03  0.14720110066E+03  0.10566000000E+00 0. -1.
        -13    1    4    4    0    0 -0.10898106181E+01  0.29026895581E+01 -0.14439032849E+02  0.14768551977E+02  0.10566000000E+00 0.  1.
         14    1    4    4    0    0 -0.18871324258E+01  0.65704802953E+01 -0.33776383799E+02  0.34461233040E+02  0.00000000000E+00 0. -1.
<mgrwt>
<rscale>  0 0.78618728E+02</rscale>
<asrwt>0</asrwt>
<pdfrwt beam="1">  1        2 0.58283919E-01 0.78618728E+02</pdfrwt>
<pdfrwt beam="2">  1       -1 0.62750410E-03 0.78618728E+02</pdfrwt>
<totfact> 0.29008330E+05</totfact>
</mgrwt>
</event>
<event>
 8    1  0.2561077E-016  0.7492362E+02  0.7818608E-02  0.1344108E+00
         -1   -1    0    0    0  501 -0.00000000000E+00  0.00000000000E+00  0.32271758676E+01  0.32271798032E+01  0.50400000000E-02 0.  1.
          2   -1    0    0  501    0  0.00000000000E+00 -0.00000000000E+00 -0.43486510645E+03  0.43486510645E+03  0.25500000000E-02 0. -1.
         24    2    1    2    0    0  0.00000000000E+00  0.00000000000E+00 -0.43163793058E+03  0.43809228626E+03  0.74923615527E+02 0.  0.
         66    2    3    3    0    0 -0.86373122475E+01 -0.32010291513E+02 -0.31760579940E+03  0.31933791779E+03  0.19999995309E+01 0.  0.
        -13    1    3    3    0    0  0.86373122475E+01  0.32010291513E+02 -0.11403213118E+03  0.11875436847E+03  0.10566000000E+00 0.  1.
         13    1    4    4    0    0 -0.43448703124E+01 -0.16495948978E+02 -0.16104958418E+03  0.16195052936E+03  0.10566000000E+00 0. -1.
        -13    1    4    4    0    0 -0.39368136550E+01 -0.12783468431E+02 -0.13286810909E+03  0.13353973620E+03  0.10566000000E+00 0.  1.
        -14    1    4    4    0    0 -0.35562828005E+00 -0.27308741036E+01 -0.23688106129E+02  0.23847652228E+02  0.00000000000E+00 0.  1.
<mgrwt>
<rscale>  0 0.74923616E+02</rscale>
<asrwt>0</asrwt>
<pdfrwt beam="1">  1        2 0.66902278E-01 0.74923616E+02</pdfrwt>
<pdfrwt beam="2">  1       -1 0.49648925E-03 0.74923616E+02</pdfrwt>
<totfact> 0.34487068E+05</totfact>
</mgrwt>
</event>
<event>
 8    1  0.2561077E-016  0.7765074E+02  0.7818608E-02  0.1335854E+00
          2   -1    0    0  501    0  0.00000000000E+00  0.00000000000E+00  0.38045472786E+02  0.38045472872E+02  0.25500000000E-02 0. -1.
         -1   -1    0    0    0  501 -0.00000000000E+00 -0.00000000000E+00 -0.39621251136E+02  0.39621251456E+02  0.50400000000E-02 0.  1.
         24    2    1    2    0    0 -0.71054273576E-14 -0.17763568394E-14 -0.15757783495E+01  0.77666724328E+02  0.77650737217E+02 0.  0.
         66    2    3    3    0    0  0.33118407025E+02  0.14734499784E+02 -0.14628526211E+02  0.39139853724E+02  0.20000006765E+01 0.  0.
        -13    1    3    3    0    0 -0.33118407025E+02 -0.14734499784E+02  0.13052747862E+02  0.38526870604E+02  0.10566000000E+00 0.  1.
         13    1    4    4    0    0  0.22910905444E+02  0.97833194999E+01 -0.10821478646E+02  0.27161341882E+02  0.10566000000E+00 0. -1.
        -13    1    4    4    0    0  0.59338092193E+01  0.31133439365E+01 -0.23935493786E+01  0.71164067465E+01  0.10566000000E+00 0.  1.
         14    1    4    4    0    0  0.42736923616E+01  0.18378363473E+01 -0.14134981868E+01  0.48621050961E+01  0.00000000000E+00 0. -1.
<mgrwt>
<rscale>  0 0.77650737E+02</rscale>
<asrwt>0</asrwt>
<pdfrwt beam="1">  1        2 0.58531497E-02 0.77650737E+02</pdfrwt>
<pdfrwt beam="2">  1       -1 0.60955772E-02 0.77650737E+02</pdfrwt>
<totfact> 0.15321703E+05</totfact>
</mgrwt>
</event>
<event>
 8    1  0.2561077E-016  0.7872166E+02  0.7818608E-02  0.1332719E+00
         -1   -1    0    0    0  501 -0.00000000000E+00  0.00000000000E+00  0.44329177406E+01  0.44329206057E+01  0.50400000000E-02 0.  1.
          2   -1    0    0  501    0  0.00000000000E+00 -0.00000000000E+00 -0.34949318821E+03  0.34949318822E+03  0.25500000000E-02 0. -1.
         24    2    1    2    0    0  0.35527136788E-14  0.00000000000E+00 -0.34506027047E+03  0.35392610883E+03  0.78721663166E+02 0.  0.
         66    2    3    3    0    0  0.13330650157E+02  0.16466415012E+02 -0.32164684681E+03  0.32235003199E+03  0.20000005958E+01 0.  0.
        -13    1    3    3    0    0 -0.13330650157E+02 -0.16466415012E+02 -0.23413423659E+02  0.31576076837E+02  0.10566000000E+00 0.  1.
         13    1    4    4    0    0  0.23476900636E+01  0.21082097572E+01 -0.50674386498E+02  0.50772638380E+02  0.10566000000E+00 0. -1.
        -13    1    4    4    0    0  0.11819776615E+01  0.11155510079E+01 -0.27449109181E+02  0.27497386860E+02  0.10566000000E+00 0.  1.
        -14    1    4    4    0    0  0.98009824315E+01  0.13242654247E+02 -0.24352335113E+03  0.24408000675E+03  0.00000000000E+00 0.  1.
<mgrwt>
<rscale>  0 0.78721663E+02</rscale>
<asrwt>0</asrwt>
<pdfrwt beam="1">  1        2 0.53768161E-01 0.78721663E+02</pdfrwt>
<pdfrwt beam="2">  1       -1 0.68198784E-03 0.78721663E+02</pdfrwt>
<totfact> 0.28094246E+05</totfact>
</mgrwt>
</event>
<event>
 8    1  0.2561077E-016  0.7626549E+02  0.7818608E-02  0.1339996E+00
          2   -1    0    0  501    0  0.00000000000E+00  0.00000000000E+00  0.12637088703E+04  0.12637088703E+04  0.25500000000E-02 0. -1.
         -1   -1    0    0    0  501 -0.00000000000E+00 -0.00000000000E+00 -0.11506599229E+01  0.11506709607E+01  0.50400000000E-02 0.  1.
         24    2    1    2    0    0  0.00000000000E+00  0.00000000000E+00  0.12625582104E+04  0.12648595413E+04  0.76265487177E+02 0.  0.
         66    2    3    3    0    0 -0.18369919262E+01 -0.17992168094E+02  0.11879903950E+04  0.11881297367E+04  0.20000009410E+01 0.  0.
        -13    1    3    3    0    0  0.18369919262E+01  0.17992168094E+02  0.74567815446E+02  0.76729804617E+02  0.10566000000E+00 0.  1.
         13    1    4    4    0    0 -0.85359880606E-01 -0.60912494247E+01  0.35999578652E+03  0.36004734145E+03  0.10566000000E+00 0.  1.
        -13    1    4    4    0    0 -0.78091256509E+00 -0.78866881179E+01  0.53803736615E+03  0.53809574261E+03  0.10566000000E+00 0. -1.
        -14    1    4    4    0    0 -0.97071948053E+00 -0.40142305516E+01  0.28995724229E+03  0.28998665262E+03  0.00000000000E+00 0.  1.
<mgrwt>
<rscale>  0 0.76265487E+02</rscale>
<asrwt>0</asrwt>
<pdfrwt beam="1">  1        2 0.19441716E+00 0.76265487E+02</pdfrwt>
<pdfrwt beam="2">  1       -1 0.17702508E-03 0.76265487E+02</pdfrwt>
<totfact> 0.39378350E+05</totfact>
</mgrwt>
</event>
<event>
 8    1  0.2561077E-016  0.7968219E+02  0.7818608E-02  0.1329956E+00
          2   -1    0    0  501    0  0.00000000000E+00  0.00000000000E+00  0.36136887587E+02  0.36136887677E+02  0.25500000000E-02 0. -1.
         -1   -1    0    0    0  501 -0.00000000000E+00 -0.00000000000E+00 -0.43925005339E+02  0.43925005629E+02  0.50400000000E-02 0.  1.
         24    2    1    2    0    0 -0.71054273576E-14  0.11102230246E-15 -0.77881177528E+01  0.80061893305E+02  0.79682193629E+02 0.  0.
         66    2    3    3    0    0  0.35466466279E+02  0.76744073818E+00  0.14268605386E+02  0.38289062478E+02  0.20000025499E+01 0.  0.
        -13    1    3    3    0    0 -0.35466466279E+02 -0.76744073818E+00 -0.22056723139E+02  0.41772830827E+02  0.10566000000E+00 0.  1.
         13    1    4    4    0    0  0.22439758643E+02  0.91744812126E-01  0.86231216956E+01  0.24039978721E+02  0.10566000000E+00 0. -1.
        -13    1    4    4    0    0  0.24966142291E+01  0.74349029046E-01  0.67598539164E+00  0.25897356375E+01  0.10566000000E+00 0.  1.
        -14    1    4    4    0    0  0.10530093407E+02  0.60134689700E+00  0.49694982991E+01  0.11659348120E+02  0.00000000000E+00 0.  1.
<mgrwt>
<rscale>  0 0.79682194E+02</rscale>
<asrwt>0</asrwt>
<pdfrwt beam="1">  1        2 0.55595212E-02 0.79682194E+02</pdfrwt>
<pdfrwt beam="2">  1       -1 0.67576931E-02 0.79682194E+02</pdfrwt>
<totfact> 0.14118702E+05</totfact>
</mgrwt>
</event>
<event>
 8    1  0.2561077E-016  0.7796872E+02  0.7818608E-02  0.1334917E+00
          2   -1    0    0  501    0  0.00000000000E+00  0.00000000000E+00  0.69225661652E+03  0.69225661652E+03  0.25500000000E-02 0. -1.
         -1   -1    0    0    0  501 -0.00000000000E+00 -0.00000000000E+00 -0.21953971506E+01  0.21954029358E+01  0.50400000000E-02 0.  1.
         24    2    1    2    0    0 -0.35527136788E-14  0.00000000000E+00  0.69006121937E+03  0.69445201946E+03  0.77968717157E+02 0.  0.
         66    2    3    3    0    0  0.28246060049E+02 -0.81434590929E+01  0.57296817563E+03  0.57372527060E+03  0.20000014312E+01 0.  0.
        -13    1    3    3    0    0 -0.28246060049E+02  0.81434590929E+01  0.11709304374E+03  0.12072674886E+03  0.10566000000E+00 0.  1.
         13    1    4    4    0    0  0.14190459830E+02 -0.39119396668E+01  0.28522732629E+03  0.28560691736E+03  0.10566000000E+00 0. -1.
        -13    1    4    4    0    0  0.10522714152E+02 -0.37596619946E+01  0.22137311323E+03  0.22165497738E+03  0.10566000000E+00 0.  1.
        -14    1    4    4    0    0  0.35328860676E+01 -0.47185743150E+00  0.66367736112E+02  0.66463375855E+02  0.00000000000E+00 0.  1.
<mgrwt>
<rscale>  0 0.77968717E+02</rscale>
<asrwt>0</asrwt>
<pdfrwt beam="1">  1        2 0.10650116E+00 0.77968717E+02</pdfrwt>
<pdfrwt beam="2">  1       -1 0.33775341E-03 0.77968717E+02</pdfrwt>
<totfact> 0.35669995E+05</totfact>
</mgrwt>
</event>
<event>
 8    1  0.2561077E-016  0.7847707E+02  0.7818608E-02  0.1333430E+00
         -1   -1    0    0    0  501 -0.00000000000E+00  0.00000000000E+00  0.19774114424E+02  0.19774115066E+02  0.50400000000E-02 0.  1.
          2   -1    0    0  501    0  0.00000000000E+00 -0.00000000000E+00 -0.77862539264E+02  0.77862539306E+02  0.25500000000E-02 0. -1.
         24    2    1    2    0    0  0.00000000000E+00  0.00000000000E+00 -0.58088424840E+02  0.97636654372E+02  0.78477074210E+02 0.  0.
         66    2    3    3    0    0  0.15484674216E+01 -0.33036244980E+02 -0.55274792765E+02  0.64444502842E+02  0.19999993962E+01 0.  0.
        -13    1    3    3    0    0 -0.15484674216E+01  0.33036244980E+02 -0.28136320753E+01  0.33192151530E+02  0.10566000000E+00 0.  1.
         13    1    4    4    0    0  0.10289016110E+01 -0.24426175078E+02 -0.39400790219E+02  0.46369495376E+02  0.10566000000E+00 0. -1.
        -13    1    4    4    0    0  0.16135223577E+00 -0.70462754195E+00 -0.13194675774E+01  0.15082086196E+01  0.10566000000E+00 0.  1.
         14    1    4    4    0    0  0.35821357480E+00 -0.79054423594E+01 -0.14554534968E+02  0.16566798846E+02  0.00000000000E+00 0. -1.
<mgrwt>
<rscale>  0 0.78477074E+02</rscale>
<asrwt>0</asrwt>
<pdfrwt beam="1">  1        2 0.11978852E-01 0.78477074E+02</pdfrwt>
<pdfrwt beam="2">  1       -1 0.30421715E-02 0.78477074E+02</pdfrwt>
<totfact> 0.17461902E+05</totfact>
</mgrwt>
</event>
<event>
 8    1  0.2561077E-016  0.8192176E+02  0.7818608E-02  0.1323685E+00
         -1   -1    0    0    0  501 -0.00000000000E+00  0.00000000000E+00  0.69242114783E+02  0.69242114966E+02  0.50400000000E-02 0.  1.
          2   -1    0    0  501    0  0.00000000000E+00 -0.00000000000E+00 -0.24230828396E+02  0.24230828530E+02  0.25500000000E-02 0. -1.
         24    2    1    2    0    0  0.00000000000E+00  0.00000000000E+00  0.45011286387E+02  0.93472943497E+02  0.81921763066E+02 0.  0.
         66    2    3    3    0    0  0.14206157369E+02 -0.13476788604E+02 -0.18499191592E+02  0.27012197824E+02  0.20000008663E+01 0.  0.
        -13    1    3    3    0    0 -0.14206157369E+02  0.13476788604E+02  0.63510477979E+02  0.66460745673E+02  0.10566000000E+00 0.  1.
         13    1    4    4    0    0  0.10420681734E+02 -0.10350771828E+02 -0.14149554893E+02  0.20394856042E+02  0.10566000000E+00 0. -1.
        -13    1    4    4    0    0  0.37793552830E+01 -0.31271719253E+01 -0.43856052537E+01  0.65808379468E+01  0.10566000000E+00 0. -1.
         14    1    4    4    0    0  0.61203512383E-02  0.11551495850E-02  0.35968554829E-01  0.36503835502E-01  0.00000000000E+00 0. -1.
<mgrwt>
<rscale>  0 0.81921763E+02</rscale>
<asrwt>0</asrwt>
<pdfrwt beam="1">  1        2 0.37278198E-02 0.81921763E+02</pdfrwt>
<pdfrwt beam="2">  1       -1 0.10652633E-01 0.81921763E+02</pdfrwt>
<totfact> 0.12058536E+05</totfact>
</mgrwt>
</event>
<event>
 8    1  0.2561077E-016  0.7700794E+02  0.7818608E-02  0.1337763E+00
         -1   -1    0    0    0  501 -0.00000000000E+00  0.00000000000E+00  0.50512086361E+01  0.50512111505E+01  0.50400000000E-02 0.  1.
          2   -1    0    0  501    0  0.00000000000E+00 -0.00000000000E+00 -0.29350509438E+03  0.29350509439E+03  0.25500000000E-02 0. -1.
         24    2    1    2    0    0  0.17763568394E-14 -0.35527136788E-14 -0.28845388574E+03  0.29855630554E+03  0.77007943602E+02 0.  0.
         66    2    3    3    0    0 -0.92632197558E+01  0.28297170109E+02 -0.23881464166E+03  0.24067191392E+03  0.20000003101E+01 0.  0.
        -13    1    3    3    0    0  0.92632197558E+01 -0.28297170109E+02 -0.49639244084E+02  0.57884391624E+02  0.10566000000E+00 0.  1.
         13    1    4    4    0    0 -0.34243901112E+01  0.11576949750E+02 -0.93140856398E+02  0.93920085752E+02  0.10566000000E+00 0. -1.
        -13    1    4    4    0    0 -0.48823626321E+01  0.12327425629E+02 -0.10878866724E+03  0.10959374148E+03  0.10566000000E+00 0.  1.
        -14    1    4    4    0    0 -0.95646701247E+00  0.43927947304E+01 -0.36885118023E+02  0.37158086687E+02  0.00000000000E+00 0.  1.
<mgrwt>
<rscale>  0 0.77007944E+02</rscale>
<asrwt>0</asrwt>
<pdfrwt beam="1">  1        2 0.45154617E-01 0.77007944E+02</pdfrwt>
<pdfrwt beam="2">  1       -1 0.77710945E-03 0.77007944E+02</pdfrwt>
<totfact> 0.27947098E+05</totfact>
</mgrwt>
</event>
<event>
 8    1  0.2561077E-016  0.7795591E+02  0.7818608E-02  0.1334954E+00
          2   -1    0    0  501    0  0.00000000000E+00  0.00000000000E+00  0.98961209655E+03  0.98961209655E+03  0.25500000000E-02 0. -1.
         -1   -1    0    0    0  501 -0.00000000000E+00 -0.00000000000E+00 -0.15352246549E+01  0.15352329278E+01  0.50400000000E-02 0.  1.
         24    2    1    2    0    0 -0.71054273576E-14  0.88817841970E-15  0.98807687190E+03  0.99114732948E+03  0.77955910383E+02 0.  0.
         66    2    3    3    0    0  0.26644157579E+02 -0.62479089798E+01  0.84678441999E+03  0.84722889554E+03  0.19999985876E+01 0.  0.
        -13    1    3    3    0    0 -0.26644157579E+02  0.62479089798E+01  0.14129245190E+03  0.14391843394E+03  0.10566000000E+00 0.  1.
         13    1    4    4    0    0  0.89928225164E+01 -0.29703962646E+01  0.29981250203E+03  0.29996206702E+03  0.10566000000E+00 0. -1.
        -13    1    4    4    0    0  0.50549234131E+01 -0.91863106649E+00  0.14853308456E+03  0.14862195163E+03  0.10566000000E+00 0.  1.
         14    1    4    4    0    0  0.12596411649E+02 -0.23588816487E+01  0.39843883340E+03  0.39864487689E+03  0.00000000000E+00 0. -1.
<mgrwt>
<rscale>  0 0.77955910E+02</rscale>
<asrwt>0</asrwt>
<pdfrwt beam="1">  1        2 0.15224850E+00 0.77955910E+02</pdfrwt>
<pdfrwt beam="2">  1       -1 0.23618830E-03 0.77955910E+02</pdfrwt>
<totfact> 0.37658737E+05</totfact>
</mgrwt>
</event>
<event>
 8    1  0.2561077E-016  0.7925390E+02  0.7818608E-02  0.1331182E+00
          2   -1    0    0  501    0  0.00000000000E+00  0.00000000000E+00  0.27570858812E+03  0.27570858813E+03  0.25500000000E-02 0. -1.
         -1   -1    0    0    0  501 -0.00000000000E+00 -0.00000000000E+00 -0.56954877383E+01  0.56954899682E+01  0.50400000000E-02 0.  1.
         24    2    1    2    0    0 -0.35527136788E-14 -0.88817841970E-15  0.27001310038E+03  0.28140407810E+03  0.79253900810E+02 0.  0.
         66    2    3    3    0    0  0.28973385854E+02  0.59142824367E+01  0.22862077534E+03  0.23053393400E+03  0.19999957342E+01 0.  0.
        -13    1    3    3    0    0 -0.28973385854E+02 -0.59142824367E+01  0.41392325043E+02  0.50870144103E+02  0.10566000000E+00 0.  1.
         13    1    4    4    0    0  0.19618313553E+02  0.34996541926E+01  0.15546938211E+03  0.15674139767E+03  0.10566000000E+00 0. -1.
        -13    1    4    4    0    0  0.16292078242E+01  0.42610908614E+00  0.15562450628E+02  0.15653655186E+02  0.10566000000E+00 0.  1.
         14    1    4    4    0    0  0.77258644764E+01  0.19885191580E+01  0.57588942602E+02  0.58138881142E+02  0.00000000000E+00 0. -1.
<mgrwt>
<rscale>  0 0.79253901E+02</rscale>
<asrwt>0</asrwt>
<pdfrwt beam="1">  1        2 0.42416709E-01 0.79253901E+02</pdfrwt>
<pdfrwt beam="2">  1       -1 0.87622899E-03 0.79253901E+02</pdfrwt>
<totfact> 0.25341864E+05</totfact>
</mgrwt>
</event>
<event>
 8    1  0.2561077E-016  0.7635452E+02  0.7818608E-02  0.1339727E+00
          2   -1    0    0  501    0  0.00000000000E+00  0.00000000000E+00  0.15202246903E+03  0.15202246905E+03  0.25500000000E-02 0. -1.
         -1   -1    0    0    0  501 -0.00000000000E+00 -0.00000000000E+00 -0.95874178494E+01  0.95874191742E+01  0.50400000000E-02 0.  1.
         24    2    1    2    0    0  0.00000000000E+00 -0.35527136788E-14  0.14243505118E+03  0.16160988823E+03  0.76354516353E+02 0.  0.
         66    2    3    3    0    0 -0.18130397704E+02 -0.23488306943E+02  0.12202369009E+03  0.12559535353E+03  0.20000000805E+01 0.  0.
        -13    1    3    3    0    0  0.18130397704E+02  0.23488306943E+02  0.20411361090E+02  0.36014534699E+02  0.10566000000E+00 0.  1.
         13    1    4    4    0    0 -0.34755250397E+01 -0.55627274533E+01  0.26815973457E+02  0.27606716710E+02  0.10566000000E+00 0. -1.
        -13    1    4    4    0    0 -0.10274607086E+01 -0.11587664235E+01  0.54244210938E+01  0.56421559151E+01  0.10566000000E+00 0.  1.
         14    1    4    4    0    0 -0.13627411956E+02 -0.16766813066E+02  0.89783295540E+02  0.92346480903E+02  0.00000000000E+00 0. -1.
<mgrwt>
<rscale>  0 0.76354516E+02</rscale>
<asrwt>0</asrwt>
<pdfrwt beam="1">  1        2 0.23388072E-01 0.76354516E+02</pdfrwt>
<pdfrwt beam="2">  1       -1 0.14749875E-02 0.76354516E+02</pdfrwt>
<totfact> 0.22759137E+05</totfact>
</mgrwt>
</event>
<event>
 8    1  0.2561077E-016  0.7972447E+02  0.7818608E-02  0.1329835E+00
          2   -1    0    0  501    0  0.00000000000E+00  0.00000000000E+00  0.19802133068E+02  0.19802133232E+02  0.25500000000E-02 0. -1.
         -1   -1    0    0    0  501 -0.00000000000E+00 -0.00000000000E+00 -0.80243759327E+02  0.80243759485E+02  0.50400000000E-02 0.  1.
         24    2    1    2    0    0  0.00000000000E+00  0.00000000000E+00 -0.60441626259E+02  0.10004589272E+03  0.79724465911E+02 0.  0.
         66    2    3    3    0    0 -0.17697391319E+02 -0.29061824965E+02 -0.42417633387E+01  0.34347924057E+02  0.20000002453E+01 0.  0.
        -13    1    3    3    0    0  0.17697391319E+02  0.29061824965E+02 -0.56199862921E+02  0.65697968661E+02  0.10566000000E+00 0.  1.
         13    1    4    4    0    0 -0.14135550250E+01 -0.29077302326E+01 -0.56960959826E+00  0.32846083548E+01  0.10566000000E+00 0.  1.
        -13    1    4    4    0    0 -0.55527851203E+01 -0.95571720224E+01 -0.68486215806E+00  0.11074888707E+02  0.10566000000E+00 0. -1.
         14    1    4    4    0    0 -0.10731051174E+02 -0.16596922710E+02 -0.29872915824E+01  0.19988426995E+02  0.00000000000E+00 0. -1.
<mgrwt>
<rscale>  0 0.79724466E+02</rscale>
<asrwt>0</asrwt>
<pdfrwt beam="1">  1        2 0.30464821E-02 0.79724466E+02</pdfrwt>
<pdfrwt beam="2">  1       -1 0.12345194E-01 0.79724466E+02</pdfrwt>
<totfact> 0.12514191E+05</totfact>
</mgrwt>
</event>
<event>
 8    1  0.2561077E-016  0.8071453E+02  0.7818608E-02  0.1327036E+00
          2   -1    0    0  501    0  0.00000000000E+00  0.00000000000E+00  0.18314222330E+04  0.18314222330E+04  0.25500000000E-02 0. -1.
         -1   -1    0    0    0  501 -0.00000000000E+00 -0.00000000000E+00 -0.88930663673E+00  0.88932091830E+00  0.50400000000E-02 0.  1.
         24    2    1    2    0    0  0.00000000000E+00 -0.11102230246E-15  0.18305329263E+04  0.18323115539E+04  0.80714534806E+02 0.  0.
         66    2    3    3    0    0  0.18056375738E+02 -0.88491534162E+00  0.17342927458E+04  0.17343881180E+04  0.20000017063E+01 0.  0.
        -13    1    3    3    0    0 -0.18056375738E+02  0.88491534162E+00  0.96240180537E+02  0.97923435876E+02  0.10566000000E+00 0.  1.
         13    1    4    4    0    0  0.27625788906E+01 -0.53419768816E+00  0.28721466179E+03  0.28722846363E+03  0.10566000000E+00 0. -1.
        -13    1    4    4    0    0  0.66250471676E+01  0.65696954743E-01  0.56391777734E+03  0.56395670608E+03  0.10566000000E+00 0.  1.
        -14    1    4    4    0    0  0.86687496793E+01 -0.41641460820E+00  0.88316030668E+03  0.88320294832E+03  0.00000000000E+00 0.  1.
<mgrwt>
<rscale>  0 0.80714535E+02</rscale>
<asrwt>0</asrwt>
<pdfrwt beam="1">  1        2 0.28175630E+00 0.80714535E+02</pdfrwt>
<pdfrwt beam="2">  1       -1 0.13681797E-03 0.80714535E+02</pdfrwt>
<totfact> 0.29166972E+05</totfact>
</mgrwt>
</event>
<event>
 8    1  0.2561077E-016  0.8223323E+02  0.7818608E-02  0.1322831E+00
         -1   -1    0    0    0  501 -0.00000000000E+00  0.00000000000E+00  0.10746043293E+03  0.10746043305E+03  0.50400000000E-02 0.  1.
          2   -1    0    0  501    0  0.00000000000E+00 -0.00000000000E+00 -0.15732077272E+02  0.15732077478E+02  0.25500000000E-02 0. -1.
         24    2    1    2    0    0  0.00000000000E+00  0.00000000000E+00  0.91728355660E+02  0.12319251053E+03  0.82233225756E+02 0.  0.
         66    2    3    3    0    0 -0.33084074432E+02 -0.15662243166E+02  0.17916330019E+02  0.40802655964E+02  0.20000025825E+01 0.  0.
        -13    1    3    3    0    0  0.33084074432E+02  0.15662243166E+02  0.73812025641E+02  0.82389854565E+02  0.10566000000E+00 0.  1.
         13    1    4    4    0    0 -0.80403890464E+01 -0.36573844825E+01  0.39753525746E+01  0.96870485391E+01  0.10566000000E+00 0. -1.
        -13    1    4    4    0    0 -0.14389016272E+02 -0.68716595391E+01  0.71254652445E+01  0.17465592262E+02  0.10566000000E+00 0.  1.
         14    1    4    4    0    0 -0.10654669113E+02 -0.51331991447E+01  0.68155122002E+01  0.13650015162E+02  0.00000000000E+00 0. -1.
<mgrwt>
<rscale>  0 0.82233226E+02</rscale>
<asrwt>0</asrwt>
<pdfrwt beam="1">  1        2 0.24203196E-02 0.82233226E+02</pdfrwt>
<pdfrwt beam="2">  1       -1 0.16532374E-01 0.82233226E+02</pdfrwt>
<totfact> 0.10893387E+05</totfact>
</mgrwt>
</event>
<event>
 8    1  0.2561077E-016  0.8329335E+02  0.7818608E-02  0.1319957E+00
         -1   -1    0    0    0  501 -0.00000000000E+00  0.00000000000E+00  0.63730013023E+02  0.63730013222E+02  0.50400000000E-02 0.  1.
          2   -1    0    0  501    0  0.00000000000E+00 -0.00000000000E+00 -0.27215521715E+02  0.27215521834E+02  0.25500000000E-02 0. -1.
         24    2    1    2    0    0  0.00000000000E+00  0.00000000000E+00  0.36514491308E+02  0.90945535056E+02  0.83293350702E+02 0.  0.
         66    2    3    3    0    0 -0.22667947418E+01 -0.36647007976E+02  0.39672271767E+02  0.54092797119E+02  0.20000002679E+01 0.  0.
        -13    1    3    3    0    0  0.22667947418E+01  0.36647007976E+02 -0.31577804582E+01  0.36852737937E+02  0.10566000000E+00 0.  1.
         13    1    4    4    0    0 -0.20135239165E+01 -0.31241268730E+02  0.33232953236E+02  0.45656450752E+02  0.10566000000E+00 0. -1.
        -13    1    4    4    0    0 -0.33971348124E+00 -0.53080245627E+01  0.62810729520E+01  0.82312557652E+01  0.10566000000E+00 0.  1.
        -14    1    4    4    0    0  0.86442655907E-01 -0.97714683695E-01  0.15824557818E+00  0.20509060238E+00  0.00000000000E+00 0.  1.
<mgrwt>
<rscale>  0 0.83293351E+02</rscale>
<asrwt>0</asrwt>
<pdfrwt beam="1">  1        2 0.41870034E-02 0.83293351E+02</pdfrwt>
<pdfrwt beam="2">  1       -1 0.98046174E-02 0.83293351E+02</pdfrwt>
<totfact> 0.11776222E+05</totfact>
</mgrwt>
</event>
<event>
 8    1  0.2561077E-016  0.7736291E+02  0.7818608E-02  0.1336706E+00
         -1   -1    0    0    0  501 -0.00000000000E+00  0.00000000000E+00  0.30694813541E+01  0.30694854918E+01  0.50400000000E-02 0.  1.
          2   -1    0    0  501    0  0.00000000000E+00 -0.00000000000E+00 -0.48746152081E+03  0.48746152081E+03  0.25500000000E-02 0. -1.
         24    2    1    2    0    0  0.00000000000E+00 -0.11102230246E-15 -0.48439203945E+03  0.49053100630E+03  0.77362912702E+02 0.  0.
         66    2    3    3    0    0  0.18365133445E+02 -0.77435915136E+00 -0.45797419244E+03  0.45834729050E+03  0.20000009636E+01 0.  0.
        -13    1    3    3    0    0 -0.18365133445E+02  0.77435915136E+00 -0.26417847011E+02  0.32183715809E+02  0.10566000000E+00 0.  1.
         13    1    4    4    0    0  0.16186486404E+02 -0.68805793179E+00 -0.38906080443E+03  0.38939799239E+03  0.10566000000E+00 0. -1.
        -13    1    4    4    0    0  0.32888710543E+00  0.11378874132E+00 -0.11949432652E+02  0.11954966305E+02  0.10566000000E+00 0.  1.
         14    1    4    4    0    0  0.18497599359E+01 -0.20008996089E+00 -0.56963955359E+02  0.56994331805E+02  0.00000000000E+00 0. -1.
<mgrwt>
<rscale>  0 0.77362913E+02</rscale>
<asrwt>0</asrwt>
<pdfrwt beam="1">  1        2 0.74994019E-01 0.77362913E+02</pdfrwt>
<pdfrwt beam="2">  1       -1 0.47222861E-03 0.77362913E+02</pdfrwt>
<totfact> 0.32957344E+05</totfact>
</mgrwt>
</event>
<event>
 8    1  0.2561077E-016  0.8685725E+02  0.7818608E-02  0.1310646E+00
         -1   -1    0    0    0  501 -0.00000000000E+00  0.00000000000E+00  0.16679460648E+02  0.16679461409E+02  0.50400000000E-02 0.  1.
          2   -1    0    0  501    0  0.00000000000E+00 -0.00000000000E+00 -0.11307593509E+03  0.11307593512E+03  0.25500000000E-02 0. -1.
         24    2    1    2    0    0  0.35527136788E-14  0.35527136788E-14 -0.96396474446E+02  0.12975539653E+03  0.86857254409E+02 0.  0.
         66    2    3    3    0    0 -0.26855498564E+02 -0.24641541973E+02 -0.83437057632E+02  0.91072311829E+02  0.20000004039E+01 0.  0.
        -13    1    3    3    0    0  0.26855498564E+02  0.24641541973E+02 -0.12959416814E+02  0.38683084702E+02  0.10566000000E+00 0.  1.
         13    1    4    4    0    0 -0.12774073497E+02 -0.10644823733E+02 -0.38819343998E+02  0.42230816456E+02  0.10566000000E+00 0.  1.
        -13    1    4    4    0    0 -0.12483230992E+02 -0.12125708364E+02 -0.38745586209E+02  0.42474645072E+02  0.10566000000E+00 0. -1.
        -14    1    4    4    0    0 -0.15981940753E+01 -0.18710098757E+01 -0.58721274252E+01  0.63668503010E+01  0.00000000000E+00 0.  1.
<mgrwt>
<rscale>  0 0.86857254E+02</rscale>
<asrwt>0</asrwt>
<pdfrwt beam="1">  1        2 0.17396297E-01 0.86857254E+02</pdfrwt>
<pdfrwt beam="2">  1       -1 0.25660710E-02 0.86857254E+02</pdfrwt>
<totfact> 0.14724799E+05</totfact>
</mgrwt>
</event>
<event>
 8    1  0.2561077E-016  0.8049833E+02  0.7818608E-02  0.1327643E+00
         -1   -1    0    0    0  501 -0.00000000000E+00  0.00000000000E+00  0.45669463553E+02  0.45669463831E+02  0.50400000000E-02 0.  1.
          2   -1    0    0  501    0  0.00000000000E+00 -0.00000000000E+00 -0.35472180077E+02  0.35472180168E+02  0.25500000000E-02 0. -1.
         24    2    1    2    0    0  0.17763568394E-14  0.00000000000E+00  0.10197283477E+02  0.81141643999E+02  0.80498334148E+02 0.  0.
         66    2    3    3    0    0 -0.15616032884E+02 -0.29491335780E+02 -0.17536353509E+02  0.37750802183E+02  0.20000004904E+01 0.  0.
        -13    1    3    3    0    0  0.15616032884E+02  0.29491335780E+02  0.27733636985E+02  0.43390841817E+02  0.10566000000E+00 0.  1.
         13    1    4    4    0    0 -0.10609092453E+01 -0.14863660458E+01 -0.89194370828E+00  0.20350774097E+01  0.10566000000E+00 0. -1.
        -13    1    4    4    0    0 -0.73284422955E+01 -0.12419624568E+02 -0.76086316388E+01  0.16305078361E+02  0.10566000000E+00 0. -1.
         14    1    4    4    0    0 -0.72266813427E+01 -0.15585345166E+02 -0.90357781615E+01  0.19410646412E+02  0.00000000000E+00 0. -1.
<mgrwt>
<rscale>  0 0.80498334E+02</rscale>
<asrwt>0</asrwt>
<pdfrwt beam="1">  1        2 0.54572585E-02 0.80498334E+02</pdfrwt>
<pdfrwt beam="2">  1       -1 0.70260714E-02 0.80498334E+02</pdfrwt>
<totfact> 0.13673215E+05</totfact>
</mgrwt>
</event>
<event>
 8    1  0.2561077E-016  0.8103005E+02  0.7818608E-02  0.1326153E+00
          2   -1    0    0  501    0  0.00000000000E+00  0.00000000000E+00  0.36902967651E+03  0.36902967652E+03  0.25500000000E-02 0. -1.
         -1   -1    0    0    0  501 -0.00000000000E+00 -0.00000000000E+00 -0.44480615288E+01  0.44480643842E+01  0.50400000000E-02 0.  1.
         24    2    1    2    0    0 -0.55511151231E-16  0.00000000000E+00  0.36458161498E+03  0.37347774090E+03  0.81030049782E+02 0.  0.
         66    2    3    3    0    0  0.41906817714E+00 -0.32555827799E+02  0.29334703632E+03  0.29515511388E+03  0.19999983791E+01 0.  0.
        -13    1    3    3    0    0 -0.41906817714E+00  0.32555827799E+02  0.71234578667E+02  0.78322627022E+02  0.10566000000E+00 0.  1.
         13    1    4    4    0    0 -0.63857258540E+00 -0.18285272915E+02  0.16690688945E+03  0.16790675952E+03  0.10566000000E+00 0. -1.
        -13    1    4    4    0    0  0.43724139740E+00 -0.45486086112E+01  0.38618991340E+02  0.38888541712E+02  0.10566000000E+00 0.  1.
        -14    1    4    4    0    0  0.62039936513E+00 -0.97219462728E+01  0.87821155521E+02  0.88359812651E+02  0.00000000000E+00 0.  1.
<mgrwt>
<rscale>  0 0.81030050E+02</rscale>
<asrwt>0</asrwt>
<pdfrwt beam="1">  1        2 0.56773796E-01 0.81030050E+02</pdfrwt>
<pdfrwt beam="2">  1       -1 0.68431738E-03 0.81030050E+02</pdfrwt>
<totfact> 0.26557661E+05</totfact>
</mgrwt>
</event>
<event>
 8    1  0.2561077E-016  0.8100545E+02  0.7818608E-02  0.1326222E+00
         -1   -1    0    0    0  501 -0.00000000000E+00  0.00000000000E+00  0.39648871508E+01  0.39648903541E+01  0.50400000000E-02 0.  1.
          2   -1    0    0  501    0  0.00000000000E+00 -0.00000000000E+00 -0.41374950326E+03  0.41374950327E+03  0.25500000000E-02 0. -1.
         24    2    1    2    0    0  0.00000000000E+00  0.35527136788E-14 -0.40978461611E+03  0.41771439363E+03  0.81005450676E+02 0.  0.
         66    2    3    3    0    0 -0.10184682463E+02  0.20324239061E+02 -0.37771849707E+03  0.37840727462E+03  0.20000009493E+01 0.  0.
        -13    1    3    3    0    0  0.10184682463E+02 -0.20324239061E+02 -0.32066119043E+02  0.39307119009E+02  0.10566000000E+00 0.  1.
         13    1    4    4    0    0 -0.34426324871E+01  0.57467395999E+01 -0.10985601020E+03  0.11006012391E+03  0.10566000000E+00 0. -1.
        -13    1    4    4    0    0 -0.17957698850E+01  0.39183113077E+01 -0.62224951456E+02  0.62374142886E+02  0.10566000000E+00 0.  1.
         14    1    4    4    0    0 -0.49462800905E+01  0.10659188153E+02 -0.20563753541E+03  0.20597300782E+03  0.00000000000E+00 0. -1.
<mgrwt>
<rscale>  0 0.81005451E+02</rscale>
<asrwt>0</asrwt>
<pdfrwt beam="1">  1        2 0.63653736E-01 0.81005451E+02</pdfrwt>
<pdfrwt beam="2">  1       -1 0.60998321E-03 0.81005451E+02</pdfrwt>
<totfact> 0.27669847E+05</totfact>
</mgrwt>
</event>
<event>
 8    1  0.2561077E-016  0.7391162E+02  0.7818608E-02  0.1347275E+00
          2   -1    0    0  501    0  0.00000000000E+00  0.00000000000E+00  0.76523389861E+01  0.76523394109E+01  0.25500000000E-02 0. -1.
         -1   -1    0    0    0  501 -0.00000000000E+00 -0.00000000000E+00 -0.17847247065E+03  0.17847247072E+03  0.50400000000E-02 0.  1.
         24    2    1    2    0    0  0.00000000000E+00  0.00000000000E+00 -0.17082013166E+03  0.18612481013E+03  0.73911619959E+02 0.  0.
         66    2    3    3    0    0 -0.34811750499E+02 -0.19194516597E+01 -0.11612686540E+03  0.12126413787E+03  0.19999996068E+01 0.  0.
        -13    1    3    3    0    0  0.34811750499E+02  0.19194516597E+01 -0.54693266261E+02  0.64860672258E+02  0.10566000000E+00 0.  1.
         13    1    4    4    0    0 -0.21083297061E+02 -0.10691551804E+01 -0.72908102279E+02  0.75902905410E+02  0.10566000000E+00 0. -1.
        -13    1    4    4    0    0 -0.12154743751E+02 -0.92838206590E+00 -0.38793883882E+02  0.40664189155E+02  0.10566000000E+00 0.  1.
        -14    1    4    4    0    0 -0.15737096866E+01  0.78085586649E-01 -0.44248792381E+01  0.46970433049E+01  0.00000000000E+00 0.  1.
<mgrwt>
<rscale>  0 0.73911620E+02</rscale>
<asrwt>0</asrwt>
<pdfrwt beam="1">  1        2 0.11772831E-02 0.73911620E+02</pdfrwt>
<pdfrwt beam="2">  1       -1 0.27457300E-01 0.73911620E+02</pdfrwt>
<totfact> 0.12584346E+05</totfact>
</mgrwt>
</event>
<event>
 8    1  0.2561077E-016  0.8148777E+02  0.7818608E-02  0.1324882E+00
          2   -1    0    0  501    0  0.00000000000E+00  0.00000000000E+00  0.57482809329E+03  0.57482809329E+03  0.25500000000E-02 0. -1.
         -1   -1    0    0    0  501 -0.00000000000E+00 -0.00000000000E+00 -0.28879291246E+01  0.28879335225E+01  0.50400000000E-02 0.  1.
         24    2    1    2    0    0  0.00000000000E+00 -0.22204460493E-15  0.57194016416E+03  0.57771602681E+03  0.81487767529E+02 0.  0.
         66    2    3    3    0    0 -0.38322824971E+02 -0.11744196689E+01  0.38336019785E+03  0.38527789900E+03  0.19999983665E+01 0.  0.
        -13    1    3    3    0    0  0.38322824971E+02  0.11744196689E+01  0.18857996632E+03  0.19243812781E+03  0.10566000000E+00 0.  1.
         13    1    4    4    0    0 -0.31376842935E+02 -0.88428924127E+00  0.31044776250E+03  0.31203062774E+03  0.10566000000E+00 0. -1.
        -13    1    4    4    0    0 -0.47365674712E+01 -0.54161548224E+00  0.48649519296E+02  0.48882668815E+02  0.10566000000E+00 0.  1.
         14    1    4    4    0    0 -0.22094145650E+01  0.25148505458E+00  0.24262916050E+02  0.24364602453E+02  0.00000000000E+00 0. -1.
<mgrwt>
<rscale>  0 0.81487768E+02</rscale>
<asrwt>0</asrwt>
<pdfrwt beam="1">  1        2 0.88435004E-01 0.81487768E+02</pdfrwt>
<pdfrwt beam="2">  1       -1 0.44429757E-03 0.81487768E+02</pdfrwt>
<totfact> 0.30284959E+05</totfact>
</mgrwt>
</event>
<event>
 8    1  0.2561077E-016  0.7855592E+02  0.7818608E-02  0.1333200E+00
         -1   -1    0    0    0  501 -0.00000000000E+00  0.00000000000E+00  0.23381776429E+03  0.23381776434E+03  0.50400000000E-02 0.  1.
          2   -1    0    0  501    0  0.00000000000E+00 -0.00000000000E+00 -0.65981220245E+01  0.65981225172E+01  0.25500000000E-02 0. -1.
         24    2    1    2    0    0  0.35527136788E-14 -0.35527136788E-14  0.22721964227E+03  0.24041588686E+03  0.78555921637E+02 0.  0.
         66    2    3    3    0    0  0.25875556604E+02 -0.20805567147E+02  0.49608287322E+02  0.59727700688E+02  0.20000011335E+01 0.  0.
        -13    1    3    3    0    0 -0.25875556604E+02  0.20805567147E+02  0.17761135494E+03  0.18068818617E+03  0.10566000000E+00 0.  1.
         13    1    4    4    0    0  0.27486589558E+01 -0.24185376281E+01  0.56517381614E+01  0.67348168939E+01  0.10566000000E+00 0.  1.
        -13    1    4    4    0    0  0.25951661226E+00 -0.27243742941E+00  0.93078116976E+00  0.10094992058E+01  0.10566000000E+00 0.  1.
         14    1    4    4    0    0  0.22867381036E+02 -0.18114592089E+02  0.43025767991E+02  0.51983384588E+02  0.00000000000E+00 0. -1.
<mgrwt>
<rscale>  0 0.78555922E+02</rscale>
<asrwt>0</asrwt>
<pdfrwt beam="1">  1        2 0.10150957E-02 0.78555922E+02</pdfrwt>
<pdfrwt beam="2">  1       -1 0.35971967E-01 0.78555922E+02</pdfrwt>
<totfact> 0.99274882E+04</totfact>
</mgrwt>
</event>
<event>
 8    1  0.2561077E-016  0.7727283E+02  0.7818608E-02  0.1336974E+00
          2   -1    0    0  501    0  0.00000000000E+00  0.00000000000E+00  0.72223330236E+01  0.72223334738E+01  0.25500000000E-02 0. -1.
         -1   -1    0    0    0  501 -0.00000000000E+00 -0.00000000000E+00 -0.20668840551E+03  0.20668840558E+03  0.50400000000E-02 0.  1.
         24    2    1    2    0    0  0.00000000000E+00  0.00000000000E+00 -0.19946607249E+03  0.21391073905E+03  0.77272829674E+02 0.  0.
         66    2    3    3    0    0 -0.21962499722E+02  0.31543170161E+02 -0.10995000137E+03  0.11649174125E+03  0.20000005290E+01 0.  0.
        -13    1    3    3    0    0  0.21962499722E+02 -0.31543170161E+02 -0.89516071123E+02  0.97418997794E+02  0.10566000000E+00 0.  1.
         13    1    4    4    0    0 -0.63041670218E+01  0.98970150836E+01 -0.32529279217E+02  0.34581188525E+02  0.10566000000E+00 0. -1.
        -13    1    4    4    0    0 -0.10948321085E+02  0.14226817783E+02 -0.51144238232E+02  0.54203434828E+02  0.10566000000E+00 0.  1.
         14    1    4    4    0    0 -0.47100116153E+01  0.74193372942E+01 -0.26276483918E+02  0.27707117902E+02  0.00000000000E+00 0. -1.
<mgrwt>
<rscale>  0 0.77272830E+02</rscale>
<asrwt>0</asrwt>
<pdfrwt beam="1">  1        2 0.11111284E-02 0.77272830E+02</pdfrwt>
<pdfrwt beam="2">  1       -1 0.31798212E-01 0.77272830E+02</pdfrwt>
<totfact> 0.10770834E+05</totfact>
</mgrwt>
</event>
<event>
 8    1  0.2561077E-016  0.7778053E+02  0.7818608E-02  0.1335471E+00
          2   -1    0    0  501    0  0.00000000000E+00  0.00000000000E+00  0.61569108013E+02  0.61569108066E+02  0.25500000000E-02 0. -1.
         -1   -1    0    0    0  501 -0.00000000000E+00 -0.00000000000E+00 -0.24565120922E+02  0.24565121439E+02  0.50400000000E-02 0.  1.
         24    2    1    2    0    0  0.00000000000E+00  0.00000000000E+00  0.37003987091E+02  0.86134229505E+02  0.77780527331E+02 0.  0.
         66    2    3    3    0    0 -0.19216884108E+02 -0.32031353857E+02  0.30397560271E+02  0.48200704700E+02  0.19999996157E+01 0.  0.
        -13    1    3    3    0    0  0.19216884108E+02  0.32031353857E+02  0.66064268199E+01  0.37933524805E+02  0.10566000000E+00 0.  1.
         13    1    4    4    0    0 -0.10294160269E+02 -0.17362345704E+02  0.16597846613E+02  0.26132746894E+02  0.10566000000E+00 0. -1.
        -13    1    4    4    0    0 -0.43994156526E+01 -0.59779288020E+01  0.60052893173E+01  0.95480445467E+01  0.10566000000E+00 0.  1.
         14    1    4    4    0    0 -0.45233081856E+01 -0.86910793509E+01  0.77944243403E+01  0.12519913259E+02  0.00000000000E+00 0. -1.
<mgrwt>
<rscale>  0 0.77780527E+02</rscale>
<asrwt>0</asrwt>
<pdfrwt beam="1">  1        2 0.94721705E-02 0.77780527E+02</pdfrwt>
<pdfrwt beam="2">  1       -1 0.37792494E-02 0.77780527E+02</pdfrwt>
<totfact> 0.16901911E+05</totfact>
</mgrwt>
</event>
<event>
 8    1  0.2561077E-016  0.8135579E+02  0.7818608E-02  0.1325247E+00
         -1   -1    0    0    0  501 -0.00000000000E+00  0.00000000000E+00  0.28159595033E+01  0.28159640136E+01  0.50400000000E-02 0.  1.
          2   -1    0    0  501    0  0.00000000000E+00 -0.00000000000E+00 -0.58761142600E+03  0.58761142600E+03  0.25500000000E-02 0. -1.
         24    2    1    2    0    0  0.00000000000E+00  0.00000000000E+00 -0.58479546649E+03  0.59042739001E+03  0.81355794198E+02 0.  0.
         66    2    3    3    0    0 -0.33354782442E+02 -0.63864801670E+01 -0.45474893784E+03  0.45601965430E+03  0.20000007801E+01 0.  0.
        -13    1    3    3    0    0  0.33354782442E+02  0.63864801670E+01 -0.13004652865E+03  0.13440773571E+03  0.10566000000E+00 0.  1.
         13    1    4    4    0    0 -0.33881571012E+01 -0.11440257422E+01 -0.50096203364E+02  0.50223790767E+02  0.10566000000E+00 0.  1.
        -13    1    4    4    0    0 -0.17655846073E+02 -0.34727417618E+01 -0.23535647765E+03  0.23604336799E+03  0.10566000000E+00 0. -1.
         14    1    4    4    0    0 -0.12310779268E+02 -0.17697126630E+01 -0.16929625682E+03  0.16975249554E+03  0.00000000000E+00 0. -1.
<mgrwt>
<rscale>  0 0.81355794E+02</rscale>
<asrwt>0</asrwt>
<pdfrwt beam="1">  1        2 0.90401660E-01 0.81355794E+02</pdfrwt>
<pdfrwt beam="2">  1       -1 0.43322536E-03 0.81355794E+02</pdfrwt>
<totfact> 0.30605923E+05</totfact>
</mgrwt>
</event>
<event>
 8    1  0.2561077E-016  0.7757208E+02  0.7818608E-02  0.1336086E+00
         -1   -1    0    0    0  501 -0.00000000000E+00  0.00000000000E+00  0.51416459943E+02  0.51416460190E+02  0.50400000000E-02 0.  1.
          2   -1    0    0  501    0  0.00000000000E+00 -0.00000000000E+00 -0.29258273037E+02  0.29258273148E+02  0.25500000000E-02 0. -1.
         24    2    1    2    0    0  0.00000000000E+00  0.00000000000E+00  0.22158186907E+02  0.80674733338E+02  0.77572078432E+02 0.  0.
         66    2    3    3    0    0  0.13085282954E+02 -0.30238084172E+02 -0.10145441828E+02  0.34532540523E+02  0.20000001788E+01 0.  0.
        -13    1    3    3    0    0 -0.13085282954E+02  0.30238084172E+02  0.32303628734E+02  0.46142192815E+02  0.10566000000E+00 0.  1.
         13    1    4    4    0    0  0.39857101880E+01 -0.79930038718E+01 -0.28338799886E+01  0.93710210981E+01  0.10566000000E+00 0. -1.
        -13    1    4    4    0    0  0.60851538898E+01 -0.16113414499E+02 -0.47848857806E+01  0.17876731263E+02  0.10566000000E+00 0.  1.
        -14    1    4    4    0    0  0.30144188762E+01 -0.61316658016E+01 -0.25266760586E+01  0.72847881622E+01  0.00000000000E+00 0.  1.
<mgrwt>
<rscale>  0 0.77572078E+02</rscale>
<asrwt>0</asrwt>
<pdfrwt beam="1">  1        2 0.45012728E-02 0.77572078E+02</pdfrwt>
<pdfrwt beam="2">  1       -1 0.79102247E-02 0.77572078E+02</pdfrwt>
<totfact> 0.14595251E+05</totfact>
</mgrwt>
</event>
<event>
 8    1  0.2561077E-016  0.7804558E+02  0.7818608E-02  0.1334691E+00
         -1   -1    0    0    0  501 -0.00000000000E+00  0.00000000000E+00  0.50807537890E+01  0.50807562888E+01  0.50400000000E-02 0.  1.
          2   -1    0    0  501    0  0.00000000000E+00 -0.00000000000E+00 -0.29971494318E+03  0.29971494319E+03  0.25500000000E-02 0. -1.
         24    2    1    2    0    0 -0.88817841970E-15 -0.71054273576E-14 -0.29463418939E+03  0.30479569948E+03  0.78045581958E+02 0.  0.
         66    2    3    3    0    0 -0.66113448275E+01 -0.37798167239E+02 -0.17457248480E+03  0.17875112244E+03  0.19999995701E+01 0.  0.
        -13    1    3    3    0    0  0.66113448275E+01  0.37798167239E+02 -0.12006170459E+03  0.12604457704E+03  0.10566000000E+00 0.  1.
         13    1    4    4    0    0 -0.27704108208E+01 -0.18915844695E+02 -0.85184321834E+02  0.87303288638E+02  0.10566000000E+00 0. -1.
        -13    1    4    4    0    0 -0.12449646216E+01 -0.54367100820E+01 -0.23735187814E+02  0.24381920721E+02  0.10566000000E+00 0.  1.
        -14    1    4    4    0    0 -0.25959693851E+01 -0.13445612462E+02 -0.65652975150E+02  0.67065913082E+02  0.00000000000E+00 0.  1.
<mgrwt>
<rscale>  0 0.78045582E+02</rscale>
<asrwt>0</asrwt>
<pdfrwt beam="1">  1        2 0.46109978E-01 0.78045582E+02</pdfrwt>
<pdfrwt beam="2">  1       -1 0.78165486E-03 0.78045582E+02</pdfrwt>
<totfact> 0.27190983E+05</totfact>
</mgrwt>
</event>
<event>
 8    1  0.2561077E-016  0.8032037E+02  0.7818608E-02  0.1328145E+00
         -1   -1    0    0    0  501 -0.00000000000E+00  0.00000000000E+00  0.29195807485E+01  0.29195850987E+01  0.50400000000E-02 0.  1.
          2   -1    0    0  501    0  0.00000000000E+00 -0.00000000000E+00 -0.55242149453E+03  0.55242149453E+03  0.25500000000E-02 0. -1.
         24    2    1    2    0    0  0.00000000000E+00  0.35527136788E-14 -0.54950191378E+03  0.55534107963E+03  0.80320367778E+02 0.  0.
         66    2    3    3    0    0  0.28787504727E+02  0.18844267724E+02 -0.41779456615E+03  0.41921370017E+03  0.20000137591E+01 0.  0.
        -13    1    3    3    0    0 -0.28787504727E+02 -0.18844267724E+02 -0.13170734763E+03  0.13612737946E+03  0.10566000000E+00 0.  1.
         13    1    4    4    0    0  0.36854769802E+01  0.25742975028E+01 -0.58850370808E+02  0.59021920136E+02  0.10566000000E+00 0. -1.
        -13    1    4    4    0    0  0.11279730903E+02  0.80140655813E+01 -0.17171679230E+03  0.17227340334E+03  0.10566000000E+00 0.  1.
         14    1    4    4    0    0  0.13822296844E+02  0.82559046402E+01 -0.18722740303E+03  0.18791837669E+03  0.00000000000E+00 0. -1.
<mgrwt>
<rscale>  0 0.80320368E+02</rscale>
<asrwt>0</asrwt>
<pdfrwt beam="1">  1        2 0.84987839E-01 0.80320368E+02</pdfrwt>
<pdfrwt beam="2">  1       -1 0.44916705E-03 0.80320368E+02</pdfrwt>
<totfact> 0.31079221E+05</totfact>
</mgrwt>
</event>
<event>
 8    1  0.2561077E-016  0.8144471E+02  0.7818608E-02  0.1325001E+00
          2   -1    0    0  501    0  0.00000000000E+00  0.00000000000E+00  0.90146634960E+02  0.90146634996E+02  0.25500000000E-02 0. -1.
         -1   -1    0    0    0  501 -0.00000000000E+00 -0.00000000000E+00 -0.18395698542E+02  0.18395699233E+02  0.50400000000E-02 0.  1.
         24    2    1    2    0    0  0.00000000000E+00  0.00000000000E+00  0.71750936418E+02  0.10854233423E+03  0.81444714028E+02 0.  0.
         66    2    3    3    0    0 -0.20067673059E+02 -0.33560899761E+02  0.50931300183E+02  0.64242064345E+02  0.19999995596E+01 0.  0.
        -13    1    3    3    0    0  0.20067673059E+02  0.33560899761E+02  0.20819636235E+02  0.44300269884E+02  0.10566000000E+00 0.  1.
         13    1    4    4    0    0 -0.11245267896E+02 -0.19310662062E+02  0.29348253348E+02  0.36887516288E+02  0.10566000000E+00 0. -1.
        -13    1    4    4    0    0 -0.43145554898E+01 -0.69629253028E+01  0.11552090551E+02  0.14161909404E+02  0.10566000000E+00 0.  1.
         14    1    4    4    0    0 -0.45078496738E+01 -0.72873123966E+01  0.10030956285E+02  0.13192638653E+02  0.00000000000E+00 0. -1.
<mgrwt>
<rscale>  0 0.81444714E+02</rscale>
<asrwt>0</asrwt>
<pdfrwt beam="1">  1        2 0.13868713E-01 0.81444714E+02</pdfrwt>
<pdfrwt beam="2">  1       -1 0.28301075E-02 0.81444714E+02</pdfrwt>
<totfact> 0.16418687E+05</totfact>
</mgrwt>
</event>
<event>
 8    1  0.2561077E-016  0.8882734E+02  0.7818608E-02  0.1305717E+00
         -1   -1    0    0    0  501 -0.00000000000E+00  0.00000000000E+00  0.13401053884E+02  0.13401054832E+02  0.50400000000E-02 0.  1.
          2   -1    0    0  501    0  0.00000000000E+00 -0.00000000000E+00 -0.14719545288E+03  0.14719545290E+03  0.25500000000E-02 0. -1.
         24    2    1    2    0    0  0.00000000000E+00  0.00000000000E+00 -0.13379439899E+03  0.16059650773E+03  0.88827344291E+02 0.  0.
         66    2    3    3    0    0  0.19874417574E+02 -0.18199194415E+02 -0.13070793170E+03  0.13347196911E+03  0.19999940296E+01 0.  0.
        -13    1    3    3    0    0 -0.19874417574E+02  0.18199194415E+02 -0.30864672908E+01  0.27124538625E+02  0.10566000000E+00 0.  1.
         13    1    4    4    0    0  0.11832922866E+02 -0.10244681472E+02 -0.77459023995E+02  0.79024572914E+02  0.10566000000E+00 0. -1.
        -13    1    4    4    0    0  0.24271173285E+01 -0.31016260134E+01 -0.18324309175E+02  0.18743064137E+02  0.10566000000E+00 0.  1.
        -14    1    4    4    0    0  0.56143773790E+01 -0.48528869295E+01 -0.34924598534E+02  0.35704332057E+02  0.00000000000E+00 0.  1.
<mgrwt>
<rscale>  0 0.88827344E+02</rscale>
<asrwt>0</asrwt>
<pdfrwt beam="1">  1        2 0.22645453E-01 0.88827344E+02</pdfrwt>
<pdfrwt beam="2">  1       -1 0.20617008E-02 0.88827344E+02</pdfrwt>
<totfact> 0.15055203E+05</totfact>
</mgrwt>
</event>
<event>
 8    1  0.2561077E-016  0.7931631E+02  0.7818608E-02  0.1331003E+00
          2   -1    0    0  501    0  0.00000000000E+00  0.00000000000E+00  0.17281069936E+02  0.17281070125E+02  0.25500000000E-02 0. -1.
         -1   -1    0    0    0  501 -0.00000000000E+00 -0.00000000000E+00 -0.91011102502E+02  0.91011102642E+02  0.50400000000E-02 0.  1.
         24    2    1    2    0    0  0.00000000000E+00 -0.88817841970E-15 -0.73730032566E+02  0.10829217277E+03  0.79316309674E+02 0.  0.
         66    2    3    3    0    0 -0.21594225338E+02 -0.71011040175E+01  0.74378248968E+01  0.24001197595E+02  0.20000001521E+01 0.  0.
        -13    1    3    3    0    0  0.21594225338E+02  0.71011040175E+01 -0.81167857463E+02  0.84290975171E+02  0.10566000000E+00 0.  1.
         13    1    4    4    0    0 -0.83772966948E+01 -0.23565133719E+01  0.33447239336E+01  0.93236579416E+01  0.10566000000E+00 0. -1.
        -13    1    4    4    0    0 -0.35946914442E+00 -0.28315937402E+00  0.13890910007E-01  0.46984496365E+00  0.10566000000E+00 0. -1.
        -14    1    4    4    0    0 -0.12857459499E+02 -0.44614312716E+01  0.40792100532E+01  0.14207694690E+02  0.00000000000E+00 0.  1.
<mgrwt>
<rscale>  0 0.79316310E+02</rscale>
<asrwt>0</asrwt>
<pdfrwt beam="1">  1        2 0.26586262E-02 0.79316310E+02</pdfrwt>
<pdfrwt beam="2">  1       -1 0.14001708E-01 0.79316310E+02</pdfrwt>
<totfact> 0.12351706E+05</totfact>
</mgrwt>
</event>
<event>
 8    1  0.2561077E-016  0.8080098E+02  0.7818608E-02  0.1326794E+00
         -1   -1    0    0    0  501 -0.00000000000E+00  0.00000000000E+00  0.76242458915E+02  0.76242459081E+02  0.50400000000E-02 0.  1.
          2   -1    0    0  501    0  0.00000000000E+00 -0.00000000000E+00 -0.21408013607E+02  0.21408013759E+02  0.25500000000E-02 0. -1.
         24    2    1    2    0    0 -0.44408920985E-15  0.71054273576E-14  0.54834445307E+02  0.97650472840E+02  0.80800980525E+02 0.  0.
         66    2    3    3    0    0 -0.25615015964E+01  0.34840745464E+02  0.29703795452E+01  0.35117830834E+02  0.20000132217E+01 0.  0.
        -13    1    3    3    0    0  0.25615015964E+01 -0.34840745464E+02  0.51864065762E+02  0.62532642007E+02  0.10566000000E+00 0.  1.
         13    1    4    4    0    0  0.12347629723E+00  0.67843795362E+01  0.66297731387E+00  0.68186329305E+01  0.10566000000E+00 0. -1.
        -13    1    4    4    0    0 -0.68203221022E+00  0.35379260352E+01  0.25577524307E+00  0.36136786765E+01  0.10566000000E+00 0.  1.
         14    1    4    4    0    0 -0.20029456834E+01  0.24518439893E+02  0.20516269883E+01  0.24685519227E+02  0.00000000000E+00 0. -1.
<mgrwt>
<rscale>  0 0.80800981E+02</rscale>
<asrwt>0</asrwt>
<pdfrwt beam="1">  1        2 0.32935406E-02 0.80800981E+02</pdfrwt>
<pdfrwt beam="2">  1       -1 0.11729609E-01 0.80800981E+02</pdfrwt>
<totfact> 0.12233019E+05</totfact>
</mgrwt>
</event>
<event>
 8    1  0.2561077E-016  0.7957180E+02  0.7818608E-02  0.1330271E+00
         -1   -1    0    0    0  501 -0.00000000000E+00  0.00000000000E+00  0.42124878756E+02  0.42124879058E+02  0.50400000000E-02 0.  1.
          2   -1    0    0  501    0  0.00000000000E+00 -0.00000000000E+00 -0.37576790820E+02  0.37576790907E+02  0.25500000000E-02 0. -1.
         24    2    1    2    0    0  0.00000000000E+00  0.35527136788E-14  0.45480879357E+01  0.79701669965E+02  0.79571798341E+02 0.  0.
         66    2    3    3    0    0  0.12179483354E+02 -0.30768599076E+02  0.24353828011E+02  0.41135817091E+02  0.20000012738E+01 0.  0.
        -13    1    3    3    0    0 -0.12179483354E+02  0.30768599076E+02 -0.19805740076E+02  0.38565852873E+02  0.10566000000E+00 0.  1.
         13    1    4    4    0    0  0.36863168282E+01 -0.95194205032E+01  0.69047587754E+01  0.12324575297E+02  0.10566000000E+00 0. -1.
        -13    1    4    4    0    0  0.48730719132E+01 -0.10431343064E+02  0.84664333399E+01  0.14291655101E+02  0.10566000000E+00 0. -1.
         14    1    4    4    0    0  0.36200946129E+01 -0.10817835509E+02  0.89826358962E+01  0.14519586693E+02  0.00000000000E+00 0. -1.
<mgrwt>
<rscale>  0 0.79571798E+02</rscale>
<asrwt>0</asrwt>
<pdfrwt beam="1">  1        2 0.57810448E-02 0.79571798E+02</pdfrwt>
<pdfrwt beam="2">  1       -1 0.64807506E-02 0.79571798E+02</pdfrwt>
<totfact> 0.14285276E+05</totfact>
</mgrwt>
</event>
<event>
 8    1  0.2561077E-016  0.7984242E+02  0.7818608E-02  0.1329499E+00
         -1   -1    0    0    0  501 -0.00000000000E+00  0.00000000000E+00  0.32636115128E+01  0.32636154044E+01  0.50400000000E-02 0.  1.
          2   -1    0    0  501    0  0.00000000000E+00 -0.00000000000E+00 -0.48832473979E+03  0.48832473980E+03  0.25500000000E-02 0. -1.
         24    2    1    2    0    0  0.00000000000E+00  0.88817841970E-15 -0.48506112828E+03  0.49158835520E+03  0.79842424836E+02 0.  0.
         66    2    3    3    0    0 -0.12508105303E+02  0.68834300870E+01 -0.47205480177E+03  0.47227488837E+03  0.19999992564E+01 0.  0.
        -13    1    3    3    0    0  0.12508105303E+02 -0.68834300870E+01 -0.13006326507E+02  0.19313466837E+02  0.10566000000E+00 0.  1.
         13    1    4    4    0    0 -0.68840700264E+01  0.40678220717E+01 -0.28288558347E+03  0.28299859027E+03  0.10566000000E+00 0. -1.
        -13    1    4    4    0    0 -0.47269075501E+01  0.19708299131E+01 -0.14784848448E+03  0.14793719394E+03  0.10566000000E+00 0.  1.
         14    1    4    4    0    0 -0.89712772614E+00  0.84477810221E+00 -0.41320733823E+02  0.41339104149E+02  0.00000000000E+00 0. -1.
<mgrwt>
<rscale>  0 0.79842425E+02</rscale>
<asrwt>0</asrwt>
<pdfrwt beam="1">  1        2 0.75126825E-01 0.79842425E+02</pdfrwt>
<pdfrwt beam="2">  1       -1 0.50209477E-03 0.79842425E+02</pdfrwt>
<totfact> 0.30377133E+05</totfact>
</mgrwt>
</event>
<event>
 8    1  0.2561077E-016  0.7950131E+02  0.7818608E-02  0.1330473E+00
         -1   -1    0    0    0  501 -0.00000000000E+00  0.00000000000E+00  0.12750038114E+01  0.12750137728E+01  0.50400000000E-02 0.  1.
          2   -1    0    0  501    0  0.00000000000E+00 -0.00000000000E+00 -0.12392970729E+04  0.12392970729E+04  0.25500000000E-02 0. -1.
         24    2    1    2    0    0  0.00000000000E+00  0.00000000000E+00 -0.12380220690E+04  0.12405720866E+04  0.79501312490E+02 0.  0.
         66    2    3    3    0    0 -0.15207935188E+01 -0.10850228174E+02 -0.12152515121E+04  0.12153025458E+04  0.19999973301E+01 0.  0.
        -13    1    3    3    0    0  0.15207935188E+01  0.10850228174E+02 -0.22770556934E+02  0.25269540785E+02  0.10566000000E+00 0.  1.
         13    1    4    4    0    0 -0.56866187284E+00 -0.32301771802E+01 -0.33868460831E+03  0.33870050560E+03  0.10566000000E+00 0. -1.
        -13    1    4    4    0    0 -0.85479780362E+00 -0.69622245154E+01 -0.83834938938E+03  0.83837874083E+03  0.10566000000E+00 0.  1.
        -14    1    4    4    0    0 -0.97333842316E-01 -0.65782647886E+00 -0.38217514417E+02  0.38223299410E+02  0.00000000000E+00 0.  1.
<mgrwt>
<rscale>  0 0.79501312E+02</rscale>
<asrwt>0</asrwt>
<pdfrwt beam="1">  1        2 0.19066013E+00 0.79501312E+02</pdfrwt>
<pdfrwt beam="2">  1       -1 0.19615619E-03 0.79501312E+02</pdfrwt>
<totfact> 0.35466844E+05</totfact>
</mgrwt>
</event>
<event>
 8    1  0.2561077E-016  0.7786147E+02  0.7818608E-02  0.1335232E+00
         -1   -1    0    0    0  501 -0.00000000000E+00  0.00000000000E+00  0.27216595001E+02  0.27216595467E+02  0.50400000000E-02 0.  1.
          2   -1    0    0  501    0  0.00000000000E+00 -0.00000000000E+00 -0.55686691585E+02  0.55686691644E+02  0.25500000000E-02 0. -1.
         24    2    1    2    0    0  0.71054273576E-14 -0.44408920985E-15 -0.28470096585E+02  0.82903287111E+02  0.77861470666E+02 0.  0.
         66    2    3    3    0    0 -0.37171950139E+02  0.29846232212E+01 -0.26050001380E+02  0.45533113473E+02  0.19999994419E+01 0.  0.
        -13    1    3    3    0    0  0.37171950139E+02 -0.29846232212E+01 -0.24200952045E+01  0.37370173638E+02  0.10566000000E+00 0.  1.
         13    1    4    4    0    0 -0.18161325614E+02  0.17487297833E+01 -0.11939874504E+02  0.21805127175E+02  0.10566000000E+00 0. -1.
        -13    1    4    4    0    0 -0.15663148119E+02  0.63958880618E+00 -0.11596739929E+02  0.19499713430E+02  0.10566000000E+00 0.  1.
        -14    1    4    4    0    0 -0.33474764062E+01  0.59630463179E+00 -0.25133869479E+01  0.42282728688E+01  0.00000000000E+00 0.  1.
<mgrwt>
<rscale>  0 0.77861471E+02</rscale>
<asrwt>0</asrwt>
<pdfrwt beam="1">  1        2 0.85671833E-02 0.77861471E+02</pdfrwt>
<pdfrwt beam="2">  1       -1 0.41871685E-02 0.77861471E+02</pdfrwt>
<totfact> 0.16475457E+05</totfact>
</mgrwt>
</event>
<event>
 8    1  0.2561077E-016  0.7972554E+02  0.7818608E-02  0.1329832E+00
          2   -1    0    0  501    0  0.00000000000E+00  0.00000000000E+00  0.55597842514E+03  0.55597842515E+03  0.25500000000E-02 0. -1.
         -1   -1    0    0    0  501 -0.00000000000E+00 -0.00000000000E+00 -0.28580950165E+01  0.28580994603E+01  0.50400000000E-02 0.  1.
         24    2    1    2    0    0  0.00000000000E+00  0.00000000000E+00  0.55312033012E+03  0.55883652461E+03  0.79725539433E+02 0.  0.
         66    2    3    3    0    0  0.11335525475E+02  0.21675620303E+02  0.49713875915E+03  0.49774418380E+03  0.19999992872E+01 0.  0.
        -13    1    3    3    0    0 -0.11335525475E+02 -0.21675620303E+02  0.55981570970E+02  0.61092340810E+02  0.10566000000E+00 0.  1.
         13    1    4    4    0    0  0.10443348275E+02  0.20016417784E+02  0.45694056672E+03  0.45749799254E+03  0.10566000000E+00 0. -1.
        -13    1    4    4    0    0  0.94239779163E+00  0.14044616783E+01  0.36131061488E+02  0.36170780950E+02  0.10566000000E+00 0.  1.
         14    1    4    4    0    0 -0.50220591003E-01  0.25474084012E+00  0.40671309456E+01  0.40754103023E+01  0.00000000000E+00 0. -1.
<mgrwt>
<rscale>  0 0.79725539E+02</rscale>
<asrwt>0</asrwt>
<pdfrwt beam="1">  1        2 0.85535132E-01 0.79725539E+02</pdfrwt>
<pdfrwt beam="2">  1       -1 0.43970732E-03 0.79725539E+02</pdfrwt>
<totfact> 0.31747398E+05</totfact>
</mgrwt>
</event>
<event>
 8    1  0.2561077E-016  0.8278010E+02  0.7818608E-02  0.1321342E+00
          2   -1    0    0  501    0  0.00000000000E+00  0.00000000000E+00  0.24727902147E+03  0.24727902148E+03  0.25500000000E-02 0. -1.
         -1   -1    0    0    0  501 -0.00000000000E+00 -0.00000000000E+00 -0.69279466672E+01  0.69279485005E+01  0.50400000000E-02 0.  1.
         24    2    1    2    0    0  0.35527136788E-14  0.00000000000E+00  0.24035107480E+03  0.25420696999E+03  0.82780096819E+02 0.  0.
         66    2    3    3    0    0  0.31361338027E+02 -0.14304790555E+02  0.19047184805E+03  0.19357604568E+03  0.20000021579E+01 0.  0.
        -13    1    3    3    0    0 -0.31361338027E+02  0.14304790555E+02  0.49879226758E+02  0.60630924302E+02  0.10566000000E+00 0.  1.
         13    1    4    4    0    0  0.66720734168E+01 -0.30888429085E+01  0.39035180625E+02  0.39721706970E+02  0.10566000000E+00 0. -1.
        -13    1    4    4    0    0  0.91808979861E+01 -0.45680265901E+01  0.53273444551E+02  0.54251514386E+02  0.10566000000E+00 0. -1.
        -14    1    4    4    0    0  0.15508366624E+02 -0.66479210565E+01  0.98163222870E+02  0.99602824327E+02  0.00000000000E+00 0.  1.
<mgrwt>
<rscale>  0 0.82780097E+02</rscale>
<asrwt>0</asrwt>
<pdfrwt beam="1">  1        2 0.38042928E-01 0.82780097E+02</pdfrwt>
<pdfrwt beam="2">  1       -1 0.10658381E-02 0.82780097E+02</pdfrwt>
<totfact> 0.21729192E+05</totfact>
</mgrwt>
</event>
<event>
 8    1  0.2561077E-016  0.8166936E+02  0.7818608E-02  0.1324380E+00
          2   -1    0    0  501    0  0.00000000000E+00  0.00000000000E+00  0.13672806195E+03  0.13672806197E+03  0.25500000000E-02 0. -1.
         -1   -1    0    0    0  501 -0.00000000000E+00 -0.00000000000E+00 -0.12195528221E+02  0.12195529263E+02  0.50400000000E-02 0.  1.
         24    2    1    2    0    0 -0.71054273576E-14  0.17763568394E-14  0.12453253372E+03  0.14892359123E+03  0.81669358205E+02 0.  0.
         66    2    3    3    0    0  0.29026471171E+02 -0.13083578106E+02  0.10885620432E+03  0.11343451527E+03  0.19999980164E+01 0.  0.
        -13    1    3    3    0    0 -0.29026471171E+02  0.13083578106E+02  0.15676329405E+02  0.35489075957E+02  0.10566000000E+00 0.  1.
         13    1    4    4    0    0  0.34095467137E+01 -0.16329341005E+01  0.11768305046E+02  0.12361053768E+02  0.10566000000E+00 0. -1.
        -13    1    4    4    0    0  0.17548104278E+01 -0.12083574855E+01  0.77345121223E+01  0.80232991503E+01  0.10566000000E+00 0.  1.
        -14    1    4    4    0    0  0.23862114029E+02 -0.10242286520E+02  0.89353387151E+02  0.93050162356E+02  0.00000000000E+00 0.  1.
<mgrwt>
<rscale>  0 0.81669358E+02</rscale>
<asrwt>0</asrwt>
<pdfrwt beam="1">  1        2 0.21035086E-01 0.81669358E+02</pdfrwt>
<pdfrwt beam="2">  1       -1 0.18762353E-02 0.81669358E+02</pdfrwt>
<totfact> 0.18408749E+05</totfact>
</mgrwt>
</event>
<event>
 8    1  0.2561077E-016  0.8591998E+02  0.7818608E-02  0.1313044E+00
          2   -1    0    0  501    0  0.00000000000E+00  0.00000000000E+00  0.78915739269E+03  0.78915739270E+03  0.25500000000E-02 0. -1.
         -1   -1    0    0    0  501 -0.00000000000E+00 -0.00000000000E+00 -0.23386444613E+01  0.23386498921E+01  0.50400000000E-02 0.  1.
         24    2    1    2    0    0  0.00000000000E+00  0.00000000000E+00  0.78681874823E+03  0.79149604259E+03  0.85919979431E+02 0.  0.
         66    2    3    3    0    0 -0.16027933827E+02 -0.10308051371E+02  0.74806369084E+03  0.74830905123E+03  0.20000005351E+01 0.  0.
        -13    1    3    3    0    0  0.16027933827E+02  0.10308051371E+02  0.38755057389E+02  0.43186991365E+02  0.10566000000E+00 0.  1.
         13    1    4    4    0    0 -0.96174680966E+01 -0.66297266245E+01  0.43787246256E+03  0.43802825662E+03  0.10566000000E+00 0. -1.
        -13    1    4    4    0    0 -0.13247895947E+01 -0.12280356002E+01  0.75898097287E+02  0.75919664612E+02  0.10566000000E+00 0. -1.
         14    1    4    4    0    0 -0.50856761360E+01 -0.24502891464E+01  0.23429313100E+03  0.23436113000E+03  0.00000000000E+00 0. -1.
<mgrwt>
<rscale>  0 0.85919979E+02</rscale>
<asrwt>0</asrwt>
<pdfrwt beam="1">  1        2 0.12140907E+00 0.85919979E+02</pdfrwt>
<pdfrwt beam="2">  1       -1 0.35979118E-03 0.85919979E+02</pdfrwt>
<totfact> 0.28461020E+05</totfact>
</mgrwt>
</event>
<event>
 8    1  0.2561077E-016  0.8138296E+02  0.7818608E-02  0.1325172E+00
         -1   -1    0    0    0  501 -0.00000000000E+00  0.00000000000E+00  0.48618464657E+02  0.48618464918E+02  0.50400000000E-02 0.  1.
          2   -1    0    0  501    0  0.00000000000E+00 -0.00000000000E+00 -0.34056945931E+02  0.34056946027E+02  0.25500000000E-02 0. -1.
         24    2    1    2    0    0  0.00000000000E+00 -0.35527136788E-14  0.14561518726E+02  0.82675410945E+02  0.81382957352E+02 0.  0.
         66    2    3    3    0    0 -0.12734233178E+02 -0.17104614700E+02 -0.27892267364E+02  0.35166846916E+02  0.20000011707E+01 0.  0.
        -13    1    3    3    0    0  0.12734233178E+02  0.17104614700E+02  0.42453786090E+02  0.47508564028E+02  0.10566000000E+00 0.  1.
         13    1    4    4    0    0 -0.66401627374E+01 -0.80022318023E+01 -0.14625709696E+02  0.17945752231E+02  0.10566000000E+00 0. -1.
        -13    1    4    4    0    0 -0.10059429045E+01 -0.14264842697E+01 -0.17326787884E+01  0.24617307566E+01  0.10566000000E+00 0.  1.
         14    1    4    4    0    0 -0.50881275362E+01 -0.76758986282E+01 -0.11533878879E+02  0.14759363928E+02  0.00000000000E+00 0. -1.
<mgrwt>
<rscale>  0 0.81382957E+02</rscale>
<asrwt>0</asrwt>
<pdfrwt beam="1">  1        2 0.52395302E-02 0.81382957E+02</pdfrwt>
<pdfrwt beam="2">  1       -1 0.74797638E-02 0.81382957E+02</pdfrwt>
<totfact> 0.13154237E+05</totfact>
</mgrwt>
</event>
<event>
 8    1  0.2561077E-016  0.8011106E+02  0.7818608E-02  0.1328737E+00
         -1   -1    0    0    0  501 -0.00000000000E+00  0.00000000000E+00  0.13815271672E+03  0.13815271681E+03  0.50400000000E-02 0.  1.
          2   -1    0    0  501    0  0.00000000000E+00 -0.00000000000E+00 -0.11613564919E+02  0.11613565199E+02  0.25500000000E-02 0. -1.
         24    2    1    2    0    0  0.00000000000E+00 -0.71054273576E-14  0.12653915180E+03  0.14976628201E+03  0.80111062214E+02 0.  0.
         66    2    3    3    0    0  0.27768878662E+01 -0.32986885102E+02  0.21231202432E+02  0.39377781437E+02  0.20000047968E+01 0.  0.
        -13    1    3    3    0    0 -0.27768878662E+01  0.32986885102E+02  0.10530794937E+03  0.11038850057E+03  0.10566000000E+00 0.  1.
         13    1    4    4    0    0  0.37149321614E+00 -0.31485813767E+01  0.18652507645E+01  0.36799315680E+01  0.10566000000E+00 0. -1.
        -13    1    4    4    0    0  0.22595723561E+00 -0.42798747578E+01  0.20735395560E+01  0.47622594365E+01  0.10566000000E+00 0.  1.
        -14    1    4    4    0    0  0.21794374144E+01 -0.25558428967E+02  0.17292412112E+02  0.30935590432E+02  0.00000000000E+00 0.  1.
<mgrwt>
<rscale>  0 0.80111062E+02</rscale>
<asrwt>0</asrwt>
<pdfrwt beam="1">  1        2 0.17867023E-02 0.80111062E+02</pdfrwt>
<pdfrwt beam="2">  1       -1 0.21254265E-01 0.80111062E+02</pdfrwt>
<totfact> 0.10972665E+05</totfact>
</mgrwt>
</event>
<event>
 8    1  0.2561077E-016  0.8119907E+02  0.7818608E-02  0.1325683E+00
          2   -1    0    0  501    0  0.00000000000E+00  0.00000000000E+00  0.17943896538E+03  0.17943896540E+03  0.25500000000E-02 0. -1.
         -1   -1    0    0    0  501 -0.00000000000E+00 -0.00000000000E+00 -0.91859769850E+01  0.91859783676E+01  0.50400000000E-02 0.  1.
         24    2    1    2    0    0  0.00000000000E+00  0.00000000000E+00  0.17025298840E+03  0.18862494377E+03  0.81199072368E+02 0.  0.
         66    2    3    3    0    0  0.11295770709E+02 -0.38952018805E+02  0.87987909840E+02  0.96905760829E+02  0.19999997373E+01 0.  0.
        -13    1    3    3    0    0 -0.11295770709E+02  0.38952018805E+02  0.82265078560E+02  0.91719182941E+02  0.10566000000E+00 0.  1.
         13    1    4    4    0    0  0.32659609227E+01 -0.10282950875E+02  0.22359126737E+02  0.24826342701E+02  0.10566000000E+00 0.  1.
        -13    1    4    4    0    0  0.63032512623E+01 -0.23335249038E+02  0.52051518047E+02  0.57390212747E+02  0.10566000000E+00 0. -1.
         14    1    4    4    0    0  0.17265585242E+01 -0.53338188924E+01  0.13577265057E+02  0.14689205381E+02  0.00000000000E+00 0. -1.
<mgrwt>
<rscale>  0 0.81199072E+02</rscale>
<asrwt>0</asrwt>
<pdfrwt beam="1">  1        2 0.27605990E-01 0.81199072E+02</pdfrwt>
<pdfrwt beam="2">  1       -1 0.14132276E-02 0.81199072E+02</pdfrwt>
<totfact> 0.20431537E+05</totfact>
</mgrwt>
</event>
<event>
 8    1  0.2561077E-016  0.8042045E+02  0.7818608E-02  0.1327862E+00
         -1   -1    0    0    0  501 -0.00000000000E+00  0.00000000000E+00  0.28654617876E+02  0.28654618320E+02  0.50400000000E-02 0.  1.
          2   -1    0    0  501    0  0.00000000000E+00 -0.00000000000E+00 -0.56425888958E+02  0.56425889016E+02  0.25500000000E-02 0. -1.
         24    2    1    2    0    0  0.35527136788E-14  0.44408920985E-15 -0.27771271082E+02  0.85080507335E+02  0.80420452815E+02 0.  0.
         66    2    3    3    0    0 -0.15978730132E+02 -0.32019768347E+01 -0.52755325736E+02  0.55251215971E+02  0.20000001400E+01 0.  0.
        -13    1    3    3    0    0  0.15978730132E+02  0.32019768347E+01  0.24984054654E+02  0.29829291364E+02  0.10566000000E+00 0.  1.
         13    1    4    4    0    0 -0.13254136367E+01  0.40203939008E-01 -0.31102159243E+01  0.33827422007E+01  0.10566000000E+00 0. -1.
        -13    1    4    4    0    0 -0.97352806306E+01 -0.24411782402E+01 -0.32660816419E+02  0.34168335244E+02  0.10566000000E+00 0.  1.
         14    1    4    4    0    0 -0.49180358651E+01 -0.80100253350E+00 -0.16984293393E+02  0.17700138527E+02  0.00000000000E+00 0. -1.
<mgrwt>
<rscale>  0 0.80420453E+02</rscale>
<asrwt>0</asrwt>
<pdfrwt beam="1">  1        2 0.86809060E-02 0.80420453E+02</pdfrwt>
<pdfrwt beam="2">  1       -1 0.44084028E-02 0.80420453E+02</pdfrwt>
<totfact> 0.15131276E+05</totfact>
</mgrwt>
</event>
<event>
 8    1  0.2561077E-016  0.8142755E+02  0.7818608E-02  0.1325048E+00
          2   -1    0    0  501    0  0.00000000000E+00  0.00000000000E+00  0.21973369213E+03  0.21973369215E+03  0.25500000000E-02 0. -1.
         -1   -1    0    0    0  501 -0.00000000000E+00 -0.00000000000E+00 -0.75437277658E+01  0.75437294494E+01  0.50400000000E-02 0.  1.
         24    2    1    2    0    0  0.00000000000E+00 -0.35527136788E-14  0.21218996437E+03  0.22727742160E+03  0.81427546873E+02 0.  0.
         66    2    3    3    0    0  0.31665803738E+02  0.18819705212E+02  0.57919179193E+02  0.68669758626E+02  0.20000001972E+01 0.  0.
        -13    1    3    3    0    0 -0.31665803738E+02 -0.18819705212E+02  0.15427078518E+03  0.15860766297E+03  0.10566000000E+00 0.  1.
         13    1    4    4    0    0  0.28220970224E+02  0.16878568464E+02  0.51159036732E+02  0.60815848569E+02  0.10566000000E+00 0. -1.
        -13    1    4    4    0    0  0.33660536650E+01  0.17657472026E+01  0.63620151643E+01  0.74117866568E+01  0.10566000000E+00 0.  1.
         14    1    4    4    0    0  0.78779849556E-01  0.17538954606E+00  0.39812729596E+00  0.44212340060E+00  0.00000000000E+00 0. -1.
<mgrwt>
<rscale>  0 0.81427547E+02</rscale>
<asrwt>0</asrwt>
<pdfrwt beam="1">  1        2 0.33805177E-01 0.81427547E+02</pdfrwt>
<pdfrwt beam="2">  1       -1 0.11605739E-02 0.81427547E+02</pdfrwt>
<totfact> 0.21758667E+05</totfact>
</mgrwt>
</event>
<event>
 8    1  0.2561077E-016  0.8050671E+02  0.7818608E-02  0.1327620E+00
          2   -1    0    0  501    0  0.00000000000E+00  0.00000000000E+00  0.18752858799E+03  0.18752858801E+03  0.25500000000E-02 0. -1.
         -1   -1    0    0    0  501 -0.00000000000E+00 -0.00000000000E+00 -0.86404553249E+01  0.86404567948E+01  0.50400000000E-02 0.  1.
         24    2    1    2    0    0  0.44408920985E-15  0.35527136788E-14  0.17888813267E+03  0.19616904480E+03  0.80506708604E+02 0.  0.
         66    2    3    3    0    0  0.35959907580E+01  0.20278784304E+02  0.17370277880E+03  0.17493088808E+03  0.19999998677E+01 0.  0.
        -13    1    3    3    0    0 -0.35959907580E+01 -0.20278784304E+02  0.51853538711E+01  0.21238156728E+02  0.10566000000E+00 0.  1.
         13    1    4    4    0    0  0.70885061110E+00  0.76366706188E+01  0.67034543632E+02  0.67471937955E+02  0.10566000000E+00 0. -1.
        -13    1    4    4    0    0  0.15506687731E+01  0.65527939118E+01  0.51006977500E+02  0.51449651111E+02  0.10566000000E+00 0.  1.
         14    1    4    4    0    0  0.13364713738E+01  0.60893197734E+01  0.55661257664E+02  0.56009299011E+02  0.00000000000E+00 0. -1.
<mgrwt>
<rscale>  0 0.80506709E+02</rscale>
<asrwt>0</asrwt>
<pdfrwt beam="1">  1        2 0.28850551E-01 0.80506709E+02</pdfrwt>
<pdfrwt beam="2">  1       -1 0.13293010E-02 0.80506709E+02</pdfrwt>
<totfact> 0.21216932E+05</totfact>
</mgrwt>
</event>
<event>
 8    1  0.2561077E-016  0.8029771E+02  0.7818608E-02  0.1328209E+00
          2   -1    0    0  501    0  0.00000000000E+00  0.00000000000E+00  0.53798829806E+03  0.53798829806E+03  0.25500000000E-02 0. -1.
         -1   -1    0    0    0  501 -0.00000000000E+00 -0.00000000000E+00 -0.29962162445E+01  0.29962204835E+01  0.50400000000E-02 0.  1.
         24    2    1    2    0    0  0.00000000000E+00  0.00000000000E+00  0.53499208181E+03  0.54098451855E+03  0.80297706723E+02 0.  0.
         66    2    3    3    0    0  0.76651572088E+01  0.37840451414E+02  0.34123973992E+03  0.34342279262E+03  0.19999979836E+01 0.  0.
        -13    1    3    3    0    0 -0.76651572088E+01 -0.37840451414E+02  0.19375234189E+03  0.19756172593E+03  0.10566000000E+00 0.  1.
         13    1    4    4    0    0  0.59004407128E+01  0.27791804476E+02  0.25410133492E+03  0.25568476523E+03  0.10566000000E+00 0. -1.
        -13    1    4    4    0    0  0.76461034264E+00  0.27129623505E+01  0.26287909642E+02  0.26438800106E+02  0.10566000000E+00 0.  1.
         14    1    4    4    0    0  0.10001061534E+01  0.73356845876E+01  0.60850495354E+02  0.61299227283E+02  0.00000000000E+00 0. -1.
<mgrwt>
<rscale>  0 0.80297707E+02</rscale>
<asrwt>0</asrwt>
<pdfrwt beam="1">  1        2 0.82767357E-01 0.80297707E+02</pdfrwt>
<pdfrwt beam="2">  1       -1 0.46095708E-03 0.80297707E+02</pdfrwt>
<totfact> 0.30854172E+05</totfact>
</mgrwt>
</event>
<event>
 8    1  0.2561077E-016  0.8113509E+02  0.7818608E-02  0.1325861E+00
          2   -1    0    0  501    0  0.00000000000E+00  0.00000000000E+00  0.33545428713E+03  0.33545428714E+03  0.25500000000E-02 0. -1.
         -1   -1    0    0    0  501 -0.00000000000E+00 -0.00000000000E+00 -0.49059604272E+01  0.49059630160E+01  0.50400000000E-02 0.  1.
         24    2    1    2    0    0  0.00000000000E+00  0.00000000000E+00  0.33054832671E+03  0.34036025016E+03  0.81135094750E+02 0.  0.
         66    2    3    3    0    0 -0.33725204184E+02  0.18903622891E+02  0.21657793476E+03  0.22001076840E+03  0.20000076427E+01 0.  0.
        -13    1    3    3    0    0  0.33725204184E+02 -0.18903622891E+02  0.11397039194E+03  0.12034948176E+03  0.10566000000E+00 0.  1.
         13    1    4    4    0    0 -0.28172970307E+02  0.15740526668E+02  0.17783284629E+03  0.18073741400E+03  0.10566000000E+00 0. -1.
        -13    1    4    4    0    0 -0.51539949057E+01  0.30871102072E+01  0.35863225005E+02  0.36363112968E+02  0.10566000000E+00 0. -1.
         14    1    4    4    0    0 -0.39823897170E+00  0.75986016187E-01  0.28818634602E+01  0.29102414258E+01  0.00000000000E+00 0. -1.
<mgrwt>
<rscale>  0 0.81135095E+02</rscale>
<asrwt>0</asrwt>
<pdfrwt beam="1">  1        2 0.51608362E-01 0.81135095E+02</pdfrwt>
<pdfrwt beam="2">  1       -1 0.75476320E-03 0.81135095E+02</pdfrwt>
<totfact> 0.25581219E+05</totfact>
</mgrwt>
</event>
<event>
 8    1  0.2561077E-016  0.8031690E+02  0.7818608E-02  0.1328155E+00
          2   -1    0    0  501    0  0.00000000000E+00  0.00000000000E+00  0.98865194427E+01  0.98865197715E+01  0.25500000000E-02 0. -1.
         -1   -1    0    0    0  501 -0.00000000000E+00 -0.00000000000E+00 -0.16312120157E+03  0.16312120165E+03  0.50400000000E-02 0.  1.
         24    2    1    2    0    0  0.22204460493E-15  0.35527136788E-14 -0.15323468213E+03  0.17300772142E+03  0.80316896504E+02 0.  0.
         66    2    3    3    0    0 -0.13506964317E+01 -0.28607926600E+02 -0.16103023930E+02  0.32917248192E+02  0.20000008983E+01 0.  0.
        -13    1    3    3    0    0  0.13506964317E+01  0.28607926600E+02 -0.13713165820E+03  0.14009047323E+03  0.10566000000E+00 0.  1.
         13    1    4    4    0    0 -0.86248866402E+00 -0.12990559320E+02 -0.72501810163E+01  0.14902174571E+02  0.10566000000E+00 0. -1.
        -13    1    4    4    0    0  0.23535531915E+00 -0.41137188737E+01 -0.29210599721E+01  0.50519135478E+01  0.10566000000E+00 0.  1.
        -14    1    4    4    0    0 -0.72356308681E+00 -0.11503648406E+02 -0.59317829417E+01  0.12963160073E+02  0.00000000000E+00 0.  1.
<mgrwt>
<rscale>  0 0.80316897E+02</rscale>
<asrwt>0</asrwt>
<pdfrwt beam="1">  1        2 0.15210031E-02 0.80316897E+02</pdfrwt>
<pdfrwt beam="2">  1       -1 0.25095568E-01 0.80316897E+02</pdfrwt>
<totfact> 0.10448784E+05</totfact>
</mgrwt>
</event>
<event>
 8    1  0.2561077E-016  0.8019914E+02  0.7818608E-02  0.1328487E+00
          2   -1    0    0  501    0  0.00000000000E+00  0.00000000000E+00  0.12204003616E+02  0.12204003883E+02  0.25500000000E-02 0. -1.
         -1   -1    0    0    0  501 -0.00000000000E+00 -0.00000000000E+00 -0.13175804087E+03  0.13175804097E+03  0.50400000000E-02 0.  1.
         24    2    1    2    0    0  0.71054273576E-14 -0.35527136788E-14 -0.11955403725E+03  0.14396204485E+03  0.80199142972E+02 0.  0.
         66    2    3    3    0    0  0.25812014015E+02 -0.30652457049E+02 -0.60479670133E+02  0.72578396824E+02  0.19999988822E+01 0.  0.
        -13    1    3    3    0    0 -0.25812014015E+02  0.30652457049E+02 -0.59074367119E+02  0.71383648024E+02  0.10566000000E+00 0.  1.
         13    1    4    4    0    0  0.40589697125E+01 -0.46556081662E+01 -0.83509476024E+01  0.10387464196E+02  0.10566000000E+00 0. -1.
        -13    1    4    4    0    0  0.20627679206E+01 -0.29355385138E+01 -0.57779919863E+01  0.68021138839E+01  0.10566000000E+00 0.  1.
         14    1    4    4    0    0  0.19690276381E+02 -0.23061310369E+02 -0.46350730545E+02  0.55388818745E+02  0.00000000000E+00 0. -1.
<mgrwt>
<rscale>  0 0.80199143E+02</rscale>
<asrwt>0</asrwt>
<pdfrwt beam="1">  1        2 0.18775391E-02 0.80199143E+02</pdfrwt>
<pdfrwt beam="2">  1       -1 0.20270467E-01 0.80199143E+02</pdfrwt>
<totfact> 0.11068535E+05</totfact>
</mgrwt>
</event>
<event>
 8    1  0.2561077E-016  0.8007923E+02  0.7818608E-02  0.1328827E+00
         -1   -1    0    0    0  501 -0.00000000000E+00  0.00000000000E+00  0.10987846848E+01  0.10987962437E+01  0.50400000000E-02 0.  1.
          2   -1    0    0  501    0  0.00000000000E+00 -0.00000000000E+00 -0.14590321625E+04  0.14590321625E+04  0.25500000000E-02 0. -1.
         24    2    1    2    0    0  0.00000000000E+00  0.00000000000E+00 -0.14579333778E+04  0.14601309587E+04  0.80079226648E+02 0.  0.
         66    2    3    3    0    0 -0.21112147538E+01 -0.10787364067E+02 -0.14309607964E+04  0.14310044113E+04  0.20000014374E+01 0.  0.
        -13    1    3    3    0    0  0.21112147538E+01  0.10787364067E+02 -0.26972581422E+02  0.29126547407E+02  0.10566000000E+00 0.  1.
         13    1    4    4    0    0 -0.11603361300E+01 -0.24612025154E+01 -0.29632846294E+03  0.29634097423E+03  0.10566000000E+00 0. -1.
        -13    1    4    4    0    0 -0.56495862771E+00 -0.27497706064E+01 -0.39258488598E+03  0.39259493665E+03  0.10566000000E+00 0.  1.
         14    1    4    4    0    0 -0.38591999608E+00 -0.55763909453E+01 -0.74204744744E+03  0.74206850042E+03  0.00000000000E+00 0. -1.
<mgrwt>
<rscale>  0 0.80079227E+02</rscale>
<asrwt>0</asrwt>
<pdfrwt beam="1">  1        2 0.22446494E+00 0.80079227E+02</pdfrwt>
<pdfrwt beam="2">  1       -1 0.16904586E-03 0.80079227E+02</pdfrwt>
<totfact> 0.33495490E+05</totfact>
</mgrwt>
</event>
<event>
 8    1  0.2561077E-016  0.8044903E+02  0.7818608E-02  0.1327782E+00
         -1   -1    0    0    0  501 -0.00000000000E+00  0.00000000000E+00  0.71878771296E+01  0.71878788966E+01  0.50400000000E-02 0.  1.
          2   -1    0    0  501    0  0.00000000000E+00 -0.00000000000E+00 -0.22510281641E+03  0.22510281643E+03  0.25500000000E-02 0. -1.
         24    2    1    2    0    0  0.00000000000E+00 -0.35527136788E-14 -0.21791493928E+03  0.23229069532E+03  0.80449029648E+02 0.  0.
         66    2    3    3    0    0 -0.22113943925E+02 -0.22554836291E+02 -0.18081998446E+03  0.18356909854E+03  0.20000005554E+01 0.  0.
        -13    1    3    3    0    0  0.22113943925E+02  0.22554836291E+02 -0.37094954827E+02  0.48721596789E+02  0.10566000000E+00 0.  1.
         13    1    4    4    0    0 -0.14266145415E+02 -0.15523714537E+02 -0.11844329048E+03  0.12030516548E+03  0.10566000000E+00 0. -1.
        -13    1    4    4    0    0 -0.70416252124E+01 -0.64739269745E+01 -0.57404807568E+02  0.58196385730E+02  0.10566000000E+00 0.  1.
        -14    1    4    4    0    0 -0.80617329747E+00 -0.55719477939E+00 -0.49718864099E+01  0.50675473240E+01  0.00000000000E+00 0.  1.
<mgrwt>
<rscale>  0 0.80449030E+02</rscale>
<asrwt>0</asrwt>
<pdfrwt beam="1">  1        2 0.34631197E-01 0.80449030E+02</pdfrwt>
<pdfrwt beam="2">  1       -1 0.11058276E-02 0.80449030E+02</pdfrwt>
<totfact> 0.22656300E+05</totfact>
</mgrwt>
</event>
<event>
 8    1  0.2561077E-016  0.7738968E+02  0.7818608E-02  0.1336627E+00
         -1   -1    0    0    0  501 -0.00000000000E+00  0.00000000000E+00  0.48477043393E+01  0.48477069593E+01  0.50400000000E-02 0.  1.
          2   -1    0    0  501    0  0.00000000000E+00 -0.00000000000E+00 -0.30886584147E+03  0.30886584148E+03  0.25500000000E-02 0. -1.
         24    2    1    2    0    0 -0.22204460493E-15  0.17763568394E-14 -0.30401813713E+03  0.31371354844E+03  0.77389681291E+02 0.  0.
         66    2    3    3    0    0  0.19378473772E+01  0.15789842754E+02 -0.29498258620E+03  0.29541800988E+03  0.20000028742E+01 0.  0.
        -13    1    3    3    0    0 -0.19378473772E+01 -0.15789842754E+02 -0.90355509293E+01  0.18295538562E+02  0.10566000000E+00 0.  1.
         13    1    4    4    0    0  0.20803339122E+00  0.32182819840E+01 -0.52719364432E+02  0.52818019340E+02  0.10566000000E+00 0. -1.
        -13    1    4    4    0    0  0.12768136527E+01  0.41338791119E+01 -0.80876599655E+02  0.80992312878E+02  0.10566000000E+00 0.  1.
         14    1    4    4    0    0  0.45300033323E+00  0.84376816578E+01 -0.16138662212E+03  0.16160767766E+03  0.00000000000E+00 0. -1.
<mgrwt>
<rscale>  0 0.77389681E+02</rscale>
<asrwt>0</asrwt>
<pdfrwt beam="1">  1        2 0.47517806E-01 0.77389681E+02</pdfrwt>
<pdfrwt beam="2">  1       -1 0.74580111E-03 0.77389681E+02</pdfrwt>
<totfact> 0.28100738E+05</totfact>
</mgrwt>
</event>
<event>
 8    1  0.2561077E-016  0.7920137E+02  0.7818608E-02  0.1331333E+00
         -1   -1    0    0    0  501 -0.00000000000E+00  0.00000000000E+00  0.34361556097E+01  0.34361593059E+01  0.50400000000E-02 0.  1.
          2   -1    0    0  501    0  0.00000000000E+00 -0.00000000000E+00 -0.45638601768E+03  0.45638601769E+03  0.25500000000E-02 0. -1.
         24    2    1    2    0    0  0.55511151231E-16  0.35527136788E-14 -0.45294986207E+03  0.45982217699E+03  0.79201369339E+02 0.  0.
         66    2    3    3    0    0 -0.45576382843E+00  0.29167976951E+02 -0.38188634734E+03  0.38300412644E+03  0.19999973822E+01 0.  0.
        -13    1    3    3    0    0  0.45576382843E+00 -0.29167976951E+02 -0.71063514730E+02  0.76818050547E+02  0.10566000000E+00 0.  1.
         13    1    4    4    0    0 -0.33970603183E+00  0.14557349864E+02 -0.18497169017E+03  0.18554398175E+03  0.10566000000E+00 0. -1.
        -13    1    4    4    0    0 -0.33572669402E+00  0.38806399873E+01 -0.59007118140E+02  0.59135634218E+02  0.10566000000E+00 0.  1.
        -14    1    4    4    0    0  0.21966889743E+00  0.10729987100E+02 -0.13790753903E+03  0.13832451048E+03  0.00000000000E+00 0.  1.
<mgrwt>
<rscale>  0 0.79201369E+02</rscale>
<asrwt>0</asrwt>
<pdfrwt beam="1">  1        2 0.70213186E-01 0.79201369E+02</pdfrwt>
<pdfrwt beam="2">  1       -1 0.52863997E-03 0.79201369E+02</pdfrwt>
<totfact> 0.30340926E+05</totfact>
</mgrwt>
</event>
<event>
 8    1  0.2561077E-016  0.7234553E+02  0.7818608E-02  0.1352294E+00
         -1   -1    0    0    0  501 -0.00000000000E+00  0.00000000000E+00  0.54662237498E+02  0.54662237731E+02  0.50400000000E-02 0.  1.
          2   -1    0    0  501    0  0.00000000000E+00 -0.00000000000E+00 -0.23937346647E+02  0.23937346783E+02  0.25500000000E-02 0. -1.
         24    2    1    2    0    0  0.00000000000E+00  0.00000000000E+00  0.30724890852E+02  0.78599584513E+02  0.72345530393E+02 0.  0.
         66    2    3    3    0    0 -0.21338872026E+01  0.10277467362E+02 -0.22203161735E+02  0.24640621174E+02  0.20000027152E+01 0.  0.
        -13    1    3    3    0    0  0.21338872026E+01 -0.10277467362E+02  0.52928052587E+02  0.53958963339E+02  0.10566000000E+00 0.  1.
         13    1    4    4    0    0 -0.55675618466E+00  0.10554973017E+01 -0.18470083025E+01  0.22015121412E+01  0.10566000000E+00 0.  1.
        -13    1    4    4    0    0 -0.56732475572E+00  0.66854098462E+01 -0.14321072449E+02  0.15815209209E+02  0.10566000000E+00 0. -1.
         14    1    4    4    0    0 -0.10098062622E+01  0.25365602142E+01 -0.60350809834E+01  0.66238998244E+01  0.00000000000E+00 0. -1.
<mgrwt>
<rscale>  0 0.72345530E+02</rscale>
<asrwt>0</asrwt>
<pdfrwt beam="1">  1        2 0.36826687E-02 0.72345530E+02</pdfrwt>
<pdfrwt beam="2">  1       -1 0.84095750E-02 0.72345530E+02</pdfrwt>
<totfact> 0.17073061E+05</totfact>
</mgrwt>
</event>
<event>
 8    1  0.2561077E-016  0.7953191E+02  0.7818608E-02  0.1330385E+00
         -1   -1    0    0    0  501 -0.00000000000E+00  0.00000000000E+00  0.83950573008E+00  0.83952085885E+00  0.50400000000E-02 0.  1.
          2   -1    0    0  501    0  0.00000000000E+00 -0.00000000000E+00 -0.18836286481E+04  0.18836286481E+04  0.25500000000E-02 0. -1.
         24    2    1    2    0    0 -0.17763568394E-14 -0.88817841970E-15 -0.18827891423E+04  0.18844681689E+04  0.79531913088E+02 0.  0.
         66    2    3    3    0    0  0.13322312615E+02 -0.72534027933E+01 -0.18123312434E+04  0.18123958265E+04  0.20000037433E+01 0.  0.
        -13    1    3    3    0    0 -0.13322312615E+02  0.72534027933E+01 -0.70457898930E+02  0.72072342484E+02  0.10566000000E+00 0.  1.
         13    1    4    4    0    0  0.19361839465E+01 -0.40437236033E+00 -0.25219713266E+03  0.25220491116E+03  0.10566000000E+00 0.  1.
        -13    1    4    4    0    0  0.16666399546E+01 -0.77510544417E+00 -0.23887798871E+03  0.23888508352E+03  0.10566000000E+00 0. -1.
        -14    1    4    4    0    0  0.97194887139E+01 -0.60739249889E+01 -0.13212561220E+04  0.13213058318E+04  0.00000000000E+00 0.  1.
<mgrwt>
<rscale>  0 0.79531913E+02</rscale>
<asrwt>0</asrwt>
<pdfrwt beam="1">  1        2 0.28978564E+00 0.79531913E+02</pdfrwt>
<pdfrwt beam="2">  1       -1 0.12915740E-03 0.79531913E+02</pdfrwt>
<totfact> 0.29673265E+05</totfact>
</mgrwt>
</event>
<event>
 8    1  0.2561077E-016  0.7991081E+02  0.7818608E-02  0.1329305E+00
          2   -1    0    0  501    0  0.00000000000E+00  0.00000000000E+00  0.17080987166E+03  0.17080987168E+03  0.25500000000E-02 0. -1.
         -1   -1    0    0    0  501 -0.00000000000E+00 -0.00000000000E+00 -0.93462649276E+01  0.93462662865E+01  0.50400000000E-02 0.  1.
         24    2    1    2    0    0  0.00000000000E+00  0.00000000000E+00  0.16146360673E+03  0.18015613796E+03  0.79910811206E+02 0.  0.
         66    2    3    3    0    0 -0.35185482590E+02  0.17020541020E+02  0.99196186406E+02  0.10663770626E+03  0.19999995024E+01 0.  0.
        -13    1    3    3    0    0  0.35185482590E+02 -0.17020541020E+02  0.62267420324E+02  0.73518431700E+02  0.10566000000E+00 0.  1.
         13    1    4    4    0    0 -0.28644255522E+01  0.17998781770E+01  0.75376884556E+01  0.82627118118E+01  0.10566000000E+00 0. -1.
        -13    1    4    4    0    0 -0.14574782621E+02  0.67958448657E+01  0.41254006277E+02  0.44277669246E+02  0.10566000000E+00 0.  1.
         14    1    4    4    0    0 -0.17746274417E+02  0.84248179772E+01  0.50404491673E+02  0.54097325206E+02  0.00000000000E+00 0. -1.
<mgrwt>
<rscale>  0 0.79910811E+02</rscale>
<asrwt>0</asrwt>
<pdfrwt beam="1">  1        2 0.26278442E-01 0.79910811E+02</pdfrwt>
<pdfrwt beam="2">  1       -1 0.14378870E-02 0.79910811E+02</pdfrwt>
<totfact> 0.20964253E+05</totfact>
</mgrwt>
</event>
<event>
 8    1  0.2561077E-016  0.8004069E+02  0.7818608E-02  0.1328936E+00
         -1   -1    0    0    0  501 -0.00000000000E+00  0.00000000000E+00  0.21597617337E+03  0.21597617343E+03  0.50400000000E-02 0.  1.
          2   -1    0    0  501    0  0.00000000000E+00 -0.00000000000E+00 -0.74157625983E+01  0.74157630367E+01  0.25500000000E-02 0. -1.
         24    2    1    2    0    0  0.00000000000E+00  0.35527136788E-14  0.20856041077E+03  0.22339193646E+03  0.80040691754E+02 0.  0.
         66    2    3    3    0    0 -0.31611537418E+02 -0.22773612727E+02  0.79118568171E+02  0.88213800236E+02  0.19999970164E+01 0.  0.
        -13    1    3    3    0    0  0.31611537418E+02  0.22773612727E+02  0.12944184260E+03  0.13517813623E+03  0.10566000000E+00 0.  1.
         13    1    4    4    0    0 -0.76763095033E+00 -0.34761499278E+00  0.18250913027E+01  0.20130116139E+01  0.10566000000E+00 0. -1.
        -13    1    4    4    0    0 -0.22649772951E+02 -0.17219848412E+02  0.57866452002E+02  0.64483120469E+02  0.10566000000E+00 0.  1.
         14    1    4    4    0    0 -0.81941335162E+01 -0.52061493225E+01  0.19427024866E+02  0.21717668153E+02  0.00000000000E+00 0. -1.
<mgrwt>
<rscale>  0 0.80040692E+02</rscale>
<asrwt>0</asrwt>
<pdfrwt beam="1">  1        2 0.11408867E-02 0.80040692E+02</pdfrwt>
<pdfrwt beam="2">  1       -1 0.33227100E-01 0.80040692E+02</pdfrwt>
<totfact> 0.97130706E+04</totfact>
</mgrwt>
</event>
<event>
 8    1  0.2561077E-016  0.7799391E+02  0.7818608E-02  0.1334843E+00
          2   -1    0    0  501    0  0.00000000000E+00  0.00000000000E+00  0.59591607064E+02  0.59591607118E+02  0.25500000000E-02 0. -1.
         -1   -1    0    0    0  501 -0.00000000000E+00 -0.00000000000E+00 -0.25519743481E+02  0.25519743979E+02  0.50400000000E-02 0.  1.
         24    2    1    2    0    0  0.35527136788E-14  0.00000000000E+00  0.34071863582E+02  0.85111351097E+02  0.77993911286E+02 0.  0.
         66    2    3    3    0    0 -0.26770643575E+02  0.16025509085E+02  0.42529126091E+02  0.52784570372E+02  0.20000011154E+01 0.  0.
        -13    1    3    3    0    0  0.26770643575E+02 -0.16025509085E+02 -0.84572625087E+01  0.32326780725E+02  0.10566000000E+00 0.  1.
         13    1    4    4    0    0 -0.20208589918E+02  0.11192441032E+02  0.31562531933E+02  0.39113455853E+02  0.10566000000E+00 0. -1.
        -13    1    4    4    0    0 -0.14711133522E+01  0.11672466871E+01  0.22716916931E+01  0.29493027155E+01  0.10566000000E+00 0.  1.
         14    1    4    4    0    0 -0.50909403046E+01  0.36658213662E+01  0.86949024649E+01  0.10721811803E+02  0.00000000000E+00 0. -1.
<mgrwt>
<rscale>  0 0.77993911E+02</rscale>
<asrwt>0</asrwt>
<pdfrwt beam="1">  1        2 0.91679395E-02 0.77993911E+02</pdfrwt>
<pdfrwt beam="2">  1       -1 0.39261145E-02 0.77993911E+02</pdfrwt>
<totfact> 0.16651790E+05</totfact>
</mgrwt>
</event>
<event>
 8    1  0.2561077E-016  0.7843648E+02  0.7818608E-02  0.1333548E+00
         -1   -1    0    0    0  501 -0.00000000000E+00  0.00000000000E+00  0.11071906468E+02  0.11071907616E+02  0.50400000000E-02 0.  1.
          2   -1    0    0  501    0  0.00000000000E+00 -0.00000000000E+00 -0.13891648782E+03  0.13891648784E+03  0.25500000000E-02 0. -1.
         24    2    1    2    0    0  0.35527136788E-14  0.00000000000E+00 -0.12784458135E+03  0.14998839545E+03  0.78436482527E+02 0.  0.
         66    2    3    3    0    0  0.23251794109E+02 -0.31550176521E+02 -0.64111140775E+02  0.75168463758E+02  0.20000011177E+01 0.  0.
        -13    1    3    3    0    0 -0.23251794109E+02  0.31550176521E+02 -0.63733440572E+02  0.74819931696E+02  0.10566000000E+00 0.  1.
         13    1    4    4    0    0  0.17438705038E+02 -0.22617190196E+02 -0.45960767853E+02  0.54111450465E+02  0.10566000000E+00 0. -1.
        -13    1    4    4    0    0  0.21109098653E+00 -0.32953387986E+00 -0.79639955400E+00  0.89362646995E+00  0.10566000000E+00 0. -1.
         14    1    4    4    0    0  0.56019980845E+01 -0.86034524454E+01 -0.17353973368E+02  0.20163386823E+02  0.00000000000E+00 0. -1.
<mgrwt>
<rscale>  0 0.78436483E+02</rscale>
<asrwt>0</asrwt>
<pdfrwt beam="1">  1        2 0.21371766E-01 0.78436483E+02</pdfrwt>
<pdfrwt beam="2">  1       -1 0.17033704E-02 0.78436483E+02</pdfrwt>
<totfact> 0.20597759E+05</totfact>
</mgrwt>
</event>
<event>
 8    1  0.2561077E-016  0.7931273E+02  0.7818608E-02  0.1331013E+00
         -1   -1    0    0    0  501 -0.00000000000E+00  0.00000000000E+00  0.16645488743E+02  0.16645489506E+02  0.50400000000E-02 0.  1.
          2   -1    0    0  501    0  0.00000000000E+00 -0.00000000000E+00 -0.94477692885E+02  0.94477692920E+02  0.25500000000E-02 0. -1.
         24    2    1    2    0    0 -0.17763568394E-14 -0.35527136788E-14 -0.77832204143E+02  0.11112318243E+03  0.79312733345E+02 0.  0.
         66    2    3    3    0    0  0.13105426181E+02  0.29683546993E+02 -0.70821260500E+02  0.77926350465E+02  0.20000001207E+01 0.  0.
        -13    1    3    3    0    0 -0.13105426181E+02 -0.29683546993E+02 -0.70109436428E+01  0.33196831961E+02  0.10566000000E+00 0.  1.
         13    1    4    4    0    0  0.55393909490E+01  0.11285006789E+02 -0.28511407771E+02  0.31160034779E+02  0.10566000000E+00 0. -1.
        -13    1    4    4    0    0  0.64896717439E+01  0.16600938606E+02 -0.38144057736E+02  0.42103293298E+02  0.10566000000E+00 0.  1.
        -14    1    4    4    0    0  0.10763634881E+01  0.17976015977E+01 -0.41657949924E+01  0.46630223870E+01  0.00000000000E+00 0.  1.
<mgrwt>
<rscale>  0 0.79312733E+02</rscale>
<asrwt>0</asrwt>
<pdfrwt beam="1">  1        2 0.14535029E-01 0.79312733E+02</pdfrwt>
<pdfrwt beam="2">  1       -1 0.25608445E-02 0.79312733E+02</pdfrwt>
<totfact> 0.17857587E+05</totfact>
</mgrwt>
</event>
<event>
 8    1  0.2561077E-016  0.7952471E+02  0.7818608E-02  0.1330406E+00
         -1   -1    0    0    0  501 -0.00000000000E+00  0.00000000000E+00  0.12204185504E+02  0.12204186545E+02  0.50400000000E-02 0.  1.
          2   -1    0    0  501    0  0.00000000000E+00 -0.00000000000E+00 -0.12954938170E+03  0.12954938172E+03  0.25500000000E-02 0. -1.
         24    2    1    2    0    0  0.71054273576E-14  0.00000000000E+00 -0.11734519619E+03  0.14175356827E+03  0.79524707146E+02 0.  0.
         66    2    3    3    0    0  0.34912075144E+02  0.18573336440E+02 -0.65663218478E+02  0.76677767834E+02  0.20000004424E+01 0.  0.
        -13    1    3    3    0    0 -0.34912075144E+02 -0.18573336440E+02 -0.51681977714E+02  0.65075800431E+02  0.10566000000E+00 0.  1.
         13    1    4    4    0    0  0.13427455150E+02  0.61504022583E+01 -0.24898944281E+02  0.28949828844E+02  0.10566000000E+00 0. -1.
        -13    1    4    4    0    0  0.19904293319E+02  0.11573723838E+02 -0.37559733245E+02  0.44055382208E+02  0.10566000000E+00 0.  1.
         14    1    4    4    0    0  0.15803266750E+01  0.84921034336E+00 -0.32045409522E+01  0.36725567826E+01  0.00000000000E+00 0. -1.
<mgrwt>
<rscale>  0 0.79524707E+02</rscale>
<asrwt>0</asrwt>
<pdfrwt beam="1">  1        2 0.19930673E-01 0.79524707E+02</pdfrwt>
<pdfrwt beam="2">  1       -1 0.18775672E-02 0.79524707E+02</pdfrwt>
<totfact> 0.19431762E+05</totfact>
</mgrwt>
</event>
<event>
 8    1  0.2561077E-016  0.7987009E+02  0.7818608E-02  0.1329420E+00
         -1   -1    0    0    0  501 -0.00000000000E+00  0.00000000000E+00  0.10895769583E+03  0.10895769594E+03  0.50400000000E-02 0.  1.
          2   -1    0    0  501    0  0.00000000000E+00 -0.00000000000E+00 -0.14636946513E+02  0.14636946735E+02  0.25500000000E-02 0. -1.
         24    2    1    2    0    0  0.44408920985E-15  0.35527136788E-14  0.94320749314E+02  0.12359464268E+03  0.79870094200E+02 0.  0.
         66    2    3    3    0    0  0.32258637450E+01  0.27824677105E+02  0.31981760177E+01  0.28263884887E+02  0.20000015311E+01 0.  0.
        -13    1    3    3    0    0 -0.32258637450E+01 -0.27824677105E+02  0.91122573296E+02  0.95330757791E+02  0.10566000000E+00 0.  1.
         13    1    4    4    0    0  0.19811275465E+01  0.13947136886E+02  0.14714060614E+01  0.14164169354E+02  0.10566000000E+00 0.  1.
        -13    1    4    4    0    0  0.13629465058E+01  0.13316055947E+02  0.18487361279E+01  0.13513103214E+02  0.10566000000E+00 0. -1.
        -14    1    4    4    0    0 -0.11821030733E+00  0.56148427268E+00 -0.12196617156E+00  0.58661231851E+00  0.00000000000E+00 0.  1.
<mgrwt>
<rscale>  0 0.79870094E+02</rscale>
<asrwt>0</asrwt>
<pdfrwt beam="1">  1        2 0.22518379E-02 0.79870094E+02</pdfrwt>
<pdfrwt beam="2">  1       -1 0.16762723E-01 0.79870094E+02</pdfrwt>
<totfact> 0.11681434E+05</totfact>
</mgrwt>
</event>
<event>
 8    1  0.2561077E-016  0.8217495E+02  0.7818608E-02  0.1322990E+00
         -1   -1    0    0    0  501 -0.00000000000E+00  0.00000000000E+00  0.52376492364E+02  0.52376492607E+02  0.50400000000E-02 0.  1.
          2   -1    0    0  501    0  0.00000000000E+00 -0.00000000000E+00 -0.32231646380E+02  0.32231646481E+02  0.25500000000E-02 0. -1.
         24    2    1    2    0    0  0.00000000000E+00 -0.35527136788E-14  0.20144845984E+02  0.84608139087E+02  0.82174949833E+02 0.  0.
         66    2    3    3    0    0 -0.49514805118E+01  0.21795309221E+02 -0.25389003738E+02  0.33884423748E+02  0.19999996571E+01 0.  0.
        -13    1    3    3    0    0  0.49514805118E+01 -0.21795309221E+02  0.45533849722E+02  0.50723715339E+02  0.10566000000E+00 0.  1.
         13    1    4    4    0    0 -0.94577165022E-01  0.48309007362E+00 -0.71943508486E+00  0.87810690483E+00  0.10566000000E+00 0. -1.
        -13    1    4    4    0    0 -0.14043099583E+01  0.83354717735E+01 -0.10583231017E+02  0.13545040382E+02  0.10566000000E+00 0.  1.
        -14    1    4    4    0    0 -0.34525933885E+01  0.12976747374E+02 -0.14086337636E+02  0.19461276461E+02  0.00000000000E+00 0.  1.
<mgrwt>
<rscale>  0 0.82174950E+02</rscale>
<asrwt>0</asrwt>
<pdfrwt beam="1">  1        2 0.49587149E-02 0.82174950E+02</pdfrwt>
<pdfrwt beam="2">  1       -1 0.80579219E-02 0.82174950E+02</pdfrwt>
<totfact> 0.12660583E+05</totfact>
</mgrwt>
</event>
<event>
 8    1  0.2561077E-016  0.8858534E+02  0.7818608E-02  0.1306314E+00
          2   -1    0    0  501    0  0.00000000000E+00  0.00000000000E+00  0.29080189387E+03  0.29080189388E+03  0.25500000000E-02 0. -1.
         -1   -1    0    0    0  501 -0.00000000000E+00 -0.00000000000E+00 -0.67463116079E+01  0.67463134906E+01  0.50400000000E-02 0.  1.
         24    2    1    2    0    0  0.00000000000E+00  0.17763568394E-14  0.28405558227E+03  0.29754820737E+03  0.88585336800E+02 0.  0.
         66    2    3    3    0    0 -0.43355041226E+02 -0.87346562128E+01  0.14871757158E+03  0.15516723211E+03  0.20000007991E+01 0.  0.
        -13    1    3    3    0    0  0.43355041226E+02  0.87346562128E+01  0.13533801068E+03  0.14238097527E+03  0.10566000000E+00 0.  1.
         13    1    4    4    0    0 -0.12484835025E+02 -0.28933224206E+01  0.42881973158E+02  0.44756197405E+02  0.10566000000E+00 0. -1.
        -13    1    4    4    0    0 -0.25076473539E+02 -0.43574193911E+01  0.87269735484E+02  0.90905635273E+02  0.10566000000E+00 0.  1.
        -14    1    4    4    0    0 -0.57937326622E+01 -0.14839144011E+01  0.18565862942E+02  0.19505399429E+02  0.00000000000E+00 0.  1.
<mgrwt>
<rscale>  0 0.88585337E+02</rscale>
<asrwt>0</asrwt>
<pdfrwt beam="1">  1        2 0.44738759E-01 0.88585337E+02</pdfrwt>
<pdfrwt beam="2">  1       -1 0.10378941E-02 0.88585337E+02</pdfrwt>
<totfact> 0.19267825E+05</totfact>
</mgrwt>
</event>
<event>
 8    1  0.2561077E-016  0.7970259E+02  0.7818608E-02  0.1329898E+00
          2   -1    0    0  501    0  0.00000000000E+00  0.00000000000E+00  0.82366020869E+02  0.82366020909E+02  0.25500000000E-02 0. -1.
         -1   -1    0    0    0  501 -0.00000000000E+00 -0.00000000000E+00 -0.19281321587E+02  0.19281322246E+02  0.50400000000E-02 0.  1.
         24    2    1    2    0    0  0.00000000000E+00  0.88817841970E-15  0.63084699282E+02  0.10164734315E+03  0.79702591469E+02 0.  0.
         66    2    3    3    0    0  0.13769045494E+02  0.74230241420E+01  0.78271962114E+02  0.79844774095E+02  0.19999989469E+01 0.  0.
        -13    1    3    3    0    0 -0.13769045494E+02 -0.74230241420E+01 -0.15187262832E+02  0.21802569060E+02  0.10566000000E+00 0.  1.
         13    1    4    4    0    0  0.44000835420E+01  0.18980034155E+01  0.25380959462E+02  0.25829584190E+02  0.10566000000E+00 0. -1.
        -13    1    4    4    0    0  0.16567466547E+01  0.43777437344E+00  0.76114844640E+01  0.78027120709E+01  0.10566000000E+00 0.  1.
         14    1    4    4    0    0  0.77122152972E+01  0.50872463530E+01  0.45279518188E+02  0.46212477834E+02  0.00000000000E+00 0. -1.
<mgrwt>
<rscale>  0 0.79702591E+02</rscale>
<asrwt>0</asrwt>
<pdfrwt beam="1">  1        2 0.12671696E-01 0.79702591E+02</pdfrwt>
<pdfrwt beam="2">  1       -1 0.29663572E-02 0.79702591E+02</pdfrwt>
<totfact> 0.16991398E+05</totfact>
</mgrwt>
</event>
<event>
 8    1  0.2561077E-016  0.7958608E+02  0.7818608E-02  0.1330230E+00
          2   -1    0    0  501    0  0.00000000000E+00  0.00000000000E+00  0.16194206566E+02  0.16194206767E+02  0.25500000000E-02 0. -1.
         -1   -1    0    0    0  501 -0.00000000000E+00 -0.00000000000E+00 -0.97781015431E+02  0.97781015561E+02  0.50400000000E-02 0.  1.
         24    2    1    2    0    0  0.71054273576E-14  0.00000000000E+00 -0.81586808865E+02  0.11397522233E+03  0.79586078706E+02 0.  0.
         66    2    3    3    0    0 -0.33707694491E+02  0.16685898021E+02 -0.22320421715E+02  0.43781606731E+02  0.20000004366E+01 0.  0.
        -13    1    3    3    0    0  0.33707694491E+02 -0.16685898021E+02 -0.59266387151E+02  0.70193615597E+02  0.10566000000E+00 0.  1.
         13    1    4    4    0    0 -0.12871952212E+02  0.54178402430E+01 -0.85737619880E+01  0.16387821860E+02  0.10566000000E+00 0. -1.
        -13    1    4    4    0    0 -0.46480650252E+01  0.27321837805E+01 -0.29821448160E+01  0.61622794832E+01  0.10566000000E+00 0.  1.
         14    1    4    4    0    0 -0.16187677254E+02  0.85358739974E+01 -0.10764514911E+02  0.21231505388E+02  0.00000000000E+00 0. -1.
<mgrwt>
<rscale>  0 0.79586079E+02</rscale>
<asrwt>0</asrwt>
<pdfrwt beam="1">  1        2 0.24914165E-02 0.79586079E+02</pdfrwt>
<pdfrwt beam="2">  1       -1 0.15043233E-01 0.79586079E+02</pdfrwt>
<totfact> 0.12064786E+05</totfact>
</mgrwt>
</event>
<event>
 8    1  0.2561077E-016  0.8340738E+02  0.7818608E-02  0.1319651E+00
         -1   -1    0    0    0  501 -0.00000000000E+00  0.00000000000E+00  0.22556532617E+01  0.22556588924E+01  0.50400000000E-02 0.  1.
          2   -1    0    0  501    0  0.00000000000E+00 -0.00000000000E+00 -0.77103844851E+03  0.77103844852E+03  0.25500000000E-02 0. -1.
         24    2    1    2    0    0  0.17763568394E-14 -0.35527136788E-14 -0.76878279525E+03  0.77329410741E+03  0.83407375454E+02 0.  0.
         66    2    3    3    0    0 -0.59359842595E+01  0.31157595849E+02 -0.63530739993E+03  0.63610181897E+03  0.19999993691E+01 0.  0.
        -13    1    3    3    0    0  0.59359842595E+01 -0.31157595849E+02 -0.13347539532E+03  0.13719228844E+03  0.10566000000E+00 0.  1.
         13    1    4    4    0    0 -0.61843550397E+00  0.51074886685E+01 -0.11178001898E+03  0.11189840352E+03  0.10566000000E+00 0.  1.
        -13    1    4    4    0    0 -0.33159824204E+01  0.17788470161E+02 -0.36508168598E+03  0.36552985379E+03  0.10566000000E+00 0. -1.
         14    1    4    4    0    0 -0.20015663351E+01  0.82616370194E+01 -0.15844569497E+03  0.15867356166E+03  0.00000000000E+00 0. -1.
<mgrwt>
<rscale>  0 0.83407375E+02</rscale>
<asrwt>0</asrwt>
<pdfrwt beam="1">  1        2 0.11862109E+00 0.83407375E+02</pdfrwt>
<pdfrwt beam="2">  1       -1 0.34702463E-03 0.83407375E+02</pdfrwt>
<totfact> 0.30624017E+05</totfact>
</mgrwt>
</event>
<event>
 8    1  0.2561077E-016  0.7996416E+02  0.7818608E-02  0.1329153E+00
         -1   -1    0    0    0  501 -0.00000000000E+00  0.00000000000E+00  0.51934646098E+02  0.51934646342E+02  0.50400000000E-02 0.  1.
          2   -1    0    0  501    0  0.00000000000E+00 -0.00000000000E+00 -0.30780352362E+02  0.30780352468E+02  0.25500000000E-02 0. -1.
         24    2    1    2    0    0  0.00000000000E+00  0.00000000000E+00  0.21154293735E+02  0.82714998810E+02  0.79964160002E+02 0.  0.
         66    2    3    3    0    0  0.36617159652E+01 -0.37778210025E+02 -0.23342800491E+01  0.38079524365E+02  0.19999990032E+01 0.  0.
        -13    1    3    3    0    0 -0.36617159652E+01  0.37778210025E+02  0.23488573784E+02  0.44635474445E+02  0.10566000000E+00 0.  1.
         13    1    4    4    0    0  0.20684772767E+01 -0.22895556047E+02 -0.20761106875E+01  0.23082601339E+02  0.10566000000E+00 0. -1.
        -13    1    4    4    0    0  0.16033532908E+01 -0.13666782092E+02 -0.36483943756E-01  0.13760965433E+02  0.10566000000E+00 0.  1.
         14    1    4    4    0    0 -0.10114602353E-01 -0.12158718861E+01 -0.22168541791E+00  0.12359575935E+01  0.00000000000E+00 0. -1.
<mgrwt>
<rscale>  0 0.79964160E+02</rscale>
<asrwt>0</asrwt>
<pdfrwt beam="1">  1        2 0.47354389E-02 0.79964160E+02</pdfrwt>
<pdfrwt beam="2">  1       -1 0.79899456E-02 0.79964160E+02</pdfrwt>
<totfact> 0.13540634E+05</totfact>
</mgrwt>
</event>
<event>
 8    1  0.2561077E-016  0.7756978E+02  0.7818608E-02  0.1336093E+00
         -1   -1    0    0    0  501 -0.00000000000E+00  0.00000000000E+00  0.15144026058E+01  0.15144109924E+01  0.50400000000E-02 0.  1.
          2   -1    0    0  501    0  0.00000000000E+00 -0.00000000000E+00 -0.99330492579E+03  0.99330492580E+03  0.25500000000E-02 0. -1.
         24    2    1    2    0    0  0.35527136788E-14  0.35527136788E-14 -0.99179052319E+03  0.99481933679E+03  0.77569781260E+02 0.  0.
         66    2    3    3    0    0 -0.16318573496E+02 -0.17332830654E+02 -0.88849194775E+03  0.88881306476E+03  0.20000000501E+01 0.  0.
        -13    1    3    3    0    0  0.16318573496E+02  0.17332830654E+02 -0.10329857543E+03  0.10600627203E+03  0.10566000000E+00 0.  1.
         13    1    4    4    0    0 -0.31399458761E+01 -0.38588516804E+01 -0.19639498249E+03  0.19645801156E+03  0.10566000000E+00 0. -1.
        -13    1    4    4    0    0 -0.54920943690E+01 -0.61360546121E+01 -0.27996167491E+03  0.28008278214E+03  0.10566000000E+00 0.  1.
        -14    1    4    4    0    0 -0.76865332509E+01 -0.73379243614E+01 -0.41213529036E+03  0.41227227106E+03  0.00000000000E+00 0.  1.
<mgrwt>
<rscale>  0 0.77569781E+02</rscale>
<asrwt>0</asrwt>
<pdfrwt beam="1">  1        2 0.15281562E+00 0.77569781E+02</pdfrwt>
<pdfrwt beam="2">  1       -1 0.23298646E-03 0.77569781E+02</pdfrwt>
<totfact> 0.38152695E+05</totfact>
</mgrwt>
</event>
<event>
 8    1  0.2561077E-016  0.8081414E+02  0.7818608E-02  0.1326757E+00
          2   -1    0    0  501    0  0.00000000000E+00  0.00000000000E+00  0.23679973155E+03  0.23679973156E+03  0.25500000000E-02 0. -1.
         -1   -1    0    0    0  501 -0.00000000000E+00 -0.00000000000E+00 -0.68949863070E+01  0.68949881491E+01  0.50400000000E-02 0.  1.
         24    2    1    2    0    0  0.35527136788E-14  0.00000000000E+00  0.22990474524E+03  0.24369471971E+03  0.80814135711E+02 0.  0.
         66    2    3    3    0    0  0.17779502118E+02  0.12737672141E+02  0.21738822569E+03  0.21849485041E+03  0.19999998476E+01 0.  0.
        -13    1    3    3    0    0 -0.17779502118E+02 -0.12737672141E+02  0.12516519550E+02  0.25199869301E+02  0.10566000000E+00 0.  1.
         13    1    4    4    0    0  0.91270025772E+01  0.59391722231E+01  0.10544520668E+03  0.10600603152E+03  0.10566000000E+00 0. -1.
        -13    1    4    4    0    0  0.52184295834E+01  0.34525660651E+01  0.66272032917E+02  0.66566851591E+02  0.10566000000E+00 0.  1.
        -14    1    4    4    0    0  0.34340699572E+01  0.33459338524E+01  0.45670986093E+02  0.45921967298E+02  0.00000000000E+00 0.  1.
<mgrwt>
<rscale>  0 0.80814136E+02</rscale>
<asrwt>0</asrwt>
<pdfrwt beam="1">  1        2 0.36430735E-01 0.80814136E+02</pdfrwt>
<pdfrwt beam="2">  1       -1 0.10607671E-02 0.80814136E+02</pdfrwt>
<totfact> 0.22794478E+05</totfact>
</mgrwt>
</event>
<event>
 8    1  0.2561077E-016  0.7770070E+02  0.7818608E-02  0.1335706E+00
          2   -1    0    0  501    0  0.00000000000E+00  0.00000000000E+00  0.47011418939E+02  0.47011419008E+02  0.25500000000E-02 0. -1.
         -1   -1    0    0    0  501 -0.00000000000E+00 -0.00000000000E+00 -0.32106018734E+02  0.32106019129E+02  0.50400000000E-02 0.  1.
         24    2    1    2    0    0  0.17763568394E-14  0.00000000000E+00  0.14905400206E+02  0.79117438138E+02  0.77700695378E+02 0.  0.
         66    2    3    3    0    0  0.11532080900E+02  0.36567747692E+02  0.12509487958E+01  0.38415542991E+02  0.20000023231E+01 0.  0.
        -13    1    3    3    0    0 -0.11532080900E+02 -0.36567747692E+02  0.13654451410E+02  0.40701895146E+02  0.10566000000E+00 0.  1.
         13    1    4    4    0    0  0.84658094984E+01  0.24676894303E+02  0.25837178625E+00  0.26090169853E+02  0.10566000000E+00 0. -1.
        -13    1    4    4    0    0  0.11660512517E+01  0.39220272276E+01  0.34303313971E+00  0.41074090210E+01  0.10566000000E+00 0.  1.
         14    1    4    4    0    0  0.19002201495E+01  0.79688261610E+01  0.64954386984E+00  0.82179641177E+01  0.00000000000E+00 0. -1.
<mgrwt>
<rscale>  0 0.77700695E+02</rscale>
<asrwt>0</asrwt>
<pdfrwt beam="1">  1        2 0.72325260E-02 0.77700695E+02</pdfrwt>
<pdfrwt beam="2">  1       -1 0.49393876E-02 0.77700695E+02</pdfrwt>
<totfact> 0.15972267E+05</totfact>
</mgrwt>
</event>
<event>
 8    1  0.2561077E-016  0.7789561E+02  0.7818608E-02  0.1335132E+00
         -1   -1    0    0    0  501 -0.00000000000E+00  0.00000000000E+00  0.22543868930E+01  0.22543925268E+01  0.50400000000E-02 0.  1.
          2   -1    0    0  501    0  0.00000000000E+00 -0.00000000000E+00 -0.67287898470E+03  0.67287898470E+03  0.25500000000E-02 0. -1.
         24    2    1    2    0    0  0.00000000000E+00  0.35527136788E-14 -0.67062459780E+03  0.67513337723E+03  0.77895608787E+02 0.  0.
         66    2    3    3    0    0  0.18601641346E+02  0.22836420278E+02 -0.55606090534E+03  0.55684401191E+03  0.20000008390E+01 0.  0.
        -13    1    3    3    0    0 -0.18601641346E+02 -0.22836420278E+02 -0.11456369247E+03  0.11828936532E+03  0.10566000000E+00 0.  1.
         13    1    4    4    0    0  0.88019045847E+01  0.11840017168E+02 -0.26570626291E+03  0.26611555544E+03  0.10566000000E+00 0. -1.
        -13    1    4    4    0    0  0.80045773487E+01  0.86838718167E+01 -0.23268997991E+03  0.23298952938E+03  0.10566000000E+00 0.  1.
         14    1    4    4    0    0  0.17951594128E+01  0.23125312930E+01 -0.57664662516E+02  0.57738927089E+02  0.00000000000E+00 0. -1.
<mgrwt>
<rscale>  0 0.77895609E+02</rscale>
<asrwt>0</asrwt>
<pdfrwt beam="1">  1        2 0.10351968E+00 0.77895609E+02</pdfrwt>
<pdfrwt beam="2">  1       -1 0.34682972E-03 0.77895609E+02</pdfrwt>
<totfact> 0.35516517E+05</totfact>
</mgrwt>
</event>
<event>
 8    1  0.2561077E-016  0.8014371E+02  0.7818608E-02  0.1328644E+00
         -1   -1    0    0    0  501 -0.00000000000E+00  0.00000000000E+00  0.12822876449E+02  0.12822877439E+02  0.50400000000E-02 0.  1.
          2   -1    0    0  501    0  0.00000000000E+00 -0.00000000000E+00 -0.12522568703E+03  0.12522568705E+03  0.25500000000E-02 0. -1.
         24    2    1    2    0    0  0.71054273576E-14  0.00000000000E+00 -0.11240281058E+03  0.13804856449E+03  0.80143710499E+02 0.  0.
         66    2    3    3    0    0 -0.39344544940E+02 -0.73498663902E+01 -0.53967509393E+02  0.67219832038E+02  0.19999991744E+01 0.  0.
        -13    1    3    3    0    0  0.39344544940E+02  0.73498663902E+01 -0.58435301187E+02  0.70828732456E+02  0.10566000000E+00 0.  1.
         13    1    4    4    0    0 -0.11029474938E+01  0.70526464376E-01 -0.13548056293E+01  0.17516076858E+01  0.10566000000E+00 0. -1.
        -13    1    4    4    0    0 -0.19979165851E+02 -0.40900300756E+01 -0.28011268216E+02  0.34648776677E+02  0.10566000000E+00 0.  1.
         14    1    4    4    0    0 -0.18262431595E+02 -0.33303627790E+01 -0.24601435548E+02  0.30819447675E+02  0.00000000000E+00 0. -1.
<mgrwt>
<rscale>  0 0.80143710E+02</rscale>
<asrwt>0</asrwt>
<pdfrwt beam="1">  1        2 0.19265490E-01 0.80143710E+02</pdfrwt>
<pdfrwt beam="2">  1       -1 0.19727504E-02 0.80143710E+02</pdfrwt>
<totfact> 0.18838180E+05</totfact>
</mgrwt>
</event>
<event>
 8    1  0.2561077E-016  0.8224248E+02  0.7818608E-02  0.1322805E+00
         -1   -1    0    0    0  501 -0.00000000000E+00  0.00000000000E+00  0.33086442008E+01  0.33086480395E+01  0.50400000000E-02 0.  1.
          2   -1    0    0  501    0  0.00000000000E+00 -0.00000000000E+00 -0.51107200355E+03  0.51107200356E+03  0.25500000000E-02 0. -1.
         24    2    1    2    0    0  0.35527136788E-14 -0.35527136788E-14 -0.50776335935E+03  0.51438065160E+03  0.82242480742E+02 0.  0.
         66    2    3    3    0    0  0.25505770587E+02  0.27537335879E+02 -0.35870729903E+03  0.36067128467E+03  0.20000008655E+01 0.  0.
        -13    1    3    3    0    0 -0.25505770587E+02 -0.27537335879E+02 -0.14905606032E+03  0.15370936693E+03  0.10566000000E+00 0.  1.
         13    1    4    4    0    0  0.11812009431E+02  0.12538546236E+02 -0.17094987417E+03  0.17181562604E+03  0.10566000000E+00 0. -1.
        -13    1    4    4    0    0  0.18227687774E+01  0.20112236322E+01 -0.22051632333E+02  0.22218306846E+02  0.10566000000E+00 0.  1.
        -14    1    4    4    0    0  0.11870992379E+02  0.12987566010E+02 -0.16570579253E+03  0.16663735178E+03  0.00000000000E+00 0.  1.
<mgrwt>
<rscale>  0 0.82242481E+02</rscale>
<asrwt>0</asrwt>
<pdfrwt beam="1">  1        2 0.78626400E-01 0.82242481E+02</pdfrwt>
<pdfrwt beam="2">  1       -1 0.50902289E-03 0.82242481E+02</pdfrwt>
<totfact> 0.28529289E+05</totfact>
</mgrwt>
</event>
<event>
 8    1  0.2561077E-016  0.8365689E+02  0.7818608E-02  0.1318983E+00
          2   -1    0    0  501    0  0.00000000000E+00  0.00000000000E+00  0.13298322675E+03  0.13298322678E+03  0.25500000000E-02 0. -1.
         -1   -1    0    0    0  501 -0.00000000000E+00 -0.00000000000E+00 -0.13156688768E+02  0.13156689734E+02  0.50400000000E-02 0.  1.
         24    2    1    2    0    0  0.00000000000E+00  0.00000000000E+00  0.11982653798E+03  0.14613991651E+03  0.83656894471E+02 0.  0.
         66    2    3    3    0    0  0.31378707999E+02  0.20091574707E+02  0.93061092222E+02  0.10026296216E+03  0.20000012669E+01 0.  0.
        -13    1    3    3    0    0 -0.31378707999E+02 -0.20091574707E+02  0.26765445762E+02  0.45876954354E+02  0.10566000000E+00 0.  1.
         13    1    4    4    0    0  0.19347020287E+02  0.12781979709E+02  0.57627722768E+02  0.62118047254E+02  0.10566000000E+00 0. -1.
        -13    1    4    4    0    0  0.12479589049E+01  0.11581197976E+01  0.39876688921E+01  0.43372007243E+01  0.10566000000E+00 0.  1.
        -14    1    4    4    0    0  0.10783728807E+02  0.61514752008E+01  0.31445700563E+02  0.33807714179E+02  0.00000000000E+00 0.  1.
<mgrwt>
<rscale>  0 0.83656894E+02</rscale>
<asrwt>0</asrwt>
<pdfrwt beam="1">  1        2 0.20458959E-01 0.83656894E+02</pdfrwt>
<pdfrwt beam="2">  1       -1 0.20241060E-02 0.83656894E+02</pdfrwt>
<totfact> 0.17114614E+05</totfact>
</mgrwt>
</event>
<event>
 8    1  0.2561077E-016  0.7987814E+02  0.7818608E-02  0.1329398E+00
         -1   -1    0    0    0  501 -0.00000000000E+00  0.00000000000E+00  0.47700105922E+01  0.47700132548E+01  0.50400000000E-02 0.  1.
          2   -1    0    0  501    0  0.00000000000E+00 -0.00000000000E+00 -0.33440781597E+03  0.33440781598E+03  0.25500000000E-02 0. -1.
         24    2    1    2    0    0 -0.35527136788E-14  0.00000000000E+00 -0.32963780538E+03  0.33917782924E+03  0.79878139125E+02 0.  0.
         66    2    3    3    0    0 -0.23251022045E+02  0.92422132756E+01 -0.29697068115E+03  0.29802955221E+03  0.19999996777E+01 0.  0.
        -13    1    3    3    0    0  0.23251022045E+02 -0.92422132756E+01 -0.32667124232E+02  0.41148277023E+02  0.10566000000E+00 0.  1.
         13    1    4    4    0    0 -0.48280166766E+01  0.14658566840E+01 -0.59214877438E+02  0.59429549510E+02  0.10566000000E+00 0. -1.
        -13    1    4    4    0    0 -0.16489324718E+02  0.73707706150E+01 -0.21135422696E+03  0.21212460137E+03  0.10566000000E+00 0.  1.
        -14    1    4    4    0    0 -0.19336806497E+01  0.40558597670E+00 -0.26401576747E+02  0.26475401330E+02  0.00000000000E+00 0.  1.
<mgrwt>
<rscale>  0 0.79878139E+02</rscale>
<asrwt>0</asrwt>
<pdfrwt beam="1">  1        2 0.51447338E-01 0.79878139E+02</pdfrwt>
<pdfrwt beam="2">  1       -1 0.73384825E-03 0.79878139E+02</pdfrwt>
<totfact> 0.26619289E+05</totfact>
</mgrwt>
</event>
<event>
 8    1  0.2561077E-016  0.8855093E+02  0.7818608E-02  0.1306399E+00
         -1   -1    0    0    0  501 -0.00000000000E+00  0.00000000000E+00  0.12351544368E+02  0.12351545396E+02  0.50400000000E-02 0.  1.
          2   -1    0    0  501    0  0.00000000000E+00 -0.00000000000E+00 -0.15871025906E+03  0.15871025908E+03  0.25500000000E-02 0. -1.
         24    2    1    2    0    0 -0.71054273576E-14  0.00000000000E+00 -0.14635871469E+03  0.17106180448E+03  0.88550932149E+02 0.  0.
         66    2    3    3    0    0  0.38036900249E+02  0.21707499490E+02 -0.85478583868E+02  0.96065652523E+02  0.19999949965E+01 0.  0.
        -13    1    3    3    0    0 -0.38036900249E+02 -0.21707499490E+02 -0.60880130826E+02  0.74996151955E+02  0.10566000000E+00 0.  1.
         13    1    4    4    0    0  0.19489465601E+02  0.11111755549E+02 -0.44056881185E+02  0.49440169140E+02  0.10566000000E+00 0. -1.
        -13    1    4    4    0    0  0.59177244961E+01  0.28874633760E+01 -0.11767265167E+02  0.13484680252E+02  0.10566000000E+00 0. -1.
        -14    1    4    4    0    0  0.12629710152E+02  0.77082805647E+01 -0.29654437516E+02  0.33140803131E+02  0.00000000000E+00 0.  1.
<mgrwt>
<rscale>  0 0.88550932E+02</rscale>
<asrwt>0</asrwt>
<pdfrwt beam="1">  1        2 0.24416962E-01 0.88550932E+02</pdfrwt>
<pdfrwt beam="2">  1       -1 0.19002378E-02 0.88550932E+02</pdfrwt>
<totfact> 0.15563585E+05</totfact>
</mgrwt>
</event>
<event>
 8    1  0.2561077E-016  0.8004681E+02  0.7818608E-02  0.1328919E+00
          2   -1    0    0  501    0  0.00000000000E+00  0.00000000000E+00  0.12039830835E+03  0.12039830838E+03  0.25500000000E-02 0. -1.
         -1   -1    0    0    0  501 -0.00000000000E+00 -0.00000000000E+00 -0.13304779508E+02  0.13304780462E+02  0.50400000000E-02 0.  1.
         24    2    1    2    0    0 -0.88817841970E-15  0.71054273576E-14  0.10709352884E+03  0.13370308884E+03  0.80046811588E+02 0.  0.
         66    2    3    3    0    0 -0.66548271085E+01  0.33276837364E+02  0.88943132873E+02  0.95218252000E+02  0.19999999938E+01 0.  0.
        -13    1    3    3    0    0  0.66548271085E+01 -0.33276837364E+02  0.18150395972E+02  0.38484836842E+02  0.10566000000E+00 0.  1.
         13    1    4    4    0    0 -0.24988009609E+01  0.11446571672E+02  0.28308114692E+02  0.30637045072E+02  0.10566000000E+00 0. -1.
        -13    1    4    4    0    0 -0.18562717802E+01  0.10907885374E+02  0.29764852200E+02  0.31755083038E+02  0.10566000000E+00 0.  1.
         14    1    4    4    0    0 -0.22997543674E+01  0.10922380317E+02  0.30870165980E+02  0.32826123890E+02  0.00000000000E+00 0. -1.
<mgrwt>
<rscale>  0 0.80046812E+02</rscale>
<asrwt>0</asrwt>
<pdfrwt beam="1">  1        2 0.18522816E-01 0.80046812E+02</pdfrwt>
<pdfrwt beam="2">  1       -1 0.20468893E-02 0.80046812E+02</pdfrwt>
<totfact> 0.18675935E+05</totfact>
</mgrwt>
</event>
<event>
 8    1  0.2561077E-016  0.7901261E+02  0.7818608E-02  0.1331877E+00
         -1   -1    0    0    0  501 -0.00000000000E+00  0.00000000000E+00  0.35110426561E+02  0.35110426923E+02  0.50400000000E-02 0.  1.
          2   -1    0    0  501    0  0.00000000000E+00 -0.00000000000E+00 -0.44452557531E+02  0.44452557604E+02  0.25500000000E-02 0. -1.
         24    2    1    2    0    0  0.00000000000E+00  0.00000000000E+00 -0.93421309702E+01  0.79562984527E+02  0.79012613523E+02 0.  0.
         66    2    3    3    0    0  0.11275984962E+02  0.15740454237E+02 -0.39320597774E+02  0.43875040170E+02  0.20000010431E+01 0.  0.
        -13    1    3    3    0    0 -0.11275984962E+02 -0.15740454237E+02  0.29978466804E+02  0.35687944357E+02  0.10566000000E+00 0.  1.
         13    1    4    4    0    0  0.74157899335E+01  0.96900851716E+01 -0.24187965531E+02  0.27091705955E+02  0.10566000000E+00 0. -1.
        -13    1    4    4    0    0  0.27297999073E+01  0.33013671682E+01 -0.90665046073E+01  0.10028135547E+02  0.10566000000E+00 0.  1.
        -14    1    4    4    0    0  0.11303951209E+01  0.27490018972E+01 -0.60661276362E+01  0.67551986691E+01  0.00000000000E+00 0.  1.
<mgrwt>
<rscale>  0 0.79012614E+02</rscale>
<asrwt>0</asrwt>
<pdfrwt beam="1">  1        2 0.68388550E-02 0.79012614E+02</pdfrwt>
<pdfrwt beam="2">  1       -1 0.54016041E-02 0.79012614E+02</pdfrwt>
<totfact> 0.15077718E+05</totfact>
</mgrwt>
</event>
<event>
 8    1  0.2561077E-016  0.7523142E+02  0.7818608E-02  0.1343156E+00
          2   -1    0    0  501    0  0.00000000000E+00  0.00000000000E+00  0.77871420848E+02  0.77871420890E+02  0.25500000000E-02 0. -1.
         -1   -1    0    0    0  501 -0.00000000000E+00 -0.00000000000E+00 -0.18170227491E+02  0.18170228190E+02  0.50400000000E-02 0.  1.
         24    2    1    2    0    0 -0.44408920985E-15  0.00000000000E+00  0.59701193357E+02  0.96041649080E+02  0.75231415444E+02 0.  0.
         66    2    3    3    0    0 -0.37118730076E+01 -0.24494656691E+02  0.65961068015E+02  0.70488500498E+02  0.20000002909E+01 0.  0.
        -13    1    3    3    0    0  0.37118730076E+01  0.24494656691E+02 -0.62598746578E+01  0.25553148581E+02  0.10566000000E+00 0.  1.
         13    1    4    4    0    0 -0.20283140839E+01 -0.10678687308E+02  0.28619199795E+02  0.30614019364E+02  0.10566000000E+00 0.  1.
        -13    1    4    4    0    0 -0.62285375403E+00 -0.24088030024E+01  0.78533314637E+01  0.82387048629E+01  0.10566000000E+00 0. -1.
        -14    1    4    4    0    0 -0.10607051696E+01 -0.11407166381E+02  0.29488536756E+02  0.31635776272E+02  0.00000000000E+00 0.  1.
<mgrwt>
<rscale>  0 0.75231415E+02</rscale>
<asrwt>0</asrwt>
<pdfrwt beam="1">  1        2 0.11980219E-01 0.75231415E+02</pdfrwt>
<pdfrwt beam="2">  1       -1 0.27954197E-02 0.75231415E+02</pdfrwt>
<totfact> 0.19558476E+05</totfact>
</mgrwt>
</event>
<event>
 8    1  0.2561077E-016  0.7968317E+02  0.7818608E-02  0.1329953E+00
          2   -1    0    0  501    0  0.00000000000E+00  0.00000000000E+00  0.14804280272E+02  0.14804280492E+02  0.25500000000E-02 0. -1.
         -1   -1    0    0    0  501 -0.00000000000E+00 -0.00000000000E+00 -0.10722250165E+03  0.10722250177E+03  0.50400000000E-02 0.  1.
         24    2    1    2    0    0 -0.35527136788E-14  0.00000000000E+00 -0.92418221376E+02  0.12202678226E+03  0.79683172288E+02 0.  0.
         66    2    3    3    0    0 -0.29134386083E+02 -0.25028729504E+02 -0.30169585065E+02  0.48882037815E+02  0.20000012436E+01 0.  0.
        -13    1    3    3    0    0  0.29134386083E+02  0.25028729504E+02 -0.62248636310E+02  0.73144744442E+02  0.10566000000E+00 0.  1.
         13    1    4    4    0    0 -0.24433315516E+02 -0.20618577258E+02 -0.25165270201E+02  0.40686786843E+02  0.10566000000E+00 0. -1.
        -13    1    4    4    0    0 -0.28851204165E+01 -0.23369659331E+01 -0.31845022279E+01  0.48926013597E+01  0.10566000000E+00 0.  1.
         14    1    4    4    0    0 -0.18159501501E+01 -0.20731863121E+01 -0.18198126368E+01  0.33026496129E+01  0.00000000000E+00 0. -1.
<mgrwt>
<rscale>  0 0.79683172E+02</rscale>
<asrwt>0</asrwt>
<pdfrwt beam="1">  1        2 0.22775817E-02 0.79683172E+02</pdfrwt>
<pdfrwt beam="2">  1       -1 0.16495769E-01 0.79683172E+02</pdfrwt>
<totfact> 0.11791579E+05</totfact>
</mgrwt>
</event>
<event>
 8    1  0.2561077E-016  0.8703782E+02  0.7818608E-02  0.1310188E+00
         -1   -1    0    0    0  501 -0.00000000000E+00  0.00000000000E+00  0.18304026549E+02  0.18304027243E+02  0.50400000000E-02 0.  1.
          2   -1    0    0  501    0  0.00000000000E+00 -0.00000000000E+00 -0.10346878831E+03  0.10346878834E+03  0.25500000000E-02 0. -1.
         24    2    1    2    0    0 -0.17763568394E-14 -0.71054273576E-14 -0.85164761764E+02  0.12177281559E+03  0.87037819191E+02 0.  0.
         66    2    3    3    0    0  0.10562766086E+02 -0.42159863007E+02 -0.40236942524E+02  0.59262446992E+02  0.20000009237E+01 0.  0.
        -13    1    3    3    0    0 -0.10562766086E+02  0.42159863007E+02 -0.44927819240E+02  0.62510368595E+02  0.10566000000E+00 0.  1.
         13    1    4    4    0    0  0.39202040066E+00 -0.15269145519E+01 -0.11387936331E+01  0.19476044305E+01  0.10566000000E+00 0.  1.
        -13    1    4    4    0    0  0.82651205860E+00 -0.40767171662E+01 -0.34220428729E+01  0.53874192797E+01  0.10566000000E+00 0. -1.
        -14    1    4    4    0    0  0.93442336270E+01 -0.36556231288E+02 -0.35676106018E+02  0.51927423282E+02  0.00000000000E+00 0.  1.
<mgrwt>
<rscale>  0 0.87037819E+02</rscale>
<asrwt>0</asrwt>
<pdfrwt beam="1">  1        2 0.15918275E-01 0.87037819E+02</pdfrwt>
<pdfrwt beam="2">  1       -1 0.28160042E-02 0.87037819E+02</pdfrwt>
<totfact> 0.14265262E+05</totfact>
</mgrwt>
</event>
<event>
 8    1  0.2561077E-016  0.7966247E+02  0.7818608E-02  0.1330012E+00
         -1   -1    0    0    0  501 -0.00000000000E+00  0.00000000000E+00  0.83016796336E+00  0.83018326229E+00  0.50400000000E-02 0.  1.
          2   -1    0    0  501    0  0.00000000000E+00 -0.00000000000E+00 -0.19110742770E+04  0.19110742770E+04  0.25500000000E-02 0. -1.
         24    2    1    2    0    0 -0.17763568394E-14  0.17763568394E-14 -0.19102441091E+04  0.19119044603E+04  0.79662469634E+02 0.  0.
         66    2    3    3    0    0 -0.11021374317E+02 -0.10646600411E+02 -0.18374436067E+04  0.18375085928E+04  0.19999998927E+01 0.  0.
        -13    1    3    3    0    0  0.11021374317E+02  0.10646600411E+02 -0.72800502380E+02  0.74395867512E+02  0.10566000000E+00 0.  1.
         13    1    4    4    0    0 -0.95002355602E+00 -0.65586500045E+00 -0.17045333381E+03  0.17045727580E+03  0.10566000000E+00 0. -1.
        -13    1    4    4    0    0 -0.23510786091E+01 -0.22373174556E+01 -0.45940417864E+03  0.45941565459E+03  0.10566000000E+00 0.  1.
         14    1    4    4    0    0 -0.77202721514E+01 -0.77534179551E+01 -0.12075860942E+04  0.12076356624E+04  0.00000000000E+00 0. -1.
<mgrwt>
<rscale>  0 0.79662470E+02</rscale>
<asrwt>0</asrwt>
<pdfrwt beam="1">  1        2 0.29400791E+00 0.79662470E+02</pdfrwt>
<pdfrwt beam="2">  1       -1 0.12772086E-03 0.79662470E+02</pdfrwt>
<totfact> 0.29205664E+05</totfact>
</mgrwt>
</event>
<event>
 8    1  0.2561077E-016  0.8519078E+02  0.7818608E-02  0.1314934E+00
          2   -1    0    0  501    0  0.00000000000E+00  0.00000000000E+00  0.26171990408E+02  0.26171990532E+02  0.25500000000E-02 0. -1.
         -1   -1    0    0    0  501 -0.00000000000E+00 -0.00000000000E+00 -0.69324771145E+02  0.69324771328E+02  0.50400000000E-02 0.  1.
         24    2    1    2    0    0  0.00000000000E+00 -0.35527136788E-14 -0.43152780737E+02  0.95496761860E+02  0.85190780255E+02 0.  0.
         66    2    3    3    0    0 -0.22752433855E+02  0.25488301624E+02  0.68817757778E+01  0.34909677629E+02  0.19999970674E+01 0.  0.
        -13    1    3    3    0    0  0.22752433855E+02 -0.25488301624E+02 -0.50034556515E+02  0.60587084232E+02  0.10566000000E+00 0.  1.
         13    1    4    4    0    0 -0.12908576264E+02  0.13383110929E+02  0.43939354119E+01  0.19106460472E+02  0.10566000000E+00 0. -1.
        -13    1    4    4    0    0 -0.17271051688E+01  0.21471962979E+01  0.35304204757E+00  0.27801343365E+01  0.10566000000E+00 0.  1.
         14    1    4    4    0    0 -0.81167524218E+01  0.99579943975E+01  0.21347983184E+01  0.13023082821E+02  0.00000000000E+00 0. -1.
<mgrwt>
<rscale>  0 0.85190780E+02</rscale>
<asrwt>0</asrwt>
<pdfrwt beam="1">  1        2 0.40264601E-02 0.85190780E+02</pdfrwt>
<pdfrwt beam="2">  1       -1 0.10665349E-01 0.85190780E+02</pdfrwt>
<totfact> 0.10956129E+05</totfact>
</mgrwt>
</event>
<event>
 8    1  0.2561077E-016  0.8118714E+02  0.7818608E-02  0.1325716E+00
          2   -1    0    0  501    0  0.00000000000E+00  0.00000000000E+00  0.70596784422E+02  0.70596784468E+02  0.25500000000E-02 0. -1.
         -1   -1    0    0    0  501 -0.00000000000E+00 -0.00000000000E+00 -0.23341541893E+02  0.23341542437E+02  0.50400000000E-02 0.  1.
         24    2    1    2    0    0 -0.17763568394E-14  0.00000000000E+00  0.47255242529E+02  0.93938326905E+02  0.81187137622E+02 0.  0.
         66    2    3    3    0    0  0.10226178872E+02  0.23709481159E+02  0.59847311092E+02  0.65210542690E+02  0.20000004655E+01 0.  0.
        -13    1    3    3    0    0 -0.10226178872E+02 -0.23709481159E+02 -0.12592068563E+02  0.28727784215E+02  0.10566000000E+00 0.  1.
         13    1    4    4    0    0  0.54004355680E+01  0.14448567933E+02  0.34903238037E+02  0.38159835025E+02  0.10566000000E+00 0. -1.
        -13    1    4    4    0    0  0.86909692610E+00  0.21466018731E+01  0.51264690151E+01  0.56262845349E+01  0.10566000000E+00 0. -1.
         14    1    4    4    0    0  0.39566463776E+01  0.71143113533E+01  0.19817604040E+02  0.21424423130E+02  0.00000000000E+00 0. -1.
<mgrwt>
<rscale>  0 0.81187138E+02</rscale>
<asrwt>0</asrwt>
<pdfrwt beam="1">  1        2 0.10861043E-01 0.81187138E+02</pdfrwt>
<pdfrwt beam="2">  1       -1 0.35910066E-02 0.81187138E+02</pdfrwt>
<totfact> 0.15547189E+05</totfact>
</mgrwt>
</event>
<event>
 8    1  0.2561077E-016  0.7995064E+02  0.7818608E-02  0.1329192E+00
         -1   -1    0    0    0  501 -0.00000000000E+00  0.00000000000E+00  0.64167628250E+01  0.64167648044E+01  0.50400000000E-02 0.  1.
          2   -1    0    0  501    0  0.00000000000E+00 -0.00000000000E+00 -0.24903928897E+03  0.24903928898E+03  0.25500000000E-02 0. -1.
         24    2    1    2    0    0  0.00000000000E+00 -0.22204460493E-15 -0.24262252614E+03  0.25545605379E+03  0.79950642422E+02 0.  0.
         66    2    3    3    0    0 -0.38925750747E+02 -0.18951146051E+01 -0.14946374899E+03  0.15447400362E+03  0.20000005774E+01 0.  0.
        -13    1    3    3    0    0  0.38925750747E+02  0.18951146051E+01 -0.93158777156E+02  0.10098205017E+03  0.10566000000E+00 0.  1.
         13    1    4    4    0    0 -0.16645645420E+02 -0.74830804169E+00 -0.64945311323E+02  0.67048803891E+02  0.10566000000E+00 0. -1.
        -13    1    4    4    0    0 -0.98069001228E+01 -0.26360861954E+00 -0.39795884816E+02  0.40987417482E+02  0.10566000000E+00 0.  1.
        -14    1    4    4    0    0 -0.12473205204E+02 -0.88319794391E+00 -0.44722552850E+02  0.46437782248E+02  0.00000000000E+00 0.  1.
<mgrwt>
<rscale>  0 0.79950642E+02</rscale>
<asrwt>0</asrwt>
<pdfrwt beam="1">  1        2 0.38313729E-01 0.79950642E+02</pdfrwt>
<pdfrwt beam="2">  1       -1 0.98719463E-03 0.79950642E+02</pdfrwt>
<totfact> 0.23874183E+05</totfact>
</mgrwt>
</event>
<event>
 8    1  0.2561077E-016  0.7998622E+02  0.7818608E-02  0.1329091E+00
          2   -1    0    0  501    0  0.00000000000E+00  0.00000000000E+00  0.23755046785E+03  0.23755046786E+03  0.25500000000E-02 0. -1.
         -1   -1    0    0    0  501 -0.00000000000E+00 -0.00000000000E+00 -0.67330900561E+01  0.67330919424E+01  0.50400000000E-02 0.  1.
         24    2    1    2    0    0  0.71054273576E-14 -0.35527136788E-14  0.23081737779E+03  0.24428355980E+03  0.79986221937E+02 0.  0.
         66    2    3    3    0    0 -0.28100162561E+02  0.15471658357E+02  0.18829653793E+03  0.19101983542E+03  0.19999951168E+01 0.  0.
        -13    1    3    3    0    0  0.28100162561E+02 -0.15471658357E+02  0.42520839862E+02  0.53263724380E+02  0.10566000000E+00 0.  1.
         13    1    4    4    0    0 -0.28959815969E+01  0.16598398811E+01  0.21359334342E+02  0.21618836819E+02  0.10566000000E+00 0. -1.
        -13    1    4    4    0    0 -0.10736320395E+02  0.63787047283E+01  0.68553578186E+02  0.69681853419E+02  0.10566000000E+00 0.  1.
        -14    1    4    4    0    0 -0.14467860569E+02  0.74331137479E+01  0.98383625402E+02  0.99719145186E+02  0.00000000000E+00 0.  1.
<mgrwt>
<rscale>  0 0.79986222E+02</rscale>
<asrwt>0</asrwt>
<pdfrwt beam="1">  1        2 0.36546226E-01 0.79986222E+02</pdfrwt>
<pdfrwt beam="2">  1       -1 0.10358601E-02 0.79986222E+02</pdfrwt>
<totfact> 0.23447291E+05</totfact>
</mgrwt>
</event>
<event>
 8    1  0.2561077E-016  0.8028316E+02  0.7818608E-02  0.1328250E+00
          2   -1    0    0  501    0  0.00000000000E+00  0.00000000000E+00  0.29825359163E+03  0.29825359164E+03  0.25500000000E-02 0. -1.
         -1   -1    0    0    0  501 -0.00000000000E+00 -0.00000000000E+00 -0.54026047667E+01  0.54026071175E+01  0.50400000000E-02 0.  1.
         24    2    1    2    0    0  0.00000000000E+00  0.17763568394E-14  0.29285098686E+03  0.30365619876E+03  0.80283164721E+02 0.  0.
         66    2    3    3    0    0 -0.36818916376E+02 -0.12651062944E+02  0.10991165239E+03  0.11662012400E+03  0.19999989037E+01 0.  0.
        -13    1    3    3    0    0  0.36818916376E+02  0.12651062944E+02  0.18293933448E+03  0.18703607475E+03  0.10566000000E+00 0.  1.
         13    1    4    4    0    0 -0.78346514033E+01 -0.25085147281E+01  0.22359597572E+02  0.23825137489E+02  0.10566000000E+00 0. -1.
        -13    1    4    4    0    0 -0.62407950972E+01 -0.21010637388E+01  0.16882713940E+02  0.18121787613E+02  0.10566000000E+00 0.  1.
         14    1    4    4    0    0 -0.22743469875E+02 -0.80414844776E+01  0.70669340874E+02  0.74673198901E+02  0.00000000000E+00 0. -1.
<mgrwt>
<rscale>  0 0.80283165E+02</rscale>
<asrwt>0</asrwt>
<pdfrwt beam="1">  1        2 0.45885178E-01 0.80283165E+02</pdfrwt>
<pdfrwt beam="2">  1       -1 0.83116997E-03 0.80283165E+02</pdfrwt>
<totfact> 0.25206010E+05</totfact>
</mgrwt>
</event>
<event>
 8    1  0.2561077E-016  0.8068449E+02  0.7818608E-02  0.1327120E+00
         -1   -1    0    0    0  501 -0.00000000000E+00  0.00000000000E+00  0.53233566543E+02  0.53233566782E+02  0.50400000000E-02 0.  1.
          2   -1    0    0  501    0  0.00000000000E+00 -0.00000000000E+00 -0.30572754950E+02  0.30572755056E+02  0.25500000000E-02 0. -1.
         24    2    1    2    0    0 -0.17763568394E-14  0.17763568394E-14  0.22660811594E+02  0.83806321838E+02  0.80684491682E+02 0.  0.
         66    2    3    3    0    0 -0.89519244417E+01  0.10712040541E+02 -0.27949473448E+02  0.31305875366E+02  0.20000006505E+01 0.  0.
        -13    1    3    3    0    0  0.89519244417E+01 -0.10712040541E+02  0.50610285042E+02  0.52500446473E+02  0.10566000000E+00 0.  1.
         13    1    4    4    0    0 -0.30552253634E+01  0.46179086004E+01 -0.11516584679E+02  0.12778981515E+02  0.10566000000E+00 0. -1.
        -13    1    4    4    0    0 -0.25678278276E+01  0.24792647465E+01 -0.81132054372E+01  0.88642969229E+01  0.10566000000E+00 0.  1.
        -14    1    4    4    0    0 -0.33288712507E+01  0.36148671941E+01 -0.83196833323E+01  0.96625969275E+01  0.00000000000E+00 0.  1.
<mgrwt>
<rscale>  0 0.80684492E+02</rscale>
<asrwt>0</asrwt>
<pdfrwt beam="1">  1        2 0.47035008E-02 0.80684492E+02</pdfrwt>
<pdfrwt beam="2">  1       -1 0.81897795E-02 0.80684492E+02</pdfrwt>
<totfact> 0.13186973E+05</totfact>
</mgrwt>
</event>
<event>
 8    1  0.2561077E-016  0.8014186E+02  0.7818608E-02  0.1328649E+00
         -1   -1    0    0    0  501 -0.00000000000E+00  0.00000000000E+00  0.91071726094E+02  0.91071726234E+02  0.50400000000E-02 0.  1.
          2   -1    0    0  501    0  0.00000000000E+00 -0.00000000000E+00 -0.17630932973E+02  0.17630933158E+02  0.25500000000E-02 0. -1.
         24    2    1    2    0    0  0.71054273576E-14  0.88817841970E-15  0.73440793121E+02  0.10870265939E+03  0.80141862123E+02 0.  0.
         66    2    3    3    0    0 -0.39359813442E+02 -0.44868891974E+01  0.28793916369E+02  0.49014454053E+02  0.19999993455E+01 0.  0.
        -13    1    3    3    0    0  0.39359813442E+02  0.44868891974E+01  0.44646876752E+02  0.59688205339E+02  0.10566000000E+00 0.  1.
         13    1    4    4    0    0 -0.14425276791E+02 -0.14716282707E+01  0.10500674469E+02  0.17903341270E+02  0.10566000000E+00 0. -1.
        -13    1    4    4    0    0 -0.12910456767E+02 -0.23139447727E+01  0.92767487243E+01  0.16065598814E+02  0.10566000000E+00 0.  1.
        -14    1    4    4    0    0 -0.12024079884E+02 -0.70131615403E+00  0.90164931752E+01  0.15045513969E+02  0.00000000000E+00 0.  1.
<mgrwt>
<rscale>  0 0.80141862E+02</rscale>
<asrwt>0</asrwt>
<pdfrwt beam="1">  1        2 0.27124513E-02 0.80141862E+02</pdfrwt>
<pdfrwt beam="2">  1       -1 0.14011034E-01 0.80141862E+02</pdfrwt>
<totfact> 0.12036572E+05</totfact>
</mgrwt>
</event>
<event>
 8    1  0.2561077E-016  0.7973749E+02  0.7818608E-02  0.1329798E+00
         -1   -1    0    0    0  501 -0.00000000000E+00  0.00000000000E+00  0.89447290624E+00  0.89448710533E+00  0.50400000000E-02 0.  1.
          2   -1    0    0  501    0  0.00000000000E+00 -0.00000000000E+00 -0.17770288390E+04  0.17770288390E+04  0.25500000000E-02 0. -1.
         24    2    1    2    0    0  0.00000000000E+00  0.88817841970E-15 -0.17761343661E+04  0.17779233261E+04  0.79737488652E+02 0.  0.
         66    2    3    3    0    0 -0.99643669315E+01 -0.67391786957E+01 -0.17355680357E+04  0.17356108756E+04  0.19999999882E+01 0.  0.
        -13    1    3    3    0    0  0.99643669315E+01  0.67391786957E+01 -0.40566330384E+02  0.42312450446E+02  0.10566000000E+00 0.  1.
         13    1    4    4    0    0 -0.98865909061E+00 -0.27581446384E+00 -0.12836679188E+03  0.12837093885E+03  0.10566000000E+00 0. -1.
        -13    1    4    4    0    0 -0.87233279637E+01 -0.60670719597E+01 -0.15650615495E+04  0.15650976234E+04  0.10566000000E+00 0.  1.
        -14    1    4    4    0    0 -0.25237987723E+00 -0.39629227218E+00 -0.42139694296E+02  0.42142313398E+02  0.00000000000E+00 0.  1.
<mgrwt>
<rscale>  0 0.79737489E+02</rscale>
<asrwt>0</asrwt>
<pdfrwt beam="1">  1        2 0.27338623E+00 0.79737489E+02</pdfrwt>
<pdfrwt beam="2">  1       -1 0.13761373E-03 0.79737489E+02</pdfrwt>
<totfact> 0.30744982E+05</totfact>
</mgrwt>
</event>
<event>
 8    1  0.2561077E-016  0.8111490E+02  0.7818608E-02  0.1325917E+00
          2   -1    0    0  501    0  0.00000000000E+00  0.00000000000E+00  0.26570307344E+03  0.26570307346E+03  0.25500000000E-02 0. -1.
         -1   -1    0    0    0  501 -0.00000000000E+00 -0.00000000000E+00 -0.61907688758E+01  0.61907709273E+01  0.50400000000E-02 0.  1.
         24    2    1    2    0    0 -0.88817841970E-15  0.00000000000E+00  0.25951230457E+03  0.27189384438E+03  0.81114896236E+02 0.  0.
         66    2    3    3    0    0 -0.52723489825E+01 -0.33558745310E+02  0.20395137471E+03  0.20677076751E+03  0.20000001825E+01 0.  0.
        -13    1    3    3    0    0  0.52723489825E+01  0.33558745310E+02  0.55560929861E+02  0.65123076875E+02  0.10566000000E+00 0.  1.
         13    1    4    4    0    0 -0.71380688462E+00 -0.71913647028E+01  0.45657305922E+02  0.46225815241E+02  0.10566000000E+00 0. -1.
        -13    1    4    4    0    0 -0.26549388558E+01 -0.12073158783E+02  0.71256950002E+02  0.72321324317E+02  0.10566000000E+00 0.  1.
        -14    1    4    4    0    0 -0.19036032421E+01 -0.14294221824E+02  0.87037118782E+02  0.88223627951E+02  0.00000000000E+00 0.  1.
<mgrwt>
<rscale>  0 0.81114896E+02</rscale>
<asrwt>0</asrwt>
<pdfrwt beam="1">  1        2 0.40877390E-01 0.81114896E+02</pdfrwt>
<pdfrwt beam="2">  1       -1 0.95242629E-03 0.81114896E+02</pdfrwt>
<totfact> 0.23526343E+05</totfact>
</mgrwt>
</event>
<event>
 8    1  0.2561077E-016  0.7973007E+02  0.7818608E-02  0.1329819E+00
          2   -1    0    0  501    0  0.00000000000E+00  0.00000000000E+00  0.25115494761E+02  0.25115494891E+02  0.25500000000E-02 0. -1.
         -1   -1    0    0    0  501 -0.00000000000E+00 -0.00000000000E+00 -0.63276519027E+02  0.63276519228E+02  0.50400000000E-02 0.  1.
         24    2    1    2    0    0  0.17763568394E-14  0.00000000000E+00 -0.38161024266E+02  0.88392014118E+02  0.79730072036E+02 0.  0.
         66    2    3    3    0    0  0.10694817853E+02  0.19583248825E+02  0.17498262396E+02  0.28426606430E+02  0.20000006921E+01 0.  0.
        -13    1    3    3    0    0 -0.10694817853E+02 -0.19583248825E+02 -0.55659286662E+02  0.59965407689E+02  0.10566000000E+00 0.  1.
         13    1    4    4    0    0  0.24519365072E+01  0.47994468903E+01  0.47145001927E+01  0.71613098795E+01  0.10566000000E+00 0. -1.
        -13    1    4    4    0    0  0.14157064715E+01  0.37836478285E+01  0.32838976100E+01  0.52072414244E+01  0.10566000000E+00 0.  1.
        -14    1    4    4    0    0  0.68271748745E+01  0.11000154107E+02  0.94998645934E+01  0.16058055126E+02  0.00000000000E+00 0.  1.
<mgrwt>
<rscale>  0 0.79730072E+02</rscale>
<asrwt>0</asrwt>
<pdfrwt beam="1">  1        2 0.38639223E-02 0.79730072E+02</pdfrwt>
<pdfrwt beam="2">  1       -1 0.97348491E-02 0.79730072E+02</pdfrwt>
<totfact> 0.13117059E+05</totfact>
</mgrwt>
</event>
<event>
 8    1  0.2561077E-016  0.7945414E+02  0.7818608E-02  0.1330608E+00
         -1   -1    0    0    0  501 -0.00000000000E+00  0.00000000000E+00  0.42341167162E+01  0.42341197158E+01  0.50400000000E-02 0.  1.
          2   -1    0    0  501    0  0.00000000000E+00 -0.00000000000E+00 -0.37274352812E+03  0.37274352813E+03  0.25500000000E-02 0. -1.
         24    2    1    2    0    0  0.00000000000E+00  0.00000000000E+00 -0.36850941140E+03  0.37697764784E+03  0.79454142002E+02 0.  0.
         66    2    3    3    0    0  0.10676099345E+02  0.28183276517E+02 -0.30699470267E+03  0.30847694181E+03  0.19999973315E+01 0.  0.
        -13    1    3    3    0    0 -0.10676099345E+02 -0.28183276517E+02 -0.61514708735E+02  0.68500706035E+02  0.10566000000E+00 0.  1.
         13    1    4    4    0    0  0.72946820006E+01  0.19201585573E+02 -0.20764815342E+03  0.20866164012E+03  0.10566000000E+00 0. -1.
        -13    1    4    4    0    0  0.23949725651E+01  0.67975177955E+01 -0.69536956546E+02  0.69909524612E+02  0.10566000000E+00 0.  1.
        -14    1    4    4    0    0  0.98644477892E+00  0.21841731481E+01 -0.29809592704E+02  0.29905777081E+02  0.00000000000E+00 0.  1.
<mgrwt>
<rscale>  0 0.79454142E+02</rscale>
<asrwt>0</asrwt>
<pdfrwt beam="1">  1        2 0.57345132E-01 0.79454142E+02</pdfrwt>
<pdfrwt beam="2">  1       -1 0.65140310E-03 0.79454142E+02</pdfrwt>
<totfact> 0.28056769E+05</totfact>
</mgrwt>
</event>
<event>
 8    1  0.2561077E-016  0.7861589E+02  0.7818608E-02  0.1333026E+00
          2   -1    0    0  501    0  0.00000000000E+00  0.00000000000E+00  0.23489238903E+02  0.23489239042E+02  0.25500000000E-02 0. -1.
         -1   -1    0    0    0  501 -0.00000000000E+00 -0.00000000000E+00 -0.65779678817E+02  0.65779679010E+02  0.50400000000E-02 0.  1.
         24    2    1    2    0    0  0.00000000000E+00  0.00000000000E+00 -0.42290439914E+02  0.89268918052E+02  0.78615891664E+02 0.  0.
         66    2    3    3    0    0 -0.12460030914E+02 -0.36161903465E+02 -0.10991539845E+02  0.39846575512E+02  0.19999998187E+01 0.  0.
        -13    1    3    3    0    0  0.12460030914E+02  0.36161903465E+02 -0.31298900068E+02  0.49422342540E+02  0.10566000000E+00 0.  1.
         13    1    4    4    0    0 -0.70328108987E+01 -0.21596799799E+02 -0.62536663025E+01  0.23558473995E+02  0.10566000000E+00 0. -1.
        -13    1    4    4    0    0 -0.16420095849E+01 -0.46129056386E+01 -0.20287202726E+01  0.53011285485E+01  0.10566000000E+00 0.  1.
        -14    1    4    4    0    0 -0.37852104305E+01 -0.99521980271E+01 -0.27091532702E+01  0.10986972969E+02  0.00000000000E+00 0.  1.
<mgrwt>
<rscale>  0 0.78615892E+02</rscale>
<asrwt>0</asrwt>
<pdfrwt beam="1">  1        2 0.36137291E-02 0.78615892E+02</pdfrwt>
<pdfrwt beam="2">  1       -1 0.10119951E-01 0.78615892E+02</pdfrwt>
<totfact> 0.13472375E+05</totfact>
</mgrwt>
</event>
<event>
 8    1  0.2561077E-016  0.7186264E+02  0.7818608E-02  0.1353871E+00
         -1   -1    0    0    0  501 -0.00000000000E+00  0.00000000000E+00  0.63606179371E+01  0.63606199339E+01  0.50400000000E-02 0.  1.
          2   -1    0    0  501    0  0.00000000000E+00 -0.00000000000E+00 -0.20297704628E+03  0.20297704629E+03  0.25500000000E-02 0. -1.
         24    2    1    2    0    0  0.35527136788E-14  0.35527136788E-14 -0.19661642834E+03  0.20933766623E+03  0.71862637081E+02 0.  0.
         66    2    3    3    0    0 -0.92420742411E+01 -0.16420722440E+02 -0.18741025403E+03  0.18836575951E+03  0.19999951464E+01 0.  0.
        -13    1    3    3    0    0  0.92420742411E+01  0.16420722440E+02 -0.92061743136E+01  0.20971906715E+02  0.10566000000E+00 0.  1.
         13    1    4    4    0    0 -0.35975448193E+01 -0.71948374230E+01 -0.81011264007E+02  0.81409729605E+02  0.10566000000E+00 0. -1.
        -13    1    4    4    0    0 -0.21038582809E+01 -0.28774664098E+01 -0.29690133657E+02  0.29903532120E+02  0.10566000000E+00 0.  1.
        -14    1    4    4    0    0 -0.35406711410E+01 -0.63484186072E+01 -0.76708856362E+02  0.77052497788E+02  0.00000000000E+00 0.  1.
<mgrwt>
<rscale>  0 0.71862637E+02</rscale>
<asrwt>0</asrwt>
<pdfrwt beam="1">  1        2 0.31227233E-01 0.71862637E+02</pdfrwt>
<pdfrwt beam="2">  1       -1 0.97855692E-03 0.71862637E+02</pdfrwt>
<totfact> 0.29372083E+05</totfact>
</mgrwt>
</event>
<event>
 8    1  0.2561077E-016  0.7964390E+02  0.7818608E-02  0.1330065E+00
          2   -1    0    0  501    0  0.00000000000E+00  0.00000000000E+00  0.28782471090E+02  0.28782471203E+02  0.25500000000E-02 0. -1.
         -1   -1    0    0    0  501 -0.00000000000E+00 -0.00000000000E+00 -0.55095603207E+02  0.55095603438E+02  0.50400000000E-02 0.  1.
         24    2    1    2    0    0  0.00000000000E+00 -0.88817841970E-15 -0.26313132117E+02  0.83878074641E+02  0.79643897969E+02 0.  0.
         66    2    3    3    0    0  0.17957710842E+02  0.40587864051E+01  0.23993037108E+02  0.30308727511E+02  0.20000019774E+01 0.  0.
        -13    1    3    3    0    0 -0.17957710842E+02 -0.40587864051E+01 -0.50306169225E+02  0.53569347130E+02  0.10566000000E+00 0.  1.
         13    1    4    4    0    0  0.11626534386E+02  0.24061421271E+01  0.14508853698E+02  0.18747901788E+02  0.10566000000E+00 0. -1.
        -13    1    4    4    0    0  0.12753670824E+01  0.63435742816E+00  0.24933335469E+01  0.28734729428E+01  0.10566000000E+00 0.  1.
        -14    1    4    4    0    0  0.50558093736E+01  0.10182868498E+01  0.69908498627E+01  0.86873527806E+01  0.00000000000E+00 0.  1.
<mgrwt>
<rscale>  0 0.79643898E+02</rscale>
<asrwt>0</asrwt>
<pdfrwt beam="1">  1        2 0.44280725E-02 0.79643898E+02</pdfrwt>
<pdfrwt beam="2">  1       -1 0.84762467E-02 0.79643898E+02</pdfrwt>
<totfact> 0.13513988E+05</totfact>
</mgrwt>
</event>
<event>
 8    1  0.2561077E-016  0.8128973E+02  0.7818608E-02  0.1325431E+00
         -1   -1    0    0    0  501 -0.00000000000E+00  0.00000000000E+00  0.32826382409E+01  0.32826421100E+01  0.50400000000E-02 0.  1.
          2   -1    0    0  501    0  0.00000000000E+00 -0.00000000000E+00 -0.50325501976E+03  0.50325501976E+03  0.25500000000E-02 0. -1.
         24    2    1    2    0    0  0.00000000000E+00  0.00000000000E+00 -0.49997238151E+03  0.50653766187E+03  0.81289732546E+02 0.  0.
         66    2    3    3    0    0 -0.15178647805E+02  0.23365717179E+02 -0.43431829448E+03  0.43521572698E+03  0.20000003239E+01 0.  0.
        -13    1    3    3    0    0  0.15178647805E+02 -0.23365717179E+02 -0.65654087031E+02  0.71321934889E+02  0.10566000000E+00 0.  1.
         13    1    4    4    0    0 -0.50816942857E+01  0.86688069252E+01 -0.16372702149E+03  0.16403511990E+03  0.10566000000E+00 0. -1.
        -13    1    4    4    0    0 -0.48399634361E+01  0.64189698799E+01 -0.12871236211E+03  0.12896321858E+03  0.10566000000E+00 0.  1.
         14    1    4    4    0    0 -0.52569900828E+01  0.82779403740E+01 -0.14187891088E+03  0.14221738851E+03  0.00000000000E+00 0. -1.
<mgrwt>
<rscale>  0 0.81289733E+02</rscale>
<asrwt>0</asrwt>
<pdfrwt beam="1">  1        2 0.77423788E-01 0.81289733E+02</pdfrwt>
<pdfrwt beam="2">  1       -1 0.50502197E-03 0.81289733E+02</pdfrwt>
<totfact> 0.29267620E+05</totfact>
</mgrwt>
</event>
<event>
 8    1  0.2561077E-016  0.8538160E+02  0.7818608E-02  0.1314438E+00
         -1   -1    0    0    0  501 -0.00000000000E+00  0.00000000000E+00  0.14503954385E+02  0.14503955260E+02  0.50400000000E-02 0.  1.
          2   -1    0    0  501    0  0.00000000000E+00 -0.00000000000E+00 -0.12565567684E+03  0.12565567686E+03  0.25500000000E-02 0. -1.
         24    2    1    2    0    0 -0.44408920985E-15 -0.17763568394E-14 -0.11115172245E+03  0.14015963212E+03  0.85381596803E+02 0.  0.
         66    2    3    3    0    0  0.29189610535E+01  0.11636407632E+02 -0.12282184233E+03  0.12342257209E+03  0.20000078993E+01 0.  0.
        -13    1    3    3    0    0 -0.29189610535E+01 -0.11636407632E+02  0.11670119884E+02  0.16737060027E+02  0.10566000000E+00 0.  1.
         13    1    4    4    0    0  0.96600177744E+00  0.18425721334E+01 -0.17461716631E+02  0.17585532214E+02  0.10566000000E+00 0. -1.
        -13    1    4    4    0    0  0.58615503029E+00  0.13454391765E+01 -0.16848749236E+02  0.16912873769E+02  0.10566000000E+00 0.  1.
         14    1    4    4    0    0  0.13668042458E+01  0.84483963218E+01 -0.88511376468E+02  0.88924166111E+02  0.00000000000E+00 0. -1.
<mgrwt>
<rscale>  0 0.85381597E+02</rscale>
<asrwt>0</asrwt>
<pdfrwt beam="1">  1        2 0.19331642E-01 0.85381597E+02</pdfrwt>
<pdfrwt beam="2">  1       -1 0.22313778E-02 0.85381597E+02</pdfrwt>
<totfact> 0.15920962E+05</totfact>
</mgrwt>
</event>
<event>
 8    1  0.2561077E-016  0.7293547E+02  0.7818608E-02  0.1350386E+00
          2   -1    0    0  501    0  0.00000000000E+00  0.00000000000E+00  0.68328881764E+03  0.68328881764E+03  0.25500000000E-02 0. -1.
         -1   -1    0    0    0  501 -0.00000000000E+00 -0.00000000000E+00 -0.19463122859E+01  0.19463188115E+01  0.50400000000E-02 0.  1.
         24    2    1    2    0    0  0.35527136788E-14 -0.17763568394E-14  0.68134250535E+03  0.68523513645E+03  0.72935468957E+02 0.  0.
         66    2    3    3    0    0 -0.23421200301E+02  0.13084823294E+02  0.57261147226E+03  0.57324311020E+03  0.19999997320E+01 0.  0.
        -13    1    3    3    0    0  0.23421200301E+02 -0.13084823294E+02  0.10873103309E+03  0.11199202625E+03  0.10566000000E+00 0.  1.
         13    1    4    4    0    0 -0.12161842871E+02  0.66319133787E+01  0.30595563730E+03  0.30626909060E+03  0.10566000000E+00 0. -1.
        -13    1    4    4    0    0 -0.85396873217E+01  0.54180431529E+01  0.20347127210E+03  0.20372248571E+03  0.10566000000E+00 0.  1.
         14    1    4    4    0    0 -0.27196701084E+01  0.10348667622E+01  0.63184562860E+02  0.63251533882E+02  0.00000000000E+00 0. -1.
<mgrwt>
<rscale>  0 0.72935469E+02</rscale>
<asrwt>0</asrwt>
<pdfrwt beam="1">  1        2 0.10512142E+00 0.72935469E+02</pdfrwt>
<pdfrwt beam="2">  1       -1 0.29943298E-03 0.72935469E+02</pdfrwt>
<totfact> 0.42252984E+05</totfact>
</mgrwt>
</event>
<event>
 8    1  0.2561077E-016  0.7860588E+02  0.7818608E-02  0.1333055E+00
         -1   -1    0    0    0  501 -0.00000000000E+00  0.00000000000E+00  0.19907939669E+01  0.19908003466E+01  0.50400000000E-02 0.  1.
          2   -1    0    0  501    0  0.00000000000E+00 -0.00000000000E+00 -0.77593097192E+03  0.77593097193E+03  0.25500000000E-02 0. -1.
         24    2    1    2    0    0  0.35527136788E-14  0.00000000000E+00 -0.77394017796E+03  0.77792177227E+03  0.78605882241E+02 0.  0.
         66    2    3    3    0    0 -0.28621299268E+02  0.27782677739E+01 -0.65199820751E+03  0.65263508957E+03  0.19999982473E+01 0.  0.
        -13    1    3    3    0    0  0.28621299268E+02 -0.27782677739E+01 -0.12194197044E+03  0.12528668271E+03  0.10566000000E+00 0.  1.
         13    1    4    4    0    0 -0.69069660343E+01  0.78922594322E+00 -0.17446971567E+03  0.17460819542E+03  0.10566000000E+00 0.  1.
        -13    1    4    4    0    0 -0.21680662604E+02  0.19462520538E+01 -0.47614211696E+03  0.47663945046E+03  0.10566000000E+00 0. -1.
         14    1    4    4    0    0 -0.33670629282E-01  0.42789776921E-01 -0.13863748881E+01  0.13874436950E+01  0.00000000000E+00 0. -1.
<mgrwt>
<rscale>  0 0.78605882E+02</rscale>
<asrwt>0</asrwt>
<pdfrwt beam="1">  1        2 0.11937375E+00 0.78605882E+02</pdfrwt>
<pdfrwt beam="2">  1       -1 0.30627711E-03 0.78605882E+02</pdfrwt>
<totfact> 0.35773389E+05</totfact>
</mgrwt>
</event>
<event>
 8    1  0.2561077E-016  0.8113622E+02  0.7818608E-02  0.1325858E+00
         -1   -1    0    0    0  501 -0.00000000000E+00  0.00000000000E+00  0.15365008533E+02  0.15365009360E+02  0.50400000000E-02 0.  1.
          2   -1    0    0  501    0  0.00000000000E+00 -0.00000000000E+00 -0.10711164565E+03  0.10711164568E+03  0.25500000000E-02 0. -1.
         24    2    1    2    0    0  0.00000000000E+00  0.00000000000E+00 -0.91746637115E+02  0.12247665504E+03  0.81136216374E+02 0.  0.
         66    2    3    3    0    0  0.93883129769E+01  0.33502488428E+02 -0.77319757461E+02  0.84810978727E+02  0.20000168549E+01 0.  0.
        -13    1    3    3    0    0 -0.93883129769E+01 -0.33502488428E+02 -0.14426879655E+02  0.37665676312E+02  0.10566000000E+00 0.  1.
         13    1    4    4    0    0  0.37594103324E+01  0.12076561421E+02 -0.28869414282E+02  0.31518736441E+02  0.10566000000E+00 0. -1.
        -13    1    4    4    0    0  0.29668833332E+01  0.11014584867E+02 -0.26569343847E+02  0.28914782949E+02  0.10566000000E+00 0.  1.
        -14    1    4    4    0    0  0.26620193113E+01  0.10411342140E+02 -0.21880999331E+02  0.24377459337E+02  0.00000000000E+00 0.  1.
<mgrwt>
<rscale>  0 0.81136216E+02</rscale>
<asrwt>0</asrwt>
<pdfrwt beam="1">  1        2 0.16478714E-01 0.81136216E+02</pdfrwt>
<pdfrwt beam="2">  1       -1 0.23638476E-02 0.81136216E+02</pdfrwt>
<totfact> 0.17404981E+05</totfact>
</mgrwt>
</event>
<event>
 8    1  0.2561077E-016  0.7849968E+02  0.7818608E-02  0.1333364E+00
          2   -1    0    0  501    0  0.00000000000E+00  0.00000000000E+00  0.68482256211E+02  0.68482256258E+02  0.25500000000E-02 0. -1.
         -1   -1    0    0    0  501 -0.00000000000E+00 -0.00000000000E+00 -0.22495609605E+02  0.22495610170E+02  0.50400000000E-02 0.  1.
         24    2    1    2    0    0  0.00000000000E+00  0.00000000000E+00  0.45986646606E+02  0.90977866428E+02  0.78499684800E+02 0.  0.
         66    2    3    3    0    0 -0.37920119263E+02  0.90372006044E+01  0.17964572918E+02  0.42968969153E+02  0.19999975616E+01 0.  0.
        -13    1    3    3    0    0  0.37920119263E+02 -0.90372006044E+01  0.28022073688E+02  0.48008897274E+02  0.10566000000E+00 0.  1.
         13    1    4    4    0    0 -0.26755095990E+02  0.69680561972E+01  0.12170645802E+02  0.30208024628E+02  0.10566000000E+00 0. -1.
        -13    1    4    4    0    0 -0.49525837005E+01  0.69247521555E+00  0.23668498563E+01  0.55336018571E+01  0.10566000000E+00 0. -1.
         14    1    4    4    0    0 -0.62124395725E+01  0.13766691916E+01  0.34270772601E+01  0.72273426687E+01  0.00000000000E+00 0. -1.
<mgrwt>
<rscale>  0 0.78499685E+02</rscale>
<asrwt>0</asrwt>
<pdfrwt beam="1">  1        2 0.10535732E-01 0.78499685E+02</pdfrwt>
<pdfrwt beam="2">  1       -1 0.34608631E-02 0.78499685E+02</pdfrwt>
<totfact> 0.16904695E+05</totfact>
</mgrwt>
</event>
<event>
 8    1  0.2561077E-016  0.7980444E+02  0.7818608E-02  0.1329607E+00
         -1   -1    0    0    0  501 -0.00000000000E+00  0.00000000000E+00  0.74942665090E+02  0.74942665259E+02  0.50400000000E-02 0.  1.
          2   -1    0    0  501    0  0.00000000000E+00 -0.00000000000E+00 -0.21245403207E+02  0.21245403360E+02  0.25500000000E-02 0. -1.
         24    2    1    2    0    0 -0.17763568394E-14  0.00000000000E+00  0.53697261883E+02  0.96188068619E+02  0.79804439794E+02 0.  0.
         66    2    3    3    0    0 -0.13720720763E+02 -0.23330639835E+02 -0.84315594674E+01  0.28419502603E+02  0.19999999560E+01 0.  0.
        -13    1    3    3    0    0  0.13720720763E+02  0.23330639835E+02  0.62128821350E+02  0.67768566015E+02  0.10566000000E+00 0.  1.
         13    1    4    4    0    0 -0.93714870462E+01 -0.16129106332E+02 -0.53445844584E+01  0.19404859896E+02  0.10566000000E+00 0. -1.
        -13    1    4    4    0    0 -0.38494435203E+01 -0.59299447870E+01 -0.28715736831E+01  0.76314847865E+01  0.10566000000E+00 0.  1.
        -14    1    4    4    0    0 -0.49979019636E+00 -0.12715887157E+01 -0.21540132587E+00  0.13831579206E+01  0.00000000000E+00 0.  1.
<mgrwt>
<rscale>  0 0.79804440E+02</rscale>
<asrwt>0</asrwt>
<pdfrwt beam="1">  1        2 0.32685236E-02 0.79804440E+02</pdfrwt>
<pdfrwt beam="2">  1       -1 0.11529641E-01 0.79804440E+02</pdfrwt>
<totfact> 0.12655897E+05</totfact>
</mgrwt>
</event>
<event>
 8    1  0.2561077E-016  0.8166885E+02  0.7818608E-02  0.1324381E+00
          2   -1    0    0  501    0  0.00000000000E+00  0.00000000000E+00  0.13568974784E+04  0.13568974784E+04  0.25500000000E-02 0. -1.
         -1   -1    0    0    0  501 -0.00000000000E+00 -0.00000000000E+00 -0.12288644834E+01  0.12288748188E+01  0.50400000000E-02 0.  1.
         24    2    1    2    0    0  0.00000000000E+00  0.00000000000E+00  0.13556686139E+04  0.13581263532E+04  0.81668846908E+02 0.  0.
         66    2    3    3    0    0  0.19904103759E+02 -0.11008048501E+02  0.12417120241E+04  0.12419219384E+04  0.20000025462E+01 0.  0.
        -13    1    3    3    0    0 -0.19904103759E+02  0.11008048501E+02  0.11395658983E+03  0.11620441475E+03  0.10566000000E+00 0.  1.
         13    1    4    4    0    0  0.23015714599E+01 -0.97387601296E+00  0.14334683645E+03  0.14336865888E+03  0.10566000000E+00 0. -1.
        -13    1    4    4    0    0  0.67691655447E+01 -0.40632319141E+01  0.47058284319E+03  0.47064907832E+03  0.10566000000E+00 0.  1.
        -14    1    4    4    0    0  0.10833366755E+02 -0.59709405738E+01  0.62778234442E+03  0.62790420124E+03  0.00000000000E+00 0.  1.
<mgrwt>
<rscale>  0 0.81668847E+02</rscale>
<asrwt>0</asrwt>
<pdfrwt beam="1">  1        2 0.20875392E+00 0.81668847E+02</pdfrwt>
<pdfrwt beam="2">  1       -1 0.18905645E-03 0.81668847E+02</pdfrwt>
<totfact> 0.32501908E+05</totfact>
</mgrwt>
</event>
<event>
 8    1  0.2561077E-016  0.7991134E+02  0.7818608E-02  0.1329303E+00
          2   -1    0    0  501    0  0.00000000000E+00  0.00000000000E+00  0.88524407309E+01  0.88524410981E+01  0.25500000000E-02 0. -1.
         -1   -1    0    0    0  501 -0.00000000000E+00 -0.00000000000E+00 -0.18034069731E+03  0.18034069738E+03  0.50400000000E-02 0.  1.
         24    2    1    2    0    0 -0.71054273576E-14 -0.44408920985E-15 -0.17148825658E+03  0.18919313848E+03  0.79911335259E+02 0.  0.
         66    2    3    3    0    0  0.37465541283E+02  0.18900101546E+01 -0.53403786422E+02  0.65293210398E+02  0.19999994544E+01 0.  0.
        -13    1    3    3    0    0 -0.37465541283E+02 -0.18900101546E+01 -0.11808447016E+03  0.12389992808E+03  0.10566000000E+00 0.  1.
         13    1    4    4    0    0  0.24445362647E+02  0.11049331807E+01 -0.34178030318E+02  0.42035051478E+02  0.10566000000E+00 0. -1.
        -13    1    4    4    0    0  0.11418525787E+02  0.34150816883E+00 -0.16934766846E+02  0.20427844995E+02  0.10566000000E+00 0.  1.
        -14    1    4    4    0    0  0.16016528493E+01  0.44356880504E+00 -0.22909892572E+01  0.28303139245E+01  0.00000000000E+00 0.  1.
<mgrwt>
<rscale>  0 0.79911335E+02</rscale>
<asrwt>0</asrwt>
<pdfrwt beam="1">  1        2 0.13619141E-02 0.79911335E+02</pdfrwt>
<pdfrwt beam="2">  1       -1 0.27744720E-01 0.79911335E+02</pdfrwt>
<totfact> 0.10295836E+05</totfact>
</mgrwt>
</event>
<event>
 8    1  0.2561077E-016  0.7726730E+02  0.7818608E-02  0.1336990E+00
          2   -1    0    0  501    0  0.00000000000E+00  0.00000000000E+00  0.35398159752E+02  0.35398159843E+02  0.25500000000E-02 0. -1.
         -1   -1    0    0    0  501 -0.00000000000E+00 -0.00000000000E+00 -0.42164870299E+02  0.42164870600E+02  0.50400000000E-02 0.  1.
         24    2    1    2    0    0  0.00000000000E+00 -0.17763568394E-14 -0.67667105473E+01  0.77563030444E+02  0.77267297869E+02 0.  0.
         66    2    3    3    0    0 -0.22004826557E+02 -0.11581602009E+02  0.26260587535E+02  0.36221048397E+02  0.19999980893E+01 0.  0.
        -13    1    3    3    0    0  0.22004826557E+02  0.11581602009E+02 -0.33027298082E+02  0.41341982047E+02  0.10566000000E+00 0.  1.
         13    1    4    4    0    0 -0.13684029651E+02 -0.69965662640E+01  0.15678918961E+02  0.21955506617E+02  0.10566000000E+00 0. -1.
        -13    1    4    4    0    0 -0.24111406320E+01 -0.11345244876E+01  0.36961738914E+01  0.45578076343E+01  0.10566000000E+00 0.  1.
        -14    1    4    4    0    0 -0.59096562739E+01 -0.34505112575E+01  0.68854946830E+01  0.97077341457E+01  0.00000000000E+00 0.  1.
<mgrwt>
<rscale>  0 0.77267298E+02</rscale>
<asrwt>0</asrwt>
<pdfrwt beam="1">  1        2 0.54458708E-02 0.77267298E+02</pdfrwt>
<pdfrwt beam="2">  1       -1 0.64869031E-02 0.77267298E+02</pdfrwt>
<totfact> 0.15312113E+05</totfact>
</mgrwt>
</event>
<event>
 8    1  0.2561077E-016  0.7705937E+02  0.7818608E-02  0.1337610E+00
          2   -1    0    0  501    0  0.00000000000E+00  0.00000000000E+00  0.10511728718E+03  0.10511728721E+03  0.25500000000E-02 0. -1.
         -1   -1    0    0    0  501 -0.00000000000E+00 -0.00000000000E+00 -0.14122669485E+02  0.14122670384E+02  0.50400000000E-02 0.  1.
         24    2    1    2    0    0  0.00000000000E+00  0.00000000000E+00  0.90994617693E+02  0.11923995759E+03  0.77059373458E+02 0.  0.
         66    2    3    3    0    0  0.11020172456E+02 -0.21808423867E+02  0.91573222119E+02  0.94798241213E+02  0.19999938112E+01 0.  0.
        -13    1    3    3    0    0 -0.11020172456E+02  0.21808423867E+02 -0.57860442615E+00  0.24441716381E+02  0.10566000000E+00 0.  1.
         13    1    4    4    0    0  0.21547396327E+01 -0.52173737999E+01  0.20523589693E+02  0.21285976374E+02  0.10566000000E+00 0.  1.
        -13    1    4    4    0    0  0.62719155517E+01 -0.11886470593E+02  0.48115885377E+02  0.49957729106E+02  0.10566000000E+00 0. -1.
        -14    1    4    4    0    0  0.25935172719E+01 -0.47045794737E+01  0.22933747049E+02  0.23554535733E+02  0.00000000000E+00 0.  1.
<mgrwt>
<rscale>  0 0.77059373E+02</rscale>
<asrwt>0</asrwt>
<pdfrwt beam="1">  1        2 0.16171891E-01 0.77059373E+02</pdfrwt>
<pdfrwt beam="2">  1       -1 0.21727184E-02 0.77059373E+02</pdfrwt>
<totfact> 0.19867838E+05</totfact>
</mgrwt>
</event>
<event>
 8    1  0.2561077E-016  0.8139693E+02  0.7818608E-02  0.1325133E+00
         -1   -1    0    0    0  501 -0.00000000000E+00  0.00000000000E+00  0.71213633463E+02  0.71213633642E+02  0.50400000000E-02 0.  1.
          2   -1    0    0  501    0  0.00000000000E+00 -0.00000000000E+00 -0.23259102301E+02  0.23259102440E+02  0.25500000000E-02 0. -1.
         24    2    1    2    0    0  0.00000000000E+00  0.44408920985E-15  0.47954531163E+02  0.94472736082E+02  0.81396933627E+02 0.  0.
         66    2    3    3    0    0  0.35790726278E+02 -0.32681914588E+01  0.18875390207E+01  0.36044694082E+02  0.20000012382E+01 0.  0.
        -13    1    3    3    0    0 -0.35790726278E+02  0.32681914588E+01  0.46066992142E+02  0.58428042000E+02  0.10566000000E+00 0.  1.
         13    1    4    4    0    0  0.33619850511E+01 -0.43588362996E+00  0.38558101452E+00  0.34136160852E+01  0.10566000000E+00 0. -1.
        -13    1    4    4    0    0  0.21566718924E+02 -0.20140731332E+01  0.17883464201E+01  0.21734516390E+02  0.10566000000E+00 0.  1.
         14    1    4    4    0    0  0.10862022303E+02 -0.81823469568E+00 -0.28638841395E+00  0.10896561607E+02  0.00000000000E+00 0. -1.
<mgrwt>
<rscale>  0 0.81396934E+02</rscale>
<asrwt>0</asrwt>
<pdfrwt beam="1">  1        2 0.35783235E-02 0.81396934E+02</pdfrwt>
<pdfrwt beam="2">  1       -1 0.10955944E-01 0.81396934E+02</pdfrwt>
<totfact> 0.12180669E+05</totfact>
</mgrwt>
</event>
<event>
 8    1  0.2561077E-016  0.8110678E+02  0.7818608E-02  0.1325940E+00
         -1   -1    0    0    0  501 -0.00000000000E+00  0.00000000000E+00  0.29749441773E+02  0.29749442200E+02  0.50400000000E-02 0.  1.
          2   -1    0    0  501    0  0.00000000000E+00 -0.00000000000E+00 -0.55280946059E+02  0.55280946117E+02  0.25500000000E-02 0. -1.
         24    2    1    2    0    0 -0.71054273576E-14  0.17763568394E-14 -0.25531504285E+02  0.85030388318E+02  0.81106776698E+02 0.  0.
         66    2    3    3    0    0 -0.37136106430E+02  0.15597713991E+02 -0.80624165459E+01  0.41126410445E+02  0.19999982475E+01 0.  0.
        -13    1    3    3    0    0  0.37136106430E+02 -0.15597713991E+02 -0.17469087739E+02  0.43903977873E+02  0.10566000000E+00 0.  1.
         13    1    4    4    0    0 -0.24002874988E+02  0.97168201277E+01 -0.47693801363E+01  0.26330832725E+02  0.10566000000E+00 0. -1.
        -13    1    4    4    0    0 -0.62334021329E+00  0.11557176358E+00 -0.51137908160E-01  0.64473946311E+00  0.10566000000E+00 0. -1.
         14    1    4    4    0    0 -0.12509891229E+02  0.57653220999E+01 -0.32418985014E+01  0.14150838257E+02  0.00000000000E+00 0. -1.
<mgrwt>
<rscale>  0 0.81106777E+02</rscale>
<asrwt>0</asrwt>
<pdfrwt beam="1">  1        2 0.85047609E-02 0.81106777E+02</pdfrwt>
<pdfrwt beam="2">  1       -1 0.45768373E-02 0.81106777E+02</pdfrwt>
<totfact> 0.14715624E+05</totfact>
</mgrwt>
</event>
<event>
 8    1  0.2561077E-016  0.8218973E+02  0.7818608E-02  0.1322950E+00
         -1   -1    0    0    0  501 -0.00000000000E+00  0.00000000000E+00  0.15406922572E+02  0.15406923397E+02  0.50400000000E-02 0.  1.
          2   -1    0    0  501    0  0.00000000000E+00 -0.00000000000E+00 -0.10961226469E+03  0.10961226472E+03  0.25500000000E-02 0. -1.
         24    2    1    2    0    0  0.00000000000E+00 -0.17763568394E-14 -0.94205342114E+02  0.12501918811E+03  0.82189725109E+02 0.  0.
         66    2    3    3    0    0 -0.23504891130E+02 -0.15033308909E+02 -0.92973628073E+02  0.97090554645E+02  0.20000001470E+01 0.  0.
        -13    1    3    3    0    0  0.23504891130E+02  0.15033308909E+02 -0.12317140409E+01  0.27928633466E+02  0.10566000000E+00 0.  1.
         13    1    4    4    0    0 -0.11795068663E+02 -0.71240028704E+01 -0.43892692666E+02  0.46004942073E+02  0.10566000000E+00 0. -1.
        -13    1    4    4    0    0 -0.11214266421E+02 -0.73613776063E+01 -0.47021618816E+02  0.48897785755E+02  0.10566000000E+00 0.  1.
        -14    1    4    4    0    0 -0.49555604595E+00 -0.54792843220E+00 -0.20593165909E+01  0.21878268174E+01  0.00000000000E+00 0.  1.
<mgrwt>
<rscale>  0 0.82189725E+02</rscale>
<asrwt>0</asrwt>
<pdfrwt beam="1">  1        2 0.16863425E-01 0.82189725E+02</pdfrwt>
<pdfrwt beam="2">  1       -1 0.23702959E-02 0.82189725E+02</pdfrwt>
<totfact> 0.16926321E+05</totfact>
</mgrwt>
</event>
<event>
 8    1  0.2561077E-016  0.7922881E+02  0.7818608E-02  0.1331254E+00
          2   -1    0    0  501    0  0.00000000000E+00  0.00000000000E+00  0.31623069219E+03  0.31623069220E+03  0.25500000000E-02 0. -1.
         -1   -1    0    0    0  501 -0.00000000000E+00 -0.00000000000E+00 -0.49625182792E+01  0.49625208386E+01  0.50400000000E-02 0.  1.
         24    2    1    2    0    0  0.00000000000E+00 -0.35527136788E-14  0.31126817391E+03  0.32119321304E+03  0.79228807971E+02 0.  0.
         66    2    3    3    0    0 -0.13674877146E+02  0.27016595483E+02  0.25912157666E+03  0.26089248779E+03  0.19999998173E+01 0.  0.
        -13    1    3    3    0    0  0.13674877146E+02 -0.27016595483E+02  0.52146597255E+02  0.60300725251E+02  0.10566000000E+00 0.  1.
         13    1    4    4    0    0 -0.82404530246E+00  0.17575846323E+01  0.17348898823E+02  0.17457480025E+02  0.10566000000E+00 0.  1.
        -13    1    4    4    0    0 -0.12687486355E+01  0.29546369262E+01  0.23144718659E+02  0.23367258468E+02  0.10566000000E+00 0. -1.
         14    1    4    4    0    0 -0.11582083208E+02  0.22304373925E+02  0.21862795917E+03  0.22006774930E+03  0.00000000000E+00 0. -1.
<mgrwt>
<rscale>  0 0.79228808E+02</rscale>
<asrwt>0</asrwt>
<pdfrwt beam="1">  1        2 0.48650881E-01 0.79228808E+02</pdfrwt>
<pdfrwt beam="2">  1       -1 0.76346447E-03 0.79228808E+02</pdfrwt>
<totfact> 0.26652458E+05</totfact>
</mgrwt>
</event>
<event>
 8    1  0.2561077E-016  0.7461788E+02  0.7818608E-02  0.1345058E+00
         -1   -1    0    0    0  501 -0.00000000000E+00  0.00000000000E+00  0.16609214142E+01  0.16609290610E+01  0.50400000000E-02 0.  1.
          2   -1    0    0  501    0  0.00000000000E+00 -0.00000000000E+00 -0.83806111451E+03  0.83806111451E+03  0.25500000000E-02 0. -1.
         24    2    1    2    0    0  0.00000000000E+00 -0.35527136788E-14 -0.83640019309E+03  0.83972204357E+03  0.74617876241E+02 0.  0.
         66    2    3    3    0    0 -0.87130154646E+01 -0.18987036821E+02 -0.76600332988E+03  0.76629075787E+03  0.20000007157E+01 0.  0.
        -13    1    3    3    0    0  0.87130154646E+01  0.18987036821E+02 -0.70396863218E+02  0.73431285708E+02  0.10566000000E+00 0.  1.
         13    1    4    4    0    0 -0.17320173016E+01 -0.45612148084E+01 -0.18135741535E+03  0.18142306312E+03  0.10566000000E+00 0. -1.
        -13    1    4    4    0    0 -0.52896897397E+01 -0.93912476159E+01 -0.40335652304E+03  0.40350052316E+03  0.10566000000E+00 0.  1.
        -14    1    4    4    0    0 -0.16913084233E+01 -0.50345743967E+01 -0.18128939149E+03  0.18136717159E+03  0.00000000000E+00 0.  1.
<mgrwt>
<rscale>  0 0.74617876E+02</rscale>
<asrwt>0</asrwt>
<pdfrwt beam="1">  1        2 0.12893214E+00 0.74617876E+02</pdfrwt>
<pdfrwt beam="2">  1       -1 0.25552763E-03 0.74617876E+02</pdfrwt>
<totfact> 0.41462249E+05</totfact>
</mgrwt>
</event>
<event>
 8    1  0.2561077E-016  0.7753050E+02  0.7818608E-02  0.1336209E+00
          2   -1    0    0  501    0  0.00000000000E+00  0.00000000000E+00  0.17995375768E+03  0.17995375770E+03  0.25500000000E-02 0. -1.
         -1   -1    0    0    0  501 -0.00000000000E+00 -0.00000000000E+00 -0.83507263901E+01  0.83507279110E+01  0.50400000000E-02 0.  1.
         24    2    1    2    0    0  0.00000000000E+00  0.00000000000E+00  0.17160303129E+03  0.18830448561E+03  0.77530503368E+02 0.  0.
         66    2    3    3    0    0  0.93011934948E+01 -0.37599379787E+02  0.84116731342E+02  0.92627479995E+02  0.19999994222E+01 0.  0.
        -13    1    3    3    0    0 -0.93011934948E+01  0.37599379787E+02  0.87486299946E+02  0.95677005613E+02  0.10566000000E+00 0.  1.
         13    1    4    4    0    0  0.23391038540E+01 -0.78227184351E+01  0.18506361612E+02  0.20227775822E+02  0.10566000000E+00 0. -1.
        -13    1    4    4    0    0  0.19074949991E+00 -0.17437378254E+01  0.32855891391E+01  0.37260256309E+01  0.10566000000E+00 0.  1.
        -14    1    4    4    0    0  0.67713401409E+01 -0.28032923526E+02  0.62324780591E+02  0.68673678541E+02  0.00000000000E+00 0.  1.
<mgrwt>
<rscale>  0 0.77530503E+02</rscale>
<asrwt>0</asrwt>
<pdfrwt beam="1">  1        2 0.27685192E-01 0.77530503E+02</pdfrwt>
<pdfrwt beam="2">  1       -1 0.12847273E-02 0.77530503E+02</pdfrwt>
<totfact> 0.23107937E+05</totfact>
</mgrwt>
</event>
<event>
 8    1  0.2561077E-016  0.7883601E+02  0.7818608E-02  0.1332387E+00
          2   -1    0    0  501    0  0.00000000000E+00  0.00000000000E+00  0.69058632863E+03  0.69058632864E+03  0.25500000000E-02 0. -1.
         -1   -1    0    0    0  501 -0.00000000000E+00 -0.00000000000E+00 -0.22499391156E+01  0.22499447606E+01  0.50400000000E-02 0.  1.
         24    2    1    2    0    0  0.00000000000E+00  0.00000000000E+00  0.68833638952E+03  0.69283627340E+03  0.78836010823E+02 0.  0.
         66    2    3    3    0    0 -0.17465395621E+02  0.17449497521E+02  0.61415610729E+03  0.61465539055E+03  0.19999999538E+01 0.  0.
        -13    1    3    3    0    0  0.17465395621E+02 -0.17449497521E+02  0.74180282226E+02  0.78180882849E+02  0.10566000000E+00 0.  1.
         13    1    4    4    0    0 -0.14111092407E+01  0.15641961886E+01  0.64040163003E+02  0.64074890405E+02  0.10566000000E+00 0. -1.
        -13    1    4    4    0    0 -0.30730321203E+00  0.40968221809E+00  0.10364388289E+02  0.10377571172E+02  0.10566000000E+00 0.  1.
         14    1    4    4    0    0 -0.15746983168E+02  0.15475619114E+02  0.53975155600E+03  0.54020292897E+03  0.00000000000E+00 0. -1.
<mgrwt>
<rscale>  0 0.78836011E+02</rscale>
<asrwt>0</asrwt>
<pdfrwt beam="1">  1        2 0.10624396E+00 0.78836011E+02</pdfrwt>
<pdfrwt beam="2">  1       -1 0.34614521E-03 0.78836011E+02</pdfrwt>
<totfact> 0.34641286E+05</totfact>
</mgrwt>
</event>
<event>
 8    1  0.2561077E-016  0.8059874E+02  0.7818608E-02  0.1327361E+00
         -1   -1    0    0    0  501 -0.00000000000E+00  0.00000000000E+00  0.27666491329E+01  0.27666537236E+01  0.50400000000E-02 0.  1.
          2   -1    0    0  501    0  0.00000000000E+00 -0.00000000000E+00 -0.58700539925E+03  0.58700539926E+03  0.25500000000E-02 0. -1.
         24    2    1    2    0    0  0.17763568394E-14  0.00000000000E+00 -0.58423875012E+03  0.58977205298E+03  0.80598742775E+02 0.  0.
         66    2    3    3    0    0  0.13036617113E+02  0.36811452732E+02 -0.36436586152E+03  0.36645807057E+03  0.20000005818E+01 0.  0.
        -13    1    3    3    0    0 -0.13036617113E+02 -0.36811452732E+02 -0.21987288860E+03  0.22331398242E+03  0.10566000000E+00 0.  1.
         13    1    4    4    0    0  0.40128511528E+00  0.12852098074E+01 -0.11062875621E+02  0.11145006731E+02  0.10566000000E+00 0. -1.
        -13    1    4    4    0    0  0.67939986189E+01  0.21061104001E+02 -0.21138628775E+03  0.21254153084E+03  0.10566000000E+00 0.  1.
         14    1    4    4    0    0  0.58413333793E+01  0.14465138924E+02 -0.14191669815E+03  0.14277153300E+03  0.00000000000E+00 0. -1.
<mgrwt>
<rscale>  0 0.80598743E+02</rscale>
<asrwt>0</asrwt>
<pdfrwt beam="1">  1        2 0.90308424E-01 0.80598743E+02</pdfrwt>
<pdfrwt beam="2">  1       -1 0.42563915E-03 0.80598743E+02</pdfrwt>
<totfact> 0.31351458E+05</totfact>
</mgrwt>
</event>
<event>
 8    1  0.2561077E-016  0.8293865E+02  0.7818608E-02  0.1320913E+00
          2   -1    0    0  501    0  0.00000000000E+00  0.00000000000E+00  0.65137316564E+03  0.65137316565E+03  0.25500000000E-02 0. -1.
         -1   -1    0    0    0  501 -0.00000000000E+00 -0.00000000000E+00 -0.26401203058E+01  0.26401251164E+01  0.50400000000E-02 0.  1.
         24    2    1    2    0    0  0.00000000000E+00 -0.35527136788E-14  0.64873304534E+03  0.65401329077E+03  0.82938654342E+02 0.  0.
         66    2    3    3    0    0  0.20109581150E+02  0.27573960800E+02  0.50998670515E+03  0.51113125324E+03  0.20000097991E+01 0.  0.
        -13    1    3    3    0    0 -0.20109581150E+02 -0.27573960800E+02  0.13874634019E+03  0.14288203753E+03  0.10566000000E+00 0.  1.
         13    1    4    4    0    0  0.14354331844E+02  0.19762227767E+02  0.37478957265E+03  0.37558464748E+03  0.10566000000E+00 0. -1.
        -13    1    4    4    0    0  0.53158026279E+01  0.68796992331E+01  0.12001607800E+03  0.12033062022E+03  0.10566000000E+00 0.  1.
        -14    1    4    4    0    0  0.43944667779E+00  0.93203379974E+00  0.15181054491E+02  0.15215985537E+02  0.00000000000E+00 0.  1.
<mgrwt>
<rscale>  0 0.82938654E+02</rscale>
<asrwt>0</asrwt>
<pdfrwt beam="1">  1        2 0.10021142E+00 0.82938654E+02</pdfrwt>
<pdfrwt beam="2">  1       -1 0.40617205E-03 0.82938654E+02</pdfrwt>
<totfact> 0.29925952E+05</totfact>
</mgrwt>
</event>
<event>
 8    1  0.2561077E-016  0.8038467E+02  0.7818608E-02  0.1327963E+00
         -1   -1    0    0    0  501 -0.00000000000E+00  0.00000000000E+00  0.53496728793E+01  0.53496752535E+01  0.50400000000E-02 0.  1.
          2   -1    0    0  501    0  0.00000000000E+00 -0.00000000000E+00 -0.30196676275E+03  0.30196676276E+03  0.25500000000E-02 0. -1.
         24    2    1    2    0    0  0.00000000000E+00  0.00000000000E+00 -0.29661708987E+03  0.30731643802E+03  0.80384669375E+02 0.  0.
         66    2    3    3    0    0 -0.66622944957E+00  0.23003726472E+02 -0.27426012832E+03  0.27523123602E+03  0.20000001823E+01 0.  0.
        -13    1    3    3    0    0  0.66622944957E+00 -0.23003726472E+02 -0.22356961549E+02  0.32085201994E+02  0.10566000000E+00 0.  1.
         13    1    4    4    0    0 -0.40522953156E+00  0.11827030879E+02 -0.13971081027E+03  0.14021114271E+03  0.10566000000E+00 0.  1.
        -13    1    4    4    0    0 -0.64322470391E+00  0.53447651706E+01 -0.69959606745E+02  0.70166501927E+02  0.10566000000E+00 0. -1.
        -14    1    4    4    0    0  0.38222478591E+00  0.58319304228E+01 -0.64589711311E+02  0.64853591385E+02  0.00000000000E+00 0.  1.
<mgrwt>
<rscale>  0 0.80384669E+02</rscale>
<asrwt>0</asrwt>
<pdfrwt beam="1">  1        2 0.46456412E-01 0.80384669E+02</pdfrwt>
<pdfrwt beam="2">  1       -1 0.82302702E-03 0.80384669E+02</pdfrwt>
<totfact> 0.25235445E+05</totfact>
</mgrwt>
</event>
<event>
 8    1  0.2561077E-016  0.7998951E+02  0.7818608E-02  0.1329081E+00
          2   -1    0    0  501    0  0.00000000000E+00  0.00000000000E+00  0.10781291692E+04  0.10781291692E+04  0.25500000000E-02 0. -1.
         -1   -1    0    0    0  501 -0.00000000000E+00 -0.00000000000E+00 -0.14836586646E+01  0.14836672250E+01  0.50400000000E-02 0.  1.
         24    2    1    2    0    0  0.00000000000E+00  0.00000000000E+00  0.10766455106E+04  0.10796128365E+04  0.79989506963E+02 0.  0.
         66    2    3    3    0    0 -0.21725544750E+02  0.84355092251E+01  0.97692808339E+03  0.97720808288E+03  0.20000006934E+01 0.  0.
        -13    1    3    3    0    0  0.21725544750E+02 -0.84355092251E+01  0.99717427168E+02  0.10240475358E+03  0.10566000000E+00 0.  1.
         13    1    4    4    0    0 -0.77123692525E+01  0.29955964420E+01  0.34279721970E+03  0.34289706798E+03  0.10566000000E+00 0. -1.
        -13    1    4    4    0    0 -0.81632178530E+01  0.32043070978E+01  0.40225407897E+03  0.40234967494E+03  0.10566000000E+00 0.  1.
        -14    1    4    4    0    0 -0.58499576441E+01  0.22356056853E+01  0.23187678473E+03  0.23196133995E+03  0.00000000000E+00 0.  1.
<mgrwt>
<rscale>  0 0.79989507E+02</rscale>
<asrwt>0</asrwt>
<pdfrwt beam="1">  1        2 0.16586575E+00 0.79989507E+02</pdfrwt>
<pdfrwt beam="2">  1       -1 0.22825621E-03 0.79989507E+02</pdfrwt>
<totfact> 0.35280414E+05</totfact>
</mgrwt>
</event>
<event>
 8    1  0.2561077E-016  0.8075770E+02  0.7818608E-02  0.1326915E+00
         -1   -1    0    0    0  501 -0.00000000000E+00  0.00000000000E+00  0.21876275800E+01  0.21876333858E+01  0.50400000000E-02 0.  1.
          2   -1    0    0  501    0  0.00000000000E+00 -0.00000000000E+00 -0.74530484748E+03  0.74530484749E+03  0.25500000000E-02 0. -1.
         24    2    1    2    0    0  0.00000000000E+00  0.00000000000E+00 -0.74311721990E+03  0.74749248087E+03  0.80757702082E+02 0.  0.
         66    2    3    3    0    0  0.31821338328E+02 -0.82409079408E+01 -0.58845047694E+03  0.58937125308E+03  0.20000017491E+01 0.  0.
        -13    1    3    3    0    0 -0.31821338328E+02  0.82409079408E+01 -0.15466674296E+03  0.15812122779E+03  0.10566000000E+00 0.  1.
         13    1    4    4    0    0  0.11525000526E+02 -0.26520506515E+01 -0.21317447126E+03  0.21350228423E+03  0.10566000000E+00 0. -1.
        -13    1    4    4    0    0  0.76810023972E+01 -0.17563683814E+01 -0.15174879458E+03  0.15195325087E+03  0.10566000000E+00 0.  1.
         14    1    4    4    0    0  0.12615335405E+02 -0.38324889079E+01 -0.22352721109E+03  0.22391571798E+03  0.00000000000E+00 0. -1.
<mgrwt>
<rscale>  0 0.80757702E+02</rscale>
<asrwt>0</asrwt>
<pdfrwt beam="1">  1        2 0.11466208E+00 0.80757702E+02</pdfrwt>
<pdfrwt beam="2">  1       -1 0.33655913E-03 0.80757702E+02</pdfrwt>
<totfact> 0.33088567E+05</totfact>
</mgrwt>
</event>
<event>
 8    1  0.2561077E-016  0.8430956E+02  0.7818608E-02  0.1317248E+00
         -1   -1    0    0    0  501 -0.00000000000E+00  0.00000000000E+00  0.18288464772E+02  0.18288465466E+02  0.50400000000E-02 0.  1.
          2   -1    0    0  501    0  0.00000000000E+00 -0.00000000000E+00 -0.97166470576E+02  0.97166470609E+02  0.25500000000E-02 0. -1.
         24    2    1    2    0    0  0.35527136788E-14  0.00000000000E+00 -0.78878005804E+02  0.11545493608E+03  0.84309563304E+02 0.  0.
         66    2    3    3    0    0 -0.31414679329E+02 -0.27550039494E+02 -0.32069601554E+02  0.52710018943E+02  0.19999999161E+01 0.  0.
        -13    1    3    3    0    0  0.31414679329E+02  0.27550039494E+02 -0.46808404250E+02  0.62744917133E+02  0.10566000000E+00 0.  1.
         13    1    4    4    0    0 -0.12389977105E+02 -0.10369378052E+02 -0.11464097750E+02  0.19810912021E+02  0.10566000000E+00 0. -1.
        -13    1    4    4    0    0 -0.18812420057E+01 -0.14256050519E+01 -0.18286023450E+01  0.29877034357E+01  0.10566000000E+00 0.  1.
        -14    1    4    4    0    0 -0.17143460218E+02 -0.15755056390E+02 -0.18776901459E+02  0.29911403486E+02  0.00000000000E+00 0.  1.
<mgrwt>
<rscale>  0 0.84309563E+02</rscale>
<asrwt>0</asrwt>
<pdfrwt beam="1">  1        2 0.14948688E-01 0.84309563E+02</pdfrwt>
<pdfrwt beam="2">  1       -1 0.28136101E-02 0.84309563E+02</pdfrwt>
<totfact> 0.15270423E+05</totfact>
</mgrwt>
</event>
<event>
 8    1  0.2561077E-016  0.7958742E+02  0.7818608E-02  0.1330226E+00
          2   -1    0    0  501    0  0.00000000000E+00  0.00000000000E+00  0.44442202911E+03  0.44442202912E+03  0.25500000000E-02 0. -1.
         -1   -1    0    0    0  501 -0.00000000000E+00 -0.00000000000E+00 -0.35631417580E+01  0.35631453225E+01  0.50400000000E-02 0.  1.
         24    2    1    2    0    0  0.00000000000E+00  0.00000000000E+00  0.44085888735E+03  0.44798517444E+03  0.79587423382E+02 0.  0.
         66    2    3    3    0    0  0.35161610494E+02  0.14298819439E+02  0.28734528814E+03  0.28984842540E+03  0.20000001003E+01 0.  0.
        -13    1    3    3    0    0 -0.35161610494E+02 -0.14298819439E+02  0.15351359921E+03  0.15813674903E+03  0.10566000000E+00 0.  1.
         13    1    4    4    0    0  0.27608228699E+02  0.10541006545E+02  0.22244992655E+03  0.22440434064E+03  0.10566000000E+00 0. -1.
        -13    1    4    4    0    0  0.11141408819E+01  0.59765913914E+00  0.84250234393E+01  0.85200170387E+01  0.10566000000E+00 0.  1.
         14    1    4    4    0    0  0.64392409133E+01  0.31601537548E+01  0.56470338157E+02  0.56924067730E+02  0.00000000000E+00 0. -1.
<mgrwt>
<rscale>  0 0.79587423E+02</rscale>
<asrwt>0</asrwt>
<pdfrwt beam="1">  1        2 0.68372560E-01 0.79587423E+02</pdfrwt>
<pdfrwt beam="2">  1       -1 0.54817642E-03 0.79587423E+02</pdfrwt>
<totfact> 0.29693079E+05</totfact>
</mgrwt>
</event>
<event>
 8    1  0.2561077E-016  0.7949828E+02  0.7818608E-02  0.1330481E+00
         -1   -1    0    0    0  501 -0.00000000000E+00  0.00000000000E+00  0.32277896675E+01  0.32277936023E+01  0.50400000000E-02 0.  1.
          2   -1    0    0  501    0  0.00000000000E+00 -0.00000000000E+00 -0.48949687861E+03  0.48949687862E+03  0.25500000000E-02 0. -1.
         24    2    1    2    0    0  0.00000000000E+00  0.00000000000E+00 -0.48626908894E+03  0.49272467222E+03  0.79498275153E+02 0.  0.
         66    2    3    3    0    0 -0.35876433926E+02  0.15223383324E+02 -0.29094320999E+03  0.29354866949E+03  0.20000020112E+01 0.  0.
        -13    1    3    3    0    0  0.35876433926E+02 -0.15223383324E+02 -0.19532587895E+03  0.19917600273E+03  0.10566000000E+00 0.  1.
         13    1    4    4    0    0 -0.49763305912E+01  0.19392254241E+01 -0.37357198729E+02  0.37737195474E+02  0.10566000000E+00 0. -1.
        -13    1    4    4    0    0 -0.19078796128E+02  0.89700843031E+01 -0.15708939640E+03  0.15849779967E+03  0.10566000000E+00 0.  1.
        -14    1    4    4    0    0 -0.11821307206E+02  0.43140735970E+01 -0.96496614861E+02  0.97313674346E+02  0.00000000000E+00 0.  1.
<mgrwt>
<rscale>  0 0.79498275E+02</rscale>
<asrwt>0</asrwt>
<pdfrwt beam="1">  1        2 0.75307153E-01 0.79498275E+02</pdfrwt>
<pdfrwt beam="2">  1       -1 0.49658372E-03 0.79498275E+02</pdfrwt>
<totfact> 0.30744749E+05</totfact>
</mgrwt>
</event>
<event>
 8    1  0.2561077E-016  0.7741546E+02  0.7818608E-02  0.1336550E+00
          2   -1    0    0  501    0  0.00000000000E+00  0.00000000000E+00  0.15919994472E+03  0.15919994474E+03  0.25500000000E-02 0. -1.
         -1   -1    0    0    0  501 -0.00000000000E+00 -0.00000000000E+00 -0.94113606993E+01  0.94113620488E+01  0.50400000000E-02 0.  1.
         24    2    1    2    0    0 -0.88817841970E-15  0.00000000000E+00  0.14978858402E+03  0.16861130679E+03  0.77415456300E+02 0.  0.
         66    2    3    3    0    0 -0.61211866458E+01 -0.38123424743E+02  0.80014213106E+02  0.88865846475E+02  0.19999826625E+01 0.  0.
        -13    1    3    3    0    0  0.61211866458E+01  0.38123424743E+02  0.69774370914E+02  0.79745460314E+02  0.10566000000E+00 0.  1.
         13    1    4    4    0    0 -0.22919558289E+00 -0.27221825651E+01  0.64650388340E+01  0.70193090609E+01  0.10566000000E+00 0. -1.
        -13    1    4    4    0    0 -0.27824345639E+01 -0.14334214450E+02  0.28952833945E+02  0.32426677342E+02  0.10566000000E+00 0.  1.
         14    1    4    4    0    0 -0.31095564990E+01 -0.21067027728E+02  0.44596340327E+02  0.49419860071E+02  0.00000000000E+00 0. -1.
<mgrwt>
<rscale>  0 0.77415456E+02</rscale>
<asrwt>0</asrwt>
<pdfrwt beam="1">  1        2 0.24492300E-01 0.77415456E+02</pdfrwt>
<pdfrwt beam="2">  1       -1 0.14479017E-02 0.77415456E+02</pdfrwt>
<totfact> 0.22274871E+05</totfact>
</mgrwt>
</event>
<event>
 8    1  0.2561077E-016  0.8249186E+02  0.7818608E-02  0.1322125E+00
          2   -1    0    0  501    0  0.00000000000E+00  0.00000000000E+00  0.71090492404E+02  0.71090492449E+02  0.25500000000E-02 0. -1.
         -1   -1    0    0    0  501 -0.00000000000E+00 -0.00000000000E+00 -0.23930440517E+02  0.23930441047E+02  0.50400000000E-02 0.  1.
         24    2    1    2    0    0  0.17763568394E-14  0.71054273576E-14  0.47160051887E+02  0.95020933497E+02  0.82491862075E+02 0.  0.
         66    2    3    3    0    0  0.15799445775E+02  0.37731984924E+02  0.29455634748E+02  0.50447592548E+02  0.20000005934E+01 0.  0.
        -13    1    3    3    0    0 -0.15799445775E+02 -0.37731984924E+02  0.17704417139E+02  0.44573340949E+02  0.10566000000E+00 0.  1.
         13    1    4    4    0    0  0.32284370801E+01  0.96450694675E+01  0.70901077459E+01  0.12398829094E+02  0.10566000000E+00 0. -1.
        -13    1    4    4    0    0  0.66459661307E+01  0.14058351463E+02  0.11536888330E+02  0.19362775318E+02  0.10566000000E+00 0.  1.
         14    1    4    4    0    0  0.59250425638E+01  0.14028563994E+02  0.10828638672E+02  0.18685988135E+02  0.00000000000E+00 0. -1.
<mgrwt>
<rscale>  0 0.82491862E+02</rscale>
<asrwt>0</asrwt>
<pdfrwt beam="1">  1        2 0.10936999E-01 0.82491862E+02</pdfrwt>
<pdfrwt beam="2">  1       -1 0.36816064E-02 0.82491862E+02</pdfrwt>
<totfact> 0.14914545E+05</totfact>
</mgrwt>
</event>
<event>
 8    1  0.2561077E-016  0.7929874E+02  0.7818608E-02  0.1331053E+00
         -1   -1    0    0    0  501 -0.00000000000E+00  0.00000000000E+00  0.19919073098E+02  0.19919073736E+02  0.50400000000E-02 0.  1.
          2   -1    0    0  501    0  0.00000000000E+00 -0.00000000000E+00 -0.78922965363E+02  0.78922965404E+02  0.25500000000E-02 0. -1.
         24    2    1    2    0    0  0.00000000000E+00  0.00000000000E+00 -0.59003892264E+02  0.98842039140E+02  0.79298735167E+02 0.  0.
         66    2    3    3    0    0 -0.16298247525E+02  0.13082713727E+02 -0.71481434750E+02  0.74500911365E+02  0.20000023595E+01 0.  0.
        -13    1    3    3    0    0  0.16298247525E+02 -0.13082713727E+02  0.12477542486E+02  0.24341127775E+02  0.10566000000E+00 0.  1.
         13    1    4    4    0    0 -0.97130388482E+01  0.82744474838E+01 -0.43597035020E+02  0.45426008315E+02  0.10566000000E+00 0.  1.
        -13    1    4    4    0    0 -0.37990672978E+01  0.32781967404E+01 -0.18386573833E+02  0.19059295568E+02  0.10566000000E+00 0. -1.
         14    1    4    4    0    0 -0.27861413788E+01  0.15300695025E+01 -0.94978258965E+01  0.10015607482E+02  0.00000000000E+00 0. -1.
<mgrwt>
<rscale>  0 0.79298735E+02</rscale>
<asrwt>0</asrwt>
<pdfrwt beam="1">  1        2 0.12141995E-01 0.79298735E+02</pdfrwt>
<pdfrwt beam="2">  1       -1 0.30644729E-02 0.79298735E+02</pdfrwt>
<totfact> 0.17037343E+05</totfact>
</mgrwt>
</event>
<event>
 8    1  0.2561077E-016  0.7957148E+02  0.7818608E-02  0.1330272E+00
          2   -1    0    0  501    0  0.00000000000E+00  0.00000000000E+00  0.54499193281E+02  0.54499193341E+02  0.25500000000E-02 0. -1.
         -1   -1    0    0    0  501 -0.00000000000E+00 -0.00000000000E+00 -0.29044556963E+02  0.29044557400E+02  0.50400000000E-02 0.  1.
         24    2    1    2    0    0  0.17763568394E-14  0.00000000000E+00  0.25454636318E+02  0.83543750741E+02  0.79571475905E+02 0.  0.
         66    2    3    3    0    0  0.89673556820E+01 -0.58297190462E+01  0.52941970402E+02  0.54048602137E+02  0.20000176919E+01 0.  0.
        -13    1    3    3    0    0 -0.89673556820E+01  0.58297190462E+01 -0.27487334084E+02  0.29495148604E+02  0.10566000000E+00 0.  1.
         13    1    4    4    0    0  0.15926468651E+01 -0.14688665811E+01  0.13650939003E+02  0.13822206509E+02  0.10566000000E+00 0.  1.
        -13    1    4    4    0    0  0.52850771620E+01 -0.27788980735E+01  0.25674255376E+02  0.26359682628E+02  0.10566000000E+00 0. -1.
         14    1    4    4    0    0  0.20896316550E+01 -0.15819543916E+01  0.13616776024E+02  0.13866713000E+02  0.00000000000E+00 0. -1.
<mgrwt>
<rscale>  0 0.79571476E+02</rscale>
<asrwt>0</asrwt>
<pdfrwt beam="1">  1        2 0.83844912E-02 0.79571476E+02</pdfrwt>
<pdfrwt beam="2">  1       -1 0.44683935E-02 0.79571476E+02</pdfrwt>
<totfact> 0.15454647E+05</totfact>
</mgrwt>
</event>
<event>
 8    1  0.2561077E-016  0.8034873E+02  0.7818608E-02  0.1328065E+00
         -1   -1    0    0    0  501 -0.00000000000E+00  0.00000000000E+00  0.43539546953E+02  0.43539547245E+02  0.50400000000E-02 0.  1.
          2   -1    0    0  501    0  0.00000000000E+00 -0.00000000000E+00 -0.37069281934E+02  0.37069282022E+02  0.25500000000E-02 0. -1.
         24    2    1    2    0    0  0.00000000000E+00  0.00000000000E+00  0.64702650190E+01  0.80608829267E+02  0.80348733820E+02 0.  0.
         66    2    3    3    0    0  0.26878610646E+02 -0.16522349972E+02 -0.21673207728E+02  0.38329827610E+02  0.19999981218E+01 0.  0.
        -13    1    3    3    0    0 -0.26878610646E+02  0.16522349972E+02  0.28143472747E+02  0.42279001658E+02  0.10566000000E+00 0.  1.
         13    1    4    4    0    0  0.52153425752E+01 -0.27299951472E+01 -0.38642043760E+01  0.70424364516E+01  0.10566000000E+00 0. -1.
        -13    1    4    4    0    0  0.16912154701E+02 -0.11002147059E+02 -0.14674459992E+02  0.24948329736E+02  0.10566000000E+00 0.  1.
        -14    1    4    4    0    0  0.47511133702E+01 -0.27902077663E+01 -0.31345433603E+01  0.63390614221E+01  0.00000000000E+00 0.  1.
<mgrwt>
<rscale>  0 0.80348734E+02</rscale>
<asrwt>0</asrwt>
<pdfrwt beam="1">  1        2 0.57029665E-02 0.80348734E+02</pdfrwt>
<pdfrwt beam="2">  1       -1 0.66983919E-02 0.80348734E+02</pdfrwt>
<totfact> 0.13867218E+05</totfact>
</mgrwt>
</event>
<event>
 8    1  0.2561077E-016  0.7809152E+02  0.7818608E-02  0.1334556E+00
         -1   -1    0    0    0  501 -0.00000000000E+00  0.00000000000E+00  0.14434260333E+02  0.14434261212E+02  0.50400000000E-02 0.  1.
          2   -1    0    0  501    0  0.00000000000E+00 -0.00000000000E+00 -0.10562170972E+03  0.10562170975E+03  0.25500000000E-02 0. -1.
         24    2    1    2    0    0  0.00000000000E+00  0.71054273576E-14 -0.91187449385E+02  0.12005597096E+03  0.78091518349E+02 0.  0.
         66    2    3    3    0    0  0.13495866985E+02 -0.33923926063E+02 -0.66792216593E+02  0.76145724637E+02  0.19999994609E+01 0.  0.
        -13    1    3    3    0    0 -0.13495866985E+02  0.33923926063E+02 -0.24395232792E+02  0.43910246324E+02  0.10566000000E+00 0.  1.
         13    1    4    4    0    0  0.27188205418E+01 -0.63953997667E+01 -0.11850308533E+02  0.13738052980E+02  0.10566000000E+00 0. -1.
        -13    1    4    4    0    0  0.17191447913E+01 -0.41347618519E+01 -0.94370811994E+01  0.10446117939E+02  0.10566000000E+00 0.  1.
         14    1    4    4    0    0  0.90579016522E+01 -0.23393764445E+02 -0.45504826860E+02  0.51961553718E+02  0.00000000000E+00 0. -1.
<mgrwt>
<rscale>  0 0.78091518E+02</rscale>
<asrwt>0</asrwt>
<pdfrwt beam="1">  1        2 0.16249493E-01 0.78091518E+02</pdfrwt>
<pdfrwt beam="2">  1       -1 0.22206556E-02 0.78091518E+02</pdfrwt>
<totfact> 0.19201543E+05</totfact>
</mgrwt>
</event>
<event>
 8    1  0.2561077E-016  0.8061974E+02  0.7818608E-02  0.1327302E+00
         -1   -1    0    0    0  501 -0.00000000000E+00  0.00000000000E+00  0.33075568401E+01  0.33075606801E+01  0.50400000000E-02 0.  1.
          2   -1    0    0  501    0  0.00000000000E+00 -0.00000000000E+00 -0.49126428677E+03  0.49126428677E+03  0.25500000000E-02 0. -1.
         24    2    1    2    0    0  0.00000000000E+00  0.00000000000E+00 -0.48795672993E+03  0.49457184745E+03  0.80619737117E+02 0.  0.
         66    2    3    3    0    0 -0.10032951320E+02 -0.38957035696E+02 -0.25724212812E+03  0.26037631079E+03  0.19999995935E+01 0.  0.
        -13    1    3    3    0    0  0.10032951320E+02  0.38957035696E+02 -0.23071460180E+03  0.23419553666E+03  0.10566000000E+00 0.  1.
         13    1    4    4    0    0 -0.67066087029E+01 -0.23042727732E+02 -0.15483060302E+03  0.15667952226E+03  0.10566000000E+00 0. -1.
        -13    1    4    4    0    0 -0.64782659619E-01 -0.49793343045E+00 -0.28045044434E+01  0.28510601016E+01  0.10566000000E+00 0. -1.
         14    1    4    4    0    0 -0.32615599575E+01 -0.15416374533E+02 -0.99607020662E+02  0.10084572843E+03  0.00000000000E+00 0. -1.
<mgrwt>
<rscale>  0 0.80619737E+02</rscale>
<asrwt>0</asrwt>
<pdfrwt beam="1">  1        2 0.75579063E-01 0.80619737E+02</pdfrwt>
<pdfrwt beam="2">  1       -1 0.50885558E-03 0.80619737E+02</pdfrwt>
<totfact> 0.29676711E+05</totfact>
</mgrwt>
</event>
<event>
 8    1  0.2561077E-016  0.7999677E+02  0.7818608E-02  0.1329061E+00
          2   -1    0    0  501    0  0.00000000000E+00  0.00000000000E+00  0.83216751830E+03  0.83216751830E+03  0.25500000000E-02 0. -1.
         -1   -1    0    0    0  501 -0.00000000000E+00 -0.00000000000E+00 -0.19225312367E+01  0.19225378430E+01  0.50400000000E-02 0.  1.
         24    2    1    2    0    0  0.35527136788E-14  0.00000000000E+00  0.83024498706E+03  0.83409005615E+03  0.79996770056E+02 0.  0.
         66    2    3    3    0    0 -0.26398915912E+02  0.84278167657E+01  0.71575537342E+03  0.71629441254E+03  0.19999995338E+01 0.  0.
        -13    1    3    3    0    0  0.26398915912E+02 -0.84278167657E+01  0.11448961364E+03  0.11779564361E+03  0.10566000000E+00 0.  1.
         13    1    4    4    0    0 -0.14062981473E+02  0.50175225220E+01  0.39309892537E+03  0.39338240844E+03  0.10566000000E+00 0. -1.
        -13    1    4    4    0    0 -0.97139371736E+01  0.26979481405E+01  0.24242618902E+03  0.24263575125E+03  0.10566000000E+00 0.  1.
        -14    1    4    4    0    0 -0.26219972658E+01  0.71234610316E+00  0.80230259031E+02  0.80276252845E+02  0.00000000000E+00 0.  1.
<mgrwt>
<rscale>  0 0.79996770E+02</rscale>
<asrwt>0</asrwt>
<pdfrwt beam="1">  1        2 0.12802578E+00 0.79996770E+02</pdfrwt>
<pdfrwt beam="2">  1       -1 0.29577453E-03 0.79996770E+02</pdfrwt>
<totfact> 0.34590582E+05</totfact>
</mgrwt>
</event>
<event>
 8    1  0.2561077E-016  0.7466456E+02  0.7818608E-02  0.1344913E+00
          2   -1    0    0  501    0  0.00000000000E+00  0.00000000000E+00  0.45251958759E+02  0.45251958831E+02  0.25500000000E-02 0. -1.
         -1   -1    0    0    0  501 -0.00000000000E+00 -0.00000000000E+00 -0.30798643057E+02  0.30798643470E+02  0.50400000000E-02 0.  1.
         24    2    1    2    0    0 -0.35527136788E-14  0.00000000000E+00  0.14453315702E+02  0.76050602301E+02  0.74664555015E+02 0.  0.
         66    2    3    3    0    0  0.23656311516E+02  0.90383818280E+01  0.35133421286E+02  0.43355169109E+02  0.19999941637E+01 0.  0.
        -13    1    3    3    0    0 -0.23656311516E+02 -0.90383818280E+01 -0.20680105584E+02  0.32695433192E+02  0.10566000000E+00 0.  1.
         13    1    4    4    0    0  0.24638423667E+01  0.99188854719E+00  0.45149960575E+01  0.52393430440E+01  0.10566000000E+00 0. -1.
        -13    1    4    4    0    0  0.91367974067E+01  0.40263198175E+01  0.12991137303E+02  0.16385149697E+02  0.10566000000E+00 0.  1.
        -14    1    4    4    0    0  0.12055671742E+02  0.40201734633E+01  0.17627287925E+02  0.21730676369E+02  0.00000000000E+00 0.  1.
<mgrwt>
<rscale>  0 0.74664555E+02</rscale>
<asrwt>0</asrwt>
<pdfrwt beam="1">  1        2 0.69618398E-02 0.74664555E+02</pdfrwt>
<pdfrwt beam="2">  1       -1 0.47382528E-02 0.74664555E+02</pdfrwt>
<totfact> 0.17665773E+05</totfact>
</mgrwt>
</event>
<event>
 8    1  0.2561077E-016  0.7671929E+02  0.7818608E-02  0.1338628E+00
          2   -1    0    0  501    0  0.00000000000E+00  0.00000000000E+00  0.14311347523E+03  0.14311347526E+03  0.25500000000E-02 0. -1.
         -1   -1    0    0    0  501 -0.00000000000E+00 -0.00000000000E+00 -0.10281785779E+02  0.10281787014E+02  0.50400000000E-02 0.  1.
         24    2    1    2    0    0  0.00000000000E+00 -0.35527136788E-14  0.13283168945E+03  0.15339526227E+03  0.76719285474E+02 0.  0.
         66    2    3    3    0    0  0.20571552108E+02  0.23136949756E+02  0.11165650441E+03  0.11588650562E+03  0.20000015050E+01 0.  0.
        -13    1    3    3    0    0 -0.20571552108E+02 -0.23136949756E+02  0.21175185039E+02  0.37508756652E+02  0.10566000000E+00 0.  1.
         13    1    4    4    0    0  0.24380924473E+01  0.29111229203E+01  0.13145809023E+02  0.13683654130E+02  0.10566000000E+00 0. -1.
        -13    1    4    4    0    0  0.43621884543E+00  0.63563456812E+00  0.39550944968E+01  0.40309123905E+01  0.10566000000E+00 0.  1.
         14    1    4    4    0    0  0.17697240815E+02  0.19590192267E+02  0.94555600895E+02  0.98171939098E+02  0.00000000000E+00 0. -1.
<mgrwt>
<rscale>  0 0.76719285E+02</rscale>
<asrwt>0</asrwt>
<pdfrwt beam="1">  1        2 0.22017459E-01 0.76719285E+02</pdfrwt>
<pdfrwt beam="2">  1       -1 0.15818132E-02 0.76719285E+02</pdfrwt>
<totfact> 0.22046626E+05</totfact>
</mgrwt>
</event>
<event>
 8    1  0.2561077E-016  0.8053157E+02  0.7818608E-02  0.1327550E+00
          2   -1    0    0  501    0  0.00000000000E+00  0.00000000000E+00  0.83577074840E+03  0.83577074841E+03  0.25500000000E-02 0. -1.
         -1   -1    0    0    0  501 -0.00000000000E+00 -0.00000000000E+00 -0.19399227673E+01  0.19399293143E+01  0.50400000000E-02 0.  1.
         24    2    1    2    0    0  0.00000000000E+00  0.88817841970E-15  0.83383082564E+03  0.83771067772E+03  0.80531570131E+02 0.  0.
         66    2    3    3    0    0 -0.95749543212E+01 -0.52044838326E+01  0.82012527858E+03  0.82020012130E+03  0.20000010178E+01 0.  0.
        -13    1    3    3    0    0  0.95749543212E+01  0.52044838326E+01  0.13705547054E+02  0.17510556425E+02  0.10566000000E+00 0.  1.
         13    1    4    4    0    0 -0.40400473473E+01 -0.31314095603E+01  0.36574783244E+03  0.36578356416E+03  0.10566000000E+00 0. -1.
        -13    1    4    4    0    0 -0.40011065398E+01 -0.13186390382E+01  0.29864851394E+03  0.29867824444E+03  0.10566000000E+00 0.  1.
        -14    1    4    4    0    0 -0.15338004340E+01 -0.75443523424E+00  0.15572893220E+03  0.15573831269E+03  0.00000000000E+00 0.  1.
<mgrwt>
<rscale>  0 0.80531570E+02</rscale>
<asrwt>0</asrwt>
<pdfrwt beam="1">  1        2 0.12858014E+00 0.80531570E+02</pdfrwt>
<pdfrwt beam="2">  1       -1 0.29845011E-03 0.80531570E+02</pdfrwt>
<totfact> 0.34019255E+05</totfact>
</mgrwt>
</event>
<event>
 8    1  0.2561077E-016  0.7872771E+02  0.7818608E-02  0.1332701E+00
         -1   -1    0    0    0  501 -0.00000000000E+00  0.00000000000E+00  0.19519005003E+03  0.19519005009E+03  0.50400000000E-02 0.  1.
          2   -1    0    0  501    0  0.00000000000E+00 -0.00000000000E+00 -0.79384832018E+01  0.79384836114E+01  0.25500000000E-02 0. -1.
         24    2    1    2    0    0  0.35527136788E-14  0.71054273576E-14  0.18725156682E+03  0.20312853370E+03  0.78727707486E+02 0.  0.
         66    2    3    3    0    0 -0.16407716591E+02 -0.32965362036E+02  0.57973709429E+02  0.68708654836E+02  0.20000016140E+01 0.  0.
        -13    1    3    3    0    0  0.16407716591E+02  0.32965362036E+02  0.12927785739E+03  0.13441987887E+03  0.10566000000E+00 0.  1.
         13    1    4    4    0    0 -0.10228083285E+02 -0.19286043837E+02  0.34908582470E+02  0.41172630092E+02  0.10566000000E+00 0. -1.
        -13    1    4    4    0    0 -0.15036658086E+00 -0.73223079335E+00  0.13016254500E+01  0.15047142224E+01  0.10566000000E+00 0.  1.
         14    1    4    4    0    0 -0.60292667248E+01 -0.12947087405E+02  0.21763501509E+02  0.26031310521E+02  0.00000000000E+00 0. -1.
<mgrwt>
<rscale>  0 0.78727707E+02</rscale>
<asrwt>0</asrwt>
<pdfrwt beam="1">  1        2 0.12213052E-02 0.78727707E+02</pdfrwt>
<pdfrwt beam="2">  1       -1 0.30029237E-01 0.78727707E+02</pdfrwt>
<totfact> 0.10450994E+05</totfact>
</mgrwt>
</event>
<event>
 8    1  0.2561077E-016  0.7882622E+02  0.7818608E-02  0.1332416E+00
         -1   -1    0    0    0  501 -0.00000000000E+00  0.00000000000E+00  0.59776347716E+01  0.59776368964E+01  0.50400000000E-02 0.  1.
          2   -1    0    0  501    0  0.00000000000E+00 -0.00000000000E+00 -0.25986751533E+03  0.25986751535E+03  0.25500000000E-02 0. -1.
         24    2    1    2    0    0  0.35527136788E-14 -0.17763568394E-14 -0.25388988056E+03  0.26584515224E+03  0.78826223550E+02 0.  0.
         66    2    3    3    0    0  0.26937064811E+02 -0.99712028407E+01 -0.21792005607E+03  0.21981396950E+03  0.20000008021E+01 0.  0.
        -13    1    3    3    0    0 -0.26937064811E+02  0.99712028407E+01 -0.35969824497E+02  0.46031182747E+02  0.10566000000E+00 0.  1.
         13    1    4    4    0    0  0.11019225555E+02 -0.36662854085E+01 -0.88702466578E+02  0.89459508839E+02  0.10566000000E+00 0. -1.
        -13    1    4    4    0    0  0.14770445542E+02 -0.55204281497E+01 -0.12033803092E+03  0.12136677485E+03  0.10566000000E+00 0.  1.
        -14    1    4    4    0    0  0.11473937137E+01 -0.78448928255E+00 -0.88795585693E+01  0.89876858064E+01  0.00000000000E+00 0.  1.
<mgrwt>
<rscale>  0 0.78826224E+02</rscale>
<asrwt>0</asrwt>
<pdfrwt beam="1">  1        2 0.39979609E-01 0.78826224E+02</pdfrwt>
<pdfrwt beam="2">  1       -1 0.91963648E-03 0.78826224E+02</pdfrwt>
<totfact> 0.25160416E+05</totfact>
</mgrwt>
</event>
<event>
 8    1  0.2561077E-016  0.7611502E+02  0.7818608E-02  0.1340453E+00
         -1   -1    0    0    0  501 -0.00000000000E+00  0.00000000000E+00  0.12438696363E+02  0.12438697384E+02  0.50400000000E-02 0.  1.
          2   -1    0    0  501    0  0.00000000000E+00 -0.00000000000E+00 -0.11644098929E+03  0.11644098932E+03  0.25500000000E-02 0. -1.
         24    2    1    2    0    0  0.35527136788E-14  0.35527136788E-14 -0.10400229293E+03  0.12887968670E+03  0.76115022896E+02 0.  0.
         66    2    3    3    0    0 -0.29586089115E+02  0.20849771683E+02 -0.71806340545E+02  0.80437554605E+02  0.19999999946E+01 0.  0.
        -13    1    3    3    0    0  0.29586089115E+02 -0.20849771683E+02 -0.32195952382E+02  0.48442132098E+02  0.10566000000E+00 0.  1.
         13    1    4    4    0    0 -0.20753734184E+02  0.14956349263E+02 -0.51270538327E+02  0.57298247183E+02  0.10566000000E+00 0. -1.
        -13    1    4    4    0    0 -0.41602102127E+01  0.22805985118E+01 -0.96942666540E+01  0.10793444704E+02  0.10566000000E+00 0.  1.
        -14    1    4    4    0    0 -0.46721447184E+01  0.36128239086E+01 -0.10841535564E+02  0.12345862717E+02  0.00000000000E+00 0.  1.
<mgrwt>
<rscale>  0 0.76115023E+02</rscale>
<asrwt>0</asrwt>
<pdfrwt beam="1">  1        2 0.17913998E-01 0.76115023E+02</pdfrwt>
<pdfrwt beam="2">  1       -1 0.19136458E-02 0.76115023E+02</pdfrwt>
<totfact> 0.21143137E+05</totfact>
</mgrwt>
</event>
<event>
 8    1  0.2561077E-016  0.7990322E+02  0.7818608E-02  0.1329326E+00
         -1   -1    0    0    0  501 -0.00000000000E+00  0.00000000000E+00  0.17672525936E+02  0.17672526654E+02  0.50400000000E-02 0.  1.
          2   -1    0    0  501    0  0.00000000000E+00 -0.00000000000E+00 -0.90317091995E+02  0.90317092031E+02  0.25500000000E-02 0. -1.
         24    2    1    2    0    0 -0.71054273576E-14  0.44408920985E-15 -0.72644566059E+02  0.10798961868E+03  0.79903221248E+02 0.  0.
         66    2    3    3    0    0 -0.36340805457E+02  0.39837848722E+01 -0.58036594948E+02  0.68620485253E+02  0.19999900186E+01 0.  0.
        -13    1    3    3    0    0  0.36340805457E+02 -0.39837848722E+01 -0.14607971111E+02  0.39369133432E+02  0.10566000000E+00 0.  1.
         13    1    4    4    0    0 -0.87675268024E+01  0.60142731143E+00 -0.12905000983E+02  0.15613502344E+02  0.10566000000E+00 0. -1.
        -13    1    4    4    0    0 -0.10931377698E+02  0.82241193993E+00 -0.17679355051E+02  0.20802455116E+02  0.10566000000E+00 0.  1.
         14    1    4    4    0    0 -0.16641900956E+02  0.25599456209E+01 -0.27452238914E+02  0.32204527793E+02  0.00000000000E+00 0. -1.
<mgrwt>
<rscale>  0 0.79903221E+02</rscale>
<asrwt>0</asrwt>
<pdfrwt beam="1">  1        2 0.13894937E-01 0.79903221E+02</pdfrwt>
<pdfrwt beam="2">  1       -1 0.27188503E-02 0.79903221E+02</pdfrwt>
<totfact> 0.17293151E+05</totfact>
</mgrwt>
</event>
<event>
 8    1  0.2561077E-016  0.7763652E+02  0.7818608E-02  0.1335896E+00
         -1   -1    0    0    0  501 -0.00000000000E+00  0.00000000000E+00  0.46913986974E+01  0.46914014046E+01  0.50400000000E-02 0.  1.
          2   -1    0    0  501    0  0.00000000000E+00 -0.00000000000E+00 -0.32119561943E+03  0.32119561944E+03  0.25500000000E-02 0. -1.
         24    2    1    2    0    0  0.00000000000E+00 -0.71054273576E-14 -0.31650422073E+03  0.32588702084E+03  0.77636515980E+02 0.  0.
         66    2    3    3    0    0 -0.86721550176E+01 -0.37802102422E+02 -0.15498041755E+03  0.15977213476E+03  0.20000004352E+01 0.  0.
        -13    1    3    3    0    0  0.86721550176E+01  0.37802102422E+02 -0.16152380318E+03  0.16611488608E+03  0.10566000000E+00 0.  1.
         13    1    4    4    0    0 -0.17475029699E+01 -0.65683937684E+01 -0.29159898018E+02  0.29941749778E+02  0.10566000000E+00 0. -1.
        -13    1    4    4    0    0 -0.35893134229E+01 -0.17075800449E+02 -0.71052759359E+02  0.73164006919E+02  0.10566000000E+00 0.  1.
         14    1    4    4    0    0 -0.33353386248E+01 -0.14157908205E+02 -0.54767760175E+02  0.56666378066E+02  0.00000000000E+00 0. -1.
<mgrwt>
<rscale>  0 0.77636516E+02</rscale>
<asrwt>0</asrwt>
<pdfrwt beam="1">  1        2 0.49414694E-01 0.77636516E+02</pdfrwt>
<pdfrwt beam="2">  1       -1 0.72175411E-03 0.77636516E+02</pdfrwt>
<totfact> 0.28263507E+05</totfact>
</mgrwt>
</event>
<event>
 8    1  0.2561077E-016  0.8283454E+02  0.7818608E-02  0.1321195E+00
          2   -1    0    0  501    0  0.00000000000E+00  0.00000000000E+00  0.12191532850E+04  0.12191532850E+04  0.25500000000E-02 0. -1.
         -1   -1    0    0    0  501 -0.00000000000E+00 -0.00000000000E+00 -0.14070295764E+01  0.14070386031E+01  0.50400000000E-02 0.  1.
         24    2    1    2    0    0  0.00000000000E+00 -0.17763568394E-14  0.12177462554E+04  0.12205603236E+04  0.82834539671E+02 0.  0.
         66    2    3    3    0    0  0.74154557284E+01 -0.83679010733E+01  0.11964787219E+04  0.11965326334E+04  0.19999986835E+01 0.  0.
        -13    1    3    3    0    0 -0.74154557284E+01  0.83679010733E+01  0.21267533508E+02  0.24027690226E+02  0.10566000000E+00 0.  1.
         13    1    4    4    0    0  0.23458885786E+01 -0.23467902168E+01  0.42808676149E+03  0.42809963460E+03  0.10566000000E+00 0. -1.
        -13    1    4    4    0    0  0.36225216101E+01 -0.43793673694E+01  0.50657407312E+03  0.50660596546E+03  0.10566000000E+00 0.  1.
        -14    1    4    4    0    0  0.14470455397E+01 -0.16417434870E+01  0.26181788730E+03  0.26182703331E+03  0.00000000000E+00 0.  1.
<mgrwt>
<rscale>  0 0.82834540E+02</rscale>
<asrwt>0</asrwt>
<pdfrwt beam="1">  1        2 0.18756116E+00 0.82834540E+02</pdfrwt>
<pdfrwt beam="2">  1       -1 0.21646780E-03 0.82834540E+02</pdfrwt>
<totfact> 0.31944514E+05</totfact>
</mgrwt>
</event>
<event>
 8    1  0.2561077E-016  0.8038053E+02  0.7818608E-02  0.1327975E+00
          2   -1    0    0  501    0  0.00000000000E+00  0.00000000000E+00  0.39269199222E+03  0.39269199222E+03  0.25500000000E-02 0. -1.
         -1   -1    0    0    0  501 -0.00000000000E+00 -0.00000000000E+00 -0.41132922935E+01  0.41132953812E+01  0.50400000000E-02 0.  1.
         24    2    1    2    0    0 -0.35527136788E-14  0.17763568394E-14  0.38857869992E+03  0.39680528760E+03  0.80380533951E+02 0.  0.
         66    2    3    3    0    0 -0.25004979560E+02  0.83416326658E+01  0.34401474595E+03  0.34502895135E+03  0.20000000052E+01 0.  0.
        -13    1    3    3    0    0  0.25004979560E+02 -0.83416326658E+01  0.44563953970E+02  0.51776336253E+02  0.10566000000E+00 0.  1.
         13    1    4    4    0    0 -0.15570726325E+02  0.59399202640E+01  0.21720174777E+03  0.21784017208E+03  0.10566000000E+00 0. -1.
        -13    1    4    4    0    0 -0.55362986196E+01  0.12261511101E+01  0.78423483236E+02  0.78628289667E+02  0.10566000000E+00 0.  1.
        -14    1    4    4    0    0 -0.38979546153E+01  0.11755612917E+01  0.48389514944E+02  0.48560489609E+02  0.00000000000E+00 0.  1.
<mgrwt>
<rscale>  0 0.80380534E+02</rscale>
<asrwt>0</asrwt>
<pdfrwt beam="1">  1        2 0.60414140E-01 0.80380534E+02</pdfrwt>
<pdfrwt beam="2">  1       -1 0.63281458E-03 0.80380534E+02</pdfrwt>
<totfact> 0.27725678E+05</totfact>
</mgrwt>
</event>
<event>
 8    1  0.2561077E-016  0.7995507E+02  0.7818608E-02  0.1329179E+00
         -1   -1    0    0    0  501 -0.00000000000E+00  0.00000000000E+00  0.59856362502E+03  0.59856362504E+03  0.50400000000E-02 0.  1.
          2   -1    0    0  501    0  0.00000000000E+00 -0.00000000000E+00 -0.26700635350E+01  0.26700647527E+01  0.25500000000E-02 0. -1.
         24    2    1    2    0    0  0.00000000000E+00  0.00000000000E+00  0.59589356149E+03  0.60123368980E+03  0.79955069407E+02 0.  0.
         66    2    3    3    0    0 -0.19800919748E+02 -0.22490099440E+02  0.49684451222E+03  0.49775129361E+03  0.19999928593E+01 0.  0.
        -13    1    3    3    0    0  0.19800919748E+02  0.22490099440E+02  0.99049049271E+02  0.10348239619E+03  0.10566000000E+00 0.  1.
         13    1    4    4    0    0 -0.14328833489E+02 -0.15572460581E+02  0.35579990672E+03  0.35642867700E+03  0.10566000000E+00 0. -1.
        -13    1    4    4    0    0 -0.18331516311E+01 -0.17262800574E+01  0.39785108093E+02  0.39864852661E+02  0.10566000000E+00 0.  1.
         14    1    4    4    0    0 -0.36389346285E+01 -0.51913588014E+01  0.10125949740E+03  0.10145776395E+03  0.00000000000E+00 0. -1.
<mgrwt>
<rscale>  0 0.79955069E+02</rscale>
<asrwt>0</asrwt>
<pdfrwt beam="1">  1        2 0.41077925E-03 0.79955069E+02</pdfrwt>
<pdfrwt beam="2">  1       -1 0.92086679E-01 0.79955069E+02</pdfrwt>
<totfact> 0.59204301E+04</totfact>
</mgrwt>
</event>
<event>
 8    1  0.2561077E-016  0.7994798E+02  0.7818608E-02  0.1329199E+00
          2   -1    0    0  501    0  0.00000000000E+00  0.00000000000E+00  0.18996429387E+02  0.18996429558E+02  0.25500000000E-02 0. -1.
         -1   -1    0    0    0  501 -0.00000000000E+00 -0.00000000000E+00 -0.84116862195E+02  0.84116862346E+02  0.50400000000E-02 0.  1.
         24    2    1    2    0    0  0.00000000000E+00 -0.35527136788E-14 -0.65120432808E+02  0.10311329190E+03  0.79947984329E+02 0.  0.
         66    2    3    3    0    0 -0.61318247947E+01 -0.17399686647E+02  0.13120603536E+02  0.22726605799E+02  0.20000008197E+01 0.  0.
        -13    1    3    3    0    0  0.61318247947E+01  0.17399686647E+02 -0.78241036344E+02  0.80386686105E+02  0.10566000000E+00 0.  1.
         13    1    4    4    0    0 -0.33645751280E+01 -0.10007183380E+02  0.73331729691E+01  0.12854986380E+02  0.10566000000E+00 0. -1.
        -13    1    4    4    0    0 -0.28087559937E+01 -0.70635047852E+01  0.57619258636E+01  0.95390336920E+01  0.10566000000E+00 0.  1.
        -14    1    4    4    0    0  0.41506327027E-01 -0.32899848212E+00  0.25504703191E-01  0.33258572776E+00  0.00000000000E+00 0.  1.
<mgrwt>
<rscale>  0 0.79947984E+02</rscale>
<asrwt>0</asrwt>
<pdfrwt beam="1">  1        2 0.29225277E-02 0.79947984E+02</pdfrwt>
<pdfrwt beam="2">  1       -1 0.12941056E-01 0.79947984E+02</pdfrwt>
<totfact> 0.12309491E+05</totfact>
</mgrwt>
</event>
<event>
 8    1  0.2561077E-016  0.7786215E+02  0.7818608E-02  0.1335230E+00
          2   -1    0    0  501    0  0.00000000000E+00  0.00000000000E+00  0.21807049443E+02  0.21807049592E+02  0.25500000000E-02 0. -1.
         -1   -1    0    0    0  501 -0.00000000000E+00 -0.00000000000E+00 -0.69501764135E+02  0.69501764318E+02  0.50400000000E-02 0.  1.
         24    2    1    2    0    0  0.00000000000E+00  0.00000000000E+00 -0.47694714693E+02  0.91308813910E+02  0.77862145411E+02 0.  0.
         66    2    3    3    0    0 -0.28539016974E+02 -0.18711484533E+02 -0.19543435783E+01  0.34240540263E+02  0.19999988449E+01 0.  0.
        -13    1    3    3    0    0  0.28539016974E+02  0.18711484533E+02 -0.45740371114E+02  0.57068273647E+02  0.10566000000E+00 0.  1.
         13    1    4    4    0    0 -0.50261293616E+01 -0.41039540099E+01 -0.25153862283E+00  0.64945246623E+01  0.10566000000E+00 0. -1.
        -13    1    4    4    0    0 -0.15016002152E+02 -0.97164463707E+01 -0.87787312105E+00  0.17907302308E+02  0.10566000000E+00 0.  1.
        -14    1    4    4    0    0 -0.84968854607E+01 -0.48910841527E+01 -0.82493183442E+00  0.98387132925E+01  0.00000000000E+00 0.  1.
<mgrwt>
<rscale>  0 0.77862145E+02</rscale>
<asrwt>0</asrwt>
<pdfrwt beam="1">  1        2 0.33549307E-02 0.77862145E+02</pdfrwt>
<pdfrwt beam="2">  1       -1 0.10692579E-01 0.77862145E+02</pdfrwt>
<totfact> 0.13646589E+05</totfact>
</mgrwt>
</event>
<event>
 8    1  0.2561077E-016  0.7963719E+02  0.7818608E-02  0.1330084E+00
          2   -1    0    0  501    0  0.00000000000E+00  0.00000000000E+00  0.15685256762E+04  0.15685256762E+04  0.25500000000E-02 0. -1.
         -1   -1    0    0    0  501 -0.00000000000E+00 -0.00000000000E+00 -0.10108287314E+01  0.10108412961E+01  0.50400000000E-02 0.  1.
         24    2    1    2    0    0  0.17763568394E-14 -0.17763568394E-14  0.15675148475E+04  0.15695365175E+04  0.79637194362E+02 0.  0.
         66    2    3    3    0    0  0.12556753168E+02 -0.73522353752E+01  0.15142102983E+04  0.15142815310E+04  0.20000006320E+01 0.  0.
        -13    1    3    3    0    0 -0.12556753168E+02  0.73522353752E+01  0.53304549132E+02  0.55254986539E+02  0.10566000000E+00 0.  1.
         13    1    4    4    0    0  0.71844813867E+01 -0.50721534885E+01  0.90009819682E+03  0.90014116592E+03  0.10566000000E+00 0. -1.
        -13    1    4    4    0    0  0.24246192586E+01 -0.62581414865E+00  0.24845930253E+03  0.24847194329E+03  0.10566000000E+00 0.  1.
        -14    1    4    4    0    0  0.29476525231E+01 -0.16542677381E+01  0.36565279898E+03  0.36566842174E+03  0.00000000000E+00 0.  1.
<mgrwt>
<rscale>  0 0.79637194E+02</rscale>
<asrwt>0</asrwt>
<pdfrwt beam="1">  1        2 0.24131213E+00 0.79637194E+02</pdfrwt>
<pdfrwt beam="2">  1       -1 0.15551276E-03 0.79637194E+02</pdfrwt>
<totfact> 0.33036752E+05</totfact>
</mgrwt>
</event>
<event>
 8    1  0.2561077E-016  0.7682488E+02  0.7818608E-02  0.1338311E+00
         -1   -1    0    0    0  501 -0.00000000000E+00  0.00000000000E+00  0.39843087035E+01  0.39843118912E+01  0.50400000000E-02 0.  1.
          2   -1    0    0  501    0  0.00000000000E+00 -0.00000000000E+00 -0.37033152625E+03  0.37033152626E+03  0.25500000000E-02 0. -1.
         24    2    1    2    0    0 -0.17763568394E-14  0.00000000000E+00 -0.36634721755E+03  0.37431583815E+03  0.76824884548E+02 0.  0.
         66    2    3    3    0    0 -0.12986438140E+02 -0.31667804455E+02 -0.26797127133E+03  0.27015569524E+03  0.19999983671E+01 0.  0.
        -13    1    3    3    0    0  0.12986438140E+02  0.31667804455E+02 -0.98375946212E+02  0.10416014291E+03  0.10566000000E+00 0.  1.
         13    1    4    4    0    0 -0.10637162362E+02 -0.24753824726E+02 -0.20891262922E+03  0.21064282298E+03  0.10566000000E+00 0. -1.
        -13    1    4    4    0    0 -0.47077026013E+00 -0.85796379455E+00 -0.92672016704E+01  0.93193303057E+01  0.10566000000E+00 0.  1.
         14    1    4    4    0    0 -0.18785055180E+01 -0.60560159352E+01 -0.49791440445E+02  0.50193541950E+02  0.00000000000E+00 0. -1.
<mgrwt>
<rscale>  0 0.76824885E+02</rscale>
<asrwt>0</asrwt>
<pdfrwt beam="1">  1        2 0.56974054E-01 0.76824885E+02</pdfrwt>
<pdfrwt beam="2">  1       -1 0.61297111E-03 0.76824885E+02</pdfrwt>
<totfact> 0.30560544E+05</totfact>
</mgrwt>
</event>
<event>
 8    1  0.2561077E-016  0.8054797E+02  0.7818608E-02  0.1327504E+00
          2   -1    0    0  501    0  0.00000000000E+00  0.00000000000E+00  0.15539347794E+03  0.15539347796E+03  0.25500000000E-02 0. -1.
         -1   -1    0    0    0  501 -0.00000000000E+00 -0.00000000000E+00 -0.10437978666E+02  0.10437979883E+02  0.50400000000E-02 0.  1.
         24    2    1    2    0    0  0.17763568394E-14 -0.71054273576E-14  0.14495549927E+03  0.16583145784E+03  0.80547971052E+02 0.  0.
         66    2    3    3    0    0  0.92567066554E+01 -0.34264895645E+02  0.11159701998E+03  0.11712243407E+03  0.20000008519E+01 0.  0.
        -13    1    3    3    0    0 -0.92567066554E+01  0.34264895645E+02  0.33358479293E+02  0.48709023768E+02  0.10566000000E+00 0.  1.
         13    1    4    4    0    0  0.60119241175E+01 -0.24162230480E+02  0.76516241406E+02  0.80465539061E+02  0.10566000000E+00 0. -1.
        -13    1    4    4    0    0  0.45050683566E+00 -0.11825569977E+01  0.35840906233E+01  0.38024028052E+01  0.10566000000E+00 0. -1.
         14    1    4    4    0    0  0.27942757022E+01 -0.89201081671E+01  0.31496687951E+02  0.32854492208E+02  0.00000000000E+00 0. -1.
<mgrwt>
<rscale>  0 0.80547971E+02</rscale>
<asrwt>0</asrwt>
<pdfrwt beam="1">  1        2 0.23906688E-01 0.80547971E+02</pdfrwt>
<pdfrwt beam="2">  1       -1 0.16058430E-02 0.80547971E+02</pdfrwt>
<totfact> 0.19896931E+05</totfact>
</mgrwt>
</event>
<event>
 8    1  0.2561077E-016  0.7788470E+02  0.7818608E-02  0.1335164E+00
          2   -1    0    0  501    0  0.00000000000E+00  0.00000000000E+00  0.46663114972E+03  0.46663114973E+03  0.25500000000E-02 0. -1.
         -1   -1    0    0    0  501 -0.00000000000E+00 -0.00000000000E+00 -0.32499025154E+01  0.32499064234E+01  0.50400000000E-02 0.  1.
         24    2    1    2    0    0  0.00000000000E+00 -0.88817841970E-15  0.46338124720E+03  0.46988105615E+03  0.77884701117E+02 0.  0.
         66    2    3    3    0    0  0.24835968988E+02 -0.61967419440E+01  0.40869185710E+03  0.40949756900E+03  0.19999978244E+01 0.  0.
        -13    1    3    3    0    0 -0.24835968988E+02  0.61967419440E+01  0.54689390101E+02  0.60383487146E+02  0.10566000000E+00 0.  1.
         13    1    4    4    0    0  0.63328789311E+01 -0.18491818228E+01  0.10679157774E+03  0.10699521984E+03  0.10566000000E+00 0. -1.
        -13    1    4    4    0    0  0.66993585882E+01 -0.22949274326E+01  0.11756169950E+03  0.11777483793E+03  0.10566000000E+00 0.  1.
        -14    1    4    4    0    0  0.11803731468E+02 -0.20526326887E+01  0.18433857986E+03  0.18472751123E+03  0.00000000000E+00 0.  1.
<mgrwt>
<rscale>  0 0.77884701E+02</rscale>
<asrwt>0</asrwt>
<pdfrwt beam="1">  1        2 0.71789414E-01 0.77884701E+02</pdfrwt>
<pdfrwt beam="2">  1       -1 0.49998526E-03 0.77884701E+02</pdfrwt>
<totfact> 0.31928597E+05</totfact>
</mgrwt>
</event>
<event>
 8    1  0.2561077E-016  0.8011955E+02  0.7818608E-02  0.1328713E+00
          2   -1    0    0  501    0  0.00000000000E+00  0.00000000000E+00  0.11282940841E+03  0.11282940844E+03  0.25500000000E-02 0. -1.
         -1   -1    0    0    0  501 -0.00000000000E+00 -0.00000000000E+00 -0.14223112225E+02  0.14223113118E+02  0.50400000000E-02 0.  1.
         24    2    1    2    0    0  0.00000000000E+00  0.00000000000E+00  0.98606296188E+02  0.12705252156E+03  0.80119545597E+02 0.  0.
         66    2    3    3    0    0 -0.28176960408E+02  0.22908690933E+02  0.76059408581E+02  0.84307667801E+02  0.19999995671E+01 0.  0.
        -13    1    3    3    0    0  0.28176960408E+02 -0.22908690933E+02  0.22546887607E+02  0.42744853759E+02  0.10566000000E+00 0.  1.
         13    1    4    4    0    0 -0.10573472767E+02  0.93041901174E+01  0.31012670368E+02  0.34061168029E+02  0.10566000000E+00 0. -1.
        -13    1    4    4    0    0 -0.59436273021E+01  0.43394311323E+01  0.14302433482E+02  0.16085028306E+02  0.10566000000E+00 0.  1.
         14    1    4    4    0    0 -0.11659860338E+02  0.92650696831E+01  0.30744304730E+02  0.34161471465E+02  0.00000000000E+00 0. -1.
<mgrwt>
<rscale>  0 0.80119546E+02</rscale>
<asrwt>0</asrwt>
<pdfrwt beam="1">  1        2 0.17358371E-01 0.80119546E+02</pdfrwt>
<pdfrwt beam="2">  1       -1 0.21881711E-02 0.80119546E+02</pdfrwt>
<totfact> 0.18275970E+05</totfact>
</mgrwt>
</event>
<event>
 8    1  0.2561077E-016  0.7993847E+02  0.7818608E-02  0.1329226E+00
          2   -1    0    0  501    0  0.00000000000E+00  0.00000000000E+00  0.61955060884E+02  0.61955060937E+02  0.25500000000E-02 0. -1.
         -1   -1    0    0    0  501 -0.00000000000E+00 -0.00000000000E+00 -0.25785460058E+02  0.25785460551E+02  0.50400000000E-02 0.  1.
         24    2    1    2    0    0  0.71054273576E-14  0.00000000000E+00  0.36169600826E+02  0.87740521488E+02  0.79938470632E+02 0.  0.
         66    2    3    3    0    0  0.21144546548E+02  0.33884147414E+02  0.18704757916E+02  0.44148558965E+02  0.19999988171E+01 0.  0.
        -13    1    3    3    0    0 -0.21144546548E+02 -0.33884147414E+02  0.17464842910E+02  0.43591962523E+02  0.10566000000E+00 0.  1.
         13    1    4    4    0    0  0.85276914656E+00  0.93512377009E+00  0.78347827853E+00  0.14922043866E+01  0.10566000000E+00 0. -1.
        -13    1    4    4    0    0  0.61211319864E+01  0.10780363585E+02  0.58753948834E+01  0.13719180912E+02  0.10566000000E+00 0.  1.
         14    1    4    4    0    0  0.14170645415E+02  0.22168660059E+02  0.12045884754E+02  0.28937173666E+02  0.00000000000E+00 0. -1.
<mgrwt>
<rscale>  0 0.79938471E+02</rscale>
<asrwt>0</asrwt>
<pdfrwt beam="1">  1        2 0.95315479E-02 0.79938471E+02</pdfrwt>
<pdfrwt beam="2">  1       -1 0.39669939E-02 0.79938471E+02</pdfrwt>
<totfact> 0.15715376E+05</totfact>
</mgrwt>
</event>
<event>
 8    1  0.2561077E-016  0.7941384E+02  0.7818608E-02  0.1330723E+00
         -1   -1    0    0    0  501 -0.00000000000E+00  0.00000000000E+00  0.16538341410E+01  0.16538418206E+01  0.50400000000E-02 0.  1.
          2   -1    0    0  501    0  0.00000000000E+00 -0.00000000000E+00 -0.95332160621E+03  0.95332160621E+03  0.25500000000E-02 0. -1.
         24    2    1    2    0    0  0.00000000000E+00  0.00000000000E+00 -0.95166777207E+03  0.95497544803E+03  0.79413839808E+02 0.  0.
         66    2    3    3    0    0  0.37115102883E+01 -0.12149674749E+02 -0.92820380055E+03  0.92829288765E+03  0.20000007215E+01 0.  0.
        -13    1    3    3    0    0 -0.37115102883E+01  0.12149674749E+02 -0.23463971521E+02  0.26682560385E+02  0.10566000000E+00 0.  1.
         13    1    4    4    0    0 -0.12899047669E+00 -0.54993439205E+00 -0.32430779614E+02  0.32435870526E+02  0.10566000000E+00 0.  1.
        -13    1    4    4    0    0  0.31629623919E+00 -0.38582456196E+00 -0.41271789602E+02  0.41274940156E+02  0.10566000000E+00 0. -1.
         14    1    4    4    0    0  0.35242045258E+01 -0.11213915795E+02 -0.85450123133E+03  0.85458207696E+03  0.00000000000E+00 0. -1.
<mgrwt>
<rscale>  0 0.79413840E+02</rscale>
<asrwt>0</asrwt>
<pdfrwt beam="1">  1        2 0.14666442E+00 0.79413840E+02</pdfrwt>
<pdfrwt beam="2">  1       -1 0.25443738E-03 0.79413840E+02</pdfrwt>
<totfact> 0.35810073E+05</totfact>
</mgrwt>
</event>
<event>
 8    1  0.2561077E-016  0.8074776E+02  0.7818608E-02  0.1326943E+00
         -1   -1    0    0    0  501 -0.00000000000E+00  0.00000000000E+00  0.10910159819E+03  0.10910159831E+03  0.50400000000E-02 0.  1.
          2   -1    0    0  501    0  0.00000000000E+00 -0.00000000000E+00 -0.14940662438E+02  0.14940662656E+02  0.25500000000E-02 0. -1.
         24    2    1    2    0    0  0.00000000000E+00 -0.35527136788E-14  0.94160935754E+02  0.12404226096E+03  0.80747759616E+02 0.  0.
         66    2    3    3    0    0  0.83133119343E+01  0.21633949617E+02 -0.36286788740E+01  0.23543709609E+02  0.20000051105E+01 0.  0.
        -13    1    3    3    0    0 -0.83133119343E+01 -0.21633949617E+02  0.97789614628E+02  0.10049855135E+03  0.10566000000E+00 0.  1.
         13    1    4    4    0    0  0.33278294045E+01  0.97156277360E+01 -0.68836352624E+00  0.10293341500E+02  0.10566000000E+00 0. -1.
        -13    1    4    4    0    0  0.34025901392E+01  0.81720337035E+01 -0.20575531454E+01  0.90886986686E+01  0.10566000000E+00 0.  1.
         14    1    4    4    0    0  0.15828923906E+01  0.37462881773E+01 -0.88276220230E+00  0.41616694407E+01  0.00000000000E+00 0. -1.
<mgrwt>
<rscale>  0 0.80747760E+02</rscale>
<asrwt>0</asrwt>
<pdfrwt beam="1">  1        2 0.22985635E-02 0.80747760E+02</pdfrwt>
<pdfrwt beam="2">  1       -1 0.16784861E-01 0.80747760E+02</pdfrwt>
<totfact> 0.11363134E+05</totfact>
</mgrwt>
</event>
<event>
 8    1  0.2561077E-016  0.7873353E+02  0.7818608E-02  0.1332684E+00
          2   -1    0    0  501    0  0.00000000000E+00  0.00000000000E+00  0.38803908438E+02  0.38803908522E+02  0.25500000000E-02 0. -1.
         -1   -1    0    0    0  501 -0.00000000000E+00 -0.00000000000E+00 -0.39937782881E+02  0.39937783199E+02  0.50400000000E-02 0.  1.
         24    2    1    2    0    0  0.00000000000E+00  0.88817841970E-15 -0.11338744435E+01  0.78741691721E+02  0.78733527444E+02 0.  0.
         66    2    3    3    0    0 -0.10801817917E+02 -0.74762023431E+01  0.36519750744E+02  0.38862128965E+02  0.20000003716E+01 0.  0.
        -13    1    3    3    0    0  0.10801817917E+02  0.74762023431E+01 -0.37653625188E+02  0.39879562756E+02  0.10566000000E+00 0.  1.
         13    1    4    4    0    0 -0.45233138577E+01 -0.29677215736E+01  0.14134239843E+02  0.15134584222E+02  0.10566000000E+00 0. -1.
        -13    1    4    4    0    0 -0.46896994168E+01 -0.39979600128E+01  0.16649389834E+02  0.17753599938E+02  0.10566000000E+00 0.  1.
         14    1    4    4    0    0 -0.15888046421E+01 -0.51052075663E+00  0.57361210678E+01  0.59739448054E+01  0.00000000000E+00 0. -1.
<mgrwt>
<rscale>  0 0.78733527E+02</rscale>
<asrwt>0</asrwt>
<pdfrwt beam="1">  1        2 0.59698321E-02 0.78733527E+02</pdfrwt>
<pdfrwt beam="2">  1       -1 0.61442743E-02 0.78733527E+02</pdfrwt>
<totfact> 0.14805883E+05</totfact>
</mgrwt>
</event>
<event>
 8    1  0.2561077E-016  0.7985377E+02  0.7818608E-02  0.1329467E+00
         -1   -1    0    0    0  501 -0.00000000000E+00  0.00000000000E+00  0.18021863646E+02  0.18021864351E+02  0.50400000000E-02 0.  1.
          2   -1    0    0  501    0  0.00000000000E+00 -0.00000000000E+00 -0.88456775293E+02  0.88456775330E+02  0.25500000000E-02 0. -1.
         24    2    1    2    0    0  0.00000000000E+00  0.17763568394E-14 -0.70434911647E+02  0.10647863968E+03  0.79853765906E+02 0.  0.
         66    2    3    3    0    0 -0.34440804559E+02  0.87304011656E+01 -0.59453537285E+02  0.69290057157E+02  0.20000005005E+01 0.  0.
        -13    1    3    3    0    0  0.34440804559E+02 -0.87304011656E+01 -0.10981374362E+02  0.37188582523E+02  0.10566000000E+00 0.  1.
         13    1    4    4    0    0 -0.13608789178E+02  0.40918811148E+01 -0.22422686463E+02  0.26546763761E+02  0.10566000000E+00 0. -1.
        -13    1    4    4    0    0 -0.10974109877E+02  0.22349230725E+01 -0.19258697483E+02  0.22278567313E+02  0.10566000000E+00 0.  1.
         14    1    4    4    0    0 -0.98579055036E+01  0.24035969783E+01 -0.17772153339E+02  0.20464726083E+02  0.00000000000E+00 0. -1.
<mgrwt>
<rscale>  0 0.79853766E+02</rscale>
<asrwt>0</asrwt>
<pdfrwt beam="1">  1        2 0.13608734E-01 0.79853766E+02</pdfrwt>
<pdfrwt beam="2">  1       -1 0.27725945E-02 0.79853766E+02</pdfrwt>
<totfact> 0.17225543E+05</totfact>
</mgrwt>
</event>
<event>
 8    1  0.2561077E-016  0.7859014E+02  0.7818608E-02  0.1333101E+00
          2   -1    0    0  501    0  0.00000000000E+00  0.00000000000E+00  0.16557256161E+03  0.16557256163E+03  0.25500000000E-02 0. -1.
         -1   -1    0    0    0  501 -0.00000000000E+00 -0.00000000000E+00 -0.93258345157E+01  0.93258358776E+01  0.50400000000E-02 0.  1.
         24    2    1    2    0    0  0.00000000000E+00  0.00000000000E+00  0.15624672709E+03  0.17489839751E+03  0.78590137568E+02 0.  0.
         66    2    3    3    0    0 -0.16569306810E+02  0.60904568384E+01  0.15623800862E+03  0.15724487569E+03  0.19999997401E+01 0.  0.
        -13    1    3    3    0    0  0.16569306810E+02 -0.60904568384E+01  0.87184742221E-02  0.17653521822E+02  0.10566000000E+00 0.  1.
         13    1    4    4    0    0 -0.45598796949E+01  0.98883299899E+00  0.40495780700E+02  0.40763828477E+02  0.10566000000E+00 0. -1.
        -13    1    4    4    0    0 -0.86173986375E+00  0.47013504650E+00  0.11461477758E+02  0.11503923635E+02  0.10566000000E+00 0.  1.
         14    1    4    4    0    0 -0.11147687252E+02  0.46314887929E+01  0.10428075016E+03  0.10497712357E+03  0.00000000000E+00 0. -1.
<mgrwt>
<rscale>  0 0.78590138E+02</rscale>
<asrwt>0</asrwt>
<pdfrwt beam="1">  1        2 0.25472699E-01 0.78590138E+02</pdfrwt>
<pdfrwt beam="2">  1       -1 0.14347440E-02 0.78590138E+02</pdfrwt>
<totfact> 0.21683484E+05</totfact>
</mgrwt>
</event>
<event>
 8    1  0.2561077E-016  0.8284820E+02  0.7818608E-02  0.1321158E+00
         -1   -1    0    0    0  501 -0.00000000000E+00  0.00000000000E+00  0.19381088649E+01  0.19381154181E+01  0.50400000000E-02 0.  1.
          2   -1    0    0  501    0  0.00000000000E+00 -0.00000000000E+00 -0.88537493399E+03  0.88537493400E+03  0.25500000000E-02 0. -1.
         24    2    1    2    0    0 -0.17763568394E-14  0.35527136788E-14 -0.88343682513E+03  0.88731304942E+03  0.82848196536E+02 0.  0.
         66    2    3    3    0    0 -0.11279321546E+02  0.29725546829E+02 -0.72596863693E+03  0.72666725056E+03  0.20000031936E+01 0.  0.
        -13    1    3    3    0    0  0.11279321546E+02 -0.29725546829E+02 -0.15746818820E+03  0.16064579885E+03  0.10566000000E+00 0.  1.
         13    1    4    4    0    0 -0.28095114996E+01  0.58078767494E+01 -0.14043597273E+03  0.14058413277E+03  0.10566000000E+00 0. -1.
        -13    1    4    4    0    0 -0.18547176091E+01  0.56473657324E+01 -0.12775614275E+03  0.12789439351E+03  0.10566000000E+00 0.  1.
         14    1    4    4    0    0 -0.66150924372E+01  0.18270304347E+02 -0.45777652145E+03  0.45818872428E+03  0.00000000000E+00 0. -1.
<mgrwt>
<rscale>  0 0.82848197E+02</rscale>
<asrwt>0</asrwt>
<pdfrwt beam="1">  1        2 0.13621121E+00 0.82848197E+02</pdfrwt>
<pdfrwt beam="2">  1       -1 0.29817181E-03 0.82848197E+02</pdfrwt>
<totfact> 0.31846782E+05</totfact>
</mgrwt>
</event>
<event>
 8    1  0.2561077E-016  0.8039884E+02  0.7818608E-02  0.1327923E+00
         -1   -1    0    0    0  501 -0.00000000000E+00  0.00000000000E+00  0.12825892252E+02  0.12825893242E+02  0.50400000000E-02 0.  1.
          2   -1    0    0  501    0  0.00000000000E+00 -0.00000000000E+00 -0.12599459696E+03  0.12599459698E+03  0.25500000000E-02 0. -1.
         24    2    1    2    0    0  0.88817841970E-15  0.00000000000E+00 -0.11316870470E+03  0.13882049022E+03  0.80398835697E+02 0.  0.
         66    2    3    3    0    0  0.42637584178E+01  0.14926571742E+02 -0.12059865164E+03  0.12161010222E+03  0.20000010434E+01 0.  0.
        -13    1    3    3    0    0 -0.42637584178E+01 -0.14926571742E+02  0.74299469357E+01  0.17210388006E+02  0.10566000000E+00 0.  1.
         13    1    4    4    0    0  0.73562220612E+00  0.26289262304E+01 -0.23999021583E+02  0.24154018178E+02  0.10566000000E+00 0. -1.
        -13    1    4    4    0    0  0.13580704589E+01  0.70420493791E+01 -0.50379599212E+02  0.50887621242E+02  0.10566000000E+00 0.  1.
        -14    1    4    4    0    0  0.21700657528E+01  0.52555961325E+01 -0.46220030843E+02  0.46568462797E+02  0.00000000000E+00 0.  1.
<mgrwt>
<rscale>  0 0.80398836E+02</rscale>
<asrwt>0</asrwt>
<pdfrwt beam="1">  1        2 0.19383783E-01 0.80398836E+02</pdfrwt>
<pdfrwt beam="2">  1       -1 0.19732144E-02 0.80398836E+02</pdfrwt>
<totfact> 0.18714185E+05</totfact>
</mgrwt>
</event>
<event>
 8    1  0.2561077E-016  0.7999518E+02  0.7818608E-02  0.1329065E+00
          2   -1    0    0  501    0  0.00000000000E+00  0.00000000000E+00  0.35335119828E+03  0.35335119829E+03  0.25500000000E-02 0. -1.
         -1   -1    0    0    0  501 -0.00000000000E+00 -0.00000000000E+00 -0.45275261104E+01  0.45275289156E+01  0.50400000000E-02 0.  1.
         24    2    1    2    0    0  0.17763568394E-14  0.00000000000E+00  0.34882367217E+03  0.35787872720E+03  0.79995181854E+02 0.  0.
         66    2    3    3    0    0  0.11452867691E+02  0.35872557532E+02  0.23450785835E+03  0.23752040794E+03  0.19999998110E+01 0.  0.
        -13    1    3    3    0    0 -0.11452867691E+02 -0.35872557532E+02  0.11431581382E+03  0.12035831926E+03  0.10566000000E+00 0.  1.
         13    1    4    4    0    0  0.34060436767E+01  0.95630944114E+01  0.60438925169E+02  0.61285632475E+02  0.10566000000E+00 0. -1.
        -13    1    4    4    0    0  0.29022671574E+01  0.91374224273E+01  0.64674222372E+02  0.65381051128E+02  0.10566000000E+00 0.  1.
        -14    1    4    4    0    0  0.51445568571E+01  0.17172040694E+02  0.10939471081E+03  0.11085372434E+03  0.00000000000E+00 0.  1.
<mgrwt>
<rscale>  0 0.79995182E+02</rscale>
<asrwt>0</asrwt>
<pdfrwt beam="1">  1        2 0.54361718E-01 0.79995182E+02</pdfrwt>
<pdfrwt beam="2">  1       -1 0.69654276E-03 0.79995182E+02</pdfrwt>
<totfact> 0.27045635E+05</totfact>
</mgrwt>
</event>
<event>
 8    1  0.2561077E-016  0.7892670E+02  0.7818608E-02  0.1332125E+00
         -1   -1    0    0    0  501 -0.00000000000E+00  0.00000000000E+00  0.44342887588E+01  0.44342916231E+01  0.50400000000E-02 0.  1.
          2   -1    0    0  501    0  0.00000000000E+00 -0.00000000000E+00 -0.35120749282E+03  0.35120749283E+03  0.25500000000E-02 0. -1.
         24    2    1    2    0    0  0.35527136788E-14  0.00000000000E+00 -0.34677320406E+03  0.35564178445E+03  0.78926698864E+02 0.  0.
         66    2    3    3    0    0 -0.21200697264E+02  0.16551216010E+02 -0.30346504691E+03  0.30466120035E+03  0.19999960188E+01 0.  0.
        -13    1    3    3    0    0  0.21200697264E+02 -0.16551216010E+02 -0.43308157146E+02  0.50980584101E+02  0.10566000000E+00 0.  1.
         13    1    4    4    0    0 -0.14045937194E+02  0.10775939568E+02 -0.19327404031E+03  0.19408316529E+03  0.10566000000E+00 0. -1.
        -13    1    4    4    0    0 -0.16577636357E+00  0.28538241982E+00 -0.32734729051E+01  0.32917645457E+01  0.10566000000E+00 0. -1.
        -14    1    4    4    0    0 -0.69889837065E+01  0.54898940220E+01 -0.10691753369E+03  0.10728627051E+03  0.00000000000E+00 0.  1.
<mgrwt>
<rscale>  0 0.78926699E+02</rscale>
<asrwt>0</asrwt>
<pdfrwt beam="1">  1        2 0.54031900E-01 0.78926699E+02</pdfrwt>
<pdfrwt beam="2">  1       -1 0.68219877E-03 0.78926699E+02</pdfrwt>
<totfact> 0.27952688E+05</totfact>
</mgrwt>
</event>
<event>
 8    1  0.2561077E-016  0.8846771E+02  0.7818608E-02  0.1306605E+00
          2   -1    0    0  501    0  0.00000000000E+00  0.00000000000E+00  0.19865799850E+02  0.19865800014E+02  0.25500000000E-02 0. -1.
         -1   -1    0    0    0  501 -0.00000000000E+00 -0.00000000000E+00 -0.98492574537E+02  0.98492574665E+02  0.50400000000E-02 0.  1.
         24    2    1    2    0    0  0.35527136788E-14  0.00000000000E+00 -0.78626774686E+02  0.11835837468E+03  0.88467706872E+02 0.  0.
         66    2    3    3    0    0  0.23777006239E+02 -0.25029278163E+02 -0.23825539969E+01  0.34662477864E+02  0.20000042834E+01 0.  0.
        -13    1    3    3    0    0 -0.23777006239E+02  0.25029278163E+02 -0.76244220690E+02  0.83695896815E+02  0.10566000000E+00 0.  1.
         13    1    4    4    0    0  0.13518176515E+02 -0.13919337369E+02 -0.89930008954E+00  0.19424442174E+02  0.10566000000E+00 0. -1.
        -13    1    4    4    0    0  0.70137341289E+01 -0.73747348343E+01 -0.15142983382E+01  0.10289968115E+02  0.10566000000E+00 0.  1.
        -14    1    4    4    0    0  0.32450955945E+01 -0.37352059594E+01  0.31044430844E-01  0.49480675756E+01  0.00000000000E+00 0.  1.
<mgrwt>
<rscale>  0 0.88467707E+02</rscale>
<asrwt>0</asrwt>
<pdfrwt beam="1">  1        2 0.30562770E-02 0.88467707E+02</pdfrwt>
<pdfrwt beam="2">  1       -1 0.15152704E-01 0.88467707E+02</pdfrwt>
<totfact> 0.92568005E+04</totfact>
</mgrwt>
</event>
<event>
 8    1  0.2561077E-016  0.7983820E+02  0.7818608E-02  0.1329511E+00
          2   -1    0    0  501    0  0.00000000000E+00  0.00000000000E+00  0.14965888116E+02  0.14965888333E+02  0.25500000000E-02 0. -1.
         -1   -1    0    0    0  501 -0.00000000000E+00 -0.00000000000E+00 -0.10647777253E+03  0.10647777265E+03  0.50400000000E-02 0.  1.
         24    2    1    2    0    0  0.00000000000E+00  0.00000000000E+00 -0.91511884412E+02  0.12144366098E+03  0.79838197649E+02 0.  0.
         66    2    3    3    0    0 -0.69107090118E+01  0.17866911849E+02  0.74448171717E+01  0.20649690970E+02  0.19999990963E+01 0.  0.
        -13    1    3    3    0    0  0.69107090118E+01 -0.17866911849E+02 -0.98956701584E+02  0.10079397001E+03  0.10566000000E+00 0.  1.
         13    1    4    4    0    0 -0.64043567337E+01  0.14902319042E+02  0.61742890628E+01  0.17355918514E+02  0.10566000000E+00 0. -1.
        -13    1    4    4    0    0 -0.45849330924E+00  0.16290889298E+01  0.60063753483E+00  0.17989097642E+01  0.10566000000E+00 0.  1.
        -14    1    4    4    0    0 -0.47858968892E-01  0.13355038771E+01  0.66989057402E+00  0.14948626920E+01  0.00000000000E+00 0.  1.
<mgrwt>
<rscale>  0 0.79838198E+02</rscale>
<asrwt>0</asrwt>
<pdfrwt beam="1">  1        2 0.23024444E-02 0.79838198E+02</pdfrwt>
<pdfrwt beam="2">  1       -1 0.16381195E-01 0.79838198E+02</pdfrwt>
<totfact> 0.11752343E+05</totfact>
</mgrwt>
</event>
<event>
 8    1  0.2561077E-016  0.8014762E+02  0.7818608E-02  0.1328633E+00
          2   -1    0    0  501    0  0.00000000000E+00  0.00000000000E+00  0.40796914584E+01  0.40796922553E+01  0.25500000000E-02 0. -1.
         -1   -1    0    0    0  501 -0.00000000000E+00 -0.00000000000E+00 -0.39363516023E+03  0.39363516026E+03  0.50400000000E-02 0.  1.
         24    2    1    2    0    0  0.71054273576E-14  0.00000000000E+00 -0.38955546877E+03  0.39771485251E+03  0.80147617951E+02 0.  0.
         66    2    3    3    0    0 -0.39562318937E+02 -0.45593847547E+01 -0.21591681345E+03  0.21956783779E+03  0.19999985252E+01 0.  0.
        -13    1    3    3    0    0  0.39562318937E+02  0.45593847547E+01 -0.17363865532E+03  0.17814701472E+03  0.10566000000E+00 0.  1.
         13    1    4    4    0    0 -0.46569782588E+01 -0.72885065961E+00 -0.23705484094E+02  0.24169811956E+02  0.10566000000E+00 0. -1.
        -13    1    4    4    0    0 -0.86574006441E+01 -0.13876648284E+01 -0.45515150484E+02  0.46352090430E+02  0.10566000000E+00 0.  1.
        -14    1    4    4    0    0 -0.26247940034E+02 -0.24428692668E+01 -0.14669617887E+03  0.14904593541E+03  0.00000000000E+00 0.  1.
<mgrwt>
<rscale>  0 0.80147618E+02</rscale>
<asrwt>0</asrwt>
<pdfrwt beam="1">  1        2 0.62764521E-03 0.80147618E+02</pdfrwt>
<pdfrwt beam="2">  1       -1 0.60559226E-01 0.80147618E+02</pdfrwt>
<totfact> 0.76060284E+04</totfact>
</mgrwt>
</event>
<event>
 8    1  0.2561077E-016  0.8020156E+02  0.7818608E-02  0.1328480E+00
          2   -1    0    0  501    0  0.00000000000E+00  0.00000000000E+00  0.20449838288E+03  0.20449838290E+03  0.25500000000E-02 0. -1.
         -1   -1    0    0    0  501 -0.00000000000E+00 -0.00000000000E+00 -0.78634972221E+01  0.78634988372E+01  0.50400000000E-02 0.  1.
         24    2    1    2    0    0  0.00000000000E+00 -0.35527136788E-14  0.19663488566E+03  0.21236188173E+03  0.80201562052E+02 0.  0.
         66    2    3    3    0    0  0.26561693095E+01 -0.17028109578E+02  0.19418002884E+03  0.19495357230E+03  0.20000009617E+01 0.  0.
        -13    1    3    3    0    0 -0.26561693095E+01  0.17028109578E+02  0.24548568238E+01  0.17408309432E+02  0.10566000000E+00 0.  1.
         13    1    4    4    0    0  0.21412525543E+01 -0.12545479242E+02  0.14024997362E+03  0.14082627694E+03  0.10566000000E+00 0. -1.
        -13    1    4    4    0    0  0.12621929024E+00 -0.34796062820E+01  0.44484369612E+02  0.44620554624E+02  0.10566000000E+00 0.  1.
         14    1    4    4    0    0  0.38869746493E+00 -0.10030240546E+01  0.94456856041E+01  0.95067407404E+01  0.00000000000E+00 0. -1.
<mgrwt>
<rscale>  0 0.80201562E+02</rscale>
<asrwt>0</asrwt>
<pdfrwt beam="1">  1        2 0.31461292E-01 0.80201562E+02</pdfrwt>
<pdfrwt beam="2">  1       -1 0.12097688E-02 0.80201562E+02</pdfrwt>
<totfact> 0.22082885E+05</totfact>
</mgrwt>
</event>
<event>
 8    1  0.2561077E-016  0.7858570E+02  0.7818608E-02  0.1333114E+00
          2   -1    0    0  501    0  0.00000000000E+00  0.00000000000E+00  0.79625360585E+01  0.79625364669E+01  0.25500000000E-02 0. -1.
         -1   -1    0    0    0  501 -0.00000000000E+00 -0.00000000000E+00 -0.19389904840E+03  0.19389904847E+03  0.50400000000E-02 0.  1.
         24    2    1    2    0    0  0.00000000000E+00  0.35527136788E-14 -0.18593651234E+03  0.20186158493E+03  0.78585703851E+02 0.  0.
         66    2    3    3    0    0 -0.16655956147E+02 -0.28070449173E+02 -0.36953801924E+02  0.49345257415E+02  0.19999901985E+01 0.  0.
        -13    1    3    3    0    0  0.16655956147E+02  0.28070449173E+02 -0.14898271042E+03  0.15251632752E+03  0.10566000000E+00 0.  1.
         13    1    4    4    0    0 -0.85193912813E+00 -0.15377825107E+01 -0.23022243503E+01  0.28986162773E+01  0.10566000000E+00 0. -1.
        -13    1    4    4    0    0 -0.23700532365E+01 -0.31272324931E+01 -0.39125480617E+01  0.55421955740E+01  0.10566000000E+00 0.  1.
         14    1    4    4    0    0 -0.13433963782E+02 -0.23405434169E+02 -0.30739029512E+02  0.40904445564E+02  0.00000000000E+00 0. -1.
<mgrwt>
<rscale>  0 0.78585704E+02</rscale>
<asrwt>0</asrwt>
<pdfrwt beam="1">  1        2 0.12250057E-02 0.78585704E+02</pdfrwt>
<pdfrwt beam="2">  1       -1 0.29830619E-01 0.78585704E+02</pdfrwt>
<totfact> 0.10519739E+05</totfact>
</mgrwt>
</event>
<event>
 8    1  0.2561077E-016  0.7893981E+02  0.7818608E-02  0.1332087E+00
          2   -1    0    0  501    0  0.00000000000E+00  0.00000000000E+00  0.35847982681E+03  0.35847982682E+03  0.25500000000E-02 0. -1.
         -1   -1    0    0    0  501 -0.00000000000E+00 -0.00000000000E+00 -0.43457760827E+01  0.43457790053E+01  0.50400000000E-02 0.  1.
         24    2    1    2    0    0  0.00000000000E+00 -0.35527136788E-14  0.35413405073E+03  0.36282560583E+03  0.78939814779E+02 0.  0.
         66    2    3    3    0    0 -0.10994369208E+02  0.22733850317E+02  0.31645181340E+03  0.31746409926E+03  0.20000012236E+01 0.  0.
        -13    1    3    3    0    0  0.10994369208E+02 -0.22733850317E+02  0.37682237327E+02  0.45361506572E+02  0.10566000000E+00 0.  1.
         13    1    4    4    0    0 -0.80702597992E+01  0.16708919604E+02  0.22880105524E+03  0.22955228409E+03  0.10566000000E+00 0. -1.
        -13    1    4    4    0    0 -0.76646591625E+00  0.26450523988E+01  0.37228102557E+02  0.37329968607E+02  0.10566000000E+00 0.  1.
        -14    1    4    4    0    0 -0.21576434927E+01  0.33798783138E+01  0.50422655605E+02  0.50581846557E+02  0.00000000000E+00 0.  1.
<mgrwt>
<rscale>  0 0.78939815E+02</rscale>
<asrwt>0</asrwt>
<pdfrwt beam="1">  1        2 0.55150763E-01 0.78939815E+02</pdfrwt>
<pdfrwt beam="2">  1       -1 0.66858092E-03 0.78939815E+02</pdfrwt>
<totfact> 0.28145097E+05</totfact>
</mgrwt>
</event>
<event>
 8    1  0.2561077E-016  0.7895296E+02  0.7818608E-02  0.1332049E+00
         -1   -1    0    0    0  501 -0.00000000000E+00  0.00000000000E+00  0.18761822114E+01  0.18761889809E+01  0.50400000000E-02 0.  1.
          2   -1    0    0  501    0  0.00000000000E+00 -0.00000000000E+00 -0.83061749108E+03  0.83061749108E+03  0.25500000000E-02 0. -1.
         24    2    1    2    0    0  0.17763568394E-14  0.71054273576E-14 -0.82874130887E+03  0.83249368006E+03  0.78952962722E+02 0.  0.
         66    2    3    3    0    0 -0.10838065338E+02 -0.30815282690E+02 -0.64788433358E+03  0.64871037837E+03  0.19999994781E+01 0.  0.
        -13    1    3    3    0    0  0.10838065338E+02  0.30815282690E+02 -0.18085697529E+03  0.18378330169E+03  0.10566000000E+00 0.  1.
         13    1    4    4    0    0 -0.50967179166E+01 -0.15896508810E+02 -0.33124510584E+03  0.33166550444E+03  0.10566000000E+00 0. -1.
        -13    1    4    4    0    0 -0.48611406031E+01 -0.12499198755E+02 -0.25613038232E+03  0.25648127528E+03  0.10566000000E+00 0.  1.
         14    1    4    4    0    0 -0.88020681810E+00 -0.24195751250E+01 -0.60508845419E+02  0.60563598653E+02  0.00000000000E+00 0. -1.
<mgrwt>
<rscale>  0 0.78952963E+02</rscale>
<asrwt>0</asrwt>
<pdfrwt beam="1">  1        2 0.12778701E+00 0.78952963E+02</pdfrwt>
<pdfrwt beam="2">  1       -1 0.28864460E-03 0.78952963E+02</pdfrwt>
<totfact> 0.35779841E+05</totfact>
</mgrwt>
</event>
<event>
 8    1  0.2561077E-016  0.7991198E+02  0.7818608E-02  0.1329301E+00
         -1   -1    0    0    0  501 -0.00000000000E+00  0.00000000000E+00  0.11842492961E+02  0.11842494033E+02  0.50400000000E-02 0.  1.
          2   -1    0    0  501    0  0.00000000000E+00 -0.00000000000E+00 -0.13480955550E+03  0.13480955552E+03  0.25500000000E-02 0. -1.
         24    2    1    2    0    0  0.00000000000E+00  0.00000000000E+00 -0.12296706254E+03  0.14665204956E+03  0.79911983893E+02 0.  0.
         66    2    3    3    0    0 -0.13165852579E+02  0.33361385871E+02 -0.29306756877E+02  0.46359548531E+02  0.19999999860E+01 0.  0.
        -13    1    3    3    0    0  0.13165852579E+02 -0.33361385871E+02 -0.93660305662E+02  0.10029250103E+03  0.10566000000E+00 0.  1.
         13    1    4    4    0    0 -0.60452859070E+00  0.25026281948E+01 -0.22245388051E+01  0.34041650415E+01  0.10566000000E+00 0. -1.
        -13    1    4    4    0    0 -0.98782744769E+00  0.27216529148E+01 -0.19410470030E+01  0.34874095197E+01  0.10566000000E+00 0.  1.
         14    1    4    4    0    0 -0.11573496541E+02  0.28137104761E+02 -0.25141171069E+02  0.39467973970E+02  0.00000000000E+00 0. -1.
<mgrwt>
<rscale>  0 0.79911984E+02</rscale>
<asrwt>0</asrwt>
<pdfrwt beam="1">  1        2 0.20739931E-01 0.79911984E+02</pdfrwt>
<pdfrwt beam="2">  1       -1 0.18219222E-02 0.79911984E+02</pdfrwt>
<totfact> 0.19420090E+05</totfact>
</mgrwt>
</event>
<event>
 8    1  0.2561077E-016  0.7908734E+02  0.7818608E-02  0.1331662E+00
          2   -1    0    0  501    0  0.00000000000E+00  0.00000000000E+00  0.14427815524E+04  0.14427815524E+04  0.25500000000E-02 0. -1.
         -1   -1    0    0    0  501 -0.00000000000E+00 -0.00000000000E+00 -0.10838047999E+01  0.10838165185E+01  0.50400000000E-02 0.  1.
         24    2    1    2    0    0 -0.17763568394E-14 -0.35527136788E-14  0.14416977476E+04  0.14438653689E+04  0.79087344964E+02 0.  0.
         66    2    3    3    0    0 -0.13461368653E+02 -0.10114414380E+02  0.13740135863E+04  0.13741182064E+04  0.20000010062E+01 0.  0.
        -13    1    3    3    0    0  0.13461368653E+02  0.10114414380E+02  0.67684161241E+02  0.69747162460E+02  0.10566000000E+00 0.  1.
         13    1    4    4    0    0 -0.54795936345E+01 -0.37094280217E+01  0.49829393219E+03  0.49833787718E+03  0.10566000000E+00 0. -1.
        -13    1    4    4    0    0 -0.11063124402E+01 -0.14794936929E+01  0.16133390318E+03  0.16134451435E+03  0.10566000000E+00 0.  1.
        -14    1    4    4    0    0 -0.68754625779E+01 -0.49254926655E+01  0.71438575095E+03  0.71443581491E+03  0.00000000000E+00 0.  1.
<mgrwt>
<rscale>  0 0.79087345E+02</rscale>
<asrwt>0</asrwt>
<pdfrwt beam="1">  1        2 0.22196543E+00 0.79087345E+02</pdfrwt>
<pdfrwt beam="2">  1       -1 0.16674082E-03 0.79087345E+02</pdfrwt>
<totfact> 0.34725423E+05</totfact>
</mgrwt>
</event>
<event>
 8    1  0.2561077E-016  0.8068116E+02  0.7818608E-02  0.1327129E+00
          2   -1    0    0  501    0  0.00000000000E+00  0.00000000000E+00  0.63457932855E+01  0.63457937979E+01  0.25500000000E-02 0. -1.
         -1   -1    0    0    0  501 -0.00000000000E+00 -0.00000000000E+00 -0.25644743824E+03  0.25644743829E+03  0.50400000000E-02 0.  1.
         24    2    1    2    0    0  0.00000000000E+00  0.00000000000E+00 -0.25010164496E+03  0.26279323209E+03  0.80681162746E+02 0.  0.
         66    2    3    3    0    0  0.18034921113E+02 -0.35721859587E+02 -0.14110023523E+03  0.14667851245E+03  0.19999997212E+01 0.  0.
        -13    1    3    3    0    0 -0.18034921113E+02  0.35721859587E+02 -0.10900140973E+03  0.11611471964E+03  0.10566000000E+00 0.  1.
         13    1    4    4    0    0  0.11858505203E+02 -0.23318047226E+02 -0.93267838320E+02  0.96867209627E+02  0.10566000000E+00 0. -1.
        -13    1    4    4    0    0  0.16848147870E+01 -0.44103153313E+01 -0.17133151285E+02  0.17772043191E+02  0.10566000000E+00 0.  1.
         14    1    4    4    0    0  0.44916011230E+01 -0.79934970299E+01 -0.30699245627E+02  0.32039259628E+02  0.00000000000E+00 0. -1.
<mgrwt>
<rscale>  0 0.80681163E+02</rscale>
<asrwt>0</asrwt>
<pdfrwt beam="1">  1        2 0.97627613E-03 0.80681163E+02</pdfrwt>
<pdfrwt beam="2">  1       -1 0.39453444E-01 0.80681163E+02</pdfrwt>
<totfact> 0.89803415E+04</totfact>
</mgrwt>
</event>
<event>
 8    1  0.2561077E-016  0.7954959E+02  0.7818608E-02  0.1330335E+00
         -1   -1    0    0    0  501 -0.00000000000E+00  0.00000000000E+00  0.34278223161E+02  0.34278223531E+02  0.50400000000E-02 0.  1.
          2   -1    0    0  501    0  0.00000000000E+00 -0.00000000000E+00 -0.46152751286E+02  0.46152751356E+02  0.25500000000E-02 0. -1.
         24    2    1    2    0    0  0.71054273576E-14  0.55511151231E-16 -0.11874528125E+02  0.80430974888E+02  0.79549590214E+02 0.  0.
         66    2    3    3    0    0  0.27922168984E+02  0.38146355989E+00 -0.34542882540E+02  0.44463510547E+02  0.20000001931E+01 0.  0.
        -13    1    3    3    0    0 -0.27922168984E+02 -0.38146355989E+00  0.22668354414E+02  0.35967464341E+02  0.10566000000E+00 0.  1.
         13    1    4    4    0    0  0.17416698203E+01 -0.37120340868E+00 -0.18591519052E+01  0.25765899122E+01  0.10566000000E+00 0. -1.
        -13    1    4    4    0    0  0.10956555067E+02  0.55707371048E+00 -0.13837122854E+02  0.17658809784E+02  0.10566000000E+00 0.  1.
         14    1    4    4    0    0  0.15223944096E+02  0.19559325808E+00 -0.18846607780E+02  0.24228110851E+02  0.00000000000E+00 0. -1.
<mgrwt>
<rscale>  0 0.79549590E+02</rscale>
<asrwt>0</asrwt>
<pdfrwt beam="1">  1        2 0.71004233E-02 0.79549590E+02</pdfrwt>
<pdfrwt beam="2">  1       -1 0.52735729E-02 0.79549590E+02</pdfrwt>
<totfact> 0.14917341E+05</totfact>
</mgrwt>
</event>
<event>
 8    1  0.2561077E-016  0.7956793E+02  0.7818608E-02  0.1330282E+00
          2   -1    0    0  501    0  0.00000000000E+00  0.00000000000E+00  0.89009558666E+03  0.89009558666E+03  0.25500000000E-02 0. -1.
         -1   -1    0    0    0  501 -0.00000000000E+00 -0.00000000000E+00 -0.17781917517E+01  0.17781988943E+01  0.50400000000E-02 0.  1.
         24    2    1    2    0    0  0.00000000000E+00  0.88817841970E-15  0.88831739491E+03  0.89187378556E+03  0.79567928645E+02 0.  0.
         66    2    3    3    0    0 -0.18133699024E+02 -0.73891261217E+01  0.83229589165E+03  0.83252860702E+03  0.20000032246E+01 0.  0.
        -13    1    3    3    0    0  0.18133699024E+02  0.73891261217E+01  0.56021503256E+02  0.59345178542E+02  0.10566000000E+00 0.  1.
         13    1    4    4    0    0 -0.28631259785E+01 -0.50362692162E+00  0.11258292456E+03  0.11262050079E+03  0.10566000000E+00 0. -1.
        -13    1    4    4    0    0 -0.17387434824E+01 -0.80232565117E+00  0.76109614718E+02  0.76133774187E+02  0.10566000000E+00 0.  1.
         14    1    4    4    0    0 -0.13531829563E+02 -0.60831735489E+01  0.64360335237E+03  0.64377433204E+03  0.00000000000E+00 0. -1.
<mgrwt>
<rscale>  0 0.79567929E+02</rscale>
<asrwt>0</asrwt>
<pdfrwt beam="1">  1        2 0.13693763E+00 0.79567929E+02</pdfrwt>
<pdfrwt beam="2">  1       -1 0.27356881E-03 0.79567929E+02</pdfrwt>
<totfact> 0.35396950E+05</totfact>
</mgrwt>
</event>
<event>
 8    1  0.2561077E-016  0.7975009E+02  0.7818608E-02  0.1329762E+00
          2   -1    0    0  501    0  0.00000000000E+00  0.00000000000E+00  0.28446112789E+02  0.28446112903E+02  0.25500000000E-02 0. -1.
         -1   -1    0    0    0  501 -0.00000000000E+00 -0.00000000000E+00 -0.55895838543E+02  0.55895838771E+02  0.50400000000E-02 0.  1.
         24    2    1    2    0    0  0.00000000000E+00 -0.35527136788E-14 -0.27449725755E+02  0.84341951674E+02  0.79750093217E+02 0.  0.
         66    2    3    3    0    0  0.29206345579E+01  0.31446783887E+02 -0.39434665513E+02  0.50562072040E+02  0.19999904493E+01 0.  0.
        -13    1    3    3    0    0 -0.29206345579E+01 -0.31446783887E+02  0.11984939758E+02  0.33779879634E+02  0.10566000000E+00 0.  1.
         13    1    4    4    0    0  0.22766935232E+01  0.22013742957E+02 -0.28220551961E+02  0.35863615677E+02  0.10566000000E+00 0. -1.
        -13    1    4    4    0    0  0.16601037802E+00  0.77343941791E+01 -0.90715109815E+01  0.11922746675E+02  0.10566000000E+00 0.  1.
        -14    1    4    4    0    0  0.47793065674E+00  0.16986467505E+01 -0.21426025699E+01  0.27757096873E+01  0.00000000000E+00 0.  1.
<mgrwt>
<rscale>  0 0.79750093E+02</rscale>
<asrwt>0</asrwt>
<pdfrwt beam="1">  1        2 0.43763251E-02 0.79750093E+02</pdfrwt>
<pdfrwt beam="2">  1       -1 0.85993598E-02 0.79750093E+02</pdfrwt>
<totfact> 0.13432478E+05</totfact>
</mgrwt>
</event>
<event>
 8    1  0.2561077E-016  0.8020855E+02  0.7818608E-02  0.1328461E+00
         -1   -1    0    0    0  501 -0.00000000000E+00  0.00000000000E+00  0.48548855023E+02  0.48548855285E+02  0.50400000000E-02 0.  1.
          2   -1    0    0  501    0  0.00000000000E+00 -0.00000000000E+00 -0.33128544401E+02  0.33128544499E+02  0.25500000000E-02 0. -1.
         24    2    1    2    0    0  0.00000000000E+00 -0.17763568394E-14  0.15420310622E+02  0.81677399784E+02  0.80208551014E+02 0.  0.
         66    2    3    3    0    0 -0.20267744743E+02 -0.13002985043E+02 -0.24910652471E+02  0.34704462415E+02  0.20000019897E+01 0.  0.
        -13    1    3    3    0    0  0.20267744743E+02  0.13002985043E+02  0.40330963094E+02  0.46972937369E+02  0.10566000000E+00 0.  1.
         13    1    4    4    0    0 -0.10412638567E+02 -0.59164408120E+01 -0.12368128647E+02  0.17216535194E+02  0.10566000000E+00 0. -1.
        -13    1    4    4    0    0 -0.56972411418E+01 -0.41544636389E+01 -0.65213297247E+01  0.96050523252E+01  0.10566000000E+00 0.  1.
         14    1    4    4    0    0 -0.41578650341E+01 -0.29320805916E+01 -0.60211940999E+01  0.78828748960E+01  0.00000000000E+00 0. -1.
<mgrwt>
<rscale>  0 0.80208551E+02</rscale>
<asrwt>0</asrwt>
<pdfrwt beam="1">  1        2 0.50966992E-02 0.80208551E+02</pdfrwt>
<pdfrwt beam="2">  1       -1 0.74690546E-02 0.80208551E+02</pdfrwt>
<totfact> 0.13623110E+05</totfact>
</mgrwt>
</event>
<event>
 8    1  0.2561077E-016  0.7929601E+02  0.7818608E-02  0.1331061E+00
         -1   -1    0    0    0  501 -0.00000000000E+00  0.00000000000E+00  0.57871503130E+02  0.57871503350E+02  0.50400000000E-02 0.  1.
          2   -1    0    0  501    0  0.00000000000E+00 -0.00000000000E+00 -0.27163011427E+02  0.27163011547E+02  0.25500000000E-02 0. -1.
         24    2    1    2    0    0  0.00000000000E+00  0.00000000000E+00  0.30708491703E+02  0.85034514897E+02  0.79296010373E+02 0.  0.
         66    2    3    3    0    0  0.37564402221E+02 -0.89396882058E+01  0.58351623827E+01  0.39103087584E+02  0.19999997775E+01 0.  0.
        -13    1    3    3    0    0 -0.37564402221E+02  0.89396882058E+01  0.24873329321E+02  0.45931427313E+02  0.10566000000E+00 0.  1.
         13    1    4    4    0    0  0.25192530341E+02 -0.63113409804E+01  0.37014933391E+01  0.26233734521E+02  0.10566000000E+00 0. -1.
        -13    1    4    4    0    0  0.10565876764E+02 -0.24950554606E+01  0.15522164865E+01  0.10967387729E+02  0.10566000000E+00 0.  1.
        -14    1    4    4    0    0  0.18059951166E+01 -0.13329176480E+00  0.58145255701E+00  0.19019653340E+01  0.00000000000E+00 0.  1.
<mgrwt>
<rscale>  0 0.79296010E+02</rscale>
<asrwt>0</asrwt>
<pdfrwt beam="1">  1        2 0.41789249E-02 0.79296010E+02</pdfrwt>
<pdfrwt beam="2">  1       -1 0.89033081E-02 0.79296010E+02</pdfrwt>
<totfact> 0.13526990E+05</totfact>
</mgrwt>
</event>
<event>
 8    1  0.2561077E-016  0.8214265E+02  0.7818608E-02  0.1323079E+00
          2   -1    0    0  501    0  0.00000000000E+00  0.00000000000E+00  0.10824721631E+03  0.10824721634E+03  0.25500000000E-02 0. -1.
         -1   -1    0    0    0  501 -0.00000000000E+00 -0.00000000000E+00 -0.15583344282E+02  0.15583345097E+02  0.50400000000E-02 0.  1.
         24    2    1    2    0    0  0.00000000000E+00  0.00000000000E+00  0.92663872029E+02  0.12383056144E+03  0.82142648891E+02 0.  0.
         66    2    3    3    0    0 -0.33375402517E+02 -0.88702049588E+01  0.79805950375E+02  0.86980387185E+02  0.20000026426E+01 0.  0.
        -13    1    3    3    0    0  0.33375402517E+02  0.88702049588E+01  0.12857921654E+02  0.36850174253E+02  0.10566000000E+00 0.  1.
         13    1    4    4    0    0 -0.59327809126E+01 -0.13243991063E+01  0.14702029522E+02  0.15909517858E+02  0.10566000000E+00 0. -1.
        -13    1    4    4    0    0 -0.27369895310E+02 -0.74797285456E+01  0.64586540058E+02  0.70544240226E+02  0.10566000000E+00 0.  1.
        -14    1    4    4    0    0 -0.72726293983E-01 -0.66077306850E-01  0.51738079454E+00  0.52662910181E+00  0.00000000000E+00 0.  1.
<mgrwt>
<rscale>  0 0.82142649E+02</rscale>
<asrwt>0</asrwt>
<pdfrwt beam="1">  1        2 0.16653418E-01 0.82142649E+02</pdfrwt>
<pdfrwt beam="2">  1       -1 0.23974377E-02 0.82142649E+02</pdfrwt>
<totfact> 0.16890706E+05</totfact>
</mgrwt>
</event>
<event>
 8    1  0.2561077E-016  0.8024553E+02  0.7818608E-02  0.1328356E+00
         -1   -1    0    0    0  501 -0.00000000000E+00  0.00000000000E+00  0.14719482831E+03  0.14719482839E+03  0.50400000000E-02 0.  1.
          2   -1    0    0  501    0  0.00000000000E+00 -0.00000000000E+00 -0.10936771176E+02  0.10936771473E+02  0.25500000000E-02 0. -1.
         24    2    1    2    0    0 -0.22204460493E-15  0.00000000000E+00  0.13625805713E+03  0.15813159987E+03  0.80245527870E+02 0.  0.
         66    2    3    3    0    0  0.11869264629E+01 -0.34205511471E+02  0.27004831331E+02  0.43642716907E+02  0.20000036108E+01 0.  0.
        -13    1    3    3    0    0 -0.11869264629E+01  0.34205511471E+02  0.10925322580E+03  0.11448888296E+03  0.10566000000E+00 0.  1.
         13    1    4    4    0    0  0.10092009032E+01 -0.14686463479E+02  0.11185910519E+02  0.18489090139E+02  0.10566000000E+00 0. -1.
        -13    1    4    4    0    0 -0.93694818177E-01 -0.11275347961E+02  0.84176519803E+01  0.14071612533E+02  0.10566000000E+00 0.  1.
        -14    1    4    4    0    0  0.27142037797E+00 -0.82437000303E+01  0.74012688311E+01  0.11082014236E+02  0.00000000000E+00 0.  1.
<mgrwt>
<rscale>  0 0.80245528E+02</rscale>
<asrwt>0</asrwt>
<pdfrwt beam="1">  1        2 0.16825802E-02 0.80245528E+02</pdfrwt>
<pdfrwt beam="2">  1       -1 0.22645358E-01 0.80245528E+02</pdfrwt>
<totfact> 0.10755459E+05</totfact>
</mgrwt>
</event>
<event>
 8    1  0.2561077E-016  0.8057977E+02  0.7818608E-02  0.1327414E+00
          2   -1    0    0  501    0  0.00000000000E+00  0.00000000000E+00  0.80880284564E+03  0.80880284565E+03  0.25500000000E-02 0. -1.
         -1   -1    0    0    0  501 -0.00000000000E+00 -0.00000000000E+00 -0.20070061654E+01  0.20070124936E+01  0.50400000000E-02 0.  1.
         24    2    1    2    0    0  0.17763568394E-14  0.17763568394E-14  0.80679583948E+03  0.81080985814E+03  0.80579770785E+02 0.  0.
         66    2    3    3    0    0  0.15483943344E+02  0.15134905778E+02  0.74523516161E+03  0.74555232143E+03  0.20000025479E+01 0.  0.
        -13    1    3    3    0    0 -0.15483943344E+02 -0.15134905778E+02  0.61560677864E+02  0.65257536710E+02  0.10566000000E+00 0.  1.
         13    1    4    4    0    0  0.74390518947E+01  0.72353966884E+01  0.36136123289E+03  0.36151022428E+03  0.10566000000E+00 0. -1.
        -13    1    4    4    0    0  0.16198241251E+00  0.30192230450E-01  0.38548172478E+01  0.38597836626E+01  0.10566000000E+00 0. -1.
        -14    1    4    4    0    0  0.78829090372E+01  0.78693168596E+01  0.38001911148E+03  0.38018231349E+03  0.00000000000E+00 0.  1.
<mgrwt>
<rscale>  0 0.80579771E+02</rscale>
<asrwt>0</asrwt>
<pdfrwt beam="1">  1        2 0.12443115E+00 0.80579771E+02</pdfrwt>
<pdfrwt beam="2">  1       -1 0.30877081E-03 0.80579771E+02</pdfrwt>
<totfact> 0.33789571E+05</totfact>
</mgrwt>
</event>
<event>
 8    1  0.2561077E-016  0.8801395E+02  0.7818608E-02  0.1307734E+00
         -1   -1    0    0    0  501 -0.00000000000E+00  0.00000000000E+00  0.12385266393E+03  0.12385266403E+03  0.50400000000E-02 0.  1.
          2   -1    0    0  501    0  0.00000000000E+00 -0.00000000000E+00 -0.15636430990E+02  0.15636431198E+02  0.25500000000E-02 0. -1.
         24    2    1    2    0    0  0.00000000000E+00  0.00000000000E+00  0.10821623294E+03  0.13948909523E+03  0.88013945579E+02 0.  0.
         66    2    3    3    0    0 -0.33137537500E+02  0.92477736273E+01  0.10704351506E+02  0.36086020356E+02  0.20000038320E+01 0.  0.
        -13    1    3    3    0    0  0.33137537500E+02 -0.92477736273E+01  0.97511881433E+02  0.10340307487E+03  0.10566000000E+00 0.  1.
         13    1    4    4    0    0 -0.13360796331E+02  0.37050241712E+01  0.35932966386E+01  0.14323443283E+02  0.10566000000E+00 0. -1.
        -13    1    4    4    0    0 -0.72459095570E+01  0.15301443492E+01  0.27656287354E+01  0.79059732719E+01  0.10566000000E+00 0.  1.
         14    1    4    4    0    0 -0.12530831612E+02  0.40126051069E+01  0.43454261320E+01  0.13856603801E+02  0.00000000000E+00 0. -1.
<mgrwt>
<rscale>  0 0.88013946E+02</rscale>
<asrwt>0</asrwt>
<pdfrwt beam="1">  1        2 0.24056049E-02 0.88013946E+02</pdfrwt>
<pdfrwt beam="2">  1       -1 0.19054255E-01 0.88013946E+02</pdfrwt>
<totfact> 0.88907948E+04</totfact>
</mgrwt>
</event>
<event>
 8    1  0.2561077E-016  0.7974599E+02  0.7818608E-02  0.1329774E+00
         -1   -1    0    0    0  501 -0.00000000000E+00  0.00000000000E+00  0.13653255461E+02  0.13653256391E+02  0.50400000000E-02 0.  1.
          2   -1    0    0  501    0  0.00000000000E+00 -0.00000000000E+00 -0.11644516303E+03  0.11644516305E+03  0.25500000000E-02 0. -1.
         24    2    1    2    0    0  0.17763568394E-14  0.71054273576E-14 -0.10279190757E+03  0.13009841945E+03  0.79745987242E+02 0.  0.
         66    2    3    3    0    0 -0.13958593366E+02 -0.36746011640E+02 -0.40762839291E+02  0.56663222330E+02  0.19999993968E+01 0.  0.
        -13    1    3    3    0    0  0.13958593366E+02  0.36746011640E+02 -0.62029068275E+02  0.73435197115E+02  0.10566000000E+00 0.  1.
         13    1    4    4    0    0 -0.64893155339E+01 -0.17300365447E+02 -0.17905913580E+02  0.25730269448E+02  0.10566000000E+00 0. -1.
        -13    1    4    4    0    0 -0.64986645941E+01 -0.17489470749E+02 -0.20388903376E+02  0.27637524736E+02  0.10566000000E+00 0.  1.
         14    1    4    4    0    0 -0.97061323784E+00 -0.19561754437E+01 -0.24680223347E+01  0.32954281465E+01  0.00000000000E+00 0. -1.
<mgrwt>
<rscale>  0 0.79745987E+02</rscale>
<asrwt>0</asrwt>
<pdfrwt beam="1">  1        2 0.17914640E-01 0.79745987E+02</pdfrwt>
<pdfrwt beam="2">  1       -1 0.21005010E-02 0.79745987E+02</pdfrwt>
<totfact> 0.18677942E+05</totfact>
</mgrwt>
</event>
<event>
 8    1  0.2561077E-016  0.8256239E+02  0.7818608E-02  0.1321933E+00
         -1   -1    0    0    0  501 -0.00000000000E+00  0.00000000000E+00  0.14241321421E+01  0.14241410604E+01  0.50400000000E-02 0.  1.
          2   -1    0    0  501    0  0.00000000000E+00 -0.00000000000E+00 -0.11966105453E+04  0.11966105453E+04  0.25500000000E-02 0. -1.
         24    2    1    2    0    0  0.35527136788E-14  0.44408920985E-15 -0.11951864131E+04  0.11980346864E+04  0.82562385696E+02 0.  0.
         66    2    3    3    0    0 -0.23715754733E+02 -0.20638735544E+01 -0.10868972928E+04  0.10871597958E+04  0.19999995094E+01 0.  0.
        -13    1    3    3    0    0  0.23715754733E+02  0.20638735544E+01 -0.10828912036E+03  0.11087489052E+03  0.10566000000E+00 0.  1.
         13    1    4    4    0    0 -0.19666868938E+02 -0.10389754235E+01 -0.90208304609E+03  0.90229800976E+03  0.10566000000E+00 0. -1.
        -13    1    4    4    0    0 -0.38092023123E+01 -0.93955954267E+00 -0.17656955649E+03  0.17661317119E+03  0.10566000000E+00 0.  1.
         14    1    4    4    0    0 -0.23968348270E+00 -0.85338588154E-01 -0.82446902098E+01  0.82486148838E+01  0.00000000000E+00 0. -1.
<mgrwt>
<rscale>  0 0.82562386E+02</rscale>
<asrwt>0</asrwt>
<pdfrwt beam="1">  1        2 0.18409313E+00 0.82562386E+02</pdfrwt>
<pdfrwt beam="2">  1       -1 0.21909890E-03 0.82562386E+02</pdfrwt>
<totfact> 0.32289893E+05</totfact>
</mgrwt>
</event>
<event>
 8    1  0.2561077E-016  0.8457305E+02  0.7818608E-02  0.1316553E+00
         -1   -1    0    0    0  501 -0.00000000000E+00  0.00000000000E+00  0.16430348521E+02  0.16430349294E+02  0.50400000000E-02 0.  1.
          2   -1    0    0  501    0  0.00000000000E+00 -0.00000000000E+00 -0.10883215627E+03  0.10883215630E+03  0.25500000000E-02 0. -1.
         24    2    1    2    0    0 -0.71054273576E-14  0.00000000000E+00 -0.92401807745E+02  0.12526250559E+03  0.84573052635E+02 0.  0.
         66    2    3    3    0    0  0.33462375575E+02 -0.27697900783E+01 -0.84240976593E+02  0.90708017526E+02  0.19999974987E+01 0.  0.
        -13    1    3    3    0    0 -0.33462375575E+02  0.27697900783E+01 -0.81608311517E+01  0.34554488063E+02  0.10566000000E+00 0.  1.
         13    1    4    4    0    0  0.91831440291E+01 -0.11045888163E+01 -0.22550545963E+02  0.24373931525E+02  0.10566000000E+00 0. -1.
        -13    1    4    4    0    0  0.49920358763E+01 -0.88751971465E+00 -0.13542582669E+02  0.14461010435E+02  0.10566000000E+00 0.  1.
         14    1    4    4    0    0  0.19287195669E+02 -0.77768154741E+00 -0.48147847961E+02  0.51873075566E+02  0.00000000000E+00 0. -1.
<mgrwt>
<rscale>  0 0.84573053E+02</rscale>
<asrwt>0</asrwt>
<pdfrwt beam="1">  1        2 0.16743408E-01 0.84573053E+02</pdfrwt>
<pdfrwt beam="2">  1       -1 0.25277461E-02 0.84573053E+02</pdfrwt>
<totfact> 0.15642787E+05</totfact>
</mgrwt>
</event>
<event>
 8    1  0.2561077E-016  0.7998897E+02  0.7818608E-02  0.1329083E+00
         -1   -1    0    0    0  501 -0.00000000000E+00  0.00000000000E+00  0.74722942244E+01  0.74722959241E+01  0.50400000000E-02 0.  1.
          2   -1    0    0  501    0  0.00000000000E+00 -0.00000000000E+00 -0.21406524748E+03  0.21406524749E+03  0.25500000000E-02 0. -1.
         24    2    1    2    0    0  0.00000000000E+00  0.00000000000E+00 -0.20659295325E+03  0.22153754342E+03  0.79988966797E+02 0.  0.
         66    2    3    3    0    0 -0.22260986834E+02  0.32378320247E+02 -0.12364649358E+03  0.12975500971E+03  0.20000034890E+01 0.  0.
        -13    1    3    3    0    0  0.22260986834E+02 -0.32378320247E+02 -0.82946459673E+02  0.91782533704E+02  0.10566000000E+00 0.  1.
         13    1    4    4    0    0 -0.18210315175E+02  0.26154585118E+02 -0.97802545577E+02  0.10286411904E+03  0.10566000000E+00 0. -1.
        -13    1    4    4    0    0 -0.21782634061E+01  0.31761090541E+01 -0.13593616199E+02  0.14129050413E+02  0.10566000000E+00 0.  1.
         14    1    4    4    0    0 -0.18724082524E+01  0.30476260754E+01 -0.12250331803E+02  0.12761840253E+02  0.00000000000E+00 0. -1.
<mgrwt>
<rscale>  0 0.79988967E+02</rscale>
<asrwt>0</asrwt>
<pdfrwt beam="1">  1        2 0.32933110E-01 0.79988967E+02</pdfrwt>
<pdfrwt beam="2">  1       -1 0.11495840E-02 0.79988967E+02</pdfrwt>
<totfact> 0.22596848E+05</totfact>
</mgrwt>
</event>
<event>
 8    1  0.2561077E-016  0.8022226E+02  0.7818608E-02  0.1328422E+00
         -1   -1    0    0    0  501 -0.00000000000E+00  0.00000000000E+00  0.13219508939E+01  0.13219605014E+01  0.50400000000E-02 0.  1.
          2   -1    0    0  501    0  0.00000000000E+00 -0.00000000000E+00 -0.12170625327E+04  0.12170625327E+04  0.25500000000E-02 0. -1.
         24    2    1    2    0    0 -0.17763568394E-14  0.17763568394E-14 -0.12157405818E+04  0.12183844932E+04  0.80222260189E+02 0.  0.
         66    2    3    3    0    0 -0.12419709619E+02  0.11787594527E+02 -0.11587222698E+04  0.11588505059E+04  0.20000018012E+01 0.  0.
        -13    1    3    3    0    0  0.12419709619E+02 -0.11787594527E+02 -0.57018311972E+02  0.59533987234E+02  0.10566000000E+00 0.  1.
         13    1    4    4    0    0 -0.91220540444E+01  0.85447625640E+01 -0.80156203389E+03  0.80165948518E+03  0.10566000000E+00 0. -1.
        -13    1    4    4    0    0 -0.27515071909E+00  0.91144399874E-01 -0.17547025615E+02  0.17549737524E+02  0.10566000000E+00 0. -1.
         14    1    4    4    0    0 -0.30225048552E+01  0.31516875628E+01 -0.33961321030E+03  0.33964128324E+03  0.00000000000E+00 0. -1.
<mgrwt>
<rscale>  0 0.80222260E+02</rscale>
<asrwt>0</asrwt>
<pdfrwt beam="1">  1        2 0.18723949E+00 0.80222260E+02</pdfrwt>
<pdfrwt beam="2">  1       -1 0.20337877E-03 0.80222260E+02</pdfrwt>
<totfact> 0.34729054E+05</totfact>
</mgrwt>
</event>
<event>
 8    1  0.2561077E-016  0.8098238E+02  0.7818608E-02  0.1326286E+00
         -1   -1    0    0    0  501 -0.00000000000E+00  0.00000000000E+00  0.39460905350E+01  0.39460937536E+01  0.50400000000E-02 0.  1.
          2   -1    0    0  501    0  0.00000000000E+00 -0.00000000000E+00 -0.41548352305E+03  0.41548352305E+03  0.25500000000E-02 0. -1.
         24    2    1    2    0    0 -0.35527136788E-14  0.00000000000E+00 -0.41153743251E+03  0.41942961681E+03  0.80982375227E+02 0.  0.
         66    2    3    3    0    0  0.21617120298E+02 -0.22279509311E+01 -0.38269353079E+03  0.38331527774E+03  0.19999975051E+01 0.  0.
        -13    1    3    3    0    0 -0.21617120298E+02  0.22279509311E+01 -0.28843901724E+02  0.36114339064E+02  0.10566000000E+00 0.  1.
         13    1    4    4    0    0  0.11731294968E+02 -0.91523004265E+00 -0.20424473795E+03  0.20458344281E+03  0.10566000000E+00 0. -1.
        -13    1    4    4    0    0  0.50476659607E+01 -0.10358343289E+01 -0.10124584099E+03  0.10137693705E+03  0.10566000000E+00 0.  1.
        -14    1    4    4    0    0  0.48381593689E+01 -0.27688655957E+00 -0.77202951846E+02  0.77354897880E+02  0.00000000000E+00 0.  1.
<mgrwt>
<rscale>  0 0.80982375E+02</rscale>
<asrwt>0</asrwt>
<pdfrwt beam="1">  1        2 0.63920508E-01 0.80982375E+02</pdfrwt>
<pdfrwt beam="2">  1       -1 0.60709143E-03 0.80982375E+02</pdfrwt>
<totfact> 0.27730587E+05</totfact>
</mgrwt>
</event>
<event>
 8    1  0.2561077E-016  0.7890492E+02  0.7818608E-02  0.1332188E+00
         -1   -1    0    0    0  501 -0.00000000000E+00  0.00000000000E+00  0.58720938826E+00  0.58723101694E+00  0.50400000000E-02 0.  1.
          2   -1    0    0  501    0  0.00000000000E+00 -0.00000000000E+00 -0.26506184951E+04  0.26506184951E+04  0.25500000000E-02 0. -1.
         24    2    1    2    0    0  0.00000000000E+00  0.17763568394E-14 -0.26500312857E+04  0.26512057261E+04  0.78904923488E+02 0.  0.
         66    2    3    3    0    0 -0.30520062042E+01 -0.11183847702E+02 -0.25920536650E+04  0.25920803605E+04  0.19999735358E+01 0.  0.
        -13    1    3    3    0    0  0.30520062042E+01  0.11183847702E+02 -0.57977620737E+02  0.59125365637E+02  0.10566000000E+00 0.  1.
         13    1    4    4    0    0 -0.19740687162E+01 -0.72177221305E+01 -0.15175470548E+04  0.15175655067E+04  0.10566000000E+00 0. -1.
        -13    1    4    4    0    0 -0.43494219232E-02 -0.62891257717E+00 -0.24604822595E+03  0.24604905244E+03  0.10566000000E+00 0.  1.
        -14    1    4    4    0    0 -0.10735880661E+01 -0.33372129946E+01 -0.82845838420E+03  0.82846580131E+03  0.00000000000E+00 0.  1.
<mgrwt>
<rscale>  0 0.78904923E+02</rscale>
<asrwt>0</asrwt>
<pdfrwt beam="1">  1        2 0.40777788E+00 0.78904923E+02</pdfrwt>
<pdfrwt beam="2">  1       -1 0.90343692E-04 0.78904923E+02</pdfrwt>
<totfact> 0.19636285E+05</totfact>
</mgrwt>
</event>
<event>
 8    1  0.2561077E-016  0.7995587E+02  0.7818608E-02  0.1329177E+00
         -1   -1    0    0    0  501 -0.00000000000E+00  0.00000000000E+00  0.18824544843E+01  0.18824612312E+01  0.50400000000E-02 0.  1.
          2   -1    0    0  501    0  0.00000000000E+00 -0.00000000000E+00 -0.84901513677E+03  0.84901513677E+03  0.25500000000E-02 0. -1.
         24    2    1    2    0    0  0.00000000000E+00 -0.17763568394E-14 -0.84713268228E+03  0.85089759800E+03  0.79955868415E+02 0.  0.
         66    2    3    3    0    0  0.55372534881E+01 -0.10955072840E+02 -0.82844781612E+03  0.82854116303E+03  0.20000004925E+01 0.  0.
        -13    1    3    3    0    0 -0.55372534881E+01  0.10955072840E+02 -0.18684866159E+02  0.22356434969E+02  0.10566000000E+00 0.  1.
         13    1    4    4    0    0  0.51449771876E+00 -0.32212155303E+00 -0.56358454802E+02  0.56361822734E+02  0.10566000000E+00 0. -1.
        -13    1    4    4    0    0  0.17860177834E+01 -0.29410285707E+01 -0.22700574181E+03  0.22703184245E+03  0.10566000000E+00 0.  1.
         14    1    4    4    0    0  0.32367379859E+01 -0.76919227166E+01 -0.54508361952E+03  0.54514749785E+03  0.00000000000E+00 0. -1.
<mgrwt>
<rscale>  0 0.79955868E+02</rscale>
<asrwt>0</asrwt>
<pdfrwt beam="1">  1        2 0.13061741E+00 0.79955868E+02</pdfrwt>
<pdfrwt beam="2">  1       -1 0.28960958E-03 0.79955868E+02</pdfrwt>
<totfact> 0.34739308E+05</totfact>
</mgrwt>
</event>
<event>
 8    1  0.2561077E-016  0.8070565E+02  0.7818608E-02  0.1327061E+00
         -1   -1    0    0    0  501 -0.00000000000E+00  0.00000000000E+00  0.17476235552E+01  0.17476308227E+01  0.50400000000E-02 0.  1.
          2   -1    0    0  501    0  0.00000000000E+00 -0.00000000000E+00 -0.93174943304E+03  0.93174943305E+03  0.25500000000E-02 0. -1.
         24    2    1    2    0    0  0.00000000000E+00  0.17763568394E-14 -0.93000180949E+03  0.93349706387E+03  0.80705654088E+02 0.  0.
         66    2    3    3    0    0 -0.11486706711E+02  0.10649055621E+02 -0.89512451287E+03  0.89526378255E+03  0.19999992529E+01 0.  0.
        -13    1    3    3    0    0  0.11486706711E+02 -0.10649055621E+02 -0.34877296622E+02  0.38233281319E+02  0.10566000000E+00 0.  1.
         13    1    4    4    0    0 -0.55166910000E+01  0.52276453244E+01 -0.41495709335E+03  0.41502670112E+03  0.10566000000E+00 0. -1.
        -13    1    4    4    0    0 -0.48978995401E+01  0.38289210949E+01 -0.38624494981E+03  0.38629499411E+03  0.10566000000E+00 0.  1.
        -14    1    4    4    0    0 -0.10721161705E+01  0.15924892022E+01 -0.93922469708E+02  0.93942087325E+02  0.00000000000E+00 0.  1.
<mgrwt>
<rscale>  0 0.80705654E+02</rscale>
<asrwt>0</asrwt>
<pdfrwt beam="1">  1        2 0.14334567E+00 0.80705654E+02</pdfrwt>
<pdfrwt beam="2">  1       -1 0.26886647E-03 0.80705654E+02</pdfrwt>
<totfact> 0.34276526E+05</totfact>
</mgrwt>
</event>
<event>
 8    1  0.2561077E-016  0.7953353E+02  0.7818608E-02  0.1330380E+00
          2   -1    0    0  501    0  0.00000000000E+00  0.00000000000E+00  0.40602755682E+02  0.40602755762E+02  0.25500000000E-02 0. -1.
         -1   -1    0    0    0  501 -0.00000000000E+00 -0.00000000000E+00 -0.38947982047E+02  0.38947982373E+02  0.50400000000E-02 0.  1.
         24    2    1    2    0    0  0.00000000000E+00 -0.35527136788E-14  0.16547736352E+01  0.79550738135E+02  0.79533525396E+02 0.  0.
         66    2    3    3    0    0  0.60476120853E+01  0.26159874629E+02  0.30134041635E+02  0.40410062075E+02  0.19999997818E+01 0.  0.
        -13    1    3    3    0    0 -0.60476120853E+01 -0.26159874629E+02 -0.28479268000E+02  0.39140676059E+02  0.10566000000E+00 0.  1.
         13    1    4    4    0    0  0.40044090109E+01  0.16525851969E+02  0.20289422448E+02  0.26472833285E+02  0.10566000000E+00 0. -1.
        -13    1    4    4    0    0  0.17579598843E+00  0.17552830446E+01  0.16764393253E+01  0.24358849815E+01  0.10566000000E+00 0.  1.
         14    1    4    4    0    0  0.18674070860E+01  0.78787396159E+01  0.81681798613E+01  0.11501343809E+02  0.00000000000E+00 0. -1.
<mgrwt>
<rscale>  0 0.79533525E+02</rscale>
<asrwt>0</asrwt>
<pdfrwt beam="1">  1        2 0.62465778E-02 0.79533525E+02</pdfrwt>
<pdfrwt beam="2">  1       -1 0.59919973E-02 0.79533525E+02</pdfrwt>
<totfact> 0.14531975E+05</totfact>
</mgrwt>
</event>
<event>
 8    1  0.2561077E-016  0.8057207E+02  0.7818608E-02  0.1327436E+00
         -1   -1    0    0    0  501 -0.00000000000E+00  0.00000000000E+00  0.13853941225E+01  0.13854032901E+01  0.50400000000E-02 0.  1.
          2   -1    0    0  501    0  0.00000000000E+00 -0.00000000000E+00 -0.11714784025E+04  0.11714784025E+04  0.25500000000E-02 0. -1.
         24    2    1    2    0    0  0.00000000000E+00  0.35527136788E-14 -0.11700930084E+04  0.11728638058E+04  0.80572071372E+02 0.  0.
         66    2    3    3    0    0  0.81108636164E+01 -0.19340571873E+02 -0.10856815633E+04  0.10858859520E+04  0.20000003406E+01 0.  0.
        -13    1    3    3    0    0 -0.81108636164E+01  0.19340571873E+02 -0.84411445115E+02  0.86977853845E+02  0.10566000000E+00 0.  1.
         13    1    4    4    0    0  0.61820134604E+01 -0.14483481125E+02 -0.77226982543E+03  0.77243037418E+03  0.10566000000E+00 0. -1.
        -13    1    4    4    0    0  0.16124870604E+01 -0.37234664394E+01 -0.24920523066E+03  0.24923828451E+03  0.10566000000E+00 0.  1.
         14    1    4    4    0    0  0.31636309555E+00 -0.11336243093E+01 -0.64206507191E+02  0.64217293273E+02  0.00000000000E+00 0. -1.
<mgrwt>
<rscale>  0 0.80572071E+02</rscale>
<asrwt>0</asrwt>
<pdfrwt beam="1">  1        2 0.18022665E+00 0.80572071E+02</pdfrwt>
<pdfrwt beam="2">  1       -1 0.21313920E-03 0.80572071E+02</pdfrwt>
<totfact> 0.34477425E+05</totfact>
</mgrwt>
</event>
<event>
 8    1  0.2561077E-016  0.7798353E+02  0.7818608E-02  0.1334873E+00
         -1   -1    0    0    0  501 -0.00000000000E+00  0.00000000000E+00  0.41094216031E+01  0.41094246938E+01  0.50400000000E-02 0.  1.
          2   -1    0    0  501    0  0.00000000000E+00 -0.00000000000E+00 -0.36996861318E+03  0.36996861319E+03  0.25500000000E-02 0. -1.
         24    2    1    2    0    0  0.00000000000E+00  0.17763568394E-14 -0.36585919157E+03  0.37407803788E+03  0.77983526239E+02 0.  0.
         66    2    3    3    0    0  0.36761931611E+02  0.88986088903E+01 -0.13812045335E+03  0.14321970707E+03  0.20000003589E+01 0.  0.
        -13    1    3    3    0    0 -0.36761931611E+02 -0.88986088903E+01 -0.22773873822E+03  0.23085833081E+03  0.10566000000E+00 0.  1.
         13    1    4    4    0    0  0.35242637333E+01  0.42431369624E+00 -0.14090641228E+02  0.14531270118E+02  0.10566000000E+00 0. -1.
        -13    1    4    4    0    0  0.15605794648E+02  0.43263324728E+01 -0.57548822926E+02  0.59784079515E+02  0.10566000000E+00 0.  1.
         14    1    4    4    0    0  0.17631873230E+02  0.41479627213E+01 -0.66480989200E+02  0.68904357434E+02  0.00000000000E+00 0. -1.
<mgrwt>
<rscale>  0 0.77983526E+02</rscale>
<asrwt>0</asrwt>
<pdfrwt beam="1">  1        2 0.56918222E-01 0.77983526E+02</pdfrwt>
<pdfrwt beam="2">  1       -1 0.63221924E-03 0.77983526E+02</pdfrwt>
<totfact> 0.29381186E+05</totfact>
</mgrwt>
</event>
<event>
 8    1  0.2561077E-016  0.8013350E+02  0.7818608E-02  0.1328673E+00
          2   -1    0    0  501    0  0.00000000000E+00  0.00000000000E+00  0.12095492472E+03  0.12095492475E+03  0.25500000000E-02 0. -1.
         -1   -1    0    0    0  501 -0.00000000000E+00 -0.00000000000E+00 -0.13272252743E+02  0.13272253700E+02  0.50400000000E-02 0.  1.
         24    2    1    2    0    0  0.35527136788E-14  0.27755575616E-16  0.10768267198E+03  0.13422717844E+03  0.80133498548E+02 0.  0.
         66    2    3    3    0    0  0.18375864670E+02 -0.14756406012E+00  0.11346601194E+03  0.11496186343E+03  0.19999996629E+01 0.  0.
        -13    1    3    3    0    0 -0.18375864670E+02  0.14756406012E+00 -0.57833399680E+01  0.19265315018E+02  0.10566000000E+00 0.  1.
         13    1    4    4    0    0  0.12077089016E+02 -0.32079196126E+00  0.77026235871E+02  0.77968013717E+02  0.10566000000E+00 0. -1.
        -13    1    4    4    0    0  0.29003423398E+01 -0.32451643510E+00  0.15170282461E+02  0.15448816478E+02  0.10566000000E+00 0.  1.
        -14    1    4    4    0    0  0.33984333146E+01  0.49774433624E+00  0.21269493612E+02  0.21545033231E+02  0.00000000000E+00 0.  1.
<mgrwt>
<rscale>  0 0.80133499E+02</rscale>
<asrwt>0</asrwt>
<pdfrwt beam="1">  1        2 0.18608450E-01 0.80133499E+02</pdfrwt>
<pdfrwt beam="2">  1       -1 0.20418852E-02 0.80133499E+02</pdfrwt>
<totfact> 0.18647869E+05</totfact>
</mgrwt>
</event>
<event>
 8    1  0.2561077E-016  0.7901459E+02  0.7818608E-02  0.1331871E+00
          2   -1    0    0  501    0  0.00000000000E+00  0.00000000000E+00  0.37429927356E+03  0.37429927357E+03  0.25500000000E-02 0. -1.
         -1   -1    0    0    0  501 -0.00000000000E+00 -0.00000000000E+00 -0.41699945636E+01  0.41699976093E+01  0.50400000000E-02 0.  1.
         24    2    1    2    0    0 -0.44408920985E-15 -0.35527136788E-14  0.37012927900E+03  0.37846927118E+03  0.79014593941E+02 0.  0.
         66    2    3    3    0    0 -0.35507460493E+01 -0.30914448556E+02  0.30157864103E+03  0.30318639094E+03  0.19999999267E+01 0.  0.
        -13    1    3    3    0    0  0.35507460493E+01  0.30914448556E+02  0.68550637964E+02  0.75282880234E+02  0.10566000000E+00 0.  1.
         13    1    4    4    0    0 -0.20054300142E+01 -0.17705266939E+02  0.17602608109E+03  0.17692566409E+03  0.10566000000E+00 0. -1.
        -13    1    4    4    0    0 -0.70448463175E+00 -0.95580622368E+01  0.86870962907E+02  0.87398101883E+02  0.10566000000E+00 0.  1.
         14    1    4    4    0    0 -0.84083140333E+00 -0.36511193803E+01  0.38681597039E+02  0.38862624971E+02  0.00000000000E+00 0. -1.
<mgrwt>
<rscale>  0 0.79014594E+02</rscale>
<asrwt>0</asrwt>
<pdfrwt beam="1">  1        2 0.57584503E-01 0.79014594E+02</pdfrwt>
<pdfrwt beam="2">  1       -1 0.64153788E-03 0.79014594E+02</pdfrwt>
<totfact> 0.28508354E+05</totfact>
</mgrwt>
</event>
<event>
 8    1  0.2561077E-016  0.8066448E+02  0.7818608E-02  0.1327176E+00
         -1   -1    0    0    0  501 -0.00000000000E+00  0.00000000000E+00  0.42699676208E+02  0.42699676505E+02  0.50400000000E-02 0.  1.
          2   -1    0    0  501    0  0.00000000000E+00 -0.00000000000E+00 -0.38096066149E+02  0.38096066235E+02  0.25500000000E-02 0. -1.
         24    2    1    2    0    0 -0.88817841970E-15  0.00000000000E+00  0.46036100586E+01  0.80795742740E+02  0.80664483010E+02 0.  0.
         66    2    3    3    0    0  0.62626516078E+01 -0.36235328013E+02 -0.14230155698E+02  0.39480591790E+02  0.19999988780E+01 0.  0.
        -13    1    3    3    0    0 -0.62626516078E+01  0.36235328013E+02  0.18833765756E+02  0.41315150950E+02  0.10566000000E+00 0.  1.
         13    1    4    4    0    0  0.12772612862E+01 -0.10277363244E+02 -0.40570745218E+01  0.11123246349E+02  0.10566000000E+00 0. -1.
        -13    1    4    4    0    0  0.29274992436E+01 -0.11785065497E+02 -0.44065468750E+01  0.12918468949E+02  0.10566000000E+00 0.  1.
        -14    1    4    4    0    0  0.20578910781E+01 -0.14172899273E+02 -0.57665343009E+01  0.15438876492E+02  0.00000000000E+00 0.  1.
<mgrwt>
<rscale>  0 0.80664483E+02</rscale>
<asrwt>0</asrwt>
<pdfrwt beam="1">  1        2 0.58609333E-02 0.80664483E+02</pdfrwt>
<pdfrwt beam="2">  1       -1 0.65691810E-02 0.80664483E+02</pdfrwt>
<totfact> 0.13793733E+05</totfact>
</mgrwt>
</event>
<event>
 8    1  0.2561077E-016  0.7805786E+02  0.7818608E-02  0.1334655E+00
         -1   -1    0    0    0  501 -0.00000000000E+00  0.00000000000E+00  0.35890837368E+01  0.35890872755E+01  0.50400000000E-02 0.  1.
          2   -1    0    0  501    0  0.00000000000E+00 -0.00000000000E+00 -0.42441375260E+03  0.42441375261E+03  0.25500000000E-02 0. -1.
         24    2    1    2    0    0  0.17763568394E-14 -0.35527136788E-14 -0.42082466886E+03  0.42800283988E+03  0.78057856902E+02 0.  0.
         66    2    3    3    0    0 -0.97714449818E+01  0.25140497774E+02 -0.36502767154E+03  0.36602831415E+03  0.20000011677E+01 0.  0.
        -13    1    3    3    0    0  0.97714449818E+01 -0.25140497774E+02 -0.55796997317E+02  0.61974525726E+02  0.10566000000E+00 0.  1.
         13    1    4    4    0    0 -0.50975199667E+01  0.13112548989E+02 -0.17947266072E+03  0.18002325061E+03  0.10566000000E+00 0. -1.
        -13    1    4    4    0    0 -0.42170275403E+01  0.11257016045E+02 -0.17031934559E+03  0.17074306539E+03  0.10566000000E+00 0.  1.
        -14    1    4    4    0    0 -0.45689747483E+00  0.77093274017E+00 -0.15235665238E+02  0.15261998160E+02  0.00000000000E+00 0.  1.
<mgrwt>
<rscale>  0 0.78057857E+02</rscale>
<asrwt>0</asrwt>
<pdfrwt beam="1">  1        2 0.65294384E-01 0.78057857E+02</pdfrwt>
<pdfrwt beam="2">  1       -1 0.55216734E-03 0.78057857E+02</pdfrwt>
<totfact> 0.30748063E+05</totfact>
</mgrwt>
</event>
<event>
 8    1  0.2561077E-016  0.8060432E+02  0.7818608E-02  0.1327345E+00
         -1   -1    0    0    0  501 -0.00000000000E+00  0.00000000000E+00  0.30396130703E+01  0.30396172487E+01  0.50400000000E-02 0.  1.
          2   -1    0    0  501    0  0.00000000000E+00 -0.00000000000E+00 -0.53436503484E+03  0.53436503484E+03  0.25500000000E-02 0. -1.
         24    2    1    2    0    0  0.00000000000E+00  0.71054273576E-14 -0.53132542177E+03  0.53740465209E+03  0.80604319204E+02 0.  0.
         66    2    3    3    0    0 -0.11807800399E+02  0.32302034315E+02 -0.40558482412E+03  0.40704532319E+03  0.20000008200E+01 0.  0.
        -13    1    3    3    0    0  0.11807800399E+02 -0.32302034315E+02 -0.12574059765E+03  0.13035932891E+03  0.10566000000E+00 0.  1.
         13    1    4    4    0    0 -0.10734201884E+02  0.29301776266E+02 -0.36220520067E+03  0.36354701999E+03  0.10566000000E+00 0. -1.
        -13    1    4    4    0    0 -0.46811369645E+00  0.11088040780E+01 -0.18620357008E+02  0.18659513286E+02  0.10566000000E+00 0.  1.
        -14    1    4    4    0    0 -0.60548481870E+00  0.18914539706E+01 -0.24759266436E+02  0.24838789915E+02  0.00000000000E+00 0.  1.
<mgrwt>
<rscale>  0 0.80604319E+02</rscale>
<asrwt>0</asrwt>
<pdfrwt beam="1">  1        2 0.82209931E-01 0.80604319E+02</pdfrwt>
<pdfrwt beam="2">  1       -1 0.46763353E-03 0.80604319E+02</pdfrwt>
<totfact> 0.30486338E+05</totfact>
</mgrwt>
</event>
<event>
 8    1  0.2561077E-016  0.8207645E+02  0.7818608E-02  0.1323260E+00
         -1   -1    0    0    0  501 -0.00000000000E+00  0.00000000000E+00  0.87488492495E+02  0.87488492640E+02  0.50400000000E-02 0.  1.
          2   -1    0    0  501    0  0.00000000000E+00 -0.00000000000E+00 -0.19249796894E+02  0.19249797062E+02  0.25500000000E-02 0. -1.
         24    2    1    2    0    0  0.00000000000E+00  0.00000000000E+00  0.68238695602E+02  0.10673828970E+03  0.82076445533E+02 0.  0.
         66    2    3    3    0    0 -0.19761845170E+02  0.19440628580E+02 -0.51696779856E+01  0.28270021971E+02  0.20000019195E+01 0.  0.
        -13    1    3    3    0    0  0.19761845170E+02 -0.19440628580E+02  0.73408373587E+02  0.78468267732E+02  0.10566000000E+00 0.  1.
         13    1    4    4    0    0 -0.47906639441E+01  0.56241923665E+01 -0.12857619842E+01  0.74997565772E+01  0.10566000000E+00 0. -1.
        -13    1    4    4    0    0 -0.21864022373E+01  0.18142696530E+01 -0.18818089282E+00  0.28492990719E+01  0.10566000000E+00 0.  1.
         14    1    4    4    0    0 -0.12784778988E+02  0.12002166560E+02 -0.36957351086E+01  0.17920966322E+02  0.00000000000E+00 0. -1.
<mgrwt>
<rscale>  0 0.82076446E+02</rscale>
<asrwt>0</asrwt>
<pdfrwt beam="1">  1        2 0.29615072E-02 0.82076446E+02</pdfrwt>
<pdfrwt beam="2">  1       -1 0.13459768E-01 0.82076446E+02</pdfrwt>
<totfact> 0.11440921E+05</totfact>
</mgrwt>
</event>
<event>
 8    1  0.2561077E-016  0.7920169E+02  0.7818608E-02  0.1331332E+00
         -1   -1    0    0    0  501 -0.00000000000E+00  0.00000000000E+00  0.27424990814E+01  0.27425037125E+01  0.50400000000E-02 0.  1.
          2   -1    0    0  501    0  0.00000000000E+00 -0.00000000000E+00 -0.57182354520E+03  0.57182354521E+03  0.25500000000E-02 0. -1.
         24    2    1    2    0    0  0.00000000000E+00  0.00000000000E+00 -0.56908104612E+03  0.57456604892E+03  0.79201688859E+02 0.  0.
         66    2    3    3    0    0  0.24916587503E+01 -0.35989261541E+02 -0.40276807212E+03  0.40438540433E+03  0.20000007071E+01 0.  0.
        -13    1    3    3    0    0 -0.24916587503E+01  0.35989261541E+02 -0.16631297400E+03  0.17018064460E+03  0.10566000000E+00 0.  1.
         13    1    4    4    0    0  0.15637342580E+01 -0.10996554313E+02 -0.12067555694E+03  0.12118568677E+03  0.10566000000E+00 0.  1.
        -13    1    4    4    0    0  0.22952542635E+00 -0.24807794955E+01 -0.29054633448E+02  0.29161444369E+02  0.10566000000E+00 0. -1.
         14    1    4    4    0    0  0.69839906590E+00 -0.22511927733E+02 -0.25303788173E+03  0.25403827318E+03  0.00000000000E+00 0. -1.
<mgrwt>
<rscale>  0 0.79201689E+02</rscale>
<asrwt>0</asrwt>
<pdfrwt beam="1">  1        2 0.87972759E-01 0.79201689E+02</pdfrwt>
<pdfrwt beam="2">  1       -1 0.42192375E-03 0.79201689E+02</pdfrwt>
<totfact> 0.32564764E+05</totfact>
</mgrwt>
</event>
<event>
 8    1  0.2561077E-016  0.7941520E+02  0.7818608E-02  0.1330719E+00
         -1   -1    0    0    0  501 -0.00000000000E+00  0.00000000000E+00  0.63944446992E+01  0.63944466855E+01  0.50400000000E-02 0.  1.
          2   -1    0    0  501    0  0.00000000000E+00 -0.00000000000E+00 -0.24657233282E+03  0.24657233283E+03  0.25500000000E-02 0. -1.
         24    2    1    2    0    0 -0.71054273576E-14  0.35527136788E-14 -0.24017788812E+03  0.25296677951E+03  0.79415197524E+02 0.  0.
         66    2    3    3    0    0  0.35824152969E+02 -0.16971638986E+02 -0.12593558997E+03  0.13204233899E+03  0.19999998752E+01 0.  0.
        -13    1    3    3    0    0 -0.35824152969E+02  0.16971638986E+02 -0.11424229815E+03  0.12092444052E+03  0.10566000000E+00 0.  1.
         13    1    4    4    0    0  0.54029084457E+01 -0.21981016523E+01 -0.18156586851E+02  0.19070812271E+02  0.10566000000E+00 0. -1.
        -13    1    4    4    0    0  0.15728310003E+02 -0.82282030383E+01 -0.54573646236E+02  0.57387952467E+02  0.10566000000E+00 0.  1.
        -14    1    4    4    0    0  0.14692934521E+02 -0.65453342954E+01 -0.53205356883E+02  0.55583574255E+02  0.00000000000E+00 0.  1.
<mgrwt>
<rscale>  0 0.79415198E+02</rscale>
<asrwt>0</asrwt>
<pdfrwt beam="1">  1        2 0.37934198E-01 0.79415198E+02</pdfrwt>
<pdfrwt beam="2">  1       -1 0.98376107E-03 0.79415198E+02</pdfrwt>
<totfact> 0.24213191E+05</totfact>
</mgrwt>
</event>
<event>
 8    1  0.2561077E-016  0.8028118E+02  0.7818608E-02  0.1328255E+00
          2   -1    0    0  501    0  0.00000000000E+00  0.00000000000E+00  0.55278042867E+01  0.55278048748E+01  0.25500000000E-02 0. -1.
         -1   -1    0    0    0  501 -0.00000000000E+00 -0.00000000000E+00 -0.29148405304E+03  0.29148405309E+03  0.50400000000E-02 0.  1.
         24    2    1    2    0    0  0.00000000000E+00  0.71054273576E-14 -0.28595624875E+03  0.29701185796E+03  0.80281178161E+02 0.  0.
         66    2    3    3    0    0  0.23688199308E+02 -0.30865757853E+02 -0.10692425610E+03  0.11380080111E+03  0.19999990613E+01 0.  0.
        -13    1    3    3    0    0 -0.23688199308E+02  0.30865757853E+02 -0.17903199266E+03  0.18321105685E+03  0.10566000000E+00 0.  1.
         13    1    4    4    0    0  0.47919456907E+01 -0.58095116767E+01 -0.21052910086E+02  0.22359547324E+02  0.10566000000E+00 0. -1.
        -13    1    4    4    0    0  0.46187381898E+01 -0.53696684222E+01 -0.17916866350E+02  0.19266326720E+02  0.10566000000E+00 0.  1.
        -14    1    4    4    0    0  0.14277515428E+02 -0.19686577754E+02 -0.67954479661E+02  0.72174927062E+02  0.00000000000E+00 0.  1.
<mgrwt>
<rscale>  0 0.80281178E+02</rscale>
<asrwt>0</asrwt>
<pdfrwt beam="1">  1        2 0.85043170E-03 0.80281178E+02</pdfrwt>
<pdfrwt beam="2">  1       -1 0.44843689E-01 0.80281178E+02</pdfrwt>
<totfact> 0.86653569E+04</totfact>
</mgrwt>
</event>
<event>
 8    1  0.2561077E-016  0.7928365E+02  0.7818608E-02  0.1331097E+00
          2   -1    0    0  501    0  0.00000000000E+00  0.00000000000E+00  0.26010703515E+03  0.26010703516E+03  0.25500000000E-02 0. -1.
         -1   -1    0    0    0  501 -0.00000000000E+00 -0.00000000000E+00 -0.60416440879E+01  0.60416461901E+01  0.50400000000E-02 0.  1.
         24    2    1    2    0    0  0.00000000000E+00  0.00000000000E+00  0.25406539106E+03  0.26614868135E+03  0.79283653108E+02 0.  0.
         66    2    3    3    0    0  0.12704450853E+01  0.31063158324E+02  0.20954156813E+03  0.21184476061E+03  0.19999965416E+01 0.  0.
        -13    1    3    3    0    0 -0.12704450853E+01 -0.31063158324E+02  0.44523822926E+02  0.54303920741E+02  0.10566000000E+00 0.  1.
         13    1    4    4    0    0  0.10438100767E+01  0.27323040037E+02  0.18357651245E+03  0.18560168410E+03  0.10566000000E+00 0. -1.
        -13    1    4    4    0    0 -0.23237413335E+00  0.10320697365E+01  0.72259229315E+01  0.73037176785E+01  0.10566000000E+00 0.  1.
         14    1    4    4    0    0  0.45900914194E+00  0.27080485506E+01  0.18739132757E+02  0.18939358828E+02  0.00000000000E+00 0. -1.
<mgrwt>
<rscale>  0 0.79283653E+02</rscale>
<asrwt>0</asrwt>
<pdfrwt beam="1">  1        2 0.40016466E-01 0.79283653E+02</pdfrwt>
<pdfrwt beam="2">  1       -1 0.92948390E-03 0.79283653E+02</pdfrwt>
<totfact> 0.24789519E+05</totfact>
</mgrwt>
</event>
<event>
 8    1  0.2561077E-016  0.7629257E+02  0.7818608E-02  0.1339914E+00
         -1   -1    0    0    0  501 -0.00000000000E+00  0.00000000000E+00  0.72001702132E+02  0.72001702309E+02  0.50400000000E-02 0.  1.
          2   -1    0    0  501    0  0.00000000000E+00 -0.00000000000E+00 -0.20209784310E+02  0.20209784471E+02  0.25500000000E-02 0. -1.
         24    2    1    2    0    0  0.00000000000E+00  0.00000000000E+00  0.51791917822E+02  0.92211486780E+02  0.76292565447E+02 0.  0.
         66    2    3    3    0    0  0.20101391365E+02  0.11790745260E+02 -0.10547797645E+02  0.25658208144E+02  0.20000003544E+01 0.  0.
        -13    1    3    3    0    0 -0.20101391365E+02 -0.11790745260E+02  0.62339715468E+02  0.66553278636E+02  0.10566000000E+00 0.  1.
         13    1    4    4    0    0  0.60280532339E+01  0.29556765311E+01 -0.31474328474E+01  0.74155881164E+01  0.10566000000E+00 0. -1.
        -13    1    4    4    0    0  0.81402630383E+01  0.54373999314E+01 -0.36779730622E+01  0.10457908502E+02  0.10566000000E+00 0.  1.
        -14    1    4    4    0    0  0.59330750927E+01  0.33976687972E+01 -0.37223917356E+01  0.77847115261E+01  0.00000000000E+00 0.  1.
<mgrwt>
<rscale>  0 0.76292565E+02</rscale>
<asrwt>0</asrwt>
<pdfrwt beam="1">  1        2 0.31091975E-02 0.76292565E+02</pdfrwt>
<pdfrwt beam="2">  1       -1 0.11077185E-01 0.76292565E+02</pdfrwt>
<totfact> 0.14248043E+05</totfact>
</mgrwt>
</event>
<event>
 8    1  0.2561077E-016  0.7903482E+02  0.7818608E-02  0.1331813E+00
         -1   -1    0    0    0  501 -0.00000000000E+00  0.00000000000E+00  0.59015578650E+01  0.59015600172E+01  0.50400000000E-02 0.  1.
          2   -1    0    0  501    0  0.00000000000E+00 -0.00000000000E+00 -0.26461238506E+03  0.26461238507E+03  0.25500000000E-02 0. -1.
         24    2    1    2    0    0  0.00000000000E+00  0.35527136788E-14 -0.25871082719E+03  0.27051394509E+03  0.79034817516E+02 0.  0.
         66    2    3    3    0    0  0.17160445803E+02 -0.17327568306E+02 -0.23575710832E+03  0.23702350022E+03  0.20000017072E+01 0.  0.
        -13    1    3    3    0    0 -0.17160445803E+02  0.17327568306E+02 -0.22953718868E+02  0.33490444868E+02  0.10566000000E+00 0.  1.
         13    1    4    4    0    0  0.81847313814E+01 -0.84715742049E+01 -0.10598461090E+03  0.10663726510E+03  0.10566000000E+00 0. -1.
        -13    1    4    4    0    0  0.61314930760E+01 -0.55110882517E+01 -0.85202482486E+02  0.85600475974E+02  0.10566000000E+00 0.  1.
         14    1    4    4    0    0  0.28442213460E+01 -0.33449058494E+01 -0.44570014937E+02  0.44785759139E+02  0.00000000000E+00 0. -1.
<mgrwt>
<rscale>  0 0.79034818E+02</rscale>
<asrwt>0</asrwt>
<pdfrwt beam="1">  1        2 0.40709589E-01 0.79034818E+02</pdfrwt>
<pdfrwt beam="2">  1       -1 0.90793235E-03 0.79034818E+02</pdfrwt>
<totfact> 0.25150268E+05</totfact>
</mgrwt>
</event>
<event>
 8    1  0.2561077E-016  0.8005607E+02  0.7818608E-02  0.1328892E+00
         -1   -1    0    0    0  501 -0.00000000000E+00  0.00000000000E+00  0.19593523948E+01  0.19593588769E+01  0.50400000000E-02 0.  1.
          2   -1    0    0  501    0  0.00000000000E+00 -0.00000000000E+00 -0.81773997225E+03  0.81773997225E+03  0.25500000000E-02 0. -1.
         24    2    1    2    0    0  0.00000000000E+00  0.00000000000E+00 -0.81578061986E+03  0.81969933113E+03  0.80056066135E+02 0.  0.
         66    2    3    3    0    0 -0.24396076485E+02  0.18293859659E+02 -0.67325583753E+03  0.67394900149E+03  0.19999985483E+01 0.  0.
        -13    1    3    3    0    0  0.24396076485E+02 -0.18293859659E+02 -0.14252478233E+03  0.14575032964E+03  0.10566000000E+00 0.  1.
         13    1    4    4    0    0 -0.10251064438E+02  0.67142823925E+01 -0.26860061869E+03  0.26888002796E+03  0.10566000000E+00 0. -1.
        -13    1    4    4    0    0 -0.13470000996E+02  0.11260205426E+02 -0.38841916442E+03  0.38881575534E+03  0.10566000000E+00 0.  1.
        -14    1    4    4    0    0 -0.67501105162E+00  0.31937183998E+00 -0.16236054426E+02  0.16253218193E+02  0.00000000000E+00 0.  1.
<mgrwt>
<rscale>  0 0.80056066E+02</rscale>
<asrwt>0</asrwt>
<pdfrwt beam="1">  1        2 0.12580588E+00 0.80056066E+02</pdfrwt>
<pdfrwt beam="2">  1       -1 0.30143998E-03 0.80056066E+02</pdfrwt>
<totfact> 0.34429143E+05</totfact>
</mgrwt>
</event>
<event>
 8    1  0.2561077E-016  0.7998737E+02  0.7818608E-02  0.1329087E+00
         -1   -1    0    0    0  501 -0.00000000000E+00  0.00000000000E+00  0.25921633929E+01  0.25921682926E+01  0.50400000000E-02 0.  1.
          2   -1    0    0  501    0  0.00000000000E+00 -0.00000000000E+00 -0.61704954802E+03  0.61704954802E+03  0.25500000000E-02 0. -1.
         24    2    1    2    0    0  0.00000000000E+00  0.00000000000E+00 -0.61445738463E+03  0.61964171632E+03  0.79987368243E+02 0.  0.
         66    2    3    3    0    0  0.11837657184E+02  0.47134391857E+01 -0.60089235867E+03  0.60103075906E+03  0.19999999458E+01 0.  0.
        -13    1    3    3    0    0 -0.11837657184E+02 -0.47134391857E+01 -0.13565025958E+02  0.18610957252E+02  0.10566000000E+00 0.  1.
         13    1    4    4    0    0  0.66263887998E+01  0.28761159192E+01 -0.31419689152E+03  0.31427993712E+03  0.10566000000E+00 0. -1.
        -13    1    4    4    0    0  0.85738311412E+00  0.72211654525E+00 -0.65867381001E+02  0.65877003590E+02  0.10566000000E+00 0.  1.
         14    1    4    4    0    0  0.43538852700E+01  0.11152067213E+01 -0.22082808615E+03  0.22087381836E+03  0.00000000000E+00 0. -1.
<mgrwt>
<rscale>  0 0.79987368E+02</rscale>
<asrwt>0</asrwt>
<pdfrwt beam="1">  1        2 0.94930583E-01 0.79987368E+02</pdfrwt>
<pdfrwt beam="2">  1       -1 0.39879524E-03 0.79987368E+02</pdfrwt>
<totfact> 0.32425038E+05</totfact>
</mgrwt>
</event>
<event>
 8    1  0.2561077E-016  0.8075523E+02  0.7818608E-02  0.1326922E+00
         -1   -1    0    0    0  501 -0.00000000000E+00  0.00000000000E+00  0.16020803551E+02  0.16020804344E+02  0.50400000000E-02 0.  1.
          2   -1    0    0  501    0  0.00000000000E+00 -0.00000000000E+00 -0.10176466109E+03  0.10176466112E+03  0.25500000000E-02 0. -1.
         24    2    1    2    0    0  0.00000000000E+00  0.00000000000E+00 -0.85743857542E+02  0.11778546547E+03  0.80755227506E+02 0.  0.
         66    2    3    3    0    0 -0.64457955353E+01 -0.13974087332E+02 -0.97306595076E+02  0.98536271715E+02  0.20000003670E+01 0.  0.
        -13    1    3    3    0    0  0.64457955353E+01  0.13974087332E+02  0.11562737534E+02  0.19249193753E+02  0.10566000000E+00 0.  1.
         13    1    4    4    0    0 -0.10497114615E+01 -0.11771747812E+01 -0.99829770584E+01  0.10107355223E+02  0.10566000000E+00 0. -1.
        -13    1    4    4    0    0 -0.34922102415E+01 -0.96086205646E+01 -0.64204359081E+02  0.65013321793E+02  0.10566000000E+00 0.  1.
        -14    1    4    4    0    0 -0.19038738324E+01 -0.31882919858E+01 -0.23119258937E+02  0.23415594700E+02  0.00000000000E+00 0.  1.
<mgrwt>
<rscale>  0 0.80755228E+02</rscale>
<asrwt>0</asrwt>
<pdfrwt beam="1">  1        2 0.15656101E-01 0.80755228E+02</pdfrwt>
<pdfrwt beam="2">  1       -1 0.24647392E-02 0.80755228E+02</pdfrwt>
<totfact> 0.17370317E+05</totfact>
</mgrwt>
</event>
<event>
 8    1  0.2561077E-016  0.7882389E+02  0.7818608E-02  0.1332423E+00
          2   -1    0    0  501    0  0.00000000000E+00  0.00000000000E+00  0.18621227288E+02  0.18621227463E+02  0.25500000000E-02 0. -1.
         -1   -1    0    0    0  501 -0.00000000000E+00 -0.00000000000E+00 -0.83415620438E+02  0.83415620590E+02  0.50400000000E-02 0.  1.
         24    2    1    2    0    0  0.00000000000E+00  0.00000000000E+00 -0.64794393150E+02  0.10203684805E+03  0.78823885828E+02 0.  0.
         66    2    3    3    0    0  0.32377456052E+02  0.72194093373E+01 -0.49309458734E+01  0.33596633154E+02  0.20000001303E+01 0.  0.
        -13    1    3    3    0    0 -0.32377456052E+02 -0.72194093373E+01 -0.59863447277E+02  0.68440214899E+02  0.10566000000E+00 0.  1.
         13    1    4    4    0    0  0.83406139144E+00  0.11876698733E+00 -0.93281110105E-01  0.85418347155E+00  0.10566000000E+00 0.  1.
        -13    1    4    4    0    0  0.48620238803E+00  0.32136752570E+00 -0.14117016252E+00  0.60890302930E+00  0.10566000000E+00 0.  1.
         14    1    4    4    0    0  0.31057192272E+02  0.67792748243E+01 -0.46964946007E+01  0.32133546653E+02  0.00000000000E+00 0. -1.
<mgrwt>
<rscale>  0 0.78823886E+02</rscale>
<asrwt>0</asrwt>
<pdfrwt beam="1">  1        2 0.28648043E-02 0.78823886E+02</pdfrwt>
<pdfrwt beam="2">  1       -1 0.12833172E-01 0.78823886E+02</pdfrwt>
<totfact> 0.12769951E+05</totfact>
</mgrwt>
</event>
<event>
 8    1  0.2561077E-016  0.8056069E+02  0.7818608E-02  0.1327468E+00
         -1   -1    0    0    0  501 -0.00000000000E+00  0.00000000000E+00  0.29481443113E+01  0.29481486193E+01  0.50400000000E-02 0.  1.
          2   -1    0    0  501    0  0.00000000000E+00 -0.00000000000E+00 -0.55034795565E+03  0.55034795566E+03  0.25500000000E-02 0. -1.
         24    2    1    2    0    0  0.00000000000E+00  0.35527136788E-14 -0.54739981134E+03  0.55329610428E+03  0.80560694836E+02 0.  0.
         66    2    3    3    0    0 -0.12075711239E+02  0.29004130771E+02 -0.44672506302E+03  0.44783294238E+03  0.19999868657E+01 0.  0.
        -13    1    3    3    0    0  0.12075711239E+02 -0.29004130771E+02 -0.10067474832E+03  0.10546316189E+03  0.10566000000E+00 0.  1.
         13    1    4    4    0    0 -0.33661353279E+01  0.83414537976E+01 -0.13469218681E+03  0.13499224818E+03  0.10566000000E+00 0. -1.
        -13    1    4    4    0    0 -0.67744881204E+01  0.16893794371E+02 -0.24664551752E+03  0.24731622764E+03  0.10566000000E+00 0.  1.
        -14    1    4    4    0    0 -0.19350877908E+01  0.37688826027E+01 -0.65387358701E+02  0.65524466566E+02  0.00000000000E+00 0.  1.
<mgrwt>
<rscale>  0 0.80560695E+02</rscale>
<asrwt>0</asrwt>
<pdfrwt beam="1">  1        2 0.84668835E-01 0.80560695E+02</pdfrwt>
<pdfrwt beam="2">  1       -1 0.45356143E-03 0.80560695E+02</pdfrwt>
<totfact> 0.30803497E+05</totfact>
</mgrwt>
</event>
<event>
 8    1  0.2561077E-016  0.8010879E+02  0.7818608E-02  0.1328743E+00
          2   -1    0    0  501    0  0.00000000000E+00  0.00000000000E+00  0.43905754179E+03  0.43905754180E+03  0.25500000000E-02 0. -1.
         -1   -1    0    0    0  501 -0.00000000000E+00 -0.00000000000E+00 -0.36540858671E+01  0.36540893429E+01  0.50400000000E-02 0.  1.
         24    2    1    2    0    0  0.00000000000E+00  0.00000000000E+00  0.43540345592E+03  0.44271163114E+03  0.80108794257E+02 0.  0.
         66    2    3    3    0    0 -0.16478700367E+02  0.67669893458E+01  0.41594138819E+03  0.41632748903E+03  0.19999997879E+01 0.  0.
        -13    1    3    3    0    0  0.16478700367E+02 -0.67669893458E+01  0.19462067732E+02  0.26384142113E+02  0.10566000000E+00 0.  1.
         13    1    4    4    0    0 -0.52198965500E+01  0.17787787068E+01  0.13152529563E+03  0.13164089763E+03  0.10566000000E+00 0. -1.
        -13    1    4    4    0    0 -0.12683236265E+01  0.77950460256E-01  0.28667519934E+02  0.28695863540E+02  0.10566000000E+00 0.  1.
         14    1    4    4    0    0 -0.99904801906E+01  0.49102601788E+01  0.25574857263E+03  0.25599072786E+03  0.00000000000E+00 0. -1.
<mgrwt>
<rscale>  0 0.80108794E+02</rscale>
<asrwt>0</asrwt>
<pdfrwt beam="1">  1        2 0.67547326E-01 0.80108794E+02</pdfrwt>
<pdfrwt beam="2">  1       -1 0.56216722E-03 0.80108794E+02</pdfrwt>
<totfact> 0.29071930E+05</totfact>
</mgrwt>
</event>
<event>
 8    1  0.2561077E-016  0.7979003E+02  0.7818608E-02  0.1329648E+00
         -1   -1    0    0    0  501 -0.00000000000E+00  0.00000000000E+00  0.50391782311E+01  0.50391807515E+01  0.50400000000E-02 0.  1.
          2   -1    0    0  501    0  0.00000000000E+00 -0.00000000000E+00 -0.31584747004E+03  0.31584747005E+03  0.25500000000E-02 0. -1.
         24    2    1    2    0    0 -0.41633363423E-16 -0.71054273576E-14 -0.31080829181E+03  0.32088665080E+03  0.79790026981E+02 0.  0.
         66    2    3    3    0    0  0.10236417119E+00  0.24892960898E+02 -0.28075067757E+03  0.28185920765E+03  0.20000009388E+01 0.  0.
        -13    1    3    3    0    0 -0.10236417119E+00 -0.24892960898E+02 -0.30057614238E+02  0.39027443145E+02  0.10566000000E+00 0.  1.
         13    1    4    4    0    0 -0.61864565089E-01  0.18952801954E+02 -0.20639499354E+03  0.20726340017E+03  0.10566000000E+00 0.  1.
        -13    1    4    4    0    0 -0.12492108789E+00  0.29646310190E+01 -0.33866566456E+02  0.33996472316E+02  0.10566000000E+00 0. -1.
        -14    1    4    4    0    0  0.28914982416E+00  0.29755279256E+01 -0.40489117575E+02  0.40599335168E+02  0.00000000000E+00 0.  1.
<mgrwt>
<rscale>  0 0.79790027E+02</rscale>
<asrwt>0</asrwt>
<pdfrwt beam="1">  1        2 0.48591903E-01 0.79790027E+02</pdfrwt>
<pdfrwt beam="2">  1       -1 0.77525864E-03 0.79790027E+02</pdfrwt>
<totfact> 0.26152948E+05</totfact>
</mgrwt>
</event>
<event>
 8    1  0.2561077E-016  0.7975034E+02  0.7818608E-02  0.1329761E+00
         -1   -1    0    0    0  501 -0.00000000000E+00  0.00000000000E+00  0.34604554344E+01  0.34604591047E+01  0.50400000000E-02 0.  1.
          2   -1    0    0  501    0  0.00000000000E+00 -0.00000000000E+00 -0.45948525327E+03  0.45948525328E+03  0.25500000000E-02 0. -1.
         24    2    1    2    0    0  0.00000000000E+00  0.00000000000E+00 -0.45602479784E+03  0.46294571239E+03  0.79750337753E+02 0.  0.
         66    2    3    3    0    0  0.17430628929E+02  0.33873959404E+02 -0.29603897044E+03  0.29848675676E+03  0.19999988378E+01 0.  0.
        -13    1    3    3    0    0 -0.17430628929E+02 -0.33873959404E+02 -0.15998582740E+03  0.16445895562E+03  0.10566000000E+00 0.  1.
         13    1    4    4    0    0  0.67803893169E+01  0.12962660655E+02 -0.11599220597E+03  0.11691110837E+03  0.10566000000E+00 0. -1.
        -13    1    4    4    0    0  0.48134263995E+01  0.11044034309E+02 -0.91354341236E+02  0.92145355793E+02  0.10566000000E+00 0.  1.
        -14    1    4    4    0    0  0.58368132126E+01  0.98672644399E+01 -0.88692423232E+02  0.89430292602E+02  0.00000000000E+00 0.  1.
<mgrwt>
<rscale>  0 0.79750338E+02</rscale>
<asrwt>0</asrwt>
<pdfrwt beam="1">  1        2 0.70689991E-01 0.79750338E+02</pdfrwt>
<pdfrwt beam="2">  1       -1 0.53237841E-03 0.79750338E+02</pdfrwt>
<totfact> 0.29866724E+05</totfact>
</mgrwt>
</event>
<event>
 8    1  0.2561077E-016  0.8067809E+02  0.7818608E-02  0.1327138E+00
          2   -1    0    0  501    0  0.00000000000E+00  0.00000000000E+00  0.61547634024E+01  0.61547639307E+01  0.25500000000E-02 0. -1.
         -1   -1    0    0    0  501 -0.00000000000E+00 -0.00000000000E+00 -0.26438684223E+03  0.26438684228E+03  0.50400000000E-02 0.  1.
         24    2    1    2    0    0  0.00000000000E+00  0.00000000000E+00 -0.25823207883E+03  0.27054160621E+03  0.80678089680E+02 0.  0.
         66    2    3    3    0    0 -0.13463264560E+01  0.37769922684E+02 -0.82146154849E+02  0.90445400136E+02  0.19999986844E+01 0.  0.
        -13    1    3    3    0    0  0.13463264560E+01 -0.37769922684E+02 -0.17608592398E+03  0.18009620607E+03  0.10566000000E+00 0.  1.
         13    1    4    4    0    0 -0.76568586442E-01  0.24500573377E+01 -0.50152819879E+01  0.55832661732E+01  0.10566000000E+00 0. -1.
        -13    1    4    4    0    0  0.60210453901E-01  0.10197910551E+02 -0.20603739490E+02  0.22989698779E+02  0.10566000000E+00 0.  1.
        -14    1    4    4    0    0 -0.13299683235E+01  0.25121954795E+02 -0.56527133371E+02  0.61872435184E+02  0.00000000000E+00 0.  1.
<mgrwt>
<rscale>  0 0.80678090E+02</rscale>
<asrwt>0</asrwt>
<pdfrwt beam="1">  1        2 0.94688692E-03 0.80678090E+02</pdfrwt>
<pdfrwt beam="2">  1       -1 0.40674890E-01 0.80678090E+02</pdfrwt>
<totfact> 0.88819366E+04</totfact>
</mgrwt>
</event>
<event>
 8    1  0.3200304E-016  0.7700421E+02  0.7818608E-02  0.1337775E+00
          2   -1    0    0  501    0  0.00000000000E+00  0.00000000000E+00  0.17111750469E+04  0.17111750469E+04  0.25500000000E-02 0. -1.
         -1   -1    0    0    0  501 -0.00000000000E+00 -0.00000000000E+00 -0.86630504998E+00  0.86631971075E+00  0.50400000000E-02 0.  1.
         24    2    1    2    0    0  0.00000000000E+00  0.00000000000E+00  0.17103087418E+04  0.17120413666E+04  0.77004211211E+02 0.  0.
         66    2    3    3    0    0 -0.11527122688E+02  0.10530327281E+02  0.16375775356E+04  0.16376531829E+04  0.19999984989E+01 0.  0.
        -13    1    3    3    0    0  0.11527122688E+02 -0.10530327281E+02  0.72731206223E+02  0.74388183691E+02  0.10566000000E+00 0.  1.
         13    1    4    4    0    0 -0.34921751906E+01  0.26090058608E+01  0.42119675388E+03  0.42121932392E+03  0.10566000000E+00 0. -1.
        -13    1    4    4    0    0 -0.38443282243E-03  0.14119506105E+00  0.15754164416E+02  0.15755151433E+02  0.10566000000E+00 0.  1.
         14    1    4    4    0    0 -0.80345630645E+01  0.77801263596E+01  0.12006266173E+04  0.12006787075E+04  0.00000000000E+00 0. -1.
<mgrwt>
<rscale>  0 0.77004211E+02</rscale>
<asrwt>0</asrwt>
<pdfrwt beam="1">  1        2 0.26325790E+00 0.77004211E+02</pdfrwt>
<pdfrwt beam="2">  1       -1 0.13327873E-03 0.77004211E+02</pdfrwt>
<totfact> 0.34466857E+05</totfact>
</mgrwt>
</event>
<event>
 8    1  0.2561077E-016  0.8082840E+02  0.7818608E-02  0.1326717E+00
         -1   -1    0    0    0  501 -0.00000000000E+00  0.00000000000E+00  0.45892226716E+01  0.45892254392E+01  0.50400000000E-02 0.  1.
          2   -1    0    0  501    0  0.00000000000E+00 -0.00000000000E+00 -0.35590057733E+03  0.35590057734E+03  0.25500000000E-02 0. -1.
         24    2    1    2    0    0 -0.88817841970E-15  0.35527136788E-14 -0.35131135466E+03  0.36048980278E+03  0.80828398445E+02 0.  0.
         66    2    3    3    0    0 -0.73780907125E+01  0.27036461620E+02 -0.30547711917E+03  0.30676648581E+03  0.19999997005E+01 0.  0.
        -13    1    3    3    0    0  0.73780907125E+01 -0.27036461620E+02 -0.45834235487E+02  0.53723316969E+02  0.10566000000E+00 0.  1.
         13    1    4    4    0    0 -0.51561421363E+01  0.18380255925E+02 -0.20888247082E+03  0.20975299137E+03  0.10566000000E+00 0. -1.
        -13    1    4    4    0    0 -0.10799172014E+01  0.33806892260E+01 -0.43778745605E+02  0.43922488677E+02  0.10566000000E+00 0.  1.
         14    1    4    4    0    0 -0.11420313748E+01  0.52755164684E+01 -0.52815902750E+02  0.53091005764E+02  0.00000000000E+00 0. -1.
<mgrwt>
<rscale>  0 0.80828398E+02</rscale>
<asrwt>0</asrwt>
<pdfrwt beam="1">  1        2 0.54753914E-01 0.80828398E+02</pdfrwt>
<pdfrwt beam="2">  1       -1 0.70603475E-03 0.80828398E+02</pdfrwt>
<totfact> 0.26389525E+05</totfact>
</mgrwt>
</event>
<event>
 8    1  0.2561077E-016  0.7922223E+02  0.7818608E-02  0.1331273E+00
          2   -1    0    0  501    0  0.00000000000E+00  0.00000000000E+00  0.64292327930E+03  0.64292327930E+03  0.25500000000E-02 0. -1.
         -1   -1    0    0    0  501 -0.00000000000E+00 -0.00000000000E+00 -0.24404756672E+01  0.24404808714E+01  0.50400000000E-02 0.  1.
         24    2    1    2    0    0  0.17763568394E-14  0.00000000000E+00  0.64048280363E+03  0.64536376017E+03  0.79222226678E+02 0.  0.
         66    2    3    3    0    0  0.10286735267E+02  0.27935586954E+02  0.53300130605E+03  0.53383574833E+03  0.19999993721E+01 0.  0.
        -13    1    3    3    0    0 -0.10286735267E+02 -0.27935586954E+02  0.10748149758E+03  0.11152801185E+03  0.10566000000E+00 0.  1.
         13    1    4    4    0    0  0.16035503854E+01  0.46279524555E+01  0.79674389742E+02  0.79824863687E+02  0.10566000000E+00 0. -1.
        -13    1    4    4    0    0  0.14812162144E+01  0.55780326730E+01  0.10795063434E+03  0.10810485219E+03  0.10566000000E+00 0.  1.
         14    1    4    4    0    0  0.72019686673E+01  0.17729601825E+02  0.34537628197E+03  0.34590603244E+03  0.00000000000E+00 0. -1.
<mgrwt>
<rscale>  0 0.79222227E+02</rscale>
<asrwt>0</asrwt>
<pdfrwt beam="1">  1        2 0.98911304E-01 0.79222227E+02</pdfrwt>
<pdfrwt beam="2">  1       -1 0.37545808E-03 0.79222227E+02</pdfrwt>
<totfact> 0.33608169E+05</totfact>
</mgrwt>
</event>
<event>
 8    1  0.2561077E-016  0.7687681E+02  0.7818608E-02  0.1338156E+00
         -1   -1    0    0    0  501 -0.00000000000E+00  0.00000000000E+00  0.37843443299E+02  0.37843443635E+02  0.50400000000E-02 0.  1.
          2   -1    0    0  501    0  0.00000000000E+00 -0.00000000000E+00 -0.39042722648E+02  0.39042722731E+02  0.25500000000E-02 0. -1.
         24    2    1    2    0    0  0.71054273576E-14  0.00000000000E+00 -0.11992793487E+01  0.76886166366E+02  0.76876812547E+02 0.  0.
         66    2    3    3    0    0  0.36716451277E+02 -0.56846599435E+01 -0.10352795564E+02  0.38621153937E+02  0.20000006037E+01 0.  0.
        -13    1    3    3    0    0 -0.36716451277E+02  0.56846599435E+01  0.91535162155E+01  0.38265012429E+02  0.10566000000E+00 0.  1.
         13    1    4    4    0    0  0.48973014214E+01 -0.11375920303E+01 -0.14906946835E+01  0.52450940424E+01  0.10566000000E+00 0. -1.
        -13    1    4    4    0    0  0.71219486358E+00 -0.16611477252E+00 -0.40961398949E+00  0.84484513217E+00  0.10566000000E+00 0.  1.
         14    1    4    4    0    0  0.31106954992E+02 -0.43809531407E+01 -0.84524868913E+01  0.32531214762E+02  0.00000000000E+00 0. -1.
<mgrwt>
<rscale>  0 0.76876813E+02</rscale>
<asrwt>0</asrwt>
<pdfrwt beam="1">  1        2 0.60065728E-02 0.76876813E+02</pdfrwt>
<pdfrwt beam="2">  1       -1 0.58220682E-02 0.76876813E+02</pdfrwt>
<totfact> 0.15831846E+05</totfact>
</mgrwt>
</event>
<event>
 8    1  0.2561077E-016  0.8119366E+02  0.7818608E-02  0.1325698E+00
         -1   -1    0    0    0  501 -0.00000000000E+00  0.00000000000E+00  0.23036059277E+02  0.23036059828E+02  0.50400000000E-02 0.  1.
          2   -1    0    0  501    0  0.00000000000E+00 -0.00000000000E+00 -0.71544470338E+02  0.71544470383E+02  0.25500000000E-02 0. -1.
         24    2    1    2    0    0  0.00000000000E+00  0.71054273576E-14 -0.48508411061E+02  0.94580530212E+02  0.81193662015E+02 0.  0.
         66    2    3    3    0    0  0.69972620193E+01 -0.35342866549E+02 -0.45999912940E+02  0.58464278765E+02  0.20000023249E+01 0.  0.
        -13    1    3    3    0    0 -0.69972620193E+01  0.35342866549E+02 -0.25084981206E+01  0.36116251447E+02  0.10566000000E+00 0.  1.
         13    1    4    4    0    0  0.28747361557E+01 -0.11561424200E+02 -0.15372923731E+02  0.19449128145E+02  0.10566000000E+00 0. -1.
        -13    1    4    4    0    0  0.35448456240E+00 -0.15383739475E+01 -0.24986801646E+01  0.29575023767E+01  0.10566000000E+00 0. -1.
        -14    1    4    4    0    0  0.37680413012E+01 -0.22243068402E+02 -0.28128309044E+02  0.36057648244E+02  0.00000000000E+00 0.  1.
<mgrwt>
<rscale>  0 0.81193662E+02</rscale>
<asrwt>0</asrwt>
<pdfrwt beam="1">  1        2 0.11006841E-01 0.81193662E+02</pdfrwt>
<pdfrwt beam="2">  1       -1 0.35440092E-02 0.81193662E+02</pdfrwt>
<totfact> 0.15595054E+05</totfact>
</mgrwt>
</event>
<event>
 8    1  0.2561077E-016  0.8066261E+02  0.7818608E-02  0.1327181E+00
         -1   -1    0    0    0  501 -0.00000000000E+00  0.00000000000E+00  0.32620966753E+01  0.32621005687E+01  0.50400000000E-02 0.  1.
          2   -1    0    0  501    0  0.00000000000E+00 -0.00000000000E+00 -0.49864040756E+03  0.49864040756E+03  0.25500000000E-02 0. -1.
         24    2    1    2    0    0 -0.88817841970E-15  0.00000000000E+00 -0.49537831088E+03  0.50190250813E+03  0.80662610777E+02 0.  0.
         66    2    3    3    0    0 -0.50920441603E+01  0.20974250714E+02 -0.45964982698E+03  0.46016063668E+03  0.19999989384E+01 0.  0.
        -13    1    3    3    0    0  0.50920441603E+01 -0.20974250714E+02 -0.35728483896E+02  0.41741871452E+02  0.10566000000E+00 0.  1.
         13    1    4    4    0    0 -0.77090243550E+00  0.19892918969E+01 -0.37790872593E+02  0.37851192691E+02  0.10566000000E+00 0. -1.
        -13    1    4    4    0    0 -0.15872213332E+01  0.68328203705E+01 -0.14100943967E+03  0.14118385158E+03  0.10566000000E+00 0.  1.
         14    1    4    4    0    0 -0.27339203916E+01  0.12152138446E+02 -0.28084951472E+03  0.28112559241E+03  0.00000000000E+00 0. -1.
<mgrwt>
<rscale>  0 0.80662611E+02</rscale>
<asrwt>0</asrwt>
<pdfrwt beam="1">  1        2 0.76713849E-01 0.80662611E+02</pdfrwt>
<pdfrwt beam="2">  1       -1 0.50186172E-03 0.80662611E+02</pdfrwt>
<totfact> 0.29777548E+05</totfact>
</mgrwt>
</event>
<event>
 8    1  0.2561077E-016  0.7316832E+02  0.7818608E-02  0.1349639E+00
          2   -1    0    0  501    0  0.00000000000E+00  0.00000000000E+00  0.40843424598E+03  0.40843424598E+03  0.25500000000E-02 0. -1.
         -1   -1    0    0    0  501 -0.00000000000E+00 -0.00000000000E+00 -0.32769045102E+01  0.32769083861E+01  0.50400000000E-02 0.  1.
         24    2    1    2    0    0  0.00000000000E+00  0.00000000000E+00  0.40515734147E+03  0.41171115437E+03  0.73168321623E+02 0.  0.
         66    2    3    3    0    0 -0.22350058007E+02  0.30272932881E+01  0.36461501095E+03  0.36531739051E+03  0.20000000607E+01 0.  0.
        -13    1    3    3    0    0  0.22350058007E+02 -0.30272932881E+01  0.40542330517E+02  0.46393763863E+02  0.10566000000E+00 0.  1.
         13    1    4    4    0    0 -0.53908973320E+01  0.55229215053E+00  0.75079651421E+02  0.75275042493E+02  0.10566000000E+00 0. -1.
        -13    1    4    4    0    0 -0.10943795394E+02  0.14942505209E+01  0.18815538750E+03  0.18847933693E+03  0.10566000000E+00 0.  1.
         14    1    4    4    0    0 -0.60153652809E+01  0.98075061665E+00  0.10137997203E+03  0.10156301108E+03  0.00000000000E+00 0. -1.
<mgrwt>
<rscale>  0 0.73168322E+02</rscale>
<asrwt>0</asrwt>
<pdfrwt beam="1">  1        2 0.62836034E-01 0.73168322E+02</pdfrwt>
<pdfrwt beam="2">  1       -1 0.50413949E-03 0.73168322E+02</pdfrwt>
<totfact> 0.35891707E+05</totfact>
</mgrwt>
</event>
<event>
 8    1  0.2561077E-016  0.7945168E+02  0.7818608E-02  0.1330615E+00
         -1   -1    0    0    0  501 -0.00000000000E+00  0.00000000000E+00  0.29164802847E+01  0.29164846395E+01  0.50400000000E-02 0.  1.
          2   -1    0    0  501    0  0.00000000000E+00 -0.00000000000E+00 -0.54111154190E+03  0.54111154191E+03  0.25500000000E-02 0. -1.
         24    2    1    2    0    0  0.00000000000E+00  0.00000000000E+00 -0.53819506162E+03  0.54402802655E+03  0.79451679151E+02 0.  0.
         66    2    3    3    0    0  0.36711956241E+02  0.93450327599E+01 -0.35058607157E+03  0.35263251542E+03  0.19999964130E+01 0.  0.
        -13    1    3    3    0    0 -0.36711956241E+02 -0.93450327599E+01 -0.18760899005E+03  0.19139551112E+03  0.10566000000E+00 0.  1.
         13    1    4    4    0    0  0.50017382036E+01  0.16802546227E+01 -0.49149141896E+02  0.49431669543E+02  0.10566000000E+00 0. -1.
        -13    1    4    4    0    0  0.84347177393E+01  0.16137240999E+01 -0.84108332668E+02  0.84545676158E+02  0.10566000000E+00 0.  1.
         14    1    4    4    0    0  0.23275500298E+02  0.60510540373E+01 -0.21732859701E+03  0.21865516972E+03  0.00000000000E+00 0. -1.
<mgrwt>
<rscale>  0 0.79451679E+02</rscale>
<asrwt>0</asrwt>
<pdfrwt beam="1">  1        2 0.83247850E-01 0.79451679E+02</pdfrwt>
<pdfrwt beam="2">  1       -1 0.44869004E-03 0.79451679E+02</pdfrwt>
<totfact> 0.31772892E+05</totfact>
</mgrwt>
</event>
<event>
 8    1  0.2561077E-016  0.7981036E+02  0.7818608E-02  0.1329590E+00
          2   -1    0    0  501    0  0.00000000000E+00  0.00000000000E+00  0.30896346642E+03  0.30896346643E+03  0.25500000000E-02 0. -1.
         -1   -1    0    0    0  501 -0.00000000000E+00 -0.00000000000E+00 -0.51540823807E+01  0.51540848449E+01  0.50400000000E-02 0.  1.
         24    2    1    2    0    0  0.00000000000E+00  0.35527136788E-14  0.30380938404E+03  0.31411755127E+03  0.79810363919E+02 0.  0.
         66    2    3    3    0    0  0.13831788852E+02 -0.21405333319E+02  0.27272764825E+03  0.27392312205E+03  0.19999985060E+01 0.  0.
        -13    1    3    3    0    0 -0.13831788852E+02  0.21405333319E+02  0.31081735786E+02  0.40194429226E+02  0.10566000000E+00 0.  1.
         13    1    4    4    0    0  0.29696492662E+01 -0.41810552724E+01  0.52892775728E+02  0.53140915764E+02  0.10566000000E+00 0. -1.
        -13    1    4    4    0    0  0.20153813140E+01 -0.37728014798E+01  0.40056925846E+02  0.40284789501E+02  0.10566000000E+00 0.  1.
         14    1    4    4    0    0  0.88467582719E+01 -0.13451476566E+02  0.17977794668E+03  0.18049741678E+03  0.00000000000E+00 0. -1.
<mgrwt>
<rscale>  0 0.79810364E+02</rscale>
<asrwt>0</asrwt>
<pdfrwt beam="1">  1        2 0.47532841E-01 0.79810364E+02</pdfrwt>
<pdfrwt beam="2">  1       -1 0.79293594E-03 0.79810364E+02</pdfrwt>
<totfact> 0.25928268E+05</totfact>
</mgrwt>
</event>
<event>
 8    1  0.2561077E-016  0.8035828E+02  0.7818608E-02  0.1328038E+00
         -1   -1    0    0    0  501 -0.00000000000E+00  0.00000000000E+00  0.91797727767E+01  0.91797741603E+01  0.50400000000E-02 0.  1.
          2   -1    0    0  501    0  0.00000000000E+00 -0.00000000000E+00 -0.17586089403E+03  0.17586089405E+03  0.25500000000E-02 0. -1.
         24    2    1    2    0    0 -0.17763568394E-14 -0.17763568394E-14 -0.16668112126E+03  0.18504066821E+03  0.80358277165E+02 0.  0.
         66    2    3    3    0    0 -0.15016026956E+02 -0.15387472542E+02 -0.16148374621E+03  0.16292101071E+03  0.20000153511E+01 0.  0.
        -13    1    3    3    0    0  0.15016026956E+02  0.15387472542E+02 -0.51973750418E+01  0.22119657505E+02  0.10566000000E+00 0.  1.
         13    1    4    4    0    0 -0.54080066777E+01 -0.58878490705E+01 -0.58846747682E+02  0.59387407585E+02  0.10566000000E+00 0. -1.
        -13    1    4    4    0    0 -0.79329935076E+01 -0.72641191469E+01 -0.77836002912E+02  0.78575787151E+02  0.10566000000E+00 0.  1.
        -14    1    4    4    0    0 -0.16750267709E+01 -0.22355043247E+01 -0.24800995619E+02  0.24957815970E+02  0.00000000000E+00 0.  1.
<mgrwt>
<rscale>  0 0.80358277E+02</rscale>
<asrwt>0</asrwt>
<pdfrwt beam="1">  1        2 0.27055520E-01 0.80358277E+02</pdfrwt>
<pdfrwt beam="2">  1       -1 0.14122730E-02 0.80358277E+02</pdfrwt>
<totfact> 0.20859551E+05</totfact>
</mgrwt>
</event>
<event>
 8    1  0.2561077E-016  0.7967055E+02  0.7818608E-02  0.1329989E+00
          2   -1    0    0  501    0  0.00000000000E+00  0.00000000000E+00  0.21992903081E+02  0.21992903229E+02  0.25500000000E-02 0. -1.
         -1   -1    0    0    0  501 -0.00000000000E+00 -0.00000000000E+00 -0.72152781267E+02  0.72152781443E+02  0.50400000000E-02 0.  1.
         24    2    1    2    0    0 -0.17763568394E-14  0.35527136788E-14 -0.50159878186E+02  0.94145684672E+02  0.79670550159E+02 0.  0.
         66    2    3    3    0    0  0.96953325934E+01 -0.29274252749E+02  0.46552096420E+01  0.31251437195E+02  0.20000004466E+01 0.  0.
        -13    1    3    3    0    0 -0.96953325934E+01  0.29274252749E+02 -0.54815087827E+02  0.62894247477E+02  0.10566000000E+00 0.  1.
         13    1    4    4    0    0  0.83147921854E+01 -0.24838864446E+02  0.35939558028E+01  0.26439225374E+02  0.10566000000E+00 0. -1.
        -13    1    4    4    0    0  0.33749395814E+00 -0.45482127214E+00  0.18383752405E+00  0.60475187657E+00  0.10566000000E+00 0.  1.
        -14    1    4    4    0    0  0.10430464499E+01 -0.39805670317E+01  0.87741631509E+00  0.42074599440E+01  0.00000000000E+00 0.  1.
<mgrwt>
<rscale>  0 0.79670550E+02</rscale>
<asrwt>0</asrwt>
<pdfrwt beam="1">  1        2 0.33835236E-02 0.79670550E+02</pdfrwt>
<pdfrwt beam="2">  1       -1 0.11100428E-01 0.79670550E+02</pdfrwt>
<totfact> 0.12804653E+05</totfact>
</mgrwt>
</event>
<event>
 8    1  0.2561077E-016  0.7922980E+02  0.7818608E-02  0.1331251E+00
         -1   -1    0    0    0  501 -0.00000000000E+00  0.00000000000E+00  0.38125916429E+02  0.38125916762E+02  0.50400000000E-02 0.  1.
          2   -1    0    0  501    0  0.00000000000E+00 -0.00000000000E+00 -0.41162037207E+02  0.41162037286E+02  0.25500000000E-02 0. -1.
         24    2    1    2    0    0  0.35527136788E-14 -0.35527136788E-14 -0.30361207786E+01  0.79287954048E+02  0.79229802649E+02 0.  0.
         66    2    3    3    0    0 -0.24945031719E+02  0.16571158273E+02 -0.27431611305E+02  0.40661421509E+02  0.20000015941E+01 0.  0.
        -13    1    3    3    0    0  0.24945031719E+02 -0.16571158273E+02  0.24395490526E+02  0.38626532539E+02  0.10566000000E+00 0.  1.
         13    1    4    4    0    0 -0.15458015202E+02  0.10536056441E+02 -0.17375694714E+02  0.25532031845E+02  0.10566000000E+00 0. -1.
        -13    1    4    4    0    0 -0.83604691022E+01  0.48707876327E+01 -0.84181611492E+01  0.12825701421E+02  0.10566000000E+00 0.  1.
        -14    1    4    4    0    0 -0.11265474139E+01  0.11643141995E+01 -0.16377554419E+01  0.23036882425E+01  0.00000000000E+00 0.  1.
<mgrwt>
<rscale>  0 0.79229803E+02</rscale>
<asrwt>0</asrwt>
<pdfrwt beam="1">  1        2 0.63326211E-02 0.79229803E+02</pdfrwt>
<pdfrwt beam="2">  1       -1 0.58655257E-02 0.79229803E+02</pdfrwt>
<totfact> 0.14727504E+05</totfact>
</mgrwt>
</event>
<event>
 8    1  0.2561077E-016  0.7810004E+02  0.7818608E-02  0.1334531E+00
          2   -1    0    0  501    0  0.00000000000E+00  0.00000000000E+00  0.94276476679E+02  0.94276476714E+02  0.25500000000E-02 0. -1.
         -1   -1    0    0    0  501 -0.00000000000E+00 -0.00000000000E+00 -0.16174808512E+02  0.16174809297E+02  0.50400000000E-02 0.  1.
         24    2    1    2    0    0  0.00000000000E+00  0.00000000000E+00  0.78101668167E+02  0.11045128601E+03  0.78100038482E+02 0.  0.
         66    2    3    3    0    0 -0.33184501025E+02 -0.20449190823E+02  0.41729155532E+02  0.57137579020E+02  0.20000003023E+01 0.  0.
        -13    1    3    3    0    0  0.33184501025E+02  0.20449190823E+02  0.36372512635E+02  0.53313706990E+02  0.10566000000E+00 0.  1.
         13    1    4    4    0    0 -0.10917572854E+02 -0.69614608529E+01  0.15112867305E+02  0.19901388304E+02  0.10566000000E+00 0.  1.
        -13    1    4    4    0    0 -0.16743055260E+02 -0.10403225454E+02  0.20327686997E+02  0.28315773378E+02  0.10566000000E+00 0. -1.
        -14    1    4    4    0    0 -0.55238729116E+01 -0.30845045163E+01  0.62886012304E+01  0.89204173383E+01  0.00000000000E+00 0.  1.
<mgrwt>
<rscale>  0 0.78100038E+02</rscale>
<asrwt>0</asrwt>
<pdfrwt beam="1">  1        2 0.14504073E-01 0.78100038E+02</pdfrwt>
<pdfrwt beam="2">  1       -1 0.24884322E-02 0.78100038E+02</pdfrwt>
<totfact> 0.18598956E+05</totfact>
</mgrwt>
</event>
<event>
 8    1  0.2561077E-016  0.7818037E+02  0.7818608E-02  0.1334296E+00
          2   -1    0    0  501    0  0.00000000000E+00  0.00000000000E+00  0.13780136860E+02  0.13780137096E+02  0.25500000000E-02 0. -1.
         -1   -1    0    0    0  501 -0.00000000000E+00 -0.00000000000E+00 -0.11088733305E+03  0.11088733316E+03  0.50400000000E-02 0.  1.
         24    2    1    2    0    0 -0.17763568394E-14  0.00000000000E+00 -0.97107196187E+02  0.12466747026E+03  0.78180372147E+02 0.  0.
         66    2    3    3    0    0  0.15225034555E+02  0.32339824238E+02 -0.23454470095E+02  0.42799276593E+02  0.20000001384E+01 0.  0.
        -13    1    3    3    0    0 -0.15225034555E+02 -0.32339824238E+02 -0.73652726093E+02  0.81868193664E+02  0.10566000000E+00 0.  1.
         13    1    4    4    0    0  0.70262184768E+01  0.14520048612E+02 -0.10934549193E+02  0.19487818961E+02  0.10566000000E+00 0. -1.
        -13    1    4    4    0    0  0.75551712736E+01  0.16338322452E+02 -0.11013898855E+02  0.21103045409E+02  0.10566000000E+00 0.  1.
        -14    1    4    4    0    0  0.64364480419E+00  0.14814531747E+01 -0.15060220471E+01  0.22084122236E+01  0.00000000000E+00 0.  1.
<mgrwt>
<rscale>  0 0.78180372E+02</rscale>
<asrwt>0</asrwt>
<pdfrwt beam="1">  1        2 0.21200212E-02 0.78180372E+02</pdfrwt>
<pdfrwt beam="2">  1       -1 0.17059589E-01 0.78180372E+02</pdfrwt>
<totfact> 0.12275846E+05</totfact>
</mgrwt>
</event>
<event>
 8    1  0.2561077E-016  0.7913764E+02  0.7818608E-02  0.1331517E+00
          2   -1    0    0  501    0  0.00000000000E+00  0.00000000000E+00  0.38138209995E+02  0.38138210080E+02  0.25500000000E-02 0. -1.
         -1   -1    0    0    0  501 -0.00000000000E+00 -0.00000000000E+00 -0.41053091034E+02  0.41053091344E+02  0.50400000000E-02 0.  1.
         24    2    1    2    0    0 -0.71054273576E-14 -0.11102230246E-15 -0.29148810392E+01  0.79191301424E+02  0.79137637631E+02 0.  0.
         66    2    3    3    0    0  0.39396601354E+02  0.98553372165E+00 -0.47198735950E+01  0.39740919460E+02  0.19999994478E+01 0.  0.
        -13    1    3    3    0    0 -0.39396601354E+02 -0.98553372165E+00  0.18049925558E+01  0.39450381964E+02  0.10566000000E+00 0.  1.
         13    1    4    4    0    0  0.20231757635E+02  0.68425742276E+00 -0.18927032795E+01  0.20331889115E+02  0.10566000000E+00 0. -1.
        -13    1    4    4    0    0  0.14942209724E+02  0.68140746218E+00 -0.23708314697E+01  0.15144832566E+02  0.10566000000E+00 0.  1.
         14    1    4    4    0    0  0.42226339947E+01 -0.38013116329E+00 -0.45633884582E+00  0.42641977788E+01  0.00000000000E+00 0. -1.
<mgrwt>
<rscale>  0 0.79137638E+02</rscale>
<asrwt>0</asrwt>
<pdfrwt beam="1">  1        2 0.58674169E-02 0.79137638E+02</pdfrwt>
<pdfrwt beam="2">  1       -1 0.63158603E-02 0.79137638E+02</pdfrwt>
<totfact> 0.14546847E+05</totfact>
</mgrwt>
</event>
<event>
 8    1  0.2561077E-016  0.8048957E+02  0.7818608E-02  0.1327668E+00
         -1   -1    0    0    0  501 -0.00000000000E+00  0.00000000000E+00  0.18493311605E+01  0.18493380283E+01  0.50400000000E-02 0.  1.
          2   -1    0    0  501    0  0.00000000000E+00 -0.00000000000E+00 -0.87579762755E+03  0.87579762755E+03  0.25500000000E-02 0. -1.
         24    2    1    2    0    0  0.00000000000E+00  0.00000000000E+00 -0.87394829639E+03  0.87764696558E+03  0.80489573443E+02 0.  0.
         66    2    3    3    0    0  0.22895740174E+02  0.12345903588E+02 -0.77172724654E+03  0.77216810301E+03  0.19999992487E+01 0.  0.
        -13    1    3    3    0    0 -0.22895740174E+02 -0.12345903588E+02 -0.10222104984E+03  0.10547886257E+03  0.10566000000E+00 0.  1.
         13    1    4    4    0    0  0.89511714270E+01  0.43336325970E+01 -0.31531995005E+03  0.31547675969E+03  0.10566000000E+00 0. -1.
        -13    1    4    4    0    0  0.11608032993E+01  0.51890025066E+00 -0.31917698045E+02  0.31943189169E+02  0.10566000000E+00 0.  1.
         14    1    4    4    0    0  0.12783765447E+02  0.74933707408E+01 -0.42448959845E+03  0.42474815415E+03  0.00000000000E+00 0. -1.
<mgrwt>
<rscale>  0 0.80489573E+02</rscale>
<asrwt>0</asrwt>
<pdfrwt beam="1">  1        2 0.13473777E+00 0.80489573E+02</pdfrwt>
<pdfrwt beam="2">  1       -1 0.28451371E-03 0.80489573E+02</pdfrwt>
<totfact> 0.34286722E+05</totfact>
</mgrwt>
</event>
<event>
 8    1  0.2561077E-016  0.8108066E+02  0.7818608E-02  0.1326012E+00
         -1   -1    0    0    0  501 -0.00000000000E+00  0.00000000000E+00  0.39895465857E+02  0.39895466175E+02  0.50400000000E-02 0.  1.
          2   -1    0    0  501    0  0.00000000000E+00 -0.00000000000E+00 -0.41195615654E+02  0.41195615733E+02  0.25500000000E-02 0. -1.
         24    2    1    2    0    0  0.00000000000E+00  0.88817841970E-15 -0.13001497967E+01  0.81091081908E+02  0.81080658455E+02 0.  0.
         66    2    3    3    0    0 -0.38720748837E+02  0.48067339556E+01  0.10264788926E+02  0.40395135507E+02  0.19999997786E+01 0.  0.
        -13    1    3    3    0    0  0.38720748837E+02 -0.48067339556E+01 -0.11564938723E+02  0.40695946401E+02  0.10566000000E+00 0.  1.
         13    1    4    4    0    0 -0.22417591955E+02  0.35610219834E+01  0.57803720915E+01  0.23423346733E+02  0.10566000000E+00 0. -1.
        -13    1    4    4    0    0 -0.60138728407E+01  0.30588730027E+00  0.13147580137E+01  0.61644128881E+01  0.10566000000E+00 0.  1.
         14    1    4    4    0    0 -0.10289284041E+02  0.93982467197E+00  0.31696588211E+01  0.10807375886E+02  0.00000000000E+00 0. -1.
<mgrwt>
<rscale>  0 0.81080658E+02</rscale>
<asrwt>0</asrwt>
<pdfrwt beam="1">  1        2 0.63377871E-02 0.81080658E+02</pdfrwt>
<pdfrwt beam="2">  1       -1 0.61377640E-02 0.81080658E+02</pdfrwt>
<totfact> 0.13819962E+05</totfact>
</mgrwt>
</event>
<event>
 8    1  0.2561077E-016  0.7951022E+02  0.7818608E-02  0.1330447E+00
          2   -1    0    0  501    0  0.00000000000E+00  0.00000000000E+00  0.11072850654E+03  0.11072850657E+03  0.25500000000E-02 0. -1.
         -1   -1    0    0    0  501 -0.00000000000E+00 -0.00000000000E+00 -0.14273368261E+02  0.14273369150E+02  0.50400000000E-02 0.  1.
         24    2    1    2    0    0  0.00000000000E+00  0.00000000000E+00  0.96455138279E+02  0.12500187572E+03  0.79510220934E+02 0.  0.
         66    2    3    3    0    0  0.19447640906E+02 -0.34473720084E+02  0.42853889994E+02  0.58370403464E+02  0.19999999189E+01 0.  0.
        -13    1    3    3    0    0 -0.19447640906E+02  0.34473720084E+02  0.53601248285E+02  0.66631472256E+02  0.10566000000E+00 0.  1.
         13    1    4    4    0    0  0.50113534843E+01 -0.85922307489E+01  0.11815029968E+02  0.15444940601E+02  0.10566000000E+00 0.  1.
        -13    1    4    4    0    0  0.13090180946E+02 -0.23245940176E+02  0.27543918885E+02  0.38345862924E+02  0.10566000000E+00 0. -1.
         14    1    4    4    0    0  0.13461064753E+01 -0.26355491592E+01  0.34949411410E+01  0.45795999380E+01  0.00000000000E+00 0. -1.
<mgrwt>
<rscale>  0 0.79510221E+02</rscale>
<asrwt>0</asrwt>
<pdfrwt beam="1">  1        2 0.17035155E-01 0.79510221E+02</pdfrwt>
<pdfrwt beam="2">  1       -1 0.21959028E-02 0.79510221E+02</pdfrwt>
<totfact> 0.18550516E+05</totfact>
</mgrwt>
</event>
<event>
 8    1  0.2561077E-016  0.8173847E+02  0.7818608E-02  0.1324189E+00
         -1   -1    0    0    0  501 -0.00000000000E+00  0.00000000000E+00  0.39193110848E+01  0.39193143253E+01  0.50400000000E-02 0.  1.
          2   -1    0    0  501    0  0.00000000000E+00 -0.00000000000E+00 -0.42617024986E+03  0.42617024987E+03  0.25500000000E-02 0. -1.
         24    2    1    2    0    0  0.00000000000E+00  0.00000000000E+00 -0.42225093877E+03  0.43008956419E+03  0.81738472772E+02 0.  0.
         66    2    3    3    0    0  0.10216604130E+02  0.30133194701E+02 -0.34600858586E+03  0.34747421475E+03  0.19999996077E+01 0.  0.
        -13    1    3    3    0    0 -0.10216604130E+02 -0.30133194701E+02 -0.76242352909E+02  0.82615349446E+02  0.10566000000E+00 0.  1.
         13    1    4    4    0    0  0.31860260691E+01  0.11390318449E+02 -0.12614410390E+03  0.12669741998E+03  0.10566000000E+00 0. -1.
        -13    1    4    4    0    0  0.48372062830E+01  0.14164243967E+02 -0.16194050670E+03  0.16263075738E+03  0.10566000000E+00 0.  1.
        -14    1    4    4    0    0  0.21933717777E+01  0.45786322854E+01 -0.57923975267E+02  0.58146037389E+02  0.00000000000E+00 0.  1.
<mgrwt>
<rscale>  0 0.81738473E+02</rscale>
<asrwt>0</asrwt>
<pdfrwt beam="1">  1        2 0.65564617E-01 0.81738473E+02</pdfrwt>
<pdfrwt beam="2">  1       -1 0.60297153E-03 0.81738473E+02</pdfrwt>
<totfact> 0.27302728E+05</totfact>
</mgrwt>
</event>
<event>
 8    1  0.2561077E-016  0.7513025E+02  0.7818608E-02  0.1343468E+00
         -1   -1    0    0    0  501 -0.00000000000E+00  0.00000000000E+00  0.16779506616E+02  0.16779507373E+02  0.50400000000E-02 0.  1.
          2   -1    0    0  501    0  0.00000000000E+00 -0.00000000000E+00 -0.84098939113E+02  0.84098939152E+02  0.25500000000E-02 0. -1.
         24    2    1    2    0    0  0.00000000000E+00  0.00000000000E+00 -0.67319432497E+02  0.10087844652E+03  0.75130253436E+02 0.  0.
         66    2    3    3    0    0 -0.20985942750E+02  0.16281835134E+02 -0.69300265714E+02  0.74243078820E+02  0.19999940553E+01 0.  0.
        -13    1    3    3    0    0  0.20985942750E+02 -0.16281835134E+02  0.19808332168E+01  0.26635367704E+02  0.10566000000E+00 0.  1.
         13    1    4    4    0    0 -0.51840911334E+01  0.44082759356E+01 -0.19907619696E+02  0.21038825623E+02  0.10566000000E+00 0. -1.
        -13    1    4    4    0    0 -0.62456406517E+01  0.48940938153E+01 -0.19178482527E+02  0.20755373702E+02  0.10566000000E+00 0.  1.
         14    1    4    4    0    0 -0.95562109650E+01  0.69794653832E+01 -0.30214163491E+02  0.32448879496E+02  0.00000000000E+00 0. -1.
<mgrwt>
<rscale>  0 0.75130253E+02</rscale>
<asrwt>0</asrwt>
<pdfrwt beam="1">  1        2 0.12938298E-01 0.75130253E+02</pdfrwt>
<pdfrwt beam="2">  1       -1 0.25814627E-02 0.75130253E+02</pdfrwt>
<totfact> 0.20014775E+05</totfact>
</mgrwt>
</event>
<event>
 8    1  0.2561077E-016  0.8056966E+02  0.7818608E-02  0.1327443E+00
         -1   -1    0    0    0  501 -0.00000000000E+00  0.00000000000E+00  0.27829716901E+02  0.27829717357E+02  0.50400000000E-02 0.  1.
          2   -1    0    0  501    0  0.00000000000E+00 -0.00000000000E+00 -0.58314192493E+02  0.58314192549E+02  0.25500000000E-02 0. -1.
         24    2    1    2    0    0 -0.35527136788E-14 -0.35527136788E-14 -0.30484475592E+02  0.86143909906E+02  0.80569659065E+02 0.  0.
         66    2    3    3    0    0  0.28565780130E+02  0.27556249453E+02 -0.22464592838E+02  0.45650943087E+02  0.19999987420E+01 0.  0.
        -13    1    3    3    0    0 -0.28565780130E+02 -0.27556249453E+02 -0.80198827542E+01  0.40492966819E+02  0.10566000000E+00 0.  1.
         13    1    4    4    0    0  0.21591504807E+02  0.20948553316E+02 -0.17570673846E+02  0.34839269644E+02  0.10566000000E+00 0. -1.
        -13    1    4    4    0    0  0.41944290045E+01  0.41092433919E+01 -0.25704857935E+01  0.64107470062E+01  0.10566000000E+00 0.  1.
         14    1    4    4    0    0  0.27798463190E+01  0.24984527457E+01 -0.23234331980E+01  0.44009264372E+01  0.00000000000E+00 0. -1.
<mgrwt>
<rscale>  0 0.80569659E+02</rscale>
<asrwt>0</asrwt>
<pdfrwt beam="1">  1        2 0.89714142E-02 0.80569659E+02</pdfrwt>
<pdfrwt beam="2">  1       -1 0.42814950E-02 0.80569659E+02</pdfrwt>
<totfact> 0.15168430E+05</totfact>
</mgrwt>
</event>
<event>
 8    1  0.2561077E-016  0.8062345E+02  0.7818608E-02  0.1327291E+00
          2   -1    0    0  501    0  0.00000000000E+00  0.00000000000E+00  0.14522804405E+04  0.14522804405E+04  0.25500000000E-02 0. -1.
         -1   -1    0    0    0  501 -0.00000000000E+00 -0.00000000000E+00 -0.11189484725E+01  0.11189598231E+01  0.50400000000E-02 0.  1.
         24    2    1    2    0    0  0.17763568394E-14  0.00000000000E+00  0.14511614920E+04  0.14533994003E+04  0.80623451442E+02 0.  0.
         66    2    3    3    0    0 -0.99834197181E+01 -0.87570906140E+01  0.14116864083E+04  0.14117502862E+04  0.19999993448E+01 0.  0.
        -13    1    3    3    0    0  0.99834197181E+01  0.87570906140E+01  0.39475083733E+02  0.41649114097E+02  0.10566000000E+00 0.  1.
         13    1    4    4    0    0 -0.31025768122E+01 -0.30843579546E+01  0.47803118765E+03  0.47805121773E+03  0.10566000000E+00 0. -1.
        -13    1    4    4    0    0 -0.17502818749E+01 -0.23429587164E+01  0.31814251545E+03  0.31815597470E+03  0.10566000000E+00 0.  1.
        -14    1    4    4    0    0 -0.51305610310E+01 -0.33297739430E+01  0.61551270518E+03  0.61554309377E+03  0.00000000000E+00 0.  1.
<mgrwt>
<rscale>  0 0.80623451E+02</rscale>
<asrwt>0</asrwt>
<pdfrwt beam="1">  1        2 0.22342655E+00 0.80623451E+02</pdfrwt>
<pdfrwt beam="2">  1       -1 0.17214773E-03 0.80623451E+02</pdfrwt>
<totfact> 0.32961857E+05</totfact>
</mgrwt>
</event>
<event>
 8    1  0.2561077E-016  0.8030254E+02  0.7818608E-02  0.1328195E+00
          2   -1    0    0  501    0  0.00000000000E+00  0.00000000000E+00  0.25115075532E+03  0.25115075533E+03  0.25500000000E-02 0. -1.
         -1   -1    0    0    0  501 -0.00000000000E+00 -0.00000000000E+00 -0.64189498526E+01  0.64189518312E+01  0.50400000000E-02 0.  1.
         24    2    1    2    0    0 -0.35527136788E-14  0.00000000000E+00  0.24473180547E+03  0.25756970716E+03  0.80302536954E+02 0.  0.
         66    2    3    3    0    0  0.29132143718E+02  0.19512713925E+02  0.18502398681E+03  0.18832764932E+03  0.19999997278E+01 0.  0.
        -13    1    3    3    0    0 -0.29132143718E+02 -0.19512713925E+02  0.59707818653E+02  0.69242057845E+02  0.10566000000E+00 0.  1.
         13    1    4    4    0    0  0.23485615411E+02  0.16048320667E+02  0.15046405069E+03  0.15312924097E+03  0.10566000000E+00 0. -1.
        -13    1    4    4    0    0  0.13157282232E+01  0.10331105231E+01  0.10272968067E+02  0.10408818139E+02  0.10566000000E+00 0.  1.
         14    1    4    4    0    0  0.43308000841E+01  0.24312827349E+01  0.24286968057E+02  0.24789590204E+02  0.00000000000E+00 0. -1.
<mgrwt>
<rscale>  0 0.80302537E+02</rscale>
<asrwt>0</asrwt>
<pdfrwt beam="1">  1        2 0.38638580E-01 0.80302537E+02</pdfrwt>
<pdfrwt beam="2">  1       -1 0.98753085E-03 0.80302537E+02</pdfrwt>
<totfact> 0.23671574E+05</totfact>
</mgrwt>
</event>
<event>
 8    1  0.2561077E-016  0.7909905E+02  0.7818608E-02  0.1331628E+00
         -1   -1    0    0    0  501 -0.00000000000E+00  0.00000000000E+00  0.34855751532E+01  0.34855787970E+01  0.50400000000E-02 0.  1.
          2   -1    0    0  501    0  0.00000000000E+00 -0.00000000000E+00 -0.44875349275E+03  0.44875349276E+03  0.25500000000E-02 0. -1.
         24    2    1    2    0    0  0.00000000000E+00  0.00000000000E+00 -0.44526791760E+03  0.45223907156E+03  0.79099048030E+02 0.  0.
         66    2    3    3    0    0 -0.34808536398E+02  0.18700897468E+02 -0.22789647951E+03  0.23130534613E+03  0.20000001333E+01 0.  0.
        -13    1    3    3    0    0  0.34808536398E+02 -0.18700897468E+02 -0.21737143808E+03  0.22093372543E+03  0.10566000000E+00 0.  1.
         13    1    4    4    0    0 -0.26212671863E+01  0.17422830351E+01 -0.16622282596E+02  0.16917979624E+02  0.10566000000E+00 0. -1.
        -13    1    4    4    0    0 -0.23312620048E+02  0.11674171027E+02 -0.15215810722E+03  0.15437572763E+03  0.10566000000E+00 0.  1.
        -14    1    4    4    0    0 -0.88746491632E+01  0.52844434051E+01 -0.59116089695E+02  0.60011638877E+02  0.00000000000E+00 0.  1.
<mgrwt>
<rscale>  0 0.79099048E+02</rscale>
<asrwt>0</asrwt>
<pdfrwt beam="1">  1        2 0.69038953E-01 0.79099048E+02</pdfrwt>
<pdfrwt beam="2">  1       -1 0.53624297E-03 0.79099048E+02</pdfrwt>
<totfact> 0.30272031E+05</totfact>
</mgrwt>
</event>
<event>
 8    1  0.2561077E-016  0.7680398E+02  0.7818608E-02  0.1338374E+00
          2   -1    0    0  501    0  0.00000000000E+00  0.00000000000E+00  0.71901216862E+02  0.71901216907E+02  0.25500000000E-02 0. -1.
         -1   -1    0    0    0  501 -0.00000000000E+00 -0.00000000000E+00 -0.20510259602E+02  0.20510260221E+02  0.50400000000E-02 0.  1.
         24    2    1    2    0    0 -0.17763568394E-14  0.00000000000E+00  0.51390957260E+02  0.92411477128E+02  0.76803975267E+02 0.  0.
         66    2    3    3    0    0 -0.13471488550E+02  0.24383817960E+02  0.57470729862E+02  0.63897859662E+02  0.20000241152E+01 0.  0.
        -13    1    3    3    0    0  0.13471488550E+02 -0.24383817960E+02 -0.60797726015E+01  0.28513617466E+02  0.10566000000E+00 0.  1.
         13    1    4    4    0    0 -0.75084481866E-01  0.13200736247E+00  0.21050687689E+00  0.28025132289E+00  0.10566000000E+00 0. -1.
        -13    1    4    4    0    0 -0.82058838996E+01  0.14340648547E+02  0.33282307329E+02  0.37157958454E+02  0.10566000000E+00 0. -1.
         14    1    4    4    0    0 -0.51905201680E+01  0.99111620509E+01  0.23977915656E+02  0.26459649885E+02  0.00000000000E+00 0. -1.
<mgrwt>
<rscale>  0 0.76803975E+02</rscale>
<asrwt>0</asrwt>
<pdfrwt beam="1">  1        2 0.11061726E-01 0.76803975E+02</pdfrwt>
<pdfrwt beam="2">  1       -1 0.31554247E-02 0.76803975E+02</pdfrwt>
<totfact> 0.18142560E+05</totfact>
</mgrwt>
</event>
<event>
 8    1  0.2561077E-016  0.8001132E+02  0.7818608E-02  0.1329019E+00
         -1   -1    0    0    0  501 -0.00000000000E+00  0.00000000000E+00  0.21805318011E+03  0.21805318017E+03  0.50400000000E-02 0.  1.
          2   -1    0    0  501    0  0.00000000000E+00 -0.00000000000E+00 -0.73397352403E+01  0.73397356833E+01  0.25500000000E-02 0. -1.
         24    2    1    2    0    0  0.00000000000E+00  0.00000000000E+00  0.21071344487E+03  0.22539291586E+03  0.80011315870E+02 0.  0.
         66    2    3    3    0    0 -0.22977252205E+02 -0.32601210076E+02  0.97628506719E+02  0.10548041685E+03  0.19999991122E+01 0.  0.
        -13    1    3    3    0    0  0.22977252205E+02  0.32601210076E+02  0.11308493815E+03  0.11991249901E+03  0.10566000000E+00 0.  1.
         13    1    4    4    0    0 -0.99266427883E+01 -0.13376449363E+02  0.39648350077E+02  0.43005470146E+02  0.10566000000E+00 0. -1.
        -13    1    4    4    0    0 -0.12118679003E+02 -0.17903202175E+02  0.54712705247E+02  0.58829230051E+02  0.10566000000E+00 0.  1.
        -14    1    4    4    0    0 -0.93193041401E+00 -0.13215585379E+01  0.32674513947E+01  0.36457166487E+01  0.00000000000E+00 0.  1.
<mgrwt>
<rscale>  0 0.80011316E+02</rscale>
<asrwt>0</asrwt>
<pdfrwt beam="1">  1        2 0.11291900E-02 0.80011316E+02</pdfrwt>
<pdfrwt beam="2">  1       -1 0.33546644E-01 0.80011316E+02</pdfrwt>
<totfact> 0.96925001E+04</totfact>
</mgrwt>
</event>
<event>
 8    1  0.2561077E-016  0.7786976E+02  0.7818608E-02  0.1335208E+00
         -1   -1    0    0    0  501 -0.00000000000E+00  0.00000000000E+00  0.16471905117E+03  0.16471905125E+03  0.50400000000E-02 0.  1.
          2   -1    0    0  501    0  0.00000000000E+00 -0.00000000000E+00 -0.92030936546E+01  0.92030940079E+01  0.25500000000E-02 0. -1.
         24    2    1    2    0    0 -0.71054273576E-14 -0.44408920985E-15  0.15551595751E+03  0.17392214525E+03  0.77869760293E+02 0.  0.
         66    2    3    3    0    0 -0.38553851662E+02 -0.23990146979E+01  0.88229125307E+02  0.96335524616E+02  0.20000002728E+01 0.  0.
        -13    1    3    3    0    0  0.38553851662E+02  0.23990146979E+01  0.67286832207E+02  0.77586620638E+02  0.10566000000E+00 0.  1.
         13    1    4    4    0    0 -0.58602979068E+01 -0.19334484265E+00  0.13544639041E+02  0.14759704759E+02  0.10566000000E+00 0. -1.
        -13    1    4    4    0    0 -0.26853355487E+02 -0.20343581743E+01  0.59726927595E+02  0.65517618684E+02  0.10566000000E+00 0.  1.
         14    1    4    4    0    0 -0.58401982679E+01 -0.17131168086E+00  0.14957558671E+02  0.16058201173E+02  0.00000000000E+00 0. -1.
<mgrwt>
<rscale>  0 0.77869760E+02</rscale>
<asrwt>0</asrwt>
<pdfrwt beam="1">  1        2 0.14158606E-02 0.77869760E+02</pdfrwt>
<pdfrwt beam="2">  1       -1 0.25341392E-01 0.77869760E+02</pdfrwt>
<totfact> 0.11271251E+05</totfact>
</mgrwt>
</event>
<event>
 8    1  0.2561077E-016  0.8211492E+02  0.7818608E-02  0.1323155E+00
         -1   -1    0    0    0  501 -0.00000000000E+00  0.00000000000E+00  0.29685354395E+01  0.29685397180E+01  0.50400000000E-02 0.  1.
          2   -1    0    0  501    0  0.00000000000E+00 -0.00000000000E+00 -0.56786047238E+03  0.56786047238E+03  0.25500000000E-02 0. -1.
         24    2    1    2    0    0  0.35527136788E-14 -0.22204460493E-15 -0.56489193694E+03  0.57082901210E+03  0.82114923363E+02 0.  0.
         66    2    3    3    0    0  0.24464139605E+02 -0.19829435449E+01 -0.51120126478E+03  0.51179405946E+03  0.20000003561E+01 0.  0.
        -13    1    3    3    0    0 -0.24464139605E+02  0.19829435449E+01 -0.53690672161E+02  0.59034952637E+02  0.10566000000E+00 0.  1.
         13    1    4    4    0    0  0.31080156135E+01 -0.22021606398E+00 -0.66195653139E+02  0.66269026813E+02  0.10566000000E+00 0. -1.
        -13    1    4    4    0    0  0.10715363678E+02  0.22107059458E-01 -0.21878444253E+03  0.21904671411E+03  0.10566000000E+00 0.  1.
        -14    1    4    4    0    0  0.10640760314E+02 -0.17848345404E+01 -0.22622116911E+03  0.22647831854E+03  0.00000000000E+00 0.  1.
<mgrwt>
<rscale>  0 0.82114923E+02</rscale>
<asrwt>0</asrwt>
<pdfrwt beam="1">  1        2 0.87363063E-01 0.82114923E+02</pdfrwt>
<pdfrwt beam="2">  1       -1 0.45669854E-03 0.82114923E+02</pdfrwt>
<totfact> 0.29579832E+05</totfact>
</mgrwt>
</event>
<event>
 8    1  0.2561077E-016  0.8684756E+02  0.7818608E-02  0.1310670E+00
          2   -1    0    0  501    0  0.00000000000E+00  0.00000000000E+00  0.76546816167E+03  0.76546816168E+03  0.25500000000E-02 0. -1.
         -1   -1    0    0    0  501 -0.00000000000E+00 -0.00000000000E+00 -0.24633587203E+01  0.24633638762E+01  0.50400000000E-02 0.  1.
         24    2    1    2    0    0 -0.35527136788E-14 -0.35527136788E-14  0.76300480295E+03  0.76793152555E+03  0.86847559608E+02 0.  0.
         66    2    3    3    0    0 -0.31740027654E+02  0.16059511565E+02  0.60157026958E+03  0.60262436601E+03  0.19999997136E+01 0.  0.
        -13    1    3    3    0    0  0.31740027654E+02 -0.16059511565E+02  0.16143453338E+03  0.16530715955E+03  0.10566000000E+00 0.  1.
         13    1    4    4    0    0 -0.22791147390E+02  0.11638730713E+02  0.42672254905E+03  0.42748922967E+03  0.10566000000E+00 0. -1.
        -13    1    4    4    0    0 -0.11417737352E+01  0.55223690830E+00  0.17372001720E+02  0.17418559661E+02  0.10566000000E+00 0.  1.
        -14    1    4    4    0    0 -0.78071065288E+01  0.38685439427E+01  0.15747571880E+03  0.15771657667E+03  0.00000000000E+00 0.  1.
<mgrwt>
<rscale>  0 0.86847560E+02</rscale>
<asrwt>0</asrwt>
<pdfrwt beam="1">  1        2 0.11776451E+00 0.86847560E+02</pdfrwt>
<pdfrwt beam="2">  1       -1 0.37897808E-03 0.86847560E+02</pdfrwt>
<totfact> 0.27515070E+05</totfact>
</mgrwt>
</event>
<event>
 8    1  0.2561077E-016  0.8008408E+02  0.7818608E-02  0.1328813E+00
         -1   -1    0    0    0  501 -0.00000000000E+00  0.00000000000E+00  0.34375123401E+02  0.34375123771E+02  0.50400000000E-02 0.  1.
          2   -1    0    0  501    0  0.00000000000E+00 -0.00000000000E+00 -0.46643175146E+02  0.46643175215E+02  0.25500000000E-02 0. -1.
         24    2    1    2    0    0  0.71054273576E-14  0.17763568394E-14 -0.12268051744E+02  0.81018298986E+02  0.80084078798E+02 0.  0.
         66    2    3    3    0    0  0.34308139851E+02  0.10343782692E+02  0.11883373187E+02  0.37805513949E+02  0.20000065540E+01 0.  0.
        -13    1    3    3    0    0 -0.34308139851E+02 -0.10343782692E+02 -0.24151424932E+02  0.43212785037E+02  0.10566000000E+00 0.  1.
         13    1    4    4    0    0  0.80516305415E+00  0.38085139277E+00  0.45882298723E+00  0.10074809657E+01  0.10566000000E+00 0. -1.
        -13    1    4    4    0    0  0.61933285808E+01  0.18751133893E+01  0.26688026678E+01  0.70005028996E+01  0.10566000000E+00 0.  1.
         14    1    4    4    0    0  0.27309648216E+02  0.80878179095E+01  0.87557475323E+01  0.29797530083E+02  0.00000000000E+00 0. -1.
<mgrwt>
<rscale>  0 0.80084079E+02</rscale>
<asrwt>0</asrwt>
<pdfrwt beam="1">  1        2 0.71758731E-02 0.80084079E+02</pdfrwt>
<pdfrwt beam="2">  1       -1 0.52884806E-02 0.80084079E+02</pdfrwt>
<totfact> 0.14678483E+05</totfact>
</mgrwt>
</event>
<event>
 8    1  0.2561077E-016  0.8044342E+02  0.7818608E-02  0.1327798E+00
          2   -1    0    0  501    0  0.00000000000E+00  0.00000000000E+00  0.10595529443E+04  0.10595529443E+04  0.25500000000E-02 0. -1.
         -1   -1    0    0    0  501 -0.00000000000E+00 -0.00000000000E+00 -0.15268529961E+01  0.15268613143E+01  0.50400000000E-02 0.  1.
         24    2    1    2    0    0  0.00000000000E+00  0.88817841970E-15  0.10580260913E+04  0.10610798056E+04  0.80443421166E+02 0.  0.
         66    2    3    3    0    0  0.17406185977E+02  0.72022488731E+01  0.99772478002E+03  0.99790459682E+03  0.20000000953E+01 0.  0.
        -13    1    3    3    0    0 -0.17406185977E+02 -0.72022488731E+01  0.60301311248E+02  0.63175208756E+02  0.10566000000E+00 0.  1.
         13    1    4    4    0    0  0.85509938752E+01  0.44744345493E+01  0.52766726233E+03  0.52775552196E+03  0.10566000000E+00 0. -1.
        -13    1    4    4    0    0  0.32536448936E+01  0.96025794507E+00  0.18291865253E+03  0.18295013776E+03  0.10566000000E+00 0. -1.
        -14    1    4    4    0    0  0.56015472082E+01  0.17675563787E+01  0.28713886516E+03  0.28719893710E+03  0.00000000000E+00 0.  1.
<mgrwt>
<rscale>  0 0.80443421E+02</rscale>
<asrwt>0</asrwt>
<pdfrwt beam="1">  1        2 0.16300836E+00 0.80443421E+02</pdfrwt>
<pdfrwt beam="2">  1       -1 0.23490079E-03 0.80443421E+02</pdfrwt>
<totfact> 0.34770681E+05</totfact>
</mgrwt>
</event>
<event>
 8    1  0.2561077E-016  0.7913380E+02  0.7818608E-02  0.1331528E+00
         -1   -1    0    0    0  501 -0.00000000000E+00  0.00000000000E+00  0.21435947194E+02  0.21435947786E+02  0.50400000000E-02 0.  1.
          2   -1    0    0  501    0  0.00000000000E+00 -0.00000000000E+00 -0.73033366059E+02  0.73033366103E+02  0.25500000000E-02 0. -1.
         24    2    1    2    0    0  0.17763568394E-14  0.00000000000E+00 -0.51597418865E+02  0.94469313890E+02  0.79133795772E+02 0.  0.
         66    2    3    3    0    0 -0.84831676974E+01  0.25899436927E+02 -0.60016603535E+02  0.65944959351E+02  0.19999991686E+01 0.  0.
        -13    1    3    3    0    0  0.84831676974E+01 -0.25899436927E+02  0.84191846699E+01  0.28524354538E+02  0.10566000000E+00 0.  1.
         13    1    4    4    0    0 -0.47848411971E+01  0.14778824353E+02 -0.36351449098E+02  0.39531599640E+02  0.10566000000E+00 0. -1.
        -13    1    4    4    0    0 -0.24037596688E+01  0.79679147466E+01 -0.16791393250E+02  0.18741071935E+02  0.10566000000E+00 0. -1.
         14    1    4    4    0    0 -0.12945668315E+01  0.31526978266E+01 -0.68737611869E+01  0.76722877762E+01  0.00000000000E+00 0. -1.
<mgrwt>
<rscale>  0 0.79133796E+02</rscale>
<asrwt>0</asrwt>
<pdfrwt beam="1">  1        2 0.11235902E-01 0.79133796E+02</pdfrwt>
<pdfrwt beam="2">  1       -1 0.32978381E-02 0.79133796E+02</pdfrwt>
<totfact> 0.16802963E+05</totfact>
</mgrwt>
</event>
<event>
 8    1  0.2561077E-016  0.7799260E+02  0.7818608E-02  0.1334847E+00
          2   -1    0    0  501    0  0.00000000000E+00  0.00000000000E+00  0.17452354650E+02  0.17452354837E+02  0.25500000000E-02 0. -1.
         -1   -1    0    0    0  501 -0.00000000000E+00 -0.00000000000E+00 -0.87135034171E+02  0.87135034316E+02  0.50400000000E-02 0.  1.
         24    2    1    2    0    0  0.00000000000E+00  0.35527136788E-14 -0.69682679520E+02  0.10458738915E+03  0.77992603141E+02 0.  0.
         66    2    3    3    0    0 -0.52768438750E+01 -0.28484350017E+02  0.91810638721E-01  0.29038107766E+02  0.19999990648E+01 0.  0.
        -13    1    3    3    0    0  0.52768438750E+01  0.28484350017E+02 -0.69774490159E+02  0.75549281387E+02  0.10566000000E+00 0.  1.
         13    1    4    4    0    0 -0.90774139478E+00 -0.27540996454E+01  0.21503085253E+00  0.29097184743E+01  0.10566000000E+00 0. -1.
        -13    1    4    4    0    0 -0.22041416267E+01 -0.16411010925E+02  0.77161912605E-01  0.16558883957E+02  0.10566000000E+00 0.  1.
        -14    1    4    4    0    0 -0.21649608535E+01 -0.93192394460E+01 -0.20038212641E+00  0.95695053344E+01  0.00000000000E+00 0.  1.
<mgrwt>
<rscale>  0 0.77992603E+02</rscale>
<asrwt>0</asrwt>
<pdfrwt beam="1">  1        2 0.26849777E-02 0.77992603E+02</pdfrwt>
<pdfrwt beam="2">  1       -1 0.13405390E-01 0.77992603E+02</pdfrwt>
<totfact> 0.12993987E+05</totfact>
</mgrwt>
</event>
<event>
 8    1  0.2561077E-016  0.8001834E+02  0.7818608E-02  0.1328999E+00
          2   -1    0    0  501    0  0.00000000000E+00  0.00000000000E+00  0.26459845588E+03  0.26459845589E+03  0.25500000000E-02 0. -1.
         -1   -1    0    0    0  501 -0.00000000000E+00 -0.00000000000E+00 -0.60496696017E+01  0.60496717011E+01  0.50400000000E-02 0.  1.
         24    2    1    2    0    0  0.71054273576E-14  0.22204460493E-15  0.25854878628E+03  0.27064812759E+03  0.80018335923E+02 0.  0.
         66    2    3    3    0    0 -0.38710896814E+02 -0.19179866007E+01  0.16258382785E+03  0.16715176719E+03  0.19999986720E+01 0.  0.
        -13    1    3    3    0    0  0.38710896814E+02  0.19179866007E+01  0.95964958433E+02  0.10349636040E+03  0.10566000000E+00 0.  1.
         13    1    4    4    0    0 -0.70842306401E+01 -0.89021756824E+00  0.31957357544E+02  0.32745422220E+02  0.10566000000E+00 0. -1.
        -13    1    4    4    0    0 -0.13138113290E+02 -0.35799876151E+00  0.55652090266E+02  0.57183078782E+02  0.10566000000E+00 0.  1.
         14    1    4    4    0    0 -0.18488552883E+02 -0.66977027091E+00  0.74974380035E+02  0.77223266193E+02  0.00000000000E+00 0. -1.
<mgrwt>
<rscale>  0 0.80018336E+02</rscale>
<asrwt>0</asrwt>
<pdfrwt beam="1">  1        2 0.40707464E-01 0.80018336E+02</pdfrwt>
<pdfrwt beam="2">  1       -1 0.93071836E-03 0.80018336E+02</pdfrwt>
<totfact> 0.24346457E+05</totfact>
</mgrwt>
</event>
<event>
 8    1  0.2561077E-016  0.7482616E+02  0.7818608E-02  0.1344410E+00
          2   -1    0    0  501    0  0.00000000000E+00  0.00000000000E+00  0.98291325729E+03  0.98291325730E+03  0.25500000000E-02 0. -1.
         -1   -1    0    0    0  501 -0.00000000000E+00 -0.00000000000E+00 -0.14240668864E+01  0.14240758050E+01  0.50400000000E-02 0.  1.
         24    2    1    2    0    0  0.00000000000E+00 -0.35527136788E-14  0.98148919041E+03  0.98433733310E+03  0.74826161547E+02 0.  0.
         66    2    3    3    0    0  0.95387639813E+01 -0.12194133768E+02  0.93876002170E+03  0.93888980359E+03  0.20000046831E+01 0.  0.
        -13    1    3    3    0    0 -0.95387639813E+01  0.12194133768E+02  0.42729168704E+02  0.45447529513E+02  0.10566000000E+00 0.  1.
         13    1    4    4    0    0  0.13605568138E+01 -0.10648427977E+01  0.10648081952E+03  0.10649488765E+03  0.10566000000E+00 0. -1.
        -13    1    4    4    0    0  0.70227370318E+00 -0.71380060879E+00  0.44466059140E+02  0.44477458101E+02  0.10566000000E+00 0.  1.
         14    1    4    4    0    0  0.74759334643E+01 -0.10415490362E+02  0.78781314304E+03  0.78791745784E+03  0.00000000000E+00 0. -1.
<mgrwt>
<rscale>  0 0.74826162E+02</rscale>
<asrwt>0</asrwt>
<pdfrwt beam="1">  1        2 0.15121758E+00 0.74826162E+02</pdfrwt>
<pdfrwt beam="2">  1       -1 0.21908767E-03 0.74826162E+02</pdfrwt>
<totfact> 0.41849995E+05</totfact>
</mgrwt>
</event>
<event>
 8    1  0.2561077E-016  0.8028418E+02  0.7818608E-02  0.1328247E+00
         -1   -1    0    0    0  501 -0.00000000000E+00  0.00000000000E+00  0.30947678100E+02  0.30947678511E+02  0.50400000000E-02 0.  1.
          2   -1    0    0  501    0  0.00000000000E+00 -0.00000000000E+00 -0.52068115468E+02  0.52068115530E+02  0.25500000000E-02 0. -1.
         24    2    1    2    0    0  0.17763568394E-14  0.35527136788E-14 -0.21120437368E+02  0.83015794041E+02  0.80284177679E+02 0.  0.
         66    2    3    3    0    0  0.15441457409E+02 -0.29013375052E+02 -0.34353085095E+02  0.47585176367E+02  0.20000038737E+01 0.  0.
        -13    1    3    3    0    0 -0.15441457409E+02  0.29013375052E+02  0.13232647728E+02  0.35430617674E+02  0.10566000000E+00 0.  1.
         13    1    4    4    0    0  0.52795507485E+01 -0.10864704246E+02 -0.12859929883E+02  0.17643820876E+02  0.10566000000E+00 0. -1.
        -13    1    4    4    0    0  0.31655350208E+01 -0.44895764964E+01 -0.53995181511E+01  0.77034323120E+01  0.10566000000E+00 0.  1.
        -14    1    4    4    0    0  0.69963716397E+01 -0.13659094310E+02 -0.16093637061E+02  0.22237923179E+02  0.00000000000E+00 0.  1.
<mgrwt>
<rscale>  0 0.80284178E+02</rscale>
<asrwt>0</asrwt>
<pdfrwt beam="1">  1        2 0.80104793E-02 0.80284178E+02</pdfrwt>
<pdfrwt beam="2">  1       -1 0.47611813E-02 0.80284178E+02</pdfrwt>
<totfact> 0.14930691E+05</totfact>
</mgrwt>
</event>
<event>
 8    1  0.2561077E-016  0.8083775E+02  0.7818608E-02  0.1326691E+00
         -1   -1    0    0    0  501 -0.00000000000E+00  0.00000000000E+00  0.10918144565E+01  0.10918260891E+01  0.50400000000E-02 0.  1.
          2   -1    0    0  501    0  0.00000000000E+00 -0.00000000000E+00 -0.14962950398E+04  0.14962950398E+04  0.25500000000E-02 0. -1.
         24    2    1    2    0    0  0.00000000000E+00  0.00000000000E+00 -0.14952032254E+04  0.14973868659E+04  0.80837745306E+02 0.  0.
         66    2    3    3    0    0 -0.51490660414E+01  0.95209640766E+01 -0.14689282658E+04  0.14689695068E+04  0.20000051733E+01 0.  0.
        -13    1    3    3    0    0  0.51490660414E+01 -0.95209640766E+01 -0.26274959503E+02  0.28417359113E+02  0.10566000000E+00 0.  1.
         13    1    4    4    0    0 -0.13481743719E+01  0.22456054514E+01 -0.33727148963E+03  0.33728167635E+03  0.10566000000E+00 0. -1.
        -13    1    4    4    0    0 -0.38423746171E+01  0.64394957509E+01 -0.97651167802E+03  0.97654047505E+03  0.10566000000E+00 0.  1.
        -14    1    4    4    0    0  0.41482947669E-01  0.83586287432E+00 -0.15514509820E+03  0.15514735539E+03  0.00000000000E+00 0.  1.
<mgrwt>
<rscale>  0 0.80837745E+02</rscale>
<asrwt>0</asrwt>
<pdfrwt beam="1">  1        2 0.23019760E+00 0.80837745E+02</pdfrwt>
<pdfrwt beam="2">  1       -1 0.16797355E-03 0.80837745E+02</pdfrwt>
<totfact> 0.32392917E+05</totfact>
</mgrwt>
</event>
<event>
 8    1  0.2561077E-016  0.8099745E+02  0.7818608E-02  0.1326244E+00
         -1   -1    0    0    0  501 -0.00000000000E+00  0.00000000000E+00  0.49377339228E+01  0.49377364950E+01  0.50400000000E-02 0.  1.
          2   -1    0    0  501    0  0.00000000000E+00 -0.00000000000E+00 -0.33216581854E+03  0.33216581855E+03  0.25500000000E-02 0. -1.
         24    2    1    2    0    0  0.00000000000E+00 -0.71054273576E-14 -0.32722808462E+03  0.33710355505E+03  0.80997453427E+02 0.  0.
         66    2    3    3    0    0 -0.13770471326E+01 -0.40445277050E+02 -0.16642736753E+03  0.17128860254E+03  0.20000006410E+01 0.  0.
        -13    1    3    3    0    0  0.13770471326E+01  0.40445277050E+02 -0.16080071709E+03  0.16581495251E+03  0.10566000000E+00 0.  1.
         13    1    4    4    0    0 -0.27037458301E+00 -0.15090042873E+02 -0.65660257705E+02  0.67372569361E+02  0.10566000000E+00 0. -1.
        -13    1    4    4    0    0 -0.39451625754E+00 -0.83866446334E+01 -0.32157601682E+02  0.33235733198E+02  0.10566000000E+00 0.  1.
         14    1    4    4    0    0 -0.71215629207E+00 -0.16968589544E+02 -0.68609508144E+02  0.70680299982E+02  0.00000000000E+00 0. -1.
<mgrwt>
<rscale>  0 0.80997453E+02</rscale>
<asrwt>0</asrwt>
<pdfrwt beam="1">  1        2 0.51102416E-01 0.80997453E+02</pdfrwt>
<pdfrwt beam="2">  1       -1 0.75965183E-03 0.80997453E+02</pdfrwt>
<totfact> 0.25604437E+05</totfact>
</mgrwt>
</event>
<event>
 8    1  0.2561077E-016  0.8279818E+02  0.7818608E-02  0.1321293E+00
          2   -1    0    0  501    0  0.00000000000E+00  0.00000000000E+00  0.14416204490E+04  0.14416204490E+04  0.25500000000E-02 0. -1.
         -1   -1    0    0    0  501 -0.00000000000E+00 -0.00000000000E+00 -0.11888544322E+01  0.11888651154E+01  0.50400000000E-02 0.  1.
         24    2    1    2    0    0  0.00000000000E+00  0.17763568394E-14  0.14404315945E+04  0.14428093141E+04  0.82798177971E+02 0.  0.
         66    2    3    3    0    0 -0.34095319069E+01  0.13629013805E+02  0.13987812502E+04  0.13988532306E+04  0.20000041207E+01 0.  0.
        -13    1    3    3    0    0  0.34095319069E+01 -0.13629013805E+02  0.41650344329E+02  0.43956083446E+02  0.10566000000E+00 0.  1.
         13    1    4    4    0    0 -0.16664603944E+01  0.77829672186E+01  0.73159776841E+03  0.73164107155E+03  0.10566000000E+00 0. -1.
        -13    1    4    4    0    0 -0.23126156237E+00  0.16784028659E+01  0.14752784805E+03  0.14753761430E+03  0.10566000000E+00 0.  1.
         14    1    4    4    0    0 -0.15118099501E+01  0.41676437207E+01  0.51965563373E+03  0.51967454478E+03  0.00000000000E+00 0. -1.
<mgrwt>
<rscale>  0 0.82798178E+02</rscale>
<asrwt>0</asrwt>
<pdfrwt beam="1">  1        2 0.22178883E+00 0.82798178E+02</pdfrwt>
<pdfrwt beam="2">  1       -1 0.18290062E-03 0.82798178E+02</pdfrwt>
<totfact> 0.30828315E+05</totfact>
</mgrwt>
</event>
<event>
 8    1  0.2561077E-016  0.8035841E+02  0.7818608E-02  0.1328037E+00
         -1   -1    0    0    0  501 -0.00000000000E+00  0.00000000000E+00  0.19174010131E+01  0.19174076371E+01  0.50400000000E-02 0.  1.
          2   -1    0    0  501    0  0.00000000000E+00 -0.00000000000E+00 -0.84195513399E+03  0.84195513400E+03  0.25500000000E-02 0. -1.
         24    2    1    2    0    0  0.00000000000E+00  0.00000000000E+00 -0.84003773298E+03  0.84387254163E+03  0.80358407736E+02 0.  0.
         66    2    3    3    0    0 -0.17002351495E+02 -0.24654669119E+02 -0.70116383291E+03  0.70180599402E+03  0.19999996387E+01 0.  0.
        -13    1    3    3    0    0  0.17002351495E+02  0.24654669119E+02 -0.13887390007E+03  0.14206654761E+03  0.10566000000E+00 0.  1.
         13    1    4    4    0    0 -0.18912137885E+01 -0.34613061158E+01 -0.84306771172E+02  0.84399053070E+02  0.10566000000E+00 0. -1.
        -13    1    4    4    0    0 -0.30196400452E+01 -0.48305380220E+01 -0.14156840659E+03  0.14168301674E+03  0.10566000000E+00 0.  1.
         14    1    4    4    0    0 -0.12091497661E+02 -0.16362824982E+02 -0.47528865514E+03  0.47572392421E+03  0.00000000000E+00 0. -1.
<mgrwt>
<rscale>  0 0.80358408E+02</rscale>
<asrwt>0</asrwt>
<pdfrwt beam="1">  1        2 0.12953126E+00 0.80358408E+02</pdfrwt>
<pdfrwt beam="2">  1       -1 0.29498595E-03 0.80358408E+02</pdfrwt>
<totfact> 0.34247649E+05</totfact>
</mgrwt>
</event>
<event>
 8    1  0.2561077E-016  0.7720065E+02  0.7818608E-02  0.1337189E+00
          2   -1    0    0  501    0  0.00000000000E+00  0.00000000000E+00  0.32716511077E+02  0.32716511176E+02  0.25500000000E-02 0. -1.
         -1   -1    0    0    0  501 -0.00000000000E+00 -0.00000000000E+00 -0.45542292485E+02  0.45542292764E+02  0.50400000000E-02 0.  1.
         24    2    1    2    0    0  0.00000000000E+00  0.00000000000E+00 -0.12825781408E+02  0.78258803940E+02  0.77200645887E+02 0.  0.
         66    2    3    3    0    0 -0.51656751464E+00  0.17242823485E+02  0.28557872256E+02  0.33423552648E+02  0.20000000220E+01 0.  0.
        -13    1    3    3    0    0  0.51656751464E+00 -0.17242823485E+02 -0.41383653665E+02  0.44835251292E+02  0.10566000000E+00 0.  1.
         13    1    4    4    0    0 -0.24797021878E+00  0.66734571244E+01  0.10764014794E+02  0.12667742409E+02  0.10566000000E+00 0. -1.
        -13    1    4    4    0    0  0.60956569872E+00  0.29057955144E+01  0.50735710483E+01  0.58794136723E+01  0.10566000000E+00 0.  1.
        -14    1    4    4    0    0 -0.87816299459E+00  0.76635708458E+01  0.12720286414E+02  0.14876396567E+02  0.00000000000E+00 0.  1.
<mgrwt>
<rscale>  0 0.77200646E+02</rscale>
<asrwt>0</asrwt>
<pdfrwt beam="1">  1        2 0.50333094E-02 0.77200646E+02</pdfrwt>
<pdfrwt beam="2">  1       -1 0.70065066E-02 0.77200646E+02</pdfrwt>
<totfact> 0.15114368E+05</totfact>
</mgrwt>
</event>
<event>
 8    1  0.2561077E-016  0.7672257E+02  0.7818608E-02  0.1338618E+00
         -1   -1    0    0    0  501 -0.00000000000E+00  0.00000000000E+00  0.91707397368E+01  0.91707411218E+01  0.50400000000E-02 0.  1.
          2   -1    0    0  501    0  0.00000000000E+00 -0.00000000000E+00 -0.16046559812E+03  0.16046559814E+03  0.25500000000E-02 0. -1.
         24    2    1    2    0    0  0.00000000000E+00  0.00000000000E+00 -0.15129485838E+03  0.16963633926E+03  0.76722574415E+02 0.  0.
         66    2    3    3    0    0 -0.29496146713E+02 -0.43431337383E+01 -0.12897950831E+03  0.13239561565E+03  0.20000000355E+01 0.  0.
        -13    1    3    3    0    0  0.29496146713E+02  0.43431337383E+01 -0.22315350074E+02  0.37240723604E+02  0.10566000000E+00 0.  1.
         13    1    4    4    0    0 -0.12810688362E+02 -0.10773790605E+01 -0.55920896051E+02  0.57379719947E+02  0.10566000000E+00 0. -1.
        -13    1    4    4    0    0 -0.93437169006E+01 -0.19982664435E+01 -0.42765825700E+02  0.43820373414E+02  0.10566000000E+00 0.  1.
        -14    1    4    4    0    0 -0.73417414508E+01 -0.12674882343E+01 -0.30292786554E+02  0.31195522294E+02  0.00000000000E+00 0.  1.
<mgrwt>
<rscale>  0 0.76722574E+02</rscale>
<asrwt>0</asrwt>
<pdfrwt beam="1">  1        2 0.24687013E-01 0.76722574E+02</pdfrwt>
<pdfrwt beam="2">  1       -1 0.14108833E-02 0.76722574E+02</pdfrwt>
<totfact> 0.22868761E+05</totfact>
</mgrwt>
</event>
