<event>
 8    1  0.2676873E-020  0.7729765E+02  0.7818608E-02  0.1336900E+00
         -1   -1    0    0    0  501 -0.00000000000E+00  0.00000000000E+00  0.33736297433E+01  0.33736335081E+01  0.50400000000E-02 0.  1.
          2   -1    0    0  501    0  0.00000000000E+00 -0.00000000000E+00 -0.44276673370E+03  0.44276673371E+03  0.25500000000E-02 0. -1.
         24    2    1    2    0    0  0.00000000000E+00  0.00000000000E+00 -0.43939310396E+03  0.44614036722E+03  0.77297654909E+02 0.  0.
         66    2    3    3    0    0  0.25899825905E+02  0.28514015624E+02 -0.23604199993E+03  0.23917289938E+03  0.19999996118E+01 0.  0.
        -13    1    3    3    0    0 -0.25899825905E+02 -0.28514015624E+02 -0.20335110403E+03  0.20696746784E+03  0.10566000000E+00 0.  1.
         13    1    4    4    0    0  0.12749431533E+02  0.14973420975E+02 -0.12341189529E+03  0.12496902978E+03  0.10566000000E+00 0.  1.
        -13    1    4    4    0    0  0.11059042353E+02  0.11787793243E+02 -0.95842940704E+02  0.97196373051E+02  0.10566000000E+00 0. -1.
        -14    1    4    4    0    0  0.20913520182E+01  0.17528014051E+01 -0.16787163935E+02  0.17007496554E+02  0.00000000000E+00 0.  1.
<mgrwt>
<rscale>  0 0.77297655E+02</rscale>
<asrwt>0</asrwt>
<pdfrwt beam="1">  1        2 0.68117913E-01 0.77297655E+02</pdfrwt>
<pdfrwt beam="2">  1       -1 0.51902060E-03 0.77297655E+02</pdfrwt>
<totfact> 0.31998196E+05</totfact>
</mgrwt>
</event>
<event>
 8    1  0.2676873E-020  0.7902405E+02  0.7818608E-02  0.1331844E+00
          2   -1    0    0  501    0  0.00000000000E+00  0.00000000000E+00  0.63572907227E+02  0.63572907278E+02  0.25500000000E-02 0. -1.
         -1   -1    0    0    0  501 -0.00000000000E+00 -0.00000000000E+00 -0.24557630938E+02  0.24557631455E+02  0.50400000000E-02 0.  1.
         24    2    1    2    0    0 -0.88817841970E-15  0.00000000000E+00  0.39015276289E+02  0.88130538734E+02  0.79024047439E+02 0.  0.
         66    2    3    3    0    0 -0.64575248269E+01  0.32063386225E+02  0.44192677009E+02  0.55015934623E+02  0.19999995317E+01 0.  0.
        -13    1    3    3    0    0  0.64575248269E+01 -0.32063386225E+02 -0.51774007200E+01  0.33114604110E+02  0.10566000000E+00 0.  1.
         13    1    4    4    0    0 -0.28255470791E+01  0.14619631380E+02  0.20557890161E+02  0.25384155489E+02  0.10566000000E+00 0. -1.
        -13    1    4    4    0    0 -0.31193100829E+01  0.11915070251E+02  0.16022173072E+02  0.20209408415E+02  0.10566000000E+00 0.  1.
        -14    1    4    4    0    0 -0.51266766496E+00  0.55286845939E+01  0.76126137757E+01  0.94223707193E+01  0.00000000000E+00 0.  1.
<mgrwt>
<rscale>  0 0.79024047E+02</rscale>
<asrwt>0</asrwt>
<pdfrwt beam="1">  1        2 0.97804472E-02 0.79024047E+02</pdfrwt>
<pdfrwt beam="2">  1       -1 0.37780971E-02 0.79024047E+02</pdfrwt>
<totfact> 0.16311975E+05</totfact>
</mgrwt>
</event>
<event>
 8    1  0.2676873E-020  0.8005115E+02  0.7818608E-02  0.1328906E+00
         -1   -1    0    0    0  501 -0.00000000000E+00  0.00000000000E+00  0.16843749145E+02  0.16843749899E+02  0.50400000000E-02 0.  1.
          2   -1    0    0  501    0  0.00000000000E+00 -0.00000000000E+00 -0.95112240074E+02  0.95112240108E+02  0.25500000000E-02 0. -1.
         24    2    1    2    0    0  0.44408920985E-15  0.17763568394E-14 -0.78268490929E+02  0.11195599001E+03  0.80051152561E+02 0.  0.
         66    2    3    3    0    0  0.26494231378E+01  0.12389891653E+02 -0.92221083445E+02  0.93108845394E+02  0.20000001615E+01 0.  0.
        -13    1    3    3    0    0 -0.26494231378E+01 -0.12389891653E+02  0.13952592516E+02  0.18847144614E+02  0.10566000000E+00 0.  1.
         13    1    4    4    0    0  0.36121590074E+00  0.24521128335E+01 -0.13915676230E+02  0.14135082004E+02  0.10566000000E+00 0. -1.
        -13    1    4    4    0    0  0.42593296966E+00  0.68792054516E+00 -0.59015402343E+01  0.59576836727E+01  0.10566000000E+00 0.  1.
         14    1    4    4    0    0  0.18622742674E+01  0.92498582745E+01 -0.72403866980E+02  0.73016079717E+02  0.00000000000E+00 0. -1.
<mgrwt>
<rscale>  0 0.80051153E+02</rscale>
<asrwt>0</asrwt>
<pdfrwt beam="1">  1        2 0.14632652E-01 0.80051153E+02</pdfrwt>
<pdfrwt beam="2">  1       -1 0.25913462E-02 0.80051153E+02</pdfrwt>
<totfact> 0.17451305E+05</totfact>
</mgrwt>
</event>
<event>
 8    1  0.2676873E-020  0.7998080E+02  0.7818608E-02  0.1329106E+00
          2   -1    0    0  501    0  0.00000000000E+00  0.00000000000E+00  0.26271206557E+03  0.26271206559E+03  0.25500000000E-02 0. -1.
         -1   -1    0    0    0  501 -0.00000000000E+00 -0.00000000000E+00 -0.60873938534E+01  0.60873959398E+01  0.50400000000E-02 0.  1.
         24    2    1    2    0    0  0.00000000000E+00 -0.88817841970E-15  0.25662467172E+03  0.26879946153E+03  0.79980800078E+02 0.  0.
         66    2    3    3    0    0 -0.30761056746E+02  0.53881672430E+01  0.21220722919E+03  0.21450217501E+03  0.20000008767E+01 0.  0.
        -13    1    3    3    0    0  0.30761056746E+02 -0.53881672430E+01  0.44417442527E+02  0.54297286516E+02  0.10566000000E+00 0.  1.
         13    1    4    4    0    0 -0.21199248344E+02  0.32154997230E+01  0.14689373311E+03  0.14845042122E+03  0.10566000000E+00 0. -1.
        -13    1    4    4    0    0 -0.89689590154E+01  0.22532238942E+01  0.61598566337E+02  0.62288953937E+02  0.10566000000E+00 0.  1.
        -14    1    4    4    0    0 -0.59284938612E+00 -0.80556374153E-01  0.37149297477E+01  0.37627998558E+01  0.00000000000E+00 0.  1.
<mgrwt>
<rscale>  0 0.79980800E+02</rscale>
<asrwt>0</asrwt>
<pdfrwt beam="1">  1        2 0.40417244E-01 0.79980800E+02</pdfrwt>
<pdfrwt beam="2">  1       -1 0.93652223E-03 0.79980800E+02</pdfrwt>
<totfact> 0.24313512E+05</totfact>
</mgrwt>
</event>
<event>
 8    1  0.2676873E-020  0.8320923E+02  0.7818608E-02  0.1320183E+00
          2   -1    0    0  501    0  0.00000000000E+00  0.00000000000E+00  0.15818705863E+03  0.15818705865E+03  0.25500000000E-02 0. -1.
         -1   -1    0    0    0  501 -0.00000000000E+00 -0.00000000000E+00 -0.10942387145E+02  0.10942388305E+02  0.50400000000E-02 0.  1.
         24    2    1    2    0    0  0.00000000000E+00  0.11102230246E-15  0.14724467148E+03  0.16912944695E+03  0.83209233542E+02 0.  0.
         66    2    3    3    0    0  0.37955475375E+02  0.81802770855E+00  0.10813792569E+03  0.11462590569E+03  0.20000002685E+01 0.  0.
        -13    1    3    3    0    0 -0.37955475375E+02 -0.81802770855E+00  0.39106745789E+02  0.54503541266E+02  0.10566000000E+00 0.  1.
         13    1    4    4    0    0  0.61550031199E+01 -0.38998173499E+00  0.16896857428E+02  0.17987526348E+02  0.10566000000E+00 0. -1.
        -13    1    4    4    0    0  0.27204630795E+02  0.83873250809E+00  0.79058487109E+02  0.83612504788E+02  0.10566000000E+00 0.  1.
        -14    1    4    4    0    0  0.45958414599E+01  0.36927693545E+00  0.12182581156E+02  0.13025874550E+02  0.00000000000E+00 0.  1.
<mgrwt>
<rscale>  0 0.83209234E+02</rscale>
<asrwt>0</asrwt>
<pdfrwt beam="1">  1        2 0.24336470E-01 0.83209234E+02</pdfrwt>
<pdfrwt beam="2">  1       -1 0.16834443E-02 0.83209234E+02</pdfrwt>
<totfact> 0.18357037E+05</totfact>
</mgrwt>
</event>
<event>
 8    1  0.2676873E-020  0.7981234E+02  0.7818608E-02  0.1329585E+00
         -1   -1    0    0    0  501 -0.00000000000E+00  0.00000000000E+00  0.20087289235E+01  0.20087352463E+01  0.50400000000E-02 0.  1.
          2   -1    0    0  501    0  0.00000000000E+00 -0.00000000000E+00 -0.79278991753E+03  0.79278991754E+03  0.25500000000E-02 0. -1.
         24    2    1    2    0    0  0.00000000000E+00  0.00000000000E+00 -0.79078118861E+03  0.79479865278E+03  0.79812343704E+02 0.  0.
         66    2    3    3    0    0 -0.14780374010E+02 -0.10480123133E+02 -0.74943346298E+03  0.74965512595E+03  0.19999955924E+01 0.  0.
        -13    1    3    3    0    0  0.14780374010E+02  0.10480123133E+02 -0.41347725627E+02  0.45143526838E+02  0.10566000000E+00 0.  1.
         13    1    4    4    0    0 -0.73344318651E+00 -0.36408043196E+00 -0.28119948233E+02  0.28132066155E+02  0.10566000000E+00 0. -1.
        -13    1    4    4    0    0 -0.10219496848E+01 -0.12976687259E+01 -0.64616777275E+02  0.64637971771E+02  0.10566000000E+00 0.  1.
        -14    1    4    4    0    0 -0.13024981138E+02 -0.88183739754E+01 -0.65669673748E+03  0.65688508802E+03  0.00000000000E+00 0.  1.
<mgrwt>
<rscale>  0 0.79812344E+02</rscale>
<asrwt>0</asrwt>
<pdfrwt beam="1">  1        2 0.12196743E+00 0.79812344E+02</pdfrwt>
<pdfrwt beam="2">  1       -1 0.30903634E-03 0.79812344E+02</pdfrwt>
<totfact> 0.34521305E+05</totfact>
</mgrwt>
</event>
<event>
 8    1  0.2676873E-020  0.7981791E+02  0.7818608E-02  0.1329569E+00
          2   -1    0    0  501    0  0.00000000000E+00  0.00000000000E+00  0.18761186872E+02  0.18761187045E+02  0.25500000000E-02 0. -1.
         -1   -1    0    0    0  501 -0.00000000000E+00 -0.00000000000E+00 -0.84894660328E+02  0.84894660478E+02  0.50400000000E-02 0.  1.
         24    2    1    2    0    0  0.00000000000E+00 -0.20816681712E-16 -0.66133473456E+02  0.10365584752E+03  0.79817907855E+02 0.  0.
         66    2    3    3    0    0  0.20329447329E+02  0.22602788003E-01  0.11474235864E+02  0.23429575956E+02  0.20000002986E+01 0.  0.
        -13    1    3    3    0    0 -0.20329447329E+02 -0.22602788003E-01 -0.77607709320E+02  0.80226271567E+02  0.10566000000E+00 0.  1.
         13    1    4    4    0    0  0.38411514547E+01 -0.31906606936E+00  0.20306837894E+01  0.43578765864E+01  0.10566000000E+00 0. -1.
        -13    1    4    4    0    0  0.15696700894E+02  0.40471221041E+00  0.93419917972E+01  0.18271129842E+02  0.10566000000E+00 0.  1.
        -14    1    4    4    0    0  0.79159498112E+00 -0.63043353053E-01  0.10156027736E+00  0.80056952754E+00  0.00000000000E+00 0.  1.
<mgrwt>
<rscale>  0 0.79817908E+02</rscale>
<asrwt>0</asrwt>
<pdfrwt beam="1">  1        2 0.28863365E-02 0.79817908E+02</pdfrwt>
<pdfrwt beam="2">  1       -1 0.13060717E-01 0.79817908E+02</pdfrwt>
<totfact> 0.12335911E+05</totfact>
</mgrwt>
</event>
<event>
 8    1  0.2676873E-020  0.7957247E+02  0.7818608E-02  0.1330269E+00
          2   -1    0    0  501    0  0.00000000000E+00  0.00000000000E+00  0.16282118197E+03  0.16282118199E+03  0.25500000000E-02 0. -1.
         -1   -1    0    0    0  501 -0.00000000000E+00 -0.00000000000E+00 -0.97219805341E+01  0.97219818405E+01  0.50400000000E-02 0.  1.
         24    2    1    2    0    0  0.17763568394E-14  0.00000000000E+00  0.15309920144E+03  0.17254316383E+03  0.79572469513E+02 0.  0.
         66    2    3    3    0    0  0.12832787269E+02 -0.37102796514E+02  0.90250268757E+02  0.98439874827E+02  0.20000017721E+01 0.  0.
        -13    1    3    3    0    0 -0.12832787269E+02  0.37102796514E+02  0.62848932683E+02  0.74103289007E+02  0.10566000000E+00 0.  1.
         13    1    4    4    0    0  0.90847641420E+01 -0.26873526085E+02  0.66241010312E+02  0.72059711038E+02  0.10566000000E+00 0. -1.
        -13    1    4    4    0    0  0.35634734696E+01 -0.92903788028E+01  0.22342156232E+02  0.24457976012E+02  0.10566000000E+00 0.  1.
        -14    1    4    4    0    0  0.18454965717E+00 -0.93889162641E+00  0.16671022132E+01  0.19221877773E+01  0.00000000000E+00 0.  1.
<mgrwt>
<rscale>  0 0.79572470E+02</rscale>
<asrwt>0</asrwt>
<pdfrwt beam="1">  1        2 0.25049410E-01 0.79572470E+02</pdfrwt>
<pdfrwt beam="2">  1       -1 0.14956896E-02 0.79572470E+02</pdfrwt>
<totfact> 0.20866854E+05</totfact>
</mgrwt>
</event>
<event>
 8    1  0.2676873E-020  0.8197898E+02  0.7818608E-02  0.1323527E+00
         -1   -1    0    0    0  501 -0.00000000000E+00  0.00000000000E+00  0.22935187710E+01  0.22935243087E+01  0.50400000000E-02 0.  1.
          2   -1    0    0  501    0  0.00000000000E+00 -0.00000000000E+00 -0.73255840709E+03  0.73255840709E+03  0.25500000000E-02 0. -1.
         24    2    1    2    0    0  0.35527136788E-14  0.00000000000E+00 -0.73026488832E+03  0.73485193140E+03  0.81978984961E+02 0.  0.
         66    2    3    3    0    0 -0.25981162959E+02 -0.24327135576E+02 -0.54714264769E+03  0.54830275148E+03  0.20000004909E+01 0.  0.
        -13    1    3    3    0    0  0.25981162959E+02  0.24327135576E+02 -0.18312224063E+03  0.18654917993E+03  0.10566000000E+00 0.  1.
         13    1    4    4    0    0 -0.87853876406E+01 -0.77076076353E+01 -0.18110887214E+03  0.18148560544E+03  0.10566000000E+00 0. -1.
        -13    1    4    4    0    0 -0.14356137934E+01 -0.16891624971E+01 -0.28870782337E+02  0.28955957827E+02  0.10566000000E+00 0.  1.
         14    1    4    4    0    0 -0.15760161525E+02 -0.14930365444E+02 -0.33716299321E+03  0.33786118820E+03  0.00000000000E+00 0. -1.
<mgrwt>
<rscale>  0 0.81978985E+02</rscale>
<asrwt>0</asrwt>
<pdfrwt beam="1">  1        2 0.11270111E+00 0.81978985E+02</pdfrwt>
<pdfrwt beam="2">  1       -1 0.35285005E-03 0.81978985E+02</pdfrwt>
<totfact> 0.31706706E+05</totfact>
</mgrwt>
</event>
<event>
 8    1  0.2676873E-020  0.7979739E+02  0.7818608E-02  0.1329627E+00
          2   -1    0    0  501    0  0.00000000000E+00  0.00000000000E+00  0.24277694103E+03  0.24277694104E+03  0.25500000000E-02 0. -1.
         -1   -1    0    0    0  501 -0.00000000000E+00 -0.00000000000E+00 -0.65570710215E+01  0.65570729585E+01  0.50400000000E-02 0.  1.
         24    2    1    2    0    0  0.17763568394E-14  0.00000000000E+00  0.23621987001E+03  0.24933401400E+03  0.79797390630E+02 0.  0.
         66    2    3    3    0    0  0.10255568342E+02  0.28806926028E+02  0.19814441194E+03  0.20049993430E+03  0.20000005384E+01 0.  0.
        -13    1    3    3    0    0 -0.10255568342E+02 -0.28806926028E+02  0.38075458071E+02  0.48834079704E+02  0.10566000000E+00 0.  1.
         13    1    4    4    0    0  0.20497394714E+01  0.47454554603E+01  0.31672598977E+02  0.32091828702E+02  0.10566000000E+00 0. -1.
        -13    1    4    4    0    0  0.51338355328E+01  0.12809119062E+02  0.90287802725E+02  0.91336347000E+02  0.10566000000E+00 0.  1.
         14    1    4    4    0    0  0.30719933377E+01  0.11252351505E+02  0.76184010233E+02  0.77071758594E+02  0.00000000000E+00 0. -1.
<mgrwt>
<rscale>  0 0.79797391E+02</rscale>
<asrwt>0</asrwt>
<pdfrwt beam="1">  1        2 0.37350298E-01 0.79797391E+02</pdfrwt>
<pdfrwt beam="2">  1       -1 0.10087803E-02 0.79797391E+02</pdfrwt>
<totfact> 0.23777402E+05</totfact>
</mgrwt>
</event>
<event>
 8    1  0.2676873E-020  0.7944379E+02  0.7818608E-02  0.1330637E+00
         -1   -1    0    0    0  501 -0.00000000000E+00  0.00000000000E+00  0.53818506207E+01  0.53818529807E+01  0.50400000000E-02 0.  1.
          2   -1    0    0  501    0  0.00000000000E+00 -0.00000000000E+00 -0.29317580627E+03  0.29317580628E+03  0.25500000000E-02 0. -1.
         24    2    1    2    0    0  0.00000000000E+00  0.17763568394E-14 -0.28779395565E+03  0.29855765926E+03  0.79443785128E+02 0.  0.
         66    2    3    3    0    0  0.33077225467E+02  0.15961045794E+02 -0.87370686656E+02  0.94797123963E+02  0.19999993482E+01 0.  0.
        -13    1    3    3    0    0 -0.33077225467E+02 -0.15961045794E+02 -0.20042326899E+03  0.20376053530E+03  0.10566000000E+00 0.  1.
         13    1    4    4    0    0  0.27681996463E+02  0.13300305644E+02 -0.74059674635E+02  0.80175043682E+02  0.10566000000E+00 0. -1.
        -13    1    4    4    0    0  0.24034544105E+01  0.15167004175E+01 -0.65457018173E+01  0.71368304994E+01  0.10566000000E+00 0.  1.
         14    1    4    4    0    0  0.29917745938E+01  0.11440397329E+01 -0.67653102039E+01  0.74852497811E+01  0.00000000000E+00 0. -1.
<mgrwt>
<rscale>  0 0.79443785E+02</rscale>
<asrwt>0</asrwt>
<pdfrwt beam="1">  1        2 0.45103958E-01 0.79443785E+02</pdfrwt>
<pdfrwt beam="2">  1       -1 0.82797743E-03 0.79443785E+02</pdfrwt>
<totfact> 0.25749633E+05</totfact>
</mgrwt>
</event>
<event>
 8    1  0.2676873E-020  0.7836767E+02  0.7818608E-02  0.1333749E+00
         -1   -1    0    0    0  501 -0.00000000000E+00  0.00000000000E+00  0.31212227107E+02  0.31212227514E+02  0.50400000000E-02 0.  1.
          2   -1    0    0  501    0  0.00000000000E+00 -0.00000000000E+00 -0.49191390741E+02  0.49191390807E+02  0.25500000000E-02 0. -1.
         24    2    1    2    0    0 -0.17763568394E-14  0.35527136788E-14 -0.17979163634E+02  0.80403618321E+02  0.78367668806E+02 0.  0.
         66    2    3    3    0    0 -0.14719248945E+02  0.28914200504E+02 -0.31489436287E+02  0.45257837472E+02  0.19999936563E+01 0.  0.
        -13    1    3    3    0    0  0.14719248945E+02 -0.28914200504E+02  0.13510272653E+02  0.35145780849E+02  0.10566000000E+00 0.  1.
         13    1    4    4    0    0 -0.54359953337E+01  0.12066143094E+02 -0.12130400013E+02  0.17952705171E+02  0.10566000000E+00 0. -1.
        -13    1    4    4    0    0 -0.85453146245E+01  0.15825250890E+02 -0.17868883323E+02  0.25352891808E+02  0.10566000000E+00 0.  1.
        -14    1    4    4    0    0 -0.73793898705E+00  0.10228065198E+01 -0.14901529512E+01  0.19522404933E+01  0.00000000000E+00 0.  1.
<mgrwt>
<rscale>  0 0.78367669E+02</rscale>
<asrwt>0</asrwt>
<pdfrwt beam="1">  1        2 0.75679063E-02 0.78367669E+02</pdfrwt>
<pdfrwt beam="2">  1       -1 0.48018812E-02 0.78367669E+02</pdfrwt>
<totfact> 0.15754482E+05</totfact>
</mgrwt>
</event>
<event>
 8    1  0.2676873E-020  0.7692477E+02  0.7818608E-02  0.1338012E+00
         -1   -1    0    0    0  501 -0.00000000000E+00  0.00000000000E+00  0.32231893451E+01  0.32231932856E+01  0.50400000000E-02 0.  1.
          2   -1    0    0  501    0  0.00000000000E+00 -0.00000000000E+00 -0.45897216886E+03  0.45897216887E+03  0.25500000000E-02 0. -1.
         24    2    1    2    0    0  0.17763568394E-14  0.00000000000E+00 -0.45574897952E+03  0.46219536215E+03  0.76924771476E+02 0.  0.
         66    2    3    3    0    0  0.82560526125E+01 -0.36491130978E+02 -0.28095161299E+03  0.28343883625E+03  0.20000020746E+01 0.  0.
        -13    1    3    3    0    0 -0.82560526125E+01  0.36491130978E+02 -0.17479736653E+03  0.17875652591E+03  0.10566000000E+00 0.  1.
         13    1    4    4    0    0  0.91961583229E+00 -0.22146378063E+01 -0.17735567552E+02  0.17897257732E+02  0.10566000000E+00 0. -1.
        -13    1    4    4    0    0  0.32029100037E+01 -0.14021482056E+02 -0.11124445460E+03  0.11217040802E+03  0.10566000000E+00 0.  1.
         14    1    4    4    0    0  0.41335267764E+01 -0.20255011115E+02 -0.15197159084E+03  0.15337117050E+03  0.00000000000E+00 0. -1.
<mgrwt>
<rscale>  0 0.76924771E+02</rscale>
<asrwt>0</asrwt>
<pdfrwt beam="1">  1        2 0.70611051E-01 0.76924771E+02</pdfrwt>
<pdfrwt beam="2">  1       -1 0.49587595E-03 0.76924771E+02</pdfrwt>
<totfact> 0.32794776E+05</totfact>
</mgrwt>
</event>
<event>
 8    1  0.2676873E-020  0.7902507E+02  0.7818608E-02  0.1331841E+00
          2   -1    0    0  501    0  0.00000000000E+00  0.00000000000E+00  0.21864241323E+03  0.21864241325E+03  0.25500000000E-02 0. -1.
         -1   -1    0    0    0  501 -0.00000000000E+00 -0.00000000000E+00 -0.71406103232E+01  0.71406121019E+01  0.50400000000E-02 0.  1.
         24    2    1    2    0    0  0.00000000000E+00  0.00000000000E+00  0.21150180291E+03  0.22578302535E+03  0.79025071350E+02 0.  0.
         66    2    3    3    0    0 -0.24867535064E+02  0.18516974592E+02  0.17568406504E+03  0.17841009892E+03  0.20000098915E+01 0.  0.
        -13    1    3    3    0    0  0.24867535064E+02 -0.18516974592E+02  0.35817737864E+02  0.47372926424E+02  0.10566000000E+00 0.  1.
         13    1    4    4    0    0 -0.93918621258E+01  0.72203381729E+01  0.67374244637E+02  0.68407896927E+02  0.10566000000E+00 0. -1.
        -13    1    4    4    0    0 -0.13166062905E+02  0.95160263542E+01  0.94716814562E+02  0.96099875623E+02  0.10566000000E+00 0.  1.
        -14    1    4    4    0    0 -0.23096100339E+01  0.17806100646E+01  0.13593005844E+02  0.13902326373E+02  0.00000000000E+00 0.  1.
<mgrwt>
<rscale>  0 0.79025071E+02</rscale>
<asrwt>0</asrwt>
<pdfrwt beam="1">  1        2 0.33637289E-01 0.79025071E+02</pdfrwt>
<pdfrwt beam="2">  1       -1 0.10985557E-02 0.79025071E+02</pdfrwt>
<totfact> 0.23504181E+05</totfact>
</mgrwt>
</event>
<event>
 8    1  0.2676873E-020  0.7970173E+02  0.7818608E-02  0.1329900E+00
          2   -1    0    0  501    0  0.00000000000E+00  0.00000000000E+00  0.42674090198E+02  0.42674090275E+02  0.25500000000E-02 0. -1.
         -1   -1    0    0    0  501 -0.00000000000E+00 -0.00000000000E+00 -0.37214422416E+02  0.37214422757E+02  0.50400000000E-02 0.  1.
         24    2    1    2    0    0  0.00000000000E+00  0.00000000000E+00  0.54596677825E+01  0.79888513032E+02  0.79701734875E+02 0.  0.
         66    2    3    3    0    0 -0.43146080634E+01  0.11505145000E+02  0.40703071248E+02  0.42564353885E+02  0.20000021035E+01 0.  0.
        -13    1    3    3    0    0  0.43146080634E+01 -0.11505145000E+02 -0.35243403465E+02  0.37324159147E+02  0.10566000000E+00 0.  1.
         13    1    4    4    0    0 -0.38563100022E+01  0.85974965940E+01  0.30740407534E+02  0.32152323305E+02  0.10566000000E+00 0. -1.
        -13    1    4    4    0    0  0.60658960205E-01  0.41521835609E+00  0.90101524505E+00  0.99953904381E+00  0.10566000000E+00 0.  1.
         14    1    4    4    0    0 -0.51895702145E+00  0.24924300495E+01  0.90616484685E+01  0.94124915356E+01  0.00000000000E+00 0. -1.
<mgrwt>
<rscale>  0 0.79701735E+02</rscale>
<asrwt>0</asrwt>
<pdfrwt beam="1">  1        2 0.65652446E-02 0.79701735E+02</pdfrwt>
<pdfrwt beam="2">  1       -1 0.57252958E-02 0.79701735E+02</pdfrwt>
<totfact> 0.14596917E+05</totfact>
</mgrwt>
</event>
<event>
 8    1  0.2676873E-020  0.7941033E+02  0.7818608E-02  0.1330733E+00
         -1   -1    0    0    0  501 -0.00000000000E+00  0.00000000000E+00  0.33135176847E+01  0.33135215177E+01  0.50400000000E-02 0.  1.
          2   -1    0    0  501    0  0.00000000000E+00 -0.00000000000E+00 -0.47577814772E+03  0.47577814773E+03  0.25500000000E-02 0. -1.
         24    2    1    2    0    0  0.00000000000E+00  0.00000000000E+00 -0.47246463004E+03  0.47909166925E+03  0.79410332483E+02 0.  0.
         66    2    3    3    0    0 -0.53124514360E+01  0.37421902655E+02 -0.30924876916E+03  0.31155645103E+03  0.20000024333E+01 0.  0.
        -13    1    3    3    0    0  0.53124514360E+01 -0.37421902655E+02 -0.16321586088E+03  0.16753521822E+03  0.10566000000E+00 0.  1.
         13    1    4    4    0    0 -0.13635283539E+01  0.79936547071E+01 -0.65293389475E+02  0.65795103148E+02  0.10566000000E+00 0. -1.
        -13    1    4    4    0    0 -0.19797043365E+01  0.12679914707E+02 -0.11189511481E+03  0.11262871458E+03  0.10566000000E+00 0.  1.
        -14    1    4    4    0    0 -0.19692187457E+01  0.16748333241E+02 -0.13206026488E+03  0.13313263330E+03  0.00000000000E+00 0.  1.
<mgrwt>
<rscale>  0 0.79410332E+02</rscale>
<asrwt>0</asrwt>
<pdfrwt beam="1">  1        2 0.73196584E-01 0.79410332E+02</pdfrwt>
<pdfrwt beam="2">  1       -1 0.50977262E-03 0.79410332E+02</pdfrwt>
<totfact> 0.30550277E+05</totfact>
</mgrwt>
</event>
<event>
 8    1  0.2676873E-020  0.8077882E+02  0.7818608E-02  0.1326856E+00
         -1   -1    0    0    0  501 -0.00000000000E+00  0.00000000000E+00  0.40019348740E+02  0.40019349057E+02  0.50400000000E-02 0.  1.
          2   -1    0    0  501    0  0.00000000000E+00 -0.00000000000E+00 -0.40762896230E+02  0.40762896309E+02  0.25500000000E-02 0. -1.
         24    2    1    2    0    0  0.35527136788E-14 -0.35527136788E-14 -0.74354748955E+00  0.80782245367E+02  0.80778823361E+02 0.  0.
         66    2    3    3    0    0 -0.27740846458E+02 -0.17997062762E+02 -0.23521432064E+02  0.40628889094E+02  0.20000080989E+01 0.  0.
        -13    1    3    3    0    0  0.27740846458E+02  0.17997062762E+02  0.22777884575E+02  0.40153356273E+02  0.10566000000E+00 0.  1.
         13    1    4    4    0    0 -0.17258595351E+02 -0.11518810826E+02 -0.15173266522E+02  0.25705666638E+02  0.10566000000E+00 0. -1.
        -13    1    4    4    0    0 -0.69387587675E+01 -0.40422631319E+01 -0.48670099601E+01  0.93906982940E+01  0.10566000000E+00 0.  1.
        -14    1    4    4    0    0 -0.35434923397E+01 -0.24359888040E+01 -0.34811555817E+01  0.55325241616E+01  0.00000000000E+00 0.  1.
<mgrwt>
<rscale>  0 0.80778823E+02</rscale>
<asrwt>0</asrwt>
<pdfrwt beam="1">  1        2 0.62712149E-02 0.80778823E+02</pdfrwt>
<pdfrwt beam="2">  1       -1 0.61568229E-02 0.80778823E+02</pdfrwt>
<totfact> 0.13932655E+05</totfact>
</mgrwt>
</event>
<event>
 8    1  0.2676873E-020  0.8051587E+02  0.7818608E-02  0.1327594E+00
         -1   -1    0    0    0  501 -0.00000000000E+00  0.00000000000E+00  0.74446187007E+02  0.74446187178E+02  0.50400000000E-02 0.  1.
          2   -1    0    0  501    0  0.00000000000E+00 -0.00000000000E+00 -0.21770106692E+02  0.21770106842E+02  0.25500000000E-02 0. -1.
         24    2    1    2    0    0  0.00000000000E+00  0.00000000000E+00  0.52676080315E+02  0.96216294020E+02  0.80515872954E+02 0.  0.
         66    2    3    3    0    0  0.11032142474E+02 -0.34317044515E+02  0.49999061717E+01  0.36446766192E+02  0.19999980825E+01 0.  0.
        -13    1    3    3    0    0 -0.11032142474E+02  0.34317044515E+02  0.47676174143E+02  0.59769527828E+02  0.10566000000E+00 0.  1.
         13    1    4    4    0    0  0.47910053487E+01 -0.14830702763E+02  0.21623038836E+01  0.15734999168E+02  0.10566000000E+00 0. -1.
        -13    1    4    4    0    0  0.24323165729E+01 -0.68592261877E+01  0.32656951063E+00  0.72858053423E+01  0.10566000000E+00 0.  1.
        -14    1    4    4    0    0  0.38088205528E+01 -0.12627115564E+02  0.25110327775E+01  0.13425961682E+02  0.00000000000E+00 0.  1.
<mgrwt>
<rscale>  0 0.80515873E+02</rscale>
<asrwt>0</asrwt>
<pdfrwt beam="1">  1        2 0.33492473E-02 0.80515873E+02</pdfrwt>
<pdfrwt beam="2">  1       -1 0.11453259E-01 0.80515873E+02</pdfrwt>
<totfact> 0.12399232E+05</totfact>
</mgrwt>
</event>
<event>
 8    1  0.2676873E-020  0.7730622E+02  0.7818608E-02  0.1336875E+00
         -1   -1    0    0    0  501 -0.00000000000E+00  0.00000000000E+00  0.12908808377E+01  0.12908906765E+01  0.50400000000E-02 0.  1.
          2   -1    0    0  501    0  0.00000000000E+00 -0.00000000000E+00 -0.11573936391E+04  0.11573936391E+04  0.25500000000E-02 0. -1.
         24    2    1    2    0    0  0.00000000000E+00  0.00000000000E+00 -0.11561027582E+04  0.11586845298E+04  0.77306221535E+02 0.  0.
         66    2    3    3    0    0  0.47634462406E+01 -0.23254079568E+02 -0.10351768398E+04  0.10354508835E+04  0.20000009901E+01 0.  0.
        -13    1    3    3    0    0 -0.47634462406E+01  0.23254079568E+02 -0.12092591850E+03  0.12323364624E+03  0.10566000000E+00 0.  1.
         13    1    4    4    0    0  0.51156705643E+00 -0.35489713001E+01 -0.16656668019E+03  0.16660530308E+03  0.10566000000E+00 0.  1.
        -13    1    4    4    0    0  0.19690078374E+01 -0.12638618685E+02 -0.53848610768E+03  0.53863801482E+03  0.10566000000E+00 0. -1.
         14    1    4    4    0    0  0.22828713467E+01 -0.70664895831E+01 -0.33012405187E+03  0.33020756563E+03  0.00000000000E+00 0. -1.
<mgrwt>
<rscale>  0 0.77306222E+02</rscale>
<asrwt>0</asrwt>
<pdfrwt beam="1">  1        2 0.17805973E+00 0.77306222E+02</pdfrwt>
<pdfrwt beam="2">  1       -1 0.19859874E-03 0.77306222E+02</pdfrwt>
<totfact> 0.38419319E+05</totfact>
</mgrwt>
</event>
<event>
 8    1  0.2676873E-020  0.7953056E+02  0.7818608E-02  0.1330389E+00
         -1   -1    0    0    0  501 -0.00000000000E+00  0.00000000000E+00  0.96603430804E+01  0.96603443952E+01  0.50400000000E-02 0.  1.
          2   -1    0    0  501    0  0.00000000000E+00 -0.00000000000E+00 -0.16368750619E+03  0.16368750621E+03  0.25500000000E-02 0. -1.
         24    2    1    2    0    0  0.00000000000E+00  0.00000000000E+00 -0.15402716311E+03  0.17334785060E+03  0.79530562262E+02 0.  0.
         66    2    3    3    0    0 -0.20345838005E+02  0.13832089341E+02 -0.14508616748E+03  0.14717090681E+03  0.19999989574E+01 0.  0.
        -13    1    3    3    0    0  0.20345838005E+02 -0.13832089341E+02 -0.89409956236E+01  0.26176943795E+02  0.10566000000E+00 0.  1.
         13    1    4    4    0    0 -0.10560856665E+02  0.68150217058E+01 -0.70526083617E+02  0.71637391415E+02  0.10566000000E+00 0. -1.
        -13    1    4    4    0    0 -0.82226697091E+01  0.63405184964E+01 -0.64391657177E+02  0.65223547511E+02  0.10566000000E+00 0.  1.
         14    1    4    4    0    0 -0.15623116309E+01  0.67654913919E+00 -0.10168426691E+02  0.10309967882E+02  0.00000000000E+00 0. -1.
<mgrwt>
<rscale>  0 0.79530562E+02</rscale>
<asrwt>0</asrwt>
<pdfrwt beam="1">  1        2 0.25182691E-01 0.79530562E+02</pdfrwt>
<pdfrwt beam="2">  1       -1 0.14862069E-02 0.79530562E+02</pdfrwt>
<totfact> 0.20932567E+05</totfact>
</mgrwt>
</event>
<event>
 8    1  0.2676873E-020  0.7973691E+02  0.7818608E-02  0.1329800E+00
         -1   -1    0    0    0  501 -0.00000000000E+00  0.00000000000E+00  0.17125683334E+01  0.17125757496E+01  0.50400000000E-02 0.  1.
          2   -1    0    0  501    0  0.00000000000E+00 -0.00000000000E+00 -0.92813238977E+03  0.92813238977E+03  0.25500000000E-02 0. -1.
         24    2    1    2    0    0 -0.44408920985E-15  0.00000000000E+00 -0.92641982144E+03  0.92984496552E+03  0.79736907126E+02 0.  0.
         66    2    3    3    0    0  0.38963159987E+01  0.19248343768E+02 -0.86776800423E+03  0.86799250525E+03  0.19999971833E+01 0.  0.
        -13    1    3    3    0    0 -0.38963159987E+01 -0.19248343768E+02 -0.58651817210E+02  0.61852460277E+02  0.10566000000E+00 0.  1.
         13    1    4    4    0    0  0.10581482035E+01  0.42034108191E+01 -0.16887088072E+03  0.16892653392E+03  0.10566000000E+00 0. -1.
        -13    1    4    4    0    0  0.11318594005E+01  0.32029023800E+01 -0.15184471145E+03  0.15188274178E+03  0.10566000000E+00 0.  1.
         14    1    4    4    0    0  0.17063083946E+01  0.11842030569E+02 -0.54705241205E+03  0.54718322955E+03  0.00000000000E+00 0. -1.
<mgrwt>
<rscale>  0 0.79736907E+02</rscale>
<asrwt>0</asrwt>
<pdfrwt beam="1">  1        2 0.14278920E+00 0.79736907E+02</pdfrwt>
<pdfrwt beam="2">  1       -1 0.26347336E-03 0.79736907E+02</pdfrwt>
<totfact> 0.35356193E+05</totfact>
</mgrwt>
</event>
<event>
 8    1  0.2676873E-020  0.7958493E+02  0.7818608E-02  0.1330233E+00
         -1   -1    0    0    0  501 -0.00000000000E+00  0.00000000000E+00  0.19214242391E+03  0.19214242398E+03  0.50400000000E-02 0.  1.
          2   -1    0    0  501    0  0.00000000000E+00 -0.00000000000E+00 -0.82409721258E+01  0.82409725203E+01  0.25500000000E-02 0. -1.
         24    2    1    2    0    0  0.71054273576E-14  0.35527136788E-14  0.18390145178E+03  0.20038339650E+03  0.79584933393E+02 0.  0.
         66    2    3    3    0    0  0.34509118873E+02  0.11304029010E+02  0.13282393199E+03  0.13771295251E+03  0.20000055377E+01 0.  0.
        -13    1    3    3    0    0 -0.34509118873E+02 -0.11304029010E+02  0.51077519793E+02  0.62670443987E+02  0.10566000000E+00 0.  1.
         13    1    4    4    0    0  0.13862789973E+02  0.50452790312E+01  0.53907585839E+02  0.55889809101E+02  0.10566000000E+00 0. -1.
        -13    1    4    4    0    0  0.15832744842E+02  0.42256991665E+01  0.59241480392E+02  0.61466222478E+02  0.10566000000E+00 0.  1.
        -14    1    4    4    0    0  0.48135840577E+01  0.20330508124E+01  0.19674865761E+02  0.20356920931E+02  0.00000000000E+00 0.  1.
<mgrwt>
<rscale>  0 0.79584933E+02</rscale>
<asrwt>0</asrwt>
<pdfrwt beam="1">  1        2 0.12678419E-02 0.79584933E+02</pdfrwt>
<pdfrwt beam="2">  1       -1 0.29560374E-01 0.79584933E+02</pdfrwt>
<totfact> 0.10214592E+05</totfact>
</mgrwt>
</event>
<event>
 8    1  0.2676873E-020  0.8004281E+02  0.7818608E-02  0.1328930E+00
          2   -1    0    0  501    0  0.00000000000E+00  0.00000000000E+00  0.19537058218E+02  0.19537058385E+02  0.25500000000E-02 0. -1.
         -1   -1    0    0    0  501 -0.00000000000E+00 -0.00000000000E+00 -0.81983309284E+02  0.81983309439E+02  0.50400000000E-02 0.  1.
         24    2    1    2    0    0  0.00000000000E+00  0.00000000000E+00 -0.62446251066E+02  0.10152036782E+03  0.80042806116E+02 0.  0.
         66    2    3    3    0    0  0.36009025124E+02  0.15447206029E+02 -0.21061005154E+02  0.44529001743E+02  0.19999984100E+01 0.  0.
        -13    1    3    3    0    0 -0.36009025124E+02 -0.15447206029E+02 -0.41385245912E+02  0.56991366081E+02  0.10566000000E+00 0.  1.
         13    1    4    4    0    0  0.12239789699E+02  0.52872721215E+01 -0.70498420775E+01  0.15082411469E+02  0.10566000000E+00 0. -1.
        -13    1    4    4    0    0  0.19821462024E+02  0.87876401214E+01 -0.12318843723E+02  0.24937482840E+02  0.10566000000E+00 0.  1.
        -14    1    4    4    0    0  0.39477734010E+01  0.13722937862E+01 -0.16923193540E+01  0.45091074346E+01  0.00000000000E+00 0.  1.
<mgrwt>
<rscale>  0 0.80042806E+02</rscale>
<asrwt>0</asrwt>
<pdfrwt beam="1">  1        2 0.30057013E-02 0.80042806E+02</pdfrwt>
<pdfrwt beam="2">  1       -1 0.12612817E-01 0.80042806E+02</pdfrwt>
<totfact> 0.12337906E+05</totfact>
</mgrwt>
</event>
<event>
 8    1  0.2676873E-020  0.7824882E+02  0.7818608E-02  0.1334096E+00
         -1   -1    0    0    0  501 -0.00000000000E+00  0.00000000000E+00  0.68167578434E+01  0.68167597066E+01  0.50400000000E-02 0.  1.
          2   -1    0    0  501    0  0.00000000000E+00 -0.00000000000E+00 -0.22455237863E+03  0.22455237865E+03  0.25500000000E-02 0. -1.
         24    2    1    2    0    0  0.00000000000E+00  0.00000000000E+00 -0.21773562079E+03  0.23136913835E+03  0.78248818662E+02 0.  0.
         66    2    3    3    0    0 -0.12497546914E+02 -0.32694825010E+02 -0.16045686330E+03  0.16424233681E+03  0.19999902624E+01 0.  0.
        -13    1    3    3    0    0  0.12497546914E+02  0.32694825010E+02 -0.57278757492E+02  0.67126801542E+02  0.10566000000E+00 0.  1.
         13    1    4    4    0    0 -0.16413302286E+01 -0.42276018194E+01 -0.21180463352E+02  0.21660788857E+02  0.10566000000E+00 0. -1.
        -13    1    4    4    0    0 -0.47838861948E+01 -0.14082882181E+02 -0.64555098248E+02  0.66246396215E+02  0.10566000000E+00 0.  1.
        -14    1    4    4    0    0 -0.60723304904E+01 -0.14384341010E+02 -0.74721301696E+02  0.76335151739E+02  0.00000000000E+00 0.  1.
<mgrwt>
<rscale>  0 0.78248819E+02</rscale>
<asrwt>0</asrwt>
<pdfrwt beam="1">  1        2 0.34546514E-01 0.78248819E+02</pdfrwt>
<pdfrwt beam="2">  1       -1 0.10487323E-02 0.78248819E+02</pdfrwt>
<totfact> 0.24350107E+05</totfact>
</mgrwt>
</event>
<event>
 8    1  0.2676873E-020  0.8026363E+02  0.7818608E-02  0.1328305E+00
         -1   -1    0    0    0  501 -0.00000000000E+00  0.00000000000E+00  0.65004471125E+01  0.65004490663E+01  0.50400000000E-02 0.  1.
          2   -1    0    0  501    0  0.00000000000E+00 -0.00000000000E+00 -0.24776174849E+03  0.24776174850E+03  0.25500000000E-02 0. -1.
         24    2    1    2    0    0  0.35527136788E-14 -0.35527136788E-14 -0.24126130137E+03  0.25426219757E+03  0.80263625450E+02 0.  0.
         66    2    3    3    0    0 -0.29266275785E+02  0.11535287182E+02 -0.19951895144E+03  0.20199353879E+03  0.19999946306E+01 0.  0.
        -13    1    3    3    0    0  0.29266275785E+02 -0.11535287182E+02 -0.41742349933E+02  0.52268658780E+02  0.10566000000E+00 0.  1.
         13    1    4    4    0    0 -0.44905711567E+01  0.17071719537E+01 -0.28513084556E+02  0.28915165922E+02  0.10566000000E+00 0. -1.
        -13    1    4    4    0    0 -0.16711698582E+01  0.11053468749E+01 -0.13346739045E+02  0.13496710992E+02  0.10566000000E+00 0.  1.
         14    1    4    4    0    0 -0.23104534770E+02  0.87227683539E+01 -0.15765912784E+03  0.15958166187E+03  0.00000000000E+00 0. -1.
<mgrwt>
<rscale>  0 0.80263625E+02</rscale>
<asrwt>0</asrwt>
<pdfrwt beam="1">  1        2 0.38117185E-01 0.80263625E+02</pdfrwt>
<pdfrwt beam="2">  1       -1 0.10000691E-02 0.80263625E+02</pdfrwt>
<totfact> 0.23586681E+05</totfact>
</mgrwt>
</event>
<event>
 8    1  0.2676873E-020  0.7925661E+02  0.7818608E-02  0.1331174E+00
         -1   -1    0    0    0  501 -0.00000000000E+00  0.00000000000E+00  0.56200493137E+01  0.56200515736E+01  0.50400000000E-02 0.  1.
          2   -1    0    0  501    0  0.00000000000E+00 -0.00000000000E+00 -0.27942851913E+03  0.27942851914E+03  0.25500000000E-02 0. -1.
         24    2    1    2    0    0  0.00000000000E+00  0.00000000000E+00 -0.27380846981E+03  0.28504857071E+03  0.79256605552E+02 0.  0.
         66    2    3    3    0    0  0.35209747767E+02  0.77834524815E+01 -0.19587863548E+03  0.19918019054E+03  0.19999987453E+01 0.  0.
        -13    1    3    3    0    0 -0.35209747767E+02 -0.77834524815E+01 -0.77929834328E+02  0.85868380169E+02  0.10566000000E+00 0.  1.
         13    1    4    4    0    0  0.20400849008E+02  0.44984063332E+01 -0.11305990459E+03  0.11497383829E+03  0.10566000000E+00 0. -1.
        -13    1    4    4    0    0  0.41247667969E+01  0.12821862263E+01 -0.26131514177E+02  0.26486315332E+02  0.10566000000E+00 0.  1.
         14    1    4    4    0    0  0.10684131963E+02  0.20028599220E+01 -0.56687216715E+02  0.57720036924E+02  0.00000000000E+00 0. -1.
<mgrwt>
<rscale>  0 0.79256606E+02</rscale>
<asrwt>0</asrwt>
<pdfrwt beam="1">  1        2 0.42988992E-01 0.79256606E+02</pdfrwt>
<pdfrwt beam="2">  1       -1 0.86462337E-03 0.79256606E+02</pdfrwt>
<totfact> 0.25462784E+05</totfact>
</mgrwt>
</event>
<event>
 8    1  0.2676873E-020  0.7990226E+02  0.7818608E-02  0.1329329E+00
         -1   -1    0    0    0  501 -0.00000000000E+00  0.00000000000E+00  0.38182550446E+01  0.38182583710E+01  0.50400000000E-02 0.  1.
          2   -1    0    0  501    0  0.00000000000E+00 -0.00000000000E+00 -0.41801608408E+03  0.41801608409E+03  0.25500000000E-02 0. -1.
         24    2    1    2    0    0 -0.88817841970E-15  0.35527136788E-14 -0.41419782904E+03  0.42183434246E+03  0.79902258417E+02 0.  0.
         66    2    3    3    0    0 -0.67920703867E+01  0.24662254624E+02 -0.36906765955E+03  0.36995850622E+03  0.19999947283E+01 0.  0.
        -13    1    3    3    0    0  0.67920703867E+01 -0.24662254624E+02 -0.45130169490E+02  0.51875836239E+02  0.10566000000E+00 0.  1.
         13    1    4    4    0    0 -0.27584287623E+01  0.10574498392E+02 -0.15736288935E+03  0.15774193816E+03  0.10566000000E+00 0.  1.
        -13    1    4    4    0    0 -0.20089868370E+01  0.81296268876E+01 -0.11112052669E+03  0.11143567417E+03  0.10566000000E+00 0. -1.
        -14    1    4    4    0    0 -0.20246547874E+01  0.59581293440E+01 -0.10058424351E+03  0.10078089389E+03  0.00000000000E+00 0.  1.
<mgrwt>
<rscale>  0 0.79902258E+02</rscale>
<asrwt>0</asrwt>
<pdfrwt beam="1">  1        2 0.64310131E-01 0.79902258E+02</pdfrwt>
<pdfrwt beam="2">  1       -1 0.58742444E-03 0.79902258E+02</pdfrwt>
<totfact> 0.28780942E+05</totfact>
</mgrwt>
</event>
<event>
 8    1  0.2676873E-020  0.7965178E+02  0.7818608E-02  0.1330043E+00
         -1   -1    0    0    0  501 -0.00000000000E+00  0.00000000000E+00  0.46131943138E+01  0.46131970670E+01  0.50400000000E-02 0.  1.
          2   -1    0    0  501    0  0.00000000000E+00 -0.00000000000E+00 -0.34381841265E+03  0.34381841266E+03  0.25500000000E-02 0. -1.
         24    2    1    2    0    0 -0.35527136788E-14 -0.35527136788E-14 -0.33920521833E+03  0.34843160972E+03  0.79651782843E+02 0.  0.
         66    2    3    3    0    0 -0.24790103974E+02 -0.23787938656E+02 -0.25759963633E+03  0.25988841429E+03  0.19999902444E+01 0.  0.
        -13    1    3    3    0    0  0.24790103974E+02  0.23787938656E+02 -0.81605582000E+02  0.88543195436E+02  0.10566000000E+00 0.  1.
         13    1    4    4    0    0 -0.62583563811E+01 -0.64700009757E+01 -0.67562103456E+02  0.68159202788E+02  0.10566000000E+00 0. -1.
        -13    1    4    4    0    0 -0.20936357855E+01 -0.22986032652E+01 -0.20156493201E+02  0.20395153100E+02  0.10566000000E+00 0.  1.
         14    1    4    4    0    0 -0.16438111807E+02 -0.15019334415E+02 -0.16988103968E+03  0.17133405840E+03  0.00000000000E+00 0. -1.
<mgrwt>
<rscale>  0 0.79651783E+02</rscale>
<asrwt>0</asrwt>
<pdfrwt beam="1">  1        2 0.52895120E-01 0.79651783E+02</pdfrwt>
<pdfrwt beam="2">  1       -1 0.70972269E-03 0.79651783E+02</pdfrwt>
<totfact> 0.27085836E+05</totfact>
</mgrwt>
</event>
<event>
 8    1  0.2676873E-020  0.8135734E+02  0.7818608E-02  0.1325243E+00
          2   -1    0    0  501    0  0.00000000000E+00  0.00000000000E+00  0.23607550432E+02  0.23607550569E+02  0.25500000000E-02 0. -1.
         -1   -1    0    0    0  501 -0.00000000000E+00 -0.00000000000E+00 -0.70094280485E+02  0.70094280666E+02  0.50400000000E-02 0.  1.
         24    2    1    2    0    0 -0.17763568394E-14 -0.44408920985E-15 -0.46486730053E+02  0.93701831236E+02  0.81357342053E+02 0.  0.
         66    2    3    3    0    0  0.11684871866E+02  0.20125795112E+01  0.21529483252E+02  0.24659792280E+02  0.19999998462E+01 0.  0.
        -13    1    3    3    0    0 -0.11684871866E+02 -0.20125795112E+01 -0.68016213305E+02  0.69042038956E+02  0.10566000000E+00 0.  1.
         13    1    4    4    0    0  0.13798606126E+01  0.83280718999E+00  0.24994719577E+01  0.29759212404E+01  0.10566000000E+00 0.  1.
        -13    1    4    4    0    0  0.39989159112E+01  0.35015375628E+00  0.67405402437E+01  0.78460170106E+01  0.10566000000E+00 0. -1.
        -14    1    4    4    0    0  0.63060953423E+01  0.82961856490E+00  0.12289471050E+02  0.13837854029E+02  0.00000000000E+00 0.  1.
<mgrwt>
<rscale>  0 0.81357342E+02</rscale>
<asrwt>0</asrwt>
<pdfrwt beam="1">  1        2 0.36319309E-02 0.81357342E+02</pdfrwt>
<pdfrwt beam="2">  1       -1 0.10783735E-01 0.81357342E+02</pdfrwt>
<totfact> 0.12234126E+05</totfact>
</mgrwt>
</event>
<event>
 8    1  0.2676873E-020  0.8021971E+02  0.7818608E-02  0.1328429E+00
         -1   -1    0    0    0  501 -0.00000000000E+00  0.00000000000E+00  0.10881980315E+02  0.10881981482E+02  0.50400000000E-02 0.  1.
          2   -1    0    0  501    0  0.00000000000E+00 -0.00000000000E+00 -0.14784078036E+03  0.14784078039E+03  0.25500000000E-02 0. -1.
         24    2    1    2    0    0  0.00000000000E+00  0.00000000000E+00 -0.13695880005E+03  0.15872276187E+03  0.80219712191E+02 0.  0.
         66    2    3    3    0    0  0.22109386781E+02 -0.16807449017E+02 -0.12571265183E+03  0.12875941192E+03  0.20000004871E+01 0.  0.
        -13    1    3    3    0    0 -0.22109386781E+02  0.16807449017E+02 -0.11246148221E+02  0.29963349949E+02  0.10566000000E+00 0.  1.
         13    1    4    4    0    0  0.15288649384E+02 -0.11949577282E+02 -0.87472437488E+02  0.89598960270E+02  0.10566000000E+00 0. -1.
        -13    1    4    4    0    0  0.22674820260E+00 -0.40458158675E+00 -0.25548563435E+01  0.25987604698E+01  0.10566000000E+00 0. -1.
         14    1    4    4    0    0  0.65939891945E+01 -0.44532901480E+01 -0.35685357996E+02  0.36561691180E+02  0.00000000000E+00 0. -1.
<mgrwt>
<rscale>  0 0.80219712E+02</rscale>
<asrwt>0</asrwt>
<pdfrwt beam="1">  1        2 0.22744734E-01 0.80219712E+02</pdfrwt>
<pdfrwt beam="2">  1       -1 0.16741510E-02 0.80219712E+02</pdfrwt>
<totfact> 0.19792223E+05</totfact>
</mgrwt>
</event>
<event>
 8    1  0.2676873E-020  0.8000260E+02  0.7818608E-02  0.1329044E+00
          2   -1    0    0  501    0  0.00000000000E+00  0.00000000000E+00  0.89448158741E+02  0.89448158777E+02  0.25500000000E-02 0. -1.
         -1   -1    0    0    0  501 -0.00000000000E+00 -0.00000000000E+00 -0.17888619855E+02  0.17888620565E+02  0.50400000000E-02 0.  1.
         24    2    1    2    0    0 -0.35527136788E-14  0.71054273576E-14  0.71559538886E+02  0.10733677934E+03  0.80002603670E+02 0.  0.
         66    2    3    3    0    0 -0.20286230197E+02  0.34314649272E+02  0.39843333496E+02  0.56396077162E+02  0.20000012354E+01 0.  0.
        -13    1    3    3    0    0  0.20286230197E+02 -0.34314649272E+02  0.31716205390E+02  0.50940702180E+02  0.10566000000E+00 0.  1.
         13    1    4    4    0    0 -0.35788590693E+01  0.56990498936E+01  0.67028152322E+01  0.94987524444E+01  0.10566000000E+00 0. -1.
        -13    1    4    4    0    0 -0.99932464413E+01  0.18696437192E+02  0.20799598540E+02  0.29699430997E+02  0.10566000000E+00 0.  1.
        -14    1    4    4    0    0 -0.67141246863E+01  0.99191621856E+01  0.12340919724E+02  0.17197893720E+02  0.00000000000E+00 0.  1.
<mgrwt>
<rscale>  0 0.80002604E+02</rscale>
<asrwt>0</asrwt>
<pdfrwt beam="1">  1        2 0.13761255E-01 0.80002604E+02</pdfrwt>
<pdfrwt beam="2">  1       -1 0.27520955E-02 0.80002604E+02</pdfrwt>
<totfact> 0.17190779E+05</totfact>
</mgrwt>
</event>
<event>
 8    1  0.2676873E-020  0.8021274E+02  0.7818608E-02  0.1328449E+00
         -1   -1    0    0    0  501 -0.00000000000E+00  0.00000000000E+00  0.13600362732E+03  0.13600362741E+03  0.50400000000E-02 0.  1.
          2   -1    0    0  501    0  0.00000000000E+00 -0.00000000000E+00 -0.11827044598E+02  0.11827044873E+02  0.25500000000E-02 0. -1.
         24    2    1    2    0    0  0.35527136788E-14 -0.71054273576E-14  0.12417658272E+03  0.14783067229E+03  0.80212741956E+02 0.  0.
         66    2    3    3    0    0  0.22803188331E+02  0.32937982078E+02  0.59781072327E+02  0.71990781830E+02  0.19999996135E+01 0.  0.
        -13    1    3    3    0    0 -0.22803188331E+02 -0.32937982078E+02  0.64395510395E+02  0.75839890457E+02  0.10566000000E+00 0.  1.
         13    1    4    4    0    0  0.15834901626E+02  0.23527104211E+02  0.43154821815E+02  0.51639312079E+02  0.10566000000E+00 0. -1.
        -13    1    4    4    0    0  0.60396775195E+01  0.77839341406E+01  0.13643563452E+02  0.16829299538E+02  0.10566000000E+00 0.  1.
        -14    1    4    4    0    0  0.92860918574E+00  0.16269437265E+01  0.29826870593E+01  0.35221702121E+01  0.00000000000E+00 0.  1.
<mgrwt>
<rscale>  0 0.80212742E+02</rscale>
<asrwt>0</asrwt>
<pdfrwt beam="1">  1        2 0.18195453E-02 0.80212742E+02</pdfrwt>
<pdfrwt beam="2">  1       -1 0.20923636E-01 0.80212742E+02</pdfrwt>
<totfact> 0.10979525E+05</totfact>
</mgrwt>
</event>
<event>
 8    1  0.2676873E-020  0.7967358E+02  0.7818608E-02  0.1329980E+00
          2   -1    0    0  501    0  0.00000000000E+00  0.00000000000E+00  0.48969637608E+03  0.48969637608E+03  0.25500000000E-02 0. -1.
         -1   -1    0    0    0  501 -0.00000000000E+00 -0.00000000000E+00 -0.32407202713E+01  0.32407241905E+01  0.50400000000E-02 0.  1.
         24    2    1    2    0    0  0.00000000000E+00  0.11102230246E-15  0.48645565581E+03  0.49293710027E+03  0.79673582581E+02 0.  0.
         66    2    3    3    0    0  0.34769516986E+02 -0.94475306483E+00  0.36321504696E+03  0.36488214839E+03  0.20000011135E+01 0.  0.
        -13    1    3    3    0    0 -0.34769516986E+02  0.94475306483E+00  0.12324060884E+03  0.12805495188E+03  0.10566000000E+00 0.  1.
         13    1    4    4    0    0  0.84150301765E+01 -0.16709196699E+00  0.86581687291E+02  0.86989886716E+02  0.10566000000E+00 0. -1.
        -13    1    4    4    0    0  0.24976108915E+01 -0.22492555818E+00  0.31678150616E+02  0.31777429760E+02  0.10566000000E+00 0.  1.
        -14    1    4    4    0    0  0.23856875918E+02 -0.55273553966E+00  0.24495520905E+03  0.24611483191E+03  0.00000000000E+00 0.  1.
<mgrwt>
<rscale>  0 0.79673583E+02</rscale>
<asrwt>0</asrwt>
<pdfrwt beam="1">  1        2 0.75337894E-01 0.79673583E+02</pdfrwt>
<pdfrwt beam="2">  1       -1 0.49857272E-03 0.79673583E+02</pdfrwt>
<totfact> 0.30572829E+05</totfact>
</mgrwt>
</event>
<event>
 8    1  0.2676873E-020  0.7996780E+02  0.7818608E-02  0.1329143E+00
          2   -1    0    0  501    0  0.00000000000E+00  0.00000000000E+00  0.17379524601E+02  0.17379524788E+02  0.25500000000E-02 0. -1.
         -1   -1    0    0    0  501 -0.00000000000E+00 -0.00000000000E+00 -0.91988260277E+02  0.91988260415E+02  0.50400000000E-02 0.  1.
         24    2    1    2    0    0  0.35527136788E-14 -0.35527136788E-14 -0.74608735676E+02  0.10936778520E+03  0.79967799776E+02 0.  0.
         66    2    3    3    0    0  0.19598960006E+02 -0.16944704797E+02  0.42782016566E+01  0.26335247606E+02  0.20000007734E+01 0.  0.
        -13    1    3    3    0    0 -0.19598960006E+02  0.16944704797E+02 -0.78886937333E+02  0.83032537597E+02  0.10566000000E+00 0.  1.
         13    1    4    4    0    0  0.95561004734E+01 -0.90940087869E+01  0.17360714372E+01  0.13305831810E+02  0.10566000000E+00 0. -1.
        -13    1    4    4    0    0  0.15569057672E+01 -0.13517165392E+01  0.72032557972E+00  0.21865786395E+01  0.10566000000E+00 0.  1.
         14    1    4    4    0    0  0.84859537655E+01 -0.64989794706E+01  0.18218046397E+01  0.10842837157E+02  0.00000000000E+00 0. -1.
<mgrwt>
<rscale>  0 0.79967800E+02</rscale>
<asrwt>0</asrwt>
<pdfrwt beam="1">  1        2 0.26737731E-02 0.79967800E+02</pdfrwt>
<pdfrwt beam="2">  1       -1 0.14152040E-01 0.79967800E+02</pdfrwt>
<totfact> 0.12076433E+05</totfact>
</mgrwt>
</event>
<event>
 8    1  0.2676873E-020  0.8000732E+02  0.7818608E-02  0.1329031E+00
          2   -1    0    0  501    0  0.00000000000E+00  0.00000000000E+00  0.26733352995E+02  0.26733353117E+02  0.25500000000E-02 0. -1.
         -1   -1    0    0    0  501 -0.00000000000E+00 -0.00000000000E+00 -0.59861284698E+02  0.59861284910E+02  0.50400000000E-02 0.  1.
         24    2    1    2    0    0  0.00000000000E+00  0.00000000000E+00 -0.33127931702E+02  0.86594638026E+02  0.80007321390E+02 0.  0.
         66    2    3    3    0    0  0.14894691465E+02 -0.33955410416E+02 -0.39471024596E+00  0.37134586659E+02  0.19999999441E+01 0.  0.
        -13    1    3    3    0    0 -0.14894691465E+02  0.33955410416E+02 -0.32733221457E+02  0.49460051368E+02  0.10566000000E+00 0.  1.
         13    1    4    4    0    0  0.10959938534E+02 -0.26224051310E+02 -0.24356157370E+00  0.28423434101E+02  0.10566000000E+00 0. -1.
        -13    1    4    4    0    0  0.15172547758E+01 -0.37653487552E+01  0.64245305310E-01  0.40614289108E+01  0.10566000000E+00 0.  1.
        -14    1    4    4    0    0  0.24174981549E+01 -0.39660103504E+01 -0.21539397758E+00  0.46497236470E+01  0.00000000000E+00 0.  1.
<mgrwt>
<rscale>  0 0.80007321E+02</rscale>
<asrwt>0</asrwt>
<pdfrwt beam="1">  1        2 0.41128236E-02 0.80007321E+02</pdfrwt>
<pdfrwt beam="2">  1       -1 0.92094285E-02 0.80007321E+02</pdfrwt>
<totfact> 0.13149673E+05</totfact>
</mgrwt>
</event>
<event>
 8    1  0.2676873E-020  0.8074559E+02  0.7818608E-02  0.1326949E+00
          2   -1    0    0  501    0  0.00000000000E+00  0.00000000000E+00  0.14232788482E+03  0.14232788484E+03  0.25500000000E-02 0. -1.
         -1   -1    0    0    0  501 -0.00000000000E+00 -0.00000000000E+00 -0.11452166433E+02  0.11452167542E+02  0.50400000000E-02 0.  1.
         24    2    1    2    0    0  0.00000000000E+00  0.00000000000E+00  0.13087571839E+03  0.15378005238E+03  0.80745593366E+02 0.  0.
         66    2    3    3    0    0  0.19540937296E+02  0.34474590974E+02  0.51022231797E+02  0.64634462825E+02  0.19999984786E+01 0.  0.
        -13    1    3    3    0    0 -0.19540937296E+02 -0.34474590974E+02  0.79853486590E+02  0.89145589559E+02  0.10566000000E+00 0.  1.
         13    1    4    4    0    0  0.61635955804E+01  0.97544107388E+01  0.14994459088E+02  0.18920449432E+02  0.10566000000E+00 0. -1.
        -13    1    4    4    0    0  0.76690803050E+01  0.15405057231E+02  0.21631291474E+02  0.27641536063E+02  0.10566000000E+00 0.  1.
         14    1    4    4    0    0  0.57082614109E+01  0.93151230041E+01  0.14396481235E+02  0.18072477330E+02  0.00000000000E+00 0. -1.
<mgrwt>
<rscale>  0 0.80745593E+02</rscale>
<asrwt>0</asrwt>
<pdfrwt beam="1">  1        2 0.21896599E-01 0.80745593E+02</pdfrwt>
<pdfrwt beam="2">  1       -1 0.17618718E-02 0.80745593E+02</pdfrwt>
<totfact> 0.19216937E+05</totfact>
</mgrwt>
</event>
<event>
 8    1  0.2676873E-020  0.7833448E+02  0.7818608E-02  0.1333845E+00
         -1   -1    0    0    0  501 -0.00000000000E+00  0.00000000000E+00  0.11188831262E+01  0.11188944775E+01  0.50400000000E-02 0.  1.
          2   -1    0    0  501    0  0.00000000000E+00 -0.00000000000E+00 -0.13710680800E+04  0.13710680800E+04  0.25500000000E-02 0. -1.
         24    2    1    2    0    0  0.00000000000E+00  0.00000000000E+00 -0.13699491969E+04  0.13721869745E+04  0.78334481023E+02 0.  0.
         66    2    3    3    0    0 -0.21919903618E+02  0.38173405478E+01 -0.12495152277E+04  0.12497149109E+04  0.19999995800E+01 0.  0.
        -13    1    3    3    0    0  0.21919903618E+02 -0.38173405478E+01 -0.12043396917E+03  0.12247206359E+03  0.10566000000E+00 0.  1.
         13    1    4    4    0    0 -0.17920276988E+01  0.24906576467E+00 -0.12596877308E+03  0.12598180961E+03  0.10566000000E+00 0. -1.
        -13    1    4    4    0    0 -0.78538618590E+01  0.78430070333E+00 -0.42768260701E+03  0.42775544622E+03  0.10566000000E+00 0.  1.
        -14    1    4    4    0    0 -0.12274014060E+02  0.27839740798E+01 -0.69586384763E+03  0.69597765508E+03  0.00000000000E+00 0.  1.
<mgrwt>
<rscale>  0 0.78334481E+02</rscale>
<asrwt>0</asrwt>
<pdfrwt beam="1">  1        2 0.21093221E+00 0.78334481E+02</pdfrwt>
<pdfrwt beam="2">  1       -1 0.17213784E-03 0.78334481E+02</pdfrwt>
<totfact> 0.36124922E+05</totfact>
</mgrwt>
</event>
<event>
 8    1  0.2676873E-020  0.7841528E+02  0.7818608E-02  0.1333610E+00
          2   -1    0    0  501    0  0.00000000000E+00  0.00000000000E+00  0.29853484749E+03  0.29853484750E+03  0.25500000000E-02 0. -1.
         -1   -1    0    0    0  501 -0.00000000000E+00 -0.00000000000E+00 -0.51492767117E+01  0.51492791782E+01  0.50400000000E-02 0.  1.
         24    2    1    2    0    0  0.00000000000E+00  0.71054273576E-14  0.29338557078E+03  0.30368412668E+03  0.78415276929E+02 0.  0.
         66    2    3    3    0    0 -0.11923578001E+02  0.26561142547E+02  0.24833778243E+03  0.25004663601E+03  0.19999984499E+01 0.  0.
        -13    1    3    3    0    0  0.11923578001E+02 -0.26561142547E+02  0.45047788346E+02  0.53637490663E+02  0.10566000000E+00 0.  1.
         13    1    4    4    0    0 -0.20069242767E+01  0.56293942915E+01  0.51134563384E+02  0.51482740425E+02  0.10566000000E+00 0. -1.
        -13    1    4    4    0    0 -0.34184796914E+01  0.76955166165E+01  0.66223395447E+02  0.66756694405E+02  0.10566000000E+00 0.  1.
         14    1    4    4    0    0 -0.64981740326E+01  0.13236231639E+02  0.13097982360E+03  0.13180720118E+03  0.00000000000E+00 0. -1.
<mgrwt>
<rscale>  0 0.78415277E+02</rscale>
<asrwt>0</asrwt>
<pdfrwt beam="1">  1        2 0.45928459E-01 0.78415277E+02</pdfrwt>
<pdfrwt beam="2">  1       -1 0.79219625E-03 0.78415277E+02</pdfrwt>
<totfact> 0.26818651E+05</totfact>
</mgrwt>
</event>
<event>
 8    1  0.2676873E-020  0.7957488E+02  0.7818608E-02  0.1330262E+00
         -1   -1    0    0    0  501 -0.00000000000E+00  0.00000000000E+00  0.20465425399E+01  0.20465487459E+01  0.50400000000E-02 0.  1.
          2   -1    0    0  501    0  0.00000000000E+00 -0.00000000000E+00 -0.77351816477E+03  0.77351816477E+03  0.25500000000E-02 0. -1.
         24    2    1    2    0    0  0.00000000000E+00  0.00000000000E+00 -0.77147162223E+03  0.77556471352E+03  0.79574876382E+02 0.  0.
         66    2    3    3    0    0 -0.16310713325E+01 -0.26191412829E+02 -0.67712970524E+03  0.67764097296E+03  0.20000044051E+01 0.  0.
        -13    1    3    3    0    0  0.16310713325E+01  0.26191412829E+02 -0.94341916996E+02  0.97923740564E+02  0.10566000000E+00 0.  1.
         13    1    4    4    0    0 -0.60676085277E+00 -0.12833637788E+02 -0.34027661261E+03  0.34051909589E+03  0.10566000000E+00 0. -1.
        -13    1    4    4    0    0 -0.71315776206E+00 -0.33643645995E+01 -0.78400138116E+02  0.78475603621E+02  0.10566000000E+00 0.  1.
        -14    1    4    4    0    0 -0.31115271764E+00 -0.99934104415E+01 -0.25845295451E+03  0.25864627344E+03  0.00000000000E+00 0.  1.
<mgrwt>
<rscale>  0 0.79574876E+02</rscale>
<asrwt>0</asrwt>
<pdfrwt beam="1">  1        2 0.11900256E+00 0.79574876E+02</pdfrwt>
<pdfrwt beam="2">  1       -1 0.31485380E-03 0.79574876E+02</pdfrwt>
<totfact> 0.34633704E+05</totfact>
</mgrwt>
</event>
<event>
 8    1  0.2676873E-020  0.7938132E+02  0.7818608E-02  0.1330816E+00
         -1   -1    0    0    0  501 -0.00000000000E+00  0.00000000000E+00  0.54400387544E+01  0.54400410891E+01  0.50400000000E-02 0.  1.
          2   -1    0    0  501    0  0.00000000000E+00 -0.00000000000E+00 -0.28958398113E+03  0.28958398114E+03  0.25500000000E-02 0. -1.
         24    2    1    2    0    0  0.00000000000E+00  0.00000000000E+00 -0.28414394238E+03  0.29502402223E+03  0.79381318358E+02 0.  0.
         66    2    3    3    0    0  0.18199061215E+02 -0.19877957149E+02 -0.25032570048E+03  0.25178025206E+03  0.19999995278E+01 0.  0.
        -13    1    3    3    0    0 -0.18199061215E+02  0.19877957149E+02 -0.33818241900E+02  0.43243770173E+02  0.10566000000E+00 0.  1.
         13    1    4    4    0    0  0.62300486412E+01 -0.68092060073E+01 -0.77839193839E+02  0.78384501364E+02  0.10566000000E+00 0. -1.
        -13    1    4    4    0    0  0.43079756947E+01 -0.43228607271E+01 -0.60972489391E+02  0.61277250314E+02  0.10566000000E+00 0.  1.
         14    1    4    4    0    0  0.76610368791E+01 -0.87458904142E+01 -0.11151401725E+03  0.11211850038E+03  0.00000000000E+00 0. -1.
<mgrwt>
<rscale>  0 0.79381318E+02</rscale>
<asrwt>0</asrwt>
<pdfrwt beam="1">  1        2 0.44551370E-01 0.79381318E+02</pdfrwt>
<pdfrwt beam="2">  1       -1 0.83692945E-03 0.79381318E+02</pdfrwt>
<totfact> 0.25687881E+05</totfact>
</mgrwt>
</event>
<event>
 8    1  0.2676873E-020  0.7963961E+02  0.7818608E-02  0.1330077E+00
         -1   -1    0    0    0  501 -0.00000000000E+00  0.00000000000E+00  0.59337574094E+01  0.59337595498E+01  0.50400000000E-02 0.  1.
          2   -1    0    0  501    0  0.00000000000E+00 -0.00000000000E+00 -0.26721967991E+03  0.26721967992E+03  0.25500000000E-02 0. -1.
         24    2    1    2    0    0  0.00000000000E+00  0.00000000000E+00 -0.26128592250E+03  0.27315343947E+03  0.79639614504E+02 0.  0.
         66    2    3    3    0    0  0.11473996627E+02 -0.37953114999E+02 -0.14236676646E+03  0.14779846999E+03  0.20000004849E+01 0.  0.
        -13    1    3    3    0    0 -0.11473996627E+02  0.37953114999E+02 -0.11891915604E+03  0.12535496948E+03  0.10566000000E+00 0.  1.
         13    1    4    4    0    0  0.86996226721E-01 -0.40970674921E+00 -0.14035094248E+01  0.14684790447E+01  0.10566000000E+00 0.  1.
        -13    1    4    4    0    0  0.72402820256E+00 -0.16037127363E+01 -0.72253365675E+01  0.74372551340E+01  0.10566000000E+00 0. -1.
         14    1    4    4    0    0  0.10662972198E+02 -0.35939695514E+02 -0.13373792047E+03  0.13889273581E+03  0.00000000000E+00 0. -1.
<mgrwt>
<rscale>  0 0.79639615E+02</rscale>
<asrwt>0</asrwt>
<pdfrwt beam="1">  1        2 0.41110711E-01 0.79639615E+02</pdfrwt>
<pdfrwt beam="2">  1       -1 0.91288613E-03 0.79639615E+02</pdfrwt>
<totfact> 0.24739657E+05</totfact>
</mgrwt>
</event>
<event>
 8    1  0.2676873E-020  0.8083592E+02  0.7818608E-02  0.1326696E+00
          2   -1    0    0  501    0  0.00000000000E+00  0.00000000000E+00  0.54234920308E+03  0.54234920309E+03  0.25500000000E-02 0. -1.
         -1   -1    0    0    0  501 -0.00000000000E+00 -0.00000000000E+00 -0.30121003697E+01  0.30121045863E+01  0.50400000000E-02 0.  1.
         24    2    1    2    0    0 -0.71054273576E-14 -0.17763568394E-14  0.53933710271E+03  0.54536130767E+03  0.80835917426E+02 0.  0.
         66    2    3    3    0    0 -0.35802241182E+02  0.15629605260E+02  0.33913586919E+03  0.34138427440E+03  0.20000010903E+01 0.  0.
        -13    1    3    3    0    0  0.35802241182E+02 -0.15629605260E+02  0.20020123352E+03  0.20397703327E+03  0.10566000000E+00 0.  1.
         13    1    4    4    0    0 -0.28992329427E+01  0.12099386360E+01  0.23596362154E+02  0.23804809894E+02  0.10566000000E+00 0. -1.
        -13    1    4    4    0    0 -0.59535094048E+01  0.29403977966E+01  0.60308964598E+02  0.60673491644E+02  0.10566000000E+00 0.  1.
         14    1    4    4    0    0 -0.26949498834E+02  0.11479268827E+02  0.25523054244E+03  0.25690597286E+03  0.00000000000E+00 0. -1.
<mgrwt>
<rscale>  0 0.80835917E+02</rscale>
<asrwt>0</asrwt>
<pdfrwt beam="1">  1        2 0.83438371E-01 0.80835917E+02</pdfrwt>
<pdfrwt beam="2">  1       -1 0.46340021E-03 0.80835917E+02</pdfrwt>
<totfact> 0.30396191E+05</totfact>
</mgrwt>
</event>
<event>
 8    1  0.2676873E-020  0.8510869E+02  0.7818608E-02  0.1315149E+00
         -1   -1    0    0    0  501 -0.00000000000E+00  0.00000000000E+00  0.11893467361E+02  0.11893468429E+02  0.50400000000E-02 0.  1.
          2   -1    0    0  501    0  0.00000000000E+00 -0.00000000000E+00 -0.15225771307E+03  0.15225771309E+03  0.25500000000E-02 0. -1.
         24    2    1    2    0    0  0.00000000000E+00  0.00000000000E+00 -0.14036424571E+03  0.16415118152E+03  0.85108688869E+02 0.  0.
         66    2    3    3    0    0  0.14511054360E+02  0.31606656965E+02 -0.11743772316E+03  0.12249559290E+03  0.19999987814E+01 0.  0.
        -13    1    3    3    0    0 -0.14511054360E+02 -0.31606656965E+02 -0.22926522544E+02  0.41655588618E+02  0.10566000000E+00 0.  1.
         13    1    4    4    0    0  0.13177980157E+01  0.30436810173E+01 -0.11488591323E+02  0.11958239016E+02  0.10566000000E+00 0. -1.
        -13    1    4    4    0    0  0.10190845116E+02  0.23145143707E+02 -0.83033374601E+02  0.86799213494E+02  0.10566000000E+00 0.  1.
        -14    1    4    4    0    0  0.30024112279E+01  0.54178322403E+01 -0.22915757239E+02  0.23738140391E+02  0.00000000000E+00 0.  1.
<mgrwt>
<rscale>  0 0.85108689E+02</rscale>
<asrwt>0</asrwt>
<pdfrwt beam="1">  1        2 0.23424262E-01 0.85108689E+02</pdfrwt>
<pdfrwt beam="2">  1       -1 0.18297644E-02 0.85108689E+02</pdfrwt>
<totfact> 0.17069568E+05</totfact>
</mgrwt>
</event>
<event>
 8    1  0.2676873E-020  0.8038403E+02  0.7818608E-02  0.1327965E+00
         -1   -1    0    0    0  501 -0.00000000000E+00  0.00000000000E+00  0.10187935111E+02  0.10187936358E+02  0.50400000000E-02 0.  1.
          2   -1    0    0  501    0  0.00000000000E+00 -0.00000000000E+00 -0.15855990003E+03  0.15855990005E+03  0.25500000000E-02 0. -1.
         24    2    1    2    0    0  0.00000000000E+00  0.00000000000E+00 -0.14837196492E+03  0.16874783641E+03  0.80384030246E+02 0.  0.
         66    2    3    3    0    0  0.28648186745E+02  0.92631046740E+01 -0.13004512051E+03  0.13350002652E+03  0.20000000877E+01 0.  0.
        -13    1    3    3    0    0 -0.28648186745E+02 -0.92631046740E+01 -0.18326844411E+02  0.35247809891E+02  0.10566000000E+00 0.  1.
         13    1    4    4    0    0  0.97590254639E+01  0.32280448995E+01 -0.43094256376E+02  0.44303328865E+02  0.10566000000E+00 0. -1.
        -13    1    4    4    0    0  0.12724717981E+02  0.44380323953E+01 -0.61774363488E+02  0.63227349522E+02  0.10566000000E+00 0.  1.
        -14    1    4    4    0    0  0.61644433001E+01  0.15970273792E+01 -0.25176500644E+02  0.25969348130E+02  0.00000000000E+00 0.  1.
<mgrwt>
<rscale>  0 0.80384030E+02</rscale>
<asrwt>0</asrwt>
<pdfrwt beam="1">  1        2 0.24393829E-01 0.80384030E+02</pdfrwt>
<pdfrwt beam="2">  1       -1 0.15673749E-02 0.80384030E+02</pdfrwt>
<totfact> 0.20137047E+05</totfact>
</mgrwt>
</event>
<event>
 8    1  0.2676873E-020  0.7757918E+02  0.7818608E-02  0.1336065E+00
          2   -1    0    0  501    0  0.00000000000E+00  0.00000000000E+00  0.32385571175E+03  0.32385571176E+03  0.25500000000E-02 0. -1.
         -1   -1    0    0    0  501 -0.00000000000E+00 -0.00000000000E+00 -0.46459945104E+01  0.46459972442E+01  0.50400000000E-02 0.  1.
         24    2    1    2    0    0  0.00000000000E+00  0.17763568394E-14  0.31920971724E+03  0.32850170900E+03  0.77579180445E+02 0.  0.
         66    2    3    3    0    0 -0.39058904936E+01  0.10933288096E+02  0.31631694276E+03  0.31653625551E+03  0.20000011742E+01 0.  0.
        -13    1    3    3    0    0  0.39058904936E+01 -0.10933288096E+02  0.28927744788E+01  0.11965453496E+02  0.10566000000E+00 0.  1.
         13    1    4    4    0    0  0.74656564263E-01  0.48054325093E+00  0.85618549086E+01  0.85763056691E+01  0.10566000000E+00 0. -1.
        -13    1    4    4    0    0 -0.47956573018E+00  0.23531972469E+01  0.62853593675E+02  0.62899546282E+02  0.10566000000E+00 0.  1.
         14    1    4    4    0    0 -0.35009813276E+01  0.80995475980E+01  0.24490149418E+03  0.24506040356E+03  0.00000000000E+00 0. -1.
<mgrwt>
<rscale>  0 0.77579180E+02</rscale>
<asrwt>0</asrwt>
<pdfrwt beam="1">  1        2 0.49823948E-01 0.77579180E+02</pdfrwt>
<pdfrwt beam="2">  1       -1 0.71476871E-03 0.77579180E+02</pdfrwt>
<totfact> 0.28402165E+05</totfact>
</mgrwt>
</event>
<event>
 8    1  0.2676873E-020  0.7522951E+02  0.7818608E-02  0.1343162E+00
         -1   -1    0    0    0  501 -0.00000000000E+00  0.00000000000E+00  0.47405888479E+02  0.47405888747E+02  0.50400000000E-02 0.  1.
          2   -1    0    0  501    0  0.00000000000E+00 -0.00000000000E+00 -0.29845867077E+02  0.29845867186E+02  0.25500000000E-02 0. -1.
         24    2    1    2    0    0  0.00000000000E+00  0.00000000000E+00  0.17560021401E+02  0.77251755933E+02  0.75229511783E+02 0.  0.
         66    2    3    3    0    0 -0.12715398887E+02 -0.16551530000E+02 -0.23314805075E+02  0.31356253782E+02  0.20000003402E+01 0.  0.
        -13    1    3    3    0    0  0.12715398887E+02  0.16551530000E+02  0.40874826476E+02  0.45895502151E+02  0.10566000000E+00 0.  1.
         13    1    4    4    0    0 -0.58279494455E+01 -0.78081736527E+01 -0.10264704312E+02  0.14153016964E+02  0.10566000000E+00 0. -1.
        -13    1    4    4    0    0 -0.15568182751E+01 -0.27273796983E+01 -0.31252739995E+01  0.44317925006E+01  0.10566000000E+00 0.  1.
        -14    1    4    4    0    0 -0.53306311662E+01 -0.60159766491E+01 -0.99248267633E+01  0.12771444317E+02  0.00000000000E+00 0.  1.
<mgrwt>
<rscale>  0 0.75229512E+02</rscale>
<asrwt>0</asrwt>
<pdfrwt beam="1">  1        2 0.45916719E-02 0.75229512E+02</pdfrwt>
<pdfrwt beam="2">  1       -1 0.72932136E-02 0.75229512E+02</pdfrwt>
<totfact> 0.15955703E+05</totfact>
</mgrwt>
</event>
<event>
 8    1  0.2676873E-020  0.8065142E+02  0.7818608E-02  0.1327213E+00
         -1   -1    0    0    0  501 -0.00000000000E+00  0.00000000000E+00  0.16097488055E+01  0.16097566954E+01  0.50400000000E-02 0.  1.
          2   -1    0    0  501    0  0.00000000000E+00 -0.00000000000E+00 -0.10101940920E+04  0.10101940920E+04  0.25500000000E-02 0. -1.
         24    2    1    2    0    0 -0.35527136788E-14  0.17763568394E-14 -0.10085843432E+04  0.10118038487E+04  0.80651416008E+02 0.  0.
         66    2    3    3    0    0  0.13768034700E+02 -0.15122119294E+02 -0.94025738446E+03  0.94048189047E+03  0.19999997036E+01 0.  0.
        -13    1    3    3    0    0 -0.13768034700E+02  0.15122119294E+02 -0.68326958703E+02  0.71321958197E+02  0.10566000000E+00 0.  1.
         13    1    4    4    0    0  0.72413538995E+01 -0.80303505665E+01 -0.53369229001E+03  0.53380183151E+03  0.10566000000E+00 0. -1.
        -13    1    4    4    0    0  0.17550428412E+01 -0.23688863978E+01 -0.11791923127E+03  0.11795612771E+03  0.10566000000E+00 0.  1.
         14    1    4    4    0    0  0.47716379592E+01 -0.47228823302E+01 -0.28864586318E+03  0.28872393125E+03  0.00000000000E+00 0. -1.
<mgrwt>
<rscale>  0 0.80651416E+02</rscale>
<asrwt>0</asrwt>
<pdfrwt beam="1">  1        2 0.15541397E+00 0.80651416E+02</pdfrwt>
<pdfrwt beam="2">  1       -1 0.24765508E-03 0.80651416E+02</pdfrwt>
<totfact> 0.34510249E+05</totfact>
</mgrwt>
</event>
<event>
 8    1  0.2676873E-020  0.8077724E+02  0.7818608E-02  0.1326860E+00
          2   -1    0    0  501    0  0.00000000000E+00  0.00000000000E+00  0.20105811673E+03  0.20105811675E+03  0.25500000000E-02 0. -1.
         -1   -1    0    0    0  501 -0.00000000000E+00 -0.00000000000E+00 -0.81132787760E+01  0.81132803414E+01  0.50400000000E-02 0.  1.
         24    2    1    2    0    0  0.00000000000E+00  0.35527136788E-14  0.19294483796E+03  0.20917139709E+03  0.80777242257E+02 0.  0.
         66    2    3    3    0    0 -0.50524131822E+01 -0.27848700300E+02  0.17105091874E+03  0.17338827467E+03  0.20000011606E+01 0.  0.
        -13    1    3    3    0    0  0.50524131822E+01  0.27848700300E+02  0.21893919219E+02  0.35783122420E+02  0.10566000000E+00 0.  1.
         13    1    4    4    0    0 -0.88307616666E+00 -0.49231497552E+01  0.28188223679E+02  0.28628732861E+02  0.10566000000E+00 0. -1.
        -13    1    4    4    0    0 -0.27288180802E+01 -0.10545557536E+02  0.66102290766E+02  0.66993874648E+02  0.10566000000E+00 0.  1.
         14    1    4    4    0    0 -0.14405189354E+01 -0.12379993008E+02  0.76760404295E+02  0.77765667162E+02  0.00000000000E+00 0. -1.
<mgrwt>
<rscale>  0 0.80777242E+02</rscale>
<asrwt>0</asrwt>
<pdfrwt beam="1">  1        2 0.30932019E-01 0.80777242E+02</pdfrwt>
<pdfrwt beam="2">  1       -1 0.12481968E-02 0.80777242E+02</pdfrwt>
<totfact> 0.21542146E+05</totfact>
</mgrwt>
</event>
<event>
 8    1  0.2676873E-020  0.8109050E+02  0.7818608E-02  0.1325985E+00
         -1   -1    0    0    0  501 -0.00000000000E+00  0.00000000000E+00  0.97838970833E+02  0.97838970963E+02  0.50400000000E-02 0.  1.
          2   -1    0    0  501    0  0.00000000000E+00 -0.00000000000E+00 -0.16802276631E+02  0.16802276825E+02  0.25500000000E-02 0. -1.
         24    2    1    2    0    0  0.00000000000E+00  0.00000000000E+00  0.81036694201E+02  0.11464124779E+03  0.81090504297E+02 0.  0.
         66    2    3    3    0    0 -0.37397237310E+02  0.12123379968E+02  0.54422324815E+02  0.67166354190E+02  0.19999991722E+01 0.  0.
        -13    1    3    3    0    0  0.37397237310E+02 -0.12123379968E+02  0.26614369386E+02  0.47474893598E+02  0.10566000000E+00 0.  1.
         13    1    4    4    0    0 -0.89226745445E+01  0.36496198121E+01  0.13718781787E+02  0.16767527652E+02  0.10566000000E+00 0.  1.
        -13    1    4    4    0    0 -0.27306183636E+02  0.82893195592E+01  0.39101784055E+02  0.48407656045E+02  0.10566000000E+00 0. -1.
        -14    1    4    4    0    0 -0.11683791291E+01  0.18444059632E+00  0.16017589730E+01  0.19911704926E+01  0.00000000000E+00 0.  1.
<mgrwt>
<rscale>  0 0.81090504E+02</rscale>
<asrwt>0</asrwt>
<pdfrwt beam="1">  1        2 0.25849656E-02 0.81090504E+02</pdfrwt>
<pdfrwt beam="2">  1       -1 0.15052150E-01 0.81090504E+02</pdfrwt>
<totfact> 0.11513635E+05</totfact>
</mgrwt>
</event>
<event>
 8    1  0.2676873E-020  0.8094489E+02  0.7818608E-02  0.1326391E+00
         -1   -1    0    0    0  501 -0.00000000000E+00  0.00000000000E+00  0.44134617752E+02  0.44134618039E+02  0.50400000000E-02 0.  1.
          2   -1    0    0  501    0  0.00000000000E+00 -0.00000000000E+00 -0.37114151524E+02  0.37114151612E+02  0.25500000000E-02 0. -1.
         24    2    1    2    0    0  0.14210854715E-13  0.00000000000E+00  0.70204662271E+01  0.81248769651E+02  0.80944892512E+02 0.  0.
         66    2    3    3    0    0  0.35810493734E+02  0.64982891920E+01 -0.14200255972E+02  0.39118620844E+02  0.20000007884E+01 0.  0.
        -13    1    3    3    0    0 -0.35810493734E+02 -0.64982891920E+01  0.21220722199E+02  0.42130148808E+02  0.10566000000E+00 0.  1.
         13    1    4    4    0    0  0.18576641168E+02  0.28631708434E+01 -0.76768036210E+01  0.20303542110E+02  0.10566000000E+00 0. -1.
        -13    1    4    4    0    0  0.13933375174E+01  0.22188733654E+00 -0.82740094912E+00  0.16390179358E+01  0.10566000000E+00 0.  1.
        -14    1    4    4    0    0  0.15840515049E+02  0.34132310120E+01 -0.56960514019E+01  0.17176060798E+02  0.00000000000E+00 0.  1.
<mgrwt>
<rscale>  0 0.80944893E+02</rscale>
<asrwt>0</asrwt>
<pdfrwt beam="1">  1        2 0.57098695E-02 0.80944893E+02</pdfrwt>
<pdfrwt beam="2">  1       -1 0.67899412E-02 0.80944893E+02</pdfrwt>
<totfact> 0.13588741E+05</totfact>
</mgrwt>
</event>
<event>
 8    1  0.2676873E-020  0.7677902E+02  0.7818608E-02  0.1338449E+00
         -1   -1    0    0    0  501 -0.00000000000E+00  0.00000000000E+00  0.35258940492E+03  0.35258940496E+03  0.50400000000E-02 0.  1.
          2   -1    0    0  501    0  0.00000000000E+00 -0.00000000000E+00 -0.41798029324E+01  0.41798037102E+01  0.25500000000E-02 0. -1.
         24    2    1    2    0    0  0.00000000000E+00  0.00000000000E+00  0.34840960199E+03  0.35676920867E+03  0.76779017285E+02 0.  0.
         66    2    3    3    0    0 -0.34487862945E+02  0.52573331518E+01  0.24848049041E+03  0.25092549961E+03  0.19999992136E+01 0.  0.
        -13    1    3    3    0    0  0.34487862945E+02 -0.52573331518E+01  0.99929111575E+02  0.10584370906E+03  0.10566000000E+00 0.  1.
         13    1    4    4    0    0 -0.82287063923E+01  0.10400932472E+01  0.57903298977E+02  0.58494415112E+02  0.10566000000E+00 0. -1.
        -13    1    4    4    0    0 -0.25502177730E+02  0.39418161616E+01  0.18283230041E+03  0.18464441562E+03  0.10566000000E+00 0.  1.
        -14    1    4    4    0    0 -0.75697882319E+00  0.27542374305E+00  0.77448910277E+01  0.77866688775E+01  0.00000000000E+00 0.  1.
<mgrwt>
<rscale>  0 0.76779017E+02</rscale>
<asrwt>0</asrwt>
<pdfrwt beam="1">  1        2 0.64304671E-03 0.76779017E+02</pdfrwt>
<pdfrwt beam="2">  1       -1 0.54244521E-01 0.76779017E+02</pdfrwt>
<totfact> 0.89567423E+04</totfact>
</mgrwt>
</event>
<event>
 8    1  0.2676873E-020  0.7816647E+02  0.7818608E-02  0.1334337E+00
         -1   -1    0    0    0  501 -0.00000000000E+00  0.00000000000E+00  0.30806848483E+01  0.30806889710E+01  0.50400000000E-02 0.  1.
          2   -1    0    0  501    0  0.00000000000E+00 -0.00000000000E+00 -0.49583077330E+03  0.49583077331E+03  0.25500000000E-02 0. -1.
         24    2    1    2    0    0  0.00000000000E+00  0.00000000000E+00 -0.49275008845E+03  0.49891146228E+03  0.78166473137E+02 0.  0.
         66    2    3    3    0    0  0.85456583880E+01 -0.33734686220E+02 -0.35971593376E+03  0.36140089974E+03  0.19999995348E+01 0.  0.
        -13    1    3    3    0    0 -0.85456583880E+01  0.33734686220E+02 -0.13303415469E+03  0.13751056254E+03  0.10566000000E+00 0.  1.
         13    1    4    4    0    0  0.24651050843E+01 -0.78647277157E+01 -0.80646206361E+02  0.81066345974E+02  0.10566000000E+00 0. -1.
        -13    1    4    4    0    0  0.20199987329E+01 -0.10879780844E+02 -0.11825421377E+03  0.11877087296E+03  0.10566000000E+00 0.  1.
        -14    1    4    4    0    0  0.40605545708E+01 -0.14990177661E+02 -0.16081551363E+03  0.16156368080E+03  0.00000000000E+00 0.  1.
<mgrwt>
<rscale>  0 0.78166473E+02</rscale>
<asrwt>0</asrwt>
<pdfrwt beam="1">  1        2 0.76281594E-01 0.78166473E+02</pdfrwt>
<pdfrwt beam="2">  1       -1 0.47395223E-03 0.78166473E+02</pdfrwt>
<totfact> 0.32259682E+05</totfact>
</mgrwt>
</event>
<event>
 8    1  0.2676873E-020  0.7549427E+02  0.7818608E-02  0.1342347E+00
         -1   -1    0    0    0  501 -0.00000000000E+00  0.00000000000E+00  0.48527038142E+01  0.48527064314E+01  0.50400000000E-02 0.  1.
          2   -1    0    0  501    0  0.00000000000E+00 -0.00000000000E+00 -0.29361893286E+03  0.29361893287E+03  0.25500000000E-02 0. -1.
         24    2    1    2    0    0  0.00000000000E+00  0.00000000000E+00 -0.28876622905E+03  0.29847163930E+03  0.75494267535E+02 0.  0.
         66    2    3    3    0    0  0.14929649458E+02  0.16777968193E+02 -0.26430050282E+03  0.26526053312E+03  0.19999987760E+01 0.  0.
        -13    1    3    3    0    0 -0.14929649458E+02 -0.16777968193E+02 -0.24465726232E+02  0.33211106181E+02  0.10566000000E+00 0.  1.
         13    1    4    4    0    0  0.33193481410E+01  0.33644107353E+01 -0.57757946467E+02  0.57951090376E+02  0.10566000000E+00 0. -1.
        -13    1    4    4    0    0  0.93109062221E+01  0.11304196102E+02 -0.17577134297E+03  0.17638042408E+03  0.10566000000E+00 0.  1.
        -14    1    4    4    0    0  0.22993950950E+01  0.21093613554E+01 -0.30771213374E+02  0.30929018666E+02  0.00000000000E+00 0.  1.
<mgrwt>
<rscale>  0 0.75494268E+02</rscale>
<asrwt>0</asrwt>
<pdfrwt beam="1">  1        2 0.45172130E-01 0.75494268E+02</pdfrwt>
<pdfrwt beam="2">  1       -1 0.74657025E-03 0.75494268E+02</pdfrwt>
<totfact> 0.29437418E+05</totfact>
</mgrwt>
</event>
<event>
 8    1  0.2676873E-020  0.8081021E+02  0.7818608E-02  0.1326768E+00
          2   -1    0    0  501    0  0.00000000000E+00  0.00000000000E+00  0.17537163257E+04  0.17537163257E+04  0.25500000000E-02 0. -1.
         -1   -1    0    0    0  501 -0.00000000000E+00 -0.00000000000E+00 -0.93091487039E+00  0.93092851364E+00  0.50400000000E-02 0.  1.
         24    2    1    2    0    0  0.00000000000E+00  0.17763568394E-14  0.17527854108E+04  0.17546472542E+04  0.80810211662E+02 0.  0.
         66    2    3    3    0    0  0.52601465006E+01 -0.12524180337E+02  0.17026127221E+04  0.17026680844E+04  0.20000024964E+01 0.  0.
        -13    1    3    3    0    0 -0.52601465006E+01  0.12524180337E+02  0.50172688743E+02  0.51979169809E+02  0.10566000000E+00 0.  1.
         13    1    4    4    0    0  0.18218337210E+01 -0.49445542552E+01  0.65591633012E+03  0.65593750539E+03  0.10566000000E+00 0. -1.
        -13    1    4    4    0    0  0.11408608823E+01 -0.22635486960E+01  0.41000695688E+03  0.41001480592E+03  0.10566000000E+00 0.  1.
        -14    1    4    4    0    0  0.22974518973E+01 -0.53160773859E+01  0.63668943508E+03  0.63671577309E+03  0.00000000000E+00 0.  1.
<mgrwt>
<rscale>  0 0.80810212E+02</rscale>
<asrwt>0</asrwt>
<pdfrwt beam="1">  1        2 0.26979875E+00 0.80810212E+02</pdfrwt>
<pdfrwt beam="2">  1       -1 0.14322072E-03 0.80810212E+02</pdfrwt>
<totfact> 0.29950157E+05</totfact>
</mgrwt>
</event>
<event>
 8    1  0.2676873E-020  0.8105920E+02  0.7818608E-02  0.1326072E+00
          2   -1    0    0  501    0  0.00000000000E+00  0.00000000000E+00  0.93726739659E+03  0.93726739660E+03  0.25500000000E-02 0. -1.
         -1   -1    0    0    0  501 -0.00000000000E+00 -0.00000000000E+00 -0.17525896764E+01  0.17525969233E+01  0.50400000000E-02 0.  1.
         24    2    1    2    0    0  0.00000000000E+00  0.00000000000E+00  0.93551480692E+03  0.93901999352E+03  0.81059202252E+02 0.  0.
         66    2    3    3    0    0  0.19040808351E+02 -0.14917805019E+02  0.84440875170E+03  0.84475749965E+03  0.19999947903E+01 0.  0.
        -13    1    3    3    0    0 -0.19040808351E+02  0.14917805019E+02  0.91106055215E+02  0.94262493867E+02  0.10566000000E+00 0.  1.
         13    1    4    4    0    0  0.15162734567E+02 -0.11792776093E+02  0.65752889056E+03  0.65780941858E+03  0.10566000000E+00 0. -1.
        -13    1    4    4    0    0  0.26409176595E+01 -0.23901249329E+01  0.12076820736E+03  0.12082076897E+03  0.10566000000E+00 0.  1.
         14    1    4    4    0    0  0.12371561252E+01 -0.73490399363E+00  0.66111653784E+02  0.66127312097E+02  0.00000000000E+00 0. -1.
<mgrwt>
<rscale>  0 0.81059202E+02</rscale>
<asrwt>0</asrwt>
<pdfrwt beam="1">  1        2 0.14419498E+00 0.81059202E+02</pdfrwt>
<pdfrwt beam="2">  1       -1 0.26962975E-03 0.81059202E+02</pdfrwt>
<totfact> 0.33906735E+05</totfact>
</mgrwt>
</event>
<event>
 8    1  0.2676873E-020  0.7835190E+02  0.7818608E-02  0.1333795E+00
          2   -1    0    0  501    0  0.00000000000E+00  0.00000000000E+00  0.10660270194E+03  0.10660270197E+03  0.25500000000E-02 0. -1.
         -1   -1    0    0    0  501 -0.00000000000E+00 -0.00000000000E+00 -0.14396962728E+02  0.14396963610E+02  0.50400000000E-02 0.  1.
         24    2    1    2    0    0  0.00000000000E+00 -0.71054273576E-14  0.92205739212E+02  0.12099966558E+03  0.78351903149E+02 0.  0.
         66    2    3    3    0    0 -0.17473778730E+02 -0.30516288727E+02  0.72709929582E+02  0.80791773595E+02  0.20000000037E+01 0.  0.
        -13    1    3    3    0    0  0.17473778730E+02  0.30516288727E+02  0.19495809630E+02  0.40207891986E+02  0.10566000000E+00 0.  1.
         13    1    4    4    0    0 -0.81548932843E+01 -0.14188398511E+02  0.35508267042E+02  0.39098096235E+02  0.10566000000E+00 0.  1.
        -13    1    4    4    0    0 -0.44069656179E+01 -0.85493863566E+01  0.18448674627E+02  0.20805723073E+02  0.10566000000E+00 0. -1.
         14    1    4    4    0    0 -0.49119198281E+01 -0.77785038597E+01  0.18752987912E+02  0.20887954288E+02  0.00000000000E+00 0. -1.
<mgrwt>
<rscale>  0 0.78351903E+02</rscale>
<asrwt>0</asrwt>
<pdfrwt beam="1">  1        2 0.16400415E-01 0.78351903E+02</pdfrwt>
<pdfrwt beam="2">  1       -1 0.22149175E-02 0.78351903E+02</pdfrwt>
<totfact> 0.19081922E+05</totfact>
</mgrwt>
</event>
<event>
 8    1  0.2676873E-020  0.7959047E+02  0.7818608E-02  0.1330218E+00
         -1   -1    0    0    0  501 -0.00000000000E+00  0.00000000000E+00  0.15906647681E+01  0.15906727526E+01  0.50400000000E-02 0.  1.
          2   -1    0    0  501    0  0.00000000000E+00 -0.00000000000E+00 -0.99559423662E+03  0.99559423662E+03  0.25500000000E-02 0. -1.
         24    2    1    2    0    0  0.00000000000E+00  0.00000000000E+00 -0.99400357185E+03  0.99718490938E+03  0.79590468227E+02 0.  0.
         66    2    3    3    0    0 -0.42796700778E+01 -0.16295744155E+02 -0.94866807762E+03  0.94881978708E+03  0.20000008969E+01 0.  0.
        -13    1    3    3    0    0  0.42796700778E+01  0.16295744155E+02 -0.45335494233E+02  0.48365122298E+02  0.10566000000E+00 0.  1.
         13    1    4    4    0    0 -0.14660239186E+01 -0.33832269845E+01 -0.20618249850E+03  0.20621549239E+03  0.10566000000E+00 0. -1.
        -13    1    4    4    0    0 -0.19549936709E+01 -0.80175326790E+01 -0.49539958963E+03  0.49546833138E+03  0.10566000000E+00 0.  1.
         14    1    4    4    0    0 -0.85865248826E+00 -0.48949844910E+01 -0.24708598949E+03  0.24713596331E+03  0.00000000000E+00 0. -1.
<mgrwt>
<rscale>  0 0.79590468E+02</rscale>
<asrwt>0</asrwt>
<pdfrwt beam="1">  1        2 0.15316785E+00 0.79590468E+02</pdfrwt>
<pdfrwt beam="2">  1       -1 0.24471907E-03 0.79590468E+02</pdfrwt>
<totfact> 0.35696783E+05</totfact>
</mgrwt>
</event>
<event>
 8    1  0.2676873E-020  0.7315458E+02  0.7818608E-02  0.1349683E+00
         -1   -1    0    0    0  501 -0.00000000000E+00  0.00000000000E+00  0.41019779507E+01  0.41019810470E+01  0.50400000000E-02 0.  1.
          2   -1    0    0  501    0  0.00000000000E+00 -0.00000000000E+00 -0.32615918626E+03  0.32615918627E+03  0.25500000000E-02 0. -1.
         24    2    1    2    0    0  0.00000000000E+00  0.17763568394E-14 -0.32205720831E+03  0.33026116732E+03  0.73154584365E+02 0.  0.
         66    2    3    3    0    0  0.26261385491E+02  0.11422659358E+02 -0.26367558768E+03  0.26523377074E+03  0.20000214400E+01 0.  0.
        -13    1    3    3    0    0 -0.26261385491E+02 -0.11422659358E+02 -0.58381620625E+02  0.65027396577E+02  0.10566000000E+00 0.  1.
         13    1    4    4    0    0  0.16190831688E+02  0.64820471768E+01 -0.16604536066E+03  0.16695877613E+03  0.10566000000E+00 0. -1.
        -13    1    4    4    0    0  0.58466545083E+00  0.25307190073E+00 -0.67822175474E+01  0.68128935095E+01  0.10566000000E+00 0.  1.
        -14    1    4    4    0    0  0.94858883520E+01  0.46875402808E+01 -0.90848009474E+02  0.91462101097E+02  0.00000000000E+00 0.  1.
<mgrwt>
<rscale>  0 0.73154584E+02</rscale>
<asrwt>0</asrwt>
<pdfrwt beam="1">  1        2 0.50178316E-01 0.73154584E+02</pdfrwt>
<pdfrwt beam="2">  1       -1 0.63107403E-03 0.73154584E+02</pdfrwt>
<totfact> 0.33174482E+05</totfact>
</mgrwt>
</event>
<event>
 8    1  0.2676873E-020  0.8090654E+02  0.7818608E-02  0.1326498E+00
          2   -1    0    0  501    0  0.00000000000E+00  0.00000000000E+00  0.69105715142E+03  0.69105715143E+03  0.25500000000E-02 0. -1.
         -1   -1    0    0    0  501 -0.00000000000E+00 -0.00000000000E+00 -0.23680605336E+01  0.23680658969E+01  0.50400000000E-02 0.  1.
         24    2    1    2    0    0  0.35527136788E-14  0.00000000000E+00  0.68868909089E+03  0.69342521732E+03  0.80906539362E+02 0.  0.
         66    2    3    3    0    0 -0.25959536365E+02 -0.42358867941E+01  0.60769308896E+03  0.60826534556E+03  0.19999957066E+01 0.  0.
        -13    1    3    3    0    0  0.25959536365E+02  0.42358867941E+01  0.80996001933E+02  0.85159871761E+02  0.10566000000E+00 0.  1.
         13    1    4    4    0    0 -0.27630261781E+01 -0.75798616365E+00  0.60641912435E+02  0.60709649682E+02  0.10566000000E+00 0. -1.
        -13    1    4    4    0    0 -0.15892222140E+02 -0.17076862417E+01  0.37318281924E+03  0.37352497461E+03  0.10566000000E+00 0.  1.
         14    1    4    4    0    0 -0.73042880469E+01 -0.17702143888E+01  0.17386835728E+03  0.17403072127E+03  0.00000000000E+00 0. -1.
<mgrwt>
<rscale>  0 0.80906539E+02</rscale>
<asrwt>0</asrwt>
<pdfrwt beam="1">  1        2 0.10631643E+00 0.80906539E+02</pdfrwt>
<pdfrwt beam="2">  1       -1 0.36431761E-03 0.80906539E+02</pdfrwt>
<totfact> 0.32389038E+05</totfact>
</mgrwt>
</event>
<event>
 8    1  0.2676873E-020  0.7735018E+02  0.7818608E-02  0.1336744E+00
         -1   -1    0    0    0  501 -0.00000000000E+00  0.00000000000E+00  0.69352800822E+01  0.69352819136E+01  0.50400000000E-02 0.  1.
          2   -1    0    0  501    0  0.00000000000E+00 -0.00000000000E+00 -0.21567439758E+03  0.21567439760E+03  0.25500000000E-02 0. -1.
         24    2    1    2    0    0  0.00000000000E+00  0.00000000000E+00 -0.20873911750E+03  0.22260967951E+03  0.77350179297E+02 0.  0.
         66    2    3    3    0    0 -0.35493777346E+02 -0.14183428631E+02 -0.12091642518E+03  0.12682964857E+03  0.19999995428E+01 0.  0.
        -13    1    3    3    0    0  0.35493777346E+02  0.14183428631E+02 -0.87822692316E+02  0.95780030945E+02  0.10566000000E+00 0.  1.
         13    1    4    4    0    0 -0.15694624648E+02 -0.65687897976E+01 -0.56193709576E+02  0.58712983251E+02  0.10566000000E+00 0. -1.
        -13    1    4    4    0    0 -0.65709527798E+00 -0.17320302716E+00 -0.24498589310E+01  0.25445522809E+01  0.10566000000E+00 0. -1.
         14    1    4    4    0    0 -0.19142057420E+02 -0.74414358066E+01 -0.62272856677E+02  0.65572113034E+02  0.00000000000E+00 0. -1.
<mgrwt>
<rscale>  0 0.77350179E+02</rscale>
<asrwt>0</asrwt>
<pdfrwt beam="1">  1        2 0.33180671E-01 0.77350179E+02</pdfrwt>
<pdfrwt beam="2">  1       -1 0.10669665E-02 0.77350179E+02</pdfrwt>
<totfact> 0.24746704E+05</totfact>
</mgrwt>
</event>
<event>
 8    1  0.2676873E-020  0.7855972E+02  0.7818608E-02  0.1333189E+00
         -1   -1    0    0    0  501 -0.00000000000E+00  0.00000000000E+00  0.77920100468E+01  0.77920116768E+01  0.50400000000E-02 0.  1.
          2   -1    0    0  501    0  0.00000000000E+00 -0.00000000000E+00 -0.19801147812E+03  0.19801147814E+03  0.25500000000E-02 0. -1.
         24    2    1    2    0    0  0.00000000000E+00  0.00000000000E+00 -0.19021946807E+03  0.20580348981E+03  0.78559724956E+02 0.  0.
         66    2    3    3    0    0 -0.81035767874E+01  0.79983442506E+01 -0.19358511367E+03  0.19392998141E+03  0.19999968667E+01 0.  0.
        -13    1    3    3    0    0  0.81035767874E+01 -0.79983442506E+01  0.33656455965E+01  0.11873508404E+02  0.10566000000E+00 0.  1.
         13    1    4    4    0    0 -0.16073832749E+01  0.88651317349E+00 -0.30491368732E+02  0.30546756256E+02  0.10566000000E+00 0. -1.
        -13    1    4    4    0    0 -0.33103544812E+00  0.79705368714E+00 -0.18476995999E+02  0.18497443721E+02  0.10566000000E+00 0.  1.
         14    1    4    4    0    0 -0.61651580643E+01  0.63147773899E+01 -0.14461674894E+03  0.14488578143E+03  0.00000000000E+00 0. -1.
<mgrwt>
<rscale>  0 0.78559725E+02</rscale>
<asrwt>0</asrwt>
<pdfrwt beam="1">  1        2 0.30463301E-01 0.78559725E+02</pdfrwt>
<pdfrwt beam="2">  1       -1 0.11987711E-02 0.78559725E+02</pdfrwt>
<totfact> 0.23060822E+05</totfact>
</mgrwt>
</event>
<event>
 8    1  0.2676873E-020  0.7962980E+02  0.7818608E-02  0.1330105E+00
         -1   -1    0    0    0  501 -0.00000000000E+00  0.00000000000E+00  0.33173122085E+01  0.33173160371E+01  0.50400000000E-02 0.  1.
          2   -1    0    0  501    0  0.00000000000E+00 -0.00000000000E+00 -0.47786434195E+03  0.47786434195E+03  0.25500000000E-02 0. -1.
         24    2    1    2    0    0  0.00000000000E+00  0.71054273576E-14 -0.47454702974E+03  0.48118165799E+03  0.79629796893E+02 0.  0.
         66    2    3    3    0    0  0.18392561462E+02  0.34771426531E+02 -0.27362009238E+03  0.27644039752E+03  0.20000013008E+01 0.  0.
        -13    1    3    3    0    0 -0.18392561462E+02 -0.34771426531E+02 -0.20092693735E+03  0.20474126047E+03  0.10566000000E+00 0.  1.
         13    1    4    4    0    0  0.27152154254E+01  0.43729797236E+01 -0.36686687369E+02  0.37046181188E+02  0.10566000000E+00 0. -1.
        -13    1    4    4    0    0  0.35958206850E+01  0.83616963444E+01 -0.64343908926E+02  0.64984595652E+02  0.10566000000E+00 0.  1.
         14    1    4    4    0    0  0.12081525352E+02  0.22036750463E+02 -0.17258949609E+03  0.17440962068E+03  0.00000000000E+00 0. -1.
<mgrwt>
<rscale>  0 0.79629797E+02</rscale>
<asrwt>0</asrwt>
<pdfrwt beam="1">  1        2 0.73517537E-01 0.79629797E+02</pdfrwt>
<pdfrwt beam="2">  1       -1 0.51035640E-03 0.79629797E+02</pdfrwt>
<totfact> 0.30374738E+05</totfact>
</mgrwt>
</event>
<event>
 8    1  0.2676873E-020  0.7874164E+02  0.7818608E-02  0.1332661E+00
         -1   -1    0    0    0  501 -0.00000000000E+00  0.00000000000E+00  0.29626388622E+02  0.29626389050E+02  0.50400000000E-02 0.  1.
          2   -1    0    0  501    0  0.00000000000E+00 -0.00000000000E+00 -0.52320294926E+02  0.52320294988E+02  0.25500000000E-02 0. -1.
         24    2    1    2    0    0  0.00000000000E+00  0.00000000000E+00 -0.22693906304E+02  0.81946684038E+02  0.78741638550E+02 0.  0.
         66    2    3    3    0    0 -0.16319408693E+02 -0.35433632651E+02 -0.16680280507E+02  0.42474665060E+02  0.19999978194E+01 0.  0.
        -13    1    3    3    0    0  0.16319408693E+02  0.35433632651E+02 -0.60136257968E+01  0.39472018978E+02  0.10566000000E+00 0.  1.
         13    1    4    4    0    0 -0.11425841662E+02 -0.26155123817E+02 -0.12131721711E+02  0.31013387356E+02  0.10566000000E+00 0. -1.
        -13    1    4    4    0    0 -0.86476881388E+00 -0.14282173579E+01 -0.45188001365E+00  0.17329135885E+01  0.10566000000E+00 0.  1.
         14    1    4    4    0    0 -0.40287982163E+01 -0.78502914756E+01 -0.40966787826E+01  0.97283641157E+01  0.00000000000E+00 0. -1.
<mgrwt>
<rscale>  0 0.78741639E+02</rscale>
<asrwt>0</asrwt>
<pdfrwt beam="1">  1        2 0.80492762E-02 0.78741639E+02</pdfrwt>
<pdfrwt beam="2">  1       -1 0.45579060E-02 0.78741639E+02</pdfrwt>
<totfact> 0.15760274E+05</totfact>
</mgrwt>
</event>
<event>
 8    1  0.2676873E-020  0.7930126E+02  0.7818608E-02  0.1331046E+00
          2   -1    0    0  501    0  0.00000000000E+00  0.00000000000E+00  0.10171712614E+03  0.10171712617E+03  0.25500000000E-02 0. -1.
         -1   -1    0    0    0  501 -0.00000000000E+00 -0.00000000000E+00 -0.15456319237E+02  0.15456320059E+02  0.50400000000E-02 0.  1.
         24    2    1    2    0    0  0.00000000000E+00  0.00000000000E+00  0.86260806899E+02  0.11717344623E+03  0.79301259093E+02 0.  0.
         66    2    3    3    0    0 -0.85276228018E+01 -0.28953363064E+02  0.81092858709E+02  0.86550963703E+02  0.20000002452E+01 0.  0.
        -13    1    3    3    0    0  0.85276228018E+01  0.28953363064E+02  0.51679481902E+01  0.30622482524E+02  0.10566000000E+00 0.  1.
         13    1    4    4    0    0 -0.44470196315E+01 -0.13514367221E+02  0.39379531572E+02  0.41870906079E+02  0.10566000000E+00 0. -1.
        -13    1    4    4    0    0 -0.40157995273E+01 -0.15036638446E+02  0.40059577408E+02  0.42976831523E+02  0.10566000000E+00 0.  1.
         14    1    4    4    0    0 -0.64803643074E-01 -0.40235739683E+00  0.16537497280E+01  0.17032261006E+01  0.00000000000E+00 0. -1.
<mgrwt>
<rscale>  0 0.79301259E+02</rscale>
<asrwt>0</asrwt>
<pdfrwt beam="1">  1        2 0.15648788E-01 0.79301259E+02</pdfrwt>
<pdfrwt beam="2">  1       -1 0.23778954E-02 0.79301259E+02</pdfrwt>
<totfact> 0.18233908E+05</totfact>
</mgrwt>
</event>
<event>
 8    1  0.2676873E-020  0.7937306E+02  0.7818608E-02  0.1330840E+00
         -1   -1    0    0    0  501 -0.00000000000E+00  0.00000000000E+00  0.10007192539E+02  0.10007193808E+02  0.50400000000E-02 0.  1.
          2   -1    0    0  501    0  0.00000000000E+00 -0.00000000000E+00 -0.15738886569E+03  0.15738886572E+03  0.25500000000E-02 0. -1.
         24    2    1    2    0    0 -0.88817841970E-15  0.00000000000E+00 -0.14738167316E+03  0.16739605952E+03  0.79373063200E+02 0.  0.
         66    2    3    3    0    0 -0.37586322089E+01 -0.93750269582E+01 -0.15462436521E+03  0.15496681181E+03  0.19999997299E+01 0.  0.
        -13    1    3    3    0    0  0.37586322089E+01  0.93750269582E+01  0.72426920537E+01  0.12429247715E+02  0.10566000000E+00 0.  1.
         13    1    4    4    0    0 -0.86447421241E+00 -0.12847112642E+01 -0.20690664793E+02  0.20748796889E+02  0.10566000000E+00 0. -1.
        -13    1    4    4    0    0 -0.43822855774E+00 -0.51310598071E+00 -0.16747882180E+02  0.16761803112E+02  0.10566000000E+00 0.  1.
        -14    1    4    4    0    0 -0.24559294388E+01 -0.75772097133E+01 -0.11718581824E+03  0.11745621181E+03  0.00000000000E+00 0.  1.
<mgrwt>
<rscale>  0 0.79373063E+02</rscale>
<asrwt>0</asrwt>
<pdfrwt beam="1">  1        2 0.24213670E-01 0.79373063E+02</pdfrwt>
<pdfrwt beam="2">  1       -1 0.15395683E-02 0.79373063E+02</pdfrwt>
<totfact> 0.20773548E+05</totfact>
</mgrwt>
</event>
<event>
 8    1  0.2676873E-020  0.8885355E+02  0.7818608E-02  0.1305652E+00
          2   -1    0    0  501    0  0.00000000000E+00  0.00000000000E+00  0.58011632388E+03  0.58011632389E+03  0.25500000000E-02 0. -1.
         -1   -1    0    0    0  501 -0.00000000000E+00 -0.00000000000E+00 -0.34023129352E+01  0.34023166682E+01  0.50400000000E-02 0.  1.
         24    2    1    2    0    0  0.00000000000E+00  0.00000000000E+00  0.57671401095E+03  0.58351864056E+03  0.88853550597E+02 0.  0.
         66    2    3    3    0    0 -0.12547719482E+02  0.19712281354E+02  0.53647098735E+03  0.53698336993E+03  0.20000018123E+01 0.  0.
        -13    1    3    3    0    0  0.12547719482E+02 -0.19712281354E+02  0.40243023594E+02  0.46535270628E+02  0.10566000000E+00 0.  1.
         13    1    4    4    0    0 -0.18221517093E+01  0.36014816159E+01  0.93891497879E+02  0.93978271131E+02  0.10566000000E+00 0. -1.
        -13    1    4    4    0    0 -0.50087766163E+00  0.11882812099E+01  0.36431813099E+02  0.36454781036E+02  0.10566000000E+00 0.  1.
        -14    1    4    4    0    0 -0.10224690111E+02  0.14922518529E+02  0.40614767637E+03  0.40655031776E+03  0.00000000000E+00 0.  1.
<mgrwt>
<rscale>  0 0.88853551E+02</rscale>
<asrwt>0</asrwt>
<pdfrwt beam="1">  1        2 0.89248649E-01 0.88853551E+02</pdfrwt>
<pdfrwt beam="2">  1       -1 0.52343314E-03 0.88853551E+02</pdfrwt>
<totfact> 0.24208194E+05</totfact>
</mgrwt>
</event>
<event>
 8    1  0.2676873E-020  0.7925532E+02  0.7818608E-02  0.1331178E+00
          2   -1    0    0  501    0  0.00000000000E+00  0.00000000000E+00  0.29152896468E+03  0.29152896469E+03  0.25500000000E-02 0. -1.
         -1   -1    0    0    0  501 -0.00000000000E+00 -0.00000000000E+00 -0.53866045422E+01  0.53866069000E+01  0.50400000000E-02 0.  1.
         24    2    1    2    0    0 -0.17763568394E-14  0.00000000000E+00  0.28614236014E+03  0.29691557159E+03  0.79255324036E+02 0.  0.
         66    2    3    3    0    0 -0.93550282626E+01  0.36187237955E+02  0.19219643011E+03  0.19580730448E+03  0.19999994235E+01 0.  0.
        -13    1    3    3    0    0  0.93550282626E+01 -0.36187237955E+02  0.93945930030E+02  0.10110826711E+03  0.10566000000E+00 0.  1.
         13    1    4    4    0    0 -0.62768359985E+01  0.26787647873E+02  0.13930101545E+03  0.14199211533E+03  0.10566000000E+00 0. -1.
        -13    1    4    4    0    0 -0.11412908079E+00  0.32348151472E+00  0.18428426576E+01  0.18774713936E+01  0.10566000000E+00 0. -1.
         14    1    4    4    0    0 -0.29640631833E+01  0.90761085670E+01  0.51052572006E+02  0.51937717756E+02  0.00000000000E+00 0. -1.
<mgrwt>
<rscale>  0 0.79255324E+02</rscale>
<asrwt>0</asrwt>
<pdfrwt beam="1">  1        2 0.44850597E-01 0.79255324E+02</pdfrwt>
<pdfrwt beam="2">  1       -1 0.82870881E-03 0.79255324E+02</pdfrwt>
<totfact> 0.25857622E+05</totfact>
</mgrwt>
</event>
<event>
 8    1  0.2676873E-020  0.8840974E+02  0.7818608E-02  0.1306749E+00
         -1   -1    0    0    0  501 -0.00000000000E+00  0.00000000000E+00  0.94253482820E+02  0.94253482955E+02  0.50400000000E-02 0.  1.
          2   -1    0    0  501    0  0.00000000000E+00 -0.00000000000E+00 -0.20732077489E+02  0.20732077646E+02  0.25500000000E-02 0. -1.
         24    2    1    2    0    0  0.00000000000E+00  0.00000000000E+00  0.73521405330E+02  0.11498556060E+03  0.88409739876E+02 0.  0.
         66    2    3    3    0    0 -0.13784954917E+02  0.36254377369E+02  0.64297510731E+02  0.75117073595E+02  0.19999997000E+01 0.  0.
        -13    1    3    3    0    0  0.13784954917E+02 -0.36254377369E+02  0.92238945997E+01  0.39868487006E+02  0.10566000000E+00 0.  1.
         13    1    4    4    0    0 -0.39922469633E+01  0.90565101392E+01  0.16211123091E+02  0.18993948710E+02  0.10566000000E+00 0. -1.
        -13    1    4    4    0    0 -0.17576767645E+01  0.64101897435E+01  0.11513229531E+02  0.13294569509E+02  0.10566000000E+00 0.  1.
         14    1    4    4    0    0 -0.80350311895E+01  0.20787677487E+02  0.36573158109E+02  0.42828555376E+02  0.00000000000E+00 0. -1.
<mgrwt>
<rscale>  0 0.88409740E+02</rscale>
<asrwt>0</asrwt>
<pdfrwt beam="1">  1        2 0.31895504E-02 0.88409740E+02</pdfrwt>
<pdfrwt beam="2">  1       -1 0.14500536E-01 0.88409740E+02</pdfrwt>
<totfact> 0.93634725E+04</totfact>
</mgrwt>
</event>
<event>
 8    1  0.2676873E-020  0.8023147E+02  0.7818608E-02  0.1328396E+00
         -1   -1    0    0    0  501 -0.00000000000E+00  0.00000000000E+00  0.16656922443E+02  0.16656923206E+02  0.50400000000E-02 0.  1.
          2   -1    0    0  501    0  0.00000000000E+00 -0.00000000000E+00 -0.96612813380E+02  0.96612813414E+02  0.25500000000E-02 0. -1.
         24    2    1    2    0    0  0.00000000000E+00  0.00000000000E+00 -0.79955890937E+02  0.11326973662E+03  0.80231469750E+02 0.  0.
         66    2    3    3    0    0  0.10064544403E+02 -0.48931472681E+01 -0.94352466273E+02  0.95034866462E+02  0.20000018892E+01 0.  0.
        -13    1    3    3    0    0 -0.10064544403E+02  0.48931472681E+01  0.14396575335E+02  0.18234870157E+02  0.10566000000E+00 0.  1.
         13    1    4    4    0    0  0.20121179131E+01 -0.98033548875E+00 -0.19167631849E+02  0.19298159262E+02  0.10566000000E+00 0. -1.
        -13    1    4    4    0    0  0.12022678173E+01 -0.14446620498E+00 -0.69573842292E+01  0.70627670029E+01  0.10566000000E+00 0.  1.
        -14    1    4    4    0    0  0.68501586726E+01 -0.37683455743E+01 -0.68227450194E+02  0.68673940197E+02  0.00000000000E+00 0.  1.
<mgrwt>
<rscale>  0 0.80231470E+02</rscale>
<asrwt>0</asrwt>
<pdfrwt beam="1">  1        2 0.14863509E-01 0.80231470E+02</pdfrwt>
<pdfrwt beam="2">  1       -1 0.25626036E-02 0.80231470E+02</pdfrwt>
<totfact> 0.17421295E+05</totfact>
</mgrwt>
</event>
<event>
 8    1  0.2676873E-020  0.7940686E+02  0.7818608E-02  0.1330743E+00
         -1   -1    0    0    0  501 -0.00000000000E+00  0.00000000000E+00  0.59694798020E+02  0.59694798233E+02  0.50400000000E-02 0.  1.
          2   -1    0    0  501    0  0.00000000000E+00 -0.00000000000E+00 -0.26407031029E+02  0.26407031152E+02  0.25500000000E-02 0. -1.
         24    2    1    2    0    0  0.17763568394E-14  0.00000000000E+00  0.33287766991E+02  0.86101829385E+02  0.79406861116E+02 0.  0.
         66    2    3    3    0    0 -0.14663062735E+02  0.32573058690E+02  0.35383466258E+02  0.50318974823E+02  0.19999953906E+01 0.  0.
        -13    1    3    3    0    0  0.14663062735E+02 -0.32573058690E+02 -0.20956992674E+01  0.35782854563E+02  0.10566000000E+00 0.  1.
         13    1    4    4    0    0 -0.62772051794E+01  0.15299567331E+02  0.15716114938E+02  0.22814195102E+02  0.10566000000E+00 0. -1.
        -13    1    4    4    0    0 -0.83053507802E+01  0.17031317195E+02  0.19222070525E+02  0.26991550091E+02  0.10566000000E+00 0.  1.
        -14    1    4    4    0    0 -0.80506775285E-01  0.24217416398E+00  0.44528079500E+00  0.51322962986E+00  0.00000000000E+00 0.  1.
<mgrwt>
<rscale>  0 0.79406861E+02</rscale>
<asrwt>0</asrwt>
<pdfrwt beam="1">  1        2 0.40626203E-02 0.79406861E+02</pdfrwt>
<pdfrwt beam="2">  1       -1 0.91838149E-02 0.79406861E+02</pdfrwt>
<totfact> 0.13399634E+05</totfact>
</mgrwt>
</event>
<event>
 8    1  0.2676873E-020  0.7893273E+02  0.7818608E-02  0.1332108E+00
          2   -1    0    0  501    0  0.00000000000E+00  0.00000000000E+00  0.40382714214E+03  0.40382714215E+03  0.25500000000E-02 0. -1.
         -1   -1    0    0    0  501 -0.00000000000E+00 -0.00000000000E+00 -0.38570792929E+01  0.38570825857E+01  0.50400000000E-02 0.  1.
         24    2    1    2    0    0 -0.17763568394E-14  0.71054273576E-14  0.39997006285E+03  0.40768422473E+03  0.78932730365E+02 0.  0.
         66    2    3    3    0    0 -0.12650257251E+02  0.37064668540E+02  0.17601402433E+03  0.18032957443E+03  0.19999976874E+01 0.  0.
        -13    1    3    3    0    0  0.12650257251E+02 -0.37064668540E+02  0.22395603851E+03  0.22735465030E+03  0.10566000000E+00 0.  1.
         13    1    4    4    0    0 -0.54474055010E+01  0.14880605042E+02  0.70027126795E+02  0.71797745677E+02  0.10566000000E+00 0. -1.
        -13    1    4    4    0    0 -0.15798284220E+01  0.55366456996E+01  0.23671443336E+02  0.24361828689E+02  0.10566000000E+00 0.  1.
        -14    1    4    4    0    0 -0.56230233283E+01  0.16647417798E+02  0.82315454204E+02  0.84170000068E+02  0.00000000000E+00 0.  1.
<mgrwt>
<rscale>  0 0.78932730E+02</rscale>
<asrwt>0</asrwt>
<pdfrwt beam="1">  1        2 0.62127277E-01 0.78932730E+02</pdfrwt>
<pdfrwt beam="2">  1       -1 0.59339684E-03 0.78932730E+02</pdfrwt>
<totfact> 0.29359091E+05</totfact>
</mgrwt>
</event>
<event>
 8    1  0.2676873E-020  0.7939985E+02  0.7818608E-02  0.1330763E+00
          2   -1    0    0  501    0  0.00000000000E+00  0.00000000000E+00  0.15087826107E+04  0.15087826107E+04  0.25500000000E-02 0. -1.
         -1   -1    0    0    0  501 -0.00000000000E+00 -0.00000000000E+00 -0.10446003660E+01  0.10446125244E+01  0.50400000000E-02 0.  1.
         24    2    1    2    0    0  0.17763568394E-14 -0.35527136788E-14  0.15077380103E+04  0.15098272232E+04  0.79399850064E+02 0.  0.
         66    2    3    3    0    0  0.11722491357E+02 -0.16855439363E+02  0.13999090507E+04  0.14000610247E+04  0.20000010947E+01 0.  0.
        -13    1    3    3    0    0 -0.11722491357E+02  0.16855439363E+02  0.10782895961E+03  0.10976619850E+03  0.10566000000E+00 0.  1.
         13    1    4    4    0    0  0.15092096962E+01 -0.20514894388E+01  0.14359964062E+03  0.14362226245E+03  0.10566000000E+00 0. -1.
        -13    1    4    4    0    0  0.11401301881E+01 -0.17424058653E+01  0.17460067834E+03  0.17461312641E+03  0.10566000000E+00 0.  1.
         14    1    4    4    0    0  0.90731514731E+01 -0.13061544059E+02  0.10817087318E+04  0.10818256359E+04  0.00000000000E+00 0. -1.
<mgrwt>
<rscale>  0 0.79399850E+02</rscale>
<asrwt>0</asrwt>
<pdfrwt beam="1">  1        2 0.23212017E+00 0.79399850E+02</pdfrwt>
<pdfrwt beam="2">  1       -1 0.16070884E-03 0.79399850E+02</pdfrwt>
<totfact> 0.33833391E+05</totfact>
</mgrwt>
</event>
<event>
 8    1  0.2676873E-020  0.8213697E+02  0.7818608E-02  0.1323094E+00
          2   -1    0    0  501    0  0.00000000000E+00  0.00000000000E+00  0.10274197800E+04  0.10274197801E+04  0.25500000000E-02 0. -1.
         -1   -1    0    0    0  501 -0.00000000000E+00 -0.00000000000E+00 -0.16416041221E+01  0.16416118589E+01  0.50400000000E-02 0.  1.
         24    2    1    2    0    0  0.00000000000E+00  0.00000000000E+00  0.10257781759E+04  0.10290613919E+04  0.82136971664E+02 0.  0.
         66    2    3    3    0    0  0.16210148414E+02 -0.10218459446E+02  0.96793564845E+03  0.96812737043E+03  0.20000020280E+01 0.  0.
        -13    1    3    3    0    0 -0.16210148414E+02  0.10218459446E+02  0.57842527475E+02  0.60934021481E+02  0.10566000000E+00 0.  1.
         13    1    4    4    0    0  0.14097828208E+02 -0.81460795659E+01  0.82411963798E+03  0.82428047183E+03  0.10566000000E+00 0. -1.
        -13    1    4    4    0    0  0.69500055267E+00 -0.65876437923E+00  0.40091662549E+02  0.40103236356E+02  0.10566000000E+00 0.  1.
         14    1    4    4    0    0  0.14173196535E+01 -0.14136155007E+01  0.10372434793E+03  0.10374366225E+03  0.00000000000E+00 0. -1.
<mgrwt>
<rscale>  0 0.82136972E+02</rscale>
<asrwt>0</asrwt>
<pdfrwt beam="1">  1        2 0.15806441E+00 0.82136972E+02</pdfrwt>
<pdfrwt beam="2">  1       -1 0.25255535E-03 0.82136972E+02</pdfrwt>
<totfact> 0.32926259E+05</totfact>
</mgrwt>
</event>
<event>
 8    1  0.2676873E-020  0.7446253E+02  0.7818608E-02  0.1345544E+00
          2   -1    0    0  501    0  0.00000000000E+00  0.00000000000E+00  0.57547037168E+03  0.57547037169E+03  0.25500000000E-02 0. -1.
         -1   -1    0    0    0  501 -0.00000000000E+00 -0.00000000000E+00 -0.24087524672E+01  0.24087577400E+01  0.50400000000E-02 0.  1.
         24    2    1    2    0    0  0.00000000000E+00 -0.88817841970E-15  0.57306161922E+03  0.57787912943E+03  0.74462532934E+02 0.  0.
         66    2    3    3    0    0 -0.95496115749E+01  0.56472954647E+01  0.56233091330E+03  0.56244390216E+03  0.19999994741E+01 0.  0.
        -13    1    3    3    0    0  0.95496115749E+01 -0.56472954647E+01  0.10730705914E+02  0.15435227265E+02  0.10566000000E+00 0.  1.
         13    1    4    4    0    0 -0.21635239798E+01  0.96287261224E+00  0.15087688504E+03  0.15089550544E+03  0.10566000000E+00 0. -1.
        -13    1    4    4    0    0 -0.14291099817E+01  0.11838537078E+01  0.71469511281E+02  0.71493678544E+02  0.10566000000E+00 0.  1.
        -14    1    4    4    0    0 -0.59569776135E+01  0.35005691446E+01  0.33998451699E+03  0.34005471818E+03  0.00000000000E+00 0.  1.
<mgrwt>
<rscale>  0 0.74462533E+02</rscale>
<asrwt>0</asrwt>
<pdfrwt beam="1">  1        2 0.88533951E-01 0.74462533E+02</pdfrwt>
<pdfrwt beam="2">  1       -1 0.37057751E-03 0.74462533E+02</pdfrwt>
<totfact> 0.38283080E+05</totfact>
</mgrwt>
</event>
<event>
 8    1  0.2676873E-020  0.7889012E+02  0.7818608E-02  0.1332231E+00
         -1   -1    0    0    0  501 -0.00000000000E+00  0.00000000000E+00  0.32064368044E+01  0.32064407654E+01  0.50400000000E-02 0.  1.
          2   -1    0    0  501    0  0.00000000000E+00 -0.00000000000E+00 -0.48524638230E+03  0.48524638230E+03  0.25500000000E-02 0. -1.
         24    2    1    2    0    0  0.00000000000E+00  0.00000000000E+00 -0.48203994549E+03  0.48845282307E+03  0.78890121775E+02 0.  0.
         66    2    3    3    0    0 -0.35394862486E+02  0.17293403854E+02 -0.25003894429E+03  0.25313105648E+03  0.19999965280E+01 0.  0.
        -13    1    3    3    0    0  0.35394862486E+02 -0.17293403854E+02 -0.23200100121E+03  0.23532176659E+03  0.10566000000E+00 0.  1.
         13    1    4    4    0    0 -0.87764218616E+01  0.42343469330E+01 -0.60337702852E+02  0.61119594437E+02  0.10566000000E+00 0. -1.
        -13    1    4    4    0    0 -0.63255314199E+01  0.38475526488E+01 -0.45724783572E+02  0.46320438317E+02  0.10566000000E+00 0.  1.
        -14    1    4    4    0    0 -0.20292909205E+02  0.92115042721E+01 -0.14397645786E+03  0.14569102372E+03  0.00000000000E+00 0.  1.
<mgrwt>
<rscale>  0 0.78890122E+02</rscale>
<asrwt>0</asrwt>
<pdfrwt beam="1">  1        2 0.74653232E-01 0.78890122E+02</pdfrwt>
<pdfrwt beam="2">  1       -1 0.49329866E-03 0.78890122E+02</pdfrwt>
<totfact> 0.31277585E+05</totfact>
</mgrwt>
</event>
<event>
 8    1  0.2676873E-020  0.7963117E+02  0.7818608E-02  0.1330101E+00
          2   -1    0    0  501    0  0.00000000000E+00  0.00000000000E+00  0.25019387007E+03  0.25019387008E+03  0.25500000000E-02 0. -1.
         -1   -1    0    0    0  501 -0.00000000000E+00 -0.00000000000E+00 -0.63362080504E+01  0.63362100549E+01  0.50400000000E-02 0.  1.
         24    2    1    2    0    0  0.00000000000E+00 -0.35527136788E-14  0.24385766202E+03  0.25653008013E+03  0.79631166573E+02 0.  0.
         66    2    3    3    0    0 -0.11897821528E+02 -0.24378481703E+02  0.21578359957E+03  0.21749121907E+03  0.20000000048E+01 0.  0.
        -13    1    3    3    0    0  0.11897821528E+02  0.24378481703E+02  0.28074062446E+02  0.39038861069E+02  0.10566000000E+00 0.  1.
         13    1    4    4    0    0 -0.21277881455E+01 -0.46596941454E+01  0.37702701556E+02  0.38049245729E+02  0.10566000000E+00 0. -1.
        -13    1    4    4    0    0 -0.57790747684E+00 -0.57790320561E+00  0.62534136953E+01  0.63074793735E+01  0.10566000000E+00 0.  1.
         14    1    4    4    0    0 -0.91921259060E+01 -0.19140884352E+02  0.17182748432E+03  0.17313449396E+03  0.00000000000E+00 0. -1.
<mgrwt>
<rscale>  0 0.79631167E+02</rscale>
<asrwt>0</asrwt>
<pdfrwt beam="1">  1        2 0.38491362E-01 0.79631167E+02</pdfrwt>
<pdfrwt beam="2">  1       -1 0.97480145E-03 0.79631167E+02</pdfrwt>
<totfact> 0.24166744E+05</totfact>
</mgrwt>
</event>
<event>
 8    1  0.2676873E-020  0.8539732E+02  0.7818608E-02  0.1314397E+00
          2   -1    0    0  501    0  0.00000000000E+00  0.00000000000E+00  0.90891889147E+02  0.90891889182E+02  0.25500000000E-02 0. -1.
         -1   -1    0    0    0  501 -0.00000000000E+00 -0.00000000000E+00 -0.20058726750E+02  0.20058727383E+02  0.50400000000E-02 0.  1.
         24    2    1    2    0    0  0.00000000000E+00  0.17763568394E-14  0.70833162397E+02  0.11095061657E+03  0.85397320924E+02 0.  0.
         66    2    3    3    0    0 -0.27861749892E+02 -0.13105675664E+02  0.73826659286E+02  0.80015070194E+02  0.19999987870E+01 0.  0.
        -13    1    3    3    0    0  0.27861749892E+02  0.13105675664E+02 -0.29934968888E+01  0.30935546372E+02  0.10566000000E+00 0.  1.
         13    1    4    4    0    0 -0.64459522700E+01 -0.26235825557E+01  0.15428507078E+02  0.16925822898E+02  0.10566000000E+00 0. -1.
        -13    1    4    4    0    0 -0.18097970309E+02 -0.91848147806E+01  0.50445111114E+02  0.54374789665E+02  0.10566000000E+00 0.  1.
        -14    1    4    4    0    0 -0.33178273132E+01 -0.12972783281E+01  0.79530410945E+01  0.87144576304E+01  0.00000000000E+00 0.  1.
<mgrwt>
<rscale>  0 0.85397321E+02</rscale>
<asrwt>0</asrwt>
<pdfrwt beam="1">  1        2 0.13983368E-01 0.85397321E+02</pdfrwt>
<pdfrwt beam="2">  1       -1 0.30859580E-02 0.85397321E+02</pdfrwt>
<totfact> 0.14479223E+05</totfact>
</mgrwt>
</event>
<event>
 8    1  0.2676873E-020  0.7786960E+02  0.7818608E-02  0.1335208E+00
         -1   -1    0    0    0  501 -0.00000000000E+00  0.00000000000E+00  0.61993414253E+01  0.61993434740E+01  0.50400000000E-02 0.  1.
          2   -1    0    0  501    0  0.00000000000E+00 -0.00000000000E+00 -0.24452897121E+03  0.24452897123E+03  0.25500000000E-02 0. -1.
         24    2    1    2    0    0  0.00000000000E+00  0.00000000000E+00 -0.23832962979E+03  0.25072831470E+03  0.77869604839E+02 0.  0.
         66    2    3    3    0    0  0.82943521843E+01 -0.30520761984E+02 -0.19221385699E+03  0.19480882923E+03  0.19999843983E+01 0.  0.
        -13    1    3    3    0    0 -0.82943521843E+01  0.30520761984E+02 -0.46115772798E+02  0.55919485469E+02  0.10566000000E+00 0.  1.
         13    1    4    4    0    0  0.27031975627E+01 -0.11651807713E+02 -0.76738660863E+02  0.77665340629E+02  0.10566000000E+00 0. -1.
        -13    1    4    4    0    0  0.23811382020E+01 -0.89342792360E+01 -0.56323458754E+02  0.57077441557E+02  0.10566000000E+00 0.  1.
        -14    1    4    4    0    0  0.32100164196E+01 -0.99346750359E+01 -0.59151737372E+02  0.60066047045E+02  0.00000000000E+00 0.  1.
<mgrwt>
<rscale>  0 0.77869605E+02</rscale>
<asrwt>0</asrwt>
<pdfrwt beam="1">  1        2 0.37619834E-01 0.77869605E+02</pdfrwt>
<pdfrwt beam="2">  1       -1 0.95374518E-03 0.77869605E+02</pdfrwt>
<totfact> 0.25419644E+05</totfact>
</mgrwt>
</event>
<event>
 8    1  0.2676873E-020  0.7921554E+02  0.7818608E-02  0.1331292E+00
         -1   -1    0    0    0  501 -0.00000000000E+00  0.00000000000E+00  0.15054354109E+01  0.15054438475E+01  0.50400000000E-02 0.  1.
          2   -1    0    0  501    0  0.00000000000E+00 -0.00000000000E+00 -0.10420713066E+04  0.10420713066E+04  0.25500000000E-02 0. -1.
         24    2    1    2    0    0  0.00000000000E+00  0.00000000000E+00 -0.10405658711E+04  0.10435767504E+04  0.79215540126E+02 0.  0.
         66    2    3    3    0    0  0.18583132699E+02 -0.15030128274E+02 -0.93627709293E+03  0.93658423664E+03  0.19999991705E+01 0.  0.
        -13    1    3    3    0    0 -0.18583132699E+02  0.15030128274E+02 -0.10428877821E+03  0.10699251376E+03  0.10566000000E+00 0.  1.
         13    1    4    4    0    0  0.52387621733E+01 -0.48333026104E+01 -0.28789159496E+03  0.28797983793E+03  0.10566000000E+00 0. -1.
        -13    1    4    4    0    0  0.28430902547E+01 -0.25275275372E+01 -0.16645357848E+03  0.16649707658E+03  0.10566000000E+00 0.  1.
        -14    1    4    4    0    0  0.10501280271E+02 -0.76692981266E+01 -0.48193191950E+03  0.48210732213E+03  0.00000000000E+00 0.  1.
<mgrwt>
<rscale>  0 0.79215540E+02</rscale>
<asrwt>0</asrwt>
<pdfrwt beam="1">  1        2 0.16031809E+00 0.79215540E+02</pdfrwt>
<pdfrwt beam="2">  1       -1 0.23160693E-03 0.79215540E+02</pdfrwt>
<totfact> 0.36183793E+05</totfact>
</mgrwt>
</event>
<event>
 8    1  0.2676873E-020  0.8085972E+02  0.7818608E-02  0.1326629E+00
          2   -1    0    0  501    0  0.00000000000E+00  0.00000000000E+00  0.34551972835E+03  0.34551972836E+03  0.25500000000E-02 0. -1.
         -1   -1    0    0    0  501 -0.00000000000E+00 -0.00000000000E+00 -0.47307657912E+01  0.47307684759E+01  0.50400000000E-02 0.  1.
         24    2    1    2    0    0  0.00000000000E+00 -0.17763568394E-14  0.34078896256E+03  0.35025049683E+03  0.80859715133E+02 0.  0.
         66    2    3    3    0    0 -0.45292214073E+00 -0.14545872949E+02  0.33376982832E+03  0.33409292994E+03  0.19999963657E+01 0.  0.
        -13    1    3    3    0    0  0.45292214073E+00  0.14545872949E+02  0.70191342421E+01  0.16157566892E+02  0.10566000000E+00 0.  1.
         13    1    4    4    0    0 -0.64417027637E+00 -0.56413002852E+01  0.12046992062E+03  0.12060369880E+03  0.10566000000E+00 0. -1.
        -13    1    4    4    0    0 -0.26326711762E+00 -0.40849110445E+01  0.86296614425E+02  0.86393707138E+02  0.10566000000E+00 0.  1.
        -14    1    4    4    0    0  0.45451525326E+00 -0.48196616193E+01  0.12700329327E+03  0.12709552401E+03  0.00000000000E+00 0.  1.
<mgrwt>
<rscale>  0 0.80859715E+02</rscale>
<asrwt>0</asrwt>
<pdfrwt beam="1">  1        2 0.53156883E-01 0.80859715E+02</pdfrwt>
<pdfrwt beam="2">  1       -1 0.72781031E-03 0.80859715E+02</pdfrwt>
<totfact> 0.26085413E+05</totfact>
</mgrwt>
</event>
<event>
 8    1  0.2676873E-020  0.7983381E+02  0.7818608E-02  0.1329524E+00
         -1   -1    0    0    0  501 -0.00000000000E+00  0.00000000000E+00  0.22369291247E+01  0.22369348025E+01  0.50400000000E-02 0.  1.
          2   -1    0    0  501    0  0.00000000000E+00 -0.00000000000E+00 -0.71229664553E+03  0.71229664553E+03  0.25500000000E-02 0. -1.
         24    2    1    2    0    0  0.00000000000E+00 -0.88817841970E-15 -0.71005971640E+03  0.71453358034E+03  0.79833805921E+02 0.  0.
         66    2    3    3    0    0 -0.10460910460E+02  0.53013156027E+01 -0.69651651932E+03  0.69661811367E+03  0.20000008564E+01 0.  0.
        -13    1    3    3    0    0  0.10460910460E+02 -0.53013156027E+01 -0.13543197081E+02  0.17915466669E+02  0.10566000000E+00 0.  1.
         13    1    4    4    0    0 -0.11935554244E+00  0.17922804626E-01 -0.19726128830E+02  0.19726781025E+02  0.10566000000E+00 0. -1.
        -13    1    4    4    0    0 -0.36646278157E+01  0.16929131893E+01 -0.20114652602E+03  0.20118705611E+03  0.10566000000E+00 0.  1.
        -14    1    4    4    0    0 -0.66769271019E+01  0.35904796088E+01 -0.47564386447E+03  0.47570427653E+03  0.00000000000E+00 0.  1.
<mgrwt>
<rscale>  0 0.79833806E+02</rscale>
<asrwt>0</asrwt>
<pdfrwt beam="1">  1        2 0.10958392E+00 0.79833806E+02</pdfrwt>
<pdfrwt beam="2">  1       -1 0.34414395E-03 0.79833806E+02</pdfrwt>
<totfact> 0.33765359E+05</totfact>
</mgrwt>
</event>
<event>
 8    1  0.2676873E-020  0.7750970E+02  0.7818608E-02  0.1336271E+00
          2   -1    0    0  501    0  0.00000000000E+00  0.00000000000E+00  0.89270281002E+03  0.89270281003E+03  0.25500000000E-02 0. -1.
         -1   -1    0    0    0  501 -0.00000000000E+00 -0.00000000000E+00 -0.16824579726E+01  0.16824655215E+01  0.50400000000E-02 0.  1.
         24    2    1    2    0    0  0.00000000000E+00  0.00000000000E+00  0.89102035205E+03  0.89438527555E+03  0.77509698421E+02 0.  0.
         66    2    3    3    0    0  0.16925486588E+01 -0.16477901770E+02  0.84976159561E+03  0.84992538222E+03  0.20000003523E+01 0.  0.
        -13    1    3    3    0    0 -0.16925486588E+01  0.16477901770E+02  0.41258756446E+02  0.44459893333E+02  0.10566000000E+00 0.  1.
         13    1    4    4    0    0 -0.51308937893E-01 -0.75076737932E+01  0.38163553813E+03  0.38170939591E+03  0.10566000000E+00 0.  1.
        -13    1    4    4    0    0  0.11844018495E+01 -0.61173848622E+01  0.33815573771E+03  0.33821315663E+03  0.10566000000E+00 0. -1.
        -14    1    4    4    0    0  0.55945574725E+00 -0.28528431141E+01  0.12997031976E+03  0.13000282967E+03  0.00000000000E+00 0.  1.
<mgrwt>
<rscale>  0 0.77509698E+02</rscale>
<asrwt>0</asrwt>
<pdfrwt beam="1">  1        2 0.13733915E+00 0.77509698E+02</pdfrwt>
<pdfrwt beam="2">  1       -1 0.25883978E-03 0.77509698E+02</pdfrwt>
<totfact> 0.37897663E+05</totfact>
</mgrwt>
</event>
<event>
 8    1  0.2676873E-020  0.8129580E+02  0.7818608E-02  0.1325414E+00
         -1   -1    0    0    0  501 -0.00000000000E+00  0.00000000000E+00  0.99520070759E+01  0.99520083522E+01  0.50400000000E-02 0.  1.
          2   -1    0    0  501    0  0.00000000000E+00 -0.00000000000E+00 -0.16602194802E+03  0.16602194804E+03  0.25500000000E-02 0. -1.
         24    2    1    2    0    0  0.00000000000E+00  0.71054273576E-14 -0.15606994094E+03  0.17597395639E+03  0.81295798550E+02 0.  0.
         66    2    3    3    0    0 -0.60707806578E+01  0.39349090203E+02 -0.95539302623E+02  0.10352276857E+03  0.19999971369E+01 0.  0.
        -13    1    3    3    0    0  0.60707806578E+01 -0.39349090203E+02 -0.60530638320E+02  0.72451187824E+02  0.10566000000E+00 0.  1.
         13    1    4    4    0    0 -0.12838615330E+01  0.89102075925E+01 -0.22136038890E+02  0.23896767178E+02  0.10566000000E+00 0. -1.
        -13    1    4    4    0    0 -0.25548633493E+01  0.14004564160E+02 -0.35865846062E+02  0.38587889574E+02  0.10566000000E+00 0.  1.
         14    1    4    4    0    0 -0.22320557756E+01  0.16434318450E+02 -0.37537417671E+02  0.41038111814E+02  0.00000000000E+00 0. -1.
<mgrwt>
<rscale>  0 0.81295799E+02</rscale>
<asrwt>0</asrwt>
<pdfrwt beam="1">  1        2 0.25541836E-01 0.81295799E+02</pdfrwt>
<pdfrwt beam="2">  1       -1 0.15310782E-02 0.81295799E+02</pdfrwt>
<totfact> 0.19842423E+05</totfact>
</mgrwt>
</event>
<event>
 8    1  0.2676873E-020  0.7987532E+02  0.7818608E-02  0.1329406E+00
          2   -1    0    0  501    0  0.00000000000E+00  0.00000000000E+00  0.21321634185E+03  0.21321634186E+03  0.25500000000E-02 0. -1.
         -1   -1    0    0    0  501 -0.00000000000E+00 -0.00000000000E+00 -0.74807430398E+01  0.74807447376E+01  0.50400000000E-02 0.  1.
         24    2    1    2    0    0  0.00000000000E+00  0.00000000000E+00  0.20573559881E+03  0.22069708660E+03  0.79875324207E+02 0.  0.
         66    2    3    3    0    0  0.19867725381E+02  0.34339674317E+02  0.11499868184E+03  0.12166608636E+03  0.20000002279E+01 0.  0.
        -13    1    3    3    0    0 -0.19867725381E+02 -0.34339674317E+02  0.90736916972E+02  0.99031000245E+02  0.10566000000E+00 0.  1.
         13    1    4    4    0    0  0.75978998095E+01  0.12934664364E+02  0.42049524034E+02  0.44645349805E+02  0.10566000000E+00 0. -1.
        -13    1    4    4    0    0  0.50324944465E+01  0.87604300333E+01  0.27800498014E+02  0.29579553556E+02  0.10566000000E+00 0.  1.
        -14    1    4    4    0    0  0.72373311249E+01  0.12644579920E+02  0.45148659790E+02  0.47441182995E+02  0.00000000000E+00 0.  1.
<mgrwt>
<rscale>  0 0.79875324E+02</rscale>
<asrwt>0</asrwt>
<pdfrwt beam="1">  1        2 0.32802516E-01 0.79875324E+02</pdfrwt>
<pdfrwt beam="2">  1       -1 0.11508836E-02 0.79875324E+02</pdfrwt>
<totfact> 0.22650041E+05</totfact>
</mgrwt>
</event>
<event>
 8    1  0.2676873E-020  0.7824777E+02  0.7818608E-02  0.1334099E+00
         -1   -1    0    0    0  501 -0.00000000000E+00  0.00000000000E+00  0.19160932887E+01  0.19160999171E+01  0.50400000000E-02 0.  1.
          2   -1    0    0  501    0  0.00000000000E+00 -0.00000000000E+00 -0.79885237263E+03  0.79885237263E+03  0.25500000000E-02 0. -1.
         24    2    1    2    0    0  0.35527136788E-14  0.00000000000E+00 -0.79693627934E+03  0.80076847255E+03  0.78247768668E+02 0.  0.
         66    2    3    3    0    0 -0.30835773505E+02 -0.46210084785E+01 -0.64013911177E+03  0.64090114765E+03  0.20000002238E+01 0.  0.
        -13    1    3    3    0    0  0.30835773505E+02  0.46210084785E+01 -0.15679716757E+03  0.15986732490E+03  0.10566000000E+00 0.  1.
         13    1    4    4    0    0 -0.17307447339E+02 -0.31478291018E+01 -0.35429173681E+03  0.35472820934E+03  0.10566000000E+00 0. -1.
        -13    1    4    4    0    0 -0.10136728036E+02 -0.67147069289E+00 -0.21495934173E+03  0.21519928878E+03  0.10566000000E+00 0.  1.
        -14    1    4    4    0    0 -0.33915981301E+01 -0.80170868386E+00 -0.70888033224E+02  0.70973649540E+02  0.00000000000E+00 0.  1.
<mgrwt>
<rscale>  0 0.78247769E+02</rscale>
<asrwt>0</asrwt>
<pdfrwt beam="1">  1        2 0.12290010E+00 0.78247769E+02</pdfrwt>
<pdfrwt beam="2">  1       -1 0.29478473E-03 0.78247769E+02</pdfrwt>
<totfact> 0.36389249E+05</totfact>
</mgrwt>
</event>
<event>
 8    1  0.2676873E-020  0.7973840E+02  0.7818608E-02  0.1329795E+00
          2   -1    0    0  501    0  0.00000000000E+00  0.00000000000E+00  0.91935243394E+02  0.91935243430E+02  0.25500000000E-02 0. -1.
         -1   -1    0    0    0  501 -0.00000000000E+00 -0.00000000000E+00 -0.17289919264E+02  0.17289919999E+02  0.50400000000E-02 0.  1.
         24    2    1    2    0    0  0.00000000000E+00  0.00000000000E+00  0.74645324130E+02  0.10922516343E+03  0.79738396720E+02 0.  0.
         66    2    3    3    0    0  0.20899941029E+02  0.16877539613E+02  0.77653622091E+02  0.82193332209E+02  0.19999893684E+01 0.  0.
        -13    1    3    3    0    0 -0.20899941029E+02 -0.16877539613E+02 -0.30082979608E+01  0.27031831219E+02  0.10566000000E+00 0.  1.
         13    1    4    4    0    0  0.43172359726E+01  0.42006494754E+01  0.16643838977E+02  0.17700636215E+02  0.10566000000E+00 0. -1.
        -13    1    4    4    0    0  0.15848883719E+02  0.12364144228E+02  0.59003815261E+02  0.62333943859E+02  0.10566000000E+00 0.  1.
        -14    1    4    4    0    0  0.73382133783E+00  0.31274590913E+00  0.20059678519E+01  0.21587521354E+01  0.00000000000E+00 0.  1.
<mgrwt>
<rscale>  0 0.79738397E+02</rscale>
<asrwt>0</asrwt>
<pdfrwt beam="1">  1        2 0.14143883E-01 0.79738397E+02</pdfrwt>
<pdfrwt beam="2">  1       -1 0.26599877E-02 0.79738397E+02</pdfrwt>
<totfact> 0.17472881E+05</totfact>
</mgrwt>
</event>
<event>
 8    1  0.2676873E-020  0.7325172E+02  0.7818608E-02  0.1349372E+00
          2   -1    0    0  501    0  0.00000000000E+00  0.00000000000E+00  0.51018046472E+02  0.51018046536E+02  0.25500000000E-02 0. -1.
         -1   -1    0    0    0  501 -0.00000000000E+00 -0.00000000000E+00 -0.26293710969E+02  0.26293711452E+02  0.50400000000E-02 0.  1.
         24    2    1    2    0    0 -0.71054273576E-14  0.00000000000E+00  0.24724335503E+02  0.77311757988E+02  0.73251724601E+02 0.  0.
         66    2    3    3    0    0  0.30262383985E+02  0.45894343043E+01  0.33547684792E+02  0.45456814126E+02  0.20000009869E+01 0.  0.
        -13    1    3    3    0    0 -0.30262383985E+02 -0.45894343043E+01 -0.88233492888E+01  0.31854943861E+02  0.10566000000E+00 0.  1.
         13    1    4    4    0    0  0.32708496250E+01  0.44528901916E+00  0.28381630257E+01  0.43546610633E+01  0.10566000000E+00 0. -1.
        -13    1    4    4    0    0  0.11755943302E+02  0.15910194609E+01  0.13804971747E+02  0.18202251366E+02  0.10566000000E+00 0.  1.
         14    1    4    4    0    0  0.15235591058E+02  0.25531258242E+01  0.16904550020E+02  0.22899901697E+02  0.00000000000E+00 0. -1.
<mgrwt>
<rscale>  0 0.73251725E+02</rscale>
<asrwt>0</asrwt>
<pdfrwt beam="1">  1        2 0.78489302E-02 0.73251725E+02</pdfrwt>
<pdfrwt beam="2">  1       -1 0.40451864E-02 0.73251725E+02</pdfrwt>
<totfact> 0.19071183E+05</totfact>
</mgrwt>
</event>
<event>
 8    1  0.2832627E-020  0.7961054E+02  0.7818608E-02  0.1330160E+00
          2   -1    0    0  501    0  0.00000000000E+00  0.00000000000E+00  0.90303334046E+02  0.90303334082E+02  0.25500000000E-02 0. -1.
         -1   -1    0    0    0  501 -0.00000000000E+00 -0.00000000000E+00 -0.17545969347E+02  0.17545970071E+02  0.50400000000E-02 0.  1.
         24    2    1    2    0    0  0.00000000000E+00  0.17763568394E-14  0.72757364699E+02  0.10784930415E+03  0.79610541314E+02 0.  0.
         66    2    3    3    0    0 -0.57781101916E+01 -0.11707427555E+02  0.87307084656E+02  0.88300495182E+02  0.20000002466E+01 0.  0.
        -13    1    3    3    0    0  0.57781101916E+01  0.11707427555E+02 -0.14549719957E+02  0.19548808971E+02  0.10566000000E+00 0.  1.
         13    1    4    4    0    0 -0.38615734103E+01 -0.76621140740E+01  0.54408313440E+02  0.55080808606E+02  0.10566000000E+00 0. -1.
        -13    1    4    4    0    0 -0.57509749833E+00 -0.22849752061E+01  0.14935404912E+02  0.15120493800E+02  0.10566000000E+00 0.  1.
        -14    1    4    4    0    0 -0.13414392830E+01 -0.17603382747E+01  0.17963366304E+02  0.18099192776E+02  0.00000000000E+00 0.  1.
<mgrwt>
<rscale>  0 0.79610541E+02</rscale>
<asrwt>0</asrwt>
<pdfrwt beam="1">  1        2 0.13892821E-01 0.79610541E+02</pdfrwt>
<pdfrwt beam="2">  1       -1 0.26993800E-02 0.79610541E+02</pdfrwt>
<totfact> 0.17463677E+05</totfact>
</mgrwt>
</event>
<event>
 8    1  0.2676873E-020  0.7926541E+02  0.7818608E-02  0.1331149E+00
          2   -1    0    0  501    0  0.00000000000E+00  0.00000000000E+00  0.12824125736E+04  0.12824125736E+04  0.25500000000E-02 0. -1.
         -1   -1    0    0    0  501 -0.00000000000E+00 -0.00000000000E+00 -0.12248356836E+01  0.12248460529E+01  0.50400000000E-02 0.  1.
         24    2    1    2    0    0  0.17763568394E-14  0.00000000000E+00  0.12811877379E+04  0.12836374197E+04  0.79265410819E+02 0.  0.
         66    2    3    3    0    0 -0.13853253725E+02 -0.21650810491E+02  0.11290005213E+04  0.11292948452E+04  0.19999988546E+01 0.  0.
        -13    1    3    3    0    0  0.13853253725E+02  0.21650810491E+02  0.15218721662E+03  0.15434257449E+03  0.10566000000E+00 0.  1.
         13    1    4    4    0    0 -0.45790379651E+01 -0.58316870328E+01  0.33387191826E+03  0.33395425605E+03  0.10566000000E+00 0. -1.
        -13    1    4    4    0    0 -0.47409927224E+00 -0.12286787328E+01  0.60136095438E+02  0.60150607313E+02  0.10566000000E+00 0.  1.
         14    1    4    4    0    0 -0.88001164881E+01 -0.14590444725E+02  0.73499250761E+03  0.73518998183E+03  0.00000000000E+00 0. -1.
<mgrwt>
<rscale>  0 0.79265411E+02</rscale>
<asrwt>0</asrwt>
<pdfrwt beam="1">  1        2 0.19729422E+00 0.79265411E+02</pdfrwt>
<pdfrwt beam="2">  1       -1 0.18843708E-03 0.79265411E+02</pdfrwt>
<totfact> 0.35545896E+05</totfact>
</mgrwt>
</event>
<event>
 8    1  0.2676873E-020  0.7863559E+02  0.7818608E-02  0.1332969E+00
         -1   -1    0    0    0  501 -0.00000000000E+00  0.00000000000E+00  0.25721707259E+01  0.25721756637E+01  0.50400000000E-02 0.  1.
          2   -1    0    0  501    0  0.00000000000E+00 -0.00000000000E+00 -0.60100508549E+03  0.60100508549E+03  0.25500000000E-02 0. -1.
         24    2    1    2    0    0 -0.71054273576E-14  0.00000000000E+00 -0.59843291476E+03  0.60357726116E+03  0.78635594455E+02 0.  0.
         66    2    3    3    0    0 -0.24646654023E+02  0.17601684673E+02 -0.49154666909E+03  0.49248289795E+03  0.20000061235E+01 0.  0.
        -13    1    3    3    0    0  0.24646654023E+02 -0.17601684673E+02 -0.10688624567E+03  0.11109436320E+03  0.10566000000E+00 0.  1.
         13    1    4    4    0    0 -0.20522978414E+01  0.17881620096E+01 -0.44257563464E+02  0.44341318627E+02  0.10566000000E+00 0. -1.
        -13    1    4    4    0    0 -0.48806354469E+00  0.65393445559E+00 -0.13902698784E+02  0.13927025304E+02  0.10566000000E+00 0.  1.
         14    1    4    4    0    0 -0.22106292637E+02  0.15159588208E+02 -0.43338640684E+03  0.43421455402E+03  0.00000000000E+00 0. -1.
<mgrwt>
<rscale>  0 0.78635594E+02</rscale>
<asrwt>0</asrwt>
<pdfrwt beam="1">  1        2 0.92462209E-01 0.78635594E+02</pdfrwt>
<pdfrwt beam="2">  1       -1 0.39571943E-03 0.78635594E+02</pdfrwt>
<totfact> 0.33650309E+05</totfact>
</mgrwt>
</event>
<event>
 8    1  0.2676873E-020  0.8308119E+02  0.7818608E-02  0.1320528E+00
         -1   -1    0    0    0  501 -0.00000000000E+00  0.00000000000E+00  0.12135498933E+02  0.12135499979E+02  0.50400000000E-02 0.  1.
          2   -1    0    0  501    0  0.00000000000E+00 -0.00000000000E+00 -0.14219612791E+03  0.14219612793E+03  0.25500000000E-02 0. -1.
         24    2    1    2    0    0  0.55511151231E-16  0.00000000000E+00 -0.13006062898E+03  0.15433162791E+03  0.83081190194E+02 0.  0.
         66    2    3    3    0    0 -0.33233415022E+00 -0.26118115843E+02 -0.12501255521E+03  0.12772785686E+03  0.20000092234E+01 0.  0.
        -13    1    3    3    0    0  0.33233415022E+00  0.26118115843E+02 -0.50480737628E+01  0.26603771047E+02  0.10566000000E+00 0.  1.
         13    1    4    4    0    0  0.17580793650E+00 -0.11206516530E+02 -0.56823287240E+02  0.57918166908E+02  0.10566000000E+00 0. -1.
        -13    1    4    4    0    0  0.27715014238E-01 -0.55231555684E+01 -0.23283301215E+02  0.23929673943E+02  0.10566000000E+00 0.  1.
         14    1    4    4    0    0 -0.53585710095E+00 -0.93884437450E+01 -0.44905966760E+02  0.45880016014E+02  0.00000000000E+00 0. -1.
<mgrwt>
<rscale>  0 0.83081190E+02</rscale>
<asrwt>0</asrwt>
<pdfrwt beam="1">  1        2 0.21876326E-01 0.83081190E+02</pdfrwt>
<pdfrwt beam="2">  1       -1 0.18670000E-02 0.83081190E+02</pdfrwt>
<totfact> 0.17806327E+05</totfact>
</mgrwt>
</event>
<event>
 8    1  0.2676873E-020  0.7888344E+02  0.7818608E-02  0.1332250E+00
         -1   -1    0    0    0  501 -0.00000000000E+00  0.00000000000E+00  0.17632481322E+01  0.17632553353E+01  0.50400000000E-02 0.  1.
          2   -1    0    0  501    0  0.00000000000E+00 -0.00000000000E+00 -0.88226165207E+03  0.88226165208E+03  0.25500000000E-02 0. -1.
         24    2    1    2    0    0  0.17763568394E-14 -0.17763568394E-14 -0.88049840394E+03  0.88402490741E+03  0.78883443019E+02 0.  0.
         66    2    3    3    0    0 -0.85524205270E+01  0.11430573302E+02 -0.85226870137E+03  0.85239060365E+03  0.19999908129E+01 0.  0.
        -13    1    3    3    0    0  0.85524205270E+01 -0.11430573302E+02 -0.28229702575E+02  0.31634303761E+02  0.10566000000E+00 0.  1.
         13    1    4    4    0    0 -0.17427555020E+01  0.33280718306E+01 -0.21886380031E+03  0.21889606554E+03  0.10566000000E+00 0.  1.
        -13    1    4    4    0    0 -0.61375875189E+01  0.70948954489E+01 -0.53591513663E+03  0.53599725032E+03  0.10566000000E+00 0. -1.
         14    1    4    4    0    0 -0.67207750603E+00  0.10076060225E+01 -0.97489764430E+02  0.97497287791E+02  0.00000000000E+00 0. -1.
<mgrwt>
<rscale>  0 0.78883443E+02</rscale>
<asrwt>0</asrwt>
<pdfrwt beam="1">  1        2 0.13573221E+00 0.78883443E+02</pdfrwt>
<pdfrwt beam="2">  1       -1 0.27127020E-03 0.78883443E+02</pdfrwt>
<totfact> 0.36161218E+05</totfact>
</mgrwt>
</event>
<event>
 8    1  0.2676873E-020  0.8015957E+02  0.7818608E-02  0.1328599E+00
          2   -1    0    0  501    0  0.00000000000E+00  0.00000000000E+00  0.14778476131E+03  0.14778476133E+03  0.25500000000E-02 0. -1.
         -1   -1    0    0    0  501 -0.00000000000E+00 -0.00000000000E+00 -0.10869787514E+02  0.10869788683E+02  0.50400000000E-02 0.  1.
         24    2    1    2    0    0  0.00000000000E+00  0.00000000000E+00  0.13691497379E+03  0.15865455001E+03  0.80159567056E+02 0.  0.
         66    2    3    3    0    0  0.20604773171E+02 -0.12286963076E+02  0.13198553236E+03  0.13416298624E+03  0.19999963022E+01 0.  0.
        -13    1    3    3    0    0 -0.20604773171E+02  0.12286963076E+02  0.49294414313E+01  0.24491563771E+02  0.10566000000E+00 0.  1.
         13    1    4    4    0    0  0.87182854613E+01 -0.41748597320E+01  0.53288999085E+02  0.54158716221E+02  0.10566000000E+00 0. -1.
        -13    1    4    4    0    0  0.48595499114E+00 -0.38287852084E+00  0.38831859733E+01  0.39335792294E+01  0.10566000000E+00 0.  1.
        -14    1    4    4    0    0  0.11400532719E+02 -0.77292248233E+01  0.74813347302E+02  0.76070690789E+02  0.00000000000E+00 0.  1.
<mgrwt>
<rscale>  0 0.80159567E+02</rscale>
<asrwt>0</asrwt>
<pdfrwt beam="1">  1        2 0.22736117E-01 0.80159567E+02</pdfrwt>
<pdfrwt beam="2">  1       -1 0.16722751E-02 0.80159567E+02</pdfrwt>
<totfact> 0.19829263E+05</totfact>
</mgrwt>
</event>
<event>
 8    1  0.2676873E-020  0.7980158E+02  0.7818608E-02  0.1329615E+00
         -1   -1    0    0    0  501 -0.00000000000E+00  0.00000000000E+00  0.68352178047E+02  0.68352178232E+02  0.50400000000E-02 0.  1.
          2   -1    0    0  501    0  0.00000000000E+00 -0.00000000000E+00 -0.23292209153E+02  0.23292209292E+02  0.25500000000E-02 0. -1.
         24    2    1    2    0    0  0.22204460493E-15  0.00000000000E+00  0.45059968894E+02  0.91644387525E+02  0.79801584997E+02 0.  0.
         66    2    3    3    0    0  0.19677455510E+01 -0.18348488324E+02 -0.18050438324E+02  0.25891260530E+02  0.20000004545E+01 0.  0.
        -13    1    3    3    0    0 -0.19677455510E+01  0.18348488324E+02  0.63110407218E+02  0.65753126995E+02  0.10566000000E+00 0.  1.
         13    1    4    4    0    0 -0.26607876288E+00 -0.35173927365E+01 -0.37544687440E+01  0.51526739812E+01  0.10566000000E+00 0. -1.
        -13    1    4    4    0    0  0.11549567137E+01 -0.98406113692E+01 -0.90860716942E+01  0.13443936179E+02  0.10566000000E+00 0.  1.
         14    1    4    4    0    0  0.10788676001E+01 -0.49904842183E+01 -0.52098978859E+01  0.72946503695E+01  0.00000000000E+00 0. -1.
<mgrwt>
<rscale>  0 0.79801585E+02</rscale>
<asrwt>0</asrwt>
<pdfrwt beam="1">  1        2 0.35834169E-02 0.79801585E+02</pdfrwt>
<pdfrwt beam="2">  1       -1 0.10515720E-01 0.79801585E+02</pdfrwt>
<totfact> 0.12890714E+05</totfact>
</mgrwt>
</event>
<event>
 8    1  0.2676873E-020  0.8510892E+02  0.7818608E-02  0.1315148E+00
          2   -1    0    0  501    0  0.00000000000E+00  0.00000000000E+00  0.67622520867E+03  0.67622520867E+03  0.25500000000E-02 0. -1.
         -1   -1    0    0    0  501 -0.00000000000E+00 -0.00000000000E+00 -0.26779249062E+01  0.26779296489E+01  0.50400000000E-02 0.  1.
         24    2    1    2    0    0  0.44408920985E-15 -0.35527136788E-14  0.67354728376E+03  0.67890313832E+03  0.85108917042E+02 0.  0.
         66    2    3    3    0    0 -0.26476523172E+01  0.16624667537E+02  0.64851575999E+03  0.64873729705E+03  0.19999972833E+01 0.  0.
        -13    1    3    3    0    0  0.26476523172E+01 -0.16624667537E+02  0.25031523770E+02  0.30165841274E+02  0.10566000000E+00 0.  1.
         13    1    4    4    0    0 -0.25314650007E+00  0.45091756328E+01  0.14728465674E+03  0.14735392096E+03  0.10566000000E+00 0.  1.
        -13    1    4    4    0    0 -0.84976576965E+00  0.51934577807E+01  0.21240959591E+03  0.21247480252E+03  0.10566000000E+00 0. -1.
        -14    1    4    4    0    0 -0.15447400475E+01  0.69220341231E+01  0.28882150734E+03  0.28890857357E+03  0.00000000000E+00 0.  1.
<mgrwt>
<rscale>  0 0.85108917E+02</rscale>
<asrwt>0</asrwt>
<pdfrwt beam="1">  1        2 0.10403464E+00 0.85108917E+02</pdfrwt>
<pdfrwt beam="2">  1       -1 0.41198885E-03 0.85108917E+02</pdfrwt>
<totfact> 0.28234104E+05</totfact>
</mgrwt>
</event>
<event>
 8    1  0.2676873E-020  0.7981842E+02  0.7818608E-02  0.1329568E+00
          2   -1    0    0  501    0  0.00000000000E+00  0.00000000000E+00  0.54593251945E+03  0.54593251946E+03  0.25500000000E-02 0. -1.
         -1   -1    0    0    0  501 -0.00000000000E+00 -0.00000000000E+00 -0.29174739695E+01  0.29174783228E+01  0.50400000000E-02 0.  1.
         24    2    1    2    0    0  0.17763568394E-14  0.71054273576E-14  0.54301504548E+03  0.54884999778E+03  0.79818421705E+02 0.  0.
         66    2    3    3    0    0 -0.15970769085E+02 -0.31902563761E+02  0.39427923004E+03  0.39589512535E+03  0.19999996432E+01 0.  0.
        -13    1    3    3    0    0  0.15970769085E+02  0.31902563761E+02  0.14873581545E+03  0.15295487243E+03  0.10566000000E+00 0.  1.
         13    1    4    4    0    0 -0.52830980622E+01 -0.11036436411E+02  0.14271346934E+03  0.14323707463E+03  0.10566000000E+00 0. -1.
        -13    1    4    4    0    0 -0.61592102293E+00 -0.16762343611E+01  0.20875805510E+02  0.20952315864E+02  0.10566000000E+00 0.  1.
        -14    1    4    4    0    0 -0.10071750000E+02 -0.19189892989E+02  0.23068995519E+03  0.23170573486E+03  0.00000000000E+00 0.  1.
<mgrwt>
<rscale>  0 0.79818422E+02</rscale>
<asrwt>0</asrwt>
<pdfrwt beam="1">  1        2 0.83989684E-01 0.79818422E+02</pdfrwt>
<pdfrwt beam="2">  1       -1 0.44884214E-03 0.79818422E+02</pdfrwt>
<totfact> 0.31478754E+05</totfact>
</mgrwt>
</event>
<event>
 8    1  0.2676873E-020  0.8776600E+02  0.7818608E-02  0.1308354E+00
         -1   -1    0    0    0  501 -0.00000000000E+00  0.00000000000E+00  0.99499540215E+01  0.99499552979E+01  0.50400000000E-02 0.  1.
          2   -1    0    0  501    0  0.00000000000E+00 -0.00000000000E+00 -0.19354036077E+03  0.19354036079E+03  0.25500000000E-02 0. -1.
         24    2    1    2    0    0  0.00000000000E+00 -0.35527136788E-14 -0.18359040675E+03  0.20349031609E+03  0.87766003044E+02 0.  0.
         66    2    3    3    0    0  0.41315669223E+01  0.31401160104E+02 -0.16219130988E+03  0.16526682577E+03  0.19999997504E+01 0.  0.
        -13    1    3    3    0    0 -0.41315669223E+01 -0.31401160104E+02 -0.21399096875E+02  0.38223490320E+02  0.10566000000E+00 0.  1.
         13    1    4    4    0    0  0.14092444076E+01  0.72939736189E+01 -0.38069638777E+02  0.38787840641E+02  0.10566000000E+00 0. -1.
        -13    1    4    4    0    0  0.31901055946E+00  0.71894791924E+01 -0.34465190766E+02  0.35208676734E+02  0.10566000000E+00 0.  1.
        -14    1    4    4    0    0  0.24033119553E+01  0.16917707293E+02 -0.89656480335E+02  0.91270308394E+02  0.00000000000E+00 0.  1.
<mgrwt>
<rscale>  0 0.87766003E+02</rscale>
<asrwt>0</asrwt>
<pdfrwt beam="1">  1        2 0.29775437E-01 0.87766003E+02</pdfrwt>
<pdfrwt beam="2">  1       -1 0.15307624E-02 0.87766003E+02</pdfrwt>
<totfact> 0.17056429E+05</totfact>
</mgrwt>
</event>
<event>
 8    1  0.2676873E-020  0.8038537E+02  0.7818608E-02  0.1327961E+00
         -1   -1    0    0    0  501 -0.00000000000E+00  0.00000000000E+00  0.12512590541E+03  0.12512590551E+03  0.50400000000E-02 0.  1.
          2   -1    0    0  501    0  0.00000000000E+00 -0.00000000000E+00 -0.12910610909E+02  0.12910611161E+02  0.25500000000E-02 0. -1.
         24    2    1    2    0    0  0.00000000000E+00 -0.17763568394E-14  0.11221529450E+03  0.13803651668E+03  0.80385369411E+02 0.  0.
         66    2    3    3    0    0  0.36716443908E+02  0.10759006258E+02  0.35139670038E+02  0.51987016272E+02  0.19999954001E+01 0.  0.
        -13    1    3    3    0    0 -0.36716443908E+02 -0.10759006258E+02  0.77075624465E+02  0.86049500403E+02  0.10566000000E+00 0.  1.
         13    1    4    4    0    0  0.32744905194E+02  0.92390029309E+01  0.31480885654E+02  0.46353482252E+02  0.10566000000E+00 0. -1.
        -13    1    4    4    0    0  0.36858324673E+01  0.13093378869E+01  0.34778494895E+01  0.52351053271E+01  0.10566000000E+00 0.  1.
        -14    1    4    4    0    0  0.28570624689E+00  0.21066544008E+00  0.18093489399E+00  0.39842869252E+00  0.00000000000E+00 0.  1.
<mgrwt>
<rscale>  0 0.80385369E+02</rscale>
<asrwt>0</asrwt>
<pdfrwt beam="1">  1        2 0.19862479E-02 0.80385369E+02</pdfrwt>
<pdfrwt beam="2">  1       -1 0.19250139E-01 0.80385369E+02</pdfrwt>
<totfact> 0.11139471E+05</totfact>
</mgrwt>
</event>
<event>
 8    1  0.2676873E-020  0.8098836E+02  0.7818608E-02  0.1326270E+00
         -1   -1    0    0    0  501 -0.00000000000E+00  0.00000000000E+00  0.50195355333E+01  0.50195380636E+01  0.50400000000E-02 0.  1.
          2   -1    0    0  501    0  0.00000000000E+00 -0.00000000000E+00 -0.32667924223E+03  0.32667924224E+03  0.25500000000E-02 0. -1.
         24    2    1    2    0    0 -0.17763568394E-14  0.71054273576E-14 -0.32165970669E+03  0.33169878030E+03  0.80988356834E+02 0.  0.
         66    2    3    3    0    0 -0.13982252647E+02  0.37094412272E+02 -0.12758538961E+03  0.13361710390E+03  0.20000003168E+01 0.  0.
        -13    1    3    3    0    0  0.13982252647E+02 -0.37094412272E+02 -0.19407431708E+03  0.19808167640E+03  0.10566000000E+00 0.  1.
         13    1    4    4    0    0 -0.52585660150E+01  0.13915780941E+02 -0.47624000366E+02  0.49893467013E+02  0.10566000000E+00 0. -1.
        -13    1    4    4    0    0 -0.34159179171E+01  0.93333710193E+01 -0.29552987295E+02  0.31179649323E+02  0.10566000000E+00 0.  1.
        -14    1    4    4    0    0 -0.53077687150E+01  0.13845260312E+02 -0.50408401949E+02  0.52543987562E+02  0.00000000000E+00 0.  1.
<mgrwt>
<rscale>  0 0.80988357E+02</rscale>
<asrwt>0</asrwt>
<pdfrwt beam="1">  1        2 0.50258328E-01 0.80988357E+02</pdfrwt>
<pdfrwt beam="2">  1       -1 0.77223669E-03 0.80988357E+02</pdfrwt>
<totfact> 0.25458790E+05</totfact>
</mgrwt>
</event>
<event>
 8    1  0.2676873E-020  0.7996886E+02  0.7818608E-02  0.1329140E+00
         -1   -1    0    0    0  501 -0.00000000000E+00  0.00000000000E+00  0.62284101414E+01  0.62284121806E+01  0.50400000000E-02 0.  1.
          2   -1    0    0  501    0  0.00000000000E+00 -0.00000000000E+00 -0.25668741906E+03  0.25668741907E+03  0.25500000000E-02 0. -1.
         24    2    1    2    0    0  0.00000000000E+00  0.00000000000E+00 -0.25045900892E+03  0.26291583125E+03  0.79968863786E+02 0.  0.
         66    2    3    3    0    0 -0.14248699504E+02 -0.35310489230E+02 -0.16515477874E+03  0.16949913608E+03  0.20000257254E+01 0.  0.
        -13    1    3    3    0    0  0.14248699504E+02  0.35310489230E+02 -0.85304230175E+02  0.93416695173E+02  0.10566000000E+00 0.  1.
         13    1    4    4    0    0 -0.99917141359E+01 -0.22776288206E+02 -0.10694884315E+03  0.10980282269E+03  0.10566000000E+00 0. -1.
        -13    1    4    4    0    0 -0.57937742634E+00 -0.17755741938E+01 -0.92747286348E+01  0.94615060749E+01  0.10566000000E+00 0.  1.
         14    1    4    4    0    0 -0.36776079423E+01 -0.10758626830E+02 -0.48931206958E+02  0.50234807314E+02  0.00000000000E+00 0. -1.
<mgrwt>
<rscale>  0 0.79968864E+02</rscale>
<asrwt>0</asrwt>
<pdfrwt beam="1">  1        2 0.39490364E-01 0.79968864E+02</pdfrwt>
<pdfrwt beam="2">  1       -1 0.95821730E-03 0.79968864E+02</pdfrwt>
<totfact> 0.24120099E+05</totfact>
</mgrwt>
</event>
<event>
 8    1  0.2676873E-020  0.7868779E+02  0.7818608E-02  0.1332817E+00
         -1   -1    0    0    0  501 -0.00000000000E+00  0.00000000000E+00  0.38530233805E+02  0.38530234135E+02  0.50400000000E-02 0.  1.
          2   -1    0    0  501    0  0.00000000000E+00 -0.00000000000E+00 -0.40174742169E+02  0.40174742249E+02  0.25500000000E-02 0. -1.
         24    2    1    2    0    0  0.00000000000E+00 -0.71054273576E-14 -0.16445083630E+01  0.78704976385E+02  0.78687793843E+02 0.  0.
         66    2    3    3    0    0 -0.19310988435E+02 -0.34142553859E+02 -0.35268957878E+01  0.39434340983E+02  0.19999991332E+01 0.  0.
        -13    1    3    3    0    0  0.19310988435E+02  0.34142553859E+02  0.18823874248E+01  0.39270635401E+02  0.10566000000E+00 0.  1.
         13    1    4    4    0    0 -0.30763644355E+01 -0.60714503502E+01 -0.38861530699E-01  0.68072903382E+01  0.10566000000E+00 0. -1.
        -13    1    4    4    0    0 -0.33463566378E+01 -0.51545855816E+01 -0.53763526315E+00  0.61699328179E+01  0.10566000000E+00 0.  1.
         14    1    4    4    0    0 -0.12888267361E+02 -0.22916517928E+02 -0.29503989939E+01  0.26457117827E+02  0.00000000000E+00 0. -1.
<mgrwt>
<rscale>  0 0.78687794E+02</rscale>
<asrwt>0</asrwt>
<pdfrwt beam="1">  1        2 0.61807296E-02 0.78687794E+02</pdfrwt>
<pdfrwt beam="2">  1       -1 0.59277283E-02 0.78687794E+02</pdfrwt>
<totfact> 0.14934487E+05</totfact>
</mgrwt>
</event>
<event>
 8    1  0.2676873E-020  0.8007341E+02  0.7818608E-02  0.1328843E+00
          2   -1    0    0  501    0  0.00000000000E+00  0.00000000000E+00  0.45442270652E+03  0.45442270653E+03  0.25500000000E-02 0. -1.
         -1   -1    0    0    0  501 -0.00000000000E+00 -0.00000000000E+00 -0.35274133903E+01  0.35274169909E+01  0.50400000000E-02 0.  1.
         24    2    1    2    0    0 -0.35527136788E-14 -0.35527136788E-14  0.45089529313E+03  0.45795012352E+03  0.80073405471E+02 0.  0.
         66    2    3    3    0    0  0.24832886014E+02  0.28429074983E+02  0.30147107963E+03  0.30383169088E+03  0.20000006784E+01 0.  0.
        -13    1    3    3    0    0 -0.24832886014E+02 -0.28429074983E+02  0.14942421351E+03  0.15411843264E+03  0.10566000000E+00 0.  1.
         13    1    4    4    0    0  0.53866749600E+01  0.59110519372E+01  0.66230934223E+02  0.66712102457E+02  0.10566000000E+00 0. -1.
        -13    1    4    4    0    0  0.93963585821E+01  0.97283659965E+01  0.10876167135E+03  0.10959947526E+03  0.10566000000E+00 0.  1.
         14    1    4    4    0    0  0.10049852472E+02  0.12789657050E+02  0.12647847405E+03  0.12752011316E+03  0.00000000000E+00 0. -1.
<mgrwt>
<rscale>  0 0.80073405E+02</rscale>
<asrwt>0</asrwt>
<pdfrwt beam="1">  1        2 0.69911163E-01 0.80073405E+02</pdfrwt>
<pdfrwt beam="2">  1       -1 0.54267943E-03 0.80073405E+02</pdfrwt>
<totfact> 0.29444488E+05</totfact>
</mgrwt>
</event>
<event>
 8    1  0.2676873E-020  0.7979242E+02  0.7818608E-02  0.1329642E+00
          2   -1    0    0  501    0  0.00000000000E+00  0.00000000000E+00  0.36199390813E+03  0.36199390813E+03  0.25500000000E-02 0. -1.
         -1   -1    0    0    0  501 -0.00000000000E+00 -0.00000000000E+00 -0.43970542272E+01  0.43970571156E+01  0.50400000000E-02 0.  1.
         24    2    1    2    0    0 -0.71054273576E-14  0.88817841970E-15  0.35759685390E+03  0.36639096525E+03  0.79792415046E+02 0.  0.
         66    2    3    3    0    0 -0.38949598071E+02  0.50845069588E+01  0.21031616665E+03  0.21396217729E+03  0.19999880523E+01 0.  0.
        -13    1    3    3    0    0  0.38949598071E+02 -0.50845069588E+01  0.14728068725E+03  0.15242878796E+03  0.10566000000E+00 0.  1.
         13    1    4    4    0    0 -0.35900847605E+02  0.47040656979E+01  0.19226962412E+03  0.19564922340E+03  0.10566000000E+00 0. -1.
        -13    1    4    4    0    0 -0.25849014571E+01  0.29037642535E+00  0.16147686287E+02  0.16356190586E+02  0.10566000000E+00 0.  1.
         14    1    4    4    0    0 -0.46384900893E+00  0.90064835547E-01  0.18988562424E+01  0.19567632986E+01  0.00000000000E+00 0. -1.
<mgrwt>
<rscale>  0 0.79792415E+02</rscale>
<asrwt>0</asrwt>
<pdfrwt beam="1">  1        2 0.55691387E-01 0.79792415E+02</pdfrwt>
<pdfrwt beam="2">  1       -1 0.67646990E-03 0.79792415E+02</pdfrwt>
<totfact> 0.27460860E+05</totfact>
</mgrwt>
</event>
<event>
 8    1  0.2676873E-020  0.8062769E+02  0.7818608E-02  0.1327280E+00
         -1   -1    0    0    0  501 -0.00000000000E+00  0.00000000000E+00  0.31169020002E+01  0.31169060750E+01  0.50400000000E-02 0.  1.
          2   -1    0    0  501    0  0.00000000000E+00 -0.00000000000E+00 -0.52141680070E+03  0.52141680071E+03  0.25500000000E-02 0. -1.
         24    2    1    2    0    0 -0.88817841970E-15  0.00000000000E+00 -0.51829989870E+03  0.52453370679E+03  0.80627691010E+02 0.  0.
         66    2    3    3    0    0  0.59118865489E+01 -0.39348930490E+02 -0.30040910043E+03  0.30303946336E+03  0.20000000495E+01 0.  0.
        -13    1    3    3    0    0 -0.59118865489E+01  0.39348930490E+02 -0.21789079827E+03  0.22149424342E+03  0.10566000000E+00 0.  1.
         13    1    4    4    0    0  0.16887010786E+01 -0.87146112239E+01 -0.67727334928E+02  0.68306655756E+02  0.10566000000E+00 0. -1.
        -13    1    4    4    0    0  0.32462312778E+00 -0.70327756133E+01 -0.52518882240E+02  0.52988767383E+02  0.10566000000E+00 0.  1.
        -14    1    4    4    0    0  0.38985623426E+01 -0.23601543653E+02 -0.18016288326E+03  0.18174404022E+03  0.00000000000E+00 0.  1.
<mgrwt>
<rscale>  0 0.80627691E+02</rscale>
<asrwt>0</asrwt>
<pdfrwt beam="1">  1        2 0.80217900E-01 0.80627691E+02</pdfrwt>
<pdfrwt beam="2">  1       -1 0.47952411E-03 0.80627691E+02</pdfrwt>
<totfact> 0.30233780E+05</totfact>
</mgrwt>
</event>
<event>
 8    1  0.2676873E-020  0.8125812E+02  0.7818608E-02  0.1325519E+00
         -1   -1    0    0    0  501 -0.00000000000E+00  0.00000000000E+00  0.24455620971E+02  0.24455621491E+02  0.50400000000E-02 0.  1.
          2   -1    0    0  501    0  0.00000000000E+00 -0.00000000000E+00 -0.67498612077E+02  0.67498612126E+02  0.25500000000E-02 0. -1.
         24    2    1    2    0    0  0.00000000000E+00  0.00000000000E+00 -0.43042991106E+02  0.91954233616E+02  0.81258119573E+02 0.  0.
         66    2    3    3    0    0  0.32572529873E+02 -0.12681739100E+02 -0.44916291809E+02  0.56949710644E+02  0.20000158870E+01 0.  0.
        -13    1    3    3    0    0 -0.32572529873E+02  0.12681739100E+02  0.18733007033E+01  0.35004522972E+02  0.10566000000E+00 0.  1.
         13    1    4    4    0    0  0.11587012122E+02 -0.52258048290E+01 -0.16693036739E+02  0.20981814165E+02  0.10566000000E+00 0. -1.
        -13    1    4    4    0    0  0.76411063418E+01 -0.31879284984E+01 -0.10893289058E+02  0.13682993268E+02  0.10566000000E+00 0.  1.
         14    1    4    4    0    0  0.13344411410E+02 -0.42680057730E+01 -0.17329966012E+02  0.22284903211E+02  0.00000000000E+00 0. -1.
<mgrwt>
<rscale>  0 0.81258120E+02</rscale>
<asrwt>0</asrwt>
<pdfrwt beam="1">  1        2 0.10384402E-01 0.81258120E+02</pdfrwt>
<pdfrwt beam="2">  1       -1 0.37624033E-02 0.81258120E+02</pdfrwt>
<totfact> 0.15341267E+05</totfact>
</mgrwt>
</event>
<event>
 8    1  0.2676873E-020  0.8046379E+02  0.7818608E-02  0.1327740E+00
          2   -1    0    0  501    0  0.00000000000E+00  0.00000000000E+00  0.39816986347E+02  0.39816986429E+02  0.25500000000E-02 0. -1.
         -1   -1    0    0    0  501 -0.00000000000E+00 -0.00000000000E+00 -0.40651126588E+02  0.40651126900E+02  0.50400000000E-02 0.  1.
         24    2    1    2    0    0  0.17763568394E-14 -0.35527136788E-14 -0.83414024070E+00  0.80468113330E+02  0.80463789824E+02 0.  0.
         66    2    3    3    0    0 -0.10435273088E+02  0.19690549293E+02  0.33050689085E+02  0.39911911851E+02  0.20000006840E+01 0.  0.
        -13    1    3    3    0    0  0.10435273088E+02 -0.19690549293E+02 -0.33884829326E+02  0.40556201478E+02  0.10566000000E+00 0.  1.
         13    1    4    4    0    0 -0.40890538823E+01  0.86857329094E+01  0.13461491186E+02  0.16534365026E+02  0.10566000000E+00 0. -1.
        -13    1    4    4    0    0 -0.44616452522E+01  0.79341918422E+01  0.13046999583E+02  0.15908898161E+02  0.10566000000E+00 0.  1.
        -14    1    4    4    0    0 -0.18845739535E+01  0.30706245413E+01  0.65421983166E+01  0.74686486645E+01  0.00000000000E+00 0.  1.
<mgrwt>
<rscale>  0 0.80463790E+02</rscale>
<asrwt>0</asrwt>
<pdfrwt beam="1">  1        2 0.61256902E-02 0.80463790E+02</pdfrwt>
<pdfrwt beam="2">  1       -1 0.62540196E-02 0.80463790E+02</pdfrwt>
<totfact> 0.14015881E+05</totfact>
</mgrwt>
</event>
<event>
 8    1  0.2676873E-020  0.7855577E+02  0.7818608E-02  0.1333201E+00
         -1   -1    0    0    0  501 -0.00000000000E+00  0.00000000000E+00  0.22354326291E+01  0.22354383107E+01  0.50400000000E-02 0.  1.
          2   -1    0    0  501    0  0.00000000000E+00 -0.00000000000E+00 -0.69013497585E+03  0.69013497585E+03  0.25500000000E-02 0. -1.
         24    2    1    2    0    0 -0.17763568394E-14 -0.17763568394E-14 -0.68789954322E+03  0.69237041416E+03  0.78555769031E+02 0.  0.
         66    2    3    3    0    0  0.15286411386E+02  0.13910814527E+02 -0.63828741433E+03  0.63862509222E+03  0.19999968233E+01 0.  0.
        -13    1    3    3    0    0 -0.15286411386E+02 -0.13910814527E+02 -0.49612128891E+02  0.53745321945E+02  0.10566000000E+00 0.  1.
         13    1    4    4    0    0  0.11216940498E+02  0.10216457687E+02 -0.46858923653E+03  0.46883481048E+03  0.10566000000E+00 0. -1.
        -13    1    4    4    0    0  0.17877737164E+01  0.17452704744E+01 -0.62247569228E+02  0.62297777992E+02  0.10566000000E+00 0.  1.
         14    1    4    4    0    0  0.22816971721E+01  0.19490863660E+01 -0.10745060857E+03  0.10749250375E+03  0.00000000000E+00 0. -1.
<mgrwt>
<rscale>  0 0.78555769E+02</rscale>
<asrwt>0</asrwt>
<pdfrwt beam="1">  1        2 0.10617444E+00 0.78555769E+02</pdfrwt>
<pdfrwt beam="2">  1       -1 0.34391370E-03 0.78555769E+02</pdfrwt>
<totfact> 0.34957599E+05</totfact>
</mgrwt>
</event>
<event>
 8    1  0.2676873E-020  0.8152078E+02  0.7818608E-02  0.1324790E+00
          2   -1    0    0  501    0  0.00000000000E+00  0.00000000000E+00  0.32303336359E+02  0.32303336460E+02  0.25500000000E-02 0. -1.
         -1   -1    0    0    0  501 -0.00000000000E+00 -0.00000000000E+00 -0.51431504622E+02  0.51431504869E+02  0.50400000000E-02 0.  1.
         24    2    1    2    0    0  0.00000000000E+00  0.17763568394E-14 -0.19128168263E+02  0.83734841328E+02  0.81520775457E+02 0.  0.
         66    2    3    3    0    0 -0.87797089201E+01  0.14993303546E+02  0.28275418915E+02  0.33247281659E+02  0.19999957427E+01 0.  0.
        -13    1    3    3    0    0  0.87797089201E+01 -0.14993303546E+02 -0.47403587178E+02  0.50487559669E+02  0.10566000000E+00 0.  1.
         13    1    4    4    0    0 -0.40994825819E+01  0.60360881291E+01  0.11458917064E+02  0.13585214818E+02  0.10566000000E+00 0. -1.
        -13    1    4    4    0    0 -0.50457451316E+00  0.10290296143E+01  0.12379066973E+01  0.16902882633E+01  0.10566000000E+00 0.  1.
         14    1    4    4    0    0 -0.41756518251E+01  0.79281858026E+01  0.15578595154E+02  0.17971778578E+02  0.00000000000E+00 0. -1.
<mgrwt>
<rscale>  0 0.81520775E+02</rscale>
<asrwt>0</asrwt>
<pdfrwt beam="1">  1        2 0.49697441E-02 0.81520775E+02</pdfrwt>
<pdfrwt beam="2">  1       -1 0.79125392E-02 0.81520775E+02</pdfrwt>
<totfact> 0.12953246E+05</totfact>
</mgrwt>
</event>
<event>
 8    1  0.2676873E-020  0.8041351E+02  0.7818608E-02  0.1327882E+00
         -1   -1    0    0    0  501 -0.00000000000E+00  0.00000000000E+00  0.33212777871E+02  0.33212778253E+02  0.50400000000E-02 0.  1.
          2   -1    0    0  501    0  0.00000000000E+00 -0.00000000000E+00 -0.48673535106E+02  0.48673535173E+02  0.25500000000E-02 0. -1.
         24    2    1    2    0    0 -0.35527136788E-14  0.00000000000E+00 -0.15460757235E+02  0.81886313426E+02  0.80413514487E+02 0.  0.
         66    2    3    3    0    0 -0.25865301015E+02  0.10772584784E+02 -0.37063971580E+02  0.46505917532E+02  0.19999991843E+01 0.  0.
        -13    1    3    3    0    0  0.25865301015E+02 -0.10772584784E+02  0.21603214345E+02  0.35380395893E+02  0.10566000000E+00 0.  1.
         13    1    4    4    0    0 -0.11098873495E+01  0.44365095446E+00 -0.13986892348E+01  0.18428705080E+01  0.10566000000E+00 0. -1.
        -13    1    4    4    0    0 -0.37738530915E+01  0.14755703810E+01 -0.64956237922E+01  0.76566028754E+01  0.10566000000E+00 0.  1.
        -14    1    4    4    0    0 -0.20981560574E+02  0.88533634484E+01 -0.29169658553E+02  0.37006444149E+02  0.00000000000E+00 0.  1.
<mgrwt>
<rscale>  0 0.80413514E+02</rscale>
<asrwt>0</asrwt>
<pdfrwt beam="1">  1        2 0.74882362E-02 0.80413514E+02</pdfrwt>
<pdfrwt beam="2">  1       -1 0.51096582E-02 0.80413514E+02</pdfrwt>
<totfact> 0.14647518E+05</totfact>
</mgrwt>
</event>
<event>
 8    1  0.2676873E-020  0.7705202E+02  0.7818608E-02  0.1337632E+00
         -1   -1    0    0    0  501 -0.00000000000E+00  0.00000000000E+00  0.85597590952E+01  0.85597605790E+01  0.50400000000E-02 0.  1.
          2   -1    0    0  501    0  0.00000000000E+00 -0.00000000000E+00 -0.17339894736E+03  0.17339894738E+03  0.25500000000E-02 0. -1.
         24    2    1    2    0    0  0.00000000000E+00  0.00000000000E+00 -0.16483918826E+03  0.18195870796E+03  0.77052017584E+02 0.  0.
         66    2    3    3    0    0 -0.14453851950E+01 -0.35220869104E+02 -0.11903253340E+03  0.12415853882E+03  0.19999986605E+01 0.  0.
        -13    1    3    3    0    0  0.14453851950E+01  0.35220869104E+02 -0.45806654863E+02  0.57800169140E+02  0.10566000000E+00 0.  1.
         13    1    4    4    0    0  0.42275039906E-01 -0.14104241753E+02 -0.49702840258E+02  0.51665413154E+02  0.10566000000E+00 0. -1.
        -13    1    4    4    0    0 -0.71789690609E-01 -0.32312442144E+01 -0.11231840748E+02  0.11688092383E+02  0.10566000000E+00 0.  1.
         14    1    4    4    0    0 -0.14158705443E+01 -0.17885383137E+02 -0.58097852395E+02  0.60805033281E+02  0.00000000000E+00 0. -1.
<mgrwt>
<rscale>  0 0.77052018E+02</rscale>
<asrwt>0</asrwt>
<pdfrwt beam="1">  1        2 0.26676759E-01 0.77052018E+02</pdfrwt>
<pdfrwt beam="2">  1       -1 0.13168863E-02 0.77052018E+02</pdfrwt>
<totfact> 0.23197310E+05</totfact>
</mgrwt>
</event>
<event>
 8    1  0.2676873E-020  0.7851514E+02  0.7818608E-02  0.1333319E+00
          2   -1    0    0  501    0  0.00000000000E+00  0.00000000000E+00  0.55128389034E+03  0.55128389035E+03  0.25500000000E-02 0. -1.
         -1   -1    0    0    0  501 -0.00000000000E+00 -0.00000000000E+00 -0.27955748744E+01  0.27955794175E+01  0.50400000000E-02 0.  1.
         24    2    1    2    0    0  0.00000000000E+00  0.00000000000E+00  0.54848831547E+03  0.55407946976E+03  0.78515136190E+02 0.  0.
         66    2    3    3    0    0  0.72287341157E+01 -0.19764114813E+02  0.50807860935E+03  0.50851818858E+03  0.19999999646E+01 0.  0.
        -13    1    3    3    0    0 -0.72287341157E+01  0.19764114813E+02  0.40409706112E+02  0.45561281186E+02  0.10566000000E+00 0.  1.
         13    1    4    4    0    0  0.23524402863E+01 -0.49494152807E+01  0.14116424613E+03  0.14127061349E+03  0.10566000000E+00 0. -1.
        -13    1    4    4    0    0  0.11538234442E+01 -0.45107823287E+01  0.11972352087E+03  0.11981406879E+03  0.10566000000E+00 0.  1.
         14    1    4    4    0    0  0.37224703852E+01 -0.10303917203E+02  0.24719084236E+03  0.24743350630E+03  0.00000000000E+00 0. -1.
<mgrwt>
<rscale>  0 0.78515136E+02</rscale>
<asrwt>0</asrwt>
<pdfrwt beam="1">  1        2 0.84812929E-01 0.78515136E+02</pdfrwt>
<pdfrwt beam="2">  1       -1 0.43008868E-03 0.78515136E+02</pdfrwt>
<totfact> 0.32952595E+05</totfact>
</mgrwt>
</event>
<event>
 8    1  0.2676873E-020  0.7869314E+02  0.7818608E-02  0.1332802E+00
          2   -1    0    0  501    0  0.00000000000E+00  0.00000000000E+00  0.41991256333E+03  0.41991256334E+03  0.25500000000E-02 0. -1.
         -1   -1    0    0    0  501 -0.00000000000E+00 -0.00000000000E+00 -0.36868437732E+01  0.36868472181E+01  0.50400000000E-02 0.  1.
         24    2    1    2    0    0  0.00000000000E+00  0.00000000000E+00  0.41622571956E+03  0.42359941055E+03  0.78693144572E+02 0.  0.
         66    2    3    3    0    0 -0.18151234848E+02 -0.19286735201E+02  0.36469501122E+03  0.36566090396E+03  0.19999980018E+01 0.  0.
        -13    1    3    3    0    0  0.18151234848E+02  0.19286735201E+02  0.51530708333E+02  0.57938506596E+02  0.10566000000E+00 0.  1.
         13    1    4    4    0    0 -0.96811427878E+01 -0.10799194160E+02  0.19901670356E+03  0.19954449774E+03  0.10566000000E+00 0. -1.
        -13    1    4    4    0    0 -0.26938907494E+01 -0.33806974816E+01  0.64477490662E+02  0.64622319124E+02  0.10566000000E+00 0.  1.
        -14    1    4    4    0    0 -0.57762013110E+01 -0.51068435591E+01  0.10120081700E+03  0.10149408709E+03  0.00000000000E+00 0.  1.
<mgrwt>
<rscale>  0 0.78693145E+02</rscale>
<asrwt>0</asrwt>
<pdfrwt beam="1">  1        2 0.64601943E-01 0.78693145E+02</pdfrwt>
<pdfrwt beam="2">  1       -1 0.56720691E-03 0.78693145E+02</pdfrwt>
<totfact> 0.29995547E+05</totfact>
</mgrwt>
</event>
<event>
 8    1  0.2676873E-020  0.8277301E+02  0.7818608E-02  0.1321361E+00
         -1   -1    0    0    0  501 -0.00000000000E+00  0.00000000000E+00  0.82028742608E+02  0.82028742763E+02  0.50400000000E-02 0.  1.
          2   -1    0    0  501    0  0.00000000000E+00 -0.00000000000E+00 -0.20881005831E+02  0.20881005986E+02  0.25500000000E-02 0. -1.
         24    2    1    2    0    0  0.71054273576E-14  0.17763568394E-14  0.61147736777E+02  0.10290974875E+03  0.82773006921E+02 0.  0.
         66    2    3    3    0    0 -0.38304317472E+02  0.14742461377E+02  0.24218524725E+02  0.47697985770E+02  0.20000005582E+01 0.  0.
        -13    1    3    3    0    0  0.38304317472E+02 -0.14742461377E+02  0.36929212052E+02  0.55211762979E+02  0.10566000000E+00 0.  1.
         13    1    4    4    0    0 -0.23921179234E+02  0.89893654428E+01  0.14901251866E+02  0.29581919786E+02  0.10566000000E+00 0. -1.
        -13    1    4    4    0    0 -0.45771330058E+01  0.12756011108E+01  0.30367103136E+01  0.56400424033E+01  0.10566000000E+00 0.  1.
         14    1    4    4    0    0 -0.98060052319E+01  0.44774948235E+01  0.62805625457E+01  0.12476023581E+02  0.00000000000E+00 0. -1.
<mgrwt>
<rscale>  0 0.82773007E+02</rscale>
<asrwt>0</asrwt>
<pdfrwt beam="1">  1        2 0.32124625E-02 0.82773007E+02</pdfrwt>
<pdfrwt beam="2">  1       -1 0.12619806E-01 0.82773007E+02</pdfrwt>
<totfact> 0.11355826E+05</totfact>
</mgrwt>
</event>
<event>
 8    1  0.2676873E-020  0.8101987E+02  0.7818608E-02  0.1326182E+00
          2   -1    0    0  501    0  0.00000000000E+00  0.00000000000E+00  0.11821171926E+03  0.11821171929E+03  0.25500000000E-02 0. -1.
         -1   -1    0    0    0  501 -0.00000000000E+00 -0.00000000000E+00 -0.13882334753E+02  0.13882335668E+02  0.50400000000E-02 0.  1.
         24    2    1    2    0    0  0.00000000000E+00  0.17763568394E-14  0.10432938451E+03  0.13209405496E+03  0.81019867211E+02 0.  0.
         66    2    3    3    0    0  0.21316839195E+02 -0.88749682986E+01 -0.20218182762E+01  0.23265004637E+02  0.19999990210E+01 0.  0.
        -13    1    3    3    0    0 -0.21316839195E+02  0.88749682986E+01  0.10635120278E+03  0.10882905032E+03  0.10566000000E+00 0.  1.
         13    1    4    4    0    0  0.99810252658E+01 -0.45070832261E+01 -0.37404535540E+00  0.10958363862E+02  0.10566000000E+00 0. -1.
        -13    1    4    4    0    0  0.15427759573E+01 -0.86513546599E+00  0.26404618866E-01  0.17721394607E+01  0.10566000000E+00 0.  1.
        -14    1    4    4    0    0  0.97930379716E+01 -0.35027496065E+01 -0.16741775397E+01  0.10534501315E+02  0.00000000000E+00 0.  1.
<mgrwt>
<rscale>  0 0.81019867E+02</rscale>
<asrwt>0</asrwt>
<pdfrwt beam="1">  1        2 0.18186418E-01 0.81019867E+02</pdfrwt>
<pdfrwt beam="2">  1       -1 0.21357439E-02 0.81019867E+02</pdfrwt>
<totfact> 0.17984415E+05</totfact>
</mgrwt>
</event>
<event>
 8    1  0.2676873E-020  0.8101953E+02  0.7818608E-02  0.1326183E+00
         -1   -1    0    0    0  501 -0.00000000000E+00  0.00000000000E+00  0.45530969138E+01  0.45530997032E+01  0.50400000000E-02 0.  1.
          2   -1    0    0  501    0  0.00000000000E+00 -0.00000000000E+00 -0.36042291267E+03  0.36042291268E+03  0.25500000000E-02 0. -1.
         24    2    1    2    0    0 -0.88817841970E-15  0.00000000000E+00 -0.35586981575E+03  0.36497601238E+03  0.81019527572E+02 0.  0.
         66    2    3    3    0    0 -0.58299254112E+01 -0.13298818999E+02 -0.34828534719E+03  0.34859364550E+03  0.20000001022E+01 0.  0.
        -13    1    3    3    0    0  0.58299254112E+01  0.13298818999E+02 -0.75844685629E+01  0.16382366876E+02  0.10566000000E+00 0.  1.
         13    1    4    4    0    0 -0.17837721804E+01 -0.53655444488E+01 -0.14843440273E+03  0.14854209500E+03  0.10566000000E+00 0. -1.
        -13    1    4    4    0    0 -0.12940234079E+01 -0.18870105492E+01 -0.57757684180E+02  0.57803084271E+02  0.10566000000E+00 0. -1.
        -14    1    4    4    0    0 -0.27521298229E+01 -0.60462640006E+01 -0.14209326029E+03  0.14224846623E+03  0.00000000000E+00 0.  1.
<mgrwt>
<rscale>  0 0.81019528E+02</rscale>
<asrwt>0</asrwt>
<pdfrwt beam="1">  1        2 0.55449656E-01 0.81019528E+02</pdfrwt>
<pdfrwt beam="2">  1       -1 0.70047695E-03 0.81019528E+02</pdfrwt>
<totfact> 0.26345015E+05</totfact>
</mgrwt>
</event>
<event>
 8    1  0.2676873E-020  0.7986704E+02  0.7818608E-02  0.1329429E+00
         -1   -1    0    0    0  501 -0.00000000000E+00  0.00000000000E+00  0.10254194767E+02  0.10254196006E+02  0.50400000000E-02 0.  1.
          2   -1    0    0  501    0  0.00000000000E+00 -0.00000000000E+00 -0.15551548371E+03  0.15551548373E+03  0.25500000000E-02 0. -1.
         24    2    1    2    0    0 -0.71054273576E-14  0.88817841970E-15 -0.14526128894E+03  0.16576967973E+03  0.79867043608E+02 0.  0.
         66    2    3    3    0    0 -0.31461016161E+02  0.69648993643E+01 -0.12154575891E+03  0.12576039469E+03  0.20000006220E+01 0.  0.
        -13    1    3    3    0    0  0.31461016161E+02 -0.69648993643E+01 -0.23715530028E+02  0.40009285043E+02  0.10566000000E+00 0.  1.
         13    1    4    4    0    0 -0.23725351656E+02  0.49577509133E+01 -0.88273363691E+02  0.91540534774E+02  0.10566000000E+00 0. -1.
        -13    1    4    4    0    0 -0.41656556313E+01  0.11851041619E+01 -0.17759813234E+02  0.18280571349E+02  0.10566000000E+00 0.  1.
         14    1    4    4    0    0 -0.35700088741E+01  0.82204428905E+00 -0.15512581987E+02  0.15939288569E+02  0.00000000000E+00 0. -1.
<mgrwt>
<rscale>  0 0.79867044E+02</rscale>
<asrwt>0</asrwt>
<pdfrwt beam="1">  1        2 0.23925457E-01 0.79867044E+02</pdfrwt>
<pdfrwt beam="2">  1       -1 0.15775686E-02 0.79867044E+02</pdfrwt>
<totfact> 0.20355231E+05</totfact>
</mgrwt>
</event>
<event>
 8    1  0.2676873E-020  0.7995309E+02  0.7818608E-02  0.1329185E+00
         -1   -1    0    0    0  501 -0.00000000000E+00  0.00000000000E+00  0.19261554594E+03  0.19261554601E+03  0.50400000000E-02 0.  1.
          2   -1    0    0  501    0  0.00000000000E+00 -0.00000000000E+00 -0.82969634326E+01  0.82969638245E+01  0.25500000000E-02 0. -1.
         24    2    1    2    0    0 -0.88817841970E-15  0.00000000000E+00  0.18431858251E+03  0.20091250983E+03  0.79953090927E+02 0.  0.
         66    2    3    3    0    0 -0.79076251580E+01  0.34548297721E+02  0.45881322652E+02  0.58010440246E+02  0.19999995522E+01 0.  0.
        -13    1    3    3    0    0  0.79076251580E+01 -0.34548297721E+02  0.13843725986E+03  0.14290206958E+03  0.10566000000E+00 0.  1.
         13    1    4    4    0    0 -0.12792244862E+01  0.53863689317E+01  0.82128083420E+01  0.99050881093E+01  0.10566000000E+00 0. -1.
        -13    1    4    4    0    0 -0.35115552234E+01  0.16575968774E+02  0.21944602641E+02  0.27724907755E+02  0.10566000000E+00 0.  1.
        -14    1    4    4    0    0 -0.31168454484E+01  0.12585960015E+02  0.15723911668E+02  0.20380444382E+02  0.00000000000E+00 0.  1.
<mgrwt>
<rscale>  0 0.79953091E+02</rscale>
<asrwt>0</asrwt>
<pdfrwt beam="1">  1        2 0.12764559E-02 0.79953091E+02</pdfrwt>
<pdfrwt beam="2">  1       -1 0.29633161E-01 0.79953091E+02</pdfrwt>
<totfact> 0.10088089E+05</totfact>
</mgrwt>
</event>
<event>
 8    1  0.2676873E-020  0.7840686E+02  0.7818608E-02  0.1333634E+00
          2   -1    0    0  501    0  0.00000000000E+00  0.00000000000E+00  0.62613019749E+03  0.62613019749E+03  0.25500000000E-02 0. -1.
         -1   -1    0    0    0  501 -0.00000000000E+00 -0.00000000000E+00 -0.24546129218E+01  0.24546180961E+01  0.50400000000E-02 0.  1.
         24    2    1    2    0    0  0.35527136788E-14  0.00000000000E+00  0.62367558457E+03  0.62858481559E+03  0.78406859429E+02 0.  0.
         66    2    3    3    0    0  0.25064542906E+02 -0.12794921304E+02  0.53056119447E+03  0.53131075877E+03  0.19999973562E+01 0.  0.
        -13    1    3    3    0    0 -0.25064542906E+02  0.12794921304E+02  0.93114390097E+02  0.97274056816E+02  0.10566000000E+00 0.  1.
         13    1    4    4    0    0  0.87080427294E+01 -0.38144282548E+01  0.17751582967E+03  0.17777024728E+03  0.10566000000E+00 0. -1.
        -13    1    4    4    0    0  0.60387800189E+01 -0.26217216695E+01  0.12285360120E+03  0.12302991011E+03  0.10566000000E+00 0.  1.
        -14    1    4    4    0    0  0.10317720158E+02 -0.63587713793E+01  0.23019176360E+03  0.23051060139E+03  0.00000000000E+00 0.  1.
<mgrwt>
<rscale>  0 0.78406859E+02</rscale>
<asrwt>0</asrwt>
<pdfrwt beam="1">  1        2 0.96327672E-01 0.78406859E+02</pdfrwt>
<pdfrwt beam="2">  1       -1 0.37763335E-03 0.78406859E+02</pdfrwt>
<totfact> 0.34285164E+05</totfact>
</mgrwt>
</event>
<event>
 8    1  0.2676873E-020  0.8067252E+02  0.7818608E-02  0.1327154E+00
          2   -1    0    0  501    0  0.00000000000E+00  0.00000000000E+00  0.35697562981E+02  0.35697563072E+02  0.25500000000E-02 0. -1.
         -1   -1    0    0    0  501 -0.00000000000E+00 -0.00000000000E+00 -0.45577732843E+02  0.45577733121E+02  0.50400000000E-02 0.  1.
         24    2    1    2    0    0  0.00000000000E+00 -0.17763568394E-14 -0.98801698617E+01  0.81275296194E+02  0.80672523296E+02 0.  0.
         66    2    3    3    0    0 -0.37685088179E+02 -0.13689896726E+02 -0.73700691917E+00  0.40151243183E+02  0.20000016180E+01 0.  0.
        -13    1    3    3    0    0  0.37685088179E+02  0.13689896726E+02 -0.91431629426E+01  0.41124053011E+02  0.10566000000E+00 0.  1.
         13    1    4    4    0    0 -0.53481052961E+01 -0.19974356504E+01 -0.29980655062E+00  0.57177816887E+01  0.10566000000E+00 0.  1.
        -13    1    4    4    0    0 -0.15478189593E+02 -0.58364324146E+01 -0.10540481472E+01  0.16575900517E+02  0.10566000000E+00 0.  1.
         14    1    4    4    0    0 -0.16858793290E+02 -0.58560286611E+01  0.61684777869E+00  0.17857560977E+02  0.00000000000E+00 0. -1.
<mgrwt>
<rscale>  0 0.80672523E+02</rscale>
<asrwt>0</asrwt>
<pdfrwt beam="1">  1        2 0.54919328E-02 0.80672523E+02</pdfrwt>
<pdfrwt beam="2">  1       -1 0.70119590E-02 0.80672523E+02</pdfrwt>
<totfact> 0.13608635E+05</totfact>
</mgrwt>
</event>
<event>
 8    1  0.2676873E-020  0.7861792E+02  0.7818608E-02  0.1333020E+00
         -1   -1    0    0    0  501 -0.00000000000E+00  0.00000000000E+00  0.14540658342E+02  0.14540659215E+02  0.50400000000E-02 0.  1.
          2   -1    0    0  501    0  0.00000000000E+00 -0.00000000000E+00 -0.10626714294E+03  0.10626714297E+03  0.25500000000E-02 0. -1.
         24    2    1    2    0    0  0.00000000000E+00  0.00000000000E+00 -0.91726484596E+02  0.12080780218E+03  0.78617918390E+02 0.  0.
         66    2    3    3    0    0  0.36668210929E+02  0.10661984838E+02 -0.60056145644E+02  0.71196743468E+02  0.20000093603E+01 0.  0.
        -13    1    3    3    0    0 -0.36668210929E+02 -0.10661984838E+02 -0.31670338952E+02  0.49611058715E+02  0.10566000000E+00 0.  1.
         13    1    4    4    0    0  0.22738414013E+02  0.71355134658E+01 -0.37515992995E+02  0.44445606292E+02  0.10566000000E+00 0. -1.
        -13    1    4    4    0    0  0.38638338955E+01  0.70260652662E+00 -0.54865128081E+01  0.67480260175E+01  0.10566000000E+00 0.  1.
         14    1    4    4    0    0  0.10065963020E+02  0.28238648460E+01 -0.17053639841E+02  0.20003111158E+02  0.00000000000E+00 0. -1.
<mgrwt>
<rscale>  0 0.78617918E+02</rscale>
<asrwt>0</asrwt>
<pdfrwt beam="1">  1        2 0.16348791E-01 0.78617918E+02</pdfrwt>
<pdfrwt beam="2">  1       -1 0.22370245E-02 0.78617918E+02</pdfrwt>
<totfact> 0.18893106E+05</totfact>
</mgrwt>
</event>
<event>
 8    1  0.2676873E-020  0.8201011E+02  0.7818608E-02  0.1323442E+00
         -1   -1    0    0    0  501 -0.00000000000E+00  0.00000000000E+00  0.42030343027E+01  0.42030373245E+01  0.50400000000E-02 0.  1.
          2   -1    0    0  501    0  0.00000000000E+00 -0.00000000000E+00 -0.40004760804E+03  0.40004760805E+03  0.25500000000E-02 0. -1.
         24    2    1    2    0    0  0.00000000000E+00  0.00000000000E+00 -0.39584457374E+03  0.40425064538E+03  0.82010107469E+02 0.  0.
         66    2    3    3    0    0  0.87538198824E+01  0.72316292087E+01 -0.39213582499E+03  0.39230527787E+03  0.19999946821E+01 0.  0.
        -13    1    3    3    0    0 -0.87538198824E+01 -0.72316292087E+01 -0.37087487487E+01  0.11945367506E+02  0.10566000000E+00 0.  1.
         13    1    4    4    0    0  0.90352355023E+00  0.16055009768E+01 -0.59505302845E+02  0.59533908144E+02  0.10566000000E+00 0. -1.
        -13    1    4    4    0    0  0.13176408752E+01  0.71548399451E+00 -0.47800731473E+02  0.47824357687E+02  0.10566000000E+00 0.  1.
         14    1    4    4    0    0  0.65326554569E+01  0.49106442373E+01 -0.28482979067E+03  0.28494701204E+03  0.00000000000E+00 0. -1.
<mgrwt>
<rscale>  0 0.82010107E+02</rscale>
<asrwt>0</asrwt>
<pdfrwt beam="1">  1        2 0.61545756E-01 0.82010107E+02</pdfrwt>
<pdfrwt beam="2">  1       -1 0.64662121E-03 0.82010107E+02</pdfrwt>
<totfact> 0.26479208E+05</totfact>
</mgrwt>
</event>
<event>
 8    1  0.2676873E-020  0.7855139E+02  0.7818608E-02  0.1333213E+00
         -1   -1    0    0    0  501 -0.00000000000E+00  0.00000000000E+00  0.16468251789E+02  0.16468252560E+02  0.50400000000E-02 0.  1.
          2   -1    0    0  501    0  0.00000000000E+00 -0.00000000000E+00 -0.93669929753E+02  0.93669929787E+02  0.25500000000E-02 0. -1.
         24    2    1    2    0    0  0.00000000000E+00  0.00000000000E+00 -0.77201677964E+02  0.11013818235E+03  0.78551385286E+02 0.  0.
         66    2    3    3    0    0 -0.30430482732E+02  0.20624033105E+01 -0.73264234146E+02  0.79384606708E+02  0.19999976384E+01 0.  0.
        -13    1    3    3    0    0  0.30430482732E+02 -0.20624033105E+01 -0.39374438185E+01  0.30753575639E+02  0.10566000000E+00 0.  1.
         13    1    4    4    0    0 -0.17877743444E+02  0.76017244523E+00 -0.43650367737E+02  0.47175813087E+02  0.10566000000E+00 0. -1.
        -13    1    4    4    0    0 -0.15449884167E+01 -0.16265519798E+00 -0.39147925444E+01  0.42130998828E+01  0.10566000000E+00 0.  1.
         14    1    4    4    0    0 -0.11007750872E+02  0.14648860632E+01 -0.25699073864E+02  0.27995693739E+02  0.00000000000E+00 0. -1.
<mgrwt>
<rscale>  0 0.78551385E+02</rscale>
<asrwt>0</asrwt>
<pdfrwt beam="1">  1        2 0.14410758E-01 0.78551385E+02</pdfrwt>
<pdfrwt beam="2">  1       -1 0.25335773E-02 0.78551385E+02</pdfrwt>
<totfact> 0.18282191E+05</totfact>
</mgrwt>
</event>
<event>
 8    1  0.2676873E-020  0.7345370E+02  0.7818608E-02  0.1348727E+00
          2   -1    0    0  501    0  0.00000000000E+00  0.00000000000E+00  0.15547508017E+03  0.15547508019E+03  0.25500000000E-02 0. -1.
         -1   -1    0    0    0  501 -0.00000000000E+00 -0.00000000000E+00 -0.86757405726E+01  0.86757420366E+01  0.50400000000E-02 0.  1.
         24    2    1    2    0    0  0.00000000000E+00  0.00000000000E+00  0.14679933960E+03  0.16415082223E+03  0.73453701961E+02 0.  0.
         66    2    3    3    0    0 -0.32327804925E+02 -0.17371176265E+02  0.73698588811E+02  0.82354883052E+02  0.20000084150E+01 0.  0.
        -13    1    3    3    0    0  0.32327804925E+02  0.17371176265E+02  0.73100750786E+02  0.81795939176E+02  0.10566000000E+00 0.  1.
         13    1    4    4    0    0 -0.82763102280E+01 -0.46039788701E+01  0.18021244423E+02  0.20358544815E+02  0.10566000000E+00 0. -1.
        -13    1    4    4    0    0 -0.10857619041E+02 -0.58824569322E+01  0.23641917460E+02  0.26672881660E+02  0.10566000000E+00 0.  1.
        -14    1    4    4    0    0 -0.13193875656E+02 -0.68847404628E+01  0.32035426928E+02  0.35323456577E+02  0.00000000000E+00 0.  1.
<mgrwt>
<rscale>  0 0.73453702E+02</rscale>
<asrwt>0</asrwt>
<pdfrwt beam="1">  1        2 0.23919242E-01 0.73453702E+02</pdfrwt>
<pdfrwt beam="2">  1       -1 0.13347295E-02 0.73453702E+02</pdfrwt>
<totfact> 0.25381957E+05</totfact>
</mgrwt>
</event>
<event>
 8    1  0.2676873E-020  0.7690547E+02  0.7818608E-02  0.1338070E+00
         -1   -1    0    0    0  501 -0.00000000000E+00  0.00000000000E+00  0.92964352884E+02  0.92964353020E+02  0.50400000000E-02 0.  1.
          2   -1    0    0  501    0  0.00000000000E+00 -0.00000000000E+00 -0.15905158168E+02  0.15905158372E+02  0.25500000000E-02 0. -1.
         24    2    1    2    0    0  0.00000000000E+00  0.35527136788E-14  0.77059194716E+02  0.10886951139E+03  0.76905468080E+02 0.  0.
         66    2    3    3    0    0  0.22066995586E+02 -0.28731905488E+02  0.20419344668E+02  0.41634412935E+02  0.20000041498E+01 0.  0.
        -13    1    3    3    0    0 -0.22066995586E+02  0.28731905488E+02  0.56639850048E+02  0.67235098458E+02  0.10566000000E+00 0.  1.
         13    1    4    4    0    0  0.12191869566E+02 -0.16507067317E+02  0.11044921538E+02  0.23305072640E+02  0.10566000000E+00 0. -1.
        -13    1    4    4    0    0  0.34252561543E+01 -0.41486647592E+01  0.37880305758E+01  0.65805880197E+01  0.10566000000E+00 0.  1.
        -14    1    4    4    0    0  0.64498698657E+01 -0.80761734115E+01  0.55863925535E+01  0.11748752275E+02  0.00000000000E+00 0.  1.
<mgrwt>
<rscale>  0 0.76905468E+02</rscale>
<asrwt>0</asrwt>
<pdfrwt beam="1">  1        2 0.24469474E-02 0.76905468E+02</pdfrwt>
<pdfrwt beam="2">  1       -1 0.14302208E-01 0.76905468E+02</pdfrwt>
<totfact> 0.13277695E+05</totfact>
</mgrwt>
</event>
<event>
 8    1  0.2676873E-020  0.7873334E+02  0.7818608E-02  0.1332685E+00
          2   -1    0    0  501    0  0.00000000000E+00  0.00000000000E+00  0.26124169849E+03  0.26124169851E+03  0.25500000000E-02 0. -1.
         -1   -1    0    0    0  501 -0.00000000000E+00 -0.00000000000E+00 -0.59321864771E+01  0.59321886181E+01  0.50400000000E-02 0.  1.
         24    2    1    2    0    0 -0.35527136788E-14  0.00000000000E+00  0.25530951202E+03  0.26717388712E+03  0.78733341317E+02 0.  0.
         66    2    3    3    0    0 -0.27208965135E+02  0.48271868970E+00  0.22414589595E+03  0.22580067198E+03  0.19999985494E+01 0.  0.
        -13    1    3    3    0    0  0.27208965135E+02 -0.48271868970E+00  0.31163616068E+02  0.41373215146E+02  0.10566000000E+00 0.  1.
         13    1    4    4    0    0 -0.88564181650E+01  0.23084722071E+00  0.79628834930E+02  0.80120234333E+02  0.10566000000E+00 0. -1.
        -13    1    4    4    0    0 -0.87322659962E+01 -0.26001098957E+00  0.70145937611E+02  0.70687932510E+02  0.10566000000E+00 0.  1.
        -14    1    4    4    0    0 -0.96202809737E+01  0.51188245856E+00  0.74371123406E+02  0.74992505134E+02  0.00000000000E+00 0.  1.
<mgrwt>
<rscale>  0 0.78733341E+02</rscale>
<asrwt>0</asrwt>
<pdfrwt beam="1">  1        2 0.40191026E-01 0.78733341E+02</pdfrwt>
<pdfrwt beam="2">  1       -1 0.91264435E-03 0.78733341E+02</pdfrwt>
<totfact> 0.25286398E+05</totfact>
</mgrwt>
</event>
<event>
 8    1  0.2676873E-020  0.8026928E+02  0.7818608E-02  0.1328289E+00
         -1   -1    0    0    0  501 -0.00000000000E+00  0.00000000000E+00  0.14162797756E+03  0.14162797765E+03  0.50400000000E-02 0.  1.
          2   -1    0    0  501    0  0.00000000000E+00 -0.00000000000E+00 -0.11373384041E+02  0.11373384327E+02  0.25500000000E-02 0. -1.
         24    2    1    2    0    0  0.17763568394E-14  0.00000000000E+00  0.13025459352E+03  0.15300136198E+03  0.80269282007E+02 0.  0.
         66    2    3    3    0    0  0.13166078429E+02  0.21374899762E+02  0.55412994954E+01  0.25786391036E+02  0.20000003850E+01 0.  0.
        -13    1    3    3    0    0 -0.13166078429E+02 -0.21374899762E+02  0.12471329403E+03  0.12721497094E+03  0.10566000000E+00 0.  1.
         13    1    4    4    0    0  0.33829972329E+01  0.50656559791E+01  0.13488152657E+01  0.62398723892E+01  0.10566000000E+00 0. -1.
        -13    1    4    4    0    0  0.24986205360E+01  0.33636591804E+01  0.14894027101E+01  0.44482347210E+01  0.10566000000E+00 0.  1.
         14    1    4    4    0    0  0.72844606597E+01  0.12945584603E+02  0.27030815196E+01  0.15098283926E+02  0.00000000000E+00 0. -1.
<mgrwt>
<rscale>  0 0.80269282E+02</rscale>
<asrwt>0</asrwt>
<pdfrwt beam="1">  1        2 0.17497514E-02 0.80269282E+02</pdfrwt>
<pdfrwt beam="2">  1       -1 0.21788920E-01 0.80269282E+02</pdfrwt>
<totfact> 0.10851604E+05</totfact>
</mgrwt>
</event>
<event>
 8    1  0.2676873E-020  0.7623712E+02  0.7818608E-02  0.1340082E+00
          2   -1    0    0  501    0  0.00000000000E+00  0.00000000000E+00  0.12260272234E+03  0.12260272237E+03  0.25500000000E-02 0. -1.
         -1   -1    0    0    0  501 -0.00000000000E+00 -0.00000000000E+00 -0.11851488108E+02  0.11851489179E+02  0.50400000000E-02 0.  1.
         24    2    1    2    0    0  0.00000000000E+00  0.00000000000E+00  0.11075123424E+03  0.13445421155E+03  0.76237124281E+02 0.  0.
         66    2    3    3    0    0  0.80428823043E+01  0.35315884317E+02  0.76215524235E+02  0.84407972229E+02  0.20000001300E+01 0.  0.
        -13    1    3    3    0    0 -0.80428823043E+01 -0.35315884317E+02  0.34535710002E+02  0.50046239322E+02  0.10566000000E+00 0.  1.
         13    1    4    4    0    0  0.48630203846E+01  0.22804040908E+02  0.50411149386E+02  0.55542491801E+02  0.10566000000E+00 0. -1.
        -13    1    4    4    0    0  0.30494668669E+01  0.12381236013E+02  0.25419403428E+02  0.28438556363E+02  0.10566000000E+00 0.  1.
        -14    1    4    4    0    0  0.13039505285E+00  0.13060739619E+00  0.38497142099E+00  0.42692406436E+00  0.00000000000E+00 0.  1.
<mgrwt>
<rscale>  0 0.76237124E+02</rscale>
<asrwt>0</asrwt>
<pdfrwt beam="1">  1        2 0.18861957E-01 0.76237124E+02</pdfrwt>
<pdfrwt beam="2">  1       -1 0.18233060E-02 0.76237124E+02</pdfrwt>
<totfact> 0.21376792E+05</totfact>
</mgrwt>
</event>
<event>
 8    1  0.2676873E-020  0.7980938E+02  0.7818608E-02  0.1329593E+00
         -1   -1    0    0    0  501 -0.00000000000E+00  0.00000000000E+00  0.87667229084E+01  0.87667243571E+01  0.50400000000E-02 0.  1.
          2   -1    0    0  501    0  0.00000000000E+00 -0.00000000000E+00 -0.18163961277E+03  0.18163961279E+03  0.25500000000E-02 0. -1.
         24    2    1    2    0    0 -0.17763568394E-14  0.00000000000E+00 -0.17287288986E+03  0.19040633714E+03  0.79809380250E+02 0.  0.
         66    2    3    3    0    0  0.11407401932E+02 -0.29502891946E+01 -0.17738618458E+03  0.17778833340E+03  0.19999966125E+01 0.  0.
        -13    1    3    3    0    0 -0.11407401932E+02  0.29502891946E+01  0.45132947246E+01  0.12618003744E+02  0.10566000000E+00 0.  1.
         13    1    4    4    0    0  0.78620974476E+01 -0.21817825081E+01 -0.13192816543E+03  0.13218027368E+03  0.10566000000E+00 0. -1.
        -13    1    4    4    0    0  0.94150504521E+00 -0.19752172515E-01 -0.90895770542E+01  0.91388400226E+01  0.10566000000E+00 0.  1.
         14    1    4    4    0    0  0.26037994390E+01 -0.74875451393E+00 -0.36368442100E+02  0.36469219701E+02  0.00000000000E+00 0. -1.
<mgrwt>
<rscale>  0 0.79809380E+02</rscale>
<asrwt>0</asrwt>
<pdfrwt beam="1">  1        2 0.27944553E-01 0.79809380E+02</pdfrwt>
<pdfrwt beam="2">  1       -1 0.13487269E-02 0.79809380E+02</pdfrwt>
<totfact> 0.21475076E+05</totfact>
</mgrwt>
</event>
<event>
 8    1  0.2676873E-020  0.8081090E+02  0.7818608E-02  0.1326766E+00
         -1   -1    0    0    0  501 -0.00000000000E+00  0.00000000000E+00  0.23050237637E+01  0.23050292738E+01  0.50400000000E-02 0.  1.
          2   -1    0    0  501    0  0.00000000000E+00 -0.00000000000E+00 -0.70827836435E+03  0.70827836436E+03  0.25500000000E-02 0. -1.
         24    2    1    2    0    0 -0.35527136788E-14 -0.17763568394E-14 -0.70597334059E+03  0.71058339363E+03  0.80810900762E+02 0.  0.
         66    2    3    3    0    0 -0.17159888451E+02  0.13431199134E+02 -0.65213574108E+03  0.65250278442E+03  0.19999987742E+01 0.  0.
        -13    1    3    3    0    0  0.17159888451E+02 -0.13431199134E+02 -0.53837599504E+02  0.58080609210E+02  0.10566000000E+00 0.  1.
         13    1    4    4    0    0 -0.11500296959E+02  0.90102958123E+01 -0.43632639246E+03  0.43657092686E+03  0.10566000000E+00 0. -1.
        -13    1    4    4    0    0 -0.12843259538E+01  0.46887809479E+00 -0.44111472132E+02  0.44132782345E+02  0.10566000000E+00 0.  1.
        -14    1    4    4    0    0 -0.43752655384E+01  0.39520252266E+01 -0.17169787649E+03  0.17179907521E+03  0.00000000000E+00 0.  1.
<mgrwt>
<rscale>  0 0.80810901E+02</rscale>
<asrwt>0</asrwt>
<pdfrwt beam="1">  1        2 0.10896573E+00 0.80810901E+02</pdfrwt>
<pdfrwt beam="2">  1       -1 0.35462003E-03 0.80810901E+02</pdfrwt>
<totfact> 0.32672667E+05</totfact>
</mgrwt>
</event>
<event>
 8    1  0.2676873E-020  0.7687388E+02  0.7818608E-02  0.1338165E+00
          2   -1    0    0  501    0  0.00000000000E+00  0.00000000000E+00  0.36878464166E+03  0.36878464167E+03  0.25500000000E-02 0. -1.
         -1   -1    0    0    0  501 -0.00000000000E+00 -0.00000000000E+00 -0.40061259281E+01  0.40061290984E+01  0.50400000000E-02 0.  1.
         24    2    1    2    0    0  0.00000000000E+00  0.00000000000E+00  0.36477851573E+03  0.37279077077E+03  0.76873878722E+02 0.  0.
         66    2    3    3    0    0  0.37496836480E+02  0.28131855537E+01  0.14449289375E+03  0.14931886386E+03  0.20000005971E+01 0.  0.
        -13    1    3    3    0    0 -0.37496836480E+02 -0.28131855537E+01  0.22028562199E+03  0.22347190691E+03  0.10566000000E+00 0.  1.
         13    1    4    4    0    0  0.69077175835E+01  0.52292492156E+00  0.26917113484E+02  0.27794463028E+02  0.10566000000E+00 0. -1.
        -13    1    4    4    0    0  0.24891486524E+02  0.14150537294E+01  0.97526210335E+02  0.10066261145E+03  0.10566000000E+00 0.  1.
        -14    1    4    4    0    0  0.56976323724E+01  0.87520690277E+00  0.20049569928E+02  0.20861789378E+02  0.00000000000E+00 0.  1.
<mgrwt>
<rscale>  0 0.76873879E+02</rscale>
<asrwt>0</asrwt>
<pdfrwt beam="1">  1        2 0.56736123E-01 0.76873879E+02</pdfrwt>
<pdfrwt beam="2">  1       -1 0.61632705E-03 0.76873879E+02</pdfrwt>
<totfact> 0.30464878E+05</totfact>
</mgrwt>
</event>
<event>
 8    1  0.2676873E-020  0.7933100E+02  0.7818608E-02  0.1330961E+00
         -1   -1    0    0    0  501 -0.00000000000E+00  0.00000000000E+00  0.84832602241E+01  0.84832617213E+01  0.50400000000E-02 0.  1.
          2   -1    0    0  501    0  0.00000000000E+00 -0.00000000000E+00 -0.18546547465E+03  0.18546547467E+03  0.25500000000E-02 0. -1.
         24    2    1    2    0    0  0.00000000000E+00 -0.35527136788E-14 -0.17698221443E+03  0.19394873639E+03  0.79331003547E+02 0.  0.
         66    2    3    3    0    0 -0.18108587050E+02 -0.31707260594E+02 -0.50824595079E+02  0.62613183767E+02  0.20000042975E+01 0.  0.
        -13    1    3    3    0    0  0.18108587050E+02  0.31707260594E+02 -0.12615761935E+03  0.13133555262E+03  0.10566000000E+00 0.  1.
         13    1    4    4    0    0 -0.21247158528E+01 -0.38197474797E+01 -0.66946686475E+01  0.79959139940E+01  0.10566000000E+00 0. -1.
        -13    1    4    4    0    0 -0.31069675216E+01 -0.55296179601E+01 -0.97690389010E+01  0.11647970083E+02  0.10566000000E+00 0.  1.
        -14    1    4    4    0    0 -0.12876903675E+02 -0.22357895154E+02 -0.34360887531E+02  0.42969299690E+02  0.00000000000E+00 0.  1.
<mgrwt>
<rscale>  0 0.79331004E+02</rscale>
<asrwt>0</asrwt>
<pdfrwt beam="1">  1        2 0.28533147E-01 0.79331004E+02</pdfrwt>
<pdfrwt beam="2">  1       -1 0.13051172E-02 0.79331004E+02</pdfrwt>
<totfact> 0.21974360E+05</totfact>
</mgrwt>
</event>
<event>
 8    1  0.2676873E-020  0.8009215E+02  0.7818608E-02  0.1328790E+00
          2   -1    0    0  501    0  0.00000000000E+00  0.00000000000E+00  0.30296510692E+02  0.30296510799E+02  0.25500000000E-02 0. -1.
         -1   -1    0    0    0  501 -0.00000000000E+00 -0.00000000000E+00 -0.52933097411E+02  0.52933097651E+02  0.50400000000E-02 0.  1.
         24    2    1    2    0    0 -0.17763568394E-14 -0.35527136788E-14 -0.22636586720E+02  0.83229608450E+02  0.80092151079E+02 0.  0.
         66    2    3    3    0    0  0.14921834541E+02  0.22972065615E+02  0.18994781036E+02  0.33394290754E+02  0.20000009128E+01 0.  0.
        -13    1    3    3    0    0 -0.14921834541E+02 -0.22972065615E+02 -0.41631367755E+02  0.49835317697E+02  0.10566000000E+00 0.  1.
         13    1    4    4    0    0  0.44641653060E+01  0.74265892361E+01  0.56135062788E+01  0.10324999581E+02  0.10566000000E+00 0. -1.
        -13    1    4    4    0    0  0.36960488537E+01  0.66038413874E+01  0.58149676395E+01  0.95444492184E+01  0.10566000000E+00 0.  1.
        -14    1    4    4    0    0  0.67616203812E+01  0.89416349917E+01  0.75663071176E+01  0.13524841955E+02  0.00000000000E+00 0.  1.
<mgrwt>
<rscale>  0 0.80092151E+02</rscale>
<asrwt>0</asrwt>
<pdfrwt beam="1">  1        2 0.46610017E-02 0.80092151E+02</pdfrwt>
<pdfrwt beam="2">  1       -1 0.81435535E-02 0.80092151E+02</pdfrwt>
<totfact> 0.13437967E+05</totfact>
</mgrwt>
</event>
<event>
 8    1  0.2676873E-020  0.8043104E+02  0.7818608E-02  0.1327833E+00
         -1   -1    0    0    0  501 -0.00000000000E+00  0.00000000000E+00  0.89034142580E+02  0.89034142723E+02  0.50400000000E-02 0.  1.
          2   -1    0    0  501    0  0.00000000000E+00 -0.00000000000E+00 -0.18164807652E+02  0.18164807831E+02  0.25500000000E-02 0. -1.
         24    2    1    2    0    0  0.00000000000E+00  0.00000000000E+00  0.70869334928E+02  0.10719895055E+03  0.80431041064E+02 0.  0.
         66    2    3    3    0    0  0.17033340917E+02  0.12421572537E+02 -0.10149067921E+02  0.23482626390E+02  0.19999988629E+01 0.  0.
        -13    1    3    3    0    0 -0.17033340917E+02 -0.12421572537E+02  0.81018402849E+02  0.83716324163E+02  0.10566000000E+00 0.  1.
         13    1    4    4    0    0  0.13066462464E+02  0.98362935968E+01 -0.72393228030E+01  0.17885862342E+02  0.10566000000E+00 0. -1.
        -13    1    4    4    0    0  0.34231694859E+00  0.26600962031E+00 -0.99065615759E-01  0.45707772120E+00  0.10566000000E+00 0.  1.
         14    1    4    4    0    0  0.36245615041E+01  0.23192693201E+01 -0.28106795023E+01  0.51396863271E+01  0.00000000000E+00 0. -1.
<mgrwt>
<rscale>  0 0.80431041E+02</rscale>
<asrwt>0</asrwt>
<pdfrwt beam="1">  1        2 0.27945859E-02 0.80431041E+02</pdfrwt>
<pdfrwt beam="2">  1       -1 0.13697560E-01 0.80431041E+02</pdfrwt>
<totfact> 0.11985885E+05</totfact>
</mgrwt>
</event>
<event>
 8    1  0.2676873E-020  0.8011111E+02  0.7818608E-02  0.1328736E+00
         -1   -1    0    0    0  501 -0.00000000000E+00  0.00000000000E+00  0.16708251181E+02  0.16708251941E+02  0.50400000000E-02 0.  1.
          2   -1    0    0  501    0  0.00000000000E+00 -0.00000000000E+00 -0.96027250752E+02  0.96027250786E+02  0.25500000000E-02 0. -1.
         24    2    1    2    0    0  0.00000000000E+00  0.71054273576E-14 -0.79318999572E+02  0.11273550273E+03  0.80111109604E+02 0.  0.
         66    2    3    3    0    0 -0.15245984736E+02  0.36582467409E+02 -0.31757814294E+02  0.50825935766E+02  0.20000013644E+01 0.  0.
        -13    1    3    3    0    0  0.15245984736E+02 -0.36582467409E+02 -0.47561185277E+02  0.61909566961E+02  0.10566000000E+00 0.  1.
         13    1    4    4    0    0 -0.37693019146E+01  0.92575618876E+01 -0.83098663985E+01  0.12999043527E+02  0.10566000000E+00 0. -1.
        -13    1    4    4    0    0 -0.73786078289E+01  0.19489402661E+02 -0.16348953378E+02  0.26487357554E+02  0.10566000000E+00 0.  1.
         14    1    4    4    0    0 -0.40980749923E+01  0.78355028601E+01 -0.70989945175E+01  0.11339534685E+02  0.00000000000E+00 0. -1.
<mgrwt>
<rscale>  0 0.80111110E+02</rscale>
<asrwt>0</asrwt>
<pdfrwt beam="1">  1        2 0.14773423E-01 0.80111110E+02</pdfrwt>
<pdfrwt beam="2">  1       -1 0.25705003E-02 0.80111110E+02</pdfrwt>
<totfact> 0.17462248E+05</totfact>
</mgrwt>
</event>
<event>
 8    1  0.2676873E-020  0.7970662E+02  0.7818608E-02  0.1329886E+00
          2   -1    0    0  501    0  0.00000000000E+00  0.00000000000E+00  0.16034263470E+03  0.16034263472E+03  0.25500000000E-02 0. -1.
         -1   -1    0    0    0  501 -0.00000000000E+00 -0.00000000000E+00 -0.99055770363E+01  0.99055783185E+01  0.50400000000E-02 0.  1.
         24    2    1    2    0    0  0.00000000000E+00  0.00000000000E+00  0.15043705766E+03  0.17024821304E+03  0.79706622838E+02 0.  0.
         66    2    3    3    0    0 -0.30462055413E+02  0.65291165892E+01  0.12826603002E+03  0.13201038080E+03  0.19999997377E+01 0.  0.
        -13    1    3    3    0    0  0.30462055413E+02 -0.65291165892E+01  0.22171027645E+02  0.38237832238E+02  0.10566000000E+00 0.  1.
         13    1    4    4    0    0 -0.17646581928E+02  0.39975804659E+01  0.74983663394E+02  0.77135876500E+02  0.10566000000E+00 0. -1.
        -13    1    4    4    0    0 -0.80869840824E+01  0.20645925281E+01  0.35522579888E+02  0.36490090433E+02  0.10566000000E+00 0.  1.
         14    1    4    4    0    0 -0.47284894017E+01  0.46694359517E+00  0.17759786734E+02  0.18384413865E+02  0.00000000000E+00 0. -1.
<mgrwt>
<rscale>  0 0.79706623E+02</rscale>
<asrwt>0</asrwt>
<pdfrwt beam="1">  1        2 0.24668097E-01 0.79706623E+02</pdfrwt>
<pdfrwt beam="2">  1       -1 0.15239351E-02 0.79706623E+02</pdfrwt>
<totfact> 0.20669454E+05</totfact>
</mgrwt>
</event>
<event>
 8    1  0.2676873E-020  0.7960120E+02  0.7818608E-02  0.1330187E+00
         -1   -1    0    0    0  501 -0.00000000000E+00  0.00000000000E+00  0.32752616345E+01  0.32752655123E+01  0.50400000000E-02 0.  1.
          2   -1    0    0  501    0  0.00000000000E+00 -0.00000000000E+00 -0.48365204296E+03  0.48365204296E+03  0.25500000000E-02 0. -1.
         24    2    1    2    0    0 -0.17763568394E-14 -0.71054273576E-14 -0.48037678132E+03  0.48692730848E+03  0.79601204174E+02 0.  0.
         66    2    3    3    0    0 -0.13338450909E+02 -0.26915064401E+02 -0.39982408761E+03  0.40095590281E+03  0.19999995916E+01 0.  0.
        -13    1    3    3    0    0  0.13338450909E+02  0.26915064401E+02 -0.80552693713E+02  0.85971405670E+02  0.10566000000E+00 0.  1.
         13    1    4    4    0    0 -0.32212852838E+01 -0.63979786081E+01 -0.95983558324E+02  0.96250534760E+02  0.10566000000E+00 0. -1.
        -13    1    4    4    0    0 -0.48769728350E+01 -0.10844652832E+02 -0.14784893127E+03  0.14832635977E+03  0.10566000000E+00 0.  1.
        -14    1    4    4    0    0 -0.52401927898E+01 -0.96724329605E+01 -0.15599159801E+03  0.15637900828E+03  0.00000000000E+00 0.  1.
<mgrwt>
<rscale>  0 0.79601204E+02</rscale>
<asrwt>0</asrwt>
<pdfrwt beam="1">  1        2 0.74407950E-01 0.79601204E+02</pdfrwt>
<pdfrwt beam="2">  1       -1 0.50388709E-03 0.79601204E+02</pdfrwt>
<totfact> 0.30522503E+05</totfact>
</mgrwt>
</event>
<event>
 8    1  0.2676873E-020  0.8924759E+02  0.7818608E-02  0.1304684E+00
          2   -1    0    0  501    0  0.00000000000E+00  0.00000000000E+00  0.53018388511E+02  0.53018388572E+02  0.25500000000E-02 0. -1.
         -1   -1    0    0    0  501 -0.00000000000E+00 -0.00000000000E+00 -0.37558345910E+02  0.37558346248E+02  0.50400000000E-02 0.  1.
         24    2    1    2    0    0 -0.35527136788E-14 -0.17763568394E-14  0.15460042601E+02  0.90576734820E+02  0.89247588054E+02 0.  0.
         66    2    3    3    0    0 -0.31062980754E+02 -0.12731451145E+02  0.37535805893E+02  0.50397771288E+02  0.20000012908E+01 0.  0.
        -13    1    3    3    0    0  0.31062980754E+02  0.12731451145E+02 -0.22075763292E+02  0.40178963532E+02  0.10566000000E+00 0.  1.
         13    1    4    4    0    0 -0.20325196229E+02 -0.85449079863E+01  0.25527185474E+02  0.33730956353E+02  0.10566000000E+00 0. -1.
        -13    1    4    4    0    0 -0.13594975053E+01 -0.82914533652E+00  0.16073319370E+01  0.22650376260E+01  0.10566000000E+00 0.  1.
        -14    1    4    4    0    0 -0.93782870202E+01 -0.33573978220E+01  0.10401288482E+02  0.14401777309E+02  0.00000000000E+00 0.  1.
<mgrwt>
<rscale>  0 0.89247588E+02</rscale>
<asrwt>0</asrwt>
<pdfrwt beam="1">  1        2 0.81566751E-02 0.89247588E+02</pdfrwt>
<pdfrwt beam="2">  1       -1 0.57782071E-02 0.89247588E+02</pdfrwt>
<totfact> 0.11198610E+05</totfact>
</mgrwt>
</event>
<event>
 8    1  0.2676873E-020  0.7982130E+02  0.7818608E-02  0.1329559E+00
         -1   -1    0    0    0  501 -0.00000000000E+00  0.00000000000E+00  0.21659254423E+01  0.21659313062E+01  0.50400000000E-02 0.  1.
          2   -1    0    0  501    0  0.00000000000E+00 -0.00000000000E+00 -0.73541672687E+03  0.73541672687E+03  0.25500000000E-02 0. -1.
         24    2    1    2    0    0  0.00000000000E+00 -0.35527136788E-14 -0.73325080143E+03  0.73758265818E+03  0.79821299504E+02 0.  0.
         66    2    3    3    0    0  0.68424443390E+00  0.27442052506E+02 -0.63424038405E+03  0.63483730135E+03  0.19999983958E+01 0.  0.
        -13    1    3    3    0    0 -0.68424443390E+00 -0.27442052506E+02 -0.99010417376E+02  0.10274535683E+03  0.10566000000E+00 0.  1.
         13    1    4    4    0    0  0.95996319856E+00  0.23930231361E+02 -0.55370847499E+03  0.55422618483E+03  0.10566000000E+00 0. -1.
        -13    1    4    4    0    0  0.78876232107E-01  0.41253799210E+00 -0.12968398560E+02  0.12975628474E+02  0.10566000000E+00 0.  1.
        -14    1    4    4    0    0 -0.35459499676E+00  0.30992831535E+01 -0.67563510496E+02  0.67635488053E+02  0.00000000000E+00 0.  1.
<mgrwt>
<rscale>  0 0.79821300E+02</rscale>
<asrwt>0</asrwt>
<pdfrwt beam="1">  1        2 0.11314084E+00 0.79821300E+02</pdfrwt>
<pdfrwt beam="2">  1       -1 0.33322034E-03 0.79821300E+02</pdfrwt>
<totfact> 0.34012997E+05</totfact>
</mgrwt>
</event>
<event>
 8    1  0.2676873E-020  0.7311154E+02  0.7818608E-02  0.1349821E+00
         -1   -1    0    0    0  501 -0.00000000000E+00  0.00000000000E+00  0.70203547375E+01  0.70203565466E+01  0.50400000000E-02 0.  1.
          2   -1    0    0  501    0  0.00000000000E+00 -0.00000000000E+00 -0.19034992175E+03  0.19034992177E+03  0.25500000000E-02 0. -1.
         24    2    1    2    0    0  0.00000000000E+00  0.00000000000E+00 -0.18332956702E+03  0.19737027832E+03  0.73111535484E+02 0.  0.
         66    2    3    3    0    0 -0.59857979155E+01  0.31465602993E+02 -0.13914175211E+03  0.14279475177E+03  0.20000006299E+01 0.  0.
        -13    1    3    3    0    0  0.59857979155E+01 -0.31465602993E+02 -0.44187814903E+02  0.54575526551E+02  0.10566000000E+00 0.  1.
         13    1    4    4    0    0 -0.15818322644E+01  0.11251324093E+02 -0.46956524541E+02  0.48311705084E+02  0.10566000000E+00 0. -1.
        -13    1    4    4    0    0 -0.30206510131E+01  0.11881052340E+02 -0.53676536928E+02  0.55058746062E+02  0.10566000000E+00 0.  1.
         14    1    4    4    0    0 -0.13833146379E+01  0.83332265600E+01 -0.38508690644E+02  0.39424300620E+02  0.00000000000E+00 0. -1.
<mgrwt>
<rscale>  0 0.73111535E+02</rscale>
<asrwt>0</asrwt>
<pdfrwt beam="1">  1        2 0.29284600E-01 0.73111535E+02</pdfrwt>
<pdfrwt beam="2">  1       -1 0.10800549E-02 0.73111535E+02</pdfrwt>
<totfact> 0.27471675E+05</totfact>
</mgrwt>
</event>
<event>
 8    1  0.2676873E-020  0.7962185E+02  0.7818608E-02  0.1330128E+00
          2   -1    0    0  501    0  0.00000000000E+00  0.00000000000E+00  0.74861640528E+03  0.74861640528E+03  0.25500000000E-02 0. -1.
         -1   -1    0    0    0  501 -0.00000000000E+00 -0.00000000000E+00 -0.21171157795E+01  0.21171217786E+01  0.50400000000E-02 0.  1.
         24    2    1    2    0    0  0.00000000000E+00  0.44408920985E-15  0.74649928950E+03  0.75073352706E+03  0.79621852726E+02 0.  0.
         66    2    3    3    0    0 -0.15916476050E+02 -0.28536480270E+01  0.71623269074E+03  0.71641799586E+03  0.19999989004E+01 0.  0.
        -13    1    3    3    0    0  0.15916476050E+02  0.28536480270E+01  0.30266598759E+02  0.34315531198E+02  0.10566000000E+00 0.  1.
         13    1    4    4    0    0 -0.38665888009E+01 -0.12897109306E+01  0.17641211262E+03  0.17645922619E+03  0.10566000000E+00 0. -1.
        -13    1    4    4    0    0 -0.97760912057E+01 -0.97002433837E+00  0.41710783218E+03  0.41722352251E+03  0.10566000000E+00 0.  1.
         14    1    4    4    0    0 -0.22737960437E+01 -0.59391275803E+00  0.12271274594E+03  0.12273524717E+03  0.00000000000E+00 0. -1.
<mgrwt>
<rscale>  0 0.79621853E+02</rscale>
<asrwt>0</asrwt>
<pdfrwt beam="1">  1        2 0.11517176E+00 0.79621853E+02</pdfrwt>
<pdfrwt beam="2">  1       -1 0.32571056E-03 0.79621853E+02</pdfrwt>
<totfact> 0.34360464E+05</totfact>
</mgrwt>
</event>
<event>
 8    1  0.2676873E-020  0.7631349E+02  0.7818608E-02  0.1339851E+00
          2   -1    0    0  501    0  0.00000000000E+00  0.00000000000E+00  0.16011527207E+03  0.16011527209E+03  0.25500000000E-02 0. -1.
         -1   -1    0    0    0  501 -0.00000000000E+00 -0.00000000000E+00 -0.90930562481E+01  0.90930576449E+01  0.50400000000E-02 0.  1.
         24    2    1    2    0    0 -0.17763568394E-14 -0.17763568394E-14  0.15102221582E+03  0.16920832973E+03  0.76313492777E+02 0.  0.
         66    2    3    3    0    0  0.12841593056E+02  0.97406199882E+01  0.15218406439E+03  0.15304827880E+03  0.19999998415E+01 0.  0.
        -13    1    3    3    0    0 -0.12841593056E+02 -0.97406199882E+01 -0.11618485720E+01  0.16160050932E+02  0.10566000000E+00 0.  1.
         13    1    4    4    0    0  0.83085576650E+01  0.63359405639E+01  0.10709269873E+03  0.10760127117E+03  0.10566000000E+00 0. -1.
        -13    1    4    4    0    0  0.18242413955E+01  0.13563184436E+01  0.17408871436E+02  0.17556976536E+02  0.10566000000E+00 0.  1.
         14    1    4    4    0    0  0.27087939954E+01  0.20483609807E+01  0.27682494228E+02  0.27890031092E+02  0.00000000000E+00 0. -1.
<mgrwt>
<rscale>  0 0.76313493E+02</rscale>
<asrwt>0</asrwt>
<pdfrwt beam="1">  1        2 0.24633116E-01 0.76313493E+02</pdfrwt>
<pdfrwt beam="2">  1       -1 0.13989320E-02 0.76313493E+02</pdfrwt>
<totfact> 0.23176962E+05</totfact>
</mgrwt>
</event>
<event>
 8    1  0.2676873E-020  0.7968517E+02  0.7818608E-02  0.1329947E+00
          2   -1    0    0  501    0  0.00000000000E+00  0.00000000000E+00  0.39510229610E+03  0.39510229611E+03  0.25500000000E-02 0. -1.
         -1   -1    0    0    0  501 -0.00000000000E+00 -0.00000000000E+00 -0.40177724846E+01  0.40177756457E+01  0.50400000000E-02 0.  1.
         24    2    1    2    0    0  0.35527136788E-14  0.35527136788E-14  0.39108452362E+03  0.39912007176E+03  0.79685174690E+02 0.  0.
         66    2    3    3    0    0  0.28469364666E+02  0.18572099285E+02  0.29952786229E+03  0.30145707470E+03  0.20000006870E+01 0.  0.
        -13    1    3    3    0    0 -0.28469364666E+02 -0.18572099285E+02  0.91556661325E+02  0.97662997053E+02  0.10566000000E+00 0.  1.
         13    1    4    4    0    0  0.81493286392E+01  0.51866662776E+01  0.81798026571E+02  0.82366506417E+02  0.10566000000E+00 0. -1.
        -13    1    4    4    0    0  0.19194096875E+02  0.13011791861E+02  0.20803819676E+03  0.20932659305E+03  0.10566000000E+00 0.  1.
        -14    1    4    4    0    0  0.11259391515E+01  0.37364114603E+00  0.96916389622E+01  0.97639752382E+01  0.00000000000E+00 0.  1.
<mgrwt>
<rscale>  0 0.79685175E+02</rscale>
<asrwt>0</asrwt>
<pdfrwt beam="1">  1        2 0.60784991E-01 0.79685175E+02</pdfrwt>
<pdfrwt beam="2">  1       -1 0.61811886E-03 0.79685175E+02</pdfrwt>
<totfact> 0.28423259E+05</totfact>
</mgrwt>
</event>
<event>
 8    1  0.2676873E-020  0.8786522E+02  0.7818608E-02  0.1308105E+00
          2   -1    0    0  501    0  0.00000000000E+00  0.00000000000E+00  0.91565797702E+03  0.91565797703E+03  0.25500000000E-02 0. -1.
         -1   -1    0    0    0  501 -0.00000000000E+00 -0.00000000000E+00 -0.21078520544E+01  0.21078580799E+01  0.50400000000E-02 0.  1.
         24    2    1    2    0    0  0.00000000000E+00 -0.35527136788E-14  0.91355012497E+03  0.91776583511E+03  0.87865222122E+02 0.  0.
         66    2    3    3    0    0 -0.15899285175E+02  0.31776485723E+02  0.72647519072E+03  0.72734636524E+03  0.19999975888E+01 0.  0.
        -13    1    3    3    0    0  0.15899285175E+02 -0.31776485723E+02  0.18707493425E+03  0.19041946986E+03  0.10566000000E+00 0.  1.
         13    1    4    4    0    0 -0.52538679960E+01  0.98901566783E+01  0.22786516383E+03  0.22814022525E+03  0.10566000000E+00 0. -1.
        -13    1    4    4    0    0 -0.30934015560E+01  0.49450080656E+01  0.11442010890E+03  0.11456873361E+03  0.10566000000E+00 0.  1.
        -14    1    4    4    0    0 -0.75520156230E+01  0.16941320979E+02  0.38418991799E+03  0.38463740638E+03  0.00000000000E+00 0.  1.
<mgrwt>
<rscale>  0 0.87865222E+02</rscale>
<asrwt>0</asrwt>
<pdfrwt beam="1">  1        2 0.14087083E+00 0.87865222E+02</pdfrwt>
<pdfrwt beam="2">  1       -1 0.32428454E-03 0.87865222E+02</pdfrwt>
<totfact> 0.27412092E+05</totfact>
</mgrwt>
</event>
<event>
 8    1  0.2676873E-020  0.7896349E+02  0.7818608E-02  0.1332019E+00
         -1   -1    0    0    0  501 -0.00000000000E+00  0.00000000000E+00  0.81670911265E+02  0.81670911420E+02  0.50400000000E-02 0.  1.
          2   -1    0    0  501    0  0.00000000000E+00 -0.00000000000E+00 -0.19086457381E+02  0.19086457551E+02  0.25500000000E-02 0. -1.
         24    2    1    2    0    0  0.00000000000E+00  0.00000000000E+00  0.62584453884E+02  0.10075736897E+03  0.78963494946E+02 0.  0.
         66    2    3    3    0    0  0.19610524517E+02 -0.41311014699E+01 -0.12056057158E+02  0.23473116217E+02  0.19999998843E+01 0.  0.
        -13    1    3    3    0    0 -0.19610524517E+02  0.41311014699E+01  0.74640511042E+02  0.77284252755E+02  0.10566000000E+00 0.  1.
         13    1    4    4    0    0  0.10179744258E+02 -0.16511497589E+01 -0.60468807338E+01  0.11955309253E+02  0.10566000000E+00 0. -1.
        -13    1    4    4    0    0  0.16919571231E+00  0.79702439882E-01 -0.16989512524E+00  0.27387598867E+00  0.10566000000E+00 0. -1.
        -14    1    4    4    0    0  0.92615845467E+01 -0.25596541509E+01 -0.58392812988E+01  0.11243930975E+02  0.00000000000E+00 0.  1.
<mgrwt>
<rscale>  0 0.78963495E+02</rscale>
<asrwt>0</asrwt>
<pdfrwt beam="1">  1        2 0.29363781E-02 0.78963495E+02</pdfrwt>
<pdfrwt beam="2">  1       -1 0.12564756E-01 0.78963495E+02</pdfrwt>
<totfact> 0.12768622E+05</totfact>
</mgrwt>
</event>
<event>
 8    1  0.2676873E-020  0.7321304E+02  0.7818608E-02  0.1349496E+00
          2   -1    0    0  501    0  0.00000000000E+00  0.00000000000E+00  0.33434568165E+03  0.33434568166E+03  0.25500000000E-02 0. -1.
         -1   -1    0    0    0  501 -0.00000000000E+00 -0.00000000000E+00 -0.40079384604E+01  0.40079416293E+01  0.50400000000E-02 0.  1.
         24    2    1    2    0    0  0.00000000000E+00  0.00000000000E+00  0.33033774319E+03  0.33835362329E+03  0.73213044037E+02 0.  0.
         66    2    3    3    0    0  0.22643250275E+02  0.11910783288E+02  0.28611084290E+03  0.28725946105E+03  0.19999991182E+01 0.  0.
        -13    1    3    3    0    0 -0.22643250275E+02 -0.11910783288E+02  0.44226900288E+02  0.51094162236E+02  0.10566000000E+00 0.  1.
         13    1    4    4    0    0  0.14586358141E+02  0.74861305768E+01  0.18204190539E+03  0.18277874733E+03  0.10566000000E+00 0. -1.
        -13    1    4    4    0    0  0.40840575563E+01  0.24846027205E+01  0.47916383424E+02  0.48154374061E+02  0.10566000000E+00 0.  1.
         14    1    4    4    0    0  0.39728345782E+01  0.19400499912E+01  0.56152554090E+02  0.56326339659E+02  0.00000000000E+00 0. -1.
<mgrwt>
<rscale>  0 0.73213044E+02</rscale>
<asrwt>0</asrwt>
<pdfrwt beam="1">  1        2 0.51437804E-01 0.73213044E+02</pdfrwt>
<pdfrwt beam="2">  1       -1 0.61660608E-03 0.73213044E+02</pdfrwt>
<totfact> 0.33399910E+05</totfact>
</mgrwt>
</event>
<event>
 8    1  0.2676873E-020  0.8247351E+02  0.7818608E-02  0.1322175E+00
          2   -1    0    0  501    0  0.00000000000E+00  0.00000000000E+00  0.32144512732E+02  0.32144512833E+02  0.25500000000E-02 0. -1.
         -1   -1    0    0    0  501 -0.00000000000E+00 -0.00000000000E+00 -0.52900791120E+02  0.52900791360E+02  0.50400000000E-02 0.  1.
         24    2    1    2    0    0 -0.88817841970E-15  0.00000000000E+00 -0.20756278388E+02  0.85045304193E+02  0.82473514977E+02 0.  0.
         66    2    3    3    0    0 -0.71313375178E+01  0.37355925344E+02  0.59899783646E+01  0.38551277184E+02  0.19999996545E+01 0.  0.
        -13    1    3    3    0    0  0.71313375178E+01 -0.37355925344E+02 -0.26746256753E+02  0.46494027008E+02  0.10566000000E+00 0.  1.
         13    1    4    4    0    0 -0.37723565899E+01  0.21870465794E+02  0.39592162563E+01  0.22544056993E+02  0.10566000000E+00 0. -1.
        -13    1    4    4    0    0 -0.28295658680E+01  0.14005848139E+02  0.20507805053E+01  0.14435618789E+02  0.10566000000E+00 0.  1.
        -14    1    4    4    0    0 -0.52941505996E+00  0.14796114115E+01 -0.20018396947E-01  0.15716014033E+01  0.00000000000E+00 0.  1.
<mgrwt>
<rscale>  0 0.82473515E+02</rscale>
<asrwt>0</asrwt>
<pdfrwt beam="1">  1        2 0.49453097E-02 0.82473515E+02</pdfrwt>
<pdfrwt beam="2">  1       -1 0.81385833E-02 0.82473515E+02</pdfrwt>
<totfact> 0.12525511E+05</totfact>
</mgrwt>
</event>
<event>
 8    1  0.2676873E-020  0.8043435E+02  0.7818608E-02  0.1327823E+00
          2   -1    0    0  501    0  0.00000000000E+00  0.00000000000E+00  0.40664966554E+03  0.40664966555E+03  0.25500000000E-02 0. -1.
         -1   -1    0    0    0  501 -0.00000000000E+00 -0.00000000000E+00 -0.39774297796E+01  0.39774329728E+01  0.50400000000E-02 0.  1.
         24    2    1    2    0    0  0.35527136788E-14  0.17763568394E-14  0.40267223576E+03  0.41062709852E+03  0.80434349549E+02 0.  0.
         66    2    3    3    0    0  0.20305605186E+02 -0.11379912192E+02  0.36873351374E+03  0.36947290044E+03  0.19999998057E+01 0.  0.
        -13    1    3    3    0    0 -0.20305605186E+02  0.11379912192E+02  0.33938722022E+02  0.41154198084E+02  0.10566000000E+00 0.  1.
         13    1    4    4    0    0  0.70524492324E+01 -0.39708300822E+01  0.11920383228E+03  0.11947832158E+03  0.10566000000E+00 0.  1.
        -13    1    4    4    0    0  0.40981293682E+01 -0.22232005810E+01  0.86650661934E+02  0.86776066187E+02  0.10566000000E+00 0. -1.
         14    1    4    4    0    0  0.91550265857E+01 -0.51858815290E+01  0.16287901952E+03  0.16321851268E+03  0.00000000000E+00 0. -1.
<mgrwt>
<rscale>  0 0.80434350E+02</rscale>
<asrwt>0</asrwt>
<pdfrwt beam="1">  1        2 0.62561466E-01 0.80434350E+02</pdfrwt>
<pdfrwt beam="2">  1       -1 0.61191273E-03 0.80434350E+02</pdfrwt>
<totfact> 0.28017393E+05</totfact>
</mgrwt>
</event>
<event>
 8    1  0.2676873E-020  0.7795097E+02  0.7818608E-02  0.1334969E+00
          2   -1    0    0  501    0  0.00000000000E+00  0.00000000000E+00  0.25413661771E+03  0.25413661772E+03  0.25500000000E-02 0. -1.
         -1   -1    0    0    0  501 -0.00000000000E+00 -0.00000000000E+00 -0.59774477108E+01  0.59774498356E+01  0.50400000000E-02 0.  1.
         24    2    1    2    0    0  0.00000000000E+00  0.00000000000E+00  0.24815917000E+03  0.26011406756E+03  0.77950974894E+02 0.  0.
         66    2    3    3    0    0 -0.35418559945E+02 -0.10062233167E+02  0.81773198950E+02  0.89702725650E+02  0.19999994291E+01 0.  0.
        -13    1    3    3    0    0  0.35418559945E+02  0.10062233167E+02  0.16638597105E+03  0.17041134191E+03  0.10566000000E+00 0.  1.
         13    1    4    4    0    0 -0.11305040346E+02 -0.27367993333E+01  0.26987941586E+02  0.29387993516E+02  0.10566000000E+00 0. -1.
        -13    1    4    4    0    0 -0.52958679944E+01 -0.13012483338E+01  0.12726545541E+02  0.13846139913E+02  0.10566000000E+00 0. -1.
         14    1    4    4    0    0 -0.18817651605E+02 -0.60241854998E+01  0.42058711822E+02  0.46468592221E+02  0.00000000000E+00 0. -1.
<mgrwt>
<rscale>  0 0.77950975E+02</rscale>
<asrwt>0</asrwt>
<pdfrwt beam="1">  1        2 0.39097947E-01 0.77950975E+02</pdfrwt>
<pdfrwt beam="2">  1       -1 0.91960738E-03 0.77950975E+02</pdfrwt>
<totfact> 0.25701235E+05</totfact>
</mgrwt>
</event>
<event>
 8    1  0.2676873E-020  0.7888413E+02  0.7818608E-02  0.1332248E+00
          2   -1    0    0  501    0  0.00000000000E+00  0.00000000000E+00  0.26803048727E+03  0.26803048728E+03  0.25500000000E-02 0. -1.
         -1   -1    0    0    0  501 -0.00000000000E+00 -0.00000000000E+00 -0.58041011330E+01  0.58041033212E+01  0.50400000000E-02 0.  1.
         24    2    1    2    0    0  0.00000000000E+00  0.00000000000E+00  0.26222638614E+03  0.27383459060E+03  0.78884126568E+02 0.  0.
         66    2    3    3    0    0 -0.25441601487E+02  0.15112258829E+01  0.23557546829E+03  0.23695856213E+03  0.20000041701E+01 0.  0.
        -13    1    3    3    0    0  0.25441601487E+02 -0.15112258829E+01  0.26650917849E+02  0.36876028476E+02  0.10566000000E+00 0.  1.
         13    1    4    4    0    0 -0.12792307214E+02  0.10280873735E+01  0.11412153926E+03  0.11484092030E+03  0.10566000000E+00 0. -1.
        -13    1    4    4    0    0 -0.22724651470E+00  0.74245783257E-01  0.16266219174E+01  0.16474878794E+01  0.10566000000E+00 0. -1.
         14    1    4    4    0    0 -0.12422047759E+02  0.40889272612E+00  0.11982730711E+03  0.12047015395E+03  0.00000000000E+00 0. -1.
<mgrwt>
<rscale>  0 0.78884127E+02</rscale>
<asrwt>0</asrwt>
<pdfrwt beam="1">  1        2 0.41235460E-01 0.78884127E+02</pdfrwt>
<pdfrwt beam="2">  1       -1 0.89293881E-03 0.78884127E+02</pdfrwt>
<totfact> 0.25393922E+05</totfact>
</mgrwt>
</event>
<event>
 8    1  0.2676873E-020  0.8109053E+02  0.7818608E-02  0.1325985E+00
          2   -1    0    0  501    0  0.00000000000E+00  0.00000000000E+00  0.51609190535E+02  0.51609190598E+02  0.25500000000E-02 0. -1.
         -1   -1    0    0    0  501 -0.00000000000E+00 -0.00000000000E+00 -0.31853213594E+02  0.31853213993E+02  0.50400000000E-02 0.  1.
         24    2    1    2    0    0  0.00000000000E+00  0.00000000000E+00  0.19755976941E+02  0.83462404591E+02  0.81090531847E+02 0.  0.
         66    2    3    3    0    0 -0.21862537288E+02 -0.32662101830E+02  0.20027714082E+02  0.44157590156E+02  0.20000010996E+01 0.  0.
        -13    1    3    3    0    0  0.21862537288E+02  0.32662101830E+02 -0.27173714061E+00  0.39304814435E+02  0.10566000000E+00 0.  1.
         13    1    4    4    0    0 -0.78855353665E+01 -0.10724994883E+02  0.67214284077E+01  0.14912945622E+02  0.10566000000E+00 0. -1.
        -13    1    4    4    0    0 -0.37840003988E+01 -0.70099380737E+01  0.40469744675E+01  0.89357180568E+01  0.10566000000E+00 0.  1.
        -14    1    4    4    0    0 -0.10193001523E+02 -0.14927168873E+02  0.92593112065E+01  0.20308926477E+02  0.00000000000E+00 0.  1.
<mgrwt>
<rscale>  0 0.81090532E+02</rscale>
<asrwt>0</asrwt>
<pdfrwt beam="1">  1        2 0.79398754E-02 0.81090532E+02</pdfrwt>
<pdfrwt beam="2">  1       -1 0.49004945E-02 0.81090532E+02</pdfrwt>
<totfact> 0.14499172E+05</totfact>
</mgrwt>
</event>
<event>
 8    1  0.2676873E-020  0.7980230E+02  0.7818608E-02  0.1329613E+00
         -1   -1    0    0    0  501 -0.00000000000E+00  0.00000000000E+00  0.22049331885E+01  0.22049389487E+01  0.50400000000E-02 0.  1.
          2   -1    0    0  501    0  0.00000000000E+00 -0.00000000000E+00 -0.72206263625E+03  0.72206263626E+03  0.25500000000E-02 0. -1.
         24    2    1    2    0    0 -0.35527136788E-14  0.00000000000E+00 -0.71985770307E+03  0.72426757521E+03  0.79802304690E+02 0.  0.
         66    2    3    3    0    0 -0.22811804093E+02  0.10154372966E+02 -0.64232286721E+03  0.64281113512E+03  0.19999996432E+01 0.  0.
        -13    1    3    3    0    0  0.22811804093E+02 -0.10154372966E+02 -0.77534835855E+02  0.81456440085E+02  0.10566000000E+00 0.  1.
         13    1    4    4    0    0 -0.21741080729E+02  0.98717870275E+01 -0.60709071464E+03  0.60756009886E+03  0.10566000000E+00 0. -1.
        -13    1    4    4    0    0 -0.36850492641E+00  0.21521223412E+00 -0.15678713987E+02  0.15684876426E+02  0.10566000000E+00 0.  1.
         14    1    4    4    0    0 -0.70221843780E+00  0.67373704035E-01 -0.19553438588E+02  0.19566159832E+02  0.00000000000E+00 0. -1.
<mgrwt>
<rscale>  0 0.79802305E+02</rscale>
<asrwt>0</asrwt>
<pdfrwt beam="1">  1        2 0.11108637E+00 0.79802305E+02</pdfrwt>
<pdfrwt beam="2">  1       -1 0.33922151E-03 0.79802305E+02</pdfrwt>
<totfact> 0.33901242E+05</totfact>
</mgrwt>
</event>
<event>
 8    1  0.2676873E-020  0.7845378E+02  0.7818608E-02  0.1333498E+00
         -1   -1    0    0    0  501 -0.00000000000E+00  0.00000000000E+00  0.92782495893E+01  0.92782509582E+01  0.50400000000E-02 0.  1.
          2   -1    0    0  501    0  0.00000000000E+00 -0.00000000000E+00 -0.16584474731E+03  0.16584474733E+03  0.25500000000E-02 0. -1.
         24    2    1    2    0    0  0.17763568394E-14  0.00000000000E+00 -0.15656649772E+03  0.17512299829E+03  0.78453784617E+02 0.  0.
         66    2    3    3    0    0  0.15347160428E+02 -0.35640052103E+02 -0.65906630276E+02  0.76507728799E+02  0.20000011408E+01 0.  0.
        -13    1    3    3    0    0 -0.15347160428E+02  0.35640052103E+02 -0.90659867443E+02  0.98615269487E+02  0.10566000000E+00 0.  1.
         13    1    4    4    0    0  0.34693679041E+01 -0.88340916671E+01 -0.15369584983E+02  0.18064135624E+02  0.10566000000E+00 0. -1.
        -13    1    4    4    0    0  0.36825012962E+01 -0.67883867344E+01 -0.13194922431E+02  0.15289216862E+02  0.10566000000E+00 0.  1.
         14    1    4    4    0    0  0.81952912272E+01 -0.20017573702E+02 -0.37342122862E+02  0.43154376314E+02  0.00000000000E+00 0. -1.
<mgrwt>
<rscale>  0 0.78453785E+02</rscale>
<asrwt>0</asrwt>
<pdfrwt beam="1">  1        2 0.25514574E-01 0.78453785E+02</pdfrwt>
<pdfrwt beam="2">  1       -1 0.14274232E-02 0.78453785E+02</pdfrwt>
<totfact> 0.21795050E+05</totfact>
</mgrwt>
</event>
<event>
 8    1  0.2676873E-020  0.8088552E+02  0.7818608E-02  0.1326557E+00
          2   -1    0    0  501    0  0.00000000000E+00  0.00000000000E+00  0.69860338678E+03  0.69860338678E+03  0.25500000000E-02 0. -1.
         -1   -1    0    0    0  501 -0.00000000000E+00 -0.00000000000E+00 -0.23412640648E+01  0.23412694895E+01  0.50400000000E-02 0.  1.
         24    2    1    2    0    0 -0.35527136788E-14  0.00000000000E+00  0.69626212271E+03  0.70094465627E+03  0.80885521766E+02 0.  0.
         66    2    3    3    0    0 -0.24821693671E+02 -0.22182118127E+02  0.54698859608E+03  0.54800427652E+03  0.20000002001E+01 0.  0.
        -13    1    3    3    0    0  0.24821693671E+02  0.22182118127E+02  0.14927352663E+03  0.15294037975E+03  0.10566000000E+00 0.  1.
         13    1    4    4    0    0 -0.88453618101E+01 -0.73387858082E+01  0.18960951895E+03  0.18995757169E+03  0.10566000000E+00 0. -1.
        -13    1    4    4    0    0 -0.21962936178E+01 -0.23039574568E+01  0.60165096952E+02  0.60249331788E+02  0.10566000000E+00 0.  1.
        -14    1    4    4    0    0 -0.13780038243E+02 -0.12539374862E+02  0.29721398018E+03  0.29779737304E+03  0.00000000000E+00 0.  1.
<mgrwt>
<rscale>  0 0.80885522E+02</rscale>
<asrwt>0</asrwt>
<pdfrwt beam="1">  1        2 0.10747764E+00 0.80885522E+02</pdfrwt>
<pdfrwt beam="2">  1       -1 0.36019424E-03 0.80885522E+02</pdfrwt>
<totfact> 0.32492634E+05</totfact>
</mgrwt>
</event>
<event>
 8    1  0.2676873E-020  0.7860222E+02  0.7818608E-02  0.1333066E+00
         -1   -1    0    0    0  501 -0.00000000000E+00  0.00000000000E+00  0.14512156656E+01  0.14512244174E+01  0.50400000000E-02 0.  1.
          2   -1    0    0  501    0  0.00000000000E+00 -0.00000000000E+00 -0.10643300740E+04  0.10643300740E+04  0.25500000000E-02 0. -1.
         24    2    1    2    0    0 -0.35527136788E-14  0.00000000000E+00 -0.10628788584E+04  0.10657812985E+04  0.78602217327E+02 0.  0.
         66    2    3    3    0    0 -0.27690207492E+02  0.13799515110E+01 -0.90899100171E+03  0.90941590762E+03  0.20000003836E+01 0.  0.
        -13    1    3    3    0    0  0.27690207492E+02 -0.13799515110E+01 -0.15388785666E+03  0.15636539083E+03  0.10566000000E+00 0.  1.
         13    1    4    4    0    0 -0.12635810219E+02  0.14186012245E+00 -0.41556373307E+03  0.41575583126E+03  0.10566000000E+00 0. -1.
        -13    1    4    4    0    0 -0.73096375849E+00  0.19946379354E+00 -0.33139345925E+02  0.33148175006E+02  0.10566000000E+00 0.  1.
         14    1    4    4    0    0 -0.14323433514E+02  0.10386275950E+01 -0.46028792271E+03  0.46051190136E+03  0.00000000000E+00 0. -1.
<mgrwt>
<rscale>  0 0.78602217E+02</rscale>
<asrwt>0</asrwt>
<pdfrwt beam="1">  1        2 0.16374247E+00 0.78602217E+02</pdfrwt>
<pdfrwt beam="2">  1       -1 0.22326547E-03 0.78602217E+02</pdfrwt>
<totfact> 0.36923001E+05</totfact>
</mgrwt>
</event>
<event>
 8    1  0.2676873E-020  0.7986180E+02  0.7818608E-02  0.1329444E+00
          2   -1    0    0  501    0  0.00000000000E+00  0.00000000000E+00  0.17928714032E+03  0.17928714034E+03  0.25500000000E-02 0. -1.
         -1   -1    0    0    0  501 -0.00000000000E+00 -0.00000000000E+00 -0.88934243896E+01  0.88934258178E+01  0.50400000000E-02 0.  1.
         24    2    1    2    0    0  0.00000000000E+00  0.71054273576E-14  0.17039371593E+03  0.18818056616E+03  0.79861799694E+02 0.  0.
         66    2    3    3    0    0  0.13732569930E+01 -0.37553306950E+02  0.11689300778E+03  0.12280110735E+03  0.19999999818E+01 0.  0.
        -13    1    3    3    0    0 -0.13732569930E+01  0.37553306950E+02  0.53500708153E+02  0.65379458812E+02  0.10566000000E+00 0.  1.
         13    1    4    4    0    0  0.17046941645E+01 -0.24991211923E+02  0.78934143684E+02  0.82813506500E+02  0.10566000000E+00 0.  1.
        -13    1    4    4    0    0 -0.15838534215E-02 -0.71016542920E+01  0.21066893906E+02  0.22231929271E+02  0.10566000000E+00 0. -1.
        -14    1    4    4    0    0 -0.32985331807E+00 -0.54604407358E+01  0.16891970191E+02  0.17755671578E+02  0.00000000000E+00 0.  1.
<mgrwt>
<rscale>  0 0.79861800E+02</rscale>
<asrwt>0</asrwt>
<pdfrwt beam="1">  1        2 0.27582640E-01 0.79861800E+02</pdfrwt>
<pdfrwt beam="2">  1       -1 0.13682191E-02 0.79861800E+02</pdfrwt>
<totfact> 0.21343137E+05</totfact>
</mgrwt>
</event>
<event>
 8    1  0.2676873E-020  0.8060450E+02  0.7818608E-02  0.1327345E+00
          2   -1    0    0  501    0  0.00000000000E+00  0.00000000000E+00  0.47242251183E+03  0.47242251183E+03  0.25500000000E-02 0. -1.
         -1   -1    0    0    0  501 -0.00000000000E+00 -0.00000000000E+00 -0.34381735336E+01  0.34381772276E+01  0.50400000000E-02 0.  1.
         24    2    1    2    0    0  0.00000000000E+00  0.00000000000E+00  0.46898433829E+03  0.47586068906E+03  0.80604502539E+02 0.  0.
         66    2    3    3    0    0  0.37133035008E+01  0.25094299764E+02  0.41933205262E+03  0.42010341922E+03  0.19999956595E+01 0.  0.
        -13    1    3    3    0    0 -0.37133035008E+01 -0.25094299764E+02  0.49652285678E+02  0.55757269845E+02  0.10566000000E+00 0.  1.
         13    1    4    4    0    0  0.10568684577E+01  0.10220290282E+02  0.15630946184E+03  0.15664683313E+03  0.10566000000E+00 0. -1.
        -13    1    4    4    0    0  0.40203589577E+00  0.24900909122E+01  0.41758749913E+02  0.41834991860E+02  0.10566000000E+00 0. -1.
         14    1    4    4    0    0  0.22543991473E+01  0.12383918570E+02  0.22126384086E+03  0.22162159423E+03  0.00000000000E+00 0. -1.
<mgrwt>
<rscale>  0 0.80604503E+02</rscale>
<asrwt>0</asrwt>
<pdfrwt beam="1">  1        2 0.72680399E-01 0.80604503E+02</pdfrwt>
<pdfrwt beam="2">  1       -1 0.52894997E-03 0.80604503E+02</pdfrwt>
<totfact> 0.29316003E+05</totfact>
</mgrwt>
</event>
<event>
 8    1  0.2676873E-020  0.8384101E+02  0.7818608E-02  0.1318492E+00
          2   -1    0    0  501    0  0.00000000000E+00  0.00000000000E+00  0.18603948040E+03  0.18603948041E+03  0.25500000000E-02 0. -1.
         -1   -1    0    0    0  501 -0.00000000000E+00 -0.00000000000E+00 -0.94459987881E+01  0.94460001327E+01  0.50400000000E-02 0.  1.
         24    2    1    2    0    0  0.17763568394E-14  0.00000000000E+00  0.17659348161E+03  0.19548548055E+03  0.83841012386E+02 0.  0.
         66    2    3    3    0    0 -0.15620800263E+02 -0.33166186385E+02  0.13563442832E+03  0.14051584774E+03  0.20000002452E+01 0.  0.
        -13    1    3    3    0    0  0.15620800263E+02  0.33166186385E+02  0.40959053285E+02  0.54969632800E+02  0.10566000000E+00 0.  1.
         13    1    4    4    0    0 -0.32137294690E+01 -0.57897380674E+01  0.26519848644E+02  0.27334276287E+02  0.10566000000E+00 0.  1.
        -13    1    4    4    0    0 -0.62136502157E+01 -0.13254297273E+02  0.54478243008E+02  0.56410778850E+02  0.10566000000E+00 0. -1.
        -14    1    4    4    0    0 -0.61934205785E+01 -0.14122151045E+02  0.54636336671E+02  0.56770792608E+02  0.00000000000E+00 0.  1.
<mgrwt>
<rscale>  0 0.83841012E+02</rscale>
<asrwt>0</asrwt>
<pdfrwt beam="1">  1        2 0.28621455E-01 0.83841012E+02</pdfrwt>
<pdfrwt beam="2">  1       -1 0.14532309E-02 0.83841012E+02</pdfrwt>
<totfact> 0.19001918E+05</totfact>
</mgrwt>
</event>
<event>
 8    1  0.2676873E-020  0.7875154E+02  0.7818608E-02  0.1332632E+00
          2   -1    0    0  501    0  0.00000000000E+00  0.00000000000E+00  0.45324330580E+03  0.45324330581E+03  0.25500000000E-02 0. -1.
         -1   -1    0    0    0  501 -0.00000000000E+00 -0.00000000000E+00 -0.34207908291E+01  0.34207945420E+01  0.50400000000E-02 0.  1.
         24    2    1    2    0    0  0.00000000000E+00  0.00000000000E+00  0.44982251497E+03  0.45666410035E+03  0.78751543305E+02 0.  0.
         66    2    3    3    0    0  0.31526506789E+02  0.12901680844E+02  0.33928960451E+03  0.34100118729E+03  0.20000009840E+01 0.  0.
        -13    1    3    3    0    0 -0.31526506789E+02 -0.12901680844E+02  0.11053291046E+03  0.11566291306E+03  0.10566000000E+00 0.  1.
         13    1    4    4    0    0  0.46279977812E+01  0.24477589562E+01  0.51249473991E+02  0.51516304563E+02  0.10566000000E+00 0. -1.
        -13    1    4    4    0    0  0.11715912872E+02  0.41174133623E+01  0.12854214817E+03  0.12914066257E+03  0.10566000000E+00 0.  1.
         14    1    4    4    0    0  0.15182596136E+02  0.63365085258E+01  0.15949798235E+03  0.16034422016E+03  0.00000000000E+00 0. -1.
<mgrwt>
<rscale>  0 0.78751543E+02</rscale>
<asrwt>0</asrwt>
<pdfrwt beam="1">  1        2 0.69729672E-01 0.78751543E+02</pdfrwt>
<pdfrwt beam="2">  1       -1 0.52627631E-03 0.78751543E+02</pdfrwt>
<totfact> 0.30723572E+05</totfact>
</mgrwt>
</event>
<event>
 8    1  0.2676873E-020  0.7873277E+02  0.7818608E-02  0.1332687E+00
          2   -1    0    0  501    0  0.00000000000E+00  0.00000000000E+00  0.30241269862E+02  0.30241269970E+02  0.25500000000E-02 0. -1.
         -1   -1    0    0    0  501 -0.00000000000E+00 -0.00000000000E+00 -0.51244945262E+02  0.51244945510E+02  0.50400000000E-02 0.  1.
         24    2    1    2    0    0  0.88817841970E-15 -0.17763568394E-14 -0.21003675400E+02  0.81486215479E+02  0.78732769117E+02 0.  0.
         66    2    3    3    0    0 -0.69590615235E+01  0.13765669068E+02  0.26948029867E+02  0.31114602598E+02  0.19999997392E+01 0.  0.
        -13    1    3    3    0    0  0.69590615235E+01 -0.13765669068E+02 -0.47951705267E+02  0.50371612881E+02  0.10566000000E+00 0.  1.
         13    1    4    4    0    0 -0.39674700617E+01  0.72742797855E+01  0.13079303340E+02  0.15483388033E+02  0.10566000000E+00 0. -1.
        -13    1    4    4    0    0 -0.29312027514E+01  0.65080330814E+01  0.13807417127E+02  0.15543563810E+02  0.10566000000E+00 0.  1.
        -14    1    4    4    0    0 -0.60388710379E-01 -0.16643798624E-01  0.61309399623E-01  0.87650755022E-01  0.00000000000E+00 0.  1.
<mgrwt>
<rscale>  0 0.78732769E+02</rscale>
<asrwt>0</asrwt>
<pdfrwt beam="1">  1        2 0.46525031E-02 0.78732769E+02</pdfrwt>
<pdfrwt beam="2">  1       -1 0.78838378E-02 0.78732769E+02</pdfrwt>
<totfact> 0.14092227E+05</totfact>
</mgrwt>
</event>
<event>
 8    1  0.2676873E-020  0.7973059E+02  0.7818608E-02  0.1329818E+00
         -1   -1    0    0    0  501 -0.00000000000E+00  0.00000000000E+00  0.28082085888E+01  0.28082131115E+01  0.50400000000E-02 0.  1.
          2   -1    0    0  501    0  0.00000000000E+00 -0.00000000000E+00 -0.56592679650E+03  0.56592679650E+03  0.25500000000E-02 0. -1.
         24    2    1    2    0    0  0.35527136788E-14 -0.35527136788E-14 -0.56311858791E+03  0.56873500961E+03  0.79730590824E+02 0.  0.
         66    2    3    3    0    0  0.31333492136E+02 -0.22443542485E+02 -0.35368473126E+03  0.35578418946E+03  0.20000040923E+01 0.  0.
        -13    1    3    3    0    0 -0.31333492136E+02  0.22443542485E+02 -0.20943385665E+03  0.21295082015E+03  0.10566000000E+00 0.  1.
         13    1    4    4    0    0  0.22030450767E+02 -0.16593267512E+02 -0.25527298724E+03  0.25675861518E+03  0.10566000000E+00 0. -1.
        -13    1    4    4    0    0  0.25008211015E+01 -0.12647212702E+01 -0.25608624383E+02  0.25761724183E+02  0.10566000000E+00 0.  1.
         14    1    4    4    0    0  0.68022202676E+01 -0.45855537023E+01 -0.72803119634E+02  0.73263850102E+02  0.00000000000E+00 0. -1.
<mgrwt>
<rscale>  0 0.79730591E+02</rscale>
<asrwt>0</asrwt>
<pdfrwt beam="1">  1        2 0.87065570E-01 0.79730591E+02</pdfrwt>
<pdfrwt beam="2">  1       -1 0.43203289E-03 0.79730591E+02</pdfrwt>
<totfact> 0.31909000E+05</totfact>
</mgrwt>
</event>
<event>
 8    1  0.2676873E-020  0.7882181E+02  0.7818608E-02  0.1332429E+00
         -1   -1    0    0    0  501 -0.00000000000E+00  0.00000000000E+00  0.13614575726E+03  0.13614575736E+03  0.50400000000E-02 0.  1.
          2   -1    0    0  501    0  0.00000000000E+00 -0.00000000000E+00 -0.11408504881E+02  0.11408505166E+02  0.25500000000E-02 0. -1.
         24    2    1    2    0    0  0.00000000000E+00  0.00000000000E+00  0.12473725238E+03  0.14755426252E+03  0.78821813332E+02 0.  0.
         66    2    3    3    0    0 -0.30480009609E+02 -0.19805296489E+02  0.34022494401E+02  0.49827811475E+02  0.19999790891E+01 0.  0.
        -13    1    3    3    0    0  0.30480009609E+02  0.19805296489E+02  0.90714757983E+02  0.97726451050E+02  0.10566000000E+00 0.  1.
         13    1    4    4    0    0 -0.10577967829E+02 -0.76544665515E+01  0.12651230170E+02  0.18181007960E+02  0.10566000000E+00 0. -1.
        -13    1    4    4    0    0 -0.15706415728E+02 -0.97613603715E+01  0.17460418869E+02  0.25433305771E+02  0.10566000000E+00 0.  1.
        -14    1    4    4    0    0 -0.41956260528E+01 -0.23894695659E+01  0.39108453618E+01  0.62134977449E+01  0.00000000000E+00 0.  1.
<mgrwt>
<rscale>  0 0.78821813E+02</rscale>
<asrwt>0</asrwt>
<pdfrwt beam="1">  1        2 0.17551547E-02 0.78821813E+02</pdfrwt>
<pdfrwt beam="2">  1       -1 0.20945500E-01 0.78821813E+02</pdfrwt>
<totfact> 0.11471408E+05</totfact>
</mgrwt>
</event>
<event>
 8    1  0.2676873E-020  0.8025770E+02  0.7818608E-02  0.1328322E+00
          2   -1    0    0  501    0  0.00000000000E+00  0.00000000000E+00  0.60725925908E+03  0.60725925909E+03  0.25500000000E-02 0. -1.
         -1   -1    0    0    0  501 -0.00000000000E+00 -0.00000000000E+00 -0.26517886169E+01  0.26517934064E+01  0.50400000000E-02 0.  1.
         24    2    1    2    0    0  0.17763568394E-14  0.00000000000E+00  0.60460747047E+03  0.60991105250E+03  0.80257701262E+02 0.  0.
         66    2    3    3    0    0  0.11614080275E+02  0.28633563343E+02  0.49676723814E+03  0.49773130975E+03  0.20000012139E+01 0.  0.
        -13    1    3    3    0    0 -0.11614080275E+02 -0.28633563343E+02  0.10784023233E+03  0.11217974275E+03  0.10566000000E+00 0.  1.
         13    1    4    4    0    0  0.19731039952E+01  0.62421757087E+01  0.10369867778E+03  0.10390517232E+03  0.10566000000E+00 0. -1.
        -13    1    4    4    0    0  0.14826819509E+01  0.24526972908E+01  0.48722096923E+02  0.48806433617E+02  0.10566000000E+00 0.  1.
        -14    1    4    4    0    0  0.81582943284E+01  0.19938690343E+02  0.34434646344E+03  0.34501970382E+03  0.00000000000E+00 0.  1.
<mgrwt>
<rscale>  0 0.80257701E+02</rscale>
<asrwt>0</asrwt>
<pdfrwt beam="1">  1        2 0.93424402E-01 0.80257701E+02</pdfrwt>
<pdfrwt beam="2">  1       -1 0.40796828E-03 0.80257701E+02</pdfrwt>
<totfact> 0.32001737E+05</totfact>
</mgrwt>
</event>
<event>
 8    1  0.2676873E-020  0.8061011E+02  0.7818608E-02  0.1327329E+00
          2   -1    0    0  501    0  0.00000000000E+00  0.00000000000E+00  0.18941125964E+02  0.18941126135E+02  0.25500000000E-02 0. -1.
         -1   -1    0    0    0  501 -0.00000000000E+00 -0.00000000000E+00 -0.85765624122E+02  0.85765624270E+02  0.50400000000E-02 0.  1.
         24    2    1    2    0    0  0.00000000000E+00  0.00000000000E+00 -0.66824498158E+02  0.10470675041E+03  0.80610111192E+02 0.  0.
         66    2    3    3    0    0  0.18411012630E+02 -0.12300466521E+02  0.10274307181E+02  0.24491391456E+02  0.20000011705E+01 0.  0.
        -13    1    3    3    0    0 -0.18411012630E+02  0.12300466521E+02 -0.77098805339E+02  0.80215358950E+02  0.10566000000E+00 0.  1.
         13    1    4    4    0    0  0.42132130034E+01 -0.25802209861E+01  0.18732856122E+01  0.52847958494E+01  0.10566000000E+00 0.  1.
        -13    1    4    4    0    0  0.11370504555E+01 -0.12207914375E+01  0.10760263536E+01  0.19880171582E+01  0.10566000000E+00 0. -1.
         14    1    4    4    0    0  0.13060749171E+02 -0.84994540975E+01  0.73249952147E+01  0.17218578448E+02  0.00000000000E+00 0. -1.
<mgrwt>
<rscale>  0 0.80610111E+02</rscale>
<asrwt>0</asrwt>
<pdfrwt beam="1">  1        2 0.29140194E-02 0.80610111E+02</pdfrwt>
<pdfrwt beam="2">  1       -1 0.13194711E-01 0.80610111E+02</pdfrwt>
<totfact> 0.12012798E+05</totfact>
</mgrwt>
</event>
<event>
 8    1  0.2676873E-020  0.8025703E+02  0.7818608E-02  0.1328324E+00
          2   -1    0    0  501    0  0.00000000000E+00  0.00000000000E+00  0.72296775845E+03  0.72296775845E+03  0.25500000000E-02 0. -1.
         -1   -1    0    0    0  501 -0.00000000000E+00 -0.00000000000E+00 -0.22273406288E+01  0.22273463310E+01  0.50400000000E-02 0.  1.
         24    2    1    2    0    0  0.00000000000E+00  0.00000000000E+00  0.72074041782E+03  0.72519510478E+03  0.80257025385E+02 0.  0.
         66    2    3    3    0    0 -0.21432244536E+02 -0.28586570975E+02  0.52517579260E+03  0.52639352796E+03  0.20000000401E+01 0.  0.
        -13    1    3    3    0    0  0.21432244536E+02  0.28586570975E+02  0.19556462522E+03  0.19880157682E+03  0.10566000000E+00 0.  1.
         13    1    4    4    0    0 -0.40007126394E+01 -0.46613011405E+01  0.88626345822E+02  0.88839032906E+02  0.10566000000E+00 0. -1.
        -13    1    4    4    0    0 -0.39489857766E+01 -0.45708960612E+01  0.93878358318E+02  0.94072551278E+02  0.10566000000E+00 0.  1.
         14    1    4    4    0    0 -0.13482546120E+02 -0.19354373774E+02  0.34267108846E+03  0.34348194377E+03  0.00000000000E+00 0. -1.
<mgrwt>
<rscale>  0 0.80257025E+02</rscale>
<asrwt>0</asrwt>
<pdfrwt beam="1">  1        2 0.11122586E+00 0.80257025E+02</pdfrwt>
<pdfrwt beam="2">  1       -1 0.34266806E-03 0.80257025E+02</pdfrwt>
<totfact> 0.33413350E+05</totfact>
</mgrwt>
</event>
<event>
 8    1  0.2676873E-020  0.8061431E+02  0.7818608E-02  0.1327317E+00
         -1   -1    0    0    0  501 -0.00000000000E+00  0.00000000000E+00  0.58680781749E+02  0.58680781965E+02  0.50400000000E-02 0.  1.
          2   -1    0    0  501    0  0.00000000000E+00 -0.00000000000E+00 -0.27686520805E+02  0.27686520923E+02  0.25500000000E-02 0. -1.
         24    2    1    2    0    0  0.00000000000E+00  0.00000000000E+00  0.30994260943E+02  0.86367302888E+02  0.80614308883E+02 0.  0.
         66    2    3    3    0    0  0.20325314890E+02 -0.23302122526E+02 -0.12153538576E+02  0.33283867553E+02  0.19999999426E+01 0.  0.
        -13    1    3    3    0    0 -0.20325314890E+02  0.23302122526E+02  0.43147799519E+02  0.53083435335E+02  0.10566000000E+00 0.  1.
         13    1    4    4    0    0  0.56055050500E+01 -0.61598920839E+01 -0.34462278947E+01  0.90140783271E+01  0.10566000000E+00 0. -1.
        -13    1    4    4    0    0  0.43628305533E+01 -0.44614579995E+01 -0.30564905399E+01  0.69492586924E+01  0.10566000000E+00 0. -1.
        -14    1    4    4    0    0  0.10356979287E+02 -0.12680772442E+02 -0.56508201410E+01  0.17320530533E+02  0.00000000000E+00 0.  1.
<mgrwt>
<rscale>  0 0.80614309E+02</rscale>
<asrwt>0</asrwt>
<pdfrwt beam="1">  1        2 0.42594648E-02 0.80614309E+02</pdfrwt>
<pdfrwt beam="2">  1       -1 0.90278126E-02 0.80614309E+02</pdfrwt>
<totfact> 0.12961806E+05</totfact>
</mgrwt>
</event>
<event>
 8    1  0.2676873E-020  0.7778747E+02  0.7818608E-02  0.1335450E+00
          2   -1    0    0  501    0  0.00000000000E+00  0.00000000000E+00  0.19142666409E+03  0.19142666411E+03  0.25500000000E-02 0. -1.
         -1   -1    0    0    0  501 -0.00000000000E+00 -0.00000000000E+00 -0.79023610136E+01  0.79023626208E+01  0.50400000000E-02 0.  1.
         24    2    1    2    0    0 -0.17763568394E-14  0.35527136788E-14  0.18352430308E+03  0.19932902673E+03  0.77787473777E+02 0.  0.
         66    2    3    3    0    0  0.11804663965E+02 -0.29308267197E+02  0.14982725996E+03  0.15313566685E+03  0.20000048395E+01 0.  0.
        -13    1    3    3    0    0 -0.11804663965E+02  0.29308267197E+02  0.33697043122E+02  0.46193359876E+02  0.10566000000E+00 0.  1.
         13    1    4    4    0    0  0.45649273178E+01 -0.13092934149E+02  0.62297883763E+02  0.63822417468E+02  0.10566000000E+00 0. -1.
        -13    1    4    4    0    0  0.19092408456E+01 -0.45740496015E+01  0.24493313650E+02  0.24990012164E+02  0.10566000000E+00 0.  1.
         14    1    4    4    0    0  0.53304958013E+01 -0.11641283446E+02  0.63036062543E+02  0.64323237221E+02  0.00000000000E+00 0. -1.
<mgrwt>
<rscale>  0 0.77787474E+02</rscale>
<asrwt>0</asrwt>
<pdfrwt beam="1">  1        2 0.29450251E-01 0.77787474E+02</pdfrwt>
<pdfrwt beam="2">  1       -1 0.12157482E-02 0.77787474E+02</pdfrwt>
<totfact> 0.23394601E+05</totfact>
</mgrwt>
</event>
<event>
 8    1  0.2676873E-020  0.8027081E+02  0.7818608E-02  0.1328285E+00
         -1   -1    0    0    0  501 -0.00000000000E+00  0.00000000000E+00  0.71911755017E+02  0.71911755193E+02  0.50400000000E-02 0.  1.
          2   -1    0    0  501    0  0.00000000000E+00 -0.00000000000E+00 -0.22400382228E+02  0.22400382373E+02  0.25500000000E-02 0. -1.
         24    2    1    2    0    0 -0.17763568394E-14  0.00000000000E+00  0.49511372789E+02  0.94312137567E+02  0.80270811986E+02 0.  0.
         66    2    3    3    0    0  0.11473050353E+02  0.34189102139E+02  0.41404539802E+01  0.36354765067E+02  0.19999985979E+01 0.  0.
        -13    1    3    3    0    0 -0.11473050353E+02 -0.34189102139E+02  0.45370918808E+02  0.57957372500E+02  0.10566000000E+00 0.  1.
         13    1    4    4    0    0  0.30595270626E+01  0.80553793308E+01  0.91818975466E+00  0.86662609280E+01  0.10566000000E+00 0. -1.
        -13    1    4    4    0    0  0.54622500732E+01  0.16848374106E+02  0.13171733362E+01  0.17760912012E+02  0.10566000000E+00 0.  1.
         14    1    4    4    0    0  0.29512732175E+01  0.92853487027E+01  0.19050908894E+01  0.99275921266E+01  0.00000000000E+00 0. -1.
<mgrwt>
<rscale>  0 0.80270812E+02</rscale>
<asrwt>0</asrwt>
<pdfrwt beam="1">  1        2 0.34462127E-02 0.80270812E+02</pdfrwt>
<pdfrwt beam="2">  1       -1 0.11063347E-01 0.80270812E+02</pdfrwt>
<totfact> 0.12579339E+05</totfact>
</mgrwt>
</event>
<event>
 8    1  0.2676873E-020  0.7707999E+02  0.7818608E-02  0.1337548E+00
          2   -1    0    0  501    0  0.00000000000E+00  0.00000000000E+00  0.10539485482E+02  0.10539485791E+02  0.25500000000E-02 0. -1.
         -1   -1    0    0    0  501 -0.00000000000E+00 -0.00000000000E+00 -0.14093015441E+03  0.14093015450E+03  0.50400000000E-02 0.  1.
         24    2    1    2    0    0  0.00000000000E+00  0.00000000000E+00 -0.13039066893E+03  0.15146964029E+03  0.77079993424E+02 0.  0.
         66    2    3    3    0    0  0.20984087103E+02 -0.32240387533E+02 -0.68942640248E+02  0.78973806669E+02  0.19999988994E+01 0.  0.
        -13    1    3    3    0    0 -0.20984087103E+02  0.32240387533E+02 -0.61448028678E+02  0.72495833620E+02  0.10566000000E+00 0.  1.
         13    1    4    4    0    0  0.72058072367E+01 -0.11875590612E+02 -0.25641970767E+02  0.29162906905E+02  0.10566000000E+00 0. -1.
        -13    1    4    4    0    0  0.40447315989E+01 -0.50350458359E+01 -0.11677659992E+02  0.13345053286E+02  0.10566000000E+00 0.  1.
        -14    1    4    4    0    0  0.97335482670E+01 -0.15329751086E+02 -0.31623009490E+02  0.36465846479E+02  0.00000000000E+00 0.  1.
<mgrwt>
<rscale>  0 0.77079993E+02</rscale>
<asrwt>0</asrwt>
<pdfrwt beam="1">  1        2 0.16214594E-02 0.77079993E+02</pdfrwt>
<pdfrwt beam="2">  1       -1 0.21681561E-01 0.77079993E+02</pdfrwt>
<totfact> 0.12034587E+05</totfact>
</mgrwt>
</event>
<event>
 8    1  0.2676873E-020  0.7882151E+02  0.7818608E-02  0.1332429E+00
          2   -1    0    0  501    0  0.00000000000E+00  0.00000000000E+00  0.27129610497E+02  0.27129610617E+02  0.25500000000E-02 0. -1.
         -1   -1    0    0    0  501 -0.00000000000E+00 -0.00000000000E+00 -0.57251373964E+02  0.57251374185E+02  0.50400000000E-02 0.  1.
         24    2    1    2    0    0  0.00000000000E+00  0.00000000000E+00 -0.30121763467E+02  0.84380984802E+02  0.78821506975E+02 0.  0.
         66    2    3    3    0    0  0.99960231013E+01 -0.26604322621E+02  0.14119713207E+02  0.31797433360E+02  0.20000018114E+01 0.  0.
        -13    1    3    3    0    0 -0.99960231013E+01  0.26604322621E+02 -0.44241476674E+02  0.52583551442E+02  0.10566000000E+00 0.  1.
         13    1    4    4    0    0  0.50633851220E+01 -0.11974330108E+02  0.65198804488E+01  0.14544499150E+02  0.10566000000E+00 0. -1.
        -13    1    4    4    0    0  0.82902646798E+00 -0.13397780928E+01  0.73256523783E+00  0.17407199907E+01  0.10566000000E+00 0. -1.
        -14    1    4    4    0    0  0.41036115114E+01 -0.13290214420E+02  0.68672675204E+01  0.15512214219E+02  0.00000000000E+00 0.  1.
<mgrwt>
<rscale>  0 0.78821507E+02</rscale>
<asrwt>0</asrwt>
<pdfrwt beam="1">  1        2 0.41737862E-02 0.78821507E+02</pdfrwt>
<pdfrwt beam="2">  1       -1 0.88079038E-02 0.78821507E+02</pdfrwt>
<totfact> 0.13753934E+05</totfact>
</mgrwt>
</event>
<event>
 8    1  0.2676873E-020  0.8013501E+02  0.7818608E-02  0.1328669E+00
         -1   -1    0    0    0  501 -0.00000000000E+00  0.00000000000E+00  0.62115375011E+02  0.62115375215E+02  0.50400000000E-02 0.  1.
          2   -1    0    0  501    0  0.00000000000E+00 -0.00000000000E+00 -0.25845533970E+02  0.25845534095E+02  0.25500000000E-02 0. -1.
         24    2    1    2    0    0  0.00000000000E+00  0.00000000000E+00  0.36269841041E+02  0.87960909311E+02  0.80135012308E+02 0.  0.
         66    2    3    3    0    0  0.80574149028E+01  0.32068954011E+02 -0.66439091785E+01  0.33785814772E+02  0.20000010869E+01 0.  0.
        -13    1    3    3    0    0 -0.80574149028E+01 -0.32068954011E+02  0.42913750219E+02  0.54175094538E+02  0.10566000000E+00 0.  1.
         13    1    4    4    0    0  0.23349299321E+01  0.10818581930E+02 -0.29705968081E+01  0.11459896256E+02  0.10566000000E+00 0. -1.
        -13    1    4    4    0    0  0.71983317283E+00  0.19271419827E+01 -0.41845056717E+00  0.21019754829E+01  0.10566000000E+00 0.  1.
         14    1    4    4    0    0  0.50026517978E+01  0.19323230099E+02 -0.32548618033E+01  0.20223943033E+02  0.00000000000E+00 0. -1.
<mgrwt>
<rscale>  0 0.80135012E+02</rscale>
<asrwt>0</asrwt>
<pdfrwt beam="1">  1        2 0.39762361E-02 0.80135012E+02</pdfrwt>
<pdfrwt beam="2">  1       -1 0.95562114E-02 0.80135012E+02</pdfrwt>
<totfact> 0.13003686E+05</totfact>
</mgrwt>
</event>
<event>
 8    1  0.2676873E-020  0.8261333E+02  0.7818608E-02  0.1321795E+00
          2   -1    0    0  501    0  0.00000000000E+00  0.00000000000E+00  0.29732427491E+03  0.29732427492E+03  0.25500000000E-02 0. -1.
         -1   -1    0    0    0  501 -0.00000000000E+00 -0.00000000000E+00 -0.57386514984E+01  0.57386537116E+01  0.50400000000E-02 0.  1.
         24    2    1    2    0    0  0.00000000000E+00 -0.35527136788E-14  0.29158562341E+03  0.30306292863E+03  0.82613333857E+02 0.  0.
         66    2    3    3    0    0 -0.42054662071E+01  0.31873043080E+02  0.24088018810E+03  0.24302436473E+03  0.20000031285E+01 0.  0.
        -13    1    3    3    0    0  0.42054662071E+01 -0.31873043080E+02  0.50705435311E+02  0.60038563901E+02  0.10566000000E+00 0.  1.
         13    1    4    4    0    0 -0.14869589858E+01  0.89913091898E+01  0.69786711912E+02  0.70379336538E+02  0.10566000000E+00 0. -1.
        -13    1    4    4    0    0  0.10364450851E+00  0.11058449738E+01  0.99623893656E+01  0.10024669630E+02  0.10566000000E+00 0.  1.
         14    1    4    4    0    0 -0.28221517298E+01  0.21775888916E+02  0.16113108682E+03  0.16262035856E+03  0.00000000000E+00 0. -1.
<mgrwt>
<rscale>  0 0.82613334E+02</rscale>
<asrwt>0</asrwt>
<pdfrwt beam="1">  1        2 0.45742208E-01 0.82613334E+02</pdfrwt>
<pdfrwt beam="2">  1       -1 0.88286941E-03 0.82613334E+02</pdfrwt>
<totfact> 0.23354674E+05</totfact>
</mgrwt>
</event>
<event>
 8    1  0.2676873E-020  0.7929816E+02  0.7818608E-02  0.1331055E+00
          2   -1    0    0  501    0  0.00000000000E+00  0.00000000000E+00  0.14090224507E+02  0.14090224738E+02  0.25500000000E-02 0. -1.
         -1   -1    0    0    0  501 -0.00000000000E+00 -0.00000000000E+00 -0.11157021440E+03  0.11157021452E+03  0.50400000000E-02 0.  1.
         24    2    1    2    0    0  0.00000000000E+00  0.00000000000E+00 -0.97479989895E+02  0.12566043925E+03  0.79298156116E+02 0.  0.
         66    2    3    3    0    0  0.26988094878E+02  0.76345418477E+01 -0.93124375230E+02  0.97276887018E+02  0.19999978724E+01 0.  0.
        -13    1    3    3    0    0 -0.26988094878E+02 -0.76345418477E+01 -0.43556146646E+01  0.28383552235E+02  0.10566000000E+00 0.  1.
         13    1    4    4    0    0  0.14389224616E+02  0.42554366698E+01 -0.47542762339E+02  0.49854628082E+02  0.10566000000E+00 0. -1.
        -13    1    4    4    0    0  0.11792426043E+02  0.32353616068E+01 -0.41749483772E+02  0.43503556589E+02  0.10566000000E+00 0.  1.
        -14    1    4    4    0    0  0.80644421951E+00  0.14374357110E+00 -0.38321291195E+01  0.39187023467E+01  0.00000000000E+00 0.  1.
<mgrwt>
<rscale>  0 0.79298156E+02</rscale>
<asrwt>0</asrwt>
<pdfrwt beam="1">  1        2 0.21677269E-02 0.79298156E+02</pdfrwt>
<pdfrwt beam="2">  1       -1 0.17164648E-01 0.79298156E+02</pdfrwt>
<totfact> 0.11831270E+05</totfact>
</mgrwt>
</event>
<event>
 8    1  0.2676873E-020  0.7825668E+02  0.7818608E-02  0.1334073E+00
          2   -1    0    0  501    0  0.00000000000E+00  0.00000000000E+00  0.90049108609E+03  0.90049108610E+03  0.25500000000E-02 0. -1.
         -1   -1    0    0    0  501 -0.00000000000E+00 -0.00000000000E+00 -0.17002096007E+01  0.17002170709E+01  0.50400000000E-02 0.  1.
         24    2    1    2    0    0  0.35527136788E-14  0.00000000000E+00  0.89879087649E+03  0.90219130317E+03  0.78256679238E+02 0.  0.
         66    2    3    3    0    0 -0.20122217462E+02 -0.52282476572E+01  0.83148973973E+03  0.83175202163E+03  0.20000025246E+01 0.  0.
        -13    1    3    3    0    0  0.20122217462E+02  0.52282476572E+01  0.67301136766E+02  0.70439281535E+02  0.10566000000E+00 0.  1.
         13    1    4    4    0    0 -0.13316212513E+02 -0.37267974884E+01  0.54086619035E+03  0.54104293504E+03  0.10566000000E+00 0. -1.
        -13    1    4    4    0    0 -0.17435645806E+01 -0.15485297146E+00  0.57719050040E+02  0.57745682942E+02  0.10566000000E+00 0.  1.
         14    1    4    4    0    0 -0.50624403687E+01 -0.13465971973E+01  0.23290449934E+03  0.23296340365E+03  0.00000000000E+00 0. -1.
<mgrwt>
<rscale>  0 0.78256679E+02</rscale>
<asrwt>0</asrwt>
<pdfrwt beam="1">  1        2 0.13853693E+00 0.78256679E+02</pdfrwt>
<pdfrwt beam="2">  1       -1 0.26157158E-03 0.78256679E+02</pdfrwt>
<totfact> 0.37003994E+05</totfact>
</mgrwt>
</event>
<event>
 8    1  0.2676873E-020  0.7953821E+02  0.7818608E-02  0.1330367E+00
         -1   -1    0    0    0  501 -0.00000000000E+00  0.00000000000E+00  0.53592753310E+02  0.53592753547E+02  0.50400000000E-02 0.  1.
          2   -1    0    0  501    0  0.00000000000E+00 -0.00000000000E+00 -0.29511114062E+02  0.29511114172E+02  0.25500000000E-02 0. -1.
         24    2    1    2    0    0 -0.17763568394E-14  0.00000000000E+00  0.24081639248E+02  0.83103867719E+02  0.79538213966E+02 0.  0.
         66    2    3    3    0    0 -0.12814975351E+02  0.19167890289E+01 -0.27208254806E+02  0.30202430408E+02  0.19999998875E+01 0.  0.
        -13    1    3    3    0    0  0.12814975351E+02 -0.19167890289E+01  0.51289894054E+02  0.52901437311E+02  0.10566000000E+00 0.  1.
         13    1    4    4    0    0 -0.59124672980E+01  0.52233198439E+00 -0.11003787276E+02  0.12502983592E+02  0.10566000000E+00 0. -1.
        -13    1    4    4    0    0 -0.58671910041E+01  0.14770730515E+01 -0.14355494638E+02  0.15578737607E+02  0.10566000000E+00 0.  1.
        -14    1    4    4    0    0 -0.10353170493E+01 -0.82616006952E-01 -0.18489728924E+01  0.21207092101E+01  0.00000000000E+00 0.  1.
<mgrwt>
<rscale>  0 0.79538214E+02</rscale>
<asrwt>0</asrwt>
<pdfrwt beam="1">  1        2 0.45401714E-02 0.79538214E+02</pdfrwt>
<pdfrwt beam="2">  1       -1 0.82450391E-02 0.79538214E+02</pdfrwt>
<totfact> 0.13631147E+05</totfact>
</mgrwt>
</event>
<event>
 8    1  0.2676873E-020  0.8006495E+02  0.7818608E-02  0.1328867E+00
          2   -1    0    0  501    0  0.00000000000E+00  0.00000000000E+00  0.65972998379E+02  0.65972998429E+02  0.25500000000E-02 0. -1.
         -1   -1    0    0    0  501 -0.00000000000E+00 -0.00000000000E+00 -0.24291738806E+02  0.24291739328E+02  0.50400000000E-02 0.  1.
         24    2    1    2    0    0  0.00000000000E+00  0.00000000000E+00  0.41681259574E+02  0.90264737757E+02  0.80064945405E+02 0.  0.
         66    2    3    3    0    0  0.13624236912E+02  0.29163541955E+02 -0.59314873145E+01  0.32791989075E+02  0.19999987224E+01 0.  0.
        -13    1    3    3    0    0 -0.13624236912E+02 -0.29163541955E+02  0.47612746888E+02  0.57472748682E+02  0.10566000000E+00 0.  1.
         13    1    4    4    0    0  0.71412133131E+00  0.21502947144E+01 -0.10920964662E+00  0.22708649051E+01  0.10566000000E+00 0. -1.
        -13    1    4    4    0    0  0.12533145603E+01  0.22393499382E+01 -0.75272054511E+00  0.26764225727E+01  0.10566000000E+00 0.  1.
         14    1    4    4    0    0  0.11656801021E+02  0.24773897303E+02 -0.50695571228E+01  0.27844701597E+02  0.00000000000E+00 0. -1.
<mgrwt>
<rscale>  0 0.80064945E+02</rscale>
<asrwt>0</asrwt>
<pdfrwt beam="1">  1        2 0.10149692E-01 0.80064945E+02</pdfrwt>
<pdfrwt beam="2">  1       -1 0.37371907E-02 0.80064945E+02</pdfrwt>
<totfact> 0.15882075E+05</totfact>
</mgrwt>
</event>
<event>
 8    1  0.2676873E-020  0.7933943E+02  0.7818608E-02  0.1330937E+00
         -1   -1    0    0    0  501 -0.00000000000E+00  0.00000000000E+00  0.17653215869E+01  0.17653287815E+01  0.50400000000E-02 0.  1.
          2   -1    0    0  501    0  0.00000000000E+00 -0.00000000000E+00 -0.89144264603E+03  0.89144264604E+03  0.25500000000E-02 0. -1.
         24    2    1    2    0    0  0.17763568394E-14 -0.35527136788E-14 -0.88967732445E+03  0.89320797482E+03  0.79339426802E+02 0.  0.
         66    2    3    3    0    0  0.13416101847E+02 -0.26994713531E+02 -0.73499641610E+03  0.73561704577E+03  0.20000001664E+01 0.  0.
        -13    1    3    3    0    0 -0.13416101847E+02  0.26994713531E+02 -0.15468090835E+03  0.15759092905E+03  0.10566000000E+00 0.  1.
         13    1    4    4    0    0  0.17597766584E+01 -0.43958909680E+01 -0.11374286583E+03  0.11384143078E+03  0.10566000000E+00 0. -1.
        -13    1    4    4    0    0  0.40554811395E+01 -0.94801528744E+01 -0.25430386843E+03  0.25451284621E+03  0.10566000000E+00 0. -1.
         14    1    4    4    0    0  0.76008440491E+01 -0.13118669688E+02 -0.36694968185E+03  0.36726276878E+03  0.00000000000E+00 0. -1.
<mgrwt>
<rscale>  0 0.79339427E+02</rscale>
<asrwt>0</asrwt>
<pdfrwt beam="1">  1        2 0.13714466E+00 0.79339427E+02</pdfrwt>
<pdfrwt beam="2">  1       -1 0.27158920E-03 0.79339427E+02</pdfrwt>
<totfact> 0.35668343E+05</totfact>
</mgrwt>
</event>
<event>
 8    1  0.2676873E-020  0.8064620E+02  0.7818608E-02  0.1327228E+00
         -1   -1    0    0    0  501 -0.00000000000E+00  0.00000000000E+00  0.11785389826E+01  0.11785497593E+01  0.50400000000E-02 0.  1.
          2   -1    0    0  501    0  0.00000000000E+00 -0.00000000000E+00 -0.13796276605E+04  0.13796276605E+04  0.25500000000E-02 0. -1.
         24    2    1    2    0    0 -0.17763568394E-14  0.17763568394E-14 -0.13784491215E+04  0.13808062102E+04  0.80646200686E+02 0.  0.
         66    2    3    3    0    0  0.13997900737E+02 -0.13816062625E+02 -0.12918672982E+04  0.12920185528E+04  0.20000001052E+01 0.  0.
        -13    1    3    3    0    0 -0.13997900737E+02  0.13816062625E+02 -0.86581823336E+02  0.88787657406E+02  0.10566000000E+00 0.  1.
         13    1    4    4    0    0  0.41389620978E+01 -0.44238044559E+01 -0.44641976099E+03  0.44646087759E+03  0.10566000000E+00 0. -1.
        -13    1    4    4    0    0  0.96828275995E+00 -0.91210048776E+00 -0.68492909095E+02  0.68505906747E+02  0.10566000000E+00 0.  1.
         14    1    4    4    0    0  0.88906558789E+01 -0.84801576812E+01 -0.77695462807E+03  0.77705176850E+03  0.00000000000E+00 0. -1.
<mgrwt>
<rscale>  0 0.80646201E+02</rscale>
<asrwt>0</asrwt>
<pdfrwt beam="1">  1        2 0.21224912E+00 0.80646201E+02</pdfrwt>
<pdfrwt beam="2">  1       -1 0.18131562E-03 0.80646201E+02</pdfrwt>
<totfact> 0.33443709E+05</totfact>
</mgrwt>
</event>
<event>
 8    1  0.2676873E-020  0.8093332E+02  0.7818608E-02  0.1326423E+00
         -1   -1    0    0    0  501 -0.00000000000E+00  0.00000000000E+00  0.28873428170E+01  0.28873472158E+01  0.50400000000E-02 0.  1.
          2   -1    0    0  501    0  0.00000000000E+00 -0.00000000000E+00 -0.56714749096E+03  0.56714749096E+03  0.25500000000E-02 0. -1.
         24    2    1    2    0    0  0.44408920985E-15  0.00000000000E+00 -0.56426014814E+03  0.57003483818E+03  0.80933317973E+02 0.  0.
         66    2    3    3    0    0  0.38644089640E+01  0.14376097283E+02 -0.54714548900E+03  0.54735161637E+03  0.19999975785E+01 0.  0.
        -13    1    3    3    0    0 -0.38644089640E+01 -0.14376097283E+02 -0.17114659144E+02  0.22683221803E+02  0.10566000000E+00 0.  1.
         13    1    4    4    0    0  0.14123924032E+01  0.58544531982E+01 -0.20024518058E+03  0.20033575064E+03  0.10566000000E+00 0. -1.
        -13    1    4    4    0    0  0.70998281109E+00  0.40178297529E+01 -0.14186473693E+03  0.14192343633E+03  0.10566000000E+00 0.  1.
        -14    1    4    4    0    0  0.17420337497E+01  0.45038143314E+01 -0.20503557149E+03  0.20509242941E+03  0.00000000000E+00 0.  1.
<mgrwt>
<rscale>  0 0.80933318E+02</rscale>
<asrwt>0</asrwt>
<pdfrwt beam="1">  1        2 0.87253372E-01 0.80933318E+02</pdfrwt>
<pdfrwt beam="2">  1       -1 0.44420738E-03 0.80933318E+02</pdfrwt>
<totfact> 0.30708117E+05</totfact>
</mgrwt>
</event>
<event>
 8    1  0.3211466E-020  0.7722571E+02  0.7818608E-02  0.1337114E+00
          2   -1    0    0  501    0  0.00000000000E+00  0.00000000000E+00  0.65400528904E+02  0.65400528954E+02  0.25500000000E-02 0. -1.
         -1   -1    0    0    0  501 -0.00000000000E+00 -0.00000000000E+00 -0.22797255197E+02  0.22797255754E+02  0.50400000000E-02 0.  1.
         24    2    1    2    0    0  0.00000000000E+00  0.17763568394E-14  0.42603273707E+02  0.88197784708E+02  0.77225710076E+02 0.  0.
         66    2    3    3    0    0 -0.63906627971E+01 -0.13196859024E+02  0.62079430430E+02  0.63818910578E+02  0.20000014457E+01 0.  0.
        -13    1    3    3    0    0  0.63906627971E+01  0.13196859024E+02 -0.19476156723E+02  0.24378874129E+02  0.10566000000E+00 0.  1.
         13    1    4    4    0    0 -0.26943219611E+01 -0.56900742349E+01  0.25630122142E+02  0.26392245844E+02  0.10566000000E+00 0. -1.
        -13    1    4    4    0    0 -0.26611672260E+01 -0.40864799919E+01  0.19085535850E+02  0.19698984046E+02  0.10566000000E+00 0.  1.
        -14    1    4    4    0    0 -0.10351736100E+01 -0.34203047970E+01  0.17363772439E+02  0.17727680689E+02  0.00000000000E+00 0.  1.
<mgrwt>
<rscale>  0 0.77225710E+02</rscale>
<asrwt>0</asrwt>
<pdfrwt beam="1">  1        2 0.10061620E-01 0.77225710E+02</pdfrwt>
<pdfrwt beam="2">  1       -1 0.35072701E-02 0.77225710E+02</pdfrwt>
<totfact> 0.17476153E+05</totfact>
</mgrwt>
</event>
<event>
 8    1  0.2676873E-020  0.8730616E+02  0.7818608E-02  0.1309510E+00
         -1   -1    0    0    0  501 -0.00000000000E+00  0.00000000000E+00  0.95824073745E+00  0.95825399165E+00  0.50400000000E-02 0.  1.
          2   -1    0    0  501    0  0.00000000000E+00 -0.00000000000E+00 -0.19886213994E+04  0.19886213994E+04  0.25500000000E-02 0. -1.
         24    2    1    2    0    0  0.00000000000E+00  0.00000000000E+00 -0.19876631587E+04  0.19895796534E+04  0.87306156096E+02 0.  0.
         66    2    3    3    0    0  0.80691777013E+01  0.18458722848E+02 -0.18762857681E+04  0.18763949796E+04  0.20000008412E+01 0.  0.
        -13    1    3    3    0    0 -0.80691777013E+01 -0.18458722848E+02 -0.11137739061E+03  0.11318467379E+03  0.10566000000E+00 0.  1.
         13    1    4    4    0    0  0.37545391654E+01  0.94295066324E+01 -0.99947097533E+03  0.99952251293E+03  0.10566000000E+00 0. -1.
        -13    1    4    4    0    0  0.89124095479E+00  0.12287970758E+01 -0.15204915298E+03  0.15205676683E+03  0.10566000000E+00 0.  1.
        -14    1    4    4    0    0  0.34233975811E+01  0.78004191402E+01 -0.72476563977E+03  0.72481569987E+03  0.00000000000E+00 0.  1.
<mgrwt>
<rscale>  0 0.87306156E+02</rscale>
<asrwt>0</asrwt>
<pdfrwt beam="1">  1        2 0.30593845E+00 0.87306156E+02</pdfrwt>
<pdfrwt beam="2">  1       -1 0.14742426E-03 0.87306156E+02</pdfrwt>
<totfact> 0.22196373E+05</totfact>
</mgrwt>
</event>
<event>
 8    1  0.2676873E-020  0.7942449E+02  0.7818608E-02  0.1330693E+00
          2   -1    0    0  501    0  0.00000000000E+00  0.00000000000E+00  0.10039571827E+02  0.10039572151E+02  0.25500000000E-02 0. -1.
         -1   -1    0    0    0  501 -0.00000000000E+00 -0.00000000000E+00 -0.15708462614E+03  0.15708462622E+03  0.50400000000E-02 0.  1.
         24    2    1    2    0    0  0.00000000000E+00 -0.71054273576E-14 -0.14704505431E+03  0.16712419837E+03  0.79424490451E+02 0.  0.
         66    2    3    3    0    0  0.12855646962E+02  0.37343636789E+02 -0.65353888286E+02  0.76386815566E+02  0.20000026890E+01 0.  0.
        -13    1    3    3    0    0 -0.12855646962E+02 -0.37343636789E+02 -0.81691166028E+02  0.90737382806E+02  0.10566000000E+00 0.  1.
         13    1    4    4    0    0  0.37944357245E+01  0.12552646926E+02 -0.21358650319E+02  0.25063315719E+02  0.10566000000E+00 0. -1.
        -13    1    4    4    0    0  0.14580923431E+01  0.32830522941E+01 -0.67581493230E+01  0.76542936940E+01  0.10566000000E+00 0.  1.
        -14    1    4    4    0    0  0.76031188946E+01  0.21507937569E+02 -0.37237088645E+02  0.43669206154E+02  0.00000000000E+00 0.  1.
<mgrwt>
<rscale>  0 0.79424490E+02</rscale>
<asrwt>0</asrwt>
<pdfrwt beam="1">  1        2 0.15445497E-02 0.79424490E+02</pdfrwt>
<pdfrwt beam="2">  1       -1 0.24166864E-01 0.79424490E+02</pdfrwt>
<totfact> 0.10856091E+05</totfact>
</mgrwt>
</event>
<event>
 8    1  0.2676873E-020  0.8014416E+02  0.7818608E-02  0.1328643E+00
          2   -1    0    0  501    0  0.00000000000E+00  0.00000000000E+00  0.24113938230E+02  0.24113938365E+02  0.25500000000E-02 0. -1.
         -1   -1    0    0    0  501 -0.00000000000E+00 -0.00000000000E+00 -0.66591019665E+02  0.66591019855E+02  0.50400000000E-02 0.  1.
         24    2    1    2    0    0  0.00000000000E+00 -0.35527136788E-14 -0.42477081435E+02  0.90704958220E+02  0.80144163846E+02 0.  0.
         66    2    3    3    0    0 -0.78396648697E+00  0.18654932812E+02  0.18844744528E+02  0.26603486902E+02  0.19999993357E+01 0.  0.
        -13    1    3    3    0    0  0.78396648697E+00 -0.18654932812E+02 -0.61321825963E+02  0.64101471318E+02  0.10566000000E+00 0.  1.
         13    1    4    4    0    0 -0.54898921058E+00  0.91279431855E+01  0.88339232430E+01  0.12714955755E+02  0.10566000000E+00 0. -1.
        -13    1    4    4    0    0 -0.62730249702E+00  0.75071269612E+01  0.73550051495E+01  0.10528899677E+02  0.10566000000E+00 0.  1.
        -14    1    4    4    0    0  0.39232522063E+00  0.20198626658E+01  0.26558161356E+01  0.33596314699E+01  0.00000000000E+00 0.  1.
<mgrwt>
<rscale>  0 0.80144164E+02</rscale>
<asrwt>0</asrwt>
<pdfrwt beam="1">  1        2 0.37098367E-02 0.80144164E+02</pdfrwt>
<pdfrwt beam="2">  1       -1 0.10244772E-01 0.80144164E+02</pdfrwt>
<totfact> 0.12822495E+05</totfact>
</mgrwt>
</event>
<event>
 8    1  0.2676873E-020  0.7906225E+02  0.7818608E-02  0.1331734E+00
         -1   -1    0    0    0  501 -0.00000000000E+00  0.00000000000E+00  0.21539488583E+01  0.21539547548E+01  0.50400000000E-02 0.  1.
          2   -1    0    0  501    0  0.00000000000E+00 -0.00000000000E+00 -0.72550821537E+03  0.72550821537E+03  0.25500000000E-02 0. -1.
         24    2    1    2    0    0 -0.17763568394E-14  0.00000000000E+00 -0.72335426651E+03  0.72766217013E+03  0.79062247354E+02 0.  0.
         66    2    3    3    0    0  0.14353929140E+02  0.15392801078E+02 -0.66960922643E+03  0.66994290035E+03  0.19999996047E+01 0.  0.
        -13    1    3    3    0    0 -0.14353929140E+02 -0.15392801078E+02 -0.53745040081E+02  0.57719269782E+02  0.10566000000E+00 0.  1.
         13    1    4    4    0    0  0.68487803377E+01  0.69455985355E+01 -0.29962243824E+03  0.29978119319E+03  0.10566000000E+00 0. -1.
        -13    1    4    4    0    0  0.26277547886E+01  0.20684117867E+01 -0.11250806777E+03  0.11255780692E+03  0.10566000000E+00 0.  1.
         14    1    4    4    0    0  0.48773940134E+01  0.63787907558E+01 -0.25747872042E+03  0.25760390023E+03  0.00000000000E+00 0. -1.
<mgrwt>
<rscale>  0 0.79062247E+02</rscale>
<asrwt>0</asrwt>
<pdfrwt beam="1">  1        2 0.11161645E+00 0.79062247E+02</pdfrwt>
<pdfrwt beam="2">  1       -1 0.33137778E-03 0.79062247E+02</pdfrwt>
<totfact> 0.34767300E+05</totfact>
</mgrwt>
</event>
<event>
 8    1  0.2676873E-020  0.7948849E+02  0.7818608E-02  0.1330509E+00
         -1   -1    0    0    0  501 -0.00000000000E+00  0.00000000000E+00  0.95281859921E+01  0.95281873251E+01  0.50400000000E-02 0.  1.
          2   -1    0    0  501    0  0.00000000000E+00 -0.00000000000E+00 -0.16578234336E+03  0.16578234338E+03  0.25500000000E-02 0. -1.
         24    2    1    2    0    0 -0.35527136788E-14  0.71054273576E-14 -0.15625415737E+03  0.17531053071E+03  0.79488492760E+02 0.  0.
         66    2    3    3    0    0  0.12841770944E+02 -0.27511840668E+02 -0.13465518992E+03  0.13805010912E+03  0.19999995118E+01 0.  0.
        -13    1    3    3    0    0 -0.12841770944E+02  0.27511840668E+02 -0.21598967454E+02  0.37260421589E+02  0.10566000000E+00 0.  1.
         13    1    4    4    0    0  0.89877179662E+01 -0.18620416463E+02 -0.90399454033E+02  0.92733874269E+02  0.10566000000E+00 0. -1.
        -13    1    4    4    0    0  0.18635824663E+01 -0.30670929359E+01 -0.16592939462E+02  0.16976949158E+02  0.10566000000E+00 0.  1.
        -14    1    4    4    0    0  0.19904705118E+01 -0.58243312692E+01 -0.27662796421E+02  0.28339285691E+02  0.00000000000E+00 0.  1.
<mgrwt>
<rscale>  0 0.79488493E+02</rscale>
<asrwt>0</asrwt>
<pdfrwt beam="1">  1        2 0.25504974E-01 0.79488493E+02</pdfrwt>
<pdfrwt beam="2">  1       -1 0.14658750E-02 0.79488493E+02</pdfrwt>
<totfact> 0.21050178E+05</totfact>
</mgrwt>
</event>
<event>
 8    1  0.2676873E-020  0.7913214E+02  0.7818608E-02  0.1331532E+00
          2   -1    0    0  501    0  0.00000000000E+00  0.00000000000E+00  0.27330308877E+02  0.27330308996E+02  0.25500000000E-02 0. -1.
         -1   -1    0    0    0  501 -0.00000000000E+00 -0.00000000000E+00 -0.57279770638E+02  0.57279770860E+02  0.50400000000E-02 0.  1.
         24    2    1    2    0    0  0.88817841970E-15  0.00000000000E+00 -0.29949461761E+02  0.84610079856E+02  0.79132138562E+02 0.  0.
         66    2    3    3    0    0  0.61153845564E+01 -0.30866554265E+02  0.10617518679E+02  0.33269713997E+02  0.20000165205E+01 0.  0.
        -13    1    3    3    0    0 -0.61153845564E+01  0.30866554265E+02 -0.40566980440E+02  0.51340365859E+02  0.10566000000E+00 0.  1.
         13    1    4    4    0    0  0.32082829880E+01 -0.15109163031E+02  0.44254307304E+01  0.16067840191E+02  0.10566000000E+00 0. -1.
        -13    1    4    4    0    0  0.11459238640E+01 -0.86569144409E+01  0.33478484001E+01  0.93527836543E+01  0.10566000000E+00 0.  1.
        -14    1    4    4    0    0  0.17611777045E+01 -0.71004767928E+01  0.28442395486E+01  0.78490901512E+01  0.00000000000E+00 0.  1.
<mgrwt>
<rscale>  0 0.79132139E+02</rscale>
<asrwt>0</asrwt>
<pdfrwt beam="1">  1        2 0.42046629E-02 0.79132139E+02</pdfrwt>
<pdfrwt beam="2">  1       -1 0.88122724E-02 0.79132139E+02</pdfrwt>
<totfact> 0.13622250E+05</totfact>
</mgrwt>
</event>
<event>
 8    1  0.2676873E-020  0.8118555E+02  0.7818608E-02  0.1325720E+00
          2   -1    0    0  501    0  0.00000000000E+00  0.00000000000E+00  0.36191572517E+03  0.36191572518E+03  0.25500000000E-02 0. -1.
         -1   -1    0    0    0  501 -0.00000000000E+00 -0.00000000000E+00 -0.45529182630E+01  0.45529210526E+01  0.50400000000E-02 0.  1.
         24    2    1    2    0    0  0.00000000000E+00 -0.35527136788E-14  0.35736280691E+03  0.36646864623E+03  0.81185546191E+02 0.  0.
         66    2    3    3    0    0  0.35897685640E+02 -0.13836762819E+02  0.23688978311E+03  0.24000181079E+03  0.20000003000E+01 0.  0.
        -13    1    3    3    0    0 -0.35897685640E+02  0.13836762819E+02  0.12047302380E+03  0.12646683544E+03  0.10566000000E+00 0.  1.
         13    1    4    4    0    0  0.89338864071E+01 -0.35981679491E+01  0.60305705717E+02  0.61070045398E+02  0.10566000000E+00 0. -1.
        -13    1    4    4    0    0  0.10866472976E+02 -0.39053468512E+01  0.75598587282E+02  0.76475417828E+02  0.10566000000E+00 0.  1.
        -14    1    4    4    0    0  0.16097326257E+02 -0.63332480188E+01  0.10098549012E+03  0.10245634757E+03  0.00000000000E+00 0.  1.
<mgrwt>
<rscale>  0 0.81185546E+02</rscale>
<asrwt>0</asrwt>
<pdfrwt beam="1">  1        2 0.55679357E-01 0.81185546E+02</pdfrwt>
<pdfrwt beam="2">  1       -1 0.70044899E-03 0.81185546E+02</pdfrwt>
<totfact> 0.26242714E+05</totfact>
</mgrwt>
</event>
<event>
 8    1  0.2676873E-020  0.7535790E+02  0.7818608E-02  0.1342766E+00
         -1   -1    0    0    0  501 -0.00000000000E+00  0.00000000000E+00  0.89035669625E+00  0.89037096098E+00  0.50400000000E-02 0.  1.
          2   -1    0    0  501    0  0.00000000000E+00 -0.00000000000E+00 -0.15945203765E+04  0.15945203765E+04  0.25500000000E-02 0. -1.
         24    2    1    2    0    0  0.17763568394E-14  0.00000000000E+00 -0.15936300198E+04  0.15954107475E+04  0.75357900057E+02 0.  0.
         66    2    3    3    0    0  0.92493688541E+01  0.15464326458E+02 -0.14973041027E+04  0.14974138613E+04  0.20000003853E+01 0.  0.
        -13    1    3    3    0    0 -0.92493688541E+01 -0.15464326458E+02 -0.96325917168E+02  0.97996886171E+02  0.10566000000E+00 0.  1.
         13    1    4    4    0    0  0.76309245834E+01  0.11808814913E+02 -0.11772257081E+04  0.11773096696E+04  0.10566000000E+00 0. -1.
        -13    1    4    4    0    0  0.40642114180E+00  0.36397646458E+00 -0.42006682648E+02  0.42010358343E+02  0.10566000000E+00 0.  1.
         14    1    4    4    0    0  0.12120231289E+01  0.32915350800E+01 -0.27807171194E+03  0.27809383342E+03  0.00000000000E+00 0. -1.
<mgrwt>
<rscale>  0 0.75357900E+02</rscale>
<asrwt>0</asrwt>
<pdfrwt beam="1">  1        2 0.24530854E+00 0.75357900E+02</pdfrwt>
<pdfrwt beam="2">  1       -1 0.13698033E-03 0.75357900E+02</pdfrwt>
<totfact> 0.37835734E+05</totfact>
</mgrwt>
</event>
<event>
 8    1  0.2676873E-020  0.7984134E+02  0.7818608E-02  0.1329502E+00
         -1   -1    0    0    0  501 -0.00000000000E+00  0.00000000000E+00  0.58874495004E+01  0.58874516577E+01  0.50400000000E-02 0.  1.
          2   -1    0    0  501    0  0.00000000000E+00 -0.00000000000E+00 -0.27068756919E+03  0.27068756920E+03  0.25500000000E-02 0. -1.
         24    2    1    2    0    0  0.00000000000E+00  0.00000000000E+00 -0.26480011969E+03  0.27657502086E+03  0.79841335008E+02 0.  0.
         66    2    3    3    0    0  0.31747437095E+02 -0.21509878963E+02 -0.17060015315E+03  0.17486848461E+03  0.20000002849E+01 0.  0.
        -13    1    3    3    0    0 -0.31747437095E+02  0.21509878963E+02 -0.94199966540E+02  0.10170653625E+03  0.10566000000E+00 0.  1.
         13    1    4    4    0    0  0.21300946899E+02 -0.14441074678E+02 -0.11641578073E+03  0.11922633997E+03  0.10566000000E+00 0. -1.
        -13    1    4    4    0    0  0.61829845335E+01 -0.37556251339E+01 -0.32510182228E+02  0.33305512013E+02  0.10566000000E+00 0.  1.
         14    1    4    4    0    0  0.42635056624E+01 -0.33131791507E+01 -0.21674190190E+02  0.22336632625E+02  0.00000000000E+00 0. -1.
<mgrwt>
<rscale>  0 0.79841335E+02</rscale>
<asrwt>0</asrwt>
<pdfrwt beam="1">  1        2 0.41644232E-01 0.79841335E+02</pdfrwt>
<pdfrwt beam="2">  1       -1 0.90576184E-03 0.79841335E+02</pdfrwt>
<totfact> 0.24690813E+05</totfact>
</mgrwt>
</event>
<event>
 8    1  0.2676873E-020  0.8041972E+02  0.7818608E-02  0.1327865E+00
         -1   -1    0    0    0  501 -0.00000000000E+00  0.00000000000E+00  0.24385656743E+01  0.24385708826E+01  0.50400000000E-02 0.  1.
          2   -1    0    0  501    0  0.00000000000E+00 -0.00000000000E+00 -0.66302548228E+03  0.66302548229E+03  0.25500000000E-02 0. -1.
         24    2    1    2    0    0  0.00000000000E+00  0.00000000000E+00 -0.66058691661E+03  0.66546405317E+03  0.80419721881E+02 0.  0.
         66    2    3    3    0    0 -0.30298363581E+01  0.17015950317E+02 -0.63069488727E+03  0.63093483285E+03  0.20000019171E+01 0.  0.
        -13    1    3    3    0    0  0.30298363581E+01 -0.17015950317E+02 -0.29892029338E+02  0.34529220314E+02  0.10566000000E+00 0.  1.
         13    1    4    4    0    0 -0.37731850883E+00  0.51359157514E+01 -0.20926782315E+03  0.20933120401E+03  0.10566000000E+00 0. -1.
        -13    1    4    4    0    0 -0.25359199655E+01  0.11477200283E+02 -0.40091890211E+03  0.40109117947E+03  0.10566000000E+00 0.  1.
         14    1    4    4    0    0 -0.11659788375E+00  0.40283428298E+00 -0.20508162009E+02  0.20512449378E+02  0.00000000000E+00 0. -1.
<mgrwt>
<rscale>  0 0.80419722E+02</rscale>
<asrwt>0</asrwt>
<pdfrwt beam="1">  1        2 0.10200378E+00 0.80419722E+02</pdfrwt>
<pdfrwt beam="2">  1       -1 0.37516488E-03 0.80419722E+02</pdfrwt>
<totfact> 0.32575070E+05</totfact>
</mgrwt>
</event>
<event>
 8    1  0.2676873E-020  0.7998205E+02  0.7818608E-02  0.1329102E+00
          2   -1    0    0  501    0  0.00000000000E+00  0.00000000000E+00  0.93096788287E+03  0.93096788287E+03  0.25500000000E-02 0. -1.
         -1   -1    0    0    0  501 -0.00000000000E+00 -0.00000000000E+00 -0.17178664432E+01  0.17178738365E+01  0.50400000000E-02 0.  1.
         24    2    1    2    0    0  0.00000000000E+00  0.00000000000E+00  0.92925001643E+03  0.93268575671E+03  0.79982046364E+02 0.  0.
         66    2    3    3    0    0  0.26027801439E+02  0.51947891469E+00  0.81853162997E+03  0.81894795046E+03  0.20000003800E+01 0.  0.
        -13    1    3    3    0    0 -0.26027801439E+02 -0.51947891469E+00  0.11071838646E+03  0.11373780625E+03  0.10566000000E+00 0.  1.
         13    1    4    4    0    0  0.67686387449E+01 -0.63807263260E+00  0.21730872849E+03  0.21741507825E+03  0.10566000000E+00 0. -1.
        -13    1    4    4    0    0  0.14633996343E+01  0.21628176220E+00  0.42736051026E+02  0.42761776595E+02  0.10566000000E+00 0.  1.
         14    1    4    4    0    0  0.17795763060E+02  0.94126978509E+00  0.55848685045E+03  0.55877109562E+03  0.00000000000E+00 0. -1.
<mgrwt>
<rscale>  0 0.79982046E+02</rscale>
<asrwt>0</asrwt>
<pdfrwt beam="1">  1        2 0.14322546E+00 0.79982046E+02</pdfrwt>
<pdfrwt beam="2">  1       -1 0.26428840E-03 0.79982046E+02</pdfrwt>
<totfact> 0.35085247E+05</totfact>
</mgrwt>
</event>
<event>
 8    1  0.2676873E-020  0.7911185E+02  0.7818608E-02  0.1331591E+00
         -1   -1    0    0    0  501 -0.00000000000E+00  0.00000000000E+00  0.67624583403E+01  0.67624602185E+01  0.50400000000E-02 0.  1.
          2   -1    0    0  501    0  0.00000000000E+00 -0.00000000000E+00 -0.23137608246E+03  0.23137608248E+03  0.25500000000E-02 0. -1.
         24    2    1    2    0    0  0.17763568394E-14  0.00000000000E+00 -0.22461362412E+03  0.23813854269E+03  0.79111853572E+02 0.  0.
         66    2    3    3    0    0  0.13659006472E+02 -0.10411777753E+02 -0.21955379685E+03  0.22023361070E+03  0.19999985461E+01 0.  0.
        -13    1    3    3    0    0 -0.13659006472E+02  0.10411777753E+02 -0.50598272675E+01  0.17904931997E+02  0.10566000000E+00 0.  1.
         13    1    4    4    0    0  0.85130985265E+01 -0.56431966283E+01 -0.13380884820E+03  0.13419812791E+03  0.10566000000E+00 0. -1.
        -13    1    4    4    0    0  0.13080742979E+01 -0.12968417128E+01 -0.18541523193E+02  0.18633091615E+02  0.10566000000E+00 0.  1.
         14    1    4    4    0    0  0.38378336477E+01 -0.34717394123E+01 -0.67203425464E+02  0.67402391173E+02  0.00000000000E+00 0. -1.
<mgrwt>
<rscale>  0 0.79111854E+02</rscale>
<asrwt>0</asrwt>
<pdfrwt beam="1">  1        2 0.35596314E-01 0.79111854E+02</pdfrwt>
<pdfrwt beam="2">  1       -1 0.10403785E-02 0.79111854E+02</pdfrwt>
<totfact> 0.23910066E+05</totfact>
</mgrwt>
</event>
<event>
 8    1  0.2676873E-020  0.8120513E+02  0.7818608E-02  0.1325666E+00
         -1   -1    0    0    0  501 -0.00000000000E+00  0.00000000000E+00  0.26927679507E+02  0.26927679979E+02  0.50400000000E-02 0.  1.
          2   -1    0    0  501    0  0.00000000000E+00 -0.00000000000E+00 -0.61222065311E+02  0.61222065364E+02  0.25500000000E-02 0. -1.
         24    2    1    2    0    0 -0.35527136788E-14  0.00000000000E+00 -0.34294385804E+02  0.88149745343E+02  0.81205127340E+02 0.  0.
         66    2    3    3    0    0 -0.28446473998E+02  0.99079432632E+01 -0.46670800453E+02  0.55583566166E+02  0.19999975373E+01 0.  0.
        -13    1    3    3    0    0  0.28446473998E+02 -0.99079432632E+01  0.12376414649E+02  0.32566179177E+02  0.10566000000E+00 0.  1.
         13    1    4    4    0    0 -0.13129143747E+02  0.41008280068E+01 -0.21151659590E+02  0.25230835763E+02  0.10566000000E+00 0. -1.
        -13    1    4    4    0    0 -0.11489464424E+02  0.48883637088E+01 -0.18933346578E+02  0.22680094118E+02  0.10566000000E+00 0.  1.
        -14    1    4    4    0    0 -0.38278658272E+01  0.91875154762E+00 -0.65857942849E+01  0.76726362849E+01  0.00000000000E+00 0.  1.
<mgrwt>
<rscale>  0 0.81205127E+02</rscale>
<asrwt>0</asrwt>
<pdfrwt beam="1">  1        2 0.94187792E-02 0.81205127E+02</pdfrwt>
<pdfrwt beam="2">  1       -1 0.41427200E-02 0.81205127E+02</pdfrwt>
<totfact> 0.15015498E+05</totfact>
</mgrwt>
</event>
<event>
 8    1  0.2676873E-020  0.7853173E+02  0.7818608E-02  0.1333271E+00
         -1   -1    0    0    0  501 -0.00000000000E+00  0.00000000000E+00  0.87613344527E+00  0.87614794157E+00  0.50400000000E-02 0.  1.
          2   -1    0    0  501    0  0.00000000000E+00 -0.00000000000E+00 -0.17597721850E+04  0.17597721850E+04  0.25500000000E-02 0. -1.
         24    2    1    2    0    0  0.00000000000E+00  0.00000000000E+00 -0.17588960515E+04  0.17606483329E+04  0.78531726847E+02 0.  0.
         66    2    3    3    0    0 -0.70570668933E+01 -0.17194560356E+02 -0.16548227264E+04  0.16549283099E+04  0.20000011533E+01 0.  0.
        -13    1    3    3    0    0  0.70570668933E+01  0.17194560356E+02 -0.10407332509E+03  0.10572002298E+03  0.10566000000E+00 0.  1.
         13    1    4    4    0    0 -0.44556244041E+01 -0.10002078559E+02 -0.10040302946E+04  0.10040900048E+04  0.10566000000E+00 0. -1.
        -13    1    4    4    0    0 -0.10968506497E+00 -0.27762442003E+00 -0.48358698544E+02  0.48359735267E+02  0.10566000000E+00 0.  1.
         14    1    4    4    0    0 -0.24917574242E+01 -0.69148573770E+01 -0.60243373332E+03  0.60247856987E+03  0.00000000000E+00 0. -1.
<mgrwt>
<rscale>  0 0.78531727E+02</rscale>
<asrwt>0</asrwt>
<pdfrwt beam="1">  1        2 0.27073135E+00 0.78531727E+02</pdfrwt>
<pdfrwt beam="2">  1       -1 0.13479229E-03 0.78531727E+02</pdfrwt>
<totfact> 0.32192580E+05</totfact>
</mgrwt>
</event>
<event>
 8    1  0.2676873E-020  0.7955592E+02  0.7818608E-02  0.1330316E+00
          2   -1    0    0  501    0  0.00000000000E+00  0.00000000000E+00  0.10741815086E+02  0.10741815389E+02  0.25500000000E-02 0. -1.
         -1   -1    0    0    0  501 -0.00000000000E+00 -0.00000000000E+00 -0.14730154409E+03  0.14730154418E+03  0.50400000000E-02 0.  1.
         24    2    1    2    0    0  0.00000000000E+00  0.00000000000E+00 -0.13655972901E+03  0.15804335957E+03  0.79555916920E+02 0.  0.
         66    2    3    3    0    0 -0.19818582919E+02  0.21733380373E+02 -0.15196925315E+02  0.33167191564E+02  0.20000014554E+01 0.  0.
        -13    1    3    3    0    0  0.19818582919E+02 -0.21733380373E+02 -0.12136280369E+03  0.12487616801E+03  0.10566000000E+00 0.  1.
         13    1    4    4    0    0 -0.14747758843E+02  0.15340699010E+02 -0.10333819710E+02  0.23656551541E+02  0.10566000000E+00 0. -1.
        -13    1    4    4    0    0 -0.16346027955E+01  0.23972297814E+01 -0.17167769495E+01  0.33729992668E+01  0.10566000000E+00 0.  1.
         14    1    4    4    0    0 -0.34362212809E+01  0.39954515818E+01 -0.31463286558E+01  0.61376407555E+01  0.00000000000E+00 0. -1.
<mgrwt>
<rscale>  0 0.79555917E+02</rscale>
<asrwt>0</asrwt>
<pdfrwt beam="1">  1        2 0.16525871E-02 0.79555917E+02</pdfrwt>
<pdfrwt beam="2">  1       -1 0.22661775E-01 0.79555917E+02</pdfrwt>
<totfact> 0.10990514E+05</totfact>
</mgrwt>
</event>
<event>
 8    1  0.2676873E-020  0.8060611E+02  0.7818608E-02  0.1327340E+00
         -1   -1    0    0    0  501 -0.00000000000E+00  0.00000000000E+00  0.13944302607E+01  0.13944393689E+01  0.50400000000E-02 0.  1.
          2   -1    0    0  501    0  0.00000000000E+00 -0.00000000000E+00 -0.11648708233E+04  0.11648708233E+04  0.25500000000E-02 0. -1.
         24    2    1    2    0    0 -0.35527136788E-14  0.44408920985E-15 -0.11634763931E+04  0.11662652627E+04  0.80606114876E+02 0.  0.
         66    2    3    3    0    0 -0.20350110368E+02  0.31619307551E+01 -0.10829309662E+04  0.10831286177E+04  0.20000004361E+01 0.  0.
        -13    1    3    3    0    0  0.20350110368E+02 -0.31619307551E+01 -0.80545426843E+02  0.83136645034E+02  0.10566000000E+00 0.  1.
         13    1    4    4    0    0 -0.46227209938E+00 -0.15814441103E+00 -0.28894406189E+02  0.28898729699E+02  0.10566000000E+00 0. -1.
        -13    1    4    4    0    0 -0.30343973603E+01  0.84028837192E+00 -0.15749554996E+03  0.15752705505E+03  0.10566000000E+00 0.  1.
         14    1    4    4    0    0 -0.16853440908E+02  0.24797867943E+01 -0.89654101009E+03  0.89670283293E+03  0.00000000000E+00 0. -1.
<mgrwt>
<rscale>  0 0.80606115E+02</rscale>
<asrwt>0</asrwt>
<pdfrwt beam="1">  1        2 0.17921012E+00 0.80606115E+02</pdfrwt>
<pdfrwt beam="2">  1       -1 0.21452937E-03 0.80606115E+02</pdfrwt>
<totfact> 0.34456113E+05</totfact>
</mgrwt>
</event>
<event>
 8    1  0.2676873E-020  0.7295421E+02  0.7818608E-02  0.1350326E+00
          2   -1    0    0  501    0  0.00000000000E+00  0.00000000000E+00  0.82308239675E+03  0.82308239675E+03  0.25500000000E-02 0. -1.
         -1   -1    0    0    0  501 -0.00000000000E+00 -0.00000000000E+00 -0.16165769104E+01  0.16165847670E+01  0.50400000000E-02 0.  1.
         24    2    1    2    0    0 -0.88817841970E-15  0.00000000000E+00  0.82146581984E+03  0.82469898152E+03  0.72954211372E+02 0.  0.
         66    2    3    3    0    0  0.50556850751E+01  0.13635605801E+02  0.78886352012E+03  0.78900009066E+03  0.20000001570E+01 0.  0.
        -13    1    3    3    0    0 -0.50556850751E+01 -0.13635605801E+02  0.32602299724E+02  0.35698890857E+02  0.10566000000E+00 0.  1.
         13    1    4    4    0    0  0.54753595487E+00  0.35529671174E+01  0.19964401653E+03  0.19967640789E+03  0.10566000000E+00 0. -1.
        -13    1    4    4    0    0  0.36762016156E+01  0.87404009167E+01  0.51641916398E+03  0.51650621792E+03  0.10566000000E+00 0.  1.
        -14    1    4    4    0    0  0.83194750463E+00  0.13422377665E+01  0.72800339611E+02  0.72817464844E+02  0.00000000000E+00 0.  1.
<mgrwt>
<rscale>  0 0.72954211E+02</rscale>
<asrwt>0</asrwt>
<pdfrwt beam="1">  1        2 0.12662843E+00 0.72954211E+02</pdfrwt>
<pdfrwt beam="2">  1       -1 0.24870402E-03 0.72954211E+02</pdfrwt>
<totfact> 0.43820191E+05</totfact>
</mgrwt>
</event>
<event>
 8    1  0.2676873E-020  0.8073850E+02  0.7818608E-02  0.1326969E+00
         -1   -1    0    0    0  501 -0.00000000000E+00  0.00000000000E+00  0.12171201740E+02  0.12171202784E+02  0.50400000000E-02 0.  1.
          2   -1    0    0  501    0  0.00000000000E+00 -0.00000000000E+00 -0.13389609478E+03  0.13389609481E+03  0.25500000000E-02 0. -1.
         24    2    1    2    0    0  0.00000000000E+00  0.35527136788E-14 -0.12172489304E+03  0.14606729759E+03  0.80738502830E+02 0.  0.
         66    2    3    3    0    0 -0.12952412198E+02 -0.24138430638E+02 -0.11448332420E+03  0.11773215512E+03  0.20000033432E+01 0.  0.
        -13    1    3    3    0    0  0.12952412198E+02  0.24138430638E+02 -0.72415688370E+01  0.28335142468E+02  0.10566000000E+00 0.  1.
         13    1    4    4    0    0 -0.16040029053E+01 -0.36432548742E+01 -0.16259416397E+02  0.16739949731E+02  0.10566000000E+00 0. -1.
        -13    1    4    4    0    0 -0.90586514979E+01 -0.17256000181E+02 -0.79701318065E+02  0.82049618978E+02  0.10566000000E+00 0.  1.
        -14    1    4    4    0    0 -0.22897577945E+01 -0.32391755828E+01 -0.18522589742E+02  0.18942586412E+02  0.00000000000E+00 0.  1.
<mgrwt>
<rscale>  0 0.80738503E+02</rscale>
<asrwt>0</asrwt>
<pdfrwt beam="1">  1        2 0.20599398E-01 0.80738503E+02</pdfrwt>
<pdfrwt beam="2">  1       -1 0.18724928E-02 0.80738503E+02</pdfrwt>
<totfact> 0.18855590E+05</totfact>
</mgrwt>
</event>
<event>
 8    1  0.2676873E-020  0.8475785E+02  0.7818608E-02  0.1316067E+00
         -1   -1    0    0    0  501 -0.00000000000E+00  0.00000000000E+00  0.59744235705E+02  0.59744235918E+02  0.50400000000E-02 0.  1.
          2   -1    0    0  501    0  0.00000000000E+00 -0.00000000000E+00 -0.30061027161E+02  0.30061027269E+02  0.25500000000E-02 0. -1.
         24    2    1    2    0    0  0.00000000000E+00 -0.35527136788E-14  0.29683208545E+02  0.89805263187E+02  0.84757845811E+02 0.  0.
         66    2    3    3    0    0  0.27003560880E+02  0.26801126932E+02 -0.48724778024E+01  0.38408771790E+02  0.20000013604E+01 0.  0.
        -13    1    3    3    0    0 -0.27003560880E+02 -0.26801126932E+02  0.34555686347E+02  0.51396491397E+02  0.10566000000E+00 0.  1.
         13    1    4    4    0    0  0.12494733829E+02  0.12958471445E+02 -0.26927218089E+01  0.18201710645E+02  0.10566000000E+00 0. -1.
        -13    1    4    4    0    0  0.58559998592E+01  0.61178226763E+01 -0.13695319184E+01  0.85794679532E+01  0.10566000000E+00 0.  1.
        -14    1    4    4    0    0  0.86528271916E+01  0.77248328108E+01 -0.81022407505E+00  0.11627593191E+02  0.00000000000E+00 0.  1.
<mgrwt>
<rscale>  0 0.84757846E+02</rscale>
<asrwt>0</asrwt>
<pdfrwt beam="1">  1        2 0.46247735E-02 0.84757846E+02</pdfrwt>
<pdfrwt beam="2">  1       -1 0.91914208E-02 0.84757846E+02</pdfrwt>
<totfact> 0.11439173E+05</totfact>
</mgrwt>
</event>
<event>
 8    1  0.2676873E-020  0.7974781E+02  0.7818608E-02  0.1329769E+00
         -1   -1    0    0    0  501 -0.00000000000E+00  0.00000000000E+00  0.38169672269E+03  0.38169672272E+03  0.50400000000E-02 0.  1.
          2   -1    0    0  501    0  0.00000000000E+00 -0.00000000000E+00 -0.41654223771E+01  0.41654231576E+01  0.25500000000E-02 0. -1.
         24    2    1    2    0    0  0.17763568394E-14 -0.71054273576E-14  0.37753130031E+03  0.38586214588E+03  0.79747808169E+02 0.  0.
         66    2    3    3    0    0 -0.58052983786E+01  0.38504810310E+02  0.22982651736E+03  0.23311059605E+03  0.19999999596E+01 0.  0.
        -13    1    3    3    0    0  0.58052983786E+01 -0.38504810310E+02  0.14770478295E+03  0.15275154983E+03  0.10566000000E+00 0.  1.
         13    1    4    4    0    0 -0.45144002767E+01  0.26122276006E+02  0.15566479589E+03  0.15790596238E+03  0.10566000000E+00 0. -1.
        -13    1    4    4    0    0 -0.12225812148E+00  0.50736604381E+01  0.30994201747E+02  0.31407143825E+02  0.10566000000E+00 0.  1.
        -14    1    4    4    0    0 -0.11686399805E+01  0.73088738668E+01  0.43167519730E+02  0.43797489839E+02  0.00000000000E+00 0.  1.
<mgrwt>
<rscale>  0 0.79747808E+02</rscale>
<asrwt>0</asrwt>
<pdfrwt beam="1">  1        2 0.64083425E-03 0.79747808E+02</pdfrwt>
<pdfrwt beam="2">  1       -1 0.58722575E-01 0.79747808E+02</pdfrwt>
<totfact> 0.78242303E+04</totfact>
</mgrwt>
</event>
<event>
 8    1  0.2676873E-020  0.7929808E+02  0.7818608E-02  0.1331055E+00
         -1   -1    0    0    0  501 -0.00000000000E+00  0.00000000000E+00  0.85328673330E+02  0.85328673479E+02  0.50400000000E-02 0.  1.
          2   -1    0    0  501    0  0.00000000000E+00 -0.00000000000E+00 -0.18423423081E+02  0.18423423258E+02  0.25500000000E-02 0. -1.
         24    2    1    2    0    0  0.35527136788E-14  0.00000000000E+00  0.66905250249E+02  0.10375209674E+03  0.79298077318E+02 0.  0.
         66    2    3    3    0    0  0.25261549850E+02 -0.16455870271E+02  0.67114754310E+02  0.73602525874E+02  0.20000004417E+01 0.  0.
        -13    1    3    3    0    0 -0.25261549850E+02  0.16455870271E+02 -0.20950406140E+00  0.30149570862E+02  0.10566000000E+00 0.  1.
         13    1    4    4    0    0  0.12588838893E+02 -0.83684859997E+01  0.35050002816E+02  0.38170987465E+02  0.10566000000E+00 0. -1.
        -13    1    4    4    0    0  0.21318876320E+01 -0.10347557801E+01  0.44163773405E+01  0.50131045520E+01  0.10566000000E+00 0.  1.
        -14    1    4    4    0    0  0.10540823325E+02 -0.70526284909E+01  0.27648374153E+02  0.30418433857E+02  0.00000000000E+00 0.  1.
<mgrwt>
<rscale>  0 0.79298077E+02</rscale>
<asrwt>0</asrwt>
<pdfrwt beam="1">  1        2 0.28343728E-02 0.79298077E+02</pdfrwt>
<pdfrwt beam="2">  1       -1 0.13127488E-01 0.79298077E+02</pdfrwt>
<totfact> 0.12523945E+05</totfact>
</mgrwt>
</event>
<event>
 8    1  0.2676873E-020  0.7923218E+02  0.7818608E-02  0.1331245E+00
          2   -1    0    0  501    0  0.00000000000E+00  0.00000000000E+00  0.50808144532E+03  0.50808144533E+03  0.25500000000E-02 0. -1.
         -1   -1    0    0    0  501 -0.00000000000E+00 -0.00000000000E+00 -0.30889406510E+01  0.30889447627E+01  0.50400000000E-02 0.  1.
         24    2    1    2    0    0  0.17763568394E-14  0.00000000000E+00  0.50499250467E+03  0.51117039009E+03  0.79232177378E+02 0.  0.
         66    2    3    3    0    0  0.11131559233E+02  0.23394020606E+02  0.44579823511E+03  0.44655487707E+03  0.19999975064E+01 0.  0.
        -13    1    3    3    0    0 -0.11131559233E+02 -0.23394020606E+02  0.59194269559E+02  0.64615513026E+02  0.10566000000E+00 0.  1.
         13    1    4    4    0    0  0.24278694992E+01  0.63447844115E+01  0.12038732005E+03  0.12057889049E+03  0.10566000000E+00 0. -1.
        -13    1    4    4    0    0  0.73096830090E+01  0.13173473877E+02  0.25662279773E+03  0.25706466766E+03  0.10566000000E+00 0.  1.
        -14    1    4    4    0    0  0.13940067245E+01  0.38757623174E+01  0.68788117332E+02  0.68911318914E+02  0.00000000000E+00 0.  1.
<mgrwt>
<rscale>  0 0.79232177E+02</rscale>
<asrwt>0</asrwt>
<pdfrwt beam="1">  1        2 0.78166271E-01 0.79232177E+02</pdfrwt>
<pdfrwt beam="2">  1       -1 0.47522260E-03 0.79232177E+02</pdfrwt>
<totfact> 0.31385124E+05</totfact>
</mgrwt>
</event>
<event>
 8    1  0.2676873E-020  0.8300654E+02  0.7818608E-02  0.1320730E+00
         -1   -1    0    0    0  501 -0.00000000000E+00  0.00000000000E+00  0.31280035511E+01  0.31280076114E+01  0.50400000000E-02 0.  1.
          2   -1    0    0  501    0  0.00000000000E+00 -0.00000000000E+00 -0.55067716861E+03  0.55067716862E+03  0.25500000000E-02 0. -1.
         24    2    1    2    0    0  0.00000000000E+00 -0.17763568394E-14 -0.54754916506E+03  0.55380517623E+03  0.83006536245E+02 0.  0.
         66    2    3    3    0    0 -0.76307327083E+01  0.13984749944E+02 -0.52944876997E+03  0.52969217602E+03  0.19999998523E+01 0.  0.
        -13    1    3    3    0    0  0.76307327083E+01 -0.13984749944E+02 -0.18100395087E+02  0.24113000207E+02  0.10566000000E+00 0.  1.
         13    1    4    4    0    0 -0.18712236206E+01  0.35562463293E+01 -0.13140530786E+03  0.13146678084E+03  0.10566000000E+00 0.  1.
        -13    1    4    4    0    0 -0.47895579167E+01  0.96034733753E+01 -0.36380690536E+03  0.36396516608E+03  0.10566000000E+00 0. -1.
        -14    1    4    4    0    0 -0.96995117095E+00  0.82503023896E+00 -0.34236556746E+02  0.34260229100E+02  0.00000000000E+00 0.  1.
<mgrwt>
<rscale>  0 0.83006536E+02</rscale>
<asrwt>0</asrwt>
<pdfrwt beam="1">  1        2 0.84719488E-01 0.83006536E+02</pdfrwt>
<pdfrwt beam="2">  1       -1 0.48123207E-03 0.83006536E+02</pdfrwt>
<totfact> 0.28495839E+05</totfact>
</mgrwt>
</event>
<event>
 8    1  0.2676873E-020  0.7871725E+02  0.7818608E-02  0.1332732E+00
         -1   -1    0    0    0  501 -0.00000000000E+00  0.00000000000E+00  0.66545555749E+01  0.66545574835E+01  0.50400000000E-02 0.  1.
          2   -1    0    0  501    0  0.00000000000E+00 -0.00000000000E+00 -0.23278806834E+03  0.23278806836E+03  0.25500000000E-02 0. -1.
         24    2    1    2    0    0 -0.71054273576E-14 -0.88817841970E-15 -0.22613351277E+03  0.23944262584E+03  0.78717250159E+02 0.  0.
         66    2    3    3    0    0 -0.34774406539E+02 -0.57828021022E+01 -0.60069280789E+02  0.69677963861E+02  0.20000007322E+01 0.  0.
        -13    1    3    3    0    0  0.34774406539E+02  0.57828021022E+01 -0.16606423198E+03  0.16976466198E+03  0.10566000000E+00 0.  1.
         13    1    4    4    0    0 -0.15382295659E+02 -0.17014545935E+01 -0.26857552943E+02  0.30997568963E+02  0.10566000000E+00 0. -1.
        -13    1    4    4    0    0 -0.17485399538E+02 -0.34794696896E+01 -0.29822709405E+02  0.34745518656E+02  0.10566000000E+00 0.  1.
         14    1    4    4    0    0 -0.19067113425E+01 -0.60187781913E+00 -0.33890184409E+01  0.39348762427E+01  0.00000000000E+00 0. -1.
<mgrwt>
<rscale>  0 0.78717250E+02</rscale>
<asrwt>0</asrwt>
<pdfrwt beam="1">  1        2 0.35813543E-01 0.78717250E+02</pdfrwt>
<pdfrwt beam="2">  1       -1 0.10237781E-02 0.78717250E+02</pdfrwt>
<totfact> 0.24278751E+05</totfact>
</mgrwt>
</event>
<event>
 8    1  0.2676873E-020  0.7212330E+02  0.7818608E-02  0.1353018E+00
          2   -1    0    0  501    0  0.00000000000E+00  0.00000000000E+00  0.83591061002E+02  0.83591061041E+02  0.25500000000E-02 0. -1.
         -1   -1    0    0    0  501 -0.00000000000E+00 -0.00000000000E+00 -0.15557197041E+02  0.15557197857E+02  0.50400000000E-02 0.  1.
         24    2    1    2    0    0  0.44408920985E-15  0.00000000000E+00  0.68033863962E+02  0.99148258898E+02  0.72123301346E+02 0.  0.
         66    2    3    3    0    0  0.33775584718E+01  0.29560672321E+02  0.61986970759E+02  0.68786814092E+02  0.19999999364E+01 0.  0.
        -13    1    3    3    0    0 -0.33775584718E+01 -0.29560672321E+02  0.60468932023E+01  0.30361444806E+02  0.10566000000E+00 0.  1.
         13    1    4    4    0    0  0.13028523695E+01  0.10156353965E+02  0.22496023014E+02  0.24717021779E+02  0.10566000000E+00 0. -1.
        -13    1    4    4    0    0  0.80437996043E+00  0.96796915338E+01  0.21052261571E+02  0.23185174931E+02  0.10566000000E+00 0.  1.
        -14    1    4    4    0    0  0.12703261419E+01  0.97246268216E+01  0.18438686174E+02  0.20884617381E+02  0.00000000000E+00 0.  1.
<mgrwt>
<rscale>  0 0.72123301E+02</rscale>
<asrwt>0</asrwt>
<pdfrwt beam="1">  1        2 0.12860163E-01 0.72123301E+02</pdfrwt>
<pdfrwt beam="2">  1       -1 0.23934150E-02 0.72123301E+02</pdfrwt>
<totfact> 0.22276368E+05</totfact>
</mgrwt>
</event>
<event>
 8    1  0.2676873E-020  0.8027929E+02  0.7818608E-02  0.1328261E+00
         -1   -1    0    0    0  501 -0.00000000000E+00  0.00000000000E+00  0.30803178126E+02  0.30803178538E+02  0.50400000000E-02 0.  1.
          2   -1    0    0  501    0  0.00000000000E+00 -0.00000000000E+00 -0.52305997711E+02  0.52305997773E+02  0.25500000000E-02 0. -1.
         24    2    1    2    0    0  0.88817841970E-15 -0.17763568394E-14 -0.21502819586E+02  0.83109176311E+02  0.80279287098E+02 0.  0.
         66    2    3    3    0    0 -0.66620219848E+01  0.11988464093E+02 -0.49784129439E+02  0.51677512987E+02  0.19999990854E+01 0.  0.
        -13    1    3    3    0    0  0.66620219848E+01 -0.11988464093E+02  0.28281309853E+02  0.31431663324E+02  0.10566000000E+00 0.  1.
         13    1    4    4    0    0 -0.34797295055E+01  0.56514891464E+01 -0.24920487786E+02  0.25789333503E+02  0.10566000000E+00 0. -1.
        -13    1    4    4    0    0 -0.25119935867E+01  0.42882082202E+01 -0.15411192277E+02  0.16193049526E+02  0.10566000000E+00 0.  1.
        -14    1    4    4    0    0 -0.67029889260E+00  0.20487667263E+01 -0.94524493764E+01  0.96951299588E+01  0.00000000000E+00 0.  1.
<mgrwt>
<rscale>  0 0.80279287E+02</rscale>
<asrwt>0</asrwt>
<pdfrwt beam="1">  1        2 0.80470766E-02 0.80279287E+02</pdfrwt>
<pdfrwt beam="2">  1       -1 0.47389505E-02 0.80279287E+02</pdfrwt>
<totfact> 0.14948225E+05</totfact>
</mgrwt>
</event>
<event>
 8    1  0.2676873E-020  0.8029515E+02  0.7818608E-02  0.1328216E+00
          2   -1    0    0  501    0  0.00000000000E+00  0.00000000000E+00  0.34098448341E+03  0.34098448342E+03  0.25500000000E-02 0. -1.
         -1   -1    0    0    0  501 -0.00000000000E+00 -0.00000000000E+00 -0.47269816301E+01  0.47269843169E+01  0.50400000000E-02 0.  1.
         24    2    1    2    0    0  0.71054273576E-14  0.00000000000E+00  0.33625750178E+03  0.34571146773E+03  0.80295151916E+02 0.  0.
         66    2    3    3    0    0  0.38733742683E+02  0.46737586558E+01  0.12791793113E+03  0.13375030454E+03  0.20000042327E+01 0.  0.
        -13    1    3    3    0    0 -0.38733742683E+02 -0.46737586558E+01  0.20833957065E+03  0.21196116320E+03  0.10566000000E+00 0.  1.
         13    1    4    4    0    0  0.16743839406E+02  0.25945393937E+01  0.55337364303E+02  0.57873334487E+02  0.10566000000E+00 0. -1.
        -13    1    4    4    0    0  0.51058352915E+01  0.51368358138E+00  0.18663790601E+02  0.19356695702E+02  0.10566000000E+00 0.  1.
         14    1    4    4    0    0  0.16884067986E+02  0.15655356808E+01  0.53916776227E+02  0.56520274348E+02  0.00000000000E+00 0. -1.
<mgrwt>
<rscale>  0 0.80295152E+02</rscale>
<asrwt>0</asrwt>
<pdfrwt beam="1">  1        2 0.52459150E-01 0.80295152E+02</pdfrwt>
<pdfrwt beam="2">  1       -1 0.72722818E-03 0.80295152E+02</pdfrwt>
<totfact> 0.26443027E+05</totfact>
</mgrwt>
</event>
<event>
 8    1  0.2676873E-020  0.7508003E+02  0.7818608E-02  0.1343623E+00
         -1   -1    0    0    0  501 -0.00000000000E+00  0.00000000000E+00  0.87155287701E+02  0.87155287847E+02  0.50400000000E-02 0.  1.
          2   -1    0    0  501    0  0.00000000000E+00 -0.00000000000E+00 -0.16169447071E+02  0.16169447272E+02  0.25500000000E-02 0. -1.
         24    2    1    2    0    0  0.00000000000E+00 -0.88817841970E-15  0.70985840630E+02  0.10332473512E+03  0.75080032748E+02 0.  0.
         66    2    3    3    0    0  0.19307300321E+02  0.65173459642E+01 -0.78266393670E+01  0.21920399783E+02  0.19999996955E+01 0.  0.
        -13    1    3    3    0    0 -0.19307300321E+02 -0.65173459642E+01  0.78812479997E+02  0.81404335336E+02  0.10566000000E+00 0.  1.
         13    1    4    4    0    0  0.54581795808E+01  0.16863759419E+01 -0.20442396168E+01  0.60684155922E+01  0.10566000000E+00 0. -1.
        -13    1    4    4    0    0  0.88182788229E+01  0.26359191981E+01 -0.28887456760E+01  0.96470786787E+01  0.10566000000E+00 0.  1.
         14    1    4    4    0    0  0.50308419173E+01  0.21950508241E+01 -0.28936540742E+01  0.62049055125E+01  0.00000000000E+00 0. -1.
<mgrwt>
<rscale>  0 0.75080033E+02</rscale>
<asrwt>0</asrwt>
<pdfrwt beam="1">  1        2 0.24876072E-02 0.75080033E+02</pdfrwt>
<pdfrwt beam="2">  1       -1 0.13408506E-01 0.75080033E+02</pdfrwt>
<totfact> 0.14278481E+05</totfact>
</mgrwt>
</event>
<event>
 8    1  0.2676873E-020  0.8128691E+02  0.7818608E-02  0.1325439E+00
         -1   -1    0    0    0  501 -0.00000000000E+00  0.00000000000E+00  0.61832518185E+01  0.61832538726E+01  0.50400000000E-02 0.  1.
          2   -1    0    0  501    0  0.00000000000E+00 -0.00000000000E+00 -0.26715558099E+03  0.26715558100E+03  0.25500000000E-02 0. -1.
         24    2    1    2    0    0 -0.88817841970E-15  0.00000000000E+00 -0.26097232917E+03  0.27333883488E+03  0.81286911969E+02 0.  0.
         66    2    3    3    0    0  0.50655106146E+01 -0.39917937742E+02 -0.14922211222E+03  0.15456500230E+03  0.20000024658E+01 0.  0.
        -13    1    3    3    0    0 -0.50655106146E+01  0.39917937742E+02 -0.11175021695E+03  0.11877383258E+03  0.10566000000E+00 0.  1.
         13    1    4    4    0    0  0.22320172417E+01 -0.12260572164E+02 -0.47340938965E+02  0.48953847621E+02  0.10566000000E+00 0. -1.
        -13    1    4    4    0    0  0.15909750176E-01 -0.74961952942E+00 -0.23936693254E+01  0.25105775101E+01  0.10566000000E+00 0.  1.
        -14    1    4    4    0    0  0.28175836227E+01 -0.26907746049E+02 -0.99487503928E+02  0.10310057717E+03  0.00000000000E+00 0.  1.
<mgrwt>
<rscale>  0 0.81286912E+02</rscale>
<asrwt>0</asrwt>
<pdfrwt beam="1">  1        2 0.41100850E-01 0.81286912E+02</pdfrwt>
<pdfrwt beam="2">  1       -1 0.95126988E-03 0.81286912E+02</pdfrwt>
<totfact> 0.23441879E+05</totfact>
</mgrwt>
</event>
<event>
 8    1  0.2676873E-020  0.7891538E+02  0.7818608E-02  0.1332158E+00
          2   -1    0    0  501    0  0.00000000000E+00  0.00000000000E+00  0.14622955002E+03  0.14622955005E+03  0.25500000000E-02 0. -1.
         -1   -1    0    0    0  501 -0.00000000000E+00 -0.00000000000E+00 -0.10647023087E+02  0.10647024280E+02  0.50400000000E-02 0.  1.
         24    2    1    2    0    0  0.00000000000E+00 -0.71054273576E-14  0.13558252694E+03  0.15687657433E+03  0.78915384821E+02 0.  0.
         66    2    3    3    0    0 -0.18677037053E+02 -0.33527780071E+02  0.85831658426E+02  0.94042635796E+02  0.20000024228E+01 0.  0.
        -13    1    3    3    0    0  0.18677037053E+02  0.33527780071E+02  0.49750868510E+02  0.62833938529E+02  0.10566000000E+00 0.  1.
         13    1    4    4    0    0 -0.10433205670E+02 -0.17310770716E+02  0.44805186367E+02  0.49153132685E+02  0.10566000000E+00 0. -1.
        -13    1    4    4    0    0 -0.43947699593E+01 -0.94312477142E+01  0.24220855058E+02  0.26361400194E+02  0.10566000000E+00 0.  1.
        -14    1    4    4    0    0 -0.38490614236E+01 -0.67857616400E+01  0.16805617002E+02  0.18528102916E+02  0.00000000000E+00 0.  1.
<mgrwt>
<rscale>  0 0.78915385E+02</rscale>
<asrwt>0</asrwt>
<pdfrwt beam="1">  1        2 0.22496852E-01 0.78915385E+02</pdfrwt>
<pdfrwt beam="2">  1       -1 0.16380038E-02 0.78915385E+02</pdfrwt>
<totfact> 0.20599630E+05</totfact>
</mgrwt>
</event>
<event>
 8    1  0.2676873E-020  0.7853077E+02  0.7818608E-02  0.1333273E+00
         -1   -1    0    0    0  501 -0.00000000000E+00  0.00000000000E+00  0.53967483023E+01  0.53967506557E+01  0.50400000000E-02 0.  1.
          2   -1    0    0  501    0  0.00000000000E+00 -0.00000000000E+00 -0.28568503825E+03  0.28568503826E+03  0.25500000000E-02 0. -1.
         24    2    1    2    0    0  0.17763568394E-14  0.00000000000E+00 -0.28028828995E+03  0.29108178892E+03  0.78530773315E+02 0.  0.
         66    2    3    3    0    0  0.90068831560E+01 -0.19981388498E+02 -0.26087782038E+03  0.26180453967E+03  0.19999990262E+01 0.  0.
        -13    1    3    3    0    0 -0.90068831560E+01  0.19981388498E+02 -0.19410469568E+02  0.29277249246E+02  0.10566000000E+00 0.  1.
         13    1    4    4    0    0  0.50562979033E+01 -0.10419182496E+02 -0.12746021848E+03  0.12798532717E+03  0.10566000000E+00 0. -1.
        -13    1    4    4    0    0  0.23670554248E+01 -0.63689960084E+01 -0.87339832031E+02  0.87603792639E+02  0.10566000000E+00 0.  1.
         14    1    4    4    0    0  0.15835298279E+01 -0.31932099941E+01 -0.46077769869E+02  0.46215419860E+02  0.00000000000E+00 0. -1.
<mgrwt>
<rscale>  0 0.78530773E+02</rscale>
<asrwt>0</asrwt>
<pdfrwt beam="1">  1        2 0.43951532E-01 0.78530773E+02</pdfrwt>
<pdfrwt beam="2">  1       -1 0.83026938E-03 0.78530773E+02</pdfrwt>
<totfact> 0.26293901E+05</totfact>
</mgrwt>
</event>
<event>
 8    1  0.2676873E-020  0.7679862E+02  0.7818608E-02  0.1338390E+00
         -1   -1    0    0    0  501 -0.00000000000E+00  0.00000000000E+00  0.15550444608E+01  0.15550526283E+01  0.50400000000E-02 0.  1.
          2   -1    0    0  501    0  0.00000000000E+00 -0.00000000000E+00 -0.94820649086E+03  0.94820649086E+03  0.25500000000E-02 0. -1.
         24    2    1    2    0    0 -0.17763568394E-14 -0.35527136788E-14 -0.94665144640E+03  0.94976154349E+03  0.76798623205E+02 0.  0.
         66    2    3    3    0    0 -0.10601251715E+02 -0.16578931964E+02 -0.88105142386E+03  0.88127343033E+03  0.20000001334E+01 0.  0.
        -13    1    3    3    0    0  0.10601251715E+02  0.16578931964E+02 -0.65600022539E+02  0.68488113159E+02  0.10566000000E+00 0.  1.
         13    1    4    4    0    0 -0.29685805094E+00 -0.43647107394E+00 -0.36608442001E+02  0.36612399833E+02  0.10566000000E+00 0.  1.
        -13    1    4    4    0    0 -0.20296004586E+01 -0.25178757107E+01 -0.15543864484E+03  0.15547232053E+03  0.10566000000E+00 0. -1.
         14    1    4    4    0    0 -0.82747932055E+01 -0.13624585179E+02 -0.68900433701E+03  0.68918870997E+03  0.00000000000E+00 0. -1.
<mgrwt>
<rscale>  0 0.76798623E+02</rscale>
<asrwt>0</asrwt>
<pdfrwt beam="1">  1        2 0.14587746E+00 0.76798623E+02</pdfrwt>
<pdfrwt beam="2">  1       -1 0.23923900E-03 0.76798623E+02</pdfrwt>
<totfact> 0.39038415E+05</totfact>
</mgrwt>
</event>
<event>
 8    1  0.2676873E-020  0.7947309E+02  0.7818608E-02  0.1330553E+00
          2   -1    0    0  501    0  0.00000000000E+00  0.00000000000E+00  0.57991834681E+03  0.57991834681E+03  0.25500000000E-02 0. -1.
         -1   -1    0    0    0  501 -0.00000000000E+00 -0.00000000000E+00 -0.27227827122E+01  0.27227873769E+01  0.50400000000E-02 0.  1.
         24    2    1    2    0    0  0.00000000000E+00  0.00000000000E+00  0.57719556409E+03  0.58264113419E+03  0.79473090030E+02 0.  0.
         66    2    3    3    0    0  0.13668973044E+02 -0.33388064150E+01  0.56102705223E+03  0.56120704003E+03  0.19999992545E+01 0.  0.
        -13    1    3    3    0    0 -0.13668973044E+02  0.33388064150E+01  0.16168511868E+02  0.21434094159E+02  0.10566000000E+00 0.  1.
         13    1    4    4    0    0  0.56813224689E+01 -0.16112155106E+01  0.21081608502E+03  0.21089880584E+03  0.10566000000E+00 0. -1.
        -13    1    4    4    0    0  0.31846557434E+01 -0.11970250604E+01  0.13333087467E+03  0.13337431614E+03  0.10566000000E+00 0.  1.
         14    1    4    4    0    0  0.48029948318E+01 -0.53056584405E+00  0.21688009254E+03  0.21693391804E+03  0.00000000000E+00 0. -1.
<mgrwt>
<rscale>  0 0.79473090E+02</rscale>
<asrwt>0</asrwt>
<pdfrwt beam="1">  1        2 0.89218183E-01 0.79473090E+02</pdfrwt>
<pdfrwt beam="2">  1       -1 0.41889012E-03 0.79473090E+02</pdfrwt>
<totfact> 0.32407722E+05</totfact>
</mgrwt>
</event>
<event>
 8    1  0.2676873E-020  0.8236418E+02  0.7818608E-02  0.1322473E+00
         -1   -1    0    0    0  501 -0.00000000000E+00  0.00000000000E+00  0.49254863750E+02  0.49254864008E+02  0.50400000000E-02 0.  1.
          2   -1    0    0  501    0  0.00000000000E+00 -0.00000000000E+00 -0.34432431296E+02  0.34432431391E+02  0.25500000000E-02 0. -1.
         24    2    1    2    0    0 -0.35527136788E-14  0.35527136788E-14  0.14822432454E+02  0.83687295399E+02  0.82364184615E+02 0.  0.
         66    2    3    3    0    0  0.17706936290E+02 -0.24416676158E+02 -0.21038759246E+02  0.36828508586E+02  0.19999966738E+01 0.  0.
        -13    1    3    3    0    0 -0.17706936290E+02  0.24416676158E+02  0.35861191700E+02  0.46858786812E+02  0.10566000000E+00 0.  1.
         13    1    4    4    0    0  0.23079443466E+01 -0.27094332503E+01 -0.19312433190E+01  0.40507407270E+01  0.10566000000E+00 0. -1.
        -13    1    4    4    0    0  0.29332176467E+01 -0.48021332280E+01 -0.40077255115E+01  0.69092168235E+01  0.10566000000E+00 0. -1.
         14    1    4    4    0    0  0.12465774297E+02 -0.16905109680E+02 -0.15099790416E+02  0.25868551036E+02  0.00000000000E+00 0. -1.
<mgrwt>
<rscale>  0 0.82364185E+02</rscale>
<asrwt>0</asrwt>
<pdfrwt beam="1">  1        2 0.52972971E-02 0.82364185E+02</pdfrwt>
<pdfrwt beam="2">  1       -1 0.75776714E-02 0.82364185E+02</pdfrwt>
<totfact> 0.12749286E+05</totfact>
</mgrwt>
</event>
<event>
 8    1  0.2676873E-020  0.8278425E+02  0.7818608E-02  0.1321331E+00
         -1   -1    0    0    0  501 -0.00000000000E+00  0.00000000000E+00  0.19993058704E+02  0.19993059339E+02  0.50400000000E-02 0.  1.
          2   -1    0    0  501    0  0.00000000000E+00 -0.00000000000E+00 -0.85695132289E+02  0.85695132327E+02  0.25500000000E-02 0. -1.
         24    2    1    2    0    0 -0.17763568394E-14  0.35527136788E-14 -0.65702073586E+02  0.10568819167E+03  0.82784245991E+02 0.  0.
         66    2    3    3    0    0 -0.60610411031E+01  0.25751223094E+02 -0.73472311442E+02  0.78115569911E+02  0.20000009811E+01 0.  0.
        -13    1    3    3    0    0  0.60610411031E+01 -0.25751223094E+02  0.77702378560E+01  0.27572621755E+02  0.10566000000E+00 0.  1.
         13    1    4    4    0    0 -0.16126877958E+01  0.78524121880E+01 -0.21592911031E+02  0.23033152410E+02  0.10566000000E+00 0. -1.
        -13    1    4    4    0    0  0.88657219892E-01  0.39657918027E+00 -0.94600199334E+00  0.10349970801E+01  0.10566000000E+00 0.  1.
         14    1    4    4    0    0 -0.45370105272E+01  0.17502231725E+02 -0.50933398417E+02  0.54047420421E+02  0.00000000000E+00 0. -1.
<mgrwt>
<rscale>  0 0.82784246E+02</rscale>
<asrwt>0</asrwt>
<pdfrwt beam="1">  1        2 0.13183866E-01 0.82784246E+02</pdfrwt>
<pdfrwt beam="2">  1       -1 0.30758553E-02 0.82784246E+02</pdfrwt>
<totfact> 0.15499635E+05</totfact>
</mgrwt>
</event>
<event>
 8    1  0.2676873E-020  0.8192459E+02  0.7818608E-02  0.1323677E+00
          2   -1    0    0  501    0  0.00000000000E+00  0.00000000000E+00  0.19551431570E+02  0.19551431736E+02  0.25500000000E-02 0. -1.
         -1   -1    0    0    0  501 -0.00000000000E+00 -0.00000000000E+00 -0.85820299654E+02  0.85820299802E+02  0.50400000000E-02 0.  1.
         24    2    1    2    0    0  0.00000000000E+00  0.00000000000E+00 -0.66268868083E+02  0.10537173154E+03  0.81924592952E+02 0.  0.
         66    2    3    3    0    0 -0.83209674749E+01 -0.39663403301E+02 -0.40596423027E+02  0.57397679590E+02  0.19999996471E+01 0.  0.
        -13    1    3    3    0    0  0.83209674749E+01  0.39663403301E+02 -0.25672445057E+02  0.47974051948E+02  0.10566000000E+00 0.  1.
         13    1    4    4    0    0 -0.50392161269E+01 -0.24308950476E+02 -0.25581069428E+02  0.35647174496E+02  0.10566000000E+00 0. -1.
        -13    1    4    4    0    0 -0.62487145774E+00 -0.52201382122E+01 -0.51212337119E+01  0.73401979579E+01  0.10566000000E+00 0.  1.
         14    1    4    4    0    0 -0.26568798903E+01 -0.10134314612E+02 -0.98941198874E+01  0.14410307136E+02  0.00000000000E+00 0. -1.
<mgrwt>
<rscale>  0 0.81924593E+02</rscale>
<asrwt>0</asrwt>
<pdfrwt beam="1">  1        2 0.30079126E-02 0.81924593E+02</pdfrwt>
<pdfrwt beam="2">  1       -1 0.13203123E-01 0.81924593E+02</pdfrwt>
<totfact> 0.11539808E+05</totfact>
</mgrwt>
</event>
<event>
 8    1  0.2676873E-020  0.7893685E+02  0.7818608E-02  0.1332096E+00
         -1   -1    0    0    0  501 -0.00000000000E+00  0.00000000000E+00  0.13843020297E+02  0.13843021215E+02  0.50400000000E-02 0.  1.
          2   -1    0    0  501    0  0.00000000000E+00 -0.00000000000E+00 -0.11253010053E+03  0.11253010056E+03  0.25500000000E-02 0. -1.
         24    2    1    2    0    0  0.00000000000E+00  0.00000000000E+00 -0.98687080232E+02  0.12637312177E+03  0.78936848821E+02 0.  0.
         66    2    3    3    0    0 -0.38318740459E+02  0.55676602529E+00 -0.34432629794E+02  0.51558140492E+02  0.19999994372E+01 0.  0.
        -13    1    3    3    0    0  0.38318740459E+02 -0.55676602529E+00 -0.64254450438E+02  0.74814981280E+02  0.10566000000E+00 0.  1.
         13    1    4    4    0    0 -0.14776614490E+02 -0.10860932212E+00 -0.14308122488E+02  0.20569240748E+02  0.10566000000E+00 0. -1.
        -13    1    4    4    0    0 -0.12634145155E+02  0.71626695990E+00 -0.11017888660E+02  0.16779144696E+02  0.10566000000E+00 0.  1.
        -14    1    4    4    0    0 -0.10907980814E+02 -0.50891612483E-01 -0.91066186450E+01  0.14209755049E+02  0.00000000000E+00 0.  1.
<mgrwt>
<rscale>  0 0.78936849E+02</rscale>
<asrwt>0</asrwt>
<pdfrwt beam="1">  1        2 0.17312323E-01 0.78936849E+02</pdfrwt>
<pdfrwt beam="2">  1       -1 0.21296956E-02 0.78936849E+02</pdfrwt>
<totfact> 0.19001246E+05</totfact>
</mgrwt>
</event>
<event>
 8    1  0.2676873E-020  0.8283927E+02  0.7818608E-02  0.1321182E+00
          2   -1    0    0  501    0  0.00000000000E+00  0.00000000000E+00  0.16903883086E+02  0.16903883278E+02  0.25500000000E-02 0. -1.
         -1   -1    0    0    0  501 -0.00000000000E+00 -0.00000000000E+00 -0.10149065678E+03  0.10149065691E+03  0.50400000000E-02 0.  1.
         24    2    1    2    0    0  0.00000000000E+00  0.00000000000E+00 -0.84586773697E+02  0.11839454019E+03  0.82839271250E+02 0.  0.
         66    2    3    3    0    0  0.34802567054E+02  0.21683584787E+02 -0.34209852081E+02  0.53438848223E+02  0.19999993143E+01 0.  0.
        -13    1    3    3    0    0 -0.34802567054E+02 -0.21683584787E+02 -0.50376921617E+02  0.64955691963E+02  0.10566000000E+00 0.  1.
         13    1    4    4    0    0  0.13371436988E+02  0.78824688592E+01 -0.12648466945E+02  0.20023074753E+02  0.10566000000E+00 0. -1.
        -13    1    4    4    0    0  0.18231086395E+02  0.12211245125E+02 -0.18897734830E+02  0.28958980721E+02  0.10566000000E+00 0.  1.
        -14    1    4    4    0    0  0.32000436703E+01  0.15898708030E+01 -0.26636503055E+01  0.44567927495E+01  0.00000000000E+00 0.  1.
<mgrwt>
<rscale>  0 0.82839271E+02</rscale>
<asrwt>0</asrwt>
<pdfrwt beam="1">  1        2 0.26005975E-02 0.82839271E+02</pdfrwt>
<pdfrwt beam="2">  1       -1 0.15613947E-01 0.82839271E+02</pdfrwt>
<totfact> 0.10831188E+05</totfact>
</mgrwt>
</event>
<event>
 8    1  0.2676873E-020  0.8084301E+02  0.7818608E-02  0.1326676E+00
         -1   -1    0    0    0  501 -0.00000000000E+00  0.00000000000E+00  0.15998615320E+02  0.15998616114E+02  0.50400000000E-02 0.  1.
          2   -1    0    0  501    0  0.00000000000E+00 -0.00000000000E+00 -0.10212745696E+03  0.10212745699E+03  0.25500000000E-02 0. -1.
         24    2    1    2    0    0  0.00000000000E+00  0.35527136788E-14 -0.86128841641E+02  0.11812607311E+03  0.80843007027E+02 0.  0.
         66    2    3    3    0    0  0.21704383184E+02  0.27790507691E+02 -0.71891139080E+02  0.80098242438E+02  0.19999990600E+01 0.  0.
        -13    1    3    3    0    0 -0.21704383184E+02 -0.27790507691E+02 -0.14237702561E+02  0.38027830669E+02  0.10566000000E+00 0.  1.
         13    1    4    4    0    0  0.82232004807E+01  0.11048832339E+02 -0.27997449352E+02  0.31202020070E+02  0.10566000000E+00 0. -1.
        -13    1    4    4    0    0  0.62802934564E+01  0.81444777408E+01 -0.19420203977E+02  0.21975670414E+02  0.10566000000E+00 0.  1.
        -14    1    4    4    0    0  0.72008892468E+01  0.85971976109E+01 -0.24473485751E+02  0.26920551954E+02  0.00000000000E+00 0.  1.
<mgrwt>
<rscale>  0 0.80843007E+02</rscale>
<asrwt>0</asrwt>
<pdfrwt beam="1">  1        2 0.15711916E-01 0.80843007E+02</pdfrwt>
<pdfrwt beam="2">  1       -1 0.24613256E-02 0.80843007E+02</pdfrwt>
<totfact> 0.17337231E+05</totfact>
</mgrwt>
</event>
<event>
 8    1  0.2676873E-020  0.8066726E+02  0.7818608E-02  0.1327168E+00
         -1   -1    0    0    0  501 -0.00000000000E+00  0.00000000000E+00  0.35926866335E+02  0.35926866688E+02  0.50400000000E-02 0.  1.
          2   -1    0    0  501    0  0.00000000000E+00 -0.00000000000E+00 -0.45280924175E+02  0.45280924247E+02  0.25500000000E-02 0. -1.
         24    2    1    2    0    0  0.44408920985E-15 -0.71054273576E-14 -0.93540578404E+01  0.81207790935E+02  0.80667260462E+02 0.  0.
         66    2    3    3    0    0 -0.34537943487E+01  0.32654058703E+02 -0.28215614356E+02  0.43339786981E+02  0.19999992222E+01 0.  0.
        -13    1    3    3    0    0  0.34537943487E+01 -0.32654058703E+02  0.18861556515E+02  0.37868003954E+02  0.10566000000E+00 0.  1.
         13    1    4    4    0    0 -0.74309529722E+00  0.38280055949E+01 -0.34174276136E+01  0.51861154041E+01  0.10566000000E+00 0. -1.
        -13    1    4    4    0    0 -0.14174881367E+01  0.77503376048E+01 -0.66152861100E+01  0.10288351664E+02  0.10566000000E+00 0.  1.
         14    1    4    4    0    0 -0.12932109147E+01  0.21075715504E+02 -0.18182900632E+02  0.27865319913E+02  0.00000000000E+00 0. -1.
<mgrwt>
<rscale>  0 0.80667260E+02</rscale>
<asrwt>0</asrwt>
<pdfrwt beam="1">  1        2 0.69662961E-02 0.80667260E+02</pdfrwt>
<pdfrwt beam="2">  1       -1 0.55272102E-02 0.80667260E+02</pdfrwt>
<totfact> 0.14297923E+05</totfact>
</mgrwt>
</event>
<event>
 8    1  0.2676873E-020  0.8894233E+02  0.7818608E-02  0.1305433E+00
          2   -1    0    0  501    0  0.00000000000E+00  0.00000000000E+00  0.25783847694E+03  0.25783847696E+03  0.25500000000E-02 0. -1.
         -1   -1    0    0    0  501 -0.00000000000E+00 -0.00000000000E+00 -0.76702455259E+01  0.76702471818E+01  0.50400000000E-02 0.  1.
         24    2    1    2    0    0  0.35527136788E-14  0.71054273576E-14  0.25016823142E+03  0.26550872414E+03  0.88942332906E+02 0.  0.
         66    2    3    3    0    0 -0.28597777897E+02 -0.33579723153E+02  0.10872901734E+03  0.11735173595E+03  0.20000024351E+01 0.  0.
        -13    1    3    3    0    0  0.28597777897E+02  0.33579723153E+02  0.14143921408E+03  0.14815698819E+03  0.10566000000E+00 0.  1.
         13    1    4    4    0    0 -0.52356384947E+00 -0.85955457970E+00  0.26705405406E+01  0.28558543370E+01  0.10566000000E+00 0.  1.
        -13    1    4    4    0    0 -0.53623396405E+01 -0.62251428058E+01  0.21752089186E+02  0.23252346922E+02  0.10566000000E+00 0.  1.
         14    1    4    4    0    0 -0.22711874407E+02 -0.26495025768E+02  0.84306387614E+02  0.91243534686E+02  0.00000000000E+00 0. -1.
<mgrwt>
<rscale>  0 0.88942333E+02</rscale>
<asrwt>0</asrwt>
<pdfrwt beam="1">  1        2 0.39667457E-01 0.88942333E+02</pdfrwt>
<pdfrwt beam="2">  1       -1 0.11800379E-02 0.88942333E+02</pdfrwt>
<totfact> 0.18241711E+05</totfact>
</mgrwt>
</event>
<event>
 8    1  0.2676873E-020  0.8176063E+02  0.7818608E-02  0.1324128E+00
         -1   -1    0    0    0  501 -0.00000000000E+00  0.00000000000E+00  0.51655030817E+01  0.51655055405E+01  0.50400000000E-02 0.  1.
          2   -1    0    0  501    0  0.00000000000E+00 -0.00000000000E+00 -0.32353091049E+03  0.32353091050E+03  0.25500000000E-02 0. -1.
         24    2    1    2    0    0 -0.17763568394E-14  0.00000000000E+00 -0.31836540741E+03  0.32869641604E+03  0.81760634070E+02 0.  0.
         66    2    3    3    0    0  0.87089431729E+01  0.18064292216E+02 -0.30237923791E+03  0.30305010785E+03  0.20000011756E+01 0.  0.
        -13    1    3    3    0    0 -0.87089431729E+01 -0.18064292216E+02 -0.15986169494E+02  0.25646308186E+02  0.10566000000E+00 0.  1.
         13    1    4    4    0    0  0.44286058937E+01  0.95327769668E+01 -0.16289664758E+03  0.16323545982E+03  0.10566000000E+00 0. -1.
        -13    1    4    4    0    0  0.24797225767E+01  0.35652364838E+01 -0.64847236745E+02  0.64992578136E+02  0.10566000000E+00 0.  1.
        -14    1    4    4    0    0  0.18006147025E+01  0.49662787649E+01 -0.74635353592E+02  0.74822069899E+02  0.00000000000E+00 0.  1.
<mgrwt>
<rscale>  0 0.81760634E+02</rscale>
<asrwt>0</asrwt>
<pdfrwt beam="1">  1        2 0.49773970E-01 0.81760634E+02</pdfrwt>
<pdfrwt beam="2">  1       -1 0.79469323E-03 0.81760634E+02</pdfrwt>
<totfact> 0.24746147E+05</totfact>
</mgrwt>
</event>
<event>
 8    1  0.2676873E-020  0.7798174E+02  0.7818608E-02  0.1334879E+00
          2   -1    0    0  501    0  0.00000000000E+00  0.00000000000E+00  0.32042130081E+03  0.32042130082E+03  0.25500000000E-02 0. -1.
         -1   -1    0    0    0  501 -0.00000000000E+00 -0.00000000000E+00 -0.47446513545E+01  0.47446540314E+01  0.50400000000E-02 0.  1.
         24    2    1    2    0    0  0.00000000000E+00  0.41633363423E-16  0.31567664945E+03  0.32516595485E+03  0.77981736214E+02 0.  0.
         66    2    3    3    0    0  0.38478639013E+02  0.11924242269E+00  0.13235190014E+03  0.13784645572E+03  0.20000012534E+01 0.  0.
        -13    1    3    3    0    0 -0.38478639013E+02 -0.11924242269E+00  0.18332474931E+03  0.18731949913E+03  0.10566000000E+00 0.  1.
         13    1    4    4    0    0  0.15632172334E+02  0.60521047933E+00  0.54566104726E+02  0.56764443454E+02  0.10566000000E+00 0. -1.
        -13    1    4    4    0    0  0.31384683028E+01 -0.44481472744E+00  0.11319439494E+02  0.11755369748E+02  0.10566000000E+00 0.  1.
         14    1    4    4    0    0  0.19707998376E+02 -0.41153329198E-01  0.66466355918E+02  0.69326642517E+02  0.00000000000E+00 0. -1.
<mgrwt>
<rscale>  0 0.77981736E+02</rscale>
<asrwt>0</asrwt>
<pdfrwt beam="1">  1        2 0.49295576E-01 0.77981736E+02</pdfrwt>
<pdfrwt beam="2">  1       -1 0.72994670E-03 0.77981736E+02</pdfrwt>
<totfact> 0.27913589E+05</totfact>
</mgrwt>
</event>
<event>
 8    1  0.2676873E-020  0.7890857E+02  0.7818608E-02  0.1332178E+00
         -1   -1    0    0    0  501 -0.00000000000E+00  0.00000000000E+00  0.12306583775E+01  0.12306686978E+01  0.50400000000E-02 0.  1.
          2   -1    0    0  501    0  0.00000000000E+00 -0.00000000000E+00 -0.12648792408E+04  0.12648792408E+04  0.25500000000E-02 0. -1.
         24    2    1    2    0    0  0.00000000000E+00  0.00000000000E+00 -0.12636485824E+04  0.12661099095E+04  0.78908574163E+02 0.  0.
         66    2    3    3    0    0 -0.19590314358E+02  0.13741237518E+02 -0.11350466007E+04  0.11353005716E+04  0.19999998401E+01 0.  0.
        -13    1    3    3    0    0  0.19590314358E+02 -0.13741237518E+02 -0.12860198169E+03  0.13080933791E+03  0.10566000000E+00 0.  1.
         13    1    4    4    0    0 -0.26353034575E+00  0.88922082075E-01 -0.11835451814E+02  0.11839190811E+02  0.10566000000E+00 0. -1.
        -13    1    4    4    0    0 -0.61083084796E+01  0.35108682624E+01 -0.34297575912E+03  0.34304813093E+03  0.10566000000E+00 0.  1.
         14    1    4    4    0    0 -0.13218475533E+02  0.10141447173E+02 -0.78023538981E+03  0.78041324986E+03  0.00000000000E+00 0. -1.
<mgrwt>
<rscale>  0 0.78908574E+02</rscale>
<asrwt>0</asrwt>
<pdfrwt beam="1">  1        2 0.19459577E+00 0.78908574E+02</pdfrwt>
<pdfrwt beam="2">  1       -1 0.18933387E-03 0.78908574E+02</pdfrwt>
<totfact> 0.36049173E+05</totfact>
</mgrwt>
</event>
<event>
 8    1  0.2676873E-020  0.8023913E+02  0.7818608E-02  0.1328374E+00
         -1   -1    0    0    0  501 -0.00000000000E+00  0.00000000000E+00  0.34157645609E+01  0.34157682791E+01  0.50400000000E-02 0.  1.
          2   -1    0    0  501    0  0.00000000000E+00 -0.00000000000E+00 -0.47122058411E+03  0.47122058412E+03  0.25500000000E-02 0. -1.
         24    2    1    2    0    0  0.11102230246E-15  0.71054273576E-14 -0.46780481955E+03  0.47463635240E+03  0.80239128999E+02 0.  0.
         66    2    3    3    0    0 -0.62102851973E+00 -0.37825345742E+02 -0.31261854805E+03  0.31490553983E+03  0.19999935784E+01 0.  0.
        -13    1    3    3    0    0  0.62102851973E+00  0.37825345742E+02 -0.15518627150E+03  0.15973081257E+03  0.10566000000E+00 0.  1.
         13    1    4    4    0    0 -0.17034393057E+00 -0.29052177156E+01 -0.24348316020E+02  0.24521846670E+02  0.10566000000E+00 0. -1.
        -13    1    4    4    0    0 -0.93064730198E+00 -0.10110137705E+02 -0.82039126700E+02  0.82665049825E+02  0.10566000000E+00 0.  1.
        -14    1    4    4    0    0  0.47996271282E+00 -0.24809990321E+02 -0.20623110533E+03  0.20771864334E+03  0.00000000000E+00 0.  1.
<mgrwt>
<rscale>  0 0.80239129E+02</rscale>
<asrwt>0</asrwt>
<pdfrwt beam="1">  1        2 0.72495423E-01 0.80239129E+02</pdfrwt>
<pdfrwt beam="2">  1       -1 0.52550290E-03 0.80239129E+02</pdfrwt>
<totfact> 0.29640726E+05</totfact>
</mgrwt>
</event>
<event>
 8    1  0.2676873E-020  0.7810662E+02  0.7818608E-02  0.1334512E+00
         -1   -1    0    0    0  501 -0.00000000000E+00  0.00000000000E+00  0.25871849927E+02  0.25871850418E+02  0.50400000000E-02 0.  1.
          2   -1    0    0  501    0  0.00000000000E+00 -0.00000000000E+00 -0.58950590671E+02  0.58950590726E+02  0.25500000000E-02 0. -1.
         24    2    1    2    0    0 -0.35527136788E-14  0.00000000000E+00 -0.33078740744E+02  0.84822441144E+02  0.78106615804E+02 0.  0.
         66    2    3    3    0    0  0.25818571095E+02 -0.20689183651E+02 -0.39030683997E+02  0.51205812431E+02  0.19999999569E+01 0.  0.
        -13    1    3    3    0    0 -0.25818571095E+02  0.20689183651E+02  0.59519432531E+01  0.33616628714E+02  0.10566000000E+00 0.  1.
         13    1    4    4    0    0  0.62173759255E+01 -0.46550435937E+01 -0.90345524533E+01  0.11914675670E+02  0.10566000000E+00 0. -1.
        -13    1    4    4    0    0  0.97792792415E+01 -0.90301554947E+01 -0.16037476831E+02  0.20842020964E+02  0.10566000000E+00 0.  1.
         14    1    4    4    0    0  0.98219159281E+01 -0.70039845627E+01 -0.13958654713E+02  0.18449115796E+02  0.00000000000E+00 0. -1.
<mgrwt>
<rscale>  0 0.78106616E+02</rscale>
<asrwt>0</asrwt>
<pdfrwt beam="1">  1        2 0.90693217E-02 0.78106616E+02</pdfrwt>
<pdfrwt beam="2">  1       -1 0.39802847E-02 0.78106616E+02</pdfrwt>
<totfact> 0.16545898E+05</totfact>
</mgrwt>
</event>
<event>
 8    1  0.2676873E-020  0.8110288E+02  0.7818608E-02  0.1325950E+00
          2   -1    0    0  501    0  0.00000000000E+00  0.00000000000E+00  0.36572795663E+02  0.36572795752E+02  0.25500000000E-02 0. -1.
         -1   -1    0    0    0  501 -0.00000000000E+00 -0.00000000000E+00 -0.44962908491E+02  0.44962908774E+02  0.50400000000E-02 0.  1.
         24    2    1    2    0    0  0.00000000000E+00  0.00000000000E+00 -0.83901128280E+01  0.81535704526E+02  0.81102879846E+02 0.  0.
         66    2    3    3    0    0 -0.26872437160E+02  0.52256693564E+01  0.25844626940E+02  0.37701196770E+02  0.19999992755E+01 0.  0.
        -13    1    3    3    0    0  0.26872437160E+02 -0.52256693564E+01 -0.34234739768E+02  0.43834507755E+02  0.10566000000E+00 0.  1.
         13    1    4    4    0    0 -0.35394509579E+01  0.11096178084E+00  0.35350138027E+01  0.50047489668E+01  0.10566000000E+00 0. -1.
        -13    1    4    4    0    0 -0.28034254787E+01  0.84036076310E+00  0.29405427831E+01  0.41501031941E+01  0.10566000000E+00 0.  1.
         14    1    4    4    0    0 -0.20529560724E+02  0.42743468125E+01  0.19369070354E+02  0.28546344609E+02  0.00000000000E+00 0. -1.
<mgrwt>
<rscale>  0 0.81102880E+02</rscale>
<asrwt>0</asrwt>
<pdfrwt beam="1">  1        2 0.56265840E-02 0.81102880E+02</pdfrwt>
<pdfrwt beam="2">  1       -1 0.69173706E-02 0.81102880E+02</pdfrwt>
<totfact> 0.13474814E+05</totfact>
</mgrwt>
</event>
<event>
 8    1  0.2676873E-020  0.7994707E+02  0.7818608E-02  0.1329202E+00
          2   -1    0    0  501    0  0.00000000000E+00  0.00000000000E+00  0.94490186618E+03  0.94490186619E+03  0.25500000000E-02 0. -1.
         -1   -1    0    0    0  501 -0.00000000000E+00 -0.00000000000E+00 -0.16910539464E+01  0.16910614570E+01  0.50400000000E-02 0.  1.
         24    2    1    2    0    0 -0.71054273576E-14  0.00000000000E+00  0.94321081224E+03  0.94659292764E+03  0.79947072146E+02 0.  0.
         66    2    3    3    0    0  0.29528100296E+02  0.27382157002E+01  0.78882752288E+03  0.78938727339E+03  0.20000017274E+01 0.  0.
        -13    1    3    3    0    0 -0.29528100296E+02 -0.27382157002E+01  0.15438328936E+03  0.15720565426E+03  0.10566000000E+00 0.  1.
         13    1    4    4    0    0  0.33755096807E+01 -0.32047601499E-01  0.96181157340E+02  0.96240434766E+02  0.10566000000E+00 0. -1.
        -13    1    4    4    0    0  0.72093611924E+01  0.86083401739E+00  0.20757771243E+03  0.20770467925E+03  0.10566000000E+00 0.  1.
         14    1    4    4    0    0  0.18943229422E+02  0.19094292843E+01  0.48506865311E+03  0.48544215937E+03  0.00000000000E+00 0. -1.
<mgrwt>
<rscale>  0 0.79947072E+02</rscale>
<asrwt>0</asrwt>
<pdfrwt beam="1">  1        2 0.14536910E+00 0.79947072E+02</pdfrwt>
<pdfrwt beam="2">  1       -1 0.26016347E-03 0.79947072E+02</pdfrwt>
<totfact> 0.35169393E+05</totfact>
</mgrwt>
</event>
<event>
 8    1  0.2676873E-020  0.7921015E+02  0.7818608E-02  0.1331308E+00
         -1   -1    0    0    0  501 -0.00000000000E+00  0.00000000000E+00  0.59268478927E+01  0.59268500356E+01  0.50400000000E-02 0.  1.
          2   -1    0    0  501    0  0.00000000000E+00 -0.00000000000E+00 -0.26465360002E+03  0.26465360003E+03  0.25500000000E-02 0. -1.
         24    2    1    2    0    0  0.00000000000E+00 -0.35527136788E-14 -0.25872675213E+03  0.27058045007E+03  0.79210148924E+02 0.  0.
         66    2    3    3    0    0  0.81974673703E+01  0.22210759911E+02 -0.23779422975E+03  0.23897826685E+03  0.19999991879E+01 0.  0.
        -13    1    3    3    0    0 -0.81974673703E+01 -0.22210759911E+02 -0.20932522379E+02  0.31602183221E+02  0.10566000000E+00 0.  1.
         13    1    4    4    0    0  0.25983131767E+01  0.64622009759E+01 -0.66583537313E+02  0.66946918361E+02  0.10566000000E+00 0. -1.
        -13    1    4    4    0    0  0.38503460319E+01  0.87376200922E+01 -0.10019620341E+03  0.10065019380E+03  0.10566000000E+00 0.  1.
        -14    1    4    4    0    0  0.17488081617E+01  0.70109388430E+01 -0.71014489023E+02  0.71381154689E+02  0.00000000000E+00 0.  1.
<mgrwt>
<rscale>  0 0.79210149E+02</rscale>
<asrwt>0</asrwt>
<pdfrwt beam="1">  1        2 0.40715929E-01 0.79210149E+02</pdfrwt>
<pdfrwt beam="2">  1       -1 0.91182313E-03 0.79210149E+02</pdfrwt>
<totfact> 0.25005882E+05</totfact>
</mgrwt>
</event>
<event>
 8    1  0.2676873E-020  0.7852209E+02  0.7818608E-02  0.1333299E+00
          2   -1    0    0  501    0  0.00000000000E+00  0.00000000000E+00  0.14824538931E+03  0.14824538934E+03  0.25500000000E-02 0. -1.
         -1   -1    0    0    0  501 -0.00000000000E+00 -0.00000000000E+00 -0.10397825669E+02  0.10397826891E+02  0.50400000000E-02 0.  1.
         24    2    1    2    0    0 -0.88817841970E-15 -0.17763568394E-14  0.13784756364E+03  0.15864321623E+03  0.78522094037E+02 0.  0.
         66    2    3    3    0    0  0.79919222499E+01  0.14715388071E+02  0.14065604132E+03  0.14166345833E+03  0.19999999602E+01 0.  0.
        -13    1    3    3    0    0 -0.79919222499E+01 -0.14715388071E+02 -0.28084776728E+01  0.16979757896E+02  0.10566000000E+00 0.  1.
         13    1    4    4    0    0  0.33113613285E+01  0.57483356262E+01  0.56461582179E+02  0.56850065105E+02  0.10566000000E+00 0. -1.
        -13    1    4    4    0    0  0.28603903298E+01  0.68328302841E+01  0.63034253321E+02  0.63468083777E+02  0.10566000000E+00 0.  1.
        -14    1    4    4    0    0  0.18201705915E+01  0.21342221605E+01  0.21160205817E+02  0.21345309448E+02  0.00000000000E+00 0.  1.
<mgrwt>
<rscale>  0 0.78522094E+02</rscale>
<asrwt>0</asrwt>
<pdfrwt beam="1">  1        2 0.22806981E-01 0.78522094E+02</pdfrwt>
<pdfrwt beam="2">  1       -1 0.15996657E-02 0.78522094E+02</pdfrwt>
<totfact> 0.20965689E+05</totfact>
</mgrwt>
</event>
<event>
 8    1  0.2676873E-020  0.8052918E+02  0.7818608E-02  0.1327556E+00
         -1   -1    0    0    0  501 -0.00000000000E+00  0.00000000000E+00  0.10151314614E+03  0.10151314626E+03  0.50400000000E-02 0.  1.
          2   -1    0    0  501    0  0.00000000000E+00 -0.00000000000E+00 -0.15970712269E+02  0.15970712473E+02  0.25500000000E-02 0. -1.
         24    2    1    2    0    0  0.35527136788E-14  0.00000000000E+00  0.85542433870E+02  0.11748385874E+03  0.80529181489E+02 0.  0.
         66    2    3    3    0    0 -0.22725766452E+02  0.33197130920E+02  0.41557602021E+02  0.57875247287E+02  0.20000001701E+01 0.  0.
        -13    1    3    3    0    0  0.22725766452E+02 -0.33197130920E+02  0.43984831849E+02  0.59608611450E+02  0.10566000000E+00 0.  1.
         13    1    4    4    0    0 -0.14195962576E+02  0.21028789176E+02  0.25711464955E+02  0.36122374255E+02  0.10566000000E+00 0. -1.
        -13    1    4    4    0    0 -0.29990421819E+01  0.39852649982E+01  0.46072574765E+01  0.67907714293E+01  0.10566000000E+00 0.  1.
        -14    1    4    4    0    0 -0.55307616939E+01  0.81830767460E+01  0.11238879589E+02  0.14962101602E+02  0.00000000000E+00 0.  1.
<mgrwt>
<rscale>  0 0.80529181E+02</rscale>
<asrwt>0</asrwt>
<pdfrwt beam="1">  1        2 0.24570327E-02 0.80529181E+02</pdfrwt>
<pdfrwt beam="2">  1       -1 0.15617407E-01 0.80529181E+02</pdfrwt>
<totfact> 0.11622139E+05</totfact>
</mgrwt>
</event>
<event>
 8    1  0.2676873E-020  0.7945045E+02  0.7818608E-02  0.1330618E+00
          2   -1    0    0  501    0  0.00000000000E+00  0.00000000000E+00  0.44806526141E+03  0.44806526142E+03  0.25500000000E-02 0. -1.
         -1   -1    0    0    0  501 -0.00000000000E+00 -0.00000000000E+00 -0.35220156607E+01  0.35220192668E+01  0.50400000000E-02 0.  1.
         24    2    1    2    0    0 -0.71054273576E-14  0.35527136788E-14  0.44454324575E+03  0.45158728068E+03  0.79450454588E+02 0.  0.
         66    2    3    3    0    0  0.37811149281E+02 -0.11143826054E+02  0.24920535096E+03  0.25231166207E+03  0.20000001684E+01 0.  0.
        -13    1    3    3    0    0 -0.37811149281E+02  0.11143826054E+02  0.19533789479E+03  0.19927561862E+03  0.10566000000E+00 0.  1.
         13    1    4    4    0    0  0.29857048204E+02 -0.92472558913E+01  0.19574412066E+03  0.19822393146E+03  0.10566000000E+00 0. -1.
        -13    1    4    4    0    0  0.87562110779E+00 -0.84157980909E-01  0.69027191978E+01  0.69593456050E+01  0.10566000000E+00 0.  1.
        -14    1    4    4    0    0  0.70784799687E+01 -0.18124121818E+01  0.46558511101E+02  0.47128384998E+02  0.00000000000E+00 0.  1.
<mgrwt>
<rscale>  0 0.79450455E+02</rscale>
<asrwt>0</asrwt>
<pdfrwt beam="1">  1        2 0.68933069E-01 0.79450455E+02</pdfrwt>
<pdfrwt beam="2">  1       -1 0.54184922E-03 0.79450455E+02</pdfrwt>
<totfact> 0.29908835E+05</totfact>
</mgrwt>
</event>
<event>
 8    1  0.2676873E-020  0.8215983E+02  0.7818608E-02  0.1323032E+00
          2   -1    0    0  501    0  0.00000000000E+00  0.00000000000E+00  0.55304634451E+03  0.55304634452E+03  0.25500000000E-02 0. -1.
         -1   -1    0    0    0  501 -0.00000000000E+00 -0.00000000000E+00 -0.30513864244E+01  0.30513905867E+01  0.50400000000E-02 0.  1.
         24    2    1    2    0    0  0.00000000000E+00  0.00000000000E+00  0.54999495809E+03  0.55609773511E+03  0.82159826354E+02 0.  0.
         66    2    3    3    0    0  0.34758933979E+02  0.20720998256E+02  0.32205881650E+03  0.32459732675E+03  0.19999977856E+01 0.  0.
        -13    1    3    3    0    0 -0.34758933979E+02 -0.20720998256E+02  0.22793614159E+03  0.23150040835E+03  0.10566000000E+00 0.  1.
         13    1    4    4    0    0  0.13249960504E+02  0.77564940648E+01  0.12921845665E+03  0.13012741969E+03  0.10566000000E+00 0. -1.
        -13    1    4    4    0    0  0.10868287482E+02  0.63017970684E+01  0.94632348231E+02  0.95462688077E+02  0.10566000000E+00 0.  1.
         14    1    4    4    0    0  0.10640685992E+02  0.66627071231E+01  0.98208011618E+02  0.99007218982E+02  0.00000000000E+00 0. -1.
<mgrwt>
<rscale>  0 0.82159826E+02</rscale>
<asrwt>0</asrwt>
<pdfrwt beam="1">  1        2 0.85084057E-01 0.82159826E+02</pdfrwt>
<pdfrwt beam="2">  1       -1 0.46944436E-03 0.82159826E+02</pdfrwt>
<totfact> 0.29307069E+05</totfact>
</mgrwt>
</event>
<event>
 8    1  0.2676873E-020  0.8242804E+02  0.7818608E-02  0.1322299E+00
          2   -1    0    0  501    0  0.00000000000E+00  0.00000000000E+00  0.23932923134E+03  0.23932923136E+03  0.25500000000E-02 0. -1.
         -1   -1    0    0    0  501 -0.00000000000E+00 -0.00000000000E+00 -0.70973160729E+01  0.70973178624E+01  0.50400000000E-02 0.  1.
         24    2    1    2    0    0  0.44408920985E-15 -0.35527136788E-14  0.23223191527E+03  0.24642654922E+03  0.82428039465E+02 0.  0.
         66    2    3    3    0    0 -0.16519200613E+01  0.22903176671E+02  0.21841371940E+03  0.21962658574E+03  0.19999998278E+01 0.  0.
        -13    1    3    3    0    0  0.16519200613E+01 -0.22903176671E+02  0.13818195873E+02  0.26799963483E+02  0.10566000000E+00 0.  1.
         13    1    4    4    0    0 -0.10460861800E+01  0.16573182496E+02  0.15164774780E+03  0.15255430263E+03  0.10566000000E+00 0. -1.
        -13    1    4    4    0    0 -0.13805234704E-01  0.17616896338E+01  0.15667012516E+02  0.15766108783E+02  0.10566000000E+00 0.  1.
        -14    1    4    4    0    0 -0.59202864669E+00  0.45683045405E+01  0.51098959088E+02  0.51306174327E+02  0.00000000000E+00 0.  1.
<mgrwt>
<rscale>  0 0.82428039E+02</rscale>
<asrwt>0</asrwt>
<pdfrwt beam="1">  1        2 0.36819880E-01 0.82428039E+02</pdfrwt>
<pdfrwt beam="2">  1       -1 0.10918950E-02 0.82428039E+02</pdfrwt>
<totfact> 0.21718926E+05</totfact>
</mgrwt>
</event>
<event>
 8    1  0.2676873E-020  0.7744833E+02  0.7818608E-02  0.1336453E+00
          2   -1    0    0  501    0  0.00000000000E+00  0.00000000000E+00  0.75575209197E+02  0.75575209240E+02  0.25500000000E-02 0. -1.
         -1   -1    0    0    0  501 -0.00000000000E+00 -0.00000000000E+00 -0.19841966324E+02  0.19841966964E+02  0.50400000000E-02 0.  1.
         24    2    1    2    0    0  0.71054273576E-14  0.35527136788E-14  0.55733242873E+02  0.95417176204E+02  0.77448325699E+02 0.  0.
         66    2    3    3    0    0  0.26310342801E+02  0.16418999103E+02  0.56401299022E+02  0.64396616361E+02  0.19999993971E+01 0.  0.
        -13    1    3    3    0    0 -0.26310342801E+02 -0.16418999103E+02 -0.66805614905E+00  0.31020559842E+02  0.10566000000E+00 0.  1.
         13    1    4    4    0    0  0.80092519354E+01  0.52173417924E+01  0.16303154615E+02  0.18899015487E+02  0.10566000000E+00 0. -1.
        -13    1    4    4    0    0  0.54785641929E+01  0.36437139119E+01  0.11146498483E+02  0.12943991237E+02  0.10566000000E+00 0.  1.
         14    1    4    4    0    0  0.12822526673E+02  0.75579433983E+01  0.28951645924E+02  0.32553609637E+02  0.00000000000E+00 0. -1.
<mgrwt>
<rscale>  0 0.77448326E+02</rscale>
<asrwt>0</asrwt>
<pdfrwt beam="1">  1        2 0.11626955E-01 0.77448326E+02</pdfrwt>
<pdfrwt beam="2">  1       -1 0.30526103E-02 0.77448326E+02</pdfrwt>
<totfact> 0.17958221E+05</totfact>
</mgrwt>
</event>
<event>
 8    1  0.2676873E-020  0.8040809E+02  0.7818608E-02  0.1327897E+00
         -1   -1    0    0    0  501 -0.00000000000E+00  0.00000000000E+00  0.46721647761E+01  0.46721674945E+01  0.50400000000E-02 0.  1.
          2   -1    0    0  501    0  0.00000000000E+00 -0.00000000000E+00 -0.34595629154E+03  0.34595629155E+03  0.25500000000E-02 0. -1.
         24    2    1    2    0    0  0.00000000000E+00  0.00000000000E+00 -0.34128412676E+03  0.35062845904E+03  0.80408091076E+02 0.  0.
         66    2    3    3    0    0 -0.24714853389E+02  0.48594294977E+01 -0.30725066426E+03  0.30828786661E+03  0.19999954638E+01 0.  0.
        -13    1    3    3    0    0  0.24714853389E+02 -0.48594294977E+01 -0.34033462507E+02  0.42340592430E+02  0.10566000000E+00 0.  1.
         13    1    4    4    0    0 -0.37233587796E+01  0.23282297347E+00 -0.46227299959E+02  0.46377710516E+02  0.10566000000E+00 0. -1.
        -13    1    4    4    0    0 -0.14937738484E+02  0.38881508728E+01 -0.18703859365E+03  0.18767445332E+03  0.10566000000E+00 0.  1.
        -14    1    4    4    0    0 -0.60537561256E+01  0.73845565139E+00 -0.73984770645E+02  0.74235702780E+02  0.00000000000E+00 0.  1.
<mgrwt>
<rscale>  0 0.80408091E+02</rscale>
<asrwt>0</asrwt>
<pdfrwt beam="1">  1        2 0.53224025E-01 0.80408091E+02</pdfrwt>
<pdfrwt beam="2">  1       -1 0.71879506E-03 0.80408091E+02</pdfrwt>
<totfact> 0.26482831E+05</totfact>
</mgrwt>
</event>
<event>
 8    1  0.2676873E-020  0.8194372E+02  0.7818608E-02  0.1323624E+00
          2   -1    0    0  501    0  0.00000000000E+00  0.00000000000E+00  0.16512337218E+03  0.16512337220E+03  0.25500000000E-02 0. -1.
         -1   -1    0    0    0  501 -0.00000000000E+00 -0.00000000000E+00 -0.10166296609E+02  0.10166297858E+02  0.50400000000E-02 0.  1.
         24    2    1    2    0    0  0.00000000000E+00 -0.17763568394E-14  0.15495707557E+03  0.17528967006E+03  0.81943719463E+02 0.  0.
         66    2    3    3    0    0 -0.34955329965E+02 -0.96371681494E+01  0.11822113790E+03  0.12367290550E+03  0.20000013814E+01 0.  0.
        -13    1    3    3    0    0  0.34955329965E+02  0.96371681494E+01  0.36735937672E+02  0.51616764559E+02  0.10566000000E+00 0.  1.
         13    1    4    4    0    0 -0.63166172269E+01 -0.19346642616E+01  0.22314305298E+02  0.23271913629E+02  0.10566000000E+00 0. -1.
        -13    1    4    4    0    0 -0.10857033290E+01 -0.57445098492E+00  0.35015188133E+01  0.37122154690E+01  0.10566000000E+00 0.  1.
         14    1    4    4    0    0 -0.27553009409E+02 -0.71280529028E+01  0.92405313786E+02  0.96688776399E+02  0.00000000000E+00 0. -1.
<mgrwt>
<rscale>  0 0.81943719E+02</rscale>
<asrwt>0</asrwt>
<pdfrwt beam="1">  1        2 0.25403593E-01 0.81943719E+02</pdfrwt>
<pdfrwt beam="2">  1       -1 0.15640459E-02 0.81943719E+02</pdfrwt>
<totfact> 0.19393760E+05</totfact>
</mgrwt>
</event>
<event>
 8    1  0.2676873E-020  0.7933339E+02  0.7818608E-02  0.1330954E+00
          2   -1    0    0  501    0  0.00000000000E+00  0.00000000000E+00  0.52616259662E+03  0.52616259662E+03  0.25500000000E-02 0. -1.
         -1   -1    0    0    0  501 -0.00000000000E+00 -0.00000000000E+00 -0.29904168678E+01  0.29904211150E+01  0.50400000000E-02 0.  1.
         24    2    1    2    0    0  0.00000000000E+00  0.17763568394E-14  0.52317217975E+03  0.52915301774E+03  0.79333388418E+02 0.  0.
         66    2    3    3    0    0  0.31415322627E+02  0.13713060139E+02  0.39456196762E+03  0.39605317423E+03  0.20000027076E+01 0.  0.
        -13    1    3    3    0    0 -0.31415322627E+02 -0.13713060139E+02  0.12861021213E+03  0.13309984350E+03  0.10566000000E+00 0.  1.
         13    1    4    4    0    0  0.44474999041E+01  0.16121449535E+01  0.56865799197E+02  0.57062330386E+02  0.10566000000E+00 0. -1.
        -13    1    4    4    0    0  0.79582954013E+01  0.28441428499E+01  0.98760644177E+02  0.99121640505E+02  0.10566000000E+00 0.  1.
        -14    1    4    4    0    0  0.19009527321E+02  0.92567723354E+01  0.23893552425E+03  0.23986920334E+03  0.00000000000E+00 0.  1.
<mgrwt>
<rscale>  0 0.79333388E+02</rscale>
<asrwt>0</asrwt>
<pdfrwt beam="1">  1        2 0.80948155E-01 0.79333388E+02</pdfrwt>
<pdfrwt beam="2">  1       -1 0.46006411E-03 0.79333388E+02</pdfrwt>
<totfact> 0.31624252E+05</totfact>
</mgrwt>
</event>
<event>
 8    1  0.2676873E-020  0.8119855E+02  0.7818608E-02  0.1325684E+00
          2   -1    0    0  501    0  0.00000000000E+00  0.00000000000E+00  0.60135613226E+03  0.60135613227E+03  0.25500000000E-02 0. -1.
         -1   -1    0    0    0  501 -0.00000000000E+00 -0.00000000000E+00 -0.27409709960E+01  0.27409756297E+01  0.50400000000E-02 0.  1.
         24    2    1    2    0    0 -0.71054273576E-14  0.00000000000E+00  0.59861516126E+03  0.60409710790E+03  0.81198549692E+02 0.  0.
         66    2    3    3    0    0  0.38501530864E+02  0.56847141869E+01  0.38483928345E+03  0.38680739126E+03  0.19999990692E+01 0.  0.
        -13    1    3    3    0    0 -0.38501530864E+02 -0.56847141869E+01  0.21377587782E+03  0.21728971663E+03  0.10566000000E+00 0.  1.
         13    1    4    4    0    0  0.46075063516E+01  0.53955667177E+00  0.41704001094E+02  0.41961352546E+02  0.10566000000E+00 0. -1.
        -13    1    4    4    0    0  0.85079914813E+01  0.74631600615E+00  0.84125365663E+02  0.84557857226E+02  0.10566000000E+00 0.  1.
         14    1    4    4    0    0  0.25386033031E+02  0.43988415090E+01  0.25900991669E+03  0.26028818149E+03  0.00000000000E+00 0. -1.
<mgrwt>
<rscale>  0 0.81198550E+02</rscale>
<asrwt>0</asrwt>
<pdfrwt beam="1">  1        2 0.92516340E-01 0.81198550E+02</pdfrwt>
<pdfrwt beam="2">  1       -1 0.42168815E-03 0.81198550E+02</pdfrwt>
<totfact> 0.30961265E+05</totfact>
</mgrwt>
</event>
<event>
 8    1  0.2676873E-020  0.8000862E+02  0.7818608E-02  0.1329027E+00
         -1   -1    0    0    0  501 -0.00000000000E+00  0.00000000000E+00  0.64298682588E+01  0.64298702341E+01  0.50400000000E-02 0.  1.
          2   -1    0    0  501    0  0.00000000000E+00 -0.00000000000E+00 -0.24889229397E+03  0.24889229398E+03  0.25500000000E-02 0. -1.
         24    2    1    2    0    0 -0.17763568394E-14  0.55511151231E-16 -0.24246242571E+03  0.25532216422E+03  0.80008622402E+02 0.  0.
         66    2    3    3    0    0 -0.11882673035E+02  0.33977941676E+00 -0.24311746098E+03  0.24341613197E+03  0.20000255688E+01 0.  0.
        -13    1    3    3    0    0  0.11882673035E+02 -0.33977941676E+00  0.65503527176E+00  0.11906032242E+02  0.10566000000E+00 0.  1.
         13    1    4    4    0    0 -0.55110905027E+01  0.79845056249E-01 -0.11672451048E+03  0.11685461482E+03  0.10566000000E+00 0. -1.
        -13    1    4    4    0    0 -0.58708783234E+01 -0.14480990474E+00 -0.11137414586E+03  0.11152891872E+03  0.10566000000E+00 0.  1.
         14    1    4    4    0    0 -0.50070420911E+00  0.40474426524E+00 -0.15018804648E+02  0.15032598434E+02  0.00000000000E+00 0. -1.
<mgrwt>
<rscale>  0 0.80008622E+02</rscale>
<asrwt>0</asrwt>
<pdfrwt beam="1">  1        2 0.38291115E-01 0.80008622E+02</pdfrwt>
<pdfrwt beam="2">  1       -1 0.98921085E-03 0.80008622E+02</pdfrwt>
<totfact> 0.23823687E+05</totfact>
</mgrwt>
</event>
<event>
 8    1  0.2676873E-020  0.7663760E+02  0.7818608E-02  0.1338874E+00
          2   -1    0    0  501    0  0.00000000000E+00  0.00000000000E+00  0.10537894331E+03  0.10537894334E+03  0.25500000000E-02 0. -1.
         -1   -1    0    0    0  501 -0.00000000000E+00 -0.00000000000E+00 -0.13933810687E+02  0.13933811599E+02  0.50400000000E-02 0.  1.
         24    2    1    2    0    0  0.00000000000E+00  0.00000000000E+00  0.91445132621E+02  0.11931275494E+03  0.76637596588E+02 0.  0.
         66    2    3    3    0    0 -0.36541976470E+02  0.10418491337E+01  0.63499171303E+02  0.73297655112E+02  0.19999987143E+01 0.  0.
        -13    1    3    3    0    0  0.36541976470E+02 -0.10418491337E+01  0.27945961318E+02  0.46015099826E+02  0.10566000000E+00 0.  1.
         13    1    4    4    0    0 -0.55709233343E+01  0.40246602788E+00  0.98473808662E+01  0.11321627077E+02  0.10566000000E+00 0. -1.
        -13    1    4    4    0    0 -0.56166199817E+01  0.31196916645E-01  0.84919862353E+01  0.10181963834E+02  0.10566000000E+00 0.  1.
        -14    1    4    4    0    0 -0.25354433154E+02  0.60818618920E+00  0.45159804201E+02  0.51794064201E+02  0.00000000000E+00 0.  1.
<mgrwt>
<rscale>  0 0.76637597E+02</rscale>
<asrwt>0</asrwt>
<pdfrwt beam="1">  1        2 0.16212145E-01 0.76637597E+02</pdfrwt>
<pdfrwt beam="2">  1       -1 0.21436632E-02 0.76637597E+02</pdfrwt>
<totfact> 0.20174511E+05</totfact>
</mgrwt>
</event>
<event>
 8    1  0.2676873E-020  0.7911847E+02  0.7818608E-02  0.1331572E+00
          2   -1    0    0  501    0  0.00000000000E+00  0.00000000000E+00  0.89924293990E+01  0.89924297606E+01  0.25500000000E-02 0. -1.
         -1   -1    0    0    0  501 -0.00000000000E+00 -0.00000000000E+00 -0.17402782542E+03  0.17402782549E+03  0.50400000000E-02 0.  1.
         24    2    1    2    0    0 -0.88817841970E-15  0.00000000000E+00 -0.16503539602E+03  0.18302025525E+03  0.79118467461E+02 0.  0.
         66    2    3    3    0    0 -0.72006307106E+01  0.38567659321E+02 -0.93811451405E+02  0.10170497453E+03  0.20000004266E+01 0.  0.
        -13    1    3    3    0    0  0.72006307106E+01 -0.38567659321E+02 -0.71223944617E+02  0.81315280722E+02  0.10566000000E+00 0.  1.
         13    1    4    4    0    0 -0.37510741158E+01  0.20461549436E+02 -0.51536444892E+02  0.55576630687E+02  0.10566000000E+00 0. -1.
        -13    1    4    4    0    0 -0.32193053785E+01  0.17365985328E+02 -0.40883338177E+02  0.44535377826E+02  0.10566000000E+00 0.  1.
        -14    1    4    4    0    0 -0.23025121638E+00  0.74012455676E+00 -0.13916683348E+01  0.15929660186E+01  0.00000000000E+00 0.  1.
<mgrwt>
<rscale>  0 0.79118467E+02</rscale>
<asrwt>0</asrwt>
<pdfrwt beam="1">  1        2 0.13834508E-02 0.79118467E+02</pdfrwt>
<pdfrwt beam="2">  1       -1 0.26773509E-01 0.79118467E+02</pdfrwt>
<totfact> 0.10665581E+05</totfact>
</mgrwt>
</event>
<event>
 8    1  0.2676873E-020  0.7910701E+02  0.7818608E-02  0.1331605E+00
         -1   -1    0    0    0  501 -0.00000000000E+00  0.00000000000E+00  0.22584415100E+02  0.22584415663E+02  0.50400000000E-02 0.  1.
          2   -1    0    0  501    0  0.00000000000E+00 -0.00000000000E+00 -0.69272537456E+02  0.69272537503E+02  0.25500000000E-02 0. -1.
         24    2    1    2    0    0  0.88817841970E-15  0.00000000000E+00 -0.46688122356E+02  0.91856953166E+02  0.79107010282E+02 0.  0.
         66    2    3    3    0    0  0.41681922984E+01  0.37470648551E+02 -0.37149627993E+02  0.52967142564E+02  0.20000003782E+01 0.  0.
        -13    1    3    3    0    0 -0.41681922984E+01 -0.37470648551E+02 -0.95384943634E+01  0.38889810602E+02  0.10566000000E+00 0.  1.
         13    1    4    4    0    0 -0.43746756730E-01  0.16328414230E+01 -0.17805090418E+01  0.24185659749E+01  0.10566000000E+00 0.  1.
        -13    1    4    4    0    0  0.23612073796E+01  0.21922992447E+02 -0.22542265601E+02  0.31533439403E+02  0.10566000000E+00 0. -1.
         14    1    4    4    0    0  0.18507316755E+01  0.13914814681E+02 -0.12826853350E+02  0.19015137186E+02  0.00000000000E+00 0. -1.
<mgrwt>
<rscale>  0 0.79107010E+02</rscale>
<asrwt>0</asrwt>
<pdfrwt beam="1">  1        2 0.10657313E-01 0.79107010E+02</pdfrwt>
<pdfrwt beam="2">  1       -1 0.34745255E-02 0.79107010E+02</pdfrwt>
<totfact> 0.16602119E+05</totfact>
</mgrwt>
</event>
<event>
 8    1  0.2676873E-020  0.8037333E+02  0.7818608E-02  0.1327995E+00
          2   -1    0    0  501    0  0.00000000000E+00  0.00000000000E+00  0.23052635821E+03  0.23052635822E+03  0.25500000000E-02 0. -1.
         -1   -1    0    0    0  501 -0.00000000000E+00 -0.00000000000E+00 -0.70055669975E+01  0.70055688104E+01  0.50400000000E-02 0.  1.
         24    2    1    2    0    0 -0.35527136788E-14  0.00000000000E+00  0.22352079121E+03  0.23753192703E+03  0.80373330504E+02 0.  0.
         66    2    3    3    0    0  0.27035088648E+02  0.86566362730E+01  0.19579119722E+03  0.19784849325E+03  0.20000006929E+01 0.  0.
        -13    1    3    3    0    0 -0.27035088648E+02 -0.86566362730E+01  0.27729593989E+02  0.39683433780E+02  0.10566000000E+00 0.  1.
         13    1    4    4    0    0  0.56790961671E+01  0.20969175198E+01  0.37680228663E+02  0.38163595120E+02  0.10566000000E+00 0. -1.
        -13    1    4    4    0    0  0.47876719531E+01  0.13095440313E+01  0.38013297684E+02  0.38336127519E+02  0.10566000000E+00 0.  1.
         14    1    4    4    0    0  0.16568320528E+02  0.52501747218E+01  0.12009767087E+03  0.12134877061E+03  0.00000000000E+00 0. -1.
<mgrwt>
<rscale>  0 0.80373331E+02</rscale>
<asrwt>0</asrwt>
<pdfrwt beam="1">  1        2 0.35465594E-01 0.80373331E+02</pdfrwt>
<pdfrwt beam="2">  1       -1 0.10777797E-02 0.80373331E+02</pdfrwt>
<totfact> 0.22905223E+05</totfact>
</mgrwt>
</event>
<event>
 8    1  0.2676873E-020  0.8348870E+02  0.7818608E-02  0.1319433E+00
         -1   -1    0    0    0  501 -0.00000000000E+00  0.00000000000E+00  0.21373939260E+02  0.21373939855E+02  0.50400000000E-02 0.  1.
          2   -1    0    0  501    0  0.00000000000E+00 -0.00000000000E+00 -0.81528749223E+02  0.81528749263E+02  0.25500000000E-02 0. -1.
         24    2    1    2    0    0  0.35527136788E-14  0.00000000000E+00 -0.60154809963E+02  0.10290268912E+03  0.83488695438E+02 0.  0.
         66    2    3    3    0    0  0.23953035211E+02 -0.25746820636E+01 -0.72077001564E+02  0.76022832344E+02  0.19999999059E+01 0.  0.
        -13    1    3    3    0    0 -0.23953035211E+02  0.25746820636E+01  0.11922191601E+02  0.26879856774E+02  0.10566000000E+00 0.  1.
         13    1    4    4    0    0  0.16281808151E+02 -0.11618054691E+01 -0.46866247160E+02  0.49627647089E+02  0.10566000000E+00 0. -1.
        -13    1    4    4    0    0  0.65899978325E+00 -0.13290475003E-01 -0.21200262420E+01  0.22226409187E+01  0.10566000000E+00 0.  1.
        -14    1    4    4    0    0  0.70122272773E+01 -0.13995861195E+01 -0.23090728162E+02  0.24172544337E+02  0.00000000000E+00 0.  1.
<mgrwt>
<rscale>  0 0.83488695E+02</rscale>
<asrwt>0</asrwt>
<pdfrwt beam="1">  1        2 0.12542884E-01 0.83488695E+02</pdfrwt>
<pdfrwt beam="2">  1       -1 0.32882984E-02 0.83488695E+02</pdfrwt>
<totfact> 0.14950004E+05</totfact>
</mgrwt>
</event>
<event>
 8    1  0.2676873E-020  0.8071221E+02  0.7818608E-02  0.1327042E+00
         -1   -1    0    0    0  501 -0.00000000000E+00  0.00000000000E+00  0.76378296709E+01  0.76378313338E+01  0.50400000000E-02 0.  1.
          2   -1    0    0  501    0  0.00000000000E+00 -0.00000000000E+00 -0.21323009574E+03  0.21323009575E+03  0.25500000000E-02 0. -1.
         24    2    1    2    0    0  0.00000000000E+00  0.00000000000E+00 -0.20559226607E+03  0.22086792709E+03  0.80712213134E+02 0.  0.
         66    2    3    3    0    0 -0.34702967697E+01 -0.22089776860E+02 -0.19470926139E+03  0.19599922876E+03  0.20000011564E+01 0.  0.
        -13    1    3    3    0    0  0.34702967697E+01  0.22089776860E+02 -0.10883004679E+02  0.24868698322E+02  0.10566000000E+00 0.  1.
         13    1    4    4    0    0 -0.19590245115E+01 -0.11556318472E+02 -0.10710358810E+03  0.10774310196E+03  0.10566000000E+00 0. -1.
        -13    1    4    4    0    0 -0.49535348312E-01 -0.20351883214E+01 -0.14161468885E+02  0.14307438984E+02  0.10566000000E+00 0.  1.
        -14    1    4    4    0    0 -0.14617369099E+01 -0.84982700664E+01 -0.73444204405E+02  0.73948687815E+02  0.00000000000E+00 0.  1.
<mgrwt>
<rscale>  0 0.80712213E+02</rscale>
<asrwt>0</asrwt>
<pdfrwt beam="1">  1        2 0.32804626E-01 0.80712213E+02</pdfrwt>
<pdfrwt beam="2">  1       -1 0.11750510E-02 0.80712213E+02</pdfrwt>
<totfact> 0.22036530E+05</totfact>
</mgrwt>
</event>
<event>
 8    1  0.2676873E-020  0.7908101E+02  0.7818608E-02  0.1331680E+00
          2   -1    0    0  501    0  0.00000000000E+00  0.00000000000E+00  0.81893318863E+03  0.81893318863E+03  0.25500000000E-02 0. -1.
         -1   -1    0    0    0  501 -0.00000000000E+00 -0.00000000000E+00 -0.19091287849E+01  0.19091354375E+01  0.50400000000E-02 0.  1.
         24    2    1    2    0    0  0.35527136788E-14  0.00000000000E+00  0.81702405985E+03  0.82084232407E+03  0.79081013026E+02 0.  0.
         66    2    3    3    0    0  0.28337240244E+02 -0.21873910699E+01  0.69372745045E+03  0.69431229239E+03  0.19999987919E+01 0.  0.
        -13    1    3    3    0    0 -0.28337240244E+02  0.21873910699E+01  0.12329660940E+03  0.12653003168E+03  0.10566000000E+00 0.  1.
         13    1    4    4    0    0  0.16650354386E+02 -0.35289730837E+00  0.40742833112E+03  0.40776858020E+03  0.10566000000E+00 0. -1.
        -13    1    4    4    0    0  0.80770508733E+00 -0.12496232794E+00  0.20304861675E+02  0.20321579042E+02  0.10566000000E+00 0.  1.
         14    1    4    4    0    0  0.10879180770E+02 -0.17095314336E+01  0.26599425766E+03  0.26622213315E+03  0.00000000000E+00 0. -1.
<mgrwt>
<rscale>  0 0.79081013E+02</rscale>
<asrwt>0</asrwt>
<pdfrwt beam="1">  1        2 0.12598996E+00 0.79081013E+02</pdfrwt>
<pdfrwt beam="2">  1       -1 0.29371207E-03 0.79081013E+02</pdfrwt>
<totfact> 0.35550407E+05</totfact>
</mgrwt>
</event>
<event>
 8    1  0.2676873E-020  0.8160177E+02  0.7818608E-02  0.1324566E+00
          2   -1    0    0  501    0  0.00000000000E+00  0.00000000000E+00  0.14453656771E+04  0.14453656771E+04  0.25500000000E-02 0. -1.
         -1   -1    0    0    0  501 -0.00000000000E+00 -0.00000000000E+00 -0.11517531086E+01  0.11517641360E+01  0.50400000000E-02 0.  1.
         24    2    1    2    0    0  0.00000000000E+00  0.00000000000E+00  0.14442139240E+04  0.14465174413E+04  0.81601774221E+02 0.  0.
         66    2    3    3    0    0  0.22149396111E+02 -0.61443628302E+01  0.13195737529E+04  0.13197754499E+04  0.20000003458E+01 0.  0.
        -13    1    3    3    0    0 -0.22149396111E+02  0.61443628302E+01  0.12464017116E+03  0.12674199136E+03  0.10566000000E+00 0.  1.
         13    1    4    4    0    0  0.16900764408E+01 -0.17562136164E+00  0.78507198667E+02  0.78525655730E+02  0.10566000000E+00 0. -1.
        -13    1    4    4    0    0  0.11663999568E+02 -0.31650619173E+01  0.72220623241E+03  0.72230735826E+03  0.10566000000E+00 0.  1.
         14    1    4    4    0    0  0.87953201018E+01 -0.28036795512E+01  0.51886032178E+03  0.51894243591E+03  0.00000000000E+00 0. -1.
<mgrwt>
<rscale>  0 0.81601774E+02</rscale>
<asrwt>0</asrwt>
<pdfrwt beam="1">  1        2 0.22236492E+00 0.81601774E+02</pdfrwt>
<pdfrwt beam="2">  1       -1 0.17719287E-03 0.81601774E+02</pdfrwt>
<totfact> 0.31993238E+05</totfact>
</mgrwt>
</event>
<event>
 8    1  0.2676873E-020  0.7870396E+02  0.7818608E-02  0.1332770E+00
          2   -1    0    0  501    0  0.00000000000E+00  0.00000000000E+00  0.10836232622E+03  0.10836232625E+03  0.25500000000E-02 0. -1.
         -1   -1    0    0    0  501 -0.00000000000E+00 -0.00000000000E+00 -0.14290742601E+02  0.14290743490E+02  0.50400000000E-02 0.  1.
         24    2    1    2    0    0  0.00000000000E+00  0.00000000000E+00  0.94071583614E+02  0.12265306973E+03  0.78703955884E+02 0.  0.
         66    2    3    3    0    0 -0.70944662044E+00 -0.11501951028E+02  0.10566262627E+03  0.10630799017E+03  0.19999981184E+01 0.  0.
        -13    1    3    3    0    0  0.70944662044E+00  0.11501951028E+02 -0.11591042657E+02  0.16345079561E+02  0.10566000000E+00 0.  1.
         13    1    4    4    0    0 -0.91503862934E+00 -0.48015594818E+01  0.42568095849E+02  0.42847942978E+02  0.10566000000E+00 0. -1.
        -13    1    4    4    0    0 -0.51932801577E-02 -0.23012690004E+01  0.16952926312E+02  0.17108732874E+02  0.10566000000E+00 0.  1.
         14    1    4    4    0    0  0.21078528906E+00 -0.43991225455E+01  0.46141604109E+02  0.46351314322E+02  0.00000000000E+00 0. -1.
<mgrwt>
<rscale>  0 0.78703956E+02</rscale>
<asrwt>0</asrwt>
<pdfrwt beam="1">  1        2 0.16671127E-01 0.78703956E+02</pdfrwt>
<pdfrwt beam="2">  1       -1 0.21985759E-02 0.78703956E+02</pdfrwt>
<totfact> 0.18943595E+05</totfact>
</mgrwt>
</event>
<event>
 8    1  0.2676873E-020  0.7648002E+02  0.7818608E-02  0.1339348E+00
         -1   -1    0    0    0  501 -0.00000000000E+00  0.00000000000E+00  0.49895061282E+01  0.49895086737E+01  0.50400000000E-02 0.  1.
          2   -1    0    0  501    0  0.00000000000E+00 -0.00000000000E+00 -0.29307468009E+03  0.29307468010E+03  0.25500000000E-02 0. -1.
         24    2    1    2    0    0  0.00000000000E+00  0.00000000000E+00 -0.28808517396E+03  0.29806418877E+03  0.76480018131E+02 0.  0.
         66    2    3    3    0    0 -0.35720403940E+02  0.75240317219E+01 -0.18818787463E+03  0.19170611485E+03  0.20000005679E+01 0.  0.
        -13    1    3    3    0    0  0.35720403940E+02 -0.75240317219E+01 -0.99897299325E+02  0.10635807392E+03  0.10566000000E+00 0.  1.
         13    1    4    4    0    0 -0.26393664647E+01  0.71222528295E+00 -0.13487241001E+02  0.13761916802E+02  0.10566000000E+00 0. -1.
        -13    1    4    4    0    0 -0.20472120779E+02  0.40551587030E+01 -0.11228126474E+03  0.11420440279E+03  0.10566000000E+00 0.  1.
        -14    1    4    4    0    0 -0.12608916697E+02  0.27566477359E+01 -0.62419368889E+02  0.63739795258E+02  0.00000000000E+00 0.  1.
<mgrwt>
<rscale>  0 0.76480018E+02</rscale>
<asrwt>0</asrwt>
<pdfrwt beam="1">  1        2 0.45088399E-01 0.76480018E+02</pdfrwt>
<pdfrwt beam="2">  1       -1 0.76761675E-03 0.76480018E+02</pdfrwt>
<totfact> 0.28438683E+05</totfact>
</mgrwt>
</event>
<event>
 8    1  0.2676873E-020  0.7572563E+02  0.7818608E-02  0.1341639E+00
          2   -1    0    0  501    0  0.00000000000E+00  0.00000000000E+00  0.33422970435E+03  0.33422970436E+03  0.25500000000E-02 0. -1.
         -1   -1    0    0    0  501 -0.00000000000E+00 -0.00000000000E+00 -0.42892425803E+01  0.42892455414E+01  0.50400000000E-02 0.  1.
         24    2    1    2    0    0  0.00000000000E+00  0.00000000000E+00  0.32994046177E+03  0.33851894990E+03  0.75725630597E+02 0.  0.
         66    2    3    3    0    0  0.37424540518E+02 -0.41187718435E+00  0.18990320536E+03  0.19356650865E+03  0.19999980009E+01 0.  0.
        -13    1    3    3    0    0 -0.37424540518E+02  0.41187718435E+00  0.14003725641E+03  0.14495244125E+03  0.10566000000E+00 0.  1.
         13    1    4    4    0    0  0.15270491172E+02  0.33266226212E-01  0.76263330480E+02  0.77777218691E+02  0.10566000000E+00 0. -1.
        -13    1    4    4    0    0  0.74384336318E+00 -0.25375529485E+00  0.37387093758E+01  0.38218852064E+01  0.10566000000E+00 0.  1.
        -14    1    4    4    0    0  0.21410205982E+02 -0.19138811572E+00  0.10990116550E+03  0.11196740476E+03  0.00000000000E+00 0.  1.
<mgrwt>
<rscale>  0 0.75725631E+02</rscale>
<asrwt>0</asrwt>
<pdfrwt beam="1">  1        2 0.51419952E-01 0.75725631E+02</pdfrwt>
<pdfrwt beam="2">  1       -1 0.65988373E-03 0.75725631E+02</pdfrwt>
<totfact> 0.30594442E+05</totfact>
</mgrwt>
</event>
<event>
 8    1  0.2676873E-020  0.7924814E+02  0.7818608E-02  0.1331199E+00
         -1   -1    0    0    0  501 -0.00000000000E+00  0.00000000000E+00  0.11163567958E+01  0.11163681727E+01  0.50400000000E-02 0.  1.
          2   -1    0    0  501    0  0.00000000000E+00 -0.00000000000E+00 -0.14064131511E+04  0.14064131511E+04  0.25500000000E-02 0. -1.
         24    2    1    2    0    0  0.17763568394E-14 -0.17763568394E-14 -0.14052967943E+04  0.14075295192E+04  0.79248139086E+02 0.  0.
         66    2    3    3    0    0 -0.95009483828E+01  0.12342337668E+02 -0.13497187259E+04  0.13498100757E+04  0.19999978780E+01 0.  0.
        -13    1    3    3    0    0  0.95009483828E+01 -0.12342337668E+02 -0.55578068349E+02  0.57719443559E+02  0.10566000000E+00 0.  1.
         13    1    4    4    0    0 -0.42442397446E+01  0.59747255461E+01 -0.67952202765E+03  0.67956155582E+03  0.10566000000E+00 0. -1.
        -13    1    4    4    0    0 -0.27110520687E+01  0.41505922681E+01 -0.39704353851E+03  0.39707450165E+03  0.10566000000E+00 0.  1.
        -14    1    4    4    0    0 -0.25456565695E+01  0.22170198543E+01 -0.27315315974E+03  0.27317401820E+03  0.00000000000E+00 0.  1.
<mgrwt>
<rscale>  0 0.79248139E+02</rscale>
<asrwt>0</asrwt>
<pdfrwt beam="1">  1        2 0.21636984E+00 0.79248139E+02</pdfrwt>
<pdfrwt beam="2">  1       -1 0.17174920E-03 0.79248139E+02</pdfrwt>
<totfact> 0.34812787E+05</totfact>
</mgrwt>
</event>
<event>
 8    1  0.2676873E-020  0.8133958E+02  0.7818608E-02  0.1325292E+00
         -1   -1    0    0    0  501 -0.00000000000E+00  0.00000000000E+00  0.82311651036E+01  0.82311666466E+01  0.50400000000E-02 0.  1.
          2   -1    0    0  501    0  0.00000000000E+00 -0.00000000000E+00 -0.20094747571E+03  0.20094747572E+03  0.25500000000E-02 0. -1.
         24    2    1    2    0    0 -0.71054273576E-14 -0.35527136788E-14 -0.19271631060E+03  0.20917864237E+03  0.81339584773E+02 0.  0.
         66    2    3    3    0    0  0.34549878968E+02  0.21111448735E+02 -0.10555912335E+03  0.11307570870E+03  0.19999932520E+01 0.  0.
        -13    1    3    3    0    0 -0.34549878968E+02 -0.21111448735E+02 -0.87157187257E+02  0.96102933665E+02  0.10566000000E+00 0.  1.
         13    1    4    4    0    0  0.17970127597E+02  0.99628562831E+01 -0.53145192044E+02  0.56979001331E+02  0.10566000000E+00 0.  1.
        -13    1    4    4    0    0  0.10958416035E+02  0.76477345331E+01 -0.34478458223E+02  0.36977695588E+02  0.10566000000E+00 0. -1.
        -14    1    4    4    0    0  0.56213353361E+01  0.35008579191E+01 -0.17935473079E+02  0.19119011786E+02  0.00000000000E+00 0.  1.
<mgrwt>
<rscale>  0 0.81339585E+02</rscale>
<asrwt>0</asrwt>
<pdfrwt beam="1">  1        2 0.30914993E-01 0.81339585E+02</pdfrwt>
<pdfrwt beam="2">  1       -1 0.12663334E-02 0.81339585E+02</pdfrwt>
<totfact> 0.21146839E+05</totfact>
</mgrwt>
</event>
<event>
 8    1  0.2676873E-020  0.7835201E+02  0.7818608E-02  0.1333794E+00
         -1   -1    0    0    0  501 -0.00000000000E+00  0.00000000000E+00  0.12887547762E+02  0.12887548748E+02  0.50400000000E-02 0.  1.
          2   -1    0    0  501    0  0.00000000000E+00 -0.00000000000E+00 -0.11908855748E+03  0.11908855751E+03  0.25500000000E-02 0. -1.
         24    2    1    2    0    0 -0.22204460493E-15  0.00000000000E+00 -0.10620100972E+03  0.13197610626E+03  0.78352014380E+02 0.  0.
         66    2    3    3    0    0  0.45616520789E+00 -0.36690543505E+02 -0.76128792035E+02  0.84533999328E+02  0.19999990632E+01 0.  0.
        -13    1    3    3    0    0 -0.45616520789E+00  0.36690543505E+02 -0.30072217686E+02  0.47442106930E+02  0.10566000000E+00 0.  1.
         13    1    4    4    0    0 -0.44645991895E-01 -0.53456535030E+00 -0.94104362348E+00  0.10883384194E+01  0.10566000000E+00 0. -1.
        -13    1    4    4    0    0  0.94665186819E+00 -0.22265715640E+02 -0.47266246412E+02  0.52256745561E+02  0.10566000000E+00 0. -1.
         14    1    4    4    0    0 -0.44584066841E+00 -0.13890262515E+02 -0.27921502000E+02  0.31188915348E+02  0.00000000000E+00 0. -1.
<mgrwt>
<rscale>  0 0.78352014E+02</rscale>
<asrwt>0</asrwt>
<pdfrwt beam="1">  1        2 0.18321316E-01 0.78352014E+02</pdfrwt>
<pdfrwt beam="2">  1       -1 0.19826998E-02 0.78352014E+02</pdfrwt>
<totfact> 0.19707106E+05</totfact>
</mgrwt>
</event>
<event>
 8    1  0.2676873E-020  0.8142968E+02  0.7818608E-02  0.1325042E+00
          2   -1    0    0  501    0  0.00000000000E+00  0.00000000000E+00  0.59731746812E+02  0.59731746867E+02  0.25500000000E-02 0. -1.
         -1   -1    0    0    0  501 -0.00000000000E+00 -0.00000000000E+00 -0.27752379850E+02  0.27752380308E+02  0.50400000000E-02 0.  1.
         24    2    1    2    0    0  0.00000000000E+00  0.00000000000E+00  0.31979366962E+02  0.87484127175E+02  0.81429678842E+02 0.  0.
         66    2    3    3    0    0 -0.29363165910E+02  0.74958903635E+01  0.45171650881E+02  0.54432177101E+02  0.19999940083E+01 0.  0.
        -13    1    3    3    0    0  0.29363165910E+02 -0.74958903635E+01 -0.13192283919E+02  0.33051950074E+02  0.10566000000E+00 0.  1.
         13    1    4    4    0    0 -0.15823149757E+02  0.36856858649E+01  0.22950219793E+02  0.28119034499E+02  0.10566000000E+00 0. -1.
        -13    1    4    4    0    0 -0.71176372795E+00  0.17035737681E+00  0.14918943543E+01  0.16650952045E+01  0.10566000000E+00 0.  1.
         14    1    4    4    0    0 -0.12828252425E+02  0.36398471218E+01  0.20729536734E+02  0.24648047398E+02  0.00000000000E+00 0. -1.
<mgrwt>
<rscale>  0 0.81429679E+02</rscale>
<asrwt>0</asrwt>
<pdfrwt beam="1">  1        2 0.91894995E-02 0.81429679E+02</pdfrwt>
<pdfrwt beam="2">  1       -1 0.42695970E-02 0.81429679E+02</pdfrwt>
<totfact> 0.14817485E+05</totfact>
</mgrwt>
</event>
<event>
 8    1  0.2676873E-020  0.7897636E+02  0.7818608E-02  0.1331982E+00
          2   -1    0    0  501    0  0.00000000000E+00  0.00000000000E+00  0.74263845823E+03  0.74263845824E+03  0.25500000000E-02 0. -1.
         -1   -1    0    0    0  501 -0.00000000000E+00 -0.00000000000E+00 -0.20996948081E+01  0.20997008570E+01  0.50400000000E-02 0.  1.
         24    2    1    2    0    0  0.00000000000E+00  0.11102230246E-15  0.74053876342E+03  0.74473815909E+03  0.78976360238E+02 0.  0.
         66    2    3    3    0    0 -0.18408589600E+02 -0.99023997213E+00  0.69953420259E+03  0.69977993493E+03  0.19999996667E+01 0.  0.
        -13    1    3    3    0    0  0.18408589600E+02  0.99023997213E+00  0.41004560837E+02  0.44958224161E+02  0.10566000000E+00 0.  1.
         13    1    4    4    0    0 -0.16270361163E+02 -0.12703563481E+01  0.61020041755E+03  0.61041862619E+03  0.10566000000E+00 0. -1.
        -13    1    4    4    0    0 -0.19918561070E+01  0.17947238288E+00  0.76164451484E+02  0.76190777230E+02  0.10566000000E+00 0.  1.
        -14    1    4    4    0    0 -0.14637232937E+00  0.10064399305E+00  0.13169333554E+02  0.13170531513E+02  0.00000000000E+00 0.  1.
<mgrwt>
<rscale>  0 0.78976360E+02</rscale>
<asrwt>0</asrwt>
<pdfrwt beam="1">  1        2 0.11425212E+00 0.78976360E+02</pdfrwt>
<pdfrwt beam="2">  1       -1 0.32303030E-03 0.78976360E+02</pdfrwt>
<totfact> 0.35037048E+05</totfact>
</mgrwt>
</event>
<event>
 8    1  0.2676873E-020  0.8075018E+02  0.7818608E-02  0.1326936E+00
          2   -1    0    0  501    0  0.00000000000E+00  0.00000000000E+00  0.11225341657E+03  0.11225341660E+03  0.25500000000E-02 0. -1.
         -1   -1    0    0    0  501 -0.00000000000E+00 -0.00000000000E+00 -0.14522031581E+02  0.14522032456E+02  0.50400000000E-02 0.  1.
         24    2    1    2    0    0  0.00000000000E+00  0.00000000000E+00  0.97731384987E+02  0.12677544905E+03  0.80750175672E+02 0.  0.
         66    2    3    3    0    0 -0.36054275645E+02  0.58486680295E+01  0.75816129402E+02  0.84179588909E+02  0.20000003469E+01 0.  0.
        -13    1    3    3    0    0  0.36054275645E+02 -0.58486680295E+01  0.21915255585E+02  0.42595860144E+02  0.10566000000E+00 0.  1.
         13    1    4    4    0    0 -0.13908809014E+02  0.17243965659E+01  0.29712205735E+02  0.32852014327E+02  0.10566000000E+00 0. -1.
        -13    1    4    4    0    0 -0.90310633268E+01  0.15277094999E+01  0.20076639985E+02  0.22067547174E+02  0.10566000000E+00 0.  1.
         14    1    4    4    0    0 -0.13114403303E+02  0.25965619637E+01  0.26027283683E+02  0.29260027408E+02  0.00000000000E+00 0. -1.
<mgrwt>
<rscale>  0 0.80750176E+02</rscale>
<asrwt>0</asrwt>
<pdfrwt beam="1">  1        2 0.17269756E-01 0.80750176E+02</pdfrwt>
<pdfrwt beam="2">  1       -1 0.22341589E-02 0.80750176E+02</pdfrwt>
<totfact> 0.17870207E+05</totfact>
</mgrwt>
</event>
<event>
 8    1  0.2676873E-020  0.8824097E+02  0.7818608E-02  0.1307168E+00
          2   -1    0    0  501    0  0.00000000000E+00  0.00000000000E+00  0.78773004912E+01  0.78773009040E+01  0.25500000000E-02 0. -1.
         -1   -1    0    0    0  501 -0.00000000000E+00 -0.00000000000E+00 -0.24711727977E+03  0.24711727982E+03  0.50400000000E-02 0.  1.
         24    2    1    2    0    0  0.00000000000E+00  0.00000000000E+00 -0.23923997928E+03  0.25499458072E+03  0.88240968455E+02 0.  0.
         66    2    3    3    0    0  0.18681936209E+02  0.39942947187E+02 -0.11853157213E+03  0.12648394112E+03  0.19999999713E+01 0.  0.
        -13    1    3    3    0    0 -0.18681936209E+02 -0.39942947187E+02 -0.12070840715E+03  0.12851063960E+03  0.10566000000E+00 0.  1.
         13    1    4    4    0    0  0.13760862515E+02  0.29148941283E+02 -0.87871555003E+02  0.93597240653E+02  0.10566000000E+00 0. -1.
        -13    1    4    4    0    0  0.37912573541E+01  0.86855835603E+01 -0.25309341642E+02  0.27025671731E+02  0.10566000000E+00 0.  1.
         14    1    4    4    0    0  0.11298163395E+01  0.21084223442E+01 -0.53506754799E+01  0.58610287351E+01  0.00000000000E+00 0. -1.
<mgrwt>
<rscale>  0 0.88240968E+02</rscale>
<asrwt>0</asrwt>
<pdfrwt beam="1">  1        2 0.12118926E-02 0.88240968E+02</pdfrwt>
<pdfrwt beam="2">  1       -1 0.38018037E-01 0.88240968E+02</pdfrwt>
<totfact> 0.72335674E+04</totfact>
</mgrwt>
</event>
<event>
 8    1  0.2676873E-020  0.7926691E+02  0.7818608E-02  0.1331145E+00
          2   -1    0    0  501    0  0.00000000000E+00  0.00000000000E+00  0.98860816430E+01  0.98860819718E+01  0.25500000000E-02 0. -1.
         -1   -1    0    0    0  501 -0.00000000000E+00 -0.00000000000E+00 -0.15889115000E+03  0.15889115008E+03  0.50400000000E-02 0.  1.
         24    2    1    2    0    0  0.11102230246E-15 -0.71054273576E-14 -0.14900506836E+03  0.16877723206E+03  0.79266914051E+02 0.  0.
         66    2    3    3    0    0 -0.10039592148E+00  0.24039181188E+02 -0.75243694305E+01  0.25268724833E+02  0.20000019533E+01 0.  0.
        -13    1    3    3    0    0  0.10039592148E+00 -0.24039181188E+02 -0.14148069893E+03  0.14350850722E+03  0.10566000000E+00 0.  1.
         13    1    4    4    0    0  0.48526668996E+00  0.94819924205E+01 -0.33714473144E+01  0.10075787069E+02  0.10566000000E+00 0. -1.
        -13    1    4    4    0    0 -0.44113613105E+00  0.91239174183E+01 -0.31700957642E+01  0.96695988196E+01  0.10566000000E+00 0.  1.
         14    1    4    4    0    0 -0.14452648040E+00  0.54332713490E+01 -0.98282635185E+00  0.55233389443E+01  0.00000000000E+00 0. -1.
<mgrwt>
<rscale>  0 0.79266914E+02</rscale>
<asrwt>0</asrwt>
<pdfrwt beam="1">  1        2 0.15209358E-02 0.79266914E+02</pdfrwt>
<pdfrwt beam="2">  1       -1 0.24444791E-01 0.79266914E+02</pdfrwt>
<totfact> 0.10878206E+05</totfact>
</mgrwt>
</event>
<event>
 8    1  0.2676873E-020  0.8129863E+02  0.7818608E-02  0.1325406E+00
          2   -1    0    0  501    0  0.00000000000E+00  0.00000000000E+00  0.39839748447E+02  0.39839748528E+02  0.25500000000E-02 0. -1.
         -1   -1    0    0    0  501 -0.00000000000E+00 -0.00000000000E+00 -0.41475330809E+02  0.41475331115E+02  0.50400000000E-02 0.  1.
         24    2    1    2    0    0 -0.17763568394E-14  0.71054273576E-14 -0.16355823620E+01  0.81315079644E+02  0.81298628819E+02 0.  0.
         66    2    3    3    0    0  0.14129887184E+02 -0.32645098352E+02  0.18807245844E+02  0.40287326264E+02  0.20000007587E+01 0.  0.
        -13    1    3    3    0    0 -0.14129887184E+02  0.32645098352E+02 -0.20442828206E+02  0.41027753379E+02  0.10566000000E+00 0.  1.
         13    1    4    4    0    0  0.55083182075E+01 -0.12057955869E+02  0.75697571010E+01  0.15265918112E+02  0.10566000000E+00 0. -1.
        -13    1    4    4    0    0  0.35127232066E+01 -0.91905221429E+01  0.43417050883E+01  0.10754835596E+02  0.10566000000E+00 0.  1.
        -14    1    4    4    0    0  0.51088457704E+01 -0.11396620340E+02  0.68957836544E+01  0.14266572556E+02  0.00000000000E+00 0.  1.
<mgrwt>
<rscale>  0 0.81298629E+02</rscale>
<asrwt>0</asrwt>
<pdfrwt beam="1">  1        2 0.61291921E-02 0.81298629E+02</pdfrwt>
<pdfrwt beam="2">  1       -1 0.63808202E-02 0.81298629E+02</pdfrwt>
<totfact> 0.13622445E+05</totfact>
</mgrwt>
</event>
<event>
 8    1  0.2676873E-020  0.8110403E+02  0.7818608E-02  0.1325947E+00
         -1   -1    0    0    0  501 -0.00000000000E+00  0.00000000000E+00  0.32309509335E+02  0.32309509729E+02  0.50400000000E-02 0.  1.
          2   -1    0    0  501    0  0.00000000000E+00 -0.00000000000E+00 -0.50897268570E+02  0.50897268634E+02  0.25500000000E-02 0. -1.
         24    2    1    2    0    0  0.17763568394E-14 -0.17763568394E-14 -0.18587759235E+02  0.83206778363E+02  0.81104026855E+02 0.  0.
         66    2    3    3    0    0  0.11261800920E+02 -0.14384026499E+02 -0.46413853863E+02  0.49919677489E+02  0.19999979709E+01 0.  0.
        -13    1    3    3    0    0 -0.11261800920E+02  0.14384026499E+02  0.27826094628E+02  0.33287100874E+02  0.10566000000E+00 0.  1.
         13    1    4    4    0    0  0.77610445102E+00 -0.73794099322E+00 -0.40350282325E+01  0.41760641639E+01  0.10566000000E+00 0. -1.
        -13    1    4    4    0    0  0.16614847256E+01 -0.23046069771E+01 -0.65417458338E+01  0.71328358598E+01  0.10566000000E+00 0.  1.
         14    1    4    4    0    0  0.88242117434E+01 -0.11341478529E+02 -0.35837079797E+02  0.38610777465E+02  0.00000000000E+00 0. -1.
<mgrwt>
<rscale>  0 0.81104027E+02</rscale>
<asrwt>0</asrwt>
<pdfrwt beam="1">  1        2 0.78303490E-02 0.81104027E+02</pdfrwt>
<pdfrwt beam="2">  1       -1 0.49706938E-02 0.81104027E+02</pdfrwt>
<totfact> 0.14448190E+05</totfact>
</mgrwt>
</event>
<event>
 8    1  0.2676873E-020  0.8073432E+02  0.7818608E-02  0.1326980E+00
         -1   -1    0    0    0  501 -0.00000000000E+00  0.00000000000E+00  0.16225308523E+01  0.16225386800E+01  0.50400000000E-02 0.  1.
          2   -1    0    0  501    0  0.00000000000E+00 -0.00000000000E+00 -0.10042974328E+04  0.10042974328E+04  0.25500000000E-02 0. -1.
         24    2    1    2    0    0  0.17763568394E-14 -0.17763568394E-14 -0.10026749019E+04  0.10059199715E+04  0.80734317566E+02 0.  0.
         66    2    3    3    0    0  0.13169130268E+02 -0.11735494757E+02 -0.95369971252E+03  0.95386492204E+03  0.20000008594E+01 0.  0.
        -13    1    3    3    0    0 -0.13169130268E+02  0.11735494757E+02 -0.48975189414E+02  0.52055049432E+02  0.10566000000E+00 0.  1.
         13    1    4    4    0    0  0.91672006631E+01 -0.88353858625E+01 -0.69987381983E+03  0.69998962597E+03  0.10566000000E+00 0. -1.
        -13    1    4    4    0    0  0.11615002673E+01 -0.12443718018E+01 -0.77641884993E+02  0.77660614300E+02  0.10566000000E+00 0.  1.
        -14    1    4    4    0    0  0.28404293380E+01 -0.16557370923E+01 -0.17618400769E+03  0.17621468177E+03  0.00000000000E+00 0.  1.
<mgrwt>
<rscale>  0 0.80734318E+02</rscale>
<asrwt>0</asrwt>
<pdfrwt beam="1">  1        2 0.15450680E+00 0.80734318E+02</pdfrwt>
<pdfrwt beam="2">  1       -1 0.24962154E-03 0.80734318E+02</pdfrwt>
<totfact> 0.34410841E+05</totfact>
</mgrwt>
</event>
<event>
 8    1  0.2676873E-020  0.7585515E+02  0.7818608E-02  0.1341243E+00
          2   -1    0    0  501    0  0.00000000000E+00  0.00000000000E+00  0.22534351771E+03  0.22534351772E+03  0.25500000000E-02 0. -1.
         -1   -1    0    0    0  501 -0.00000000000E+00 -0.00000000000E+00 -0.63835907943E+01  0.63835927839E+01  0.50400000000E-02 0.  1.
         24    2    1    2    0    0  0.00000000000E+00 -0.35527136788E-14  0.21895992692E+03  0.23172711051E+03  0.75855152426E+02 0.  0.
         66    2    3    3    0    0 -0.34036112608E+02  0.12155672551E+02  0.74687728634E+02  0.82996832159E+02  0.20000008454E+01 0.  0.
        -13    1    3    3    0    0  0.34036112608E+02 -0.12155672551E+02  0.14427219828E+03  0.14873027835E+03  0.10566000000E+00 0.  1.
         13    1    4    4    0    0 -0.19469371985E+02  0.64427976659E+01  0.42334218733E+02  0.47040018357E+02  0.10566000000E+00 0. -1.
        -13    1    4    4    0    0 -0.95053977083E+00  0.48529888958E+00  0.16953314893E+01  0.20060792014E+01  0.10566000000E+00 0. -1.
        -14    1    4    4    0    0 -0.13616200853E+02  0.52275759953E+01  0.30658178411E+02  0.33950734601E+02  0.00000000000E+00 0.  1.
<mgrwt>
<rscale>  0 0.75855152E+02</rscale>
<asrwt>0</asrwt>
<pdfrwt beam="1">  1        2 0.34668233E-01 0.75855152E+02</pdfrwt>
<pdfrwt beam="2">  1       -1 0.98209105E-03 0.75855152E+02</pdfrwt>
<totfact> 0.26450533E+05</totfact>
</mgrwt>
</event>
<event>
 8    1  0.2676873E-020  0.7832806E+02  0.7818608E-02  0.1333864E+00
         -1   -1    0    0    0  501 -0.00000000000E+00  0.00000000000E+00  0.36956970960E+02  0.36956971304E+02  0.50400000000E-02 0.  1.
          2   -1    0    0  501    0  0.00000000000E+00 -0.00000000000E+00 -0.41502894772E+02  0.41502894850E+02  0.25500000000E-02 0. -1.
         24    2    1    2    0    0 -0.71054273576E-14  0.00000000000E+00 -0.45459238121E+01  0.78459866154E+02  0.78328061214E+02 0.  0.
         66    2    3    3    0    0  0.25238500677E+02  0.19816564769E+02 -0.24720587456E+02  0.40555956424E+02  0.20000004008E+01 0.  0.
        -13    1    3    3    0    0 -0.25238500677E+02 -0.19816564769E+02  0.20174663643E+02  0.37903909730E+02  0.10566000000E+00 0.  1.
         13    1    4    4    0    0  0.18176587340E+01  0.17414197911E+01 -0.20797351341E+01  0.32669386933E+01  0.10566000000E+00 0. -1.
        -13    1    4    4    0    0  0.55427885901E+01  0.51149957659E+01 -0.60432377957E+01  0.96652767229E+01  0.10566000000E+00 0.  1.
         14    1    4    4    0    0  0.17878053353E+02  0.12960149212E+02 -0.16597614526E+02  0.27623741007E+02  0.00000000000E+00 0. -1.
<mgrwt>
<rscale>  0 0.78328061E+02</rscale>
<asrwt>0</asrwt>
<pdfrwt beam="1">  1        2 0.63850608E-02 0.78328061E+02</pdfrwt>
<pdfrwt beam="2">  1       -1 0.56856879E-02 0.78328061E+02</pdfrwt>
<totfact> 0.15224898E+05</totfact>
</mgrwt>
</event>
<event>
 8    1  0.2676873E-020  0.7735703E+02  0.7818608E-02  0.1336724E+00
         -1   -1    0    0    0  501 -0.00000000000E+00  0.00000000000E+00  0.44465198353E+01  0.44465226917E+01  0.50400000000E-02 0.  1.
          2   -1    0    0  501    0  0.00000000000E+00 -0.00000000000E+00 -0.33644893100E+03  0.33644893101E+03  0.25500000000E-02 0. -1.
         24    2    1    2    0    0  0.00000000000E+00 -0.88817841970E-15 -0.33200241117E+03  0.34089545370E+03  0.77357025118E+02 0.  0.
         66    2    3    3    0    0 -0.16698715451E+02  0.74752398477E+01 -0.31615585893E+03  0.31669110099E+03  0.20000003884E+01 0.  0.
        -13    1    3    3    0    0  0.16698715451E+02 -0.74752398477E+01 -0.15846552238E+02  0.24204352715E+02  0.10566000000E+00 0.  1.
         13    1    4    4    0    0 -0.10040343443E+02  0.45820091170E+01 -0.18888247459E+03  0.18920466082E+03  0.10566000000E+00 0. -1.
        -13    1    4    4    0    0 -0.69906919265E+00  0.33721143936E+00 -0.21680585002E+02  0.21694730681E+02  0.10566000000E+00 0.  1.
         14    1    4    4    0    0 -0.59593028155E+01  0.25560192914E+01 -0.10559279933E+03  0.10579170948E+03  0.00000000000E+00 0. -1.
<mgrwt>
<rscale>  0 0.77357025E+02</rscale>
<asrwt>0</asrwt>
<pdfrwt beam="1">  1        2 0.51761354E-01 0.77357025E+02</pdfrwt>
<pdfrwt beam="2">  1       -1 0.68408046E-03 0.77357025E+02</pdfrwt>
<totfact> 0.29009687E+05</totfact>
</mgrwt>
</event>
<event>
 8    1  0.2676873E-020  0.8085254E+02  0.7818608E-02  0.1326649E+00
          2   -1    0    0  501    0  0.00000000000E+00  0.00000000000E+00  0.57598548528E+03  0.57598548528E+03  0.25500000000E-02 0. -1.
         -1   -1    0    0    0  501 -0.00000000000E+00 -0.00000000000E+00 -0.28373665274E+01  0.28373710037E+01  0.50400000000E-02 0.  1.
         24    2    1    2    0    0  0.00000000000E+00  0.71054273576E-14  0.57314811875E+03  0.57882285629E+03  0.80852538199E+02 0.  0.
         66    2    3    3    0    0 -0.10731629735E+02 -0.38167496233E+02  0.34236496073E+03  0.34465880517E+03  0.20000001040E+01 0.  0.
        -13    1    3    3    0    0  0.10731629735E+02  0.38167496233E+02  0.23078315802E+03  0.23416405111E+03  0.10566000000E+00 0.  1.
         13    1    4    4    0    0 -0.36119797554E+01 -0.13768258815E+02  0.12308547111E+03  0.12390583405E+03  0.10566000000E+00 0. -1.
        -13    1    4    4    0    0 -0.25291067488E+01 -0.10173557212E+02  0.95848986144E+02  0.96420625160E+02  0.10566000000E+00 0.  1.
        -14    1    4    4    0    0 -0.45905432305E+01 -0.14225680205E+02  0.12343050348E+03  0.12433234597E+03  0.00000000000E+00 0.  1.
<mgrwt>
<rscale>  0 0.80852538E+02</rscale>
<asrwt>0</asrwt>
<pdfrwt beam="1">  1        2 0.88613083E-01 0.80852538E+02</pdfrwt>
<pdfrwt beam="2">  1       -1 0.43651861E-03 0.80852538E+02</pdfrwt>
<totfact> 0.30927133E+05</totfact>
</mgrwt>
</event>
<event>
 8    1  0.2676873E-020  0.8230055E+02  0.7818608E-02  0.1322647E+00
          2   -1    0    0  501    0  0.00000000000E+00  0.00000000000E+00  0.86939013676E+02  0.86939013713E+02  0.25500000000E-02 0. -1.
         -1   -1    0    0    0  501 -0.00000000000E+00 -0.00000000000E+00 -0.19477390086E+02  0.19477390738E+02  0.50400000000E-02 0.  1.
         24    2    1    2    0    0  0.00000000000E+00  0.00000000000E+00  0.67461623589E+02  0.10641640445E+03  0.82300549689E+02 0.  0.
         66    2    3    3    0    0  0.37537406952E+02  0.16448502401E+02  0.29322199350E+02  0.50432147760E+02  0.20000002656E+01 0.  0.
        -13    1    3    3    0    0 -0.37537406952E+02 -0.16448502401E+02  0.38139424239E+02  0.55984256691E+02  0.10566000000E+00 0.  1.
         13    1    4    4    0    0  0.26312986996E+02  0.10640265059E+02  0.20060573553E+02  0.34756672748E+02  0.10566000000E+00 0. -1.
        -13    1    4    4    0    0  0.32388111474E+01  0.16789142301E+01  0.24375283273E+01  0.43887764836E+01  0.10566000000E+00 0.  1.
         14    1    4    4    0    0  0.79856088085E+01  0.41293231120E+01  0.68240974696E+01  0.11286698529E+02  0.00000000000E+00 0. -1.
<mgrwt>
<rscale>  0 0.82300550E+02</rscale>
<asrwt>0</asrwt>
<pdfrwt beam="1">  1        2 0.13375233E-01 0.82300550E+02</pdfrwt>
<pdfrwt beam="2">  1       -1 0.29965217E-02 0.82300550E+02</pdfrwt>
<totfact> 0.15807636E+05</totfact>
</mgrwt>
</event>
<event>
 8    1  0.2676873E-020  0.8680070E+02  0.7818608E-02  0.1310790E+00
          2   -1    0    0  501    0  0.00000000000E+00  0.00000000000E+00  0.13107674795E+04  0.13107674795E+04  0.25500000000E-02 0. -1.
         -1   -1    0    0    0  501 -0.00000000000E+00 -0.00000000000E+00 -0.14370090803E+01  0.14370179186E+01  0.50400000000E-02 0.  1.
         24    2    1    2    0    0  0.17763568394E-14  0.00000000000E+00  0.13093304704E+04  0.13122044974E+04  0.86800704389E+02 0.  0.
         66    2    3    3    0    0  0.15466478236E+02 -0.24380754080E+02  0.11443950206E+04  0.11447609341E+04  0.20000005158E+01 0.  0.
        -13    1    3    3    0    0 -0.15466478236E+02  0.24380754080E+02  0.16493544980E+03  0.16744356327E+03  0.10566000000E+00 0.  1.
         13    1    4    4    0    0  0.13696386163E+02 -0.21731746041E+02  0.10185153959E+04  0.10188392820E+04  0.10566000000E+00 0. -1.
        -13    1    4    4    0    0  0.61365044262E+00 -0.67565185607E+00  0.46522443710E+02  0.46531516256E+02  0.10566000000E+00 0.  1.
        -14    1    4    4    0    0  0.11564416299E+01 -0.19733561824E+01  0.79357181004E+02  0.79390135840E+02  0.00000000000E+00 0.  1.
<mgrwt>
<rscale>  0 0.86800704E+02</rscale>
<asrwt>0</asrwt>
<pdfrwt beam="1">  1        2 0.20165769E+00 0.86800704E+02</pdfrwt>
<pdfrwt beam="2">  1       -1 0.22107774E-03 0.86800704E+02</pdfrwt>
<totfact> 0.27935985E+05</totfact>
</mgrwt>
</event>
<event>
 8    1  0.2676873E-020  0.8071750E+02  0.7818608E-02  0.1327028E+00
          2   -1    0    0  501    0  0.00000000000E+00  0.00000000000E+00  0.96055005314E+02  0.96055005347E+02  0.25500000000E-02 0. -1.
         -1   -1    0    0    0  501 -0.00000000000E+00 -0.00000000000E+00 -0.16957249850E+02  0.16957250599E+02  0.50400000000E-02 0.  1.
         24    2    1    2    0    0  0.00000000000E+00  0.00000000000E+00  0.79097755464E+02  0.11301225595E+03  0.80717501663E+02 0.  0.
         66    2    3    3    0    0 -0.31115288887E+02 -0.20673514856E+02  0.18281114554E+02  0.41638378410E+02  0.19999970581E+01 0.  0.
        -13    1    3    3    0    0  0.31115288887E+02  0.20673514856E+02  0.60816640909E+02  0.71373877536E+02  0.10566000000E+00 0.  1.
         13    1    4    4    0    0 -0.16822316833E+02 -0.11554678829E+02  0.10537157161E+02  0.22968321479E+02  0.10566000000E+00 0. -1.
        -13    1    4    4    0    0 -0.44080680033E+00 -0.20729439422E+00  0.38471530056E+00  0.62964394635E+00  0.10566000000E+00 0. -1.
         14    1    4    4    0    0 -0.13852165254E+02 -0.89115416324E+01  0.73592420926E+01  0.18040412985E+02  0.00000000000E+00 0. -1.
<mgrwt>
<rscale>  0 0.80717502E+02</rscale>
<asrwt>0</asrwt>
<pdfrwt beam="1">  1        2 0.14777693E-01 0.80717502E+02</pdfrwt>
<pdfrwt beam="2">  1       -1 0.26088077E-02 0.80717502E+02</pdfrwt>
<totfact> 0.17113820E+05</totfact>
</mgrwt>
</event>
<event>
 8    1  0.2676873E-020  0.8134500E+02  0.7818608E-02  0.1325277E+00
          2   -1    0    0  501    0  0.00000000000E+00  0.00000000000E+00  0.60430661336E+03  0.60430661336E+03  0.25500000000E-02 0. -1.
         -1   -1    0    0    0  501 -0.00000000000E+00 -0.00000000000E+00 -0.27374365031E+01  0.27374411428E+01  0.50400000000E-02 0.  1.
         24    2    1    2    0    0  0.00000000000E+00  0.00000000000E+00  0.60156917685E+03  0.60704405451E+03  0.81345003346E+02 0.  0.
         66    2    3    3    0    0 -0.11116428632E+01 -0.16693162410E+02  0.57741920091E+03  0.57766498162E+03  0.19999993058E+01 0.  0.
        -13    1    3    3    0    0  0.11116428632E+01  0.16693162410E+02  0.24149975948E+02  0.29379072883E+02  0.10566000000E+00 0.  1.
         13    1    4    4    0    0 -0.12129789833E+01 -0.80341889683E+01  0.29960956485E+03  0.29971973913E+03  0.10566000000E+00 0. -1.
        -13    1    4    4    0    0  0.52831356046E-01 -0.42685982574E+01  0.12747012121E+03  0.12754162728E+03  0.10566000000E+00 0.  1.
         14    1    4    4    0    0  0.48504764093E-01 -0.43903751846E+01  0.15033951485E+03  0.15040361522E+03  0.00000000000E+00 0. -1.
<mgrwt>
<rscale>  0 0.81345003E+02</rscale>
<asrwt>0</asrwt>
<pdfrwt beam="1">  1        2 0.92970356E-01 0.81345003E+02</pdfrwt>
<pdfrwt beam="2">  1       -1 0.42114395E-03 0.81345003E+02</pdfrwt>
<totfact> 0.30858063E+05</totfact>
</mgrwt>
</event>
<event>
 8    1  0.2676873E-020  0.7577043E+02  0.7818608E-02  0.1341502E+00
          2   -1    0    0  501    0  0.00000000000E+00  0.00000000000E+00  0.14054081734E+02  0.14054081966E+02  0.25500000000E-02 0. -1.
         -1   -1    0    0    0  501 -0.00000000000E+00 -0.00000000000E+00 -0.10212617011E+03  0.10212617023E+03  0.50400000000E-02 0.  1.
         24    2    1    2    0    0  0.00000000000E+00  0.00000000000E+00 -0.88072088371E+02  0.11618025220E+03  0.75770431240E+02 0.  0.
         66    2    3    3    0    0  0.19742737775E+02  0.23652718989E+02 -0.10331602190E+02  0.32557162286E+02  0.20000004573E+01 0.  0.
        -13    1    3    3    0    0 -0.19742737775E+02 -0.23652718989E+02 -0.77740486181E+02  0.83623089910E+02  0.10566000000E+00 0.  1.
         13    1    4    4    0    0  0.45308201394E+01  0.61074358515E+01 -0.22865840401E+01  0.79415826146E+01  0.10566000000E+00 0. -1.
        -13    1    4    4    0    0  0.28531093326E+01  0.25721287236E+01 -0.15410542020E+01  0.41403008495E+01  0.10566000000E+00 0.  1.
        -14    1    4    4    0    0  0.12358808303E+02  0.14973154414E+02 -0.65039639483E+01  0.20475278822E+02  0.00000000000E+00 0.  1.
<mgrwt>
<rscale>  0 0.75770431E+02</rscale>
<asrwt>0</asrwt>
<pdfrwt beam="1">  1        2 0.21621665E-02 0.75770431E+02</pdfrwt>
<pdfrwt beam="2">  1       -1 0.15711718E-01 0.75770431E+02</pdfrwt>
<totfact> 0.13511893E+05</totfact>
</mgrwt>
</event>
<event>
 8    1  0.2676873E-020  0.7904427E+02  0.7818608E-02  0.1331786E+00
          2   -1    0    0  501    0  0.00000000000E+00  0.00000000000E+00  0.18142387070E+03  0.18142387072E+03  0.25500000000E-02 0. -1.
         -1   -1    0    0    0  501 -0.00000000000E+00 -0.00000000000E+00 -0.86096670129E+01  0.86096684881E+01  0.50400000000E-02 0.  1.
         24    2    1    2    0    0  0.35527136788E-14  0.00000000000E+00  0.17281420369E+03  0.19003353921E+03  0.79044272577E+02 0.  0.
         66    2    3    3    0    0 -0.20297177979E+02 -0.86644113425E+01  0.16521197421E+03  0.16669146314E+03  0.20000013461E+01 0.  0.
        -13    1    3    3    0    0  0.20297177979E+02  0.86644113425E+01  0.76022294794E+01  0.23342076063E+02  0.10566000000E+00 0.  1.
         13    1    4    4    0    0 -0.24444438669E+01 -0.13359377287E+01  0.22639229252E+02  0.22810214830E+02  0.10566000000E+00 0. -1.
        -13    1    4    4    0    0 -0.11505477000E+02 -0.50015527395E+01  0.87403367002E+02  0.88299214369E+02  0.10566000000E+00 0.  1.
         14    1    4    4    0    0 -0.63472571123E+01 -0.23269208742E+01  0.55169377954E+02  0.55582033945E+02  0.00000000000E+00 0. -1.
<mgrwt>
<rscale>  0 0.79044273E+02</rscale>
<asrwt>0</asrwt>
<pdfrwt beam="1">  1        2 0.27911364E-01 0.79044273E+02</pdfrwt>
<pdfrwt beam="2">  1       -1 0.13245643E-02 0.79044273E+02</pdfrwt>
<totfact> 0.22019588E+05</totfact>
</mgrwt>
</event>
<event>
 8    1  0.2676873E-020  0.7831000E+02  0.7818608E-02  0.1333917E+00
         -1   -1    0    0    0  501 -0.00000000000E+00  0.00000000000E+00  0.21304566713E+01  0.21304626329E+01  0.50400000000E-02 0.  1.
          2   -1    0    0  501    0  0.00000000000E+00 -0.00000000000E+00 -0.71961651272E+03  0.71961651273E+03  0.25500000000E-02 0. -1.
         24    2    1    2    0    0  0.00000000000E+00  0.00000000000E+00 -0.71748605605E+03  0.72174697536E+03  0.78309998170E+02 0.  0.
         66    2    3    3    0    0  0.19681532107E+02 -0.42961371712E+01 -0.66814818631E+03  0.66845479906E+03  0.20000024828E+01 0.  0.
        -13    1    3    3    0    0 -0.19681532107E+02  0.42961371712E+01 -0.49337869741E+02  0.53292176305E+02  0.10566000000E+00 0.  1.
         13    1    4    4    0    0  0.83515884274E+01 -0.13150225721E+01 -0.27087987491E+03  0.27101180068E+03  0.10566000000E+00 0. -1.
        -13    1    4    4    0    0  0.10107385799E+02 -0.24176432698E+01 -0.33969625043E+03  0.33985520147E+03  0.10566000000E+00 0.  1.
        -14    1    4    4    0    0  0.12225578800E+01 -0.56347132930E+00 -0.57572060980E+02  0.57587796912E+02  0.00000000000E+00 0.  1.
<mgrwt>
<rscale>  0 0.78309998E+02</rscale>
<asrwt>0</asrwt>
<pdfrwt beam="1">  1        2 0.11071004E+00 0.78309998E+02</pdfrwt>
<pdfrwt beam="2">  1       -1 0.32776360E-03 0.78309998E+02</pdfrwt>
<totfact> 0.35577663E+05</totfact>
</mgrwt>
</event>
<event>
 8    1  0.2676873E-020  0.8026677E+02  0.7818608E-02  0.1328296E+00
         -1   -1    0    0    0  501 -0.00000000000E+00  0.00000000000E+00  0.82815187987E+01  0.82815203323E+01  0.50400000000E-02 0.  1.
          2   -1    0    0  501    0  0.00000000000E+00 -0.00000000000E+00 -0.19449190531E+03  0.19449190532E+03  0.25500000000E-02 0. -1.
         24    2    1    2    0    0 -0.17763568394E-14  0.00000000000E+00 -0.18621038651E+03  0.20277342565E+03  0.80266768396E+02 0.  0.
         66    2    3    3    0    0  0.12292720523E+02  0.13437536396E+02 -0.18343868788E+03  0.18435137801E+03  0.19999997115E+01 0.  0.
        -13    1    3    3    0    0 -0.12292720523E+02 -0.13437536396E+02 -0.27716986249E+01  0.18422047648E+02  0.10566000000E+00 0.  1.
         13    1    4    4    0    0  0.96940110271E+00  0.10752310812E+01 -0.14941768915E+02  0.15012111201E+02  0.10566000000E+00 0.  1.
        -13    1    4    4    0    0  0.29779416400E+01  0.33654231455E+01 -0.53932688168E+02  0.54119684279E+02  0.10566000000E+00 0.  1.
         14    1    4    4    0    0  0.83453777799E+01  0.89968821693E+01 -0.11456423080E+03  0.11521958253E+03  0.00000000000E+00 0. -1.
<mgrwt>
<rscale>  0 0.80266768E+02</rscale>
<asrwt>0</asrwt>
<pdfrwt beam="1">  1        2 0.29921828E-01 0.80266768E+02</pdfrwt>
<pdfrwt beam="2">  1       -1 0.12740801E-02 0.80266768E+02</pdfrwt>
<totfact> 0.21655049E+05</totfact>
</mgrwt>
</event>
<event>
 8    1  0.2676873E-020  0.7910406E+02  0.7818608E-02  0.1331613E+00
         -1   -1    0    0    0  501 -0.00000000000E+00  0.00000000000E+00  0.11462603521E+02  0.11462604629E+02  0.50400000000E-02 0.  1.
          2   -1    0    0  501    0  0.00000000000E+00 -0.00000000000E+00 -0.13647536219E+03  0.13647536222E+03  0.25500000000E-02 0. -1.
         24    2    1    2    0    0  0.00000000000E+00  0.00000000000E+00 -0.12501275867E+03  0.14793796684E+03  0.79104059337E+02 0.  0.
         66    2    3    3    0    0  0.11899580966E+02 -0.36032861862E+02 -0.41856461241E+02  0.56532561493E+02  0.20000000563E+01 0.  0.
        -13    1    3    3    0    0 -0.11899580966E+02  0.36032861862E+02 -0.83156297431E+02  0.91405405352E+02  0.10566000000E+00 0.  1.
         13    1    4    4    0    0  0.77529208678E+01 -0.25092263012E+02 -0.29946924223E+02  0.39831631645E+02  0.10566000000E+00 0. -1.
        -13    1    4    4    0    0  0.24795148917E+01 -0.70426863109E+01 -0.74613341536E+01  0.10556045470E+02  0.10566000000E+00 0.  1.
         14    1    4    4    0    0  0.16671452060E+01 -0.38979125392E+01 -0.44482028639E+01  0.61448843781E+01  0.00000000000E+00 0. -1.
<mgrwt>
<rscale>  0 0.79104059E+02</rscale>
<asrwt>0</asrwt>
<pdfrwt beam="1">  1        2 0.20996208E-01 0.79104059E+02</pdfrwt>
<pdfrwt beam="2">  1       -1 0.17634776E-02 0.79104059E+02</pdfrwt>
<totfact> 0.20028228E+05</totfact>
</mgrwt>
</event>
<event>
 8    1  0.2676873E-020  0.7166561E+02  0.7818608E-02  0.1354519E+00
         -1   -1    0    0    0  501 -0.00000000000E+00  0.00000000000E+00  0.80935760894E+01  0.80935776587E+01  0.50400000000E-02 0.  1.
          2   -1    0    0  501    0  0.00000000000E+00 -0.00000000000E+00 -0.15864305098E+03  0.15864305100E+03  0.25500000000E-02 0. -1.
         24    2    1    2    0    0  0.00000000000E+00  0.00000000000E+00 -0.15054947489E+03  0.16673662866E+03  0.71665605048E+02 0.  0.
         66    2    3    3    0    0 -0.21148684993E+02  0.26634218439E+02 -0.10138027337E+03  0.10695142973E+03  0.20000059883E+01 0.  0.
        -13    1    3    3    0    0  0.21148684993E+02 -0.26634218439E+02 -0.49169201522E+02  0.59785198930E+02  0.10566000000E+00 0.  1.
         13    1    4    4    0    0 -0.51282136260E+01  0.76995016184E+01 -0.26978846785E+02  0.28521049035E+02  0.10566000000E+00 0.  1.
        -13    1    4    4    0    0 -0.98711719209E+01  0.11660010893E+02 -0.44674847609E+02  0.47214924145E+02  0.10566000000E+00 0. -1.
         14    1    4    4    0    0 -0.61492994459E+01  0.72747059285E+01 -0.29726578977E+02  0.31215456551E+02  0.00000000000E+00 0. -1.
<mgrwt>
<rscale>  0 0.71665605E+02</rscale>
<asrwt>0</asrwt>
<pdfrwt beam="1">  1        2 0.24406621E-01 0.71665605E+02</pdfrwt>
<pdfrwt beam="2">  1       -1 0.12451658E-02 0.71665605E+02</pdfrwt>
<totfact> 0.27249897E+05</totfact>
</mgrwt>
</event>
<event>
 8    1  0.2676873E-020  0.8231665E+02  0.7818608E-02  0.1322603E+00
          2   -1    0    0  501    0  0.00000000000E+00  0.00000000000E+00  0.29832686959E+03  0.29832686961E+03  0.25500000000E-02 0. -1.
         -1   -1    0    0    0  501 -0.00000000000E+00 -0.00000000000E+00 -0.56783605728E+01  0.56783628095E+01  0.50400000000E-02 0.  1.
         24    2    1    2    0    0  0.00000000000E+00 -0.35527136788E-14  0.29264850902E+03  0.30400523241E+03  0.82316653862E+02 0.  0.
         66    2    3    3    0    0 -0.99053814886E+01 -0.27103547744E+02  0.25466881790E+03  0.25630631225E+03  0.20000020421E+01 0.  0.
        -13    1    3    3    0    0  0.99053814886E+01  0.27103547744E+02  0.37979691122E+02  0.47698920161E+02  0.10566000000E+00 0.  1.
         13    1    4    4    0    0 -0.20732205251E+01 -0.65702474307E+01  0.65917622789E+02  0.66276772348E+02  0.10566000000E+00 0. -1.
        -13    1    4    4    0    0 -0.30531303645E+01 -0.70263470892E+01  0.69215807595E+02  0.69638569367E+02  0.10566000000E+00 0.  1.
        -14    1    4    4    0    0 -0.47790305990E+01 -0.13506953224E+02  0.11953538751E+03  0.12039097054E+03  0.00000000000E+00 0.  1.
<mgrwt>
<rscale>  0 0.82316654E+02</rscale>
<asrwt>0</asrwt>
<pdfrwt beam="1">  1        2 0.45896453E-01 0.82316654E+02</pdfrwt>
<pdfrwt beam="2">  1       -1 0.87359389E-03 0.82316654E+02</pdfrwt>
<totfact> 0.23605545E+05</totfact>
</mgrwt>
</event>
<event>
 8    1  0.2676873E-020  0.7869549E+02  0.7818608E-02  0.1332795E+00
         -1   -1    0    0    0  501 -0.00000000000E+00  0.00000000000E+00  0.20545884148E+02  0.20545884766E+02  0.50400000000E-02 0.  1.
          2   -1    0    0  501    0  0.00000000000E+00 -0.00000000000E+00 -0.75355482159E+02  0.75355482202E+02  0.25500000000E-02 0. -1.
         24    2    1    2    0    0  0.00000000000E+00  0.00000000000E+00 -0.54809598011E+02  0.95901366969E+02  0.78695490038E+02 0.  0.
         66    2    3    3    0    0  0.32993370189E+02 -0.10406897491E+02 -0.50200697856E+02  0.60999803730E+02  0.19999995039E+01 0.  0.
        -13    1    3    3    0    0 -0.32993370189E+02  0.10406897491E+02 -0.46089001548E+01  0.34901563239E+02  0.10566000000E+00 0.  1.
         13    1    4    4    0    0  0.57247842927E+01 -0.25709141087E+01 -0.88126014106E+01  0.10819235750E+02  0.10566000000E+00 0. -1.
        -13    1    4    4    0    0  0.13946613940E+02 -0.38514719833E+01 -0.21243173809E+02  0.25702635553E+02  0.10566000000E+00 0.  1.
         14    1    4    4    0    0  0.13321971957E+02 -0.39845113991E+01 -0.20144922636E+02  0.24477932428E+02  0.00000000000E+00 0. -1.
<mgrwt>
<rscale>  0 0.78695490E+02</rscale>
<asrwt>0</asrwt>
<pdfrwt beam="1">  1        2 0.11593151E-01 0.78695490E+02</pdfrwt>
<pdfrwt beam="2">  1       -1 0.31609054E-02 0.78695490E+02</pdfrwt>
<totfact> 0.17189763E+05</totfact>
</mgrwt>
</event>
<event>
 8    1  0.2676873E-020  0.7261597E+02  0.7818608E-02  0.1351417E+00
          2   -1    0    0  501    0  0.00000000000E+00  0.00000000000E+00  0.14442273713E+02  0.14442273938E+02  0.25500000000E-02 0. -1.
         -1   -1    0    0    0  501 -0.00000000000E+00 -0.00000000000E+00 -0.91278556662E+02  0.91278556801E+02  0.50400000000E-02 0.  1.
         24    2    1    2    0    0  0.00000000000E+00  0.00000000000E+00 -0.76836282949E+02  0.10572083074E+03  0.72615973965E+02 0.  0.
         66    2    3    3    0    0  0.93826256970E+01  0.12279107817E+02  0.93417987422E+01  0.18168086169E+02  0.19999993906E+01 0.  0.
        -13    1    3    3    0    0 -0.93826256970E+01 -0.12279107817E+02 -0.86178081691E+02  0.87552744570E+02  0.10566000000E+00 0.  1.
         13    1    4    4    0    0  0.28465295728E+00  0.36097456876E+00  0.53364778747E-01  0.47470178069E+00  0.10566000000E+00 0. -1.
        -13    1    4    4    0    0  0.30206587719E+00  0.29665355301E+00  0.54089521134E+00  0.69496675455E+00  0.10566000000E+00 0.  1.
         14    1    4    4    0    0  0.87959068625E+01  0.11621479695E+02  0.87475387522E+01  0.16998417634E+02  0.00000000000E+00 0. -1.
<mgrwt>
<rscale>  0 0.72615974E+02</rscale>
<asrwt>0</asrwt>
<pdfrwt beam="1">  1        2 0.22218883E-02 0.72615974E+02</pdfrwt>
<pdfrwt beam="2">  1       -1 0.14042855E-01 0.72615974E+02</pdfrwt>
<totfact> 0.15366127E+05</totfact>
</mgrwt>
</event>
<event>
 8    1  0.2676873E-020  0.8222111E+02  0.7818608E-02  0.1322864E+00
         -1   -1    0    0    0  501 -0.00000000000E+00  0.00000000000E+00  0.59548995349E+01  0.59549016677E+01  0.50400000000E-02 0.  1.
          2   -1    0    0  501    0  0.00000000000E+00 -0.00000000000E+00 -0.28381294705E+03  0.28381294706E+03  0.25500000000E-02 0. -1.
         24    2    1    2    0    0 -0.17763568394E-14 -0.71054273576E-14 -0.27785804752E+03  0.28976784873E+03  0.82221114005E+02 0.  0.
         66    2    3    3    0    0  0.50307688252E+01  0.36654680106E+02 -0.20197573441E+03  0.20534622345E+03  0.19999965091E+01 0.  0.
        -13    1    3    3    0    0 -0.50307688252E+01 -0.36654680106E+02 -0.75882313109E+02  0.84421625283E+02  0.10566000000E+00 0.  1.
         13    1    4    4    0    0  0.24627839933E+00  0.48050398268E+01 -0.25383982273E+02  0.25836152594E+02  0.10566000000E+00 0. -1.
        -13    1    4    4    0    0  0.22193814257E+01  0.13241446086E+02 -0.70066847558E+02  0.71341683742E+02  0.10566000000E+00 0.  1.
        -14    1    4    4    0    0  0.25651090001E+01  0.18608194193E+02 -0.10652490458E+03  0.10816838711E+03  0.00000000000E+00 0.  1.
<mgrwt>
<rscale>  0 0.82221114E+02</rscale>
<asrwt>0</asrwt>
<pdfrwt beam="1">  1        2 0.43663520E-01 0.82221114E+02</pdfrwt>
<pdfrwt beam="2">  1       -1 0.91613878E-03 0.82221114E+02</pdfrwt>
<totfact> 0.23252577E+05</totfact>
</mgrwt>
</event>
<event>
 8    1  0.2676873E-020  0.7738161E+02  0.7818608E-02  0.1336651E+00
         -1   -1    0    0    0  501 -0.00000000000E+00  0.00000000000E+00  0.30899458960E+01  0.30899500063E+01  0.50400000000E-02 0.  1.
          2   -1    0    0  501    0  0.00000000000E+00 -0.00000000000E+00 -0.48446721539E+03  0.48446721539E+03  0.25500000000E-02 0. -1.
         24    2    1    2    0    0  0.00000000000E+00  0.00000000000E+00 -0.48137726949E+03  0.48755716540E+03  0.77381612482E+02 0.  0.
         66    2    3    3    0    0  0.12372314524E+02  0.20523752157E+02 -0.43202830262E+03  0.43269706820E+03  0.19999991271E+01 0.  0.
        -13    1    3    3    0    0 -0.12372314524E+02 -0.20523752157E+02 -0.49348966868E+02  0.54860097196E+02  0.10566000000E+00 0.  1.
         13    1    4    4    0    0  0.82663601452E+01  0.12512879453E+02 -0.28020235668E+03  0.28060341536E+03  0.10566000000E+00 0. -1.
        -13    1    4    4    0    0  0.11653834960E+01  0.19189597857E+01 -0.35166595425E+02  0.35238347338E+02  0.10566000000E+00 0.  1.
         14    1    4    4    0    0  0.29405708828E+01  0.60919129180E+01 -0.11665935052E+03  0.11685530550E+03  0.00000000000E+00 0. -1.
<mgrwt>
<rscale>  0 0.77381612E+02</rscale>
<asrwt>0</asrwt>
<pdfrwt beam="1">  1        2 0.74533357E-01 0.77381612E+02</pdfrwt>
<pdfrwt beam="2">  1       -1 0.47537699E-03 0.77381612E+02</pdfrwt>
<totfact> 0.32871202E+05</totfact>
</mgrwt>
</event>
<event>
 8    1  0.2676873E-020  0.7969174E+02  0.7818608E-02  0.1329929E+00
          2   -1    0    0  501    0  0.00000000000E+00  0.00000000000E+00  0.14688203392E+03  0.14688203394E+03  0.25500000000E-02 0. -1.
         -1   -1    0    0    0  501 -0.00000000000E+00 -0.00000000000E+00 -0.10809308498E+02  0.10809309673E+02  0.50400000000E-02 0.  1.
         24    2    1    2    0    0 -0.35527136788E-14 -0.17763568394E-14  0.13607272542E+03  0.15769134361E+03  0.79691738889E+02 0.  0.
         66    2    3    3    0    0 -0.19500563666E+02 -0.13572344525E+02  0.13131323596E+03  0.13346028042E+03  0.19999985882E+01 0.  0.
        -13    1    3    3    0    0  0.19500563666E+02  0.13572344525E+02  0.47594894619E+01  0.24231063187E+02  0.10566000000E+00 0.  1.
         13    1    4    4    0    0 -0.13991041107E+01 -0.93352708164E+00  0.72831451176E+01  0.74755823829E+01  0.10566000000E+00 0. -1.
        -13    1    4    4    0    0 -0.22193043786E+01 -0.19947423850E+01  0.17200671926E+02  0.17457909034E+02  0.10566000000E+00 0.  1.
         14    1    4    4    0    0 -0.15882155177E+02 -0.10644075058E+02  0.10682941891E+03  0.10852678901E+03  0.00000000000E+00 0. -1.
<mgrwt>
<rscale>  0 0.79691739E+02</rscale>
<asrwt>0</asrwt>
<pdfrwt beam="1">  1        2 0.22597234E-01 0.79691739E+02</pdfrwt>
<pdfrwt beam="2">  1       -1 0.16629708E-02 0.79691739E+02</pdfrwt>
<totfact> 0.20100227E+05</totfact>
</mgrwt>
</event>
<event>
 8    1  0.2676873E-020  0.7930221E+02  0.7818608E-02  0.1331043E+00
         -1   -1    0    0    0  501 -0.00000000000E+00  0.00000000000E+00  0.18063527245E+03  0.18063527252E+03  0.50400000000E-02 0.  1.
          2   -1    0    0  501    0  0.00000000000E+00 -0.00000000000E+00 -0.87037819196E+01  0.87037822931E+01  0.25500000000E-02 0. -1.
         24    2    1    2    0    0  0.00000000000E+00  0.00000000000E+00  0.17193149053E+03  0.18933905481E+03  0.79302208302E+02 0.  0.
         66    2    3    3    0    0 -0.57316013917E+01  0.38601482752E+02  0.69603382898E+02  0.79822031019E+02  0.19999999969E+01 0.  0.
        -13    1    3    3    0    0  0.57316013917E+01 -0.38601482752E+02  0.10232810763E+03  0.10951702379E+03  0.10566000000E+00 0.  1.
         13    1    4    4    0    0 -0.11088707742E+01  0.70590590968E+01  0.11370716716E+02  0.13429976635E+02  0.10566000000E+00 0. -1.
        -13    1    4    4    0    0 -0.11737582923E+01  0.66971918680E+01  0.11958077855E+02  0.13756339537E+02  0.10566000000E+00 0. -1.
         14    1    4    4    0    0 -0.34489723252E+01  0.24845231787E+02  0.46274588327E+02  0.52635714847E+02  0.00000000000E+00 0. -1.
<mgrwt>
<rscale>  0 0.79302208E+02</rscale>
<asrwt>0</asrwt>
<pdfrwt beam="1">  1        2 0.13390436E-02 0.79302208E+02</pdfrwt>
<pdfrwt beam="2">  1       -1 0.27790039E-01 0.79302208E+02</pdfrwt>
<totfact> 0.10492961E+05</totfact>
</mgrwt>
</event>
<event>
 8    1  0.2676873E-020  0.7963261E+02  0.7818608E-02  0.1330097E+00
          2   -1    0    0  501    0  0.00000000000E+00  0.00000000000E+00  0.44654565696E+02  0.44654565769E+02  0.25500000000E-02 0. -1.
         -1   -1    0    0    0  501 -0.00000000000E+00 -0.00000000000E+00 -0.35502258725E+02  0.35502259083E+02  0.50400000000E-02 0.  1.
         24    2    1    2    0    0  0.00000000000E+00  0.00000000000E+00  0.91523069703E+01  0.80156824852E+02  0.79632605429E+02 0.  0.
         66    2    3    3    0    0  0.49272505093E+01 -0.10242588064E+02  0.42963310158E+02  0.44486339735E+02  0.19999988557E+01 0.  0.
        -13    1    3    3    0    0 -0.49272505093E+01  0.10242588064E+02 -0.33811003188E+02  0.35670485117E+02  0.10566000000E+00 0.  1.
         13    1    4    4    0    0  0.86177833632E+00 -0.97477797066E+00  0.57516160945E+01  0.58978899385E+01  0.10566000000E+00 0. -1.
        -13    1    4    4    0    0  0.22968211489E+01 -0.38304121108E+01  0.17808382278E+02  0.18360203913E+02  0.10566000000E+00 0.  1.
         14    1    4    4    0    0  0.17686510241E+01 -0.54373979826E+01  0.19403311786E+02  0.20228245884E+02  0.00000000000E+00 0. -1.
<mgrwt>
<rscale>  0 0.79632605E+02</rscale>
<asrwt>0</asrwt>
<pdfrwt beam="1">  1        2 0.68699331E-02 0.79632605E+02</pdfrwt>
<pdfrwt beam="2">  1       -1 0.54618861E-02 0.79632605E+02</pdfrwt>
<totfact> 0.14771330E+05</totfact>
</mgrwt>
</event>
<event>
 8    1  0.2676873E-020  0.7855697E+02  0.7818608E-02  0.1333197E+00
         -1   -1    0    0    0  501 -0.00000000000E+00  0.00000000000E+00  0.40723663919E+01  0.40723695107E+01  0.50400000000E-02 0.  1.
          2   -1    0    0  501    0  0.00000000000E+00 -0.00000000000E+00 -0.37884581803E+03  0.37884581804E+03  0.25500000000E-02 0. -1.
         24    2    1    2    0    0 -0.35527136788E-14  0.00000000000E+00 -0.37477345164E+03  0.38291818755E+03  0.78556974886E+02 0.  0.
         66    2    3    3    0    0  0.26215060956E+02 -0.22736253434E+02 -0.27694054879E+03  0.27911329997E+03  0.20000040405E+01 0.  0.
        -13    1    3    3    0    0 -0.26215060956E+02  0.22736253434E+02 -0.97832902848E+02  0.10380488758E+03  0.10566000000E+00 0.  1.
         13    1    4    4    0    0  0.17618973240E+01 -0.16763127522E+01 -0.20415631684E+02  0.20560240459E+02  0.10566000000E+00 0. -1.
        -13    1    4    4    0    0  0.17990985383E+02 -0.15328462727E+02 -0.18147761398E+03  0.18301030808E+03  0.10566000000E+00 0.  1.
        -14    1    4    4    0    0  0.64621782490E+01 -0.57314779540E+01 -0.75047303130E+02  0.75542751435E+02  0.00000000000E+00 0.  1.
<mgrwt>
<rscale>  0 0.78556975E+02</rscale>
<asrwt>0</asrwt>
<pdfrwt beam="1">  1        2 0.58283944E-01 0.78556975E+02</pdfrwt>
<pdfrwt beam="2">  1       -1 0.62651845E-03 0.78556975E+02</pdfrwt>
<totfact> 0.29067871E+05</totfact>
</mgrwt>
</event>
<event>
 8    1  0.2676873E-020  0.7879043E+02  0.7818608E-02  0.1332519E+00
          2   -1    0    0  501    0  0.00000000000E+00  0.00000000000E+00  0.89154673465E+02  0.89154673501E+02  0.25500000000E-02 0. -1.
         -1   -1    0    0    0  501 -0.00000000000E+00 -0.00000000000E+00 -0.17407758539E+02  0.17407759269E+02  0.50400000000E-02 0.  1.
         24    2    1    2    0    0 -0.35527136788E-14  0.00000000000E+00  0.71746914926E+02  0.10656243277E+03  0.78790432646E+02 0.  0.
         66    2    3    3    0    0  0.30921363119E+02  0.24710654665E+01  0.68685172860E+02  0.75391576347E+02  0.19999878759E+01 0.  0.
        -13    1    3    3    0    0 -0.30921363119E+02 -0.24710654665E+01  0.30617420653E+01  0.31170856424E+02  0.10566000000E+00 0.  1.
         13    1    4    4    0    0  0.15080599606E+02  0.17025505073E+01  0.32367109209E+02  0.35748623544E+02  0.10566000000E+00 0. -1.
        -13    1    4    4    0    0  0.22434907908E+01 -0.22702304079E+00  0.49976199452E+01  0.54838088535E+01  0.10566000000E+00 0.  1.
         14    1    4    4    0    0  0.13597272722E+02  0.99553800003E+00  0.31320443706E+02  0.34159143949E+02  0.00000000000E+00 0. -1.
<mgrwt>
<rscale>  0 0.78790433E+02</rscale>
<asrwt>0</asrwt>
<pdfrwt beam="1">  1        2 0.13716103E-01 0.78790433E+02</pdfrwt>
<pdfrwt beam="2">  1       -1 0.26781168E-02 0.78790433E+02</pdfrwt>
<totfact> 0.17894248E+05</totfact>
</mgrwt>
</event>
<event>
 8    1  0.2676873E-020  0.7921144E+02  0.7818608E-02  0.1331304E+00
         -1   -1    0    0    0  501 -0.00000000000E+00  0.00000000000E+00  0.10390592885E+03  0.10390592898E+03  0.50400000000E-02 0.  1.
          2   -1    0    0  501    0  0.00000000000E+00 -0.00000000000E+00 -0.15096472166E+02  0.15096472382E+02  0.25500000000E-02 0. -1.
         24    2    1    2    0    0 -0.17763568394E-14 -0.35527136788E-14  0.88809456687E+02  0.11900240136E+03  0.79211438137E+02 0.  0.
         66    2    3    3    0    0  0.12127174020E+02  0.21132067929E+02 -0.24288196919E+01  0.24566884282E+02  0.19999983953E+01 0.  0.
        -13    1    3    3    0    0 -0.12127174020E+02 -0.21132067929E+02  0.91238276379E+02  0.94435517076E+02  0.10566000000E+00 0.  1.
         13    1    4    4    0    0  0.10451304287E+01  0.21582102925E+01 -0.27030008718E+00  0.24154493272E+01  0.10566000000E+00 0. -1.
        -13    1    4    4    0    0  0.79103639001E+01  0.14620654451E+02 -0.10826908373E+01  0.16658954862E+02  0.10566000000E+00 0.  1.
        -14    1    4    4    0    0  0.31716796910E+01  0.43532031855E+01 -0.10758287675E+01  0.54924800931E+01  0.00000000000E+00 0.  1.
<mgrwt>
<rscale>  0 0.79211438E+02</rscale>
<asrwt>0</asrwt>
<pdfrwt beam="1">  1        2 0.23225342E-02 0.79211438E+02</pdfrwt>
<pdfrwt beam="2">  1       -1 0.15985527E-01 0.79211438E+02</pdfrwt>
<totfact> 0.12049825E+05</totfact>
</mgrwt>
</event>
<event>
 8    1  0.2676873E-020  0.7993999E+02  0.7818608E-02  0.1329222E+00
         -1   -1    0    0    0  501 -0.00000000000E+00  0.00000000000E+00  0.11612138450E+01  0.11612247824E+01  0.50400000000E-02 0.  1.
          2   -1    0    0  501    0  0.00000000000E+00 -0.00000000000E+00 -0.13757957657E+04  0.13757957657E+04  0.25500000000E-02 0. -1.
         24    2    1    2    0    0  0.35527136788E-14  0.17763568394E-14 -0.13746345518E+04  0.13769569905E+04  0.79939993064E+02 0.  0.
         66    2    3    3    0    0  0.19521049117E+02  0.85236662626E+01 -0.12698024273E+04  0.12699826490E+04  0.19999991644E+01 0.  0.
        -13    1    3    3    0    0 -0.19521049117E+02 -0.85236662626E+01 -0.10483212453E+03  0.10697434151E+03  0.10566000000E+00 0.  1.
         13    1    4    4    0    0  0.11543058706E+02  0.56533700828E+01 -0.78193385069E+03  0.78203948802E+03  0.10566000000E+00 0. -1.
        -13    1    4    4    0    0  0.42578222116E+01  0.12165572947E+01 -0.27472996523E+03  0.27476567111E+03  0.10566000000E+00 0.  1.
         14    1    4    4    0    0  0.37201681996E+01  0.16537388850E+01 -0.21313861139E+03  0.21317748983E+03  0.00000000000E+00 0. -1.
<mgrwt>
<rscale>  0 0.79939993E+02</rscale>
<asrwt>0</asrwt>
<pdfrwt beam="1">  1        2 0.21165958E+00 0.79939993E+02</pdfrwt>
<pdfrwt beam="2">  1       -1 0.17865023E-03 0.79939993E+02</pdfrwt>
<totfact> 0.34241917E+05</totfact>
</mgrwt>
</event>
<event>
 8    1  0.2676873E-020  0.8602680E+02  0.7818608E-02  0.1312769E+00
          2   -1    0    0  501    0  0.00000000000E+00  0.00000000000E+00  0.65698342980E+03  0.65698342981E+03  0.25500000000E-02 0. -1.
         -1   -1    0    0    0  501 -0.00000000000E+00 -0.00000000000E+00 -0.28161305454E+01  0.28161350554E+01  0.50400000000E-02 0.  1.
         24    2    1    2    0    0  0.71054273576E-14  0.00000000000E+00  0.65416729926E+03  0.65979956486E+03  0.86026800335E+02 0.  0.
         66    2    3    3    0    0 -0.30212302096E+02  0.23525482810E+02  0.47714632967E+03  0.47868450094E+03  0.19999976780E+01 0.  0.
        -13    1    3    3    0    0  0.30212302096E+02 -0.23525482810E+02  0.17702096959E+03  0.18111506392E+03  0.10566000000E+00 0.  1.
         13    1    4    4    0    0 -0.17339075368E+02  0.12712874543E+02  0.26798196740E+03  0.26884308943E+03  0.10566000000E+00 0. -1.
        -13    1    4    4    0    0 -0.11850080812E+01  0.13469383411E+01  0.24037119268E+02  0.24104206143E+02  0.10566000000E+00 0.  1.
        -14    1    4    4    0    0 -0.11688218647E+02  0.94656699254E+01  0.18512724299E+03  0.18573720538E+03  0.00000000000E+00 0.  1.
<mgrwt>
<rscale>  0 0.86026800E+02</rscale>
<asrwt>0</asrwt>
<pdfrwt beam="1">  1        2 0.10107436E+00 0.86026800E+02</pdfrwt>
<pdfrwt beam="2">  1       -1 0.43325124E-03 0.86026800E+02</pdfrwt>
<totfact> 0.27257186E+05</totfact>
</mgrwt>
</event>
<event>
 8    1  0.2676873E-020  0.8006278E+02  0.7818608E-02  0.1328873E+00
          2   -1    0    0  501    0  0.00000000000E+00  0.00000000000E+00  0.40842156745E+02  0.40842156824E+02  0.25500000000E-02 0. -1.
         -1   -1    0    0    0  501 -0.00000000000E+00 -0.00000000000E+00 -0.39236720192E+02  0.39236720516E+02  0.50400000000E-02 0.  1.
         24    2    1    2    0    0  0.00000000000E+00  0.00000000000E+00  0.16054365526E+01  0.80078877340E+02  0.80062782674E+02 0.  0.
         66    2    3    3    0    0 -0.82043755298E+01 -0.25237467122E+02  0.30746934881E+02  0.40664671609E+02  0.19999969704E+01 0.  0.
        -13    1    3    3    0    0  0.82043755298E+01  0.25237467122E+02 -0.29141498329E+02  0.39414205731E+02  0.10566000000E+00 0.  1.
         13    1    4    4    0    0 -0.29276951493E+01 -0.91933145135E+01  0.11552159190E+02  0.15051643652E+02  0.10566000000E+00 0. -1.
        -13    1    4    4    0    0 -0.45223419948E+01 -0.11618846518E+02  0.14229439760E+02  0.18919230731E+02  0.10566000000E+00 0.  1.
         14    1    4    4    0    0 -0.75433838569E+00 -0.44253060902E+01  0.49653359308E+01  0.66937972256E+01  0.00000000000E+00 0. -1.
<mgrwt>
<rscale>  0 0.80062783E+02</rscale>
<asrwt>0</asrwt>
<pdfrwt beam="1">  1        2 0.62834087E-02 0.80062783E+02</pdfrwt>
<pdfrwt beam="2">  1       -1 0.60364186E-02 0.80062783E+02</pdfrwt>
<totfact> 0.14285559E+05</totfact>
</mgrwt>
</event>
<event>
 8    1  0.2676873E-020  0.8098014E+02  0.7818608E-02  0.1326293E+00
          2   -1    0    0  501    0  0.00000000000E+00  0.00000000000E+00  0.12915404373E+04  0.12915404373E+04  0.25500000000E-02 0. -1.
         -1   -1    0    0    0  501 -0.00000000000E+00 -0.00000000000E+00 -0.12693674371E+01  0.12693774427E+01  0.50400000000E-02 0.  1.
         24    2    1    2    0    0 -0.35527136788E-14  0.88817841970E-15  0.12902710699E+04  0.12928098148E+04  0.80980141865E+02 0.  0.
         66    2    3    3    0    0  0.21582374886E+02  0.49562212163E+01  0.11862231910E+04  0.11864315496E+04  0.19999997141E+01 0.  0.
        -13    1    3    3    0    0 -0.21582374886E+02 -0.49562212163E+01  0.10404787891E+03  0.10637826519E+03  0.10566000000E+00 0.  1.
         13    1    4    4    0    0  0.77308851084E+01  0.22831141627E+01  0.45603599206E+03  0.45610724223E+03  0.10566000000E+00 0. -1.
        -13    1    4    4    0    0  0.36348325463E+01  0.49069138988E+00  0.16830148355E+03  0.16834147829E+03  0.10566000000E+00 0.  1.
        -14    1    4    4    0    0  0.10216657231E+02  0.21824156637E+01  0.56188571535E+03  0.56198282904E+03  0.00000000000E+00 0.  1.
<mgrwt>
<rscale>  0 0.80980142E+02</rscale>
<asrwt>0</asrwt>
<pdfrwt beam="1">  1        2 0.19869725E+00 0.80980142E+02</pdfrwt>
<pdfrwt beam="2">  1       -1 0.19528932E-03 0.80980142E+02</pdfrwt>
<totfact> 0.33580417E+05</totfact>
</mgrwt>
</event>
<event>
 8    1  0.2676873E-020  0.7775561E+02  0.7818608E-02  0.1335544E+00
          2   -1    0    0  501    0  0.00000000000E+00  0.00000000000E+00  0.12972078011E+03  0.12972078013E+03  0.25500000000E-02 0. -1.
         -1   -1    0    0    0  501 -0.00000000000E+00 -0.00000000000E+00 -0.11651822831E+02  0.11651823922E+02  0.50400000000E-02 0.  1.
         24    2    1    2    0    0  0.00000000000E+00  0.00000000000E+00  0.11806895728E+03  0.14137260406E+03  0.77755607546E+02 0.  0.
         66    2    3    3    0    0 -0.65868837441E+01 -0.19747310359E+02  0.11871745917E+03  0.12054533773E+03  0.20000084208E+01 0.  0.
        -13    1    3    3    0    0  0.65868837441E+01  0.19747310359E+02 -0.64850188845E+00  0.20827266326E+02  0.10566000000E+00 0.  1.
         13    1    4    4    0    0 -0.34496177252E+01 -0.10908313679E+02  0.63732049812E+02  0.64750880358E+02  0.10566000000E+00 0. -1.
        -13    1    4    4    0    0 -0.26991131722E+01 -0.65973698428E+01  0.38922474794E+02  0.39569947041E+02  0.10566000000E+00 0.  1.
        -14    1    4    4    0    0 -0.43815284666E+00 -0.22416268372E+01  0.16062934561E+02  0.16224510332E+02  0.00000000000E+00 0.  1.
<mgrwt>
<rscale>  0 0.77755608E+02</rscale>
<asrwt>0</asrwt>
<pdfrwt beam="1">  1        2 0.19957044E-01 0.77755608E+02</pdfrwt>
<pdfrwt beam="2">  1       -1 0.17925881E-02 0.77755608E+02</pdfrwt>
<totfact> 0.20636932E+05</totfact>
</mgrwt>
</event>
<event>
 8    1  0.2676873E-020  0.8026913E+02  0.7818608E-02  0.1328289E+00
          2   -1    0    0  501    0  0.00000000000E+00  0.00000000000E+00  0.16271950469E+02  0.16271950668E+02  0.25500000000E-02 0. -1.
         -1   -1    0    0    0  501 -0.00000000000E+00 -0.00000000000E+00 -0.98991413222E+02  0.98991413350E+02  0.50400000000E-02 0.  1.
         24    2    1    2    0    0 -0.35527136788E-14  0.00000000000E+00 -0.82719462753E+02  0.11526336402E+03  0.80269132091E+02 0.  0.
         66    2    3    3    0    0  0.20672008686E+02 -0.33891035151E+02 -0.33155860112E+02  0.51761426430E+02  0.19999999056E+01 0.  0.
        -13    1    3    3    0    0 -0.20672008686E+02  0.33891035151E+02 -0.49563602642E+02  0.63501937589E+02  0.10566000000E+00 0.  1.
         13    1    4    4    0    0  0.87766784538E+01 -0.15216196202E+02 -0.14606577740E+02  0.22845699570E+02  0.10566000000E+00 0. -1.
        -13    1    4    4    0    0  0.43684467175E+01 -0.70151604168E+01 -0.61012973147E+01  0.10272915621E+02  0.10566000000E+00 0.  1.
        -14    1    4    4    0    0  0.75268835145E+01 -0.11659678532E+02 -0.12447985057E+02  0.18642811239E+02  0.00000000000E+00 0.  1.
<mgrwt>
<rscale>  0 0.80269132E+02</rscale>
<asrwt>0</asrwt>
<pdfrwt beam="1">  1        2 0.25033771E-02 0.80269132E+02</pdfrwt>
<pdfrwt beam="2">  1       -1 0.15229448E-01 0.80269132E+02</pdfrwt>
<totfact> 0.11779752E+05</totfact>
</mgrwt>
</event>
<event>
 8    1  0.2676873E-020  0.7923486E+02  0.7818608E-02  0.1331237E+00
         -1   -1    0    0    0  501 -0.00000000000E+00  0.00000000000E+00  0.11039116167E+02  0.11039117318E+02  0.50400000000E-02 0.  1.
          2   -1    0    0  501    0  0.00000000000E+00 -0.00000000000E+00 -0.14217992467E+03  0.14217992470E+03  0.25500000000E-02 0. -1.
         24    2    1    2    0    0  0.00000000000E+00 -0.35527136788E-14 -0.13114080851E+03  0.15321904201E+03  0.79234860888E+02 0.  0.
         66    2    3    3    0    0  0.68067860197E+01  0.18752787127E+02 -0.13174279650E+03  0.13325976060E+03  0.20000008080E+01 0.  0.
        -13    1    3    3    0    0 -0.68067860197E+01 -0.18752787127E+02  0.60198799903E+00  0.19959281414E+02  0.10566000000E+00 0.  1.
         13    1    4    4    0    0  0.50609323071E+01  0.13541621691E+02 -0.97867455065E+02  0.98929462138E+02  0.10566000000E+00 0. -1.
        -13    1    4    4    0    0  0.55387239988E-02  0.11109464439E+01 -0.69242220963E+01  0.70135760032E+01  0.10566000000E+00 0.  1.
        -14    1    4    4    0    0  0.17403149886E+01  0.41002189924E+01 -0.26951119343E+02  0.27316722459E+02  0.00000000000E+00 0.  1.
<mgrwt>
<rscale>  0 0.79234861E+02</rscale>
<asrwt>0</asrwt>
<pdfrwt beam="1">  1        2 0.21873833E-01 0.79234861E+02</pdfrwt>
<pdfrwt beam="2">  1       -1 0.16983258E-02 0.79234861E+02</pdfrwt>
<totfact> 0.20198998E+05</totfact>
</mgrwt>
</event>
<event>
 8    1  0.2676873E-020  0.7834568E+02  0.7818608E-02  0.1333813E+00
         -1   -1    0    0    0  501 -0.00000000000E+00  0.00000000000E+00  0.52283421542E+01  0.52283445834E+01  0.50400000000E-02 0.  1.
          2   -1    0    0  501    0  0.00000000000E+00 -0.00000000000E+00 -0.29349858776E+03  0.29349858777E+03  0.25500000000E-02 0. -1.
         24    2    1    2    0    0  0.00000000000E+00 -0.17763568394E-14 -0.28827024561E+03  0.29872693235E+03  0.78345680240E+02 0.  0.
         66    2    3    3    0    0 -0.23859630697E+02 -0.14858537387E+02 -0.24812326370E+03  0.24971826546E+03  0.20000017384E+01 0.  0.
        -13    1    3    3    0    0  0.23859630697E+02  0.14858537387E+02 -0.40146981908E+02  0.49008666893E+02  0.10566000000E+00 0.  1.
         13    1    4    4    0    0 -0.10665501196E+02 -0.64310236348E+01 -0.11369438649E+03  0.11437454116E+03  0.10566000000E+00 0. -1.
        -13    1    4    4    0    0 -0.75638598589E+01 -0.54912081581E+01 -0.77390207736E+02  0.77952682831E+02  0.10566000000E+00 0.  1.
        -14    1    4    4    0    0 -0.56302696416E+01 -0.29363055939E+01 -0.57038669469E+02  0.57391041475E+02  0.00000000000E+00 0.  1.
<mgrwt>
<rscale>  0 0.78345680E+02</rscale>
<asrwt>0</asrwt>
<pdfrwt beam="1">  1        2 0.45153616E-01 0.78345680E+02</pdfrwt>
<pdfrwt beam="2">  1       -1 0.80436075E-03 0.78345680E+02</pdfrwt>
<totfact> 0.26716234E+05</totfact>
</mgrwt>
</event>
<event>
 8    1  0.2676873E-020  0.8128401E+02  0.7818608E-02  0.1325447E+00
         -1   -1    0    0    0  501 -0.00000000000E+00  0.00000000000E+00  0.31175637746E+01  0.31175678486E+01  0.50400000000E-02 0.  1.
          2   -1    0    0  501    0  0.00000000000E+00 -0.00000000000E+00 -0.52982765438E+03  0.52982765439E+03  0.25500000000E-02 0. -1.
         24    2    1    2    0    0 -0.17763568394E-14 -0.71054273576E-14 -0.52671009061E+03  0.53294522223E+03  0.81284010465E+02 0.  0.
         66    2    3    3    0    0 -0.12339074654E+02 -0.37831818893E+02 -0.31688812385E+03  0.31938312780E+03  0.19999998342E+01 0.  0.
        -13    1    3    3    0    0  0.12339074654E+02  0.37831818893E+02 -0.20982196676E+03  0.21356209444E+03  0.10566000000E+00 0.  1.
         13    1    4    4    0    0 -0.59205963084E+01 -0.16409429347E+02 -0.14312878680E+03  0.14418801478E+03  0.10566000000E+00 0. -1.
        -13    1    4    4    0    0 -0.62639198532E+01 -0.21183496518E+02 -0.17203010589E+03  0.17344262946E+03  0.10566000000E+00 0.  1.
         14    1    4    4    0    0 -0.15455849192E+00 -0.23889302815E+00 -0.17292311601E+01  0.17524835552E+01  0.00000000000E+00 0. -1.
<mgrwt>
<rscale>  0 0.81284010E+02</rscale>
<asrwt>0</asrwt>
<pdfrwt beam="1">  1        2 0.81511875E-01 0.81284010E+02</pdfrwt>
<pdfrwt beam="2">  1       -1 0.47962593E-03 0.81284010E+02</pdfrwt>
<totfact> 0.29748094E+05</totfact>
</mgrwt>
</event>
<event>
 8    1  0.2676873E-020  0.7928645E+02  0.7818608E-02  0.1331089E+00
          2   -1    0    0  501    0  0.00000000000E+00  0.00000000000E+00  0.35343499522E+03  0.35343499523E+03  0.25500000000E-02 0. -1.
         -1   -1    0    0    0  501 -0.00000000000E+00 -0.00000000000E+00 -0.44466022204E+01  0.44466050767E+01  0.50400000000E-02 0.  1.
         24    2    1    2    0    0  0.00000000000E+00  0.00000000000E+00  0.34898839300E+03  0.35788160030E+03  0.79286451485E+02 0.  0.
         66    2    3    3    0    0 -0.19141740665E+02 -0.24027039696E+01  0.33079743639E+03  0.33136554312E+03  0.20000064107E+01 0.  0.
        -13    1    3    3    0    0  0.19141740665E+02  0.24027039696E+01  0.18190956610E+02  0.26516057182E+02  0.10566000000E+00 0.  1.
         13    1    4    4    0    0 -0.83315839586E+01 -0.17277853519E+01  0.15787294683E+03  0.15810211586E+03  0.10566000000E+00 0. -1.
        -13    1    4    4    0    0 -0.83254332045E+01 -0.49869817337E+00  0.13272362305E+03  0.13298546093E+03  0.10566000000E+00 0. -1.
         14    1    4    4    0    0 -0.24847235023E+01 -0.17622044436E+00  0.40200866501E+02  0.40277966334E+02  0.00000000000E+00 0. -1.
<mgrwt>
<rscale>  0 0.79286451E+02</rscale>
<asrwt>0</asrwt>
<pdfrwt beam="1">  1        2 0.54374621E-01 0.79286451E+02</pdfrwt>
<pdfrwt beam="2">  1       -1 0.68409280E-03 0.79286451E+02</pdfrwt>
<totfact> 0.27684747E+05</totfact>
</mgrwt>
</event>
<event>
 8    1  0.2676873E-020  0.8043449E+02  0.7818608E-02  0.1327823E+00
          2   -1    0    0  501    0  0.00000000000E+00  0.00000000000E+00  0.56838710611E+02  0.56838710668E+02  0.25500000000E-02 0. -1.
         -1   -1    0    0    0  501 -0.00000000000E+00 -0.00000000000E+00 -0.28456426933E+02  0.28456427379E+02  0.50400000000E-02 0.  1.
         24    2    1    2    0    0  0.00000000000E+00 -0.17763568394E-14  0.28382283678E+02  0.85295138047E+02  0.80434486060E+02 0.  0.
         66    2    3    3    0    0 -0.20723975499E+01  0.13087905162E+02  0.54438053304E+02  0.56063265238E+02  0.19999921251E+01 0.  0.
        -13    1    3    3    0    0  0.20723975499E+01 -0.13087905162E+02 -0.26055769625E+02  0.29231872809E+02  0.10566000000E+00 0.  1.
         13    1    4    4    0    0 -0.17807519144E+01  0.94354090281E+01  0.36523676476E+02  0.37764906040E+02  0.10566000000E+00 0. -1.
        -13    1    4    4    0    0 -0.40241172361E+00  0.13631280153E+01  0.61773382171E+01  0.63396154982E+01  0.10566000000E+00 0.  1.
        -14    1    4    4    0    0  0.11076608809E+00  0.22893681188E+01  0.11737038611E+02  0.11958743699E+02  0.00000000000E+00 0.  1.
<mgrwt>
<rscale>  0 0.80434486E+02</rscale>
<asrwt>0</asrwt>
<pdfrwt beam="1">  1        2 0.87444169E-02 0.80434486E+02</pdfrwt>
<pdfrwt beam="2">  1       -1 0.43779119E-02 0.80434486E+02</pdfrwt>
<totfact> 0.15149121E+05</totfact>
</mgrwt>
</event>
<event>
 8    1  0.2676873E-020  0.7999560E+02  0.7818608E-02  0.1329064E+00
         -1   -1    0    0    0  501 -0.00000000000E+00  0.00000000000E+00  0.35225260143E+03  0.35225260147E+03  0.50400000000E-02 0.  1.
          2   -1    0    0  501    0  0.00000000000E+00 -0.00000000000E+00 -0.45416954244E+01  0.45416961403E+01  0.25500000000E-02 0. -1.
         24    2    1    2    0    0  0.00000000000E+00  0.35527136788E-14  0.34771090601E+03  0.35679429761E+03  0.79995603937E+02 0.  0.
         66    2    3    3    0    0  0.56394519002E+01  0.30803584319E+02  0.28476615336E+03  0.28648983634E+03  0.20000002393E+01 0.  0.
        -13    1    3    3    0    0 -0.56394519002E+01 -0.30803584319E+02  0.62944752648E+02  0.70304461271E+02  0.10566000000E+00 0.  1.
         13    1    4    4    0    0  0.28288731768E+01  0.15336359007E+02  0.14085632768E+03  0.14171705135E+03  0.10566000000E+00 0. -1.
        -13    1    4    4    0    0  0.19655043484E+01  0.12224468202E+02  0.10824369083E+03  0.10894956906E+03  0.10566000000E+00 0.  1.
        -14    1    4    4    0    0  0.84507437498E+00  0.32427571092E+01  0.35666134853E+02  0.35823215932E+02  0.00000000000E+00 0.  1.
<mgrwt>
<rscale>  0 0.79995604E+02</rscale>
<asrwt>0</asrwt>
<pdfrwt beam="1">  1        2 0.69872210E-03 0.79995604E+02</pdfrwt>
<pdfrwt beam="2">  1       -1 0.54192734E-01 0.79995604E+02</pdfrwt>
<totfact> 0.80649371E+04</totfact>
</mgrwt>
</event>
<event>
 8    1  0.2676873E-020  0.8045077E+02  0.7818608E-02  0.1327777E+00
         -1   -1    0    0    0  501 -0.00000000000E+00  0.00000000000E+00  0.35828325793E+01  0.35828361242E+01  0.50400000000E-02 0.  1.
          2   -1    0    0  501    0  0.00000000000E+00 -0.00000000000E+00 -0.45162052615E+03  0.45162052615E+03  0.25500000000E-02 0. -1.
         24    2    1    2    0    0 -0.17763568394E-14 -0.35527136788E-14 -0.44803769357E+03  0.45520336228E+03  0.80450768624E+02 0.  0.
         66    2    3    3    0    0 -0.95857770397E+01 -0.21296032277E+02 -0.40929797734E+03  0.40996858706E+03  0.20000008693E+01 0.  0.
        -13    1    3    3    0    0  0.95857770397E+01  0.21296032277E+02 -0.38739716223E+02  0.45234775221E+02  0.10566000000E+00 0.  1.
         13    1    4    4    0    0 -0.27310759030E+01 -0.49073345550E+01 -0.90786477696E+02  0.90960081379E+02  0.10566000000E+00 0. -1.
        -13    1    4    4    0    0 -0.23239419449E+01 -0.42764665207E+01 -0.86522862523E+02  0.86659712527E+02  0.10566000000E+00 0.  1.
         14    1    4    4    0    0 -0.45307591918E+01 -0.12112231201E+02 -0.23198863713E+03  0.23234879315E+03  0.00000000000E+00 0. -1.
<mgrwt>
<rscale>  0 0.80450769E+02</rscale>
<asrwt>0</asrwt>
<pdfrwt beam="1">  1        2 0.69480036E-01 0.80450769E+02</pdfrwt>
<pdfrwt beam="2">  1       -1 0.55120565E-03 0.80450769E+02</pdfrwt>
<totfact> 0.29025264E+05</totfact>
</mgrwt>
</event>
<event>
 8    1  0.2676873E-020  0.8051451E+02  0.7818608E-02  0.1327598E+00
          2   -1    0    0  501    0  0.00000000000E+00  0.00000000000E+00  0.15897806584E+03  0.15897806586E+03  0.25500000000E-02 0. -1.
         -1   -1    0    0    0  501 -0.00000000000E+00 -0.00000000000E+00 -0.10194152370E+02  0.10194153616E+02  0.50400000000E-02 0.  1.
         24    2    1    2    0    0  0.35527136788E-14  0.00000000000E+00  0.14878391347E+03  0.16917221947E+03  0.80514513817E+02 0.  0.
         66    2    3    3    0    0 -0.27189909639E+02  0.27555893083E+02  0.97456798198E+02  0.10488301077E+03  0.20000008704E+01 0.  0.
        -13    1    3    3    0    0  0.27189909639E+02 -0.27555893083E+02  0.51327115267E+02  0.64289208701E+02  0.10566000000E+00 0.  1.
         13    1    4    4    0    0 -0.63496696532E+01  0.59030074096E+01  0.20571136449E+02  0.22323678460E+02  0.10566000000E+00 0. -1.
        -13    1    4    4    0    0 -0.31070893272E+00  0.51197453887E+00  0.14918678921E+01  0.16110530135E+01  0.10566000000E+00 0.  1.
         14    1    4    4    0    0 -0.20529531053E+02  0.21140911135E+02  0.75393793858E+02  0.80948279297E+02  0.00000000000E+00 0. -1.
<mgrwt>
<rscale>  0 0.80514514E+02</rscale>
<asrwt>0</asrwt>
<pdfrwt beam="1">  1        2 0.24458161E-01 0.80514514E+02</pdfrwt>
<pdfrwt beam="2">  1       -1 0.15683314E-02 0.80514514E+02</pdfrwt>
<totfact> 0.20067933E+05</totfact>
</mgrwt>
</event>
<event>
 8    1  0.2676873E-020  0.7838214E+02  0.7818608E-02  0.1333706E+00
          2   -1    0    0  501    0  0.00000000000E+00  0.00000000000E+00  0.17581849500E+03  0.17581849502E+03  0.25500000000E-02 0. -1.
         -1   -1    0    0    0  501 -0.00000000000E+00 -0.00000000000E+00 -0.87359399717E+01  0.87359414255E+01  0.50400000000E-02 0.  1.
         24    2    1    2    0    0  0.00000000000E+00  0.00000000000E+00  0.16708255503E+03  0.18455443645E+03  0.78382139652E+02 0.  0.
         66    2    3    3    0    0  0.36164874866E+01  0.37294032211E+02  0.11044264018E+03  0.11664261908E+03  0.19999986223E+01 0.  0.
        -13    1    3    3    0    0 -0.36164874866E+01 -0.37294032211E+02  0.56639914848E+02  0.67911817368E+02  0.10566000000E+00 0.  1.
         13    1    4    4    0    0  0.13826001703E+01  0.72821727950E+01  0.21476728332E+02  0.22720093480E+02  0.10566000000E+00 0. -1.
        -13    1    4    4    0    0  0.10463776428E+00  0.59712621849E+01  0.17853564403E+02  0.18826254196E+02  0.10566000000E+00 0.  1.
         14    1    4    4    0    0  0.21292495519E+01  0.24040597231E+02  0.71112347449E+02  0.75096271403E+02  0.00000000000E+00 0. -1.
<mgrwt>
<rscale>  0 0.78382140E+02</rscale>
<asrwt>0</asrwt>
<pdfrwt beam="1">  1        2 0.27048997E-01 0.78382140E+02</pdfrwt>
<pdfrwt beam="2">  1       -1 0.13439910E-02 0.78382140E+02</pdfrwt>
<totfact> 0.22276506E+05</totfact>
</mgrwt>
</event>
<event>
 8    1  0.2676873E-020  0.8071822E+02  0.7818608E-02  0.1327026E+00
         -1   -1    0    0    0  501 -0.00000000000E+00  0.00000000000E+00  0.10777908915E+02  0.10777910094E+02  0.50400000000E-02 0.  1.
          2   -1    0    0  501    0  0.00000000000E+00 -0.00000000000E+00 -0.15112926586E+03  0.15112926588E+03  0.25500000000E-02 0. -1.
         24    2    1    2    0    0  0.00000000000E+00  0.00000000000E+00 -0.14035135694E+03  0.16190717597E+03  0.80718215020E+02 0.  0.
         66    2    3    3    0    0 -0.37026967093E+02  0.68261530858E+01 -0.99234643869E+02  0.10615605118E+03  0.19999998659E+01 0.  0.
        -13    1    3    3    0    0  0.37026967093E+02 -0.68261530858E+01 -0.41116713071E+02  0.55751124794E+02  0.10566000000E+00 0.  1.
         13    1    4    4    0    0 -0.12583778150E+02  0.25365446422E+01 -0.33190487478E+02  0.35586586719E+02  0.10566000000E+00 0. -1.
        -13    1    4    4    0    0 -0.80277501604E+01  0.86979859354E+00 -0.22835897099E+02  0.24221698590E+02  0.10566000000E+00 0.  1.
        -14    1    4    4    0    0 -0.16415438783E+02  0.34198098501E+01 -0.43208259292E+02  0.46347765867E+02  0.00000000000E+00 0.  1.
<mgrwt>
<rscale>  0 0.80718215E+02</rscale>
<asrwt>0</asrwt>
<pdfrwt beam="1">  1        2 0.23250655E-01 0.80718215E+02</pdfrwt>
<pdfrwt beam="2">  1       -1 0.16581400E-02 0.80718215E+02</pdfrwt>
<totfact> 0.19607800E+05</totfact>
</mgrwt>
</event>
<event>
 8    1  0.2676873E-020  0.7881408E+02  0.7818608E-02  0.1332451E+00
         -1   -1    0    0    0  501 -0.00000000000E+00  0.00000000000E+00  0.30720972120E+03  0.30720972124E+03  0.50400000000E-02 0.  1.
          2   -1    0    0  501    0  0.00000000000E+00 -0.00000000000E+00 -0.50549005988E+01  0.50549012419E+01  0.25500000000E-02 0. -1.
         24    2    1    2    0    0 -0.35527136788E-14  0.35527136788E-14  0.30215482060E+03  0.31226462249E+03  0.78814077690E+02 0.  0.
         66    2    3    3    0    0  0.24558378641E+02  0.30680154084E+02  0.16129428812E+03  0.16602479689E+03  0.19999961286E+01 0.  0.
        -13    1    3    3    0    0 -0.24558378641E+02 -0.30680154084E+02  0.14086053248E+03  0.14623982560E+03  0.10566000000E+00 0.  1.
         13    1    4    4    0    0  0.54067007427E+00  0.36548929925E+00  0.23976079444E+01  0.24870855329E+01  0.10566000000E+00 0. -1.
        -13    1    4    4    0    0  0.23895118236E+01  0.29872780899E+01  0.16619183510E+02  0.17054091056E+02  0.10566000000E+00 0.  1.
         14    1    4    4    0    0  0.21628196743E+02  0.27327386695E+02  0.14227749667E+03  0.14648362030E+03  0.00000000000E+00 0. -1.
<mgrwt>
<rscale>  0 0.78814078E+02</rscale>
<asrwt>0</asrwt>
<pdfrwt beam="1">  1        2 0.77767712E-03 0.78814078E+02</pdfrwt>
<pdfrwt beam="2">  1       -1 0.47263031E-01 0.78814078E+02</pdfrwt>
<totfact> 0.88937589E+04</totfact>
</mgrwt>
</event>
<event>
 8    1  0.2676873E-020  0.8002902E+02  0.7818608E-02  0.1328969E+00
          2   -1    0    0  501    0  0.00000000000E+00  0.00000000000E+00  0.46181542791E+03  0.46181542792E+03  0.25500000000E-02 0. -1.
         -1   -1    0    0    0  501 -0.00000000000E+00 -0.00000000000E+00 -0.34670997793E+01  0.34671034425E+01  0.50400000000E-02 0.  1.
         24    2    1    2    0    0  0.35527136788E-14  0.00000000000E+00  0.45834832813E+03  0.46528253136E+03  0.80029020287E+02 0.  0.
         66    2    3    3    0    0 -0.21646714281E+02 -0.22168787146E+02  0.37629772243E+03  0.37757649723E+03  0.19999981685E+01 0.  0.
        -13    1    3    3    0    0  0.21646714281E+02  0.22168787146E+02  0.82050605702E+02  0.87706034130E+02  0.10566000000E+00 0.  1.
         13    1    4    4    0    0 -0.10178990327E+02 -0.10545419586E+02  0.17631239763E+03  0.17692057664E+03  0.10566000000E+00 0. -1.
        -13    1    4    4    0    0 -0.71889731611E+01 -0.82086673269E+01  0.13089582336E+03  0.13134988121E+03  0.10566000000E+00 0.  1.
        -14    1    4    4    0    0 -0.42787507922E+01 -0.34147002323E+01  0.69089501439E+02  0.69306039384E+02  0.00000000000E+00 0.  1.
<mgrwt>
<rscale>  0 0.80029020E+02</rscale>
<asrwt>0</asrwt>
<pdfrwt beam="1">  1        2 0.71048468E-01 0.80029020E+02</pdfrwt>
<pdfrwt beam="2">  1       -1 0.53340070E-03 0.80029020E+02</pdfrwt>
<totfact> 0.29646022E+05</totfact>
</mgrwt>
</event>
<event>
 8    1  0.2676873E-020  0.7618153E+02  0.7818608E-02  0.1340251E+00
         -1   -1    0    0    0  501 -0.00000000000E+00  0.00000000000E+00  0.23907602435E+01  0.23907655559E+01  0.50400000000E-02 0.  1.
          2   -1    0    0  501    0  0.00000000000E+00 -0.00000000000E+00 -0.60688008665E+03  0.60688008665E+03  0.25500000000E-02 0. -1.
         24    2    1    2    0    0  0.00000000000E+00  0.22204460493E-15 -0.60448932640E+03  0.60927085221E+03  0.76181530667E+02 0.  0.
         66    2    3    3    0    0 -0.36153915754E+02  0.11759564752E+01 -0.39722098249E+03  0.39886964962E+03  0.19999898965E+01 0.  0.
        -13    1    3    3    0    0  0.36153915754E+02 -0.11759564752E+01 -0.20726834391E+03  0.21040120259E+03  0.10566000000E+00 0.  1.
         13    1    4    4    0    0 -0.10207838976E+02  0.66018667594E+00 -0.11970526380E+03  0.12014157136E+03  0.10566000000E+00 0. -1.
        -13    1    4    4    0    0 -0.20186100291E+02  0.30039815060E+00 -0.21984942830E+03  0.22077443505E+03  0.10566000000E+00 0.  1.
        -14    1    4    4    0    0 -0.57599764862E+01  0.21537164863E+00 -0.57666290394E+02  0.57953643215E+02  0.00000000000E+00 0.  1.
<mgrwt>
<rscale>  0 0.76181531E+02</rscale>
<asrwt>0</asrwt>
<pdfrwt beam="1">  1        2 0.93366045E-01 0.76181531E+02</pdfrwt>
<pdfrwt beam="2">  1       -1 0.36781016E-03 0.76181531E+02</pdfrwt>
<totfact> 0.36632371E+05</totfact>
</mgrwt>
</event>
<event>
 8    1  0.2676873E-020  0.8109054E+02  0.7818608E-02  0.1325985E+00
         -1   -1    0    0    0  501 -0.00000000000E+00  0.00000000000E+00  0.14805735835E+02  0.14805736693E+02  0.50400000000E-02 0.  1.
          2   -1    0    0  501    0  0.00000000000E+00 -0.00000000000E+00 -0.11103257470E+03  0.11103257473E+03  0.25500000000E-02 0. -1.
         24    2    1    2    0    0  0.00000000000E+00  0.35527136788E-14 -0.96226838868E+02  0.12583831142E+03  0.81090542627E+02 0.  0.
         66    2    3    3    0    0 -0.33321320045E+02 -0.18757133678E+02 -0.68949422338E+02  0.78868011766E+02  0.20000014554E+01 0.  0.
        -13    1    3    3    0    0  0.33321320045E+02  0.18757133678E+02 -0.27277416530E+02  0.46970299658E+02  0.10566000000E+00 0.  1.
         13    1    4    4    0    0 -0.34313573409E+01 -0.15357008189E+01 -0.69932644550E+01  0.79403716525E+01  0.10566000000E+00 0. -1.
        -13    1    4    4    0    0 -0.10637619929E+02 -0.69443105494E+01 -0.22813656376E+02  0.26112381891E+02  0.10566000000E+00 0.  1.
         14    1    4    4    0    0 -0.19252342775E+02 -0.10277122310E+02 -0.39142501507E+02  0.44815258223E+02  0.00000000000E+00 0. -1.
<mgrwt>
<rscale>  0 0.81090543E+02</rscale>
<asrwt>0</asrwt>
<pdfrwt beam="1">  1        2 0.17081934E-01 0.81090543E+02</pdfrwt>
<pdfrwt beam="2">  1       -1 0.22778057E-02 0.81090543E+02</pdfrwt>
<totfact> 0.17613886E+05</totfact>
</mgrwt>
</event>
<event>
 8    1  0.2676873E-020  0.8039919E+02  0.7818608E-02  0.1327922E+00
         -1   -1    0    0    0  501 -0.00000000000E+00  0.00000000000E+00  0.10062377167E+02  0.10062378429E+02  0.50400000000E-02 0.  1.
          2   -1    0    0  501    0  0.00000000000E+00 -0.00000000000E+00 -0.16059896027E+03  0.16059896029E+03  0.25500000000E-02 0. -1.
         24    2    1    2    0    0  0.00000000000E+00  0.00000000000E+00 -0.15053658311E+03  0.17066133872E+03  0.80399189555E+02 0.  0.
         66    2    3    3    0    0  0.38537923561E+02 -0.10302701299E+02 -0.65204643642E+02  0.76465435078E+02  0.20000006979E+01 0.  0.
        -13    1    3    3    0    0 -0.38537923561E+02  0.10302701299E+02 -0.85331939466E+02  0.94195903645E+02  0.10566000000E+00 0.  1.
         13    1    4    4    0    0  0.20876629275E+02 -0.52170184464E+01 -0.33533917256E+02  0.39844519095E+02  0.10566000000E+00 0. -1.
        -13    1    4    4    0    0  0.56095413913E+01 -0.14782035246E+01 -0.10363901991E+02  0.11877443697E+02  0.10566000000E+00 0.  1.
         14    1    4    4    0    0  0.12051752895E+02 -0.36074793283E+01 -0.21306824396E+02  0.24743472286E+02  0.00000000000E+00 0. -1.
<mgrwt>
<rscale>  0 0.80399190E+02</rscale>
<asrwt>0</asrwt>
<pdfrwt beam="1">  1        2 0.24707531E-01 0.80399190E+02</pdfrwt>
<pdfrwt beam="2">  1       -1 0.15480582E-02 0.80399190E+02</pdfrwt>
<totfact> 0.20211566E+05</totfact>
</mgrwt>
</event>
<event>
 8    1  0.2676873E-020  0.7986486E+02  0.7818608E-02  0.1329435E+00
         -1   -1    0    0    0  501 -0.00000000000E+00  0.00000000000E+00  0.51217508494E+01  0.51217533292E+01  0.50400000000E-02 0.  1.
          2   -1    0    0  501    0  0.00000000000E+00 -0.00000000000E+00 -0.31133853520E+03  0.31133853521E+03  0.25500000000E-02 0. -1.
         24    2    1    2    0    0 -0.35527136788E-14  0.10658141036E-13 -0.30621678435E+03  0.31646028853E+03  0.79864855879E+02 0.  0.
         66    2    3    3    0    0  0.23397586095E+02 -0.26985454689E+02 -0.22374594782E+03  0.22658753493E+03  0.20000046061E+01 0.  0.
        -13    1    3    3    0    0 -0.23397586095E+02  0.26985454689E+02 -0.82470836527E+02  0.89872753610E+02  0.10566000000E+00 0.  1.
         13    1    4    4    0    0  0.36874401516E+01 -0.41891715235E+01 -0.32311655819E+02  0.32790252191E+02  0.10566000000E+00 0. -1.
        -13    1    4    4    0    0  0.14368112643E+01 -0.22788005167E+01 -0.17174019091E+02  0.17384345089E+02  0.10566000000E+00 0.  1.
         14    1    4    4    0    0  0.18273334679E+02 -0.20517482649E+02 -0.17426027291E+03  0.17641293765E+03  0.00000000000E+00 0. -1.
<mgrwt>
<rscale>  0 0.79864856E+02</rscale>
<asrwt>0</asrwt>
<pdfrwt beam="1">  1        2 0.47898221E-01 0.79864856E+02</pdfrwt>
<pdfrwt beam="2">  1       -1 0.78796211E-03 0.79864856E+02</pdfrwt>
<totfact> 0.25953673E+05</totfact>
</mgrwt>
</event>
<event>
 8    1  0.2676873E-020  0.7917753E+02  0.7818608E-02  0.1331402E+00
          2   -1    0    0  501    0  0.00000000000E+00  0.00000000000E+00  0.93079950819E+02  0.93079950854E+02  0.25500000000E-02 0. -1.
         -1   -1    0    0    0  501 -0.00000000000E+00 -0.00000000000E+00 -0.16837891862E+02  0.16837892617E+02  0.50400000000E-02 0.  1.
         24    2    1    2    0    0  0.00000000000E+00  0.00000000000E+00  0.76242058957E+02  0.10991784347E+03  0.79177526857E+02 0.  0.
         66    2    3    3    0    0 -0.32547113007E+02  0.18116804235E+02  0.56652845409E+02  0.67831246884E+02  0.20000000497E+01 0.  0.
        -13    1    3    3    0    0  0.32547113007E+02 -0.18116804235E+02  0.19589213548E+02  0.42086596586E+02  0.10566000000E+00 0.  1.
         13    1    4    4    0    0 -0.13752037813E+02  0.80836304788E+01  0.24462534467E+02  0.29204287054E+02  0.10566000000E+00 0. -1.
        -13    1    4    4    0    0 -0.29749456943E+00  0.32228938215E+00  0.83637702085E+00  0.95029680694E+00  0.10566000000E+00 0. -1.
        -14    1    4    4    0    0 -0.18497580624E+02  0.97108843741E+01  0.31353933920E+02  0.37676663023E+02  0.00000000000E+00 0.  1.
<mgrwt>
<rscale>  0 0.79177527E+02</rscale>
<asrwt>0</asrwt>
<pdfrwt beam="1">  1        2 0.14319993E-01 0.79177527E+02</pdfrwt>
<pdfrwt beam="2">  1       -1 0.25904449E-02 0.79177527E+02</pdfrwt>
<totfact> 0.17866721E+05</totfact>
</mgrwt>
</event>
<event>
 8    1  0.2676873E-020  0.8009706E+02  0.7818608E-02  0.1328776E+00
         -1   -1    0    0    0  501 -0.00000000000E+00  0.00000000000E+00  0.12456462576E+02  0.12456463595E+02  0.50400000000E-02 0.  1.
          2   -1    0    0  501    0  0.00000000000E+00 -0.00000000000E+00 -0.12875923736E+03  0.12875923739E+03  0.25500000000E-02 0. -1.
         24    2    1    2    0    0  0.00000000000E+00  0.00000000000E+00 -0.11630277479E+03  0.14121570098E+03  0.80097058504E+02 0.  0.
         66    2    3    3    0    0 -0.13805380206E+02 -0.12161169385E+02 -0.12085417682E+03  0.12226289148E+03  0.20000040663E+01 0.  0.
        -13    1    3    3    0    0  0.13805380206E+02  0.12161169385E+02  0.45514020312E+01  0.18952809499E+02  0.10566000000E+00 0.  1.
         13    1    4    4    0    0 -0.39022387237E+01 -0.34798685514E+01 -0.38170488460E+02  0.38527059394E+02  0.10566000000E+00 0.  1.
        -13    1    4    4    0    0 -0.54469787209E+01 -0.49354160190E+01 -0.42147697595E+02  0.42783962943E+02  0.10566000000E+00 0. -1.
         14    1    4    4    0    0 -0.44561627610E+01 -0.37458848142E+01 -0.40535990762E+02  0.40951869147E+02  0.00000000000E+00 0. -1.
<mgrwt>
<rscale>  0 0.80097059E+02</rscale>
<asrwt>0</asrwt>
<pdfrwt beam="1">  1        2 0.19809112E-01 0.80097059E+02</pdfrwt>
<pdfrwt beam="2">  1       -1 0.19163790E-02 0.80097059E+02</pdfrwt>
<totfact> 0.19028617E+05</totfact>
</mgrwt>
</event>
<event>
 8    1  0.2676873E-020  0.7869711E+02  0.7818608E-02  0.1332790E+00
          2   -1    0    0  501    0  0.00000000000E+00  0.00000000000E+00  0.88246256750E+02  0.88246256787E+02  0.25500000000E-02 0. -1.
         -1   -1    0    0    0  501 -0.00000000000E+00 -0.00000000000E+00 -0.17545319994E+02  0.17545320718E+02  0.50400000000E-02 0.  1.
         24    2    1    2    0    0  0.00000000000E+00  0.00000000000E+00  0.70700936756E+02  0.10579157750E+03  0.78697111844E+02 0.  0.
         66    2    3    3    0    0 -0.24079621552E+02  0.19237453183E+02  0.68202392494E+02  0.74869713613E+02  0.19999738932E+01 0.  0.
        -13    1    3    3    0    0  0.24079621552E+02 -0.19237453183E+02  0.24985442626E+01  0.30921863891E+02  0.10566000000E+00 0.  1.
         13    1    4    4    0    0 -0.89917448266E+00  0.78988705410E+00  0.21615654304E+01  0.24730478066E+01  0.10566000000E+00 0. -1.
        -13    1    4    4    0    0 -0.11378090048E+02  0.82646532468E+01  0.30316291641E+02  0.33419367578E+02  0.10566000000E+00 0.  1.
        -14    1    4    4    0    0 -0.11802357020E+02  0.10182912882E+02  0.35724535422E+02  0.38977298228E+02  0.00000000000E+00 0.  1.
<mgrwt>
<rscale>  0 0.78697112E+02</rscale>
<asrwt>0</asrwt>
<pdfrwt beam="1">  1        2 0.13576347E-01 0.78697112E+02</pdfrwt>
<pdfrwt beam="2">  1       -1 0.26992801E-02 0.78697112E+02</pdfrwt>
<totfact> 0.17902333E+05</totfact>
</mgrwt>
</event>
<event>
 8    1  0.2676873E-020  0.8023528E+02  0.7818608E-02  0.1328385E+00
          2   -1    0    0  501    0  0.00000000000E+00  0.00000000000E+00  0.10301584284E+03  0.10301584287E+03  0.25500000000E-02 0. -1.
         -1   -1    0    0    0  501 -0.00000000000E+00 -0.00000000000E+00 -0.15623082924E+02  0.15623083737E+02  0.50400000000E-02 0.  1.
         24    2    1    2    0    0  0.00000000000E+00  0.00000000000E+00  0.87392759913E+02  0.11863892661E+03  0.80235281647E+02 0.  0.
         66    2    3    3    0    0 -0.20979273812E+02 -0.10044153758E+02  0.92009645760E+02  0.94925180522E+02  0.20000074461E+01 0.  0.
        -13    1    3    3    0    0  0.20979273812E+02  0.10044153758E+02 -0.46168858476E+01  0.23713746084E+02  0.10566000000E+00 0.  1.
         13    1    4    4    0    0 -0.61609192915E+01 -0.33550469561E+01  0.29119555656E+02  0.29952845478E+02  0.10566000000E+00 0. -1.
        -13    1    4    4    0    0 -0.34863144244E+01 -0.20287018032E+01  0.13964717925E+02  0.14535973653E+02  0.10566000000E+00 0.  1.
        -14    1    4    4    0    0 -0.11332040096E+02 -0.46604049983E+01  0.48925372179E+02  0.50436361391E+02  0.00000000000E+00 0.  1.
<mgrwt>
<rscale>  0 0.80235282E+02</rscale>
<asrwt>0</asrwt>
<pdfrwt beam="1">  1        2 0.15848591E-01 0.80235282E+02</pdfrwt>
<pdfrwt beam="2">  1       -1 0.24035513E-02 0.80235282E+02</pdfrwt>
<totfact> 0.17734722E+05</totfact>
</mgrwt>
</event>
<event>
 8    1  0.2676873E-020  0.7885723E+02  0.7818608E-02  0.1332326E+00
         -1   -1    0    0    0  501 -0.00000000000E+00  0.00000000000E+00  0.13089800167E+02  0.13089801138E+02  0.50400000000E-02 0.  1.
          2   -1    0    0  501    0  0.00000000000E+00 -0.00000000000E+00 -0.11876541463E+03  0.11876541465E+03  0.25500000000E-02 0. -1.
         24    2    1    2    0    0 -0.17763568394E-14  0.00000000000E+00 -0.10567561446E+03  0.13185521579E+03  0.78857228204E+02 0.  0.
         66    2    3    3    0    0 -0.14512714255E+02 -0.25105331409E+02 -0.97479273551E+02  0.10172072212E+03  0.19999993538E+01 0.  0.
        -13    1    3    3    0    0  0.14512714255E+02  0.25105331409E+02 -0.81963409075E+01  0.30134493666E+02  0.10566000000E+00 0.  1.
         13    1    4    4    0    0 -0.44086039699E+01 -0.75544382028E+01 -0.28160116561E+02  0.29487432142E+02  0.10566000000E+00 0.  1.
        -13    1    4    4    0    0 -0.58867972247E+01 -0.97418154490E+01 -0.36359010752E+02  0.38099162414E+02  0.10566000000E+00 0. -1.
        -14    1    4    4    0    0 -0.42173130608E+01 -0.78090777568E+01 -0.32960146238E+02  0.34134127569E+02  0.00000000000E+00 0.  1.
<mgrwt>
<rscale>  0 0.78857228E+02</rscale>
<asrwt>0</asrwt>
<pdfrwt beam="1">  1        2 0.18271601E-01 0.78857228E+02</pdfrwt>
<pdfrwt beam="2">  1       -1 0.20138156E-02 0.78857228E+02</pdfrwt>
<totfact> 0.19357200E+05</totfact>
</mgrwt>
</event>
<event>
 8    1  0.2676873E-020  0.8149450E+02  0.7818608E-02  0.1324863E+00
          2   -1    0    0  501    0  0.00000000000E+00  0.00000000000E+00  0.86113967287E+02  0.86113967324E+02  0.25500000000E-02 0. -1.
         -1   -1    0    0    0  501 -0.00000000000E+00 -0.00000000000E+00 -0.19280708060E+02  0.19280708718E+02  0.50400000000E-02 0.  1.
         24    2    1    2    0    0  0.00000000000E+00 -0.35527136788E-14  0.66833259227E+02  0.10539467604E+03  0.81494497969E+02 0.  0.
         66    2    3    3    0    0  0.26538540533E+02  0.23170262098E+02  0.59851732693E+02  0.69479386039E+02  0.19999996749E+01 0.  0.
        -13    1    3    3    0    0 -0.26538540533E+02 -0.23170262098E+02  0.69815265342E+01  0.35915290004E+02  0.10566000000E+00 0.  1.
         13    1    4    4    0    0  0.83910247945E+01  0.64960404400E+01  0.18708186076E+02  0.21508492016E+02  0.10566000000E+00 0. -1.
        -13    1    4    4    0    0  0.34839127847E+01  0.26871348727E+01  0.74242487062E+01  0.86306995663E+01  0.10566000000E+00 0. -1.
         14    1    4    4    0    0  0.14663602953E+02  0.13987086785E+02  0.33719297911E+02  0.39340194457E+02  0.00000000000E+00 0. -1.
<mgrwt>
<rscale>  0 0.81494498E+02</rscale>
<asrwt>0</asrwt>
<pdfrwt beam="1">  1        2 0.13248303E-01 0.81494498E+02</pdfrwt>
<pdfrwt beam="2">  1       -1 0.29662628E-02 0.81494498E+02</pdfrwt>
<totfact> 0.16191686E+05</totfact>
</mgrwt>
</event>
<event>
 8    1  0.2676873E-020  0.8130889E+02  0.7818608E-02  0.1325378E+00
         -1   -1    0    0    0  501 -0.00000000000E+00  0.00000000000E+00  0.81194947001E+02  0.81194947157E+02  0.50400000000E-02 0.  1.
          2   -1    0    0  501    0  0.00000000000E+00 -0.00000000000E+00 -0.20355746689E+02  0.20355746849E+02  0.25500000000E-02 0. -1.
         24    2    1    2    0    0  0.00000000000E+00  0.00000000000E+00  0.60839200312E+02  0.10155069401E+03  0.81308887328E+02 0.  0.
         66    2    3    3    0    0  0.31121356939E+02 -0.26112561152E+02  0.29674047712E+02  0.50348324839E+02  0.19999997065E+01 0.  0.
        -13    1    3    3    0    0 -0.31121356939E+02  0.26112561152E+02  0.31165152600E+02  0.51202369167E+02  0.10566000000E+00 0.  1.
         13    1    4    4    0    0  0.16390268149E+02 -0.14815693355E+02  0.15739759854E+02  0.27127419043E+02  0.10566000000E+00 0. -1.
        -13    1    4    4    0    0  0.10174141455E+02 -0.78300153383E+01  0.92666954137E+01  0.15833669899E+02  0.10566000000E+00 0.  1.
        -14    1    4    4    0    0  0.45569473349E+01 -0.34668524584E+01  0.46675924437E+01  0.73872358972E+01  0.00000000000E+00 0.  1.
<mgrwt>
<rscale>  0 0.81308887E+02</rscale>
<asrwt>0</asrwt>
<pdfrwt beam="1">  1        2 0.31316533E-02 0.81308887E+02</pdfrwt>
<pdfrwt beam="2">  1       -1 0.12491530E-01 0.81308887E+02</pdfrwt>
<totfact> 0.11892317E+05</totfact>
</mgrwt>
</event>
<event>
 8    1  0.2676873E-020  0.8046038E+02  0.7818608E-02  0.1327750E+00
          2   -1    0    0  501    0  0.00000000000E+00  0.00000000000E+00  0.32332075027E+03  0.32332075028E+03  0.25500000000E-02 0. -1.
         -1   -1    0    0    0  501 -0.00000000000E+00 -0.00000000000E+00 -0.50057658393E+01  0.50057683766E+01  0.50400000000E-02 0.  1.
         24    2    1    2    0    0  0.35527136788E-14  0.35527136788E-14  0.31831498443E+03  0.32832651866E+03  0.80460384911E+02 0.  0.
         66    2    3    3    0    0  0.24867574896E+02  0.19194240794E+02  0.26164916691E+03  0.26353576932E+03  0.20000007178E+01 0.  0.
        -13    1    3    3    0    0 -0.24867574896E+02 -0.19194240794E+02  0.56665817517E+02  0.64790749338E+02  0.10566000000E+00 0.  1.
         13    1    4    4    0    0  0.77688981913E+01  0.69376280015E+01  0.87647962179E+02  0.88264731912E+02  0.10566000000E+00 0. -1.
        -13    1    4    4    0    0  0.13950939982E+02  0.98011224624E+01  0.13808283506E+03  0.13913148900E+03  0.10566000000E+00 0.  1.
         14    1    4    4    0    0  0.31477367231E+01  0.24554903303E+01  0.35918369674E+02  0.36139548410E+02  0.00000000000E+00 0. -1.
<mgrwt>
<rscale>  0 0.80460385E+02</rscale>
<asrwt>0</asrwt>
<pdfrwt beam="1">  1        2 0.49741658E-01 0.80460385E+02</pdfrwt>
<pdfrwt beam="2">  1       -1 0.77011796E-03 0.80460385E+02</pdfrwt>
<totfact> 0.25802721E+05</totfact>
</mgrwt>
</event>
<event>
 8    1  0.2676873E-020  0.8047812E+02  0.7818608E-02  0.1327700E+00
          2   -1    0    0  501    0  0.00000000000E+00  0.00000000000E+00  0.43544496972E+02  0.43544497046E+02  0.25500000000E-02 0. -1.
         -1   -1    0    0    0  501 -0.00000000000E+00 -0.00000000000E+00 -0.37184536141E+02  0.37184536482E+02  0.50400000000E-02 0.  1.
         24    2    1    2    0    0  0.00000000000E+00  0.00000000000E+00  0.63599608309E+01  0.80729033529E+02  0.80478119714E+02 0.  0.
         66    2    3    3    0    0  0.31629658011E+02  0.19103297282E+02 -0.12735923507E+02  0.39135341753E+02  0.19999984063E+01 0.  0.
        -13    1    3    3    0    0 -0.31629658011E+02 -0.19103297282E+02  0.19095884338E+02  0.41593691776E+02  0.10566000000E+00 0.  1.
         13    1    4    4    0    0  0.30102346395E+02  0.18464482342E+02 -0.11946599712E+02  0.37280300098E+02  0.10566000000E+00 0. -1.
        -13    1    4    4    0    0  0.61241793984E+00  0.26156730053E+00 -0.44207272777E+00  0.80626640633E+00  0.10566000000E+00 0.  1.
         14    1    4    4    0    0  0.91489367541E+00  0.37724763953E+00 -0.34725106677E+00  0.10487752487E+01  0.00000000000E+00 0. -1.
<mgrwt>
<rscale>  0 0.80478120E+02</rscale>
<asrwt>0</asrwt>
<pdfrwt beam="1">  1        2 0.66991534E-02 0.80478120E+02</pdfrwt>
<pdfrwt beam="2">  1       -1 0.57206979E-02 0.80478120E+02</pdfrwt>
<totfact> 0.14272241E+05</totfact>
</mgrwt>
</event>
<event>
 8    1  0.2676873E-020  0.8394786E+02  0.7818608E-02  0.1318207E+00
         -1   -1    0    0    0  501 -0.00000000000E+00  0.00000000000E+00  0.32529863100E+02  0.32529863490E+02  0.50400000000E-02 0.  1.
          2   -1    0    0  501    0  0.00000000000E+00 -0.00000000000E+00 -0.54159793063E+02  0.54159793123E+02  0.25500000000E-02 0. -1.
         24    2    1    2    0    0  0.00000000000E+00  0.35527136788E-14 -0.21629929962E+02  0.86689656613E+02  0.83947856992E+02 0.  0.
         66    2    3    3    0    0  0.15332130763E+02  0.15838138650E+02  0.26036148061E+02  0.34173116097E+02  0.19999970602E+01 0.  0.
        -13    1    3    3    0    0 -0.15332130763E+02 -0.15838138650E+02 -0.47666078023E+02  0.52516540517E+02  0.10566000000E+00 0.  1.
         13    1    4    4    0    0  0.42429062843E+01  0.49620056929E+01  0.71116388585E+01  0.96545494728E+01  0.10566000000E+00 0. -1.
        -13    1    4    4    0    0  0.82056511542E+01  0.84521874986E+01  0.15080441727E+02  0.19136433082E+02  0.10566000000E+00 0.  1.
        -14    1    4    4    0    0  0.28835733249E+01  0.24239454589E+01  0.38440674755E+01  0.53821335420E+01  0.00000000000E+00 0.  1.
<mgrwt>
<rscale>  0 0.83947857E+02</rscale>
<asrwt>0</asrwt>
<pdfrwt beam="1">  1        2 0.83322759E-02 0.83947857E+02</pdfrwt>
<pdfrwt beam="2">  1       -1 0.50045944E-02 0.83947857E+02</pdfrwt>
<totfact> 0.13327819E+05</totfact>
</mgrwt>
</event>
<event>
 8    1  0.2676873E-020  0.8105552E+02  0.7818608E-02  0.1326082E+00
         -1   -1    0    0    0  501 -0.00000000000E+00  0.00000000000E+00  0.41600231718E+01  0.41600262249E+01  0.50400000000E-02 0.  1.
          2   -1    0    0  501    0  0.00000000000E+00 -0.00000000000E+00 -0.39482918640E+03  0.39482918641E+03  0.25500000000E-02 0. -1.
         24    2    1    2    0    0 -0.71054273576E-14 -0.35527136788E-14 -0.39066916323E+03  0.39898921263E+03  0.81055516162E+02 0.  0.
         66    2    3    3    0    0  0.32379362349E+02  0.24320395932E+02 -0.19167397872E+03  0.19591533596E+03  0.19999956641E+01 0.  0.
        -13    1    3    3    0    0 -0.32379362349E+02 -0.24320395932E+02 -0.19899518451E+03  0.20307387667E+03  0.10566000000E+00 0.  1.
         13    1    4    4    0    0  0.44327199190E+01  0.31394830386E+01 -0.26673680489E+02  0.27221347404E+02  0.10566000000E+00 0. -1.
        -13    1    4    4    0    0  0.26357143904E+02  0.19606171661E+02 -0.15580718560E+03  0.15923250689E+03  0.10566000000E+00 0.  1.
        -14    1    4    4    0    0  0.15894985260E+01  0.15747412326E+01 -0.91931126288E+01  0.94614816661E+01  0.00000000000E+00 0.  1.
<mgrwt>
<rscale>  0 0.81055516E+02</rscale>
<asrwt>0</asrwt>
<pdfrwt beam="1">  1        2 0.60742922E-01 0.81055516E+02</pdfrwt>
<pdfrwt beam="2">  1       -1 0.64000411E-03 0.81055516E+02</pdfrwt>
<totfact> 0.27177743E+05</totfact>
</mgrwt>
</event>
<event>
 8    1  0.2676873E-020  0.7955780E+02  0.7818608E-02  0.1330311E+00
         -1   -1    0    0    0  501 -0.00000000000E+00  0.00000000000E+00  0.36149711599E+01  0.36149746732E+01  0.50400000000E-02 0.  1.
          2   -1    0    0  501    0  0.00000000000E+00 -0.00000000000E+00 -0.43772415318E+03  0.43772415319E+03  0.25500000000E-02 0. -1.
         24    2    1    2    0    0  0.00000000000E+00  0.00000000000E+00 -0.43410918202E+03  0.44133912786E+03  0.79557802048E+02 0.  0.
         66    2    3    3    0    0  0.32579008226E+01 -0.18961724903E+02 -0.41017362186E+03  0.41062946923E+03  0.20000000985E+01 0.  0.
        -13    1    3    3    0    0 -0.32579008226E+01  0.18961724903E+02 -0.23935560162E+02  0.30709658633E+02  0.10566000000E+00 0.  1.
         13    1    4    4    0    0  0.17608314738E+01 -0.98169232996E+01 -0.20168191039E+03  0.20192839486E+03  0.10566000000E+00 0. -1.
        -13    1    4    4    0    0  0.72908803373E+00 -0.16894721521E+01 -0.37832286935E+02  0.37877156497E+02  0.10566000000E+00 0.  1.
        -14    1    4    4    0    0  0.76798131506E+00 -0.74553294518E+01 -0.17065942454E+03  0.17082391787E+03  0.00000000000E+00 0.  1.
<mgrwt>
<rscale>  0 0.79557802E+02</rscale>
<asrwt>0</asrwt>
<pdfrwt beam="1">  1        2 0.67342135E-01 0.79557802E+02</pdfrwt>
<pdfrwt beam="2">  1       -1 0.55615003E-03 0.79557802E+02</pdfrwt>
<totfact> 0.29569656E+05</totfact>
</mgrwt>
</event>
<event>
 8    1  0.2676873E-020  0.8047757E+02  0.7818608E-02  0.1327702E+00
         -1   -1    0    0    0  501 -0.00000000000E+00  0.00000000000E+00  0.41279609979E+01  0.41279640747E+01  0.50400000000E-02 0.  1.
          2   -1    0    0  501    0  0.00000000000E+00 -0.00000000000E+00 -0.39224192902E+03  0.39224192903E+03  0.25500000000E-02 0. -1.
         24    2    1    2    0    0  0.00000000000E+00  0.35527136788E-14 -0.38811396802E+03  0.39636989311E+03  0.80477574421E+02 0.  0.
         66    2    3    3    0    0 -0.91896159974E+01  0.17257120323E+02 -0.36725426831E+03  0.36777976404E+03  0.19999994517E+01 0.  0.
        -13    1    3    3    0    0  0.91896159974E+01 -0.17257120323E+02 -0.20859699714E+02  0.28590129070E+02  0.10566000000E+00 0.  1.
         13    1    4    4    0    0 -0.15305935589E+01  0.29558610681E+01 -0.54721901709E+02  0.54823147684E+02  0.10566000000E+00 0. -1.
        -13    1    4    4    0    0 -0.56469105311E+01  0.90658850106E+01 -0.20471516407E+03  0.20499362779E+03  0.10566000000E+00 0.  1.
         14    1    4    4    0    0 -0.20121119074E+01  0.52353742445E+01 -0.10781720253E+03  0.10796298856E+03  0.00000000000E+00 0. -1.
<mgrwt>
<rscale>  0 0.80477574E+02</rscale>
<asrwt>0</asrwt>
<pdfrwt beam="1">  1        2 0.60344883E-01 0.80477574E+02</pdfrwt>
<pdfrwt beam="2">  1       -1 0.63507147E-03 0.80477574E+02</pdfrwt>
<totfact> 0.27627228E+05</totfact>
</mgrwt>
</event>
<event>
 8    1  0.2676873E-020  0.8080279E+02  0.7818608E-02  0.1326789E+00
          2   -1    0    0  501    0  0.00000000000E+00  0.00000000000E+00  0.87120423253E+03  0.87120423254E+03  0.25500000000E-02 0. -1.
         -1   -1    0    0    0  501 -0.00000000000E+00 -0.00000000000E+00 -0.18735789206E+01  0.18735856995E+01  0.50400000000E-02 0.  1.
         24    2    1    2    0    0  0.35527136788E-14  0.00000000000E+00  0.86933065361E+03  0.87307781824E+03  0.80802793181E+02 0.  0.
         66    2    3    3    0    0  0.24445209841E+02  0.21115836618E+02  0.69667649442E+03  0.69742783477E+03  0.19999995234E+01 0.  0.
        -13    1    3    3    0    0 -0.24445209841E+02 -0.21115836618E+02  0.17265415919E+03  0.17564998346E+03  0.10566000000E+00 0.  1.
         13    1    4    4    0    0  0.63460678727E+01  0.56964113032E+01  0.19812712257E+03  0.19831058858E+03  0.10566000000E+00 0. -1.
        -13    1    4    4    0    0  0.17223463971E+02  0.14954292447E+02  0.47690028652E+03  0.47744546602E+03  0.10566000000E+00 0.  1.
         14    1    4    4    0    0  0.87567799697E+00  0.46513286804E+00  0.21649085325E+02  0.21671780175E+02  0.00000000000E+00 0. -1.
<mgrwt>
<rscale>  0 0.80802793E+02</rscale>
<asrwt>0</asrwt>
<pdfrwt beam="1">  1        2 0.13403123E+00 0.80802793E+02</pdfrwt>
<pdfrwt beam="2">  1       -1 0.28824384E-03 0.80802793E+02</pdfrwt>
<totfact> 0.33919685E+05</totfact>
</mgrwt>
</event>
<event>
 8    1  0.2676873E-020  0.7890668E+02  0.7818608E-02  0.1332183E+00
         -1   -1    0    0    0  501 -0.00000000000E+00  0.00000000000E+00  0.91815933445E+01  0.91815947278E+01  0.50400000000E-02 0.  1.
          2   -1    0    0  501    0  0.00000000000E+00 -0.00000000000E+00 -0.16953115187E+03  0.16953115189E+03  0.25500000000E-02 0. -1.
         24    2    1    2    0    0  0.00000000000E+00  0.35527136788E-14 -0.16034955853E+03  0.17871274662E+03  0.78906684661E+02 0.  0.
         66    2    3    3    0    0 -0.18385858124E+02 -0.26559479053E+02 -0.13142983647E+03  0.13535600326E+03  0.19999995653E+01 0.  0.
        -13    1    3    3    0    0  0.18385858124E+02  0.26559479053E+02 -0.28919722058E+02  0.43356743357E+02  0.10566000000E+00 0.  1.
         13    1    4    4    0    0 -0.23131506273E+01 -0.36750109237E+01 -0.16222404890E+02  0.16793866605E+02  0.10566000000E+00 0. -1.
        -13    1    4    4    0    0 -0.42838585089E+01 -0.62382771260E+01 -0.28507243876E+02  0.29494773481E+02  0.10566000000E+00 0.  1.
        -14    1    4    4    0    0 -0.11788848988E+02 -0.16646191004E+02 -0.86700187705E+02  0.89067363178E+02  0.00000000000E+00 0.  1.
<mgrwt>
<rscale>  0 0.78906685E+02</rscale>
<asrwt>0</asrwt>
<pdfrwt beam="1">  1        2 0.26081713E-01 0.78906685E+02</pdfrwt>
<pdfrwt beam="2">  1       -1 0.14125531E-02 0.78906685E+02</pdfrwt>
<totfact> 0.21623000E+05</totfact>
</mgrwt>
</event>
<event>
 8    1  0.2676873E-020  0.7844820E+02  0.7818608E-02  0.1333514E+00
          2   -1    0    0  501    0  0.00000000000E+00  0.00000000000E+00  0.27942060037E+03  0.27942060038E+03  0.25500000000E-02 0. -1.
         -1   -1    0    0    0  501 -0.00000000000E+00 -0.00000000000E+00 -0.55061429831E+01  0.55061452897E+01  0.50400000000E-02 0.  1.
         24    2    1    2    0    0  0.00000000000E+00  0.00000000000E+00  0.27391445739E+03  0.28492674567E+03  0.78448202231E+02 0.  0.
         66    2    3    3    0    0 -0.34178010000E+02  0.18443544454E+02  0.15634181407E+03  0.16110575262E+03  0.20000002662E+01 0.  0.
        -13    1    3    3    0    0  0.34178010000E+02 -0.18443544454E+02  0.11757264331E+03  0.12382099305E+03  0.10566000000E+00 0.  1.
         13    1    4    4    0    0 -0.92362449715E+01  0.46519288567E+01  0.42985367967E+02  0.44212008398E+02  0.10566000000E+00 0. -1.
        -13    1    4    4    0    0 -0.24262996678E+02  0.13638924948E+02  0.11009801503E+03  0.11356186578E+03  0.10566000000E+00 0.  1.
        -14    1    4    4    0    0 -0.67876835046E+00  0.15269064918E+00  0.32584310768E+01  0.33318784476E+01  0.00000000000E+00 0.  1.
<mgrwt>
<rscale>  0 0.78448202E+02</rscale>
<asrwt>0</asrwt>
<pdfrwt beam="1">  1        2 0.42987783E-01 0.78448202E+02</pdfrwt>
<pdfrwt beam="2">  1       -1 0.84709913E-03 0.78448202E+02</pdfrwt>
<totfact> 0.26155901E+05</totfact>
</mgrwt>
</event>
<event>
 8    1  0.2676873E-020  0.7890915E+02  0.7818608E-02  0.1332176E+00
          2   -1    0    0  501    0  0.00000000000E+00  0.00000000000E+00  0.13634764277E+03  0.13634764280E+03  0.25500000000E-02 0. -1.
         -1   -1    0    0    0  501 -0.00000000000E+00 -0.00000000000E+00 -0.11416870258E+02  0.11416871370E+02  0.50400000000E-02 0.  1.
         24    2    1    2    0    0 -0.35527136788E-14  0.00000000000E+00  0.12493077251E+03  0.14776451417E+03  0.78909148555E+02 0.  0.
         66    2    3    3    0    0 -0.21091953596E+02 -0.18766815367E+02  0.11404739811E+03  0.11750690574E+03  0.20000034938E+01 0.  0.
        -13    1    3    3    0    0  0.21091953596E+02  0.18766815367E+02  0.10883374403E+02  0.30257608431E+02  0.10566000000E+00 0.  1.
         13    1    4    4    0    0 -0.14084283589E+02 -0.12958786370E+02  0.74306791802E+02  0.76732051063E+02  0.10566000000E+00 0. -1.
        -13    1    4    4    0    0 -0.54629619595E+01 -0.41868150669E+01  0.29572871220E+02  0.30363452538E+02  0.10566000000E+00 0.  1.
        -14    1    4    4    0    0 -0.15447080474E+01 -0.16212139302E+01  0.10167735090E+02  0.10411402135E+02  0.00000000000E+00 0.  1.
<mgrwt>
<rscale>  0 0.78909149E+02</rscale>
<asrwt>0</asrwt>
<pdfrwt beam="1">  1        2 0.20976562E-01 0.78909149E+02</pdfrwt>
<pdfrwt beam="2">  1       -1 0.17564416E-02 0.78909149E+02</pdfrwt>
<totfact> 0.20153958E+05</totfact>
</mgrwt>
</event>
<event>
 8    1  0.2676873E-020  0.9004160E+02  0.7818608E-02  0.1302751E+00
         -1   -1    0    0    0  501 -0.00000000000E+00  0.00000000000E+00  0.10799266121E+02  0.10799267297E+02  0.50400000000E-02 0.  1.
          2   -1    0    0  501    0  0.00000000000E+00 -0.00000000000E+00 -0.18768610088E+03  0.18768610090E+03  0.25500000000E-02 0. -1.
         24    2    1    2    0    0  0.71054273576E-14 -0.35527136788E-14 -0.17688683476E+03  0.19848536820E+03  0.90041596365E+02 0.  0.
         66    2    3    3    0    0 -0.41808837990E+02  0.14254684403E+02 -0.10741019612E+03  0.11615560783E+03  0.20000093738E+01 0.  0.
        -13    1    3    3    0    0  0.41808837990E+02 -0.14254684403E+02 -0.69476638641E+02  0.82329760369E+02  0.10566000000E+00 0.  1.
         13    1    4    4    0    0 -0.29923127467E+02  0.99773466847E+01 -0.76008988640E+02  0.82294097737E+02  0.10566000000E+00 0. -1.
        -13    1    4    4    0    0 -0.10182811510E+02  0.32944915734E+01 -0.26756435150E+02  0.28817725639E+02  0.10566000000E+00 0.  1.
        -14    1    4    4    0    0 -0.17028990125E+01  0.98284614472E+00 -0.46447723299E+01  0.50437844510E+01  0.00000000000E+00 0.  1.
<mgrwt>
<rscale>  0 0.90041596E+02</rscale>
<asrwt>0</asrwt>
<pdfrwt beam="1">  1        2 0.28874782E-01 0.90041596E+02</pdfrwt>
<pdfrwt beam="2">  1       -1 0.16614258E-02 0.90041596E+02</pdfrwt>
<totfact> 0.15759392E+05</totfact>
</mgrwt>
</event>
<event>
 8    1  0.2676873E-020  0.7853688E+02  0.7818608E-02  0.1333256E+00
         -1   -1    0    0    0  501 -0.00000000000E+00  0.00000000000E+00  0.21704867155E+01  0.21704925671E+01  0.50400000000E-02 0.  1.
          2   -1    0    0  501    0  0.00000000000E+00 -0.00000000000E+00 -0.71044355788E+03  0.71044355789E+03  0.25500000000E-02 0. -1.
         24    2    1    2    0    0 -0.35527136788E-14 -0.22204460493E-15 -0.70827307117E+03  0.71261405045E+03  0.78536880281E+02 0.  0.
         66    2    3    3    0    0  0.27629375391E+02  0.16575204037E+01 -0.60678123870E+03  0.60741550969E+03  0.20000022699E+01 0.  0.
        -13    1    3    3    0    0 -0.27629375391E+02 -0.16575204037E+01 -0.10149183246E+03  0.10519854076E+03  0.10566000000E+00 0.  1.
         13    1    4    4    0    0  0.56921662332E+01  0.64530109153E+00 -0.11284694788E+03  0.11299230938E+03  0.10566000000E+00 0. -1.
        -13    1    4    4    0    0  0.35015703172E+01  0.16910145504E+00 -0.86926164860E+02  0.86996890124E+02  0.10566000000E+00 0.  1.
         14    1    4    4    0    0  0.18435638841E+02  0.84311785713E+00 -0.40700812596E+03  0.40742631018E+03  0.00000000000E+00 0. -1.
<mgrwt>
<rscale>  0 0.78536880E+02</rscale>
<asrwt>0</asrwt>
<pdfrwt beam="1">  1        2 0.10929882E+00 0.78536880E+02</pdfrwt>
<pdfrwt beam="2">  1       -1 0.33392205E-03 0.78536880E+02</pdfrwt>
<totfact> 0.35211910E+05</totfact>
</mgrwt>
</event>
<event>
 8    1  0.2676873E-020  0.7044708E+02  0.7818608E-02  0.1358579E+00
          2   -1    0    0  501    0  0.00000000000E+00  0.00000000000E+00  0.13008359535E+03  0.13008359537E+03  0.25500000000E-02 0. -1.
         -1   -1    0    0    0  501 -0.00000000000E+00 -0.00000000000E+00 -0.95376949967E+01  0.95376963283E+01  0.50400000000E-02 0.  1.
         24    2    1    2    0    0  0.17763568394E-14 -0.17763568394E-14  0.12054590035E+03  0.13962129170E+03  0.70447079463E+02 0.  0.
         66    2    3    3    0    0  0.84708483112E+01 -0.90548488849E+01  0.12560332699E+03  0.12622971645E+03  0.20000008883E+01 0.  0.
        -13    1    3    3    0    0 -0.84708483112E+01  0.90548488849E+01 -0.50574266427E+01  0.13391575252E+02  0.10566000000E+00 0.  1.
         13    1    4    4    0    0  0.40183368345E+00 -0.80203676993E+00  0.74537507593E+01  0.75082819411E+01  0.10566000000E+00 0. -1.
        -13    1    4    4    0    0  0.45010930416E+01 -0.43417973109E+01  0.71250282311E+02  0.71524296123E+02  0.10566000000E+00 0.  1.
         14    1    4    4    0    0  0.35679215861E+01 -0.39110148041E+01  0.46899293924E+02  0.47197138385E+02  0.00000000000E+00 0. -1.
<mgrwt>
<rscale>  0 0.70447079E+02</rscale>
<asrwt>0</asrwt>
<pdfrwt beam="1">  1        2 0.20012859E-01 0.70447079E+02</pdfrwt>
<pdfrwt beam="2">  1       -1 0.14673380E-02 0.70447079E+02</pdfrwt>
<totfact> 0.26790813E+05</totfact>
</mgrwt>
</event>
<event>
 8    1  0.2676873E-020  0.8236412E+02  0.7818608E-02  0.1322473E+00
         -1   -1    0    0    0  501 -0.00000000000E+00  0.00000000000E+00  0.87075550435E+01  0.87075565021E+01  0.50400000000E-02 0.  1.
          2   -1    0    0  501    0  0.00000000000E+00 -0.00000000000E+00 -0.19476902198E+03  0.19476902200E+03  0.25500000000E-02 0. -1.
         24    2    1    2    0    0  0.44408920985E-15  0.00000000000E+00 -0.18606146694E+03  0.20347657850E+03  0.82364121552E+02 0.  0.
         66    2    3    3    0    0 -0.22731720895E+01  0.35514958083E+02 -0.42007534949E+02  0.55091855417E+02  0.19999954526E+01 0.  0.
        -13    1    3    3    0    0  0.22731720895E+01 -0.35514958083E+02 -0.14405393199E+03  0.14838472308E+03  0.10566000000E+00 0.  1.
         13    1    4    4    0    0 -0.63208635823E+00  0.57995079848E+01 -0.77748082901E+01  0.97207321748E+01  0.10566000000E+00 0. -1.
        -13    1    4    4    0    0 -0.10167594770E+01  0.24585290003E+02 -0.28076461422E+02  0.37333217574E+02  0.10566000000E+00 0.  1.
        -14    1    4    4    0    0 -0.62432625427E+00  0.51301600950E+01 -0.61562652366E+01  0.80379056685E+01  0.00000000000E+00 0.  1.
<mgrwt>
<rscale>  0 0.82364122E+02</rscale>
<asrwt>0</asrwt>
<pdfrwt beam="1">  1        2 0.29964462E-01 0.82364122E+02</pdfrwt>
<pdfrwt beam="2">  1       -1 0.13396241E-02 0.82364122E+02</pdfrwt>
<totfact> 0.20237177E+05</totfact>
</mgrwt>
</event>
<event>
 8    1  0.2676873E-020  0.8100082E+02  0.7818608E-02  0.1326235E+00
         -1   -1    0    0    0  501 -0.00000000000E+00  0.00000000000E+00  0.38863608276E+01  0.38863640957E+01  0.50400000000E-02 0.  1.
          2   -1    0    0  501    0  0.00000000000E+00 -0.00000000000E+00 -0.42206135414E+03  0.42206135415E+03  0.25500000000E-02 0. -1.
         24    2    1    2    0    0  0.00000000000E+00  0.00000000000E+00 -0.41817499332E+03  0.42594771825E+03  0.81000824965E+02 0.  0.
         66    2    3    3    0    0 -0.35272427931E+02  0.11903349659E+02 -0.29276526180E+03  0.29512934863E+03  0.20000007992E+01 0.  0.
        -13    1    3    3    0    0  0.35272427931E+02 -0.11903349659E+02 -0.12540973152E+03  0.13081836962E+03  0.10566000000E+00 0.  1.
         13    1    4    4    0    0 -0.27310607357E+02  0.94368713653E+01 -0.22405050863E+03  0.22590609863E+03  0.10566000000E+00 0. -1.
        -13    1    4    4    0    0 -0.61679168831E+01  0.20989549872E+01 -0.51180537629E+02  0.51593676034E+02  0.10566000000E+00 0.  1.
        -14    1    4    4    0    0 -0.17939036904E+01  0.36752330658E+00 -0.17534215537E+02  0.17629573969E+02  0.00000000000E+00 0.  1.
<mgrwt>
<rscale>  0 0.81000825E+02</rscale>
<asrwt>0</asrwt>
<pdfrwt beam="1">  1        2 0.64932480E-01 0.81000825E+02</pdfrwt>
<pdfrwt beam="2">  1       -1 0.59790225E-03 0.81000825E+02</pdfrwt>
<totfact> 0.27864715E+05</totfact>
</mgrwt>
</event>
<event>
 8    1  0.2676873E-020  0.8056186E+02  0.7818608E-02  0.1327464E+00
         -1   -1    0    0    0  501 -0.00000000000E+00  0.00000000000E+00  0.57651155858E+00  0.57653358859E+00  0.50400000000E-02 0.  1.
          2   -1    0    0  501    0  0.00000000000E+00 -0.00000000000E+00 -0.28143796644E+04  0.28143796644E+04  0.25500000000E-02 0. -1.
         24    2    1    2    0    0  0.00000000000E+00  0.00000000000E+00 -0.28138031528E+04  0.28149561980E+04  0.80561862320E+02 0.  0.
         66    2    3    3    0    0  0.10913355164E+02 -0.17091533966E+01 -0.27603814799E+04  0.27604043069E+04  0.20000011942E+01 0.  0.
        -13    1    3    3    0    0 -0.10913355164E+02  0.17091533966E+01 -0.53421672893E+02  0.54551891122E+02  0.10566000000E+00 0.  1.
         13    1    4    4    0    0  0.31384808622E+01 -0.12325074522E+01 -0.83772068097E+03  0.83772747336E+03  0.10566000000E+00 0. -1.
        -13    1    4    4    0    0  0.34891606336E+01  0.27266595887E+00 -0.86332674664E+03  0.86333384691E+03  0.10566000000E+00 0.  1.
        -14    1    4    4    0    0  0.42857136686E+01 -0.74931190334E+00 -0.10593340523E+04  0.10593429866E+04  0.00000000000E+00 0.  1.
<mgrwt>
<rscale>  0 0.80561862E+02</rscale>
<asrwt>0</asrwt>
<pdfrwt beam="1">  1        2 0.43297049E+00 0.80561862E+02</pdfrwt>
<pdfrwt beam="2">  1       -1 0.88698034E-04 0.80561862E+02</pdfrwt>
<totfact> 0.16465391E+05</totfact>
</mgrwt>
</event>
<event>
 8    1  0.2676873E-020  0.7847625E+02  0.7818608E-02  0.1333432E+00
          2   -1    0    0  501    0  0.00000000000E+00  0.00000000000E+00  0.20524375849E+02  0.20524376008E+02  0.25500000000E-02 0. -1.
         -1   -1    0    0    0  501 -0.00000000000E+00 -0.00000000000E+00 -0.75014727617E+02  0.75014727786E+02  0.50400000000E-02 0.  1.
         24    2    1    2    0    0  0.00000000000E+00  0.00000000000E+00 -0.54490351768E+02  0.95539103794E+02  0.78476250662E+02 0.  0.
         66    2    3    3    0    0 -0.95544187690E+01 -0.35098820361E+02 -0.94362893962E+01  0.37633199010E+02  0.20000003538E+01 0.  0.
        -13    1    3    3    0    0  0.95544187690E+01  0.35098820361E+02 -0.45054062372E+02  0.57905904785E+02  0.10566000000E+00 0.  1.
         13    1    4    4    0    0 -0.53717231136E+01 -0.18435852404E+02 -0.52525179144E+01  0.19908193578E+02  0.10566000000E+00 0. -1.
        -13    1    4    4    0    0 -0.15307005398E+01 -0.58055777340E+01 -0.20600328326E+01  0.63484388849E+01  0.10566000000E+00 0.  1.
         14    1    4    4    0    0 -0.26519951156E+01 -0.10857390222E+02 -0.21237386491E+01  0.11376566546E+02  0.00000000000E+00 0. -1.
<mgrwt>
<rscale>  0 0.78476251E+02</rscale>
<asrwt>0</asrwt>
<pdfrwt beam="1">  1        2 0.31575963E-02 0.78476251E+02</pdfrwt>
<pdfrwt beam="2">  1       -1 0.11540727E-01 0.78476251E+02</pdfrwt>
<totfact> 0.13186836E+05</totfact>
</mgrwt>
</event>
<event>
 8    1  0.2676873E-020  0.8086432E+02  0.7818608E-02  0.1326616E+00
          2   -1    0    0  501    0  0.00000000000E+00  0.00000000000E+00  0.25235961341E+03  0.25235961342E+03  0.25500000000E-02 0. -1.
         -1   -1    0    0    0  501 -0.00000000000E+00 -0.00000000000E+00 -0.64778960642E+01  0.64778980248E+01  0.50400000000E-02 0.  1.
         24    2    1    2    0    0  0.00000000000E+00  0.00000000000E+00  0.24588171734E+03  0.25883751145E+03  0.80864320980E+02 0.  0.
         66    2    3    3    0    0 -0.78214391521E+01 -0.32358764383E+02  0.19632175019E+03  0.19913436203E+03  0.19999993003E+01 0.  0.
        -13    1    3    3    0    0  0.78214391521E+01  0.32358764383E+02  0.49559967150E+02  0.59703149421E+02  0.10566000000E+00 0.  1.
         13    1    4    4    0    0 -0.58333038948E+01 -0.25954905835E+02  0.15874301914E+03  0.16095664590E+03  0.10566000000E+00 0. -1.
        -13    1    4    4    0    0 -0.22380033319E+00 -0.15918508934E+01  0.89611989388E+01  0.91048518007E+01  0.10566000000E+00 0. -1.
        -14    1    4    4    0    0 -0.17643349241E+01 -0.48120076545E+01  0.28617532119E+02  0.29072864323E+02  0.00000000000E+00 0.  1.
<mgrwt>
<rscale>  0 0.80864321E+02</rscale>
<asrwt>0</asrwt>
<pdfrwt beam="1">  1        2 0.38824551E-01 0.80864321E+02</pdfrwt>
<pdfrwt beam="2">  1       -1 0.99659968E-03 0.80864321E+02</pdfrwt>
<totfact> 0.23281472E+05</totfact>
</mgrwt>
</event>
<event>
 8    1  0.2676873E-020  0.8163952E+02  0.7818608E-02  0.1324462E+00
          2   -1    0    0  501    0  0.00000000000E+00  0.00000000000E+00  0.44306479743E+02  0.44306479816E+02  0.25500000000E-02 0. -1.
         -1   -1    0    0    0  501 -0.00000000000E+00 -0.00000000000E+00 -0.37607428258E+02  0.37607428596E+02  0.50400000000E-02 0.  1.
         24    2    1    2    0    0 -0.35527136788E-14  0.71054273576E-14  0.66990514849E+01  0.81913908412E+02  0.81639519233E+02 0.  0.
         66    2    3    3    0    0  0.21151947544E+02 -0.34613949587E+02  0.76924343199E+01  0.41336471770E+02  0.19999904143E+01 0.  0.
        -13    1    3    3    0    0 -0.21151947544E+02  0.34613949587E+02 -0.99338283500E+00  0.40577436642E+02  0.10566000000E+00 0.  1.
         13    1    4    4    0    0  0.21563557165E+01 -0.34280276568E+01  0.25802856402E+00  0.40594317788E+01  0.10566000000E+00 0.  1.
        -13    1    4    4    0    0  0.92118490652E+01 -0.16027322878E+02  0.37207880512E+01  0.18857058880E+02  0.10566000000E+00 0.  1.
         14    1    4    4    0    0  0.97837427628E+01 -0.15158599053E+02  0.37136177047E+01  0.18419981111E+02  0.00000000000E+00 0. -1.
<mgrwt>
<rscale>  0 0.81639519E+02</rscale>
<asrwt>0</asrwt>
<pdfrwt beam="1">  1        2 0.68163815E-02 0.81639519E+02</pdfrwt>
<pdfrwt beam="2">  1       -1 0.57857582E-02 0.81639519E+02</pdfrwt>
<totfact> 0.13769515E+05</totfact>
</mgrwt>
</event>
<event>
 8    1  0.2676873E-020  0.7927779E+02  0.7818608E-02  0.1331114E+00
          2   -1    0    0  501    0  0.00000000000E+00  0.00000000000E+00  0.89838460436E+02  0.89838460473E+02  0.25500000000E-02 0. -1.
         -1   -1    0    0    0  501 -0.00000000000E+00 -0.00000000000E+00 -0.17489635637E+02  0.17489636363E+02  0.50400000000E-02 0.  1.
         24    2    1    2    0    0  0.71054273576E-14  0.00000000000E+00  0.72348824799E+02  0.10732809684E+03  0.79277789580E+02 0.  0.
         66    2    3    3    0    0  0.33303876400E+02  0.78076905317E+01  0.63244329575E+02  0.71930198423E+02  0.20000017847E+01 0.  0.
        -13    1    3    3    0    0 -0.33303876400E+02 -0.78076905317E+01  0.91044952245E+01  0.35397898413E+02  0.10566000000E+00 0.  1.
         13    1    4    4    0    0  0.92158610898E+00 -0.15732090502E-01  0.14346384505E+01  0.17084847012E+01  0.10566000000E+00 0.  1.
        -13    1    4    4    0    0  0.43865435176E+01  0.13186529437E+01  0.81647443875E+01  0.93624155305E+01  0.10566000000E+00 0. -1.
         14    1    4    4    0    0  0.27995746774E+02  0.65047696785E+01  0.53644946737E+02  0.60859298191E+02  0.00000000000E+00 0. -1.
<mgrwt>
<rscale>  0 0.79277790E+02</rscale>
<asrwt>0</asrwt>
<pdfrwt beam="1">  1        2 0.13821302E-01 0.79277790E+02</pdfrwt>
<pdfrwt beam="2">  1       -1 0.26907132E-02 0.79277790E+02</pdfrwt>
<totfact> 0.17636655E+05</totfact>
</mgrwt>
</event>
<event>
 8    1  0.2676873E-020  0.7674633E+02  0.7818608E-02  0.1338547E+00
          2   -1    0    0  501    0  0.00000000000E+00  0.00000000000E+00  0.35176988959E+03  0.35176988960E+03  0.25500000000E-02 0. -1.
         -1   -1    0    0    0  501 -0.00000000000E+00 -0.00000000000E+00 -0.41859725507E+01  0.41859755848E+01  0.50400000000E-02 0.  1.
         24    2    1    2    0    0  0.00000000000E+00  0.00000000000E+00  0.34758391704E+03  0.35595586518E+03  0.76746326131E+02 0.  0.
         66    2    3    3    0    0  0.45514783270E+01  0.37389644485E+02  0.20728879870E+03  0.21069254268E+03  0.20000016818E+01 0.  0.
        -13    1    3    3    0    0 -0.45514783270E+01 -0.37389644485E+02  0.14029511834E+03  0.14526332250E+03  0.10566000000E+00 0.  1.
         13    1    4    4    0    0  0.18570049858E+01  0.15940979823E+02  0.86809850234E+02  0.88280941131E+02  0.10566000000E+00 0. -1.
        -13    1    4    4    0    0  0.50433738478E-01  0.27558560025E+01  0.17592195338E+02  0.17807127413E+02  0.10566000000E+00 0.  1.
         14    1    4    4    0    0  0.26440396027E+01  0.18692808660E+02  0.10288675313E+03  0.10460447414E+03  0.00000000000E+00 0. -1.
<mgrwt>
<rscale>  0 0.76746326E+02</rscale>
<asrwt>0</asrwt>
<pdfrwt beam="1">  1        2 0.54118463E-01 0.76746326E+02</pdfrwt>
<pdfrwt beam="2">  1       -1 0.64399580E-03 0.76746326E+02</pdfrwt>
<totfact> 0.30089512E+05</totfact>
</mgrwt>
</event>
<event>
 8    1  0.2676873E-020  0.7964111E+02  0.7818608E-02  0.1330073E+00
         -1   -1    0    0    0  501 -0.00000000000E+00  0.00000000000E+00  0.88457690156E+02  0.88457690300E+02  0.50400000000E-02 0.  1.
          2   -1    0    0  501    0  0.00000000000E+00 -0.00000000000E+00 -0.17925817801E+02  0.17925817983E+02  0.25500000000E-02 0. -1.
         24    2    1    2    0    0  0.00000000000E+00  0.00000000000E+00  0.70531872355E+02  0.10638350828E+03  0.79641106325E+02 0.  0.
         66    2    3    3    0    0  0.33300933228E+02  0.20440328144E+02  0.25210906804E+02  0.46544054316E+02  0.20000004605E+01 0.  0.
        -13    1    3    3    0    0 -0.33300933228E+02 -0.20440328144E+02  0.45320965551E+02  0.59839453967E+02  0.10566000000E+00 0.  1.
         13    1    4    4    0    0  0.43445264317E+01  0.23765347550E+01  0.37339161435E+01  0.62029123128E+01  0.10566000000E+00 0. -1.
        -13    1    4    4    0    0  0.26321240625E+02  0.16499991309E+02  0.19924931370E+02  0.36906252524E+02  0.10566000000E+00 0.  1.
        -14    1    4    4    0    0  0.26351661716E+01  0.15638020796E+01  0.15520592904E+01  0.34348894796E+01  0.00000000000E+00 0.  1.
<mgrwt>
<rscale>  0 0.79641106E+02</rscale>
<asrwt>0</asrwt>
<pdfrwt beam="1">  1        2 0.27578181E-02 0.79641106E+02</pdfrwt>
<pdfrwt beam="2">  1       -1 0.13608876E-01 0.79641106E+02</pdfrwt>
<totfact> 0.12299383E+05</totfact>
</mgrwt>
</event>
<event>
 8    1  0.2676873E-020  0.7729394E+02  0.7818608E-02  0.1336911E+00
          2   -1    0    0  501    0  0.00000000000E+00  0.00000000000E+00  0.14030003336E+03  0.14030003338E+03  0.25500000000E-02 0. -1.
         -1   -1    0    0    0  501 -0.00000000000E+00 -0.00000000000E+00 -0.10645672109E+02  0.10645673302E+02  0.50400000000E-02 0.  1.
         24    2    1    2    0    0 -0.71054273576E-14  0.00000000000E+00  0.12965436125E+03  0.15094570668E+03  0.77293938800E+02 0.  0.
         66    2    3    3    0    0  0.37888152176E+02 -0.67177304031E+01  0.71330730156E+02  0.81072270493E+02  0.20000003210E+01 0.  0.
        -13    1    3    3    0    0 -0.37888152176E+02  0.67177304031E+01  0.58323631092E+02  0.69873436189E+02  0.10566000000E+00 0.  1.
         13    1    4    4    0    0  0.55095007453E+01 -0.97501147440E+00  0.11774886566E+02  0.13037038142E+02  0.10566000000E+00 0. -1.
        -13    1    4    4    0    0  0.18961137261E+02 -0.34010833021E+01  0.35616263827E+02  0.40492240082E+02  0.10566000000E+00 0. -1.
        -14    1    4    4    0    0  0.13417514170E+02 -0.23416356266E+01  0.23939579763E+02  0.27542992269E+02  0.00000000000E+00 0.  1.
<mgrwt>
<rscale>  0 0.77293939E+02</rscale>
<asrwt>0</asrwt>
<pdfrwt beam="1">  1        2 0.21584620E-01 0.77293939E+02</pdfrwt>
<pdfrwt beam="2">  1       -1 0.16377958E-02 0.77293939E+02</pdfrwt>
<totfact> 0.21481039E+05</totfact>
</mgrwt>
</event>
<event>
 8    1  0.2676873E-020  0.7980752E+02  0.7818608E-02  0.1329599E+00
          2   -1    0    0  501    0  0.00000000000E+00  0.00000000000E+00  0.22834068594E+03  0.22834068595E+03  0.25500000000E-02 0. -1.
         -1   -1    0    0    0  501 -0.00000000000E+00 -0.00000000000E+00 -0.69733948776E+01  0.69733966989E+01  0.50400000000E-02 0.  1.
         24    2    1    2    0    0  0.00000000000E+00  0.00000000000E+00  0.22136729106E+03  0.23531408265E+03  0.79807518082E+02 0.  0.
         66    2    3    3    0    0 -0.13290170772E+02 -0.34980019270E+02  0.70102433643E+02  0.79489506153E+02  0.19999996330E+01 0.  0.
        -13    1    3    3    0    0  0.13290170772E+02  0.34980019270E+02  0.15126485742E+03  0.15582457650E+03  0.10566000000E+00 0.  1.
         13    1    4    4    0    0 -0.79174170454E+01 -0.21145789774E+02  0.41853576887E+02  0.47555893222E+02  0.10566000000E+00 0. -1.
        -13    1    4    4    0    0 -0.21760776987E+01 -0.64909764375E+01  0.11921598899E+02  0.13747864329E+02  0.10566000000E+00 0.  1.
         14    1    4    4    0    0 -0.31966760282E+01 -0.73432530582E+01  0.16327257857E+02  0.18185748602E+02  0.00000000000E+00 0. -1.
<mgrwt>
<rscale>  0 0.79807518E+02</rscale>
<asrwt>0</asrwt>
<pdfrwt beam="1">  1        2 0.35129336E-01 0.79807518E+02</pdfrwt>
<pdfrwt beam="2">  1       -1 0.10728301E-02 0.79807518E+02</pdfrwt>
<totfact> 0.23256484E+05</totfact>
</mgrwt>
</event>
<event>
 8    1  0.2676873E-020  0.7929254E+02  0.7818608E-02  0.1331071E+00
         -1   -1    0    0    0  501 -0.00000000000E+00  0.00000000000E+00  0.96150977197E+02  0.96150977329E+02  0.50400000000E-02 0.  1.
          2   -1    0    0  501    0  0.00000000000E+00 -0.00000000000E+00 -0.16347485071E+02  0.16347485270E+02  0.25500000000E-02 0. -1.
         24    2    1    2    0    0  0.00000000000E+00  0.00000000000E+00  0.79803492126E+02  0.11249846260E+03  0.79292538941E+02 0.  0.
         66    2    3    3    0    0 -0.19991371851E+02  0.69508828264E+01 -0.75935538461E+01  0.22575025559E+02  0.19999996012E+01 0.  0.
        -13    1    3    3    0    0  0.19991371851E+02 -0.69508828264E+01  0.87397045972E+02  0.89923437040E+02  0.10566000000E+00 0.  1.
         13    1    4    4    0    0 -0.76680022930E+01  0.27132468346E+01 -0.36284940248E+01  0.89071376140E+01  0.10566000000E+00 0. -1.
        -13    1    4    4    0    0 -0.25919760584E+00  0.15659281557E+00 -0.23350734328E+00  0.39672966076E+00  0.10566000000E+00 0.  1.
         14    1    4    4    0    0 -0.12064171952E+02  0.40810431762E+01 -0.37315524779E+01  0.13271158284E+02  0.00000000000E+00 0. -1.
<mgrwt>
<rscale>  0 0.79292539E+02</rscale>
<asrwt>0</asrwt>
<pdfrwt beam="1">  1        2 0.25149977E-02 0.79292539E+02</pdfrwt>
<pdfrwt beam="2">  1       -1 0.14792458E-01 0.79292539E+02</pdfrwt>
<totfact> 0.12219660E+05</totfact>
</mgrwt>
</event>
<event>
 8    1  0.2676873E-020  0.8039799E+02  0.7818608E-02  0.1327926E+00
          2   -1    0    0  501    0  0.00000000000E+00  0.00000000000E+00  0.66099840466E+02  0.66099840515E+02  0.25500000000E-02 0. -1.
         -1   -1    0    0    0  501 -0.00000000000E+00 -0.00000000000E+00 -0.24447246222E+02  0.24447246741E+02  0.50400000000E-02 0.  1.
         24    2    1    2    0    0  0.00000000000E+00  0.35527136788E-14  0.41652594245E+02  0.90547087257E+02  0.80397987558E+02 0.  0.
         66    2    3    3    0    0  0.24792227924E+02  0.17909081379E+02 -0.84984679079E+01  0.31805875486E+02  0.19999993397E+01 0.  0.
        -13    1    3    3    0    0 -0.24792227924E+02 -0.17909081379E+02  0.50151062152E+02  0.58741211771E+02  0.10566000000E+00 0.  1.
         13    1    4    4    0    0  0.40176981978E+01  0.27953076723E+01 -0.20617433960E+01  0.53120234994E+01  0.10566000000E+00 0. -1.
        -13    1    4    4    0    0  0.13992577500E+02  0.10571896874E+02 -0.44272799156E+01  0.18087819108E+02  0.10566000000E+00 0.  1.
         14    1    4    4    0    0  0.67819522262E+01  0.45418768327E+01 -0.20094445963E+01  0.84060328781E+01  0.00000000000E+00 0. -1.
<mgrwt>
<rscale>  0 0.80397988E+02</rscale>
<asrwt>0</asrwt>
<pdfrwt beam="1">  1        2 0.10169206E-01 0.80397988E+02</pdfrwt>
<pdfrwt beam="2">  1       -1 0.37611149E-02 0.80397988E+02</pdfrwt>
<totfact> 0.15711439E+05</totfact>
</mgrwt>
</event>
<event>
 8    1  0.2676873E-020  0.7714904E+02  0.7818608E-02  0.1337342E+00
         -1   -1    0    0    0  501 -0.00000000000E+00  0.00000000000E+00  0.24523655828E+02  0.24523656346E+02  0.50400000000E-02 0.  1.
          2   -1    0    0  501    0  0.00000000000E+00 -0.00000000000E+00 -0.60675852404E+02  0.60675852458E+02  0.25500000000E-02 0. -1.
         24    2    1    2    0    0  0.00000000000E+00 -0.35527136788E-14 -0.36152196576E+02  0.85199508804E+02  0.77149043955E+02 0.  0.
         66    2    3    3    0    0  0.12377271185E+02 -0.28800136050E+02 -0.42864661160E+02  0.53141545312E+02  0.19999958105E+01 0.  0.
        -13    1    3    3    0    0 -0.12377271185E+02  0.28800136050E+02  0.67124645843E+01  0.32057963492E+02  0.10566000000E+00 0.  1.
         13    1    4    4    0    0  0.74033817883E+01 -0.18971841916E+02 -0.27279974364E+02  0.34043340214E+02  0.10566000000E+00 0. -1.
        -13    1    4    4    0    0  0.45926308231E+01 -0.87383064716E+01 -0.14212126470E+02  0.17304506948E+02  0.10566000000E+00 0.  1.
         14    1    4    4    0    0  0.38125857304E+00 -0.10899876617E+01 -0.13725603270E+01  0.17936981500E+01  0.00000000000E+00 0. -1.
<mgrwt>
<rscale>  0 0.77149044E+02</rscale>
<asrwt>0</asrwt>
<pdfrwt beam="1">  1        2 0.93347465E-02 0.77149044E+02</pdfrwt>
<pdfrwt beam="2">  1       -1 0.37728702E-02 0.77149044E+02</pdfrwt>
<totfact> 0.17221207E+05</totfact>
</mgrwt>
</event>
<event>
 8    1  0.2676873E-020  0.7851427E+02  0.7818608E-02  0.1333321E+00
          2   -1    0    0  501    0  0.00000000000E+00  0.00000000000E+00  0.60796419915E+01  0.60796425263E+01  0.25500000000E-02 0. -1.
         -1   -1    0    0    0  501 -0.00000000000E+00 -0.00000000000E+00 -0.25348902599E+03  0.25348902604E+03  0.50400000000E-02 0.  1.
         24    2    1    2    0    0 -0.44408920985E-15  0.71054273576E-14 -0.24740938400E+03  0.25956866857E+03  0.78514268836E+02 0.  0.
         66    2    3    3    0    0  0.31770716300E+01 -0.38006083101E+02 -0.93383580711E+02  0.10089127453E+03  0.19999981127E+01 0.  0.
        -13    1    3    3    0    0 -0.31770716300E+01  0.38006083101E+02 -0.15402580329E+03  0.15867739404E+03  0.10566000000E+00 0.  1.
         13    1    4    4    0    0  0.11929065608E+01 -0.18562840782E+02 -0.46061394102E+02  0.49675600395E+02  0.10566000000E+00 0. -1.
        -13    1    4    4    0    0  0.13259736747E+01 -0.16861533870E+02 -0.41397103457E+02  0.44719133145E+02  0.10566000000E+00 0.  1.
        -14    1    4    4    0    0  0.65819139447E+00 -0.25817084485E+01 -0.59250831522E+01  0.64965409862E+01  0.00000000000E+00 0.  1.
<mgrwt>
<rscale>  0 0.78514269E+02</rscale>
<asrwt>0</asrwt>
<pdfrwt beam="1">  1        2 0.93532977E-03 0.78514269E+02</pdfrwt>
<pdfrwt beam="2">  1       -1 0.38998304E-01 0.78514269E+02</pdfrwt>
<totfact> 0.96676850E+04</totfact>
</mgrwt>
</event>
<event>
 8    1  0.2676873E-020  0.7833551E+02  0.7818608E-02  0.1333842E+00
         -1   -1    0    0    0  501 -0.00000000000E+00  0.00000000000E+00  0.71617117748E+02  0.71617117925E+02  0.50400000000E-02 0.  1.
          2   -1    0    0  501    0  0.00000000000E+00 -0.00000000000E+00 -0.21421040282E+02  0.21421040434E+02  0.25500000000E-02 0. -1.
         24    2    1    2    0    0  0.00000000000E+00 -0.17763568394E-14  0.50196077466E+02  0.93038158359E+02  0.78335513771E+02 0.  0.
         66    2    3    3    0    0  0.29269646629E+02 -0.13124383852E+02 -0.15265948091E+01  0.32175956159E+02  0.19999994349E+01 0.  0.
        -13    1    3    3    0    0 -0.29269646629E+02  0.13124383852E+02  0.51722672275E+02  0.60862202200E+02  0.10566000000E+00 0.  1.
         13    1    4    4    0    0  0.15766962536E+02 -0.74956550836E+01 -0.12869390716E+01  0.17505694187E+02  0.10566000000E+00 0. -1.
        -13    1    4    4    0    0  0.83058325823E+00 -0.17342755791E+00 -0.17939110082E+00  0.87366519294E+00  0.10566000000E+00 0.  1.
        -14    1    4    4    0    0  0.12672100835E+02 -0.54553012104E+01 -0.60264636665E-01  0.13796596779E+02  0.00000000000E+00 0.  1.
<mgrwt>
<rscale>  0 0.78335514E+02</rscale>
<asrwt>0</asrwt>
<pdfrwt beam="1">  1        2 0.32955447E-02 0.78335514E+02</pdfrwt>
<pdfrwt beam="2">  1       -1 0.11018018E-01 0.78335514E+02</pdfrwt>
<totfact> 0.13366618E+05</totfact>
</mgrwt>
</event>
<event>
 8    1  0.2676873E-020  0.8315145E+02  0.7818608E-02  0.1320339E+00
          2   -1    0    0  501    0  0.00000000000E+00  0.00000000000E+00  0.25988493429E+03  0.25988493430E+03  0.25500000000E-02 0. -1.
         -1   -1    0    0    0  501 -0.00000000000E+00 -0.00000000000E+00 -0.66511774400E+01  0.66511793495E+01  0.50400000000E-02 0.  1.
         24    2    1    2    0    0  0.00000000000E+00  0.00000000000E+00  0.25323375685E+03  0.26653611365E+03  0.83151453819E+02 0.  0.
         66    2    3    3    0    0 -0.85167560705E+01  0.19422867110E+02  0.24122531101E+03  0.24216406334E+03  0.20000001114E+01 0.  0.
        -13    1    3    3    0    0  0.85167560705E+01 -0.19422867110E+02  0.12008445832E+02  0.24372050305E+02  0.10566000000E+00 0.  1.
         13    1    4    4    0    0 -0.66336090715E+01  0.14997154901E+02  0.17830725617E+03  0.17905978943E+03  0.10566000000E+00 0. -1.
        -13    1    4    4    0    0 -0.17144901621E+00  0.90518753644E+00  0.11280650354E+02  0.11318701149E+02  0.10566000000E+00 0.  1.
         14    1    4    4    0    0 -0.17116979828E+01  0.35205246721E+01  0.51637404491E+02  0.51785572765E+02  0.00000000000E+00 0. -1.
<mgrwt>
<rscale>  0 0.83151454E+02</rscale>
<asrwt>0</asrwt>
<pdfrwt beam="1">  1        2 0.39982301E-01 0.83151454E+02</pdfrwt>
<pdfrwt beam="2">  1       -1 0.10232581E-02 0.83151454E+02</pdfrwt>
<totfact> 0.21862652E+05</totfact>
</mgrwt>
</event>
<event>
 8    1  0.2676873E-020  0.7911159E+02  0.7818608E-02  0.1331592E+00
          2   -1    0    0  501    0  0.00000000000E+00  0.00000000000E+00  0.31148623162E+02  0.31148623266E+02  0.25500000000E-02 0. -1.
         -1   -1    0    0    0  501 -0.00000000000E+00 -0.00000000000E+00 -0.50232105907E+02  0.50232106160E+02  0.50400000000E-02 0.  1.
         24    2    1    2    0    0  0.35527136788E-14  0.00000000000E+00 -0.19083482745E+02  0.81380729426E+02  0.79111590859E+02 0.  0.
         66    2    3    3    0    0  0.31790529561E+02 -0.17345457575E+02  0.67545546175E+01  0.36893450267E+02  0.19999990663E+01 0.  0.
        -13    1    3    3    0    0 -0.31790529561E+02  0.17345457575E+02 -0.25838037363E+02  0.44487279159E+02  0.10566000000E+00 0.  1.
         13    1    4    4    0    0  0.13898859134E+02 -0.70492778359E+01  0.20692576668E+01  0.15721437420E+02  0.10566000000E+00 0. -1.
        -13    1    4    4    0    0  0.11808017848E+02 -0.65814903268E+01  0.30187386095E+01  0.13851687524E+02  0.10566000000E+00 0.  1.
        -14    1    4    4    0    0  0.60836525783E+01 -0.37146894118E+01  0.16665583413E+01  0.73203253224E+01  0.00000000000E+00 0.  1.
<mgrwt>
<rscale>  0 0.79111591E+02</rscale>
<asrwt>0</asrwt>
<pdfrwt beam="1">  1        2 0.47920959E-02 0.79111591E+02</pdfrwt>
<pdfrwt beam="2">  1       -1 0.77280163E-02 0.79111591E+02</pdfrwt>
<totfact> 0.13985267E+05</totfact>
</mgrwt>
</event>
<event>
 8    1  0.2676873E-020  0.7894500E+02  0.7818608E-02  0.1332072E+00
          2   -1    0    0  501    0  0.00000000000E+00  0.00000000000E+00  0.10298302838E+02  0.10298303154E+02  0.25500000000E-02 0. -1.
         -1   -1    0    0    0  501 -0.00000000000E+00 -0.00000000000E+00 -0.15129465927E+03  0.15129465935E+03  0.50400000000E-02 0.  1.
         24    2    1    2    0    0  0.00000000000E+00  0.00000000000E+00 -0.14099635643E+03  0.16159296251E+03  0.78944999874E+02 0.  0.
         66    2    3    3    0    0 -0.23511511714E+02  0.96294955875E+01 -0.87770973583E+01  0.26954698993E+02  0.19999978629E+01 0.  0.
        -13    1    3    3    0    0  0.23511511714E+02 -0.96294955875E+01 -0.13221925907E+03  0.13463826351E+03  0.10566000000E+00 0.  1.
         13    1    4    4    0    0 -0.19035876324E+02  0.78469735322E+01 -0.71850842318E+01  0.21807709199E+02  0.10566000000E+00 0. -1.
        -13    1    4    4    0    0 -0.36422051347E+01  0.14944137943E+01 -0.16348354957E+01  0.42641273393E+01  0.10566000000E+00 0.  1.
        -14    1    4    4    0    0 -0.83343025464E+00  0.28810826107E+00  0.42822369229E-01  0.88286245517E+00  0.00000000000E+00 0.  1.
<mgrwt>
<rscale>  0 0.78945000E+02</rscale>
<asrwt>0</asrwt>
<pdfrwt beam="1">  1        2 0.15843544E-02 0.78945000E+02</pdfrwt>
<pdfrwt beam="2">  1       -1 0.23276100E-01 0.78945000E+02</pdfrwt>
<totfact> 0.11130909E+05</totfact>
</mgrwt>
</event>
<event>
 8    1  0.2676873E-020  0.8867834E+02  0.7818608E-02  0.1306084E+00
          2   -1    0    0  501    0  0.00000000000E+00  0.00000000000E+00  0.32142574630E+02  0.32142574731E+02  0.25500000000E-02 0. -1.
         -1   -1    0    0    0  501 -0.00000000000E+00 -0.00000000000E+00 -0.61163801558E+02  0.61163801765E+02  0.50400000000E-02 0.  1.
         24    2    1    2    0    0  0.00000000000E+00  0.35527136788E-14 -0.29021226928E+02  0.93306376496E+02  0.88678341676E+02 0.  0.
         66    2    3    3    0    0 -0.84776307142E+01  0.18731601583E+02  0.26789174717E+02  0.33829026049E+02  0.20000002405E+01 0.  0.
        -13    1    3    3    0    0  0.84776307142E+01 -0.18731601583E+02 -0.55810401646E+02  0.59477350448E+02  0.10566000000E+00 0.  1.
         13    1    4    4    0    0 -0.26741949919E+01  0.49839828224E+01  0.73134289104E+01  0.92460159037E+01  0.10566000000E+00 0.  1.
        -13    1    4    4    0    0 -0.49093512310E+00  0.21078072350E+01  0.22312705366E+01  0.31102412894E+01  0.10566000000E+00 0. -1.
         14    1    4    4    0    0 -0.53125005992E+01  0.11639811526E+02  0.17244475270E+02  0.21472768856E+02  0.00000000000E+00 0. -1.
<mgrwt>
<rscale>  0 0.88678342E+02</rscale>
<asrwt>0</asrwt>
<pdfrwt beam="1">  1        2 0.49450115E-02 0.88678342E+02</pdfrwt>
<pdfrwt beam="2">  1       -1 0.94098157E-02 0.88678342E+02</pdfrwt>
<totfact> 0.10204502E+05</totfact>
</mgrwt>
</event>
<event>
 8    1  0.2676873E-020  0.7729195E+02  0.7818608E-02  0.1336917E+00
         -1   -1    0    0    0  501 -0.00000000000E+00  0.00000000000E+00  0.50427800998E+02  0.50427801250E+02  0.50400000000E-02 0.  1.
          2   -1    0    0  501    0  0.00000000000E+00 -0.00000000000E+00 -0.29616822516E+02  0.29616822626E+02  0.25500000000E-02 0. -1.
         24    2    1    2    0    0  0.48572257327E-16  0.00000000000E+00  0.20810978482E+02  0.80044623876E+02  0.77291946450E+02 0.  0.
         66    2    3    3    0    0 -0.11540244597E-01  0.19578112260E+02 -0.24062836925E+02  0.31085732078E+02  0.20000012774E+01 0.  0.
        -13    1    3    3    0    0  0.11540244597E-01 -0.19578112260E+02  0.44873815407E+02  0.48958891798E+02  0.10566000000E+00 0.  1.
         13    1    4    4    0    0 -0.39726189945E+00  0.10904365177E+02 -0.13027918916E+02  0.16994141115E+02  0.10566000000E+00 0. -1.
        -13    1    4    4    0    0  0.59076356220E+00  0.31496577765E+01 -0.35033685712E+01  0.47491158206E+01  0.10566000000E+00 0.  1.
        -14    1    4    4    0    0 -0.20504190734E+00  0.55240893068E+01 -0.75315494374E+01  0.93424751421E+01  0.00000000000E+00 0.  1.
<mgrwt>
<rscale>  0 0.77291946E+02</rscale>
<asrwt>0</asrwt>
<pdfrwt beam="1">  1        2 0.45564343E-02 0.77291946E+02</pdfrwt>
<pdfrwt beam="2">  1       -1 0.77581232E-02 0.77291946E+02</pdfrwt>
<totfact> 0.14777923E+05</totfact>
</mgrwt>
</event>
<event>
 8    1  0.2676873E-020  0.7916286E+02  0.7818608E-02  0.1331444E+00
         -1   -1    0    0    0  501 -0.00000000000E+00  0.00000000000E+00  0.53126887588E+01  0.53126911495E+01  0.50400000000E-02 0.  1.
          2   -1    0    0  501    0  0.00000000000E+00 -0.00000000000E+00 -0.29489571780E+03  0.29489571781E+03  0.25500000000E-02 0. -1.
         24    2    1    2    0    0 -0.35527136788E-14  0.00000000000E+00 -0.28958302904E+03  0.30020840896E+03  0.79162858096E+02 0.  0.
         66    2    3    3    0    0 -0.25346610972E+02 -0.40038809049E+01 -0.25904371051E+03  0.26031927647E+03  0.19999999987E+01 0.  0.
        -13    1    3    3    0    0  0.25346610972E+02  0.40038809049E+01 -0.30539318535E+02  0.39889132489E+02  0.10566000000E+00 0.  1.
         13    1    4    4    0    0 -0.18377795351E+02 -0.33712760192E+01 -0.19071614206E+03  0.19162924325E+03  0.10566000000E+00 0. -1.
        -13    1    4    4    0    0 -0.68977488033E+01 -0.61878684328E+00 -0.66223606723E+02  0.66584826253E+02  0.10566000000E+00 0.  1.
         14    1    4    4    0    0 -0.71066818362E-01 -0.13818042449E-01 -0.21039617279E+01  0.21052069692E+01  0.00000000000E+00 0. -1.
<mgrwt>
<rscale>  0 0.79162858E+02</rscale>
<asrwt>0</asrwt>
<pdfrwt beam="1">  1        2 0.45368559E-01 0.79162858E+02</pdfrwt>
<pdfrwt beam="2">  1       -1 0.81733715E-03 0.79162858E+02</pdfrwt>
<totfact> 0.26044834E+05</totfact>
</mgrwt>
</event>
<event>
 8    1  0.2676873E-020  0.7845558E+02  0.7818608E-02  0.1333492E+00
         -1   -1    0    0    0  501 -0.00000000000E+00  0.00000000000E+00  0.27931182271E+01  0.27931227743E+01  0.50400000000E-02 0.  1.
          2   -1    0    0  501    0  0.00000000000E+00 -0.00000000000E+00 -0.55093201238E+03  0.55093201239E+03  0.25500000000E-02 0. -1.
         24    2    1    2    0    0  0.17763568394E-14  0.00000000000E+00 -0.54813889415E+03  0.55372513516E+03  0.78455579948E+02 0.  0.
         66    2    3    3    0    0  0.89475712356E+01 -0.13591247986E+02 -0.52596818691E+03  0.52622363563E+03  0.19999998427E+01 0.  0.
        -13    1    3    3    0    0 -0.89475712356E+01  0.13591247986E+02 -0.22170707244E+02  0.27501499533E+02  0.10566000000E+00 0.  1.
         13    1    4    4    0    0  0.40147995862E+01 -0.65707199414E+01 -0.26899074072E+03  0.26910095268E+03  0.10566000000E+00 0. -1.
        -13    1    4    4    0    0  0.23758520374E+01 -0.32872718627E+01 -0.10664644441E+03  0.10672359673E+03  0.10566000000E+00 0.  1.
        -14    1    4    4    0    0  0.25569196120E+01 -0.37332561823E+01 -0.15033100178E+03  0.15039908622E+03  0.00000000000E+00 0.  1.
<mgrwt>
<rscale>  0 0.78455580E+02</rscale>
<asrwt>0</asrwt>
<pdfrwt beam="1">  1        2 0.84758685E-01 0.78455580E+02</pdfrwt>
<pdfrwt beam="2">  1       -1 0.42971129E-03 0.78455580E+02</pdfrwt>
<totfact> 0.33011322E+05</totfact>
</mgrwt>
</event>
<event>
 8    1  0.2676873E-020  0.7335865E+02  0.7818608E-02  0.1349030E+00
          2   -1    0    0  501    0  0.00000000000E+00  0.00000000000E+00  0.74591592906E+03  0.74591592907E+03  0.25500000000E-02 0. -1.
         -1   -1    0    0    0  501 -0.00000000000E+00 -0.00000000000E+00 -0.18036485300E+01  0.18036555717E+01  0.50400000000E-02 0.  1.
         24    2    1    2    0    0  0.00000000000E+00 -0.17763568394E-14  0.74411228053E+03  0.74771958464E+03  0.73358647839E+02 0.  0.
         66    2    3    3    0    0  0.14634908877E+02 -0.11744964121E+02  0.69323770354E+03  0.69349451213E+03  0.20000023406E+01 0.  0.
        -13    1    3    3    0    0 -0.14634908877E+02  0.11744964121E+02  0.50874576995E+02  0.54225072508E+02  0.10566000000E+00 0.  1.
         13    1    4    4    0    0  0.13471155199E+02 -0.10977771579E+02  0.62567420887E+03  0.62591549773E+03  0.10566000000E+00 0. -1.
        -13    1    4    4    0    0  0.10090572309E+01 -0.79762141531E+00  0.60264278601E+02  0.60278095821E+02  0.10566000000E+00 0.  1.
         14    1    4    4    0    0  0.15469644669E+00  0.30428873807E-01  0.72992160628E+01  0.73009185750E+01  0.00000000000E+00 0. -1.
<mgrwt>
<rscale>  0 0.73358648E+02</rscale>
<asrwt>0</asrwt>
<pdfrwt beam="1">  1        2 0.11475646E+00 0.73358648E+02</pdfrwt>
<pdfrwt beam="2">  1       -1 0.27748453E-03 0.73358648E+02</pdfrwt>
<totfact> 0.42438716E+05</totfact>
</mgrwt>
</event>
<event>
 8    1  0.2676873E-020  0.7916124E+02  0.7818608E-02  0.1331449E+00
         -1   -1    0    0    0  501 -0.00000000000E+00  0.00000000000E+00  0.37561549973E+01  0.37561583787E+01  0.50400000000E-02 0.  1.
          2   -1    0    0  501    0  0.00000000000E+00 -0.00000000000E+00 -0.41708206722E+03  0.41708206723E+03  0.25500000000E-02 0. -1.
         24    2    1    2    0    0  0.88817841970E-15  0.00000000000E+00 -0.41332591223E+03  0.42083822561E+03  0.79161243149E+02 0.  0.
         66    2    3    3    0    0 -0.72905786003E+01 -0.25080160347E+02 -0.36471864869E+03  0.36565811858E+03  0.20000004098E+01 0.  0.
        -13    1    3    3    0    0  0.72905786003E+01  0.25080160347E+02 -0.48607263535E+02  0.55180107029E+02  0.10566000000E+00 0.  1.
         13    1    4    4    0    0 -0.10856327749E+01 -0.23863132745E+01 -0.37398447091E+02  0.37490373410E+02  0.10566000000E+00 0. -1.
        -13    1    4    4    0    0 -0.23705493107E+01 -0.11308999677E+02 -0.16246555986E+03  0.16287597208E+03  0.10566000000E+00 0.  1.
        -14    1    4    4    0    0 -0.38343965147E+01 -0.11384847395E+02 -0.16485464174E+03  0.16529177309E+03  0.00000000000E+00 0.  1.
<mgrwt>
<rscale>  0 0.79161243E+02</rscale>
<asrwt>0</asrwt>
<pdfrwt beam="1">  1        2 0.64166435E-01 0.79161243E+02</pdfrwt>
<pdfrwt beam="2">  1       -1 0.57787059E-03 0.79161243E+02</pdfrwt>
<totfact> 0.29466528E+05</totfact>
</mgrwt>
</event>
<event>
 8    1  0.2676873E-020  0.6992289E+02  0.7818608E-02  0.1360355E+00
          2   -1    0    0  501    0  0.00000000000E+00  0.00000000000E+00  0.10303568205E+04  0.10303568205E+04  0.25500000000E-02 0. -1.
         -1   -1    0    0    0  501 -0.00000000000E+00 -0.00000000000E+00 -0.11862851071E+01  0.11862958134E+01  0.50400000000E-02 0.  1.
         24    2    1    2    0    0  0.00000000000E+00  0.00000000000E+00  0.10291705354E+04  0.10315431163E+04  0.69922885376E+02 0.  0.
         66    2    3    3    0    0  0.22118868591E+02  0.18660216787E+01  0.91293430988E+03  0.91320631870E+03  0.19999931734E+01 0.  0.
        -13    1    3    3    0    0 -0.22118868591E+02 -0.18660216787E+01  0.11623622551E+03  0.11833679761E+03  0.10566000000E+00 0.  1.
         13    1    4    4    0    0  0.13510944263E+02  0.10353144343E+01  0.52350774805E+03  0.52368310162E+03  0.10566000000E+00 0. -1.
        -13    1    4    4    0    0  0.49825490390E+00 -0.55231366868E-01  0.19653429642E+02  0.19660106032E+02  0.10566000000E+00 0.  1.
         14    1    4    4    0    0  0.81096694238E+01  0.88593861132E+00  0.36977313219E+03  0.36986311105E+03  0.00000000000E+00 0. -1.
<mgrwt>
<rscale>  0 0.69922885E+02</rscale>
<asrwt>0</asrwt>
<pdfrwt beam="1">  1        2 0.15851624E+00 0.69922885E+02</pdfrwt>
<pdfrwt beam="2">  1       -1 0.18250644E-03 0.69922885E+02</pdfrwt>
<totfact> 0.49897848E+05</totfact>
</mgrwt>
</event>
<event>
 8    1  0.2676873E-020  0.7656638E+02  0.7818608E-02  0.1339088E+00
          2   -1    0    0  501    0  0.00000000000E+00  0.00000000000E+00  0.50467233763E+02  0.50467233827E+02  0.25500000000E-02 0. -1.
         -1   -1    0    0    0  501 -0.00000000000E+00 -0.00000000000E+00 -0.29040677813E+02  0.29040678250E+02  0.50400000000E-02 0.  1.
         24    2    1    2    0    0  0.00000000000E+00  0.00000000000E+00  0.21426555950E+02  0.79507912077E+02  0.76566381546E+02 0.  0.
         66    2    3    3    0    0  0.36013282819E+02 -0.54200501079E+01  0.22886657951E+02  0.43059639903E+02  0.19999984456E+01 0.  0.
        -13    1    3    3    0    0 -0.36013282819E+02  0.54200501079E+01 -0.14601020015E+01  0.36448272174E+02  0.10566000000E+00 0.  1.
         13    1    4    4    0    0  0.35633978993E+01 -0.48390200432E+00  0.24195340180E+01  0.43355823875E+01  0.10566000000E+00 0. -1.
        -13    1    4    4    0    0  0.17747075052E+00  0.58940724990E-01  0.16708568910E+00  0.27212412509E+00  0.10566000000E+00 0. -1.
        -14    1    4    4    0    0  0.32272414170E+02 -0.49950888286E+01  0.20300038244E+02  0.38451933390E+02  0.00000000000E+00 0.  1.
<mgrwt>
<rscale>  0 0.76566382E+02</rscale>
<asrwt>0</asrwt>
<pdfrwt beam="1">  1        2 0.77641898E-02 0.76566382E+02</pdfrwt>
<pdfrwt beam="2">  1       -1 0.44677967E-02 0.76566382E+02</pdfrwt>
<totfact> 0.16878195E+05</totfact>
</mgrwt>
</event>
<event>
 8    1  0.2676873E-020  0.7876612E+02  0.7818608E-02  0.1332590E+00
          2   -1    0    0  501    0  0.00000000000E+00  0.00000000000E+00  0.58200741951E+02  0.58200742007E+02  0.25500000000E-02 0. -1.
         -1   -1    0    0    0  501 -0.00000000000E+00 -0.00000000000E+00 -0.26649582451E+02  0.26649582927E+02  0.50400000000E-02 0.  1.
         24    2    1    2    0    0 -0.71054273576E-14  0.22204460493E-15  0.31551159501E+02  0.84850324935E+02  0.78766122005E+02 0.  0.
         66    2    3    3    0    0 -0.38102222910E+02  0.12383281146E+01  0.26324433521E+02  0.46371204938E+02  0.20000000016E+01 0.  0.
        -13    1    3    3    0    0  0.38102222910E+02 -0.12383281146E+01  0.52267259799E+01  0.38479119997E+02  0.10566000000E+00 0.  1.
         13    1    4    4    0    0 -0.14171326868E+02  0.81064409881E+00  0.96069947540E+01  0.17140278915E+02  0.10566000000E+00 0. -1.
        -13    1    4    4    0    0 -0.18831282531E+02  0.92723138061E+00  0.13095267774E+02  0.22955917797E+02  0.10566000000E+00 0.  1.
         14    1    4    4    0    0 -0.50996135114E+01 -0.49954736479E+00  0.36221709924E+01  0.62750082258E+01  0.00000000000E+00 0. -1.
<mgrwt>
<rscale>  0 0.78766122E+02</rscale>
<asrwt>0</asrwt>
<pdfrwt beam="1">  1        2 0.89539603E-02 0.78766122E+02</pdfrwt>
<pdfrwt beam="2">  1       -1 0.40999358E-02 0.78766122E+02</pdfrwt>
<totfact> 0.16125410E+05</totfact>
</mgrwt>
</event>
<event>
 8    1  0.2676873E-020  0.7916474E+02  0.7818608E-02  0.1331439E+00
         -1   -1    0    0    0  501 -0.00000000000E+00  0.00000000000E+00  0.54321084886E+01  0.54321108267E+01  0.50400000000E-02 0.  1.
          2   -1    0    0  501    0  0.00000000000E+00 -0.00000000000E+00 -0.28842642677E+03  0.28842642678E+03  0.25500000000E-02 0. -1.
         24    2    1    2    0    0  0.35527136788E-14 -0.88817841970E-15 -0.28299431828E+03  0.29385853761E+03  0.79164739282E+02 0.  0.
         66    2    3    3    0    0  0.30375241871E+02 -0.66350637031E+01 -0.23236635375E+03  0.23444573305E+03  0.20000001154E+01 0.  0.
        -13    1    3    3    0    0 -0.30375241871E+02  0.66350637031E+01 -0.50627964536E+02  0.59412804564E+02  0.10566000000E+00 0.  1.
         13    1    4    4    0    0  0.91440540609E+01 -0.22819643922E+01 -0.64226528521E+02  0.64914399143E+02  0.10566000000E+00 0. -1.
        -13    1    4    4    0    0  0.10896078124E+02 -0.20671477645E+01 -0.85347230810E+02  0.86064851068E+02  0.10566000000E+00 0.  1.
         14    1    4    4    0    0  0.10335109686E+02 -0.22859515465E+01 -0.82792594417E+02  0.83466482836E+02  0.00000000000E+00 0. -1.
<mgrwt>
<rscale>  0 0.79164739E+02</rscale>
<asrwt>0</asrwt>
<pdfrwt beam="1">  1        2 0.44373285E-01 0.79164739E+02</pdfrwt>
<pdfrwt beam="2">  1       -1 0.83570941E-03 0.79164739E+02</pdfrwt>
<totfact> 0.25834984E+05</totfact>
</mgrwt>
</event>
<event>
 8    1  0.2676873E-020  0.7926510E+02  0.7818608E-02  0.1331150E+00
          2   -1    0    0  501    0  0.00000000000E+00  0.00000000000E+00  0.14352016318E+03  0.14352016320E+03  0.25500000000E-02 0. -1.
         -1   -1    0    0    0  501 -0.00000000000E+00 -0.00000000000E+00 -0.10944378910E+02  0.10944380070E+02  0.50400000000E-02 0.  1.
         24    2    1    2    0    0  0.35527136788E-14 -0.35527136788E-14  0.13257578427E+03  0.15446454327E+03  0.79265102999E+02 0.  0.
         66    2    3    3    0    0  0.24353304941E+02  0.28018763261E+02  0.93233415618E+02  0.10037232857E+03  0.19999996297E+01 0.  0.
        -13    1    3    3    0    0 -0.24353304941E+02 -0.28018763261E+02  0.39342368652E+02  0.54092214703E+02  0.10566000000E+00 0.  1.
         13    1    4    4    0    0  0.15914451053E+02  0.19215573345E+02  0.63063954189E+02  0.67820214489E+02  0.10566000000E+00 0. -1.
        -13    1    4    4    0    0  0.32465110007E+01  0.30017223574E+01  0.10135801347E+02  0.11058743318E+02  0.10566000000E+00 0.  1.
         14    1    4    4    0    0  0.51923428875E+01  0.58014675584E+01  0.20033660082E+02  0.21493370764E+02  0.00000000000E+00 0. -1.
<mgrwt>
<rscale>  0 0.79265103E+02</rscale>
<asrwt>0</asrwt>
<pdfrwt beam="1">  1        2 0.22080023E-01 0.79265103E+02</pdfrwt>
<pdfrwt beam="2">  1       -1 0.16837509E-02 0.79265103E+02</pdfrwt>
<totfact> 0.20238655E+05</totfact>
</mgrwt>
</event>
<event>
 8    1  0.2676873E-020  0.7882867E+02  0.7818608E-02  0.1332409E+00
          2   -1    0    0  501    0  0.00000000000E+00  0.00000000000E+00  0.98909806364E+02  0.98909806397E+02  0.25500000000E-02 0. -1.
         -1   -1    0    0    0  501 -0.00000000000E+00 -0.00000000000E+00 -0.15706126558E+02  0.15706127367E+02  0.50400000000E-02 0.  1.
         24    2    1    2    0    0  0.00000000000E+00  0.00000000000E+00  0.83203679806E+02  0.11461593376E+03  0.78828674601E+02 0.  0.
         66    2    3    3    0    0 -0.35421429053E+01  0.36832789213E+02  0.61259206137E+02  0.71595331417E+02  0.20000016838E+01 0.  0.
        -13    1    3    3    0    0  0.35421429053E+01 -0.36832789213E+02  0.21944473669E+02  0.43020602346E+02  0.10566000000E+00 0.  1.
         13    1    4    4    0    0 -0.11769353646E+01  0.16381985405E+02  0.26958165968E+02  0.31567522853E+02  0.10566000000E+00 0. -1.
        -13    1    4    4    0    0 -0.13323306985E+01  0.12718105180E+02  0.22527660694E+02  0.25904284681E+02  0.10566000000E+00 0.  1.
        -14    1    4    4    0    0 -0.10328768422E+01  0.77326986276E+01  0.11773379474E+02  0.14123523883E+02  0.00000000000E+00 0.  1.
<mgrwt>
<rscale>  0 0.78828675E+02</rscale>
<asrwt>0</asrwt>
<pdfrwt beam="1">  1        2 0.15216893E-01 0.78828675E+02</pdfrwt>
<pdfrwt beam="2">  1       -1 0.24163273E-02 0.78828675E+02</pdfrwt>
<totfact> 0.18383466E+05</totfact>
</mgrwt>
</event>
<event>
 8    1  0.2676873E-020  0.8268842E+02  0.7818608E-02  0.1321591E+00
          2   -1    0    0  501    0  0.00000000000E+00  0.00000000000E+00  0.42759332633E+03  0.42759332634E+03  0.25500000000E-02 0. -1.
         -1   -1    0    0    0  501 -0.00000000000E+00 -0.00000000000E+00 -0.39975904091E+01  0.39975935862E+01  0.50400000000E-02 0.  1.
         24    2    1    2    0    0  0.71054273576E-14 -0.88817841970E-15  0.42359573592E+03  0.43159091992E+03  0.82688419203E+02 0.  0.
         66    2    3    3    0    0  0.37517772309E+02 -0.43798807466E+01  0.29934928444E+03  0.30172961520E+03  0.20000001983E+01 0.  0.
        -13    1    3    3    0    0 -0.37517772309E+02  0.43798807466E+01  0.12424645148E+03  0.12986130472E+03  0.10566000000E+00 0.  1.
         13    1    4    4    0    0  0.61645102828E+01 -0.99085161601E+00  0.46107760214E+02  0.46528697488E+02  0.10566000000E+00 0. -1.
        -13    1    4    4    0    0  0.12933167109E+02 -0.10397420013E+01  0.99879653967E+02  0.10071893722E+03  0.10566000000E+00 0.  1.
         14    1    4    4    0    0  0.18420094917E+02 -0.23492871292E+01  0.15336187026E+03  0.15448198049E+03  0.00000000000E+00 0. -1.
<mgrwt>
<rscale>  0 0.82688419E+02</rscale>
<asrwt>0</asrwt>
<pdfrwt beam="1">  1        2 0.65783564E-01 0.82688419E+02</pdfrwt>
<pdfrwt beam="2">  1       -1 0.61501439E-03 0.82688419E+02</pdfrwt>
<totfact> 0.26519719E+05</totfact>
</mgrwt>
</event>
<event>
 8    1  0.2676873E-020  0.7900577E+02  0.7818608E-02  0.1331897E+00
         -1   -1    0    0    0  501 -0.00000000000E+00  0.00000000000E+00  0.15998431252E+02  0.15998432046E+02  0.50400000000E-02 0.  1.
          2   -1    0    0  501    0  0.00000000000E+00 -0.00000000000E+00 -0.97539431676E+02  0.97539431710E+02  0.25500000000E-02 0. -1.
         24    2    1    2    0    0  0.00000000000E+00 -0.71054273576E-14 -0.81541000424E+02  0.11353786376E+03  0.79005770396E+02 0.  0.
         66    2    3    3    0    0 -0.31526608952E+02 -0.23671732906E+02 -0.43739939042E+02  0.58919099430E+02  0.19999998716E+01 0.  0.
        -13    1    3    3    0    0  0.31526608952E+02  0.23671732906E+02 -0.37801061383E+02  0.54618764326E+02  0.10566000000E+00 0.  1.
         13    1    4    4    0    0 -0.75155347921E+01 -0.57601775488E+01 -0.10553573037E+02  0.14179279830E+02  0.10566000000E+00 0. -1.
        -13    1    4    4    0    0 -0.46039466103E+01 -0.26512553074E+01 -0.61269479709E+01  0.81102487366E+01  0.10566000000E+00 0.  1.
        -14    1    4    4    0    0 -0.19407127550E+02 -0.15260300049E+02 -0.27059418033E+02  0.36629570863E+02  0.00000000000E+00 0.  1.
<mgrwt>
<rscale>  0 0.79005770E+02</rscale>
<asrwt>0</asrwt>
<pdfrwt beam="1">  1        2 0.15006066E-01 0.79005770E+02</pdfrwt>
<pdfrwt beam="2">  1       -1 0.24612972E-02 0.79005770E+02</pdfrwt>
<totfact> 0.18202909E+05</totfact>
</mgrwt>
</event>
<event>
 8    1  0.2676873E-020  0.7820147E+02  0.7818608E-02  0.1334234E+00
          2   -1    0    0  501    0  0.00000000000E+00  0.00000000000E+00  0.10601748269E+02  0.10601748576E+02  0.25500000000E-02 0. -1.
         -1   -1    0    0    0  501 -0.00000000000E+00 -0.00000000000E+00 -0.14420898961E+03  0.14420898970E+03  0.50400000000E-02 0.  1.
         24    2    1    2    0    0  0.00000000000E+00  0.00000000000E+00 -0.13360724134E+03  0.15481073827E+03  0.78201468951E+02 0.  0.
         66    2    3    3    0    0  0.31697237325E+02  0.22162981909E+02 -0.55833938867E+02  0.67951021702E+02  0.19999999732E+01 0.  0.
        -13    1    3    3    0    0 -0.31697237325E+02 -0.22162981909E+02 -0.77773302473E+02  0.86859716570E+02  0.10566000000E+00 0.  1.
         13    1    4    4    0    0  0.21468490433E+02  0.14025514267E+02 -0.36807357787E+02  0.44859824824E+02  0.10566000000E+00 0. -1.
        -13    1    4    4    0    0  0.44197638050E+01  0.35918996251E+01 -0.87778987356E+01  0.10464163859E+02  0.10566000000E+00 0.  1.
         14    1    4    4    0    0  0.58089830863E+01  0.45455680165E+01 -0.10248682344E+02  0.12627033019E+02  0.00000000000E+00 0. -1.
<mgrwt>
<rscale>  0 0.78201469E+02</rscale>
<asrwt>0</asrwt>
<pdfrwt beam="1">  1        2 0.16310383E-02 0.78201469E+02</pdfrwt>
<pdfrwt beam="2">  1       -1 0.22185997E-01 0.78201469E+02</pdfrwt>
<totfact> 0.11538526E+05</totfact>
</mgrwt>
</event>
<event>
 8    1  0.2676873E-020  0.8039376E+02  0.7818608E-02  0.1327938E+00
         -1   -1    0    0    0  501 -0.00000000000E+00  0.00000000000E+00  0.18998201981E+01  0.18998268834E+01  0.50400000000E-02 0.  1.
          2   -1    0    0  501    0  0.00000000000E+00 -0.00000000000E+00 -0.85049439745E+03  0.85049439746E+03  0.25500000000E-02 0. -1.
         24    2    1    2    0    0  0.00000000000E+00  0.00000000000E+00 -0.84859457726E+03  0.85239422434E+03  0.80393763080E+02 0.  0.
         66    2    3    3    0    0  0.89724685596E+01  0.15135235024E+02 -0.80746400192E+03  0.80765815474E+03  0.20000003064E+01 0.  0.
        -13    1    3    3    0    0 -0.89724685596E+01 -0.15135235024E+02 -0.41130575339E+02  0.44736069597E+02  0.10566000000E+00 0.  1.
         13    1    4    4    0    0  0.71304139644E+01  0.12429685823E+02 -0.63200205092E+03  0.63216449080E+03  0.10566000000E+00 0. -1.
        -13    1    4    4    0    0  0.11983142546E+01  0.20822953664E+01 -0.13834562225E+03  0.13836652149E+03  0.10566000000E+00 0.  1.
         14    1    4    4    0    0  0.64374034058E+00  0.62325383470E+00 -0.37116328748E+02  0.37127142452E+02  0.00000000000E+00 0. -1.
<mgrwt>
<rscale>  0 0.80393763E+02</rscale>
<asrwt>0</asrwt>
<pdfrwt beam="1">  1        2 0.13084499E+00 0.80393763E+02</pdfrwt>
<pdfrwt beam="2">  1       -1 0.29228123E-03 0.80393763E+02</pdfrwt>
<totfact> 0.34258394E+05</totfact>
</mgrwt>
</event>
<event>
 8    1  0.2676873E-020  0.8000340E+02  0.7818608E-02  0.1329042E+00
         -1   -1    0    0    0  501 -0.00000000000E+00  0.00000000000E+00  0.62354089529E+02  0.62354089733E+02  0.50400000000E-02 0.  1.
          2   -1    0    0  501    0  0.00000000000E+00 -0.00000000000E+00 -0.25662086654E+02  0.25662086780E+02  0.25500000000E-02 0. -1.
         24    2    1    2    0    0 -0.35527136788E-14 -0.35527136788E-14  0.36692002875E+02  0.88016176513E+02  0.80003401509E+02 0.  0.
         66    2    3    3    0    0 -0.22282965328E+02  0.16701491220E+02 -0.13197292821E+02  0.30881044222E+02  0.20000004227E+01 0.  0.
        -13    1    3    3    0    0  0.22282965328E+02 -0.16701491220E+02  0.49889295696E+02  0.57135132291E+02  0.10566000000E+00 0.  1.
         13    1    4    4    0    0 -0.29240224905E+00  0.44674655020E+00 -0.19204620027E+00  0.57717184096E+00  0.10566000000E+00 0.  1.
        -13    1    4    4    0    0 -0.49612300520E+01  0.39503706477E+01 -0.34989986108E+01  0.72438516824E+01  0.10566000000E+00 0.  1.
         14    1    4    4    0    0 -0.17029333027E+02  0.12304374022E+02 -0.95062480095E+01  0.23060020699E+02  0.00000000000E+00 0. -1.
<mgrwt>
<rscale>  0 0.80003402E+02</rscale>
<asrwt>0</asrwt>
<pdfrwt beam="1">  1        2 0.39480134E-02 0.80003402E+02</pdfrwt>
<pdfrwt beam="2">  1       -1 0.95929368E-02 0.80003402E+02</pdfrwt>
<totfact> 0.13045911E+05</totfact>
</mgrwt>
</event>
<event>
 8    1  0.2676873E-020  0.8158670E+02  0.7818608E-02  0.1324608E+00
         -1   -1    0    0    0  501 -0.00000000000E+00  0.00000000000E+00  0.10252560653E+02  0.10252561892E+02  0.50400000000E-02 0.  1.
          2   -1    0    0  501    0  0.00000000000E+00 -0.00000000000E+00 -0.16231040335E+03  0.16231040337E+03  0.25500000000E-02 0. -1.
         24    2    1    2    0    0  0.00000000000E+00  0.88817841970E-15 -0.15205784270E+03  0.17256296527E+03  0.81586699005E+02 0.  0.
         66    2    3    3    0    0  0.38096146263E+02 -0.78087114972E+01 -0.10196162951E+03  0.10914424504E+03  0.19999992802E+01 0.  0.
        -13    1    3    3    0    0 -0.38096146263E+02  0.78087114972E+01 -0.50096213191E+02  0.63418720229E+02  0.10566000000E+00 0.  1.
         13    1    4    4    0    0  0.16949345029E+02 -0.40115692856E+01 -0.44623445453E+02  0.47902359369E+02  0.10566000000E+00 0. -1.
        -13    1    4    4    0    0  0.20391119397E+02 -0.37340969991E+01 -0.54686029712E+02  0.58483452706E+02  0.10566000000E+00 0.  1.
        -14    1    4    4    0    0  0.75568183670E+00 -0.63045212495E-01 -0.26521543451E+01  0.27584329623E+01  0.00000000000E+00 0.  1.
<mgrwt>
<rscale>  0 0.81586699E+02</rscale>
<asrwt>0</asrwt>
<pdfrwt beam="1">  1        2 0.24970830E-01 0.81586699E+02</pdfrwt>
<pdfrwt beam="2">  1       -1 0.15773172E-02 0.81586699E+02</pdfrwt>
<totfact> 0.19508499E+05</totfact>
</mgrwt>
</event>
<event>
 8    1  0.2676873E-020  0.8262624E+02  0.7818608E-02  0.1321760E+00
         -1   -1    0    0    0  501 -0.00000000000E+00  0.00000000000E+00  0.20224536324E+03  0.20224536330E+03  0.50400000000E-02 0.  1.
          2   -1    0    0  501    0  0.00000000000E+00 -0.00000000000E+00 -0.84391244914E+01  0.84391248767E+01  0.25500000000E-02 0. -1.
         24    2    1    2    0    0 -0.44408920985E-15  0.00000000000E+00  0.19380623875E+03  0.21068448818E+03  0.82626239062E+02 0.  0.
         66    2    3    3    0    0 -0.38098731608E+01 -0.30337072649E+02  0.16771132156E+03  0.17048736170E+03  0.20000018940E+01 0.  0.
        -13    1    3    3    0    0  0.38098731608E+01  0.30337072649E+02  0.26094917183E+02  0.40197126480E+02  0.10566000000E+00 0.  1.
         13    1    4    4    0    0 -0.34976740626E+01 -0.26202483355E+02  0.14135819868E+03  0.14380874576E+03  0.10566000000E+00 0. -1.
        -13    1    4    4    0    0 -0.72961892943E-01 -0.18384864472E+01  0.11181485879E+02  0.11332349551E+02  0.10566000000E+00 0.  1.
         14    1    4    4    0    0 -0.23923720520E+00 -0.22961028467E+01  0.15171637002E+02  0.15346266388E+02  0.00000000000E+00 0. -1.
<mgrwt>
<rscale>  0 0.82626239E+02</rscale>
<asrwt>0</asrwt>
<pdfrwt beam="1">  1        2 0.12983269E-02 0.82626239E+02</pdfrwt>
<pdfrwt beam="2">  1       -1 0.31114671E-01 0.82626239E+02</pdfrwt>
<totfact> 0.91425653E+04</totfact>
</mgrwt>
</event>
<event>
 8    1  0.2676873E-020  0.7806816E+02  0.7818608E-02  0.1334625E+00
         -1   -1    0    0    0  501 -0.00000000000E+00  0.00000000000E+00  0.44036371342E+02  0.44036371630E+02  0.50400000000E-02 0.  1.
          2   -1    0    0  501    0  0.00000000000E+00 -0.00000000000E+00 -0.34600018314E+02  0.34600018408E+02  0.25500000000E-02 0. -1.
         24    2    1    2    0    0  0.71054273576E-14 -0.35527136788E-14  0.94363530276E+01  0.78636390039E+02  0.78068156632E+02 0.  0.
         66    2    3    3    0    0 -0.35227349726E+02  0.16629391995E+02  0.26689123967E+01  0.39097646210E+02  0.19999997328E+01 0.  0.
        -13    1    3    3    0    0  0.35227349726E+02 -0.16629391995E+02  0.67674406309E+01  0.39538743829E+02  0.10566000000E+00 0.  1.
         13    1    4    4    0    0 -0.22054552324E+02  0.10431021984E+02  0.80483462122E+00  0.24410416233E+02  0.10566000000E+00 0. -1.
        -13    1    4    4    0    0 -0.89045968408E+01  0.39700642276E+01  0.10963009843E+01  0.98115388575E+01  0.10566000000E+00 0.  1.
         14    1    4    4    0    0 -0.42682005610E+01  0.22283057837E+01  0.76777679121E+00  0.48756911198E+01  0.00000000000E+00 0. -1.
<mgrwt>
<rscale>  0 0.78068157E+02</rscale>
<asrwt>0</asrwt>
<pdfrwt beam="1">  1        2 0.53230798E-02 0.78068157E+02</pdfrwt>
<pdfrwt beam="2">  1       -1 0.67748263E-02 0.78068157E+02</pdfrwt>
<totfact> 0.14814519E+05</totfact>
</mgrwt>
</event>
<event>
 8    1  0.2676873E-020  0.7974484E+02  0.7818608E-02  0.1329777E+00
         -1   -1    0    0    0  501 -0.00000000000E+00  0.00000000000E+00  0.27439973756E+02  0.27439974219E+02  0.50400000000E-02 0.  1.
          2   -1    0    0  501    0  0.00000000000E+00 -0.00000000000E+00 -0.57937734029E+02  0.57937734085E+02  0.25500000000E-02 0. -1.
         24    2    1    2    0    0  0.17763568394E-14  0.00000000000E+00 -0.30497760273E+02  0.85377708305E+02  0.79744841173E+02 0.  0.
         66    2    3    3    0    0  0.91862616422E+01 -0.32764786586E+02 -0.37456693579E+02  0.50645064296E+02  0.20000001777E+01 0.  0.
        -13    1    3    3    0    0 -0.91862616422E+01  0.32764786586E+02  0.69589333065E+01  0.34732644008E+02  0.10566000000E+00 0.  1.
         13    1    4    4    0    0  0.60544500800E+00 -0.16282350709E+01 -0.16504120275E+01  0.23984863977E+01  0.10566000000E+00 0. -1.
        -13    1    4    4    0    0  0.90664189625E+00 -0.18774728655E+01 -0.23326969152E+01  0.31304221477E+01  0.10566000000E+00 0.  1.
         14    1    4    4    0    0  0.76741747379E+01 -0.29259078650E+02 -0.33473584636E+02  0.45116155751E+02  0.00000000000E+00 0. -1.
<mgrwt>
<rscale>  0 0.79744841E+02</rscale>
<asrwt>0</asrwt>
<pdfrwt beam="1">  1        2 0.89134975E-02 0.79744841E+02</pdfrwt>
<pdfrwt beam="2">  1       -1 0.42215345E-02 0.79744841E+02</pdfrwt>
<totfact> 0.15576649E+05</totfact>
</mgrwt>
</event>
<event>
 8    1  0.2676873E-020  0.7982798E+02  0.7818608E-02  0.1329540E+00
         -1   -1    0    0    0  501 -0.00000000000E+00  0.00000000000E+00  0.28553212992E+01  0.28553257473E+01  0.50400000000E-02 0.  1.
          2   -1    0    0  501    0  0.00000000000E+00 -0.00000000000E+00 -0.55794962919E+03  0.55794962920E+03  0.25500000000E-02 0. -1.
         24    2    1    2    0    0  0.00000000000E+00 -0.71054273576E-14 -0.55509430789E+03  0.56080495495E+03  0.79827982788E+02 0.  0.
         66    2    3    3    0    0 -0.49887252547E+01 -0.35712395319E+02 -0.39753226634E+03  0.39916934420E+03  0.20000018454E+01 0.  0.
        -13    1    3    3    0    0  0.49887252547E+01  0.35712395319E+02 -0.15756204155E+03  0.16163561074E+03  0.10566000000E+00 0.  1.
         13    1    4    4    0    0 -0.29464316136E+01 -0.22934250148E+02 -0.25118790671E+03  0.25224994932E+03  0.10566000000E+00 0. -1.
        -13    1    4    4    0    0 -0.53149014551E-01 -0.31634595747E+01 -0.36818609077E+02  0.36954450878E+02  0.10566000000E+00 0.  1.
        -14    1    4    4    0    0 -0.19891446265E+01 -0.96146855961E+01 -0.10952575055E+03  0.10996494400E+03  0.00000000000E+00 0.  1.
<mgrwt>
<rscale>  0 0.79827983E+02</rscale>
<asrwt>0</asrwt>
<pdfrwt beam="1">  1        2 0.85838318E-01 0.79827983E+02</pdfrwt>
<pdfrwt beam="2">  1       -1 0.43928099E-03 0.79827983E+02</pdfrwt>
<totfact> 0.31674763E+05</totfact>
</mgrwt>
</event>
<event>
 8    1  0.2676873E-020  0.7980512E+02  0.7818608E-02  0.1329605E+00
          2   -1    0    0  501    0  0.00000000000E+00  0.00000000000E+00  0.19367737493E+02  0.19367737661E+02  0.25500000000E-02 0. -1.
         -1   -1    0    0    0  501 -0.00000000000E+00 -0.00000000000E+00 -0.82209624393E+02  0.82209624548E+02  0.50400000000E-02 0.  1.
         24    2    1    2    0    0 -0.35527136788E-14  0.00000000000E+00 -0.62841886900E+02  0.10157736221E+03  0.79805123671E+02 0.  0.
         66    2    3    3    0    0 -0.28336691584E+02 -0.85171178728E+01  0.25867234427E+01  0.29769120327E+02  0.20000000150E+01 0.  0.
        -13    1    3    3    0    0  0.28336691584E+02  0.85171178728E+01 -0.65428610343E+02  0.71808241882E+02  0.10566000000E+00 0.  1.
         13    1    4    4    0    0 -0.20239561369E+02 -0.60673426315E+01  0.24851566052E+01  0.21275329807E+02  0.10566000000E+00 0. -1.
        -13    1    4    4    0    0 -0.50300964276E+01 -0.11811744593E+01 -0.95781992821E-01  0.51688858954E+01  0.10566000000E+00 0.  1.
         14    1    4    4    0    0 -0.30670337880E+01 -0.12686007820E+01  0.19734883030E+00  0.33249046244E+01  0.00000000000E+00 0. -1.
<mgrwt>
<rscale>  0 0.79805124E+02</rscale>
<asrwt>0</asrwt>
<pdfrwt beam="1">  1        2 0.29796520E-02 0.79805124E+02</pdfrwt>
<pdfrwt beam="2">  1       -1 0.12647634E-01 0.79805124E+02</pdfrwt>
<totfact> 0.12421936E+05</totfact>
</mgrwt>
</event>
<event>
 8    1  0.2676873E-020  0.7957310E+02  0.7818608E-02  0.1330267E+00
         -1   -1    0    0    0  501 -0.00000000000E+00  0.00000000000E+00  0.16502430510E+01  0.16502507473E+01  0.50400000000E-02 0.  1.
          2   -1    0    0  501    0  0.00000000000E+00 -0.00000000000E+00 -0.95923184348E+03  0.95923184349E+03  0.25500000000E-02 0. -1.
         24    2    1    2    0    0  0.00000000000E+00  0.00000000000E+00 -0.95758160043E+03  0.96088209423E+03  0.79573095535E+02 0.  0.
         66    2    3    3    0    0 -0.53859908114E+01 -0.17819231401E+02 -0.90335738815E+03  0.90355138461E+03  0.19999984044E+01 0.  0.
        -13    1    3    3    0    0  0.53859908114E+01  0.17819231401E+02 -0.54224212279E+02  0.57330709625E+02  0.10566000000E+00 0.  1.
         13    1    4    4    0    0 -0.48958301401E+01 -0.16335642289E+02 -0.84233571152E+03  0.84250832900E+03  0.10566000000E+00 0. -1.
        -13    1    4    4    0    0 -0.48983082480E+00 -0.11798118727E+01 -0.43994711405E+02  0.44013380760E+02  0.10566000000E+00 0. -1.
         14    1    4    4    0    0 -0.32984653170E-03 -0.30377723941E+00 -0.17026965223E+02  0.17029674848E+02  0.00000000000E+00 0. -1.
<mgrwt>
<rscale>  0 0.79573096E+02</rscale>
<asrwt>0</asrwt>
<pdfrwt beam="1">  1        2 0.14757368E+00 0.79573096E+02</pdfrwt>
<pdfrwt beam="2">  1       -1 0.25388491E-03 0.79573096E+02</pdfrwt>
<totfact> 0.35640337E+05</totfact>
</mgrwt>
</event>
<event>
 8    1  0.2676873E-020  0.8000649E+02  0.7818608E-02  0.1329033E+00
          2   -1    0    0  501    0  0.00000000000E+00  0.00000000000E+00  0.35167962964E+02  0.35167963056E+02  0.25500000000E-02 0. -1.
         -1   -1    0    0    0  501 -0.00000000000E+00 -0.00000000000E+00 -0.45503337921E+02  0.45503338200E+02  0.50400000000E-02 0.  1.
         24    2    1    2    0    0  0.00000000000E+00  0.00000000000E+00 -0.10335374957E+02  0.80671301256E+02  0.80006492680E+02 0.  0.
         66    2    3    3    0    0  0.35989553836E+02 -0.10822761474E+02 -0.18917778716E+02  0.42121995561E+02  0.20000018074E+01 0.  0.
        -13    1    3    3    0    0 -0.35989553836E+02  0.10822761474E+02  0.85824037590E+01  0.38549305695E+02  0.10566000000E+00 0.  1.
         13    1    4    4    0    0  0.15932204280E+02 -0.49712157028E+01 -0.77186364079E+01  0.18388491804E+02  0.10566000000E+00 0. -1.
        -13    1    4    4    0    0  0.16652756470E+02 -0.45959393649E+01 -0.88481564292E+01  0.19409739641E+02  0.10566000000E+00 0.  1.
        -14    1    4    4    0    0  0.34045930860E+01 -0.12556064064E+01 -0.23509858787E+01  0.43237641160E+01  0.00000000000E+00 0.  1.
<mgrwt>
<rscale>  0 0.80006493E+02</rscale>
<asrwt>0</asrwt>
<pdfrwt beam="1">  1        2 0.54104558E-02 0.80006493E+02</pdfrwt>
<pdfrwt beam="2">  1       -1 0.70005136E-02 0.80006493E+02</pdfrwt>
<totfact> 0.13884214E+05</totfact>
</mgrwt>
</event>
<event>
 8    1  0.2676873E-020  0.7955890E+02  0.7818608E-02  0.1330308E+00
         -1   -1    0    0    0  501 -0.00000000000E+00  0.00000000000E+00  0.87158773378E+02  0.87158773523E+02  0.50400000000E-02 0.  1.
          2   -1    0    0  501    0  0.00000000000E+00 -0.00000000000E+00 -0.18155423689E+02  0.18155423868E+02  0.25500000000E-02 0. -1.
         24    2    1    2    0    0  0.00000000000E+00  0.00000000000E+00  0.69003349689E+02  0.10531419739E+03  0.79558895819E+02 0.  0.
         66    2    3    3    0    0 -0.73301717633E+00  0.24042635235E+02 -0.73744293758E+01  0.25238221456E+02  0.19999976032E+01 0.  0.
        -13    1    3    3    0    0  0.73301717633E+00 -0.24042635235E+02  0.76377779064E+02  0.80075975936E+02  0.10566000000E+00 0.  1.
         13    1    4    4    0    0 -0.25869942838E+00  0.15955799658E+02 -0.52580999881E+01  0.16802179848E+02  0.10566000000E+00 0. -1.
        -13    1    4    4    0    0 -0.78169962941E+00  0.65225914554E+01 -0.16288684528E+01  0.67690198757E+01  0.10566000000E+00 0.  1.
         14    1    4    4    0    0  0.30738188145E+00  0.15642441213E+01 -0.48746093480E+00  0.16670217320E+01  0.00000000000E+00 0. -1.
<mgrwt>
<rscale>  0 0.79558896E+02</rscale>
<asrwt>0</asrwt>
<pdfrwt beam="1">  1        2 0.27931421E-02 0.79558896E+02</pdfrwt>
<pdfrwt beam="2">  1       -1 0.13409042E-01 0.79558896E+02</pdfrwt>
<totfact> 0.12368573E+05</totfact>
</mgrwt>
</event>
<event>
 8    1  0.2676873E-020  0.8036383E+02  0.7818608E-02  0.1328022E+00
         -1   -1    0    0    0  501 -0.00000000000E+00  0.00000000000E+00  0.19011787001E+03  0.19011787008E+03  0.50400000000E-02 0.  1.
          2   -1    0    0  501    0  0.00000000000E+00 -0.00000000000E+00 -0.84925545566E+01  0.84925549395E+01  0.25500000000E-02 0. -1.
         24    2    1    2    0    0  0.00000000000E+00  0.00000000000E+00  0.18162531545E+03  0.19861042501E+03  0.80363833355E+02 0.  0.
         66    2    3    3    0    0  0.22570141367E+02 -0.24112111074E+02  0.34416191705E+02  0.47741798521E+02  0.19999732020E+01 0.  0.
        -13    1    3    3    0    0 -0.22570141367E+02  0.24112111074E+02  0.14720912375E+03  0.15086862649E+03  0.10566000000E+00 0.  1.
         13    1    4    4    0    0  0.38911424438E+01 -0.41656729645E+01  0.63616793915E+01  0.85425961792E+01  0.10566000000E+00 0. -1.
        -13    1    4    4    0    0  0.82082145047E+01 -0.87025236572E+01  0.13460129958E+02  0.18008191633E+02  0.10566000000E+00 0.  1.
         14    1    4    4    0    0  0.10470784418E+02 -0.11243914452E+02  0.14594382355E+02  0.21191010709E+02  0.00000000000E+00 0. -1.
<mgrwt>
<rscale>  0 0.80363833E+02</rscale>
<asrwt>0</asrwt>
<pdfrwt beam="1">  1        2 0.13065469E-02 0.80363833E+02</pdfrwt>
<pdfrwt beam="2">  1       -1 0.29248904E-01 0.80363833E+02</pdfrwt>
<totfact> 0.99958108E+04</totfact>
</mgrwt>
</event>
<event>
 8    1  0.2676873E-020  0.8016926E+02  0.7818608E-02  0.1328572E+00
          2   -1    0    0  501    0  0.00000000000E+00  0.00000000000E+00  0.28069874429E+03  0.28069874430E+03  0.25500000000E-02 0. -1.
         -1   -1    0    0    0  501 -0.00000000000E+00 -0.00000000000E+00 -0.57242055369E+01  0.57242077557E+01  0.50400000000E-02 0.  1.
         24    2    1    2    0    0 -0.35527136788E-14  0.17763568394E-14  0.27497453875E+03  0.28642295205E+03  0.80169261583E+02 0.  0.
         66    2    3    3    0    0  0.29778858239E+02 -0.88830895467E+01  0.22789148114E+03  0.23000916689E+03  0.20000005807E+01 0.  0.
        -13    1    3    3    0    0 -0.29778858239E+02  0.88830895467E+01  0.47083057613E+02  0.56413785161E+02  0.10566000000E+00 0.  1.
         13    1    4    4    0    0  0.57277783676E+01 -0.18268709922E+01  0.40095539039E+02  0.40543906046E+02  0.10566000000E+00 0. -1.
        -13    1    4    4    0    0  0.19374120616E+02 -0.58505326099E+01  0.14803263109E+03  0.14940969284E+03  0.10566000000E+00 0.  1.
        -14    1    4    4    0    0  0.46769592561E+01 -0.12056859446E+01  0.39763311008E+02  0.40055568013E+02  0.00000000000E+00 0.  1.
<mgrwt>
<rscale>  0 0.80169262E+02</rscale>
<asrwt>0</asrwt>
<pdfrwt beam="1">  1        2 0.43184421E-01 0.80169262E+02</pdfrwt>
<pdfrwt beam="2">  1       -1 0.88064721E-03 0.80169262E+02</pdfrwt>
<totfact> 0.24749974E+05</totfact>
</mgrwt>
</event>
<event>
 8    1  0.2676873E-020  0.7967009E+02  0.7818608E-02  0.1329990E+00
          2   -1    0    0  501    0  0.00000000000E+00  0.00000000000E+00  0.71656952719E+02  0.71656952764E+02  0.25500000000E-02 0. -1.
         -1   -1    0    0    0  501 -0.00000000000E+00 -0.00000000000E+00 -0.22144825337E+02  0.22144825911E+02  0.50400000000E-02 0.  1.
         24    2    1    2    0    0  0.00000000000E+00  0.00000000000E+00  0.49512127382E+02  0.93801778675E+02  0.79670088018E+02 0.  0.
         66    2    3    3    0    0  0.16014019456E+02 -0.12847895868E+01  0.67656722509E+02  0.69566742059E+02  0.19999991429E+01 0.  0.
        -13    1    3    3    0    0 -0.16014019456E+02  0.12847895868E+01 -0.18144595127E+02  0.24235036616E+02  0.10566000000E+00 0.  1.
         13    1    4    4    0    0  0.96660298347E+01 -0.66473456721E+00  0.40531064390E+02  0.41673161021E+02  0.10566000000E+00 0. -1.
        -13    1    4    4    0    0  0.12673154994E+01 -0.56737675938E+00  0.48611610785E+01  0.50566842920E+01  0.10566000000E+00 0.  1.
         14    1    4    4    0    0  0.50806741221E+01 -0.52678260233E-01  0.22264497040E+02  0.22836896746E+02  0.00000000000E+00 0. -1.
<mgrwt>
<rscale>  0 0.79670088E+02</rscale>
<asrwt>0</asrwt>
<pdfrwt beam="1">  1        2 0.11024147E-01 0.79670088E+02</pdfrwt>
<pdfrwt beam="2">  1       -1 0.34068962E-02 0.79670088E+02</pdfrwt>
<totfact> 0.16421915E+05</totfact>
</mgrwt>
</event>
<event>
 8    1  0.2676873E-020  0.8111102E+02  0.7818608E-02  0.1325928E+00
          2   -1    0    0  501    0  0.00000000000E+00  0.00000000000E+00  0.23123078389E+03  0.23123078390E+03  0.25500000000E-02 0. -1.
         -1   -1    0    0    0  501 -0.00000000000E+00 -0.00000000000E+00 -0.71130206700E+01  0.71130224555E+01  0.50400000000E-02 0.  1.
         24    2    1    2    0    0  0.00000000000E+00  0.00000000000E+00  0.22411776322E+03  0.23834380636E+03  0.81111024153E+02 0.  0.
         66    2    3    3    0    0 -0.30142403656E+02 -0.18015214520E+02  0.17159997977E+03  0.17516753554E+03  0.19999991760E+01 0.  0.
        -13    1    3    3    0    0  0.30142403656E+02  0.18015214520E+02  0.52517783445E+02  0.63176270818E+02  0.10566000000E+00 0.  1.
         13    1    4    4    0    0 -0.26514432935E+01 -0.12209763012E+01  0.15230519879E+02  0.15508089324E+02  0.10566000000E+00 0. -1.
        -13    1    4    4    0    0 -0.14256872678E+02 -0.82512063513E+01  0.77112117829E+02  0.78851954351E+02  0.10566000000E+00 0.  1.
         14    1    4    4    0    0 -0.13234087684E+02 -0.85430318679E+01  0.79257342063E+02  0.80807491863E+02  0.00000000000E+00 0. -1.
<mgrwt>
<rscale>  0 0.81111024E+02</rscale>
<asrwt>0</asrwt>
<pdfrwt beam="1">  1        2 0.35573964E-01 0.81111024E+02</pdfrwt>
<pdfrwt beam="2">  1       -1 0.10943111E-02 0.81111024E+02</pdfrwt>
<totfact> 0.22384690E+05</totfact>
</mgrwt>
</event>
<event>
 8    1  0.2676873E-020  0.7868180E+02  0.7818608E-02  0.1332834E+00
          2   -1    0    0  501    0  0.00000000000E+00  0.00000000000E+00  0.63969932204E+02  0.63969932254E+02  0.25500000000E-02 0. -1.
         -1   -1    0    0    0  501 -0.00000000000E+00 -0.00000000000E+00 -0.24194278196E+02  0.24194278721E+02  0.50400000000E-02 0.  1.
         24    2    1    2    0    0 -0.17763568394E-14  0.00000000000E+00  0.39775654008E+02  0.88164210975E+02  0.78681798690E+02 0.  0.
         66    2    3    3    0    0 -0.12612997146E+02 -0.72926644434E+01  0.60817593777E+02  0.62570363179E+02  0.19999959675E+01 0.  0.
        -13    1    3    3    0    0  0.12612997146E+02  0.72926644434E+01 -0.21041939769E+02  0.25593847796E+02  0.10566000000E+00 0.  1.
         13    1    4    4    0    0 -0.95318011335E+00 -0.59878902652E+00  0.32204761454E+01  0.34131702661E+01  0.10566000000E+00 0. -1.
        -13    1    4    4    0    0 -0.39758406769E+01 -0.27496578687E+01  0.19015812565E+02  0.19620912798E+02  0.10566000000E+00 0.  1.
         14    1    4    4    0    0 -0.76839763559E+01 -0.39442175483E+01  0.38581305066E+02  0.39536280115E+02  0.00000000000E+00 0. -1.
<mgrwt>
<rscale>  0 0.78681799E+02</rscale>
<asrwt>0</asrwt>
<pdfrwt beam="1">  1        2 0.98415279E-02 0.78681799E+02</pdfrwt>
<pdfrwt beam="2">  1       -1 0.37221968E-02 0.78681799E+02</pdfrwt>
<totfact> 0.16529100E+05</totfact>
</mgrwt>
</event>
<event>
 8    1  0.2676873E-020  0.8044078E+02  0.7818608E-02  0.1327805E+00
          2   -1    0    0  501    0  0.00000000000E+00  0.00000000000E+00  0.17236205752E+04  0.17236205752E+04  0.25500000000E-02 0. -1.
         -1   -1    0    0    0  501 -0.00000000000E+00 -0.00000000000E+00 -0.93852911556E+00  0.93854264812E+00  0.50400000000E-02 0.  1.
         24    2    1    2    0    0 -0.27755575616E-16  0.00000000000E+00  0.17226820461E+04  0.17245591179E+04  0.80440779820E+02 0.  0.
         66    2    3    3    0    0  0.14331070728E+00  0.20739773362E+02  0.16000405371E+04  0.16001762025E+04  0.19999999744E+01 0.  0.
        -13    1    3    3    0    0 -0.14331070728E+00 -0.20739773362E+02  0.12264150905E+03  0.12438291540E+03  0.10566000000E+00 0.  1.
         13    1    4    4    0    0 -0.17359648862E+00  0.10058441385E+02  0.76651190900E+03  0.76657792832E+03  0.10566000000E+00 0. -1.
        -13    1    4    4    0    0 -0.39469290352E+00  0.70899497340E+01  0.56867581217E+03  0.56872015410E+03  0.10566000000E+00 0. -1.
         14    1    4    4    0    0  0.71160009941E+00  0.35913822431E+01  0.26485281588E+03  0.26487812005E+03  0.00000000000E+00 0. -1.
<mgrwt>
<rscale>  0 0.80440780E+02</rscale>
<asrwt>0</asrwt>
<pdfrwt beam="1">  1        2 0.26516842E+00 0.80440780E+02</pdfrwt>
<pdfrwt beam="2">  1       -1 0.14439230E-03 0.80440780E+02</pdfrwt>
<totfact> 0.30638120E+05</totfact>
</mgrwt>
</event>
<event>
 8    1  0.2676873E-020  0.7987583E+02  0.7818608E-02  0.1329404E+00
          2   -1    0    0  501    0  0.00000000000E+00  0.00000000000E+00  0.20722949759E+02  0.20722949916E+02  0.25500000000E-02 0. -1.
         -1   -1    0    0    0  501 -0.00000000000E+00 -0.00000000000E+00 -0.76969602736E+02  0.76969602901E+02  0.50400000000E-02 0.  1.
         24    2    1    2    0    0  0.00000000000E+00  0.00000000000E+00 -0.56246652977E+02  0.97692552816E+02  0.79875834297E+02 0.  0.
         66    2    3    3    0    0 -0.35843638427E+02  0.10617802292E+01 -0.67064186546E+01  0.36535870649E+02  0.19999999811E+01 0.  0.
        -13    1    3    3    0    0  0.35843638427E+02 -0.10617802292E+01 -0.49540234322E+02  0.61156682167E+02  0.10566000000E+00 0.  1.
         13    1    4    4    0    0 -0.16800515294E+02  0.13517799800E+00 -0.34437573515E+01  0.17150691413E+02  0.10566000000E+00 0. -1.
        -13    1    4    4    0    0 -0.63347713699E+00 -0.14541083412E+00 -0.22480720621E+00  0.69580163073E+00  0.10566000000E+00 0.  1.
         14    1    4    4    0    0 -0.18409645997E+02  0.10720130653E+01 -0.30378540969E+01  0.18689377605E+02  0.00000000000E+00 0. -1.
<mgrwt>
<rscale>  0 0.79875834E+02</rscale>
<asrwt>0</asrwt>
<pdfrwt beam="1">  1        2 0.31881462E-02 0.79875834E+02</pdfrwt>
<pdfrwt beam="2">  1       -1 0.11841477E-01 0.79875834E+02</pdfrwt>
<totfact> 0.12560740E+05</totfact>
</mgrwt>
</event>
<event>
 8    1  0.2676873E-020  0.8833333E+02  0.7818608E-02  0.1306939E+00
         -1   -1    0    0    0  501 -0.00000000000E+00  0.00000000000E+00  0.83448883212E+01  0.83448898432E+01  0.50400000000E-02 0.  1.
          2   -1    0    0  501    0  0.00000000000E+00 -0.00000000000E+00 -0.23375917317E+03  0.23375917318E+03  0.25500000000E-02 0. -1.
         24    2    1    2    0    0  0.35527136788E-14  0.00000000000E+00 -0.22541428485E+03  0.24210406303E+03  0.88333331876E+02 0.  0.
         66    2    3    3    0    0  0.27812231777E+02 -0.17521420874E+02 -0.19352164660E+03  0.19630371407E+03  0.20000075828E+01 0.  0.
        -13    1    3    3    0    0 -0.27812231777E+02  0.17521420874E+02 -0.31892638251E+02  0.45800348956E+02  0.10566000000E+00 0.  1.
         13    1    4    4    0    0  0.19725271189E+02 -0.12255437106E+02 -0.13889308200E+03  0.14082109733E+03  0.10566000000E+00 0. -1.
        -13    1    4    4    0    0  0.66906581720E+01 -0.39272486236E+01 -0.44368420228E+02  0.45041714733E+02  0.10566000000E+00 0. -1.
         14    1    4    4    0    0  0.13963024157E+01 -0.13387351442E+01 -0.10260144371E+02  0.10440902008E+02  0.00000000000E+00 0. -1.
<mgrwt>
<rscale>  0 0.88333332E+02</rscale>
<asrwt>0</asrwt>
<pdfrwt beam="1">  1        2 0.35962945E-01 0.88333332E+02</pdfrwt>
<pdfrwt beam="2">  1       -1 0.12838293E-02 0.88333332E+02</pdfrwt>
<totfact> 0.17929943E+05</totfact>
</mgrwt>
</event>
<event>
 8    1  0.2676873E-020  0.7974856E+02  0.7818608E-02  0.1329767E+00
          2   -1    0    0  501    0  0.00000000000E+00  0.00000000000E+00  0.22220801940E+03  0.22220801942E+03  0.25500000000E-02 0. -1.
         -1   -1    0    0    0  501 -0.00000000000E+00 -0.00000000000E+00 -0.71552678243E+01  0.71552695994E+01  0.50400000000E-02 0.  1.
         24    2    1    2    0    0 -0.88817841970E-15  0.35527136788E-14  0.21505275158E+03  0.22936328902E+03  0.79748557273E+02 0.  0.
         66    2    3    3    0    0 -0.74669525674E+01 -0.20302719139E+02  0.20384577309E+03  0.20500013413E+03  0.20000005288E+01 0.  0.
        -13    1    3    3    0    0  0.74669525674E+01  0.20302719139E+02  0.11206978489E+02  0.24363154886E+02  0.10566000000E+00 0.  1.
         13    1    4    4    0    0 -0.16114970441E+01 -0.70614424464E+01  0.67523198147E+02  0.67910634986E+02  0.10566000000E+00 0. -1.
        -13    1    4    4    0    0 -0.32069095482E+01 -0.70095969783E+01  0.72127852000E+02  0.72538658085E+02  0.10566000000E+00 0.  1.
         14    1    4    4    0    0 -0.26485459752E+01 -0.62316797147E+01  0.64194722945E+02  0.64550841062E+02  0.00000000000E+00 0. -1.
<mgrwt>
<rscale>  0 0.79748557E+02</rscale>
<asrwt>0</asrwt>
<pdfrwt beam="1">  1        2 0.34185848E-01 0.79748557E+02</pdfrwt>
<pdfrwt beam="2">  1       -1 0.11008106E-02 0.79748557E+02</pdfrwt>
<totfact> 0.23078328E+05</totfact>
</mgrwt>
</event>
<event>
 8    1  0.2676873E-020  0.8368550E+02  0.7818608E-02  0.1318906E+00
          2   -1    0    0  501    0  0.00000000000E+00  0.00000000000E+00  0.47383726376E+02  0.47383726444E+02  0.25500000000E-02 0. -1.
         -1   -1    0    0    0  501 -0.00000000000E+00 -0.00000000000E+00 -0.36949722930E+02  0.36949723274E+02  0.50400000000E-02 0.  1.
         24    2    1    2    0    0 -0.17763568394E-14  0.00000000000E+00  0.10434003445E+02  0.84333449718E+02  0.83685496435E+02 0.  0.
         66    2    3    3    0    0 -0.15362875331E+02 -0.27557060553E+02  0.32880648450E+02  0.45613008596E+02  0.19999964845E+01 0.  0.
        -13    1    3    3    0    0  0.15362875331E+02  0.27557060553E+02 -0.22446645005E+02  0.38720441123E+02  0.10566000000E+00 0.  1.
         13    1    4    4    0    0 -0.93519118025E+01 -0.15963419492E+02  0.20078911068E+02  0.27303165567E+02  0.10566000000E+00 0. -1.
        -13    1    4    4    0    0 -0.43323527482E+01 -0.74802035513E+01  0.82681075503E+01  0.11962252798E+02  0.10566000000E+00 0.  1.
         14    1    4    4    0    0 -0.16786107802E+01 -0.41134375093E+01  0.45336298313E+01  0.63475902311E+01  0.00000000000E+00 0. -1.
<mgrwt>
<rscale>  0 0.83685496E+02</rscale>
<asrwt>0</asrwt>
<pdfrwt beam="1">  1        2 0.72898040E-02 0.83685496E+02</pdfrwt>
<pdfrwt beam="2">  1       -1 0.56845729E-02 0.83685496E+02</pdfrwt>
<totfact> 0.13047503E+05</totfact>
</mgrwt>
</event>
<event>
 8    1  0.2802100E-020  0.7922758E+02  0.7818608E-02  0.1331258E+00
          2   -1    0    0  501    0  0.00000000000E+00  0.00000000000E+00  0.41932958283E+03  0.41932958284E+03  0.25500000000E-02 0. -1.
         -1   -1    0    0    0  501 -0.00000000000E+00 -0.00000000000E+00 -0.37422872639E+01  0.37422906578E+01  0.50400000000E-02 0.  1.
         24    2    1    2    0    0  0.00000000000E+00  0.00000000000E+00  0.41558729557E+03  0.42307187350E+03  0.79227582995E+02 0.  0.
         66    2    3    3    0    0  0.11730882809E+02 -0.47780864894E+01  0.40821350221E+03  0.40841487127E+03  0.19999899802E+01 0.  0.
        -13    1    3    3    0    0 -0.11730882809E+02  0.47780864894E+01  0.73737933572E+01  0.14657002234E+02  0.10566000000E+00 0.  1.
         13    1    4    4    0    0  0.63458296280E+01 -0.25610924822E+01  0.20566890690E+03  0.20578274752E+03  0.10566000000E+00 0. -1.
        -13    1    4    4    0    0  0.26005694975E+01 -0.13494912186E+01  0.82412310317E+02  0.82464441695E+02  0.10566000000E+00 0.  1.
        -14    1    4    4    0    0  0.27844836836E+01 -0.86750278852E+00  0.12013228499E+03  0.12016768205E+03  0.00000000000E+00 0.  1.
<mgrwt>
<rscale>  0 0.79227583E+02</rscale>
<asrwt>0</asrwt>
<pdfrwt beam="1">  1        2 0.64512268E-01 0.79227583E+02</pdfrwt>
<pdfrwt beam="2">  1       -1 0.57573655E-03 0.79227583E+02</pdfrwt>
<totfact> 0.29456729E+05</totfact>
</mgrwt>
</event>
<event>
 8    1  0.2676873E-020  0.7761564E+02  0.7818608E-02  0.1335957E+00
         -1   -1    0    0    0  501 -0.00000000000E+00  0.00000000000E+00  0.37218098805E+01  0.37218132931E+01  0.50400000000E-02 0.  1.
          2   -1    0    0  501    0  0.00000000000E+00 -0.00000000000E+00 -0.40465428085E+03  0.40465428086E+03  0.25500000000E-02 0. -1.
         24    2    1    2    0    0  0.00000000000E+00  0.00000000000E+00 -0.40093247097E+03  0.40837609415E+03  0.77615642731E+02 0.  0.
         66    2    3    3    0    0 -0.23866522685E+02  0.13985352231E+02 -0.34361561295E+03  0.34473307128E+03  0.19999984169E+01 0.  0.
        -13    1    3    3    0    0  0.23866522685E+02 -0.13985352231E+02 -0.57316858026E+02  0.63643022871E+02  0.10566000000E+00 0.  1.
         13    1    4    4    0    0 -0.11111123543E+02  0.66478080291E+01 -0.17176584990E+03  0.17225321121E+03  0.10566000000E+00 0. -1.
        -13    1    4    4    0    0 -0.97941357457E+01  0.53190277878E+01 -0.13021280061E+03  0.13068895041E+03  0.10566000000E+00 0.  1.
         14    1    4    4    0    0 -0.29612633972E+01  0.20185164143E+01 -0.41636962442E+02  0.41790909667E+02  0.00000000000E+00 0. -1.
<mgrwt>
<rscale>  0 0.77615643E+02</rscale>
<asrwt>0</asrwt>
<pdfrwt beam="1">  1        2 0.62254470E-01 0.77615643E+02</pdfrwt>
<pdfrwt beam="2">  1       -1 0.57258672E-03 0.77615643E+02</pdfrwt>
<totfact> 0.30697139E+05</totfact>
</mgrwt>
</event>
<event>
 8    1  0.2676873E-020  0.8149755E+02  0.7818608E-02  0.1324855E+00
         -1   -1    0    0    0  501 -0.00000000000E+00  0.00000000000E+00  0.37917325114E+02  0.37917325449E+02  0.50400000000E-02 0.  1.
          2   -1    0    0  501    0  0.00000000000E+00 -0.00000000000E+00 -0.43791659462E+02  0.43791659536E+02  0.25500000000E-02 0. -1.
         24    2    1    2    0    0  0.00000000000E+00  0.00000000000E+00 -0.58743343478E+01  0.81708984985E+02  0.81497548572E+02 0.  0.
         66    2    3    3    0    0  0.59024810514E+01 -0.82756717982E+01 -0.42476398719E+02  0.43721509331E+02  0.19999759382E+01 0.  0.
        -13    1    3    3    0    0 -0.59024810514E+01  0.82756717982E+01  0.36602064371E+02  0.37987475654E+02  0.10566000000E+00 0.  1.
         13    1    4    4    0    0  0.20764015939E+01 -0.24173172182E+01 -0.12623608130E+02  0.13020042718E+02  0.10566000000E+00 0. -1.
        -13    1    4    4    0    0  0.77569177383E+00 -0.11436962128E+01 -0.36630617260E+01  0.39164938400E+01  0.10566000000E+00 0.  1.
        -14    1    4    4    0    0  0.30503876837E+01 -0.47146583672E+01 -0.26189728863E+02  0.26784972773E+02  0.00000000000E+00 0.  1.
<mgrwt>
<rscale>  0 0.81497549E+02</rscale>
<asrwt>0</asrwt>
<pdfrwt beam="1">  1        2 0.67371784E-02 0.81497549E+02</pdfrwt>
<pdfrwt beam="2">  1       -1 0.58334347E-02 0.81497549E+02</pdfrwt>
<totfact> 0.13801550E+05</totfact>
</mgrwt>
</event>
<event>
 8    1  0.2676873E-020  0.7912051E+02  0.7818608E-02  0.1331566E+00
         -1   -1    0    0    0  501 -0.00000000000E+00  0.00000000000E+00  0.11231441376E+02  0.11231442507E+02  0.50400000000E-02 0.  1.
          2   -1    0    0  501    0  0.00000000000E+00 -0.00000000000E+00 -0.13934220403E+03  0.13934220405E+03  0.25500000000E-02 0. -1.
         24    2    1    2    0    0  0.00000000000E+00  0.00000000000E+00 -0.12811076265E+03  0.15057364656E+03  0.79120512705E+02 0.  0.
         66    2    3    3    0    0 -0.20631071425E+02 -0.33710724007E+02 -0.62236494353E+02  0.73752527007E+02  0.19999973337E+01 0.  0.
        -13    1    3    3    0    0  0.20631071425E+02  0.33710724007E+02 -0.65874268296E+02  0.76821119549E+02  0.10566000000E+00 0.  1.
         13    1    4    4    0    0 -0.11129132532E+02 -0.18659577446E+02 -0.33338147469E+02  0.39792972522E+02  0.10566000000E+00 0. -1.
        -13    1    4    4    0    0 -0.70314152484E+01 -0.10550725466E+02 -0.21334276452E+02  0.24817758239E+02  0.10566000000E+00 0.  1.
        -14    1    4    4    0    0 -0.24705236448E+01 -0.45004210948E+01 -0.75640704316E+01  0.91417962460E+01  0.00000000000E+00 0.  1.
<mgrwt>
<rscale>  0 0.79120513E+02</rscale>
<asrwt>0</asrwt>
<pdfrwt beam="1">  1        2 0.21437261E-01 0.79120513E+02</pdfrwt>
<pdfrwt beam="2">  1       -1 0.17279142E-02 0.79120513E+02</pdfrwt>
<totfact> 0.20148013E+05</totfact>
</mgrwt>
</event>
<event>
 8    1  0.2676873E-020  0.7983657E+02  0.7818608E-02  0.1329516E+00
          2   -1    0    0  501    0  0.00000000000E+00  0.00000000000E+00  0.57660013424E+03  0.57660013425E+03  0.25500000000E-02 0. -1.
         -1   -1    0    0    0  501 -0.00000000000E+00 -0.00000000000E+00 -0.27635582094E+01  0.27635628052E+01  0.50400000000E-02 0.  1.
         24    2    1    2    0    0 -0.35527136788E-14  0.00000000000E+00  0.57383657603E+03  0.57936369705E+03  0.79836567247E+02 0.  0.
         66    2    3    3    0    0 -0.17576799377E+02  0.33968328557E+02  0.36941558730E+03  0.37139556723E+03  0.20000001626E+01 0.  0.
        -13    1    3    3    0    0  0.17576799377E+02 -0.33968328557E+02  0.20442098873E+03  0.20796812982E+03  0.10566000000E+00 0.  1.
         13    1    4    4    0    0 -0.15099720180E+01  0.37058728043E+01  0.35105335064E+02  0.35332834909E+02  0.10566000000E+00 0. -1.
        -13    1    4    4    0    0 -0.23540397230E+01  0.48192283562E+01  0.49774929704E+02  0.50063172652E+02  0.10566000000E+00 0.  1.
         14    1    4    4    0    0 -0.13712787636E+02  0.25443227396E+02  0.28453532253E+03  0.28599955967E+03  0.00000000000E+00 0. -1.
<mgrwt>
<rscale>  0 0.79836567E+02</rscale>
<asrwt>0</asrwt>
<pdfrwt beam="1">  1        2 0.88707745E-01 0.79836567E+02</pdfrwt>
<pdfrwt beam="2">  1       -1 0.42516300E-03 0.79836567E+02</pdfrwt>
<totfact> 0.31972358E+05</totfact>
</mgrwt>
</event>
<event>
 8    1  0.2676873E-020  0.7234935E+02  0.7818608E-02  0.1352281E+00
         -1   -1    0    0    0  501 -0.00000000000E+00  0.00000000000E+00  0.23176364536E+03  0.23176364542E+03  0.50400000000E-02 0.  1.
          2   -1    0    0  501    0  0.00000000000E+00 -0.00000000000E+00 -0.56463005323E+01  0.56463011081E+01  0.25500000000E-02 0. -1.
         24    2    1    2    0    0 -0.35527136788E-14 -0.35527136788E-14  0.22611734483E+03  0.23740994652E+03  0.72349354359E+02 0.  0.
         66    2    3    3    0    0  0.27825329545E+02  0.22508882660E+02  0.96508327489E+02  0.10295025999E+03  0.19999986166E+01 0.  0.
        -13    1    3    3    0    0 -0.27825329545E+02 -0.22508882660E+02  0.12960901734E+03  0.13445968653E+03  0.10566000000E+00 0.  1.
         13    1    4    4    0    0  0.11494883643E+02  0.86665417950E+01  0.36987990277E+02  0.39690853927E+02  0.10566000000E+00 0. -1.
        -13    1    4    4    0    0  0.53735359031E+01  0.45115542235E+01  0.18326143328E+02  0.19623651621E+02  0.10566000000E+00 0.  1.
        -14    1    4    4    0    0  0.10956909999E+02  0.93307866413E+01  0.41194193884E+02  0.43635754443E+02  0.00000000000E+00 0.  1.
<mgrwt>
<rscale>  0 0.72349354E+02</rscale>
<asrwt>0</asrwt>
<pdfrwt beam="1">  1        2 0.86866168E-03 0.72349354E+02</pdfrwt>
<pdfrwt beam="2">  1       -1 0.35655945E-01 0.72349354E+02</pdfrwt>
<totfact> 0.12275533E+05</totfact>
</mgrwt>
</event>
<event>
 8    1  0.2676873E-020  0.7341115E+02  0.7818608E-02  0.1348863E+00
         -1   -1    0    0    0  501 -0.00000000000E+00  0.00000000000E+00  0.18704884053E+02  0.18704884732E+02  0.50400000000E-02 0.  1.
          2   -1    0    0  501    0  0.00000000000E+00 -0.00000000000E+00 -0.72029273108E+02  0.72029273153E+02  0.25500000000E-02 0. -1.
         24    2    1    2    0    0  0.00000000000E+00  0.00000000000E+00 -0.53324389055E+02  0.90734157885E+02  0.73411149963E+02 0.  0.
         66    2    3    3    0    0  0.11835909987E+02 -0.63664796974E+01 -0.68862348076E+02  0.70190054996E+02  0.20000022215E+01 0.  0.
        -13    1    3    3    0    0 -0.11835909987E+02  0.63664796974E+01  0.15537959020E+02  0.20544102889E+02  0.10566000000E+00 0.  1.
         13    1    4    4    0    0  0.22764825497E+01 -0.11603447485E+01 -0.13543470560E+02  0.13782798394E+02  0.10566000000E+00 0. -1.
        -13    1    4    4    0    0  0.96356962035E+01 -0.51428489928E+01 -0.54963562531E+02  0.56038378878E+02  0.10566000000E+00 0.  1.
        -14    1    4    4    0    0 -0.76268766358E-01 -0.63285956033E-01 -0.35531498419E+00  0.36887772357E+00  0.00000000000E+00 0.  1.
<mgrwt>
<rscale>  0 0.73411150E+02</rscale>
<asrwt>0</asrwt>
<pdfrwt beam="1">  1        2 0.11081426E-01 0.73411150E+02</pdfrwt>
<pdfrwt beam="2">  1       -1 0.28776746E-02 0.73411150E+02</pdfrwt>
<totfact> 0.20485920E+05</totfact>
</mgrwt>
</event>
<event>
 8    1  0.2676873E-020  0.7800012E+02  0.7818608E-02  0.1334825E+00
         -1   -1    0    0    0  501 -0.00000000000E+00  0.00000000000E+00  0.71654060321E+02  0.71654060499E+02  0.50400000000E-02 0.  1.
          2   -1    0    0  501    0  0.00000000000E+00 -0.00000000000E+00 -0.21227056188E+02  0.21227056342E+02  0.25500000000E-02 0. -1.
         24    2    1    2    0    0  0.00000000000E+00 -0.17763568394E-14  0.50427004133E+02  0.92881116840E+02  0.78000122562E+02 0.  0.
         66    2    3    3    0    0  0.34277041934E+02  0.14066188543E+02  0.10830602587E+02  0.38653269351E+02  0.20000038253E+01 0.  0.
        -13    1    3    3    0    0 -0.34277041934E+02 -0.14066188543E+02  0.39596401546E+02  0.54227847489E+02  0.10566000000E+00 0.  1.
         13    1    4    4    0    0  0.20064717563E+02  0.76149134158E+01  0.62074993438E+01  0.22341083442E+02  0.10566000000E+00 0. -1.
        -13    1    4    4    0    0  0.74456461000E+01  0.36132927674E+01  0.19556171872E+01  0.85046536136E+01  0.10566000000E+00 0.  1.
        -14    1    4    4    0    0  0.67666782705E+01  0.28379823603E+01  0.26674860562E+01  0.78075322960E+01  0.00000000000E+00 0.  1.
<mgrwt>
<rscale>  0 0.78000123E+02</rscale>
<asrwt>0</asrwt>
<pdfrwt beam="1">  1        2 0.32657010E-02 0.78000123E+02</pdfrwt>
<pdfrwt beam="2">  1       -1 0.11023702E-01 0.78000123E+02</pdfrwt>
<totfact> 0.13506793E+05</totfact>
</mgrwt>
</event>
<event>
 8    1  0.2676873E-020  0.7916973E+02  0.7818608E-02  0.1331424E+00
         -1   -1    0    0    0  501 -0.00000000000E+00  0.00000000000E+00  0.40678735032E+01  0.40678766254E+01  0.50400000000E-02 0.  1.
          2   -1    0    0  501    0  0.00000000000E+00 -0.00000000000E+00 -0.38520394330E+03  0.38520394331E+03  0.25500000000E-02 0. -1.
         24    2    1    2    0    0  0.00000000000E+00 -0.44408920985E-15 -0.38113606979E+03  0.38927181993E+03  0.79169729660E+02 0.  0.
         66    2    3    3    0    0 -0.19928595616E+02  0.33381176347E+01 -0.35791289703E+03  0.35848840118E+03  0.19999924928E+01 0.  0.
        -13    1    3    3    0    0  0.19928595616E+02 -0.33381176347E+01 -0.23223172767E+02  0.30783418751E+02  0.10566000000E+00 0.  1.
         13    1    4    4    0    0 -0.78174022920E+01  0.13951139311E+01 -0.13804046592E+03  0.13826872212E+03  0.10566000000E+00 0. -1.
        -13    1    4    4    0    0 -0.37390685655E+00  0.22687520728E+00 -0.12664450150E+02  0.12672440189E+02  0.10566000000E+00 0.  1.
        -14    1    4    4    0    0 -0.11737286468E+02  0.17161284963E+01 -0.20720798096E+03  0.20754723887E+03  0.00000000000E+00 0.  1.
<mgrwt>
<rscale>  0 0.79169730E+02</rscale>
<asrwt>0</asrwt>
<pdfrwt beam="1">  1        2 0.59262117E-01 0.79169730E+02</pdfrwt>
<pdfrwt beam="2">  1       -1 0.62582724E-03 0.79169730E+02</pdfrwt>
<totfact> 0.28652248E+05</totfact>
</mgrwt>
</event>
<event>
 8    1  0.2676873E-020  0.8228553E+02  0.7818608E-02  0.1322688E+00
          2   -1    0    0  501    0  0.00000000000E+00  0.00000000000E+00  0.98837036197E+03  0.98837036197E+03  0.25500000000E-02 0. -1.
         -1   -1    0    0    0  501 -0.00000000000E+00 -0.00000000000E+00 -0.17126409246E+01  0.17126483405E+01  0.50400000000E-02 0.  1.
         24    2    1    2    0    0  0.00000000000E+00  0.00000000000E+00  0.98665772105E+03  0.99008301031E+03  0.82285532224E+02 0.  0.
         66    2    3    3    0    0  0.13603619478E+02  0.19229141354E+02  0.89914568443E+03  0.89945638036E+03  0.20000003775E+01 0.  0.
        -13    1    3    3    0    0 -0.13603619478E+02 -0.19229141354E+02  0.87512036617E+02  0.90626629955E+02  0.10566000000E+00 0.  1.
         13    1    4    4    0    0  0.10005698601E+02  0.13903150011E+02  0.64914272706E+03  0.64936869562E+03  0.10566000000E+00 0. -1.
        -13    1    4    4    0    0  0.29138845671E+01  0.39995337472E+01  0.20590191986E+03  0.20596140114E+03  0.10566000000E+00 0.  1.
         14    1    4    4    0    0  0.68403631001E+00  0.13264575960E+01  0.44101037503E+02  0.44126283599E+02  0.00000000000E+00 0. -1.
<mgrwt>
<rscale>  0 0.82285532E+02</rscale>
<asrwt>0</asrwt>
<pdfrwt beam="1">  1        2 0.15205695E+00 0.82285532E+02</pdfrwt>
<pdfrwt beam="2">  1       -1 0.26348384E-03 0.82285532E+02</pdfrwt>
<totfact> 0.32725575E+05</totfact>
</mgrwt>
</event>
<event>
 8    1  0.2676873E-020  0.7824195E+02  0.7818608E-02  0.1334116E+00
         -1   -1    0    0    0  501 -0.00000000000E+00  0.00000000000E+00  0.63917117577E+01  0.63917137447E+01  0.50400000000E-02 0.  1.
          2   -1    0    0  501    0  0.00000000000E+00 -0.00000000000E+00 -0.23944297558E+03  0.23944297559E+03  0.25500000000E-02 0. -1.
         24    2    1    2    0    0  0.00000000000E+00  0.44408920985E-15 -0.23305126382E+03  0.24583468933E+03  0.78241951105E+02 0.  0.
         66    2    3    3    0    0  0.32507633776E+02  0.33341530824E+01 -0.18403222048E+03  0.18692169752E+03  0.19999997153E+01 0.  0.
        -13    1    3    3    0    0 -0.32507633776E+02 -0.33341530824E+01 -0.49019043336E+02  0.58912991811E+02  0.10566000000E+00 0.  1.
         13    1    4    4    0    0  0.16019570536E+02  0.98817331437E+00 -0.92893544163E+02  0.94269957239E+02  0.10566000000E+00 0. -1.
        -13    1    4    4    0    0  0.32025918863E+01  0.21468688467E+00 -0.16386209387E+02  0.16697955185E+02  0.10566000000E+00 0.  1.
         14    1    4    4    0    0  0.13285471354E+02  0.21312928833E+01 -0.74752466932E+02  0.75953785099E+02  0.00000000000E+00 0. -1.
<mgrwt>
<rscale>  0 0.78241951E+02</rscale>
<asrwt>0</asrwt>
<pdfrwt beam="1">  1        2 0.36837374E-01 0.78241951E+02</pdfrwt>
<pdfrwt beam="2">  1       -1 0.98334061E-03 0.78241951E+02</pdfrwt>
<totfact> 0.24916304E+05</totfact>
</mgrwt>
</event>
<event>
 8    1  0.2676873E-020  0.7860071E+02  0.7818608E-02  0.1333070E+00
          2   -1    0    0  501    0  0.00000000000E+00  0.00000000000E+00  0.21235383000E+03  0.21235383001E+03  0.25500000000E-02 0. -1.
         -1   -1    0    0    0  501 -0.00000000000E+00 -0.00000000000E+00 -0.72733217296E+01  0.72733234758E+01  0.50400000000E-02 0.  1.
         24    2    1    2    0    0  0.00000000000E+00  0.00000000000E+00  0.20508050827E+03  0.21962715349E+03  0.78600710417E+02 0.  0.
         66    2    3    3    0    0  0.33086293020E+02  0.16887652911E+02  0.13823869380E+03  0.14315666943E+03  0.19999830964E+01 0.  0.
        -13    1    3    3    0    0 -0.33086293020E+02 -0.16887652911E+02  0.66841814472E+02  0.76470484061E+02  0.10566000000E+00 0.  1.
         13    1    4    4    0    0  0.19631485361E+02  0.10376332914E+02  0.80378875861E+02  0.83389677725E+02  0.10566000000E+00 0. -1.
        -13    1    4    4    0    0  0.19805270101E+01  0.12666780887E+01  0.98476669768E+01  0.10124952817E+02  0.10566000000E+00 0.  1.
         14    1    4    4    0    0  0.11474280649E+02  0.52446419084E+01  0.48012150957E+02  0.49642038885E+02  0.00000000000E+00 0. -1.
<mgrwt>
<rscale>  0 0.78600710E+02</rscale>
<asrwt>0</asrwt>
<pdfrwt beam="1">  1        2 0.32669819E-01 0.78600710E+02</pdfrwt>
<pdfrwt beam="2">  1       -1 0.11189728E-02 0.78600710E+02</pdfrwt>
<totfact> 0.23596527E+05</totfact>
</mgrwt>
</event>
<event>
 8    1  0.2676873E-020  0.7923019E+02  0.7818608E-02  0.1331250E+00
         -1   -1    0    0    0  501 -0.00000000000E+00  0.00000000000E+00  0.62816682936E+01  0.62816703155E+01  0.50400000000E-02 0.  1.
          2   -1    0    0  501    0  0.00000000000E+00 -0.00000000000E+00 -0.24983100255E+03  0.24983100257E+03  0.25500000000E-02 0. -1.
         24    2    1    2    0    0  0.71054273576E-14  0.17763568394E-14 -0.24354933426E+03  0.25611267288E+03  0.79230189905E+02 0.  0.
         66    2    3    3    0    0  0.33687309446E+02  0.15207487693E+02 -0.75994957518E+02  0.84530089765E+02  0.20000019857E+01 0.  0.
        -13    1    3    3    0    0 -0.33687309446E+02 -0.15207487693E+02 -0.16755437674E+03  0.17158258312E+03  0.10566000000E+00 0.  1.
         13    1    4    4    0    0  0.15846258018E+02  0.77671248916E+01 -0.36055436352E+02  0.40142717607E+02  0.10566000000E+00 0.  1.
        -13    1    4    4    0    0  0.16144254674E+02  0.69810872355E+01 -0.35701785408E+02  0.39799512350E+02  0.10566000000E+00 0. -1.
        -14    1    4    4    0    0  0.16967967536E+01  0.45927556581E+00 -0.42377357579E+01  0.45878598085E+01  0.00000000000E+00 0.  1.
<mgrwt>
<rscale>  0 0.79230190E+02</rscale>
<asrwt>0</asrwt>
<pdfrwt beam="1">  1        2 0.38435531E-01 0.79230190E+02</pdfrwt>
<pdfrwt beam="2">  1       -1 0.96641086E-03 0.79230190E+02</pdfrwt>
<totfact> 0.24476656E+05</totfact>
</mgrwt>
</event>
<event>
 8    1  0.2676873E-020  0.7258174E+02  0.7818608E-02  0.1351527E+00
          2   -1    0    0  501    0  0.00000000000E+00  0.00000000000E+00  0.10614787856E+03  0.10614787859E+03  0.25500000000E-02 0. -1.
         -1   -1    0    0    0  501 -0.00000000000E+00 -0.00000000000E+00 -0.12407476810E+02  0.12407477834E+02  0.50400000000E-02 0.  1.
         24    2    1    2    0    0  0.00000000000E+00  0.00000000000E+00  0.93740401747E+02  0.11855535642E+03  0.72581744375E+02 0.  0.
         66    2    3    3    0    0 -0.33793376352E+02  0.13036651300E+02  0.49770446931E+02  0.61587693200E+02  0.20000008995E+01 0.  0.
        -13    1    3    3    0    0  0.33793376352E+02 -0.13036651300E+02  0.43969954816E+02  0.56967663222E+02  0.10566000000E+00 0.  1.
         13    1    4    4    0    0 -0.20123656237E+02  0.76787710557E+01  0.30331548867E+02  0.37201331777E+02  0.10566000000E+00 0.  1.
        -13    1    4    4    0    0 -0.81324349726E+01  0.26070824333E+01  0.11433687116E+02  0.14271430990E+02  0.10566000000E+00 0. -1.
        -14    1    4    4    0    0 -0.55372851418E+01  0.27507978111E+01  0.80052109479E+01  0.10114930433E+02  0.00000000000E+00 0.  1.
<mgrwt>
<rscale>  0 0.72581744E+02</rscale>
<asrwt>0</asrwt>
<pdfrwt beam="1">  1        2 0.16330443E-01 0.72581744E+02</pdfrwt>
<pdfrwt beam="2">  1       -1 0.19088427E-02 0.72581744E+02</pdfrwt>
<totfact> 0.23348314E+05</totfact>
</mgrwt>
</event>
<event>
 8    1  0.2676873E-020  0.7849955E+02  0.7818608E-02  0.1333364E+00
          2   -1    0    0  501    0  0.00000000000E+00  0.00000000000E+00  0.60872420091E+03  0.60872420092E+03  0.25500000000E-02 0. -1.
         -1   -1    0    0    0  501 -0.00000000000E+00 -0.00000000000E+00 -0.25307740378E+01  0.25307790564E+01  0.50400000000E-02 0.  1.
         24    2    1    2    0    0  0.71054273576E-14  0.22204460493E-15  0.60619342688E+03  0.61125497998E+03  0.78499552593E+02 0.  0.
         66    2    3    3    0    0  0.36215028787E+02  0.19196843366E+01  0.41965871190E+03  0.42122754892E+03  0.19999996136E+01 0.  0.
        -13    1    3    3    0    0 -0.36215028787E+02 -0.19196843366E+01  0.18653471497E+03  0.19002743105E+03  0.10566000000E+00 0.  1.
         13    1    4    4    0    0  0.21745344958E+02  0.18786739949E+01  0.25205400639E+03  0.25299727814E+03  0.10566000000E+00 0. -1.
        -13    1    4    4    0    0  0.38262133880E+00 -0.30019111093E-02  0.57462954093E+01  0.57599898495E+01  0.10566000000E+00 0. -1.
        -14    1    4    4    0    0  0.14087062490E+02  0.44012252811E-01  0.16185841010E+03  0.16247028094E+03  0.00000000000E+00 0.  1.
<mgrwt>
<rscale>  0 0.78499553E+02</rscale>
<asrwt>0</asrwt>
<pdfrwt beam="1">  1        2 0.93650043E-01 0.78499553E+02</pdfrwt>
<pdfrwt beam="2">  1       -1 0.38934955E-03 0.78499553E+02</pdfrwt>
<totfact> 0.33921158E+05</totfact>
</mgrwt>
</event>
<event>
 8    1  0.2676873E-020  0.8056224E+02  0.7818608E-02  0.1327463E+00
         -1   -1    0    0    0  501 -0.00000000000E+00  0.00000000000E+00  0.15362189420E+01  0.15362272096E+01  0.50400000000E-02 0.  1.
          2   -1    0    0  501    0  0.00000000000E+00 -0.00000000000E+00 -0.10562062982E+04  0.10562062982E+04  0.25500000000E-02 0. -1.
         24    2    1    2    0    0  0.00000000000E+00  0.88817841970E-15 -0.10546700793E+04  0.10577425254E+04  0.80562236714E+02 0.  0.
         66    2    3    3    0    0 -0.24223974282E+02 -0.72226338500E+01 -0.93901232739E+03  0.93935462865E+03  0.19999996745E+01 0.  0.
        -13    1    3    3    0    0  0.24223974282E+02  0.72226338500E+01 -0.11565775189E+03  0.11838789679E+03  0.10566000000E+00 0.  1.
         13    1    4    4    0    0 -0.17633672476E+02 -0.51768957661E+01 -0.67945882810E+03  0.67970733180E+03  0.10566000000E+00 0. -1.
        -13    1    4    4    0    0 -0.46304961601E+01 -0.18740424520E+01 -0.17839184503E+03  0.17846180282E+03  0.10566000000E+00 0.  1.
         14    1    4    4    0    0 -0.19598056462E+01 -0.17169563181E+00 -0.81161654264E+02  0.81185494027E+02  0.00000000000E+00 0. -1.
<mgrwt>
<rscale>  0 0.80562237E+02</rscale>
<asrwt>0</asrwt>
<pdfrwt beam="1">  1        2 0.16249270E+00 0.80562237E+02</pdfrwt>
<pdfrwt beam="2">  1       -1 0.23634286E-03 0.80562237E+02</pdfrwt>
<totfact> 0.34637620E+05</totfact>
</mgrwt>
</event>
<event>
 8    1  0.2676873E-020  0.8065354E+02  0.7818608E-02  0.1327207E+00
          2   -1    0    0  501    0  0.00000000000E+00  0.00000000000E+00  0.16882097559E+02  0.16882097752E+02  0.25500000000E-02 0. -1.
         -1   -1    0    0    0  501 -0.00000000000E+00 -0.00000000000E+00 -0.96329763516E+02  0.96329763648E+02  0.50400000000E-02 0.  1.
         24    2    1    2    0    0  0.00000000000E+00  0.71054273576E-14 -0.79447665957E+02  0.11321186140E+03  0.80653542610E+02 0.  0.
         66    2    3    3    0    0  0.98946650160E+01 -0.35767120870E+02 -0.17685279614E+02  0.41157750748E+02  0.20000001153E+01 0.  0.
        -13    1    3    3    0    0 -0.98946650160E+01  0.35767120870E+02 -0.61762386342E+02  0.72054110652E+02  0.10566000000E+00 0.  1.
         13    1    4    4    0    0  0.81051167120E+01 -0.26522355186E+02 -0.12746056561E+02  0.30522145459E+02  0.10566000000E+00 0. -1.
        -13    1    4    4    0    0  0.75761114400E+00 -0.35539568037E+01 -0.18746226826E+01  0.40902271142E+01  0.10566000000E+00 0. -1.
         14    1    4    4    0    0  0.10319371600E+01 -0.56908088806E+01 -0.30646003710E+01  0.65453781748E+01  0.00000000000E+00 0. -1.
<mgrwt>
<rscale>  0 0.80653543E+02</rscale>
<asrwt>0</asrwt>
<pdfrwt beam="1">  1        2 0.25972458E-02 0.80653543E+02</pdfrwt>
<pdfrwt beam="2">  1       -1 0.14819963E-01 0.80653543E+02</pdfrwt>
<totfact> 0.11708336E+05</totfact>
</mgrwt>
</event>
<event>
 8    1  0.2676873E-020  0.7980685E+02  0.7818608E-02  0.1329600E+00
          2   -1    0    0  501    0  0.00000000000E+00  0.00000000000E+00  0.26251389239E+03  0.26251389240E+03  0.25500000000E-02 0. -1.
         -1   -1    0    0    0  501 -0.00000000000E+00 -0.00000000000E+00 -0.60655194961E+01  0.60655215900E+01  0.50400000000E-02 0.  1.
         24    2    1    2    0    0  0.00000000000E+00 -0.17763568394E-14  0.25644837289E+03  0.26857941399E+03  0.79806852215E+02 0.  0.
         66    2    3    3    0    0 -0.39540915552E+02  0.49007698811E+01  0.12269641935E+03  0.12901904071E+03  0.19999994648E+01 0.  0.
        -13    1    3    3    0    0  0.39540915552E+02 -0.49007698811E+01  0.13375195354E+03  0.13956037328E+03  0.10566000000E+00 0.  1.
         13    1    4    4    0    0 -0.46212011938E+01  0.39128398652E+00  0.15903707748E+02  0.16566462743E+02  0.10566000000E+00 0. -1.
        -13    1    4    4    0    0 -0.35006221400E+01  0.46371394302E+00  0.11741446534E+02  0.12261407616E+02  0.10566000000E+00 0.  1.
         14    1    4    4    0    0 -0.31419092218E+02  0.40457719516E+01  0.95051265064E+02  0.10019117035E+03  0.00000000000E+00 0. -1.
<mgrwt>
<rscale>  0 0.79806852E+02</rscale>
<asrwt>0</asrwt>
<pdfrwt beam="1">  1        2 0.40386762E-01 0.79806852E+02</pdfrwt>
<pdfrwt beam="2">  1       -1 0.93315681E-03 0.79806852E+02</pdfrwt>
<totfact> 0.24446279E+05</totfact>
</mgrwt>
</event>
<event>
 8    1  0.2676873E-020  0.8218576E+02  0.7818608E-02  0.1322961E+00
          2   -1    0    0  501    0  0.00000000000E+00  0.00000000000E+00  0.94914679567E+02  0.94914679601E+02  0.25500000000E-02 0. -1.
         -1   -1    0    0    0  501 -0.00000000000E+00 -0.00000000000E+00 -0.17790977713E+02  0.17790978426E+02  0.50400000000E-02 0.  1.
         24    2    1    2    0    0 -0.71054273576E-14  0.00000000000E+00  0.77123701854E+02  0.11270565803E+03  0.82185764970E+02 0.  0.
         66    2    3    3    0    0 -0.36870179402E+02 -0.47904545336E+01  0.62505250546E+02  0.72754827417E+02  0.19999957169E+01 0.  0.
        -13    1    3    3    0    0  0.36870179402E+02  0.47904545336E+01  0.14618451308E+02  0.39950830611E+02  0.10566000000E+00 0.  1.
         13    1    4    4    0    0 -0.85131233942E+01 -0.11979116175E+01  0.15332933093E+02  0.17578915309E+02  0.10566000000E+00 0. -1.
        -13    1    4    4    0    0 -0.48684813176E+01 -0.11480660172E+01  0.85147851254E+01  0.98758744265E+01  0.10566000000E+00 0.  1.
         14    1    4    4    0    0 -0.23488574690E+02 -0.24444768990E+01  0.38657532327E+02  0.45300037681E+02  0.00000000000E+00 0. -1.
<mgrwt>
<rscale>  0 0.82185765E+02</rscale>
<asrwt>0</asrwt>
<pdfrwt beam="1">  1        2 0.14602258E-01 0.82185765E+02</pdfrwt>
<pdfrwt beam="2">  1       -1 0.27370736E-02 0.82185765E+02</pdfrwt>
<totfact> 0.16250639E+05</totfact>
</mgrwt>
</event>
<event>
 8    1  0.2676873E-020  0.7946992E+02  0.7818608E-02  0.1330562E+00
          2   -1    0    0  501    0  0.00000000000E+00  0.00000000000E+00  0.45326555450E+02  0.45326555522E+02  0.25500000000E-02 0. -1.
         -1   -1    0    0    0  501 -0.00000000000E+00 -0.00000000000E+00 -0.34833159258E+02  0.34833159622E+02  0.50400000000E-02 0.  1.
         24    2    1    2    0    0  0.35527136788E-14  0.00000000000E+00  0.10493396192E+02  0.80159715144E+02  0.79469922413E+02 0.  0.
         66    2    3    3    0    0 -0.23634700239E+02  0.61036862602E+01  0.36842925668E+02  0.44240877343E+02  0.20000037334E+01 0.  0.
        -13    1    3    3    0    0  0.23634700239E+02 -0.61036862602E+01 -0.26349529476E+02  0.35918837801E+02  0.10566000000E+00 0.  1.
         13    1    4    4    0    0 -0.10391834026E+02  0.26614989601E+01  0.17042211356E+02  0.20137574905E+02  0.10566000000E+00 0. -1.
        -13    1    4    4    0    0 -0.19239042679E+01  0.66502173990E-01  0.29989111179E+01  0.35651735021E+01  0.10566000000E+00 0.  1.
        -14    1    4    4    0    0 -0.11318961945E+02  0.33756851262E+01  0.16801803194E+02  0.20538128935E+02  0.00000000000E+00 0.  1.
<mgrwt>
<rscale>  0 0.79469922E+02</rscale>
<asrwt>0</asrwt>
<pdfrwt beam="1">  1        2 0.69733162E-02 0.79469922E+02</pdfrwt>
<pdfrwt beam="2">  1       -1 0.53589476E-02 0.79469922E+02</pdfrwt>
<totfact> 0.14901399E+05</totfact>
</mgrwt>
</event>
<event>
 8    1  0.2676873E-020  0.7998277E+02  0.7818608E-02  0.1329100E+00
          2   -1    0    0  501    0  0.00000000000E+00  0.00000000000E+00  0.16578845697E+03  0.16578845699E+03  0.25500000000E-02 0. -1.
         -1   -1    0    0    0  501 -0.00000000000E+00 -0.00000000000E+00 -0.96466945912E+01  0.96466959078E+01  0.50400000000E-02 0.  1.
         24    2    1    2    0    0 -0.71054273576E-14  0.17763568394E-14  0.15614176238E+03  0.17543515290E+03  0.79982766354E+02 0.  0.
         66    2    3    3    0    0 -0.35585851170E+02  0.10002201516E+02  0.11144996295E+03  0.11743717932E+03  0.20000017882E+01 0.  0.
        -13    1    3    3    0    0  0.35585851170E+02 -0.10002201516E+02  0.44691799434E+02  0.57997973580E+02  0.10566000000E+00 0.  1.
         13    1    4    4    0    0 -0.20947354221E+02  0.55430249485E+01  0.62799958949E+02  0.66433145209E+02  0.10566000000E+00 0. -1.
        -13    1    4    4    0    0 -0.76444262555E+01  0.22295643472E+01  0.24313306146E+02  0.25584296545E+02  0.10566000000E+00 0.  1.
        -14    1    4    4    0    0 -0.69940706936E+01  0.22296122200E+01  0.24336697855E+02  0.25419737568E+02  0.00000000000E+00 0.  1.
<mgrwt>
<rscale>  0 0.79982766E+02</rscale>
<asrwt>0</asrwt>
<pdfrwt beam="1">  1        2 0.25505916E-01 0.79982766E+02</pdfrwt>
<pdfrwt beam="2">  1       -1 0.14841070E-02 0.79982766E+02</pdfrwt>
<totfact> 0.20707820E+05</totfact>
</mgrwt>
</event>
<event>
 8    1  0.2676873E-020  0.7701389E+02  0.7818608E-02  0.1337746E+00
          2   -1    0    0  501    0  0.00000000000E+00  0.00000000000E+00  0.10921377285E+03  0.10921377288E+03  0.25500000000E-02 0. -1.
         -1   -1    0    0    0  501 -0.00000000000E+00 -0.00000000000E+00 -0.13576903140E+02  0.13576904075E+02  0.50400000000E-02 0.  1.
         24    2    1    2    0    0  0.35527136788E-14 -0.17763568394E-14  0.95636869710E+02  0.12279067695E+03  0.77013891598E+02 0.  0.
         66    2    3    3    0    0  0.22526393118E+02 -0.11182886269E+02  0.94287911397E+02  0.97604843938E+02  0.19999980630E+01 0.  0.
        -13    1    3    3    0    0 -0.22526393118E+02  0.11182886269E+02  0.13489583131E+01  0.25185833017E+02  0.10566000000E+00 0.  1.
         13    1    4    4    0    0  0.58187001271E+01 -0.31200662956E+01  0.22962577908E+02  0.23893162894E+02  0.10566000000E+00 0. -1.
        -13    1    4    4    0    0  0.21751605237E+01 -0.61111674760E+00  0.95175578170E+01  0.97826304141E+01  0.10566000000E+00 0.  1.
         14    1    4    4    0    0  0.14532532467E+02 -0.74517032262E+01  0.61807775672E+02  0.63929050630E+02  0.00000000000E+00 0. -1.
<mgrwt>
<rscale>  0 0.77013892E+02</rscale>
<asrwt>0</asrwt>
<pdfrwt beam="1">  1        2 0.16802120E-01 0.77013892E+02</pdfrwt>
<pdfrwt beam="2">  1       -1 0.20887543E-02 0.77013892E+02</pdfrwt>
<totfact> 0.20116855E+05</totfact>
</mgrwt>
</event>
<event>
 8    1  0.2676873E-020  0.8014934E+02  0.7818608E-02  0.1328628E+00
          2   -1    0    0  501    0  0.00000000000E+00  0.00000000000E+00  0.40441200295E+03  0.40441200296E+03  0.25500000000E-02 0. -1.
         -1   -1    0    0    0  501 -0.00000000000E+00 -0.00000000000E+00 -0.39711444654E+01  0.39711476636E+01  0.50400000000E-02 0.  1.
         24    2    1    2    0    0 -0.11102230246E-15  0.00000000000E+00  0.40044085848E+03  0.40838315062E+03  0.80149339160E+02 0.  0.
         66    2    3    3    0    0  0.57638020951E+00 -0.21669100174E+02  0.37193477311E+03  0.37257127852E+03  0.20000017996E+01 0.  0.
        -13    1    3    3    0    0 -0.57638020951E+00  0.21669100174E+02  0.28506085368E+02  0.35811872103E+02  0.10566000000E+00 0.  1.
         13    1    4    4    0    0  0.57791413312E+00 -0.18728885310E+02  0.33013698842E+03  0.33066833447E+03  0.10566000000E+00 0. -1.
        -13    1    4    4    0    0  0.14856322212E+00 -0.23601446305E+01  0.33057504729E+02  0.33142150453E+02  0.10566000000E+00 0.  1.
        -14    1    4    4    0    0 -0.15009714572E+00 -0.58007023288E+00  0.87402799606E+01  0.87607935952E+01  0.00000000000E+00 0.  1.
<mgrwt>
<rscale>  0 0.80149339E+02</rscale>
<asrwt>0</asrwt>
<pdfrwt beam="1">  1        2 0.62217203E-01 0.80149339E+02</pdfrwt>
<pdfrwt beam="2">  1       -1 0.61094583E-03 0.80149339E+02</pdfrwt>
<totfact> 0.28224151E+05</totfact>
</mgrwt>
</event>
<event>
 8    1  0.2676873E-020  0.7983492E+02  0.7818608E-02  0.1329521E+00
          2   -1    0    0  501    0  0.00000000000E+00  0.00000000000E+00  0.58586615370E+02  0.58586615426E+02  0.25500000000E-02 0. -1.
         -1   -1    0    0    0  501 -0.00000000000E+00 -0.00000000000E+00 -0.27197396716E+02  0.27197397183E+02  0.50400000000E-02 0.  1.
         24    2    1    2    0    0  0.00000000000E+00  0.35527136788E-14  0.31389218655E+02  0.85784012609E+02  0.79834915742E+02 0.  0.
         66    2    3    3    0    0  0.15559009597E+01  0.31050678704E+02 -0.11154916549E+02  0.33090748522E+02  0.19999997005E+01 0.  0.
        -13    1    3    3    0    0 -0.15559009597E+01 -0.31050678704E+02  0.42544135204E+02  0.52693264086E+02  0.10566000000E+00 0.  1.
         13    1    4    4    0    0  0.23396932819E+00  0.20640737023E+02 -0.74354261656E+01  0.21940635652E+02  0.10566000000E+00 0. -1.
        -13    1    4    4    0    0  0.43027007876E+00  0.40188343511E+01 -0.17262179295E+01  0.43962659449E+01  0.10566000000E+00 0.  1.
         14    1    4    4    0    0  0.89166155273E+00  0.63911073292E+01 -0.19932724541E+01  0.67538469256E+01  0.00000000000E+00 0. -1.
<mgrwt>
<rscale>  0 0.79834916E+02</rscale>
<asrwt>0</asrwt>
<pdfrwt beam="1">  1        2 0.90133253E-02 0.79834916E+02</pdfrwt>
<pdfrwt beam="2">  1       -1 0.41842150E-02 0.79834916E+02</pdfrwt>
<totfact> 0.15568394E+05</totfact>
</mgrwt>
</event>
<event>
 8    1  0.2676873E-020  0.8407363E+02  0.7818608E-02  0.1317873E+00
          2   -1    0    0  501    0  0.00000000000E+00  0.00000000000E+00  0.29794133968E+03  0.29794133969E+03  0.25500000000E-02 0. -1.
         -1   -1    0    0    0  501 -0.00000000000E+00 -0.00000000000E+00 -0.59310120670E+01  0.59310142084E+01  0.50400000000E-02 0.  1.
         24    2    1    2    0    0  0.00000000000E+00  0.00000000000E+00  0.29201032761E+03  0.30387235390E+03  0.84073634580E+02 0.  0.
         66    2    3    3    0    0 -0.32097830819E+02  0.21558029124E+01  0.24375359917E+03  0.24587544679E+03  0.19999998160E+01 0.  0.
        -13    1    3    3    0    0  0.32097830819E+02 -0.21558029124E+01  0.48256728441E+02  0.57996907101E+02  0.10566000000E+00 0.  1.
         13    1    4    4    0    0 -0.98174434257E+01  0.50260571725E+00  0.70653950391E+02  0.71334610659E+02  0.10566000000E+00 0. -1.
        -13    1    4    4    0    0 -0.10269481943E+02  0.12521041315E+00  0.81262636828E+02  0.81909127973E+02  0.10566000000E+00 0.  1.
         14    1    4    4    0    0 -0.12010905450E+02  0.15279867820E+01  0.91837011950E+02  0.92631708164E+02  0.00000000000E+00 0. -1.
<mgrwt>
<rscale>  0 0.84073635E+02</rscale>
<asrwt>0</asrwt>
<pdfrwt beam="1">  1        2 0.45837129E-01 0.84073635E+02</pdfrwt>
<pdfrwt beam="2">  1       -1 0.91246356E-03 0.84073635E+02</pdfrwt>
<totfact> 0.22318599E+05</totfact>
</mgrwt>
</event>
<event>
 8    1  0.2676873E-020  0.8061574E+02  0.7818608E-02  0.1327313E+00
         -1   -1    0    0    0  501 -0.00000000000E+00  0.00000000000E+00  0.12162254879E+02  0.12162255923E+02  0.50400000000E-02 0.  1.
          2   -1    0    0  501    0  0.00000000000E+00 -0.00000000000E+00 -0.13358742802E+03  0.13358742804E+03  0.25500000000E-02 0. -1.
         24    2    1    2    0    0  0.00000000000E+00  0.35527136788E-14 -0.12142517314E+03  0.14574968396E+03  0.80615741044E+02 0.  0.
         66    2    3    3    0    0  0.19185665086E+02  0.16393211926E+02 -0.11751770878E+03  0.12021330631E+03  0.19999989038E+01 0.  0.
        -13    1    3    3    0    0 -0.19185665086E+02 -0.16393211926E+02 -0.39074643627E+01  0.25536377656E+02  0.10566000000E+00 0.  1.
         13    1    4    4    0    0  0.99381657102E+01  0.77372667055E+01 -0.59163729205E+02  0.60489589610E+02  0.10566000000E+00 0. -1.
        -13    1    4    4    0    0  0.55338264709E+01  0.48424890929E+01 -0.31475014613E+02  0.32322757385E+02  0.10566000000E+00 0.  1.
         14    1    4    4    0    0  0.37136729045E+01  0.38134561276E+01 -0.26878964957E+02  0.27400959313E+02  0.00000000000E+00 0. -1.
<mgrwt>
<rscale>  0 0.80615741E+02</rscale>
<asrwt>0</asrwt>
<pdfrwt beam="1">  1        2 0.20551911E-01 0.80615741E+02</pdfrwt>
<pdfrwt beam="2">  1       -1 0.18711163E-02 0.80615741E+02</pdfrwt>
<totfact> 0.18918531E+05</totfact>
</mgrwt>
</event>
<event>
 8    1  0.2676873E-020  0.8805111E+02  0.7818608E-02  0.1307641E+00
         -1   -1    0    0    0  501 -0.00000000000E+00  0.00000000000E+00  0.85824791720E+01  0.85824806519E+01  0.50400000000E-02 0.  1.
          2   -1    0    0  501    0  0.00000000000E+00 -0.00000000000E+00 -0.22583794091E+03  0.22583794093E+03  0.25500000000E-02 0. -1.
         24    2    1    2    0    0  0.00000000000E+00  0.17763568394E-14 -0.21725546174E+03  0.23442042158E+03  0.88051112413E+02 0.  0.
         66    2    3    3    0    0  0.19309467908E+02  0.14499401955E+02 -0.20661786402E+03  0.20803372309E+03  0.20000007051E+01 0.  0.
        -13    1    3    3    0    0 -0.19309467908E+02 -0.14499401955E+02 -0.10637597725E+02  0.26386698493E+02  0.10566000000E+00 0.  1.
         13    1    4    4    0    0  0.40115192026E+01  0.24349647749E+01 -0.40865464724E+02  0.41134155041E+02  0.10566000000E+00 0. -1.
        -13    1    4    4    0    0  0.78901091851E+01  0.63438366014E+01 -0.92108335813E+02  0.92663125223E+02  0.10566000000E+00 0.  1.
         14    1    4    4    0    0  0.74078395204E+01  0.57206005789E+01 -0.73644063479E+02  0.74236442823E+02  0.00000000000E+00 0. -1.
<mgrwt>
<rscale>  0 0.88051112E+02</rscale>
<asrwt>0</asrwt>
<pdfrwt beam="1">  1        2 0.34744294E-01 0.88051112E+02</pdfrwt>
<pdfrwt beam="2">  1       -1 0.13203817E-02 0.88051112E+02</pdfrwt>
<totfact> 0.17860539E+05</totfact>
</mgrwt>
</event>
<event>
 8    1  0.2676873E-020  0.7855205E+02  0.7818608E-02  0.1333211E+00
          2   -1    0    0  501    0  0.00000000000E+00  0.00000000000E+00  0.78615558204E+02  0.78615558246E+02  0.25500000000E-02 0. -1.
         -1   -1    0    0    0  501 -0.00000000000E+00 -0.00000000000E+00 -0.19622150024E+02  0.19622150672E+02  0.50400000000E-02 0.  1.
         24    2    1    2    0    0  0.00000000000E+00  0.88817841970E-15  0.58993408180E+02  0.98237708917E+02  0.78552054363E+02 0.  0.
         66    2    3    3    0    0  0.38793335418E+02  0.59219487341E+01  0.30491746427E+02  0.49736696182E+02  0.19999993101E+01 0.  0.
        -13    1    3    3    0    0 -0.38793335418E+02 -0.59219487341E+01  0.28501661753E+02  0.48501012735E+02  0.10566000000E+00 0.  1.
         13    1    4    4    0    0  0.51546770391E+00 -0.47502082404E-02  0.41528500499E+00  0.67033960739E+00  0.10566000000E+00 0.  1.
        -13    1    4    4    0    0  0.95249010541E+01  0.17606776221E+01  0.83298299086E+01  0.12775795714E+02  0.10566000000E+00 0. -1.
         14    1    4    4    0    0  0.28752966660E+02  0.41660213202E+01  0.21746631514E+02  0.36290560861E+02  0.00000000000E+00 0. -1.
<mgrwt>
<rscale>  0 0.78552054E+02</rscale>
<asrwt>0</asrwt>
<pdfrwt beam="1">  1        2 0.12094701E-01 0.78552054E+02</pdfrwt>
<pdfrwt beam="2">  1       -1 0.30187924E-02 0.78552054E+02</pdfrwt>
<totfact> 0.17459577E+05</totfact>
</mgrwt>
</event>
<event>
 8    1  0.2676873E-020  0.7938951E+02  0.7818608E-02  0.1330793E+00
         -1   -1    0    0    0  501 -0.00000000000E+00  0.00000000000E+00  0.14210775075E+03  0.14210775084E+03  0.50400000000E-02 0.  1.
          2   -1    0    0  501    0  0.00000000000E+00 -0.00000000000E+00 -0.11087880221E+02  0.11087880514E+02  0.25500000000E-02 0. -1.
         24    2    1    2    0    0  0.00000000000E+00  0.00000000000E+00  0.13101987053E+03  0.15319563135E+03  0.79389514374E+02 0.  0.
         66    2    3    3    0    0  0.38400172967E+02  0.97091633149E+01  0.69791256076E+02  0.80272414694E+02  0.19999999920E+01 0.  0.
        -13    1    3    3    0    0 -0.38400172967E+02 -0.97091633149E+01  0.61228614453E+02  0.72923216660E+02  0.10566000000E+00 0.  1.
         13    1    4    4    0    0  0.23354689515E+02  0.61778444182E+01  0.41051431621E+02  0.47632326063E+02  0.10566000000E+00 0. -1.
        -13    1    4    4    0    0  0.41374117757E+01  0.11798510080E+01  0.85385396996E+01  0.95618015478E+01  0.10566000000E+00 0. -1.
         14    1    4    4    0    0  0.10908071677E+02  0.23514678888E+01  0.20201284756E+02  0.23078287084E+02  0.00000000000E+00 0. -1.
<mgrwt>
<rscale>  0 0.79389514E+02</rscale>
<asrwt>0</asrwt>
<pdfrwt beam="1">  1        2 0.17058279E-02 0.79389514E+02</pdfrwt>
<pdfrwt beam="2">  1       -1 0.21862729E-01 0.79389514E+02</pdfrwt>
<totfact> 0.11148258E+05</totfact>
</mgrwt>
</event>
<event>
 8    1  0.2676873E-020  0.7655868E+02  0.7818608E-02  0.1339111E+00
          2   -1    0    0  501    0  0.00000000000E+00  0.00000000000E+00  0.33411871795E+03  0.33411871796E+03  0.25500000000E-02 0. -1.
         -1   -1    0    0    0  501 -0.00000000000E+00 -0.00000000000E+00 -0.43855894129E+01  0.43855923089E+01  0.50400000000E-02 0.  1.
         24    2    1    2    0    0  0.71054273576E-14  0.00000000000E+00  0.32973312854E+03  0.33850431027E+03  0.76558683477E+02 0.  0.
         66    2    3    3    0    0  0.30357504285E+02  0.21585108320E+01  0.26744564566E+03  0.26917914224E+03  0.19999994115E+01 0.  0.
        -13    1    3    3    0    0 -0.30357504285E+02 -0.21585108320E+01  0.62287482882E+02  0.69325168036E+02  0.10566000000E+00 0.  1.
         13    1    4    4    0    0  0.17070734455E+01  0.87572462552E-01  0.18260781897E+02  0.18340912960E+02  0.10566000000E+00 0.  1.
        -13    1    4    4    0    0  0.14496957168E+02  0.49545518797E+00  0.12831461305E+03  0.12913194155E+03  0.10566000000E+00 0. -1.
        -14    1    4    4    0    0  0.14153473672E+02  0.15754831815E+01  0.12087025071E+03  0.12170628772E+03  0.00000000000E+00 0.  1.
<mgrwt>
<rscale>  0 0.76558683E+02</rscale>
<asrwt>0</asrwt>
<pdfrwt beam="1">  1        2 0.51402891E-01 0.76558683E+02</pdfrwt>
<pdfrwt beam="2">  1       -1 0.67470615E-03 0.76558683E+02</pdfrwt>
<totfact> 0.29731195E+05</totfact>
</mgrwt>
</event>
<event>
 8    1  0.2676873E-020  0.7767717E+02  0.7818608E-02  0.1335776E+00
         -1   -1    0    0    0  501 -0.00000000000E+00  0.00000000000E+00  0.14759225687E+01  0.14759311740E+01  0.50400000000E-02 0.  1.
          2   -1    0    0  501    0  0.00000000000E+00 -0.00000000000E+00 -0.10220261135E+04  0.10220261135E+04  0.25500000000E-02 0. -1.
         24    2    1    2    0    0  0.00000000000E+00  0.35527136788E-14 -0.10205501909E+04  0.10235020447E+04  0.77677173276E+02 0.  0.
         66    2    3    3    0    0 -0.43689505534E+01  0.16389653167E+02 -0.97060170477E+03  0.97075196512E+03  0.20000027992E+01 0.  0.
        -13    1    3    3    0    0  0.43689505534E+01 -0.16389653167E+02 -0.49948486132E+02  0.52750079533E+02  0.10566000000E+00 0.  1.
         13    1    4    4    0    0 -0.24088648631E+01  0.10047677887E+02 -0.60633954782E+03  0.60642758585E+03  0.10566000000E+00 0. -1.
        -13    1    4    4    0    0 -0.10711553765E+01  0.34442253072E+01 -0.22768390444E+03  0.22771249761E+03  0.10566000000E+00 0.  1.
        -14    1    4    4    0    0 -0.88893031394E+00  0.28977499726E+01 -0.13657825251E+03  0.13661188166E+03  0.00000000000E+00 0.  1.
<mgrwt>
<rscale>  0 0.77677173E+02</rscale>
<asrwt>0</asrwt>
<pdfrwt beam="1">  1        2 0.15723422E+00 0.77677173E+02</pdfrwt>
<pdfrwt beam="2">  1       -1 0.22706649E-03 0.77677173E+02</pdfrwt>
<totfact> 0.38055793E+05</totfact>
</mgrwt>
</event>
<event>
 8    1  0.2676873E-020  0.7980525E+02  0.7818608E-02  0.1329605E+00
          2   -1    0    0  501    0  0.00000000000E+00  0.00000000000E+00  0.17661463732E+03  0.17661463734E+03  0.25500000000E-02 0. -1.
         -1   -1    0    0    0  501 -0.00000000000E+00 -0.00000000000E+00 -0.90152184408E+01  0.90152198497E+01  0.50400000000E-02 0.  1.
         24    2    1    2    0    0  0.00000000000E+00  0.00000000000E+00  0.16759941888E+03  0.18562985719E+03  0.79805254658E+02 0.  0.
         66    2    3    3    0    0 -0.27192950038E+02  0.26277449041E+01  0.15142154885E+03  0.15387932620E+03  0.20000005573E+01 0.  0.
        -13    1    3    3    0    0  0.27192950038E+02 -0.26277449041E+01  0.16177870032E+02  0.31750530986E+02  0.10566000000E+00 0.  1.
         13    1    4    4    0    0 -0.19322989354E+01  0.54725153409E+00  0.12324758823E+02  0.12487758306E+02  0.10566000000E+00 0.  1.
        -13    1    4    4    0    0 -0.29072722553E+00  0.82327729813E-01  0.18648078460E+01  0.18920815291E+01  0.10566000000E+00 0.  1.
         14    1    4    4    0    0 -0.24969923877E+02  0.19981656402E+01  0.13723198218E+03  0.13949948637E+03  0.00000000000E+00 0. -1.
<mgrwt>
<rscale>  0 0.79805255E+02</rscale>
<asrwt>0</asrwt>
<pdfrwt beam="1">  1        2 0.27171480E-01 0.79805255E+02</pdfrwt>
<pdfrwt beam="2">  1       -1 0.13869569E-02 0.79805255E+02</pdfrwt>
<totfact> 0.21274720E+05</totfact>
</mgrwt>
</event>
<event>
 8    1  0.2676873E-020  0.7861065E+02  0.7818608E-02  0.1333041E+00
         -1   -1    0    0    0  501 -0.00000000000E+00  0.00000000000E+00  0.11315478473E+01  0.11315590715E+01  0.50400000000E-02 0.  1.
          2   -1    0    0  501    0  0.00000000000E+00 -0.00000000000E+00 -0.13652986313E+04  0.13652986313E+04  0.25500000000E-02 0. -1.
         24    2    1    2    0    0  0.00000000000E+00  0.00000000000E+00 -0.13641670835E+04  0.13664301904E+04  0.78610645522E+02 0.  0.
         66    2    3    3    0    0 -0.13092221945E+02 -0.10967206516E+02 -0.12973785213E+04  0.12974924714E+04  0.20000010198E+01 0.  0.
        -13    1    3    3    0    0  0.13092221945E+02  0.10967206516E+02 -0.66788562179E+02  0.68937718966E+02  0.10566000000E+00 0.  1.
         13    1    4    4    0    0 -0.64337515962E+01 -0.58173044824E+01 -0.66271437101E+03  0.66277113915E+03  0.10566000000E+00 0. -1.
        -13    1    4    4    0    0 -0.39303487723E+00 -0.30593248097E+00 -0.67093817909E+02  0.67095749767E+02  0.10566000000E+00 0.  1.
        -14    1    4    4    0    0 -0.62654354717E+01 -0.48439695528E+01 -0.56757033240E+03  0.56762558253E+03  0.00000000000E+00 0.  1.
<mgrwt>
<rscale>  0 0.78610646E+02</rscale>
<asrwt>0</asrwt>
<pdfrwt beam="1">  1        2 0.21004463E+00 0.78610646E+02</pdfrwt>
<pdfrwt beam="2">  1       -1 0.17408624E-03 0.78610646E+02</pdfrwt>
<totfact> 0.35835110E+05</totfact>
</mgrwt>
</event>
<event>
 8    1  0.2676873E-020  0.7831178E+02  0.7818608E-02  0.1333912E+00
         -1   -1    0    0    0  501 -0.00000000000E+00  0.00000000000E+00  0.27185693283E+02  0.27185693750E+02  0.50400000000E-02 0.  1.
          2   -1    0    0  501    0  0.00000000000E+00 -0.00000000000E+00 -0.56396705393E+02  0.56396705451E+02  0.25500000000E-02 0. -1.
         24    2    1    2    0    0  0.00000000000E+00  0.17763568394E-14 -0.29211012110E+02  0.83582399202E+02  0.78311775793E+02 0.  0.
         66    2    3    3    0    0  0.25230969747E+02 -0.12018391459E+02 -0.43846935830E+02  0.52034578440E+02  0.20000010345E+01 0.  0.
        -13    1    3    3    0    0 -0.25230969747E+02  0.12018391459E+02  0.14635923720E+02  0.31547820761E+02  0.10566000000E+00 0.  1.
         13    1    4    4    0    0  0.13846907175E+01 -0.78576970861E+00 -0.30646782993E+01  0.34551728657E+01  0.10566000000E+00 0. -1.
        -13    1    4    4    0    0  0.14734089376E+02 -0.66541884410E+01 -0.26148016376E+02  0.30742503769E+02  0.10566000000E+00 0.  1.
        -14    1    4    4    0    0  0.91121896527E+01 -0.45784333092E+01 -0.14634241155E+02  0.17836901805E+02  0.00000000000E+00 0.  1.
<mgrwt>
<rscale>  0 0.78311776E+02</rscale>
<asrwt>0</asrwt>
<pdfrwt beam="1">  1        2 0.86764162E-02 0.78311776E+02</pdfrwt>
<pdfrwt beam="2">  1       -1 0.41824144E-02 0.78311776E+02</pdfrwt>
<totfact> 0.16265133E+05</totfact>
</mgrwt>
</event>
<event>
 8    1  0.2676873E-020  0.8180727E+02  0.7818608E-02  0.1324000E+00
         -1   -1    0    0    0  501 -0.00000000000E+00  0.00000000000E+00  0.26765079545E+02  0.26765080020E+02  0.50400000000E-02 0.  1.
          2   -1    0    0  501    0  0.00000000000E+00 -0.00000000000E+00 -0.62510831023E+02  0.62510831075E+02  0.25500000000E-02 0. -1.
         24    2    1    2    0    0  0.33306690739E-15 -0.35527136788E-14 -0.35745751478E+02  0.89275911095E+02  0.81807270784E+02 0.  0.
         66    2    3    3    0    0 -0.98475302950E+00  0.28767113581E+02 -0.49560923669E+02  0.57348075136E+02  0.20000011294E+01 0.  0.
        -13    1    3    3    0    0  0.98475302950E+00 -0.28767113581E+02  0.13815172191E+02  0.31927835959E+02  0.10566000000E+00 0.  1.
         13    1    4    4    0    0  0.52921329307E-01  0.64440319791E+01 -0.11241797275E+02  0.12958299225E+02  0.10566000000E+00 0. -1.
        -13    1    4    4    0    0 -0.12367379057E+00  0.23534539464E+01 -0.51068840889E+01  0.56254306339E+01  0.10566000000E+00 0.  1.
         14    1    4    4    0    0 -0.91400056824E+00  0.19969627656E+02 -0.33212242306E+02  0.38764345277E+02  0.00000000000E+00 0. -1.
<mgrwt>
<rscale>  0 0.81807271E+02</rscale>
<asrwt>0</asrwt>
<pdfrwt beam="1">  1        2 0.96170509E-02 0.81807271E+02</pdfrwt>
<pdfrwt beam="2">  1       -1 0.41177046E-02 0.81807271E+02</pdfrwt>
<totfact> 0.14788549E+05</totfact>
</mgrwt>
</event>
<event>
 8    1  0.2676873E-020  0.8053827E+02  0.7818608E-02  0.1327531E+00
          2   -1    0    0  501    0  0.00000000000E+00  0.00000000000E+00  0.25570864663E+03  0.25570864664E+03  0.25500000000E-02 0. -1.
         -1   -1    0    0    0  501 -0.00000000000E+00 -0.00000000000E+00 -0.63416041951E+01  0.63416061979E+01  0.50400000000E-02 0.  1.
         24    2    1    2    0    0  0.35527136788E-14  0.00000000000E+00  0.24936704243E+03  0.26205025284E+03  0.80538271406E+02 0.  0.
         66    2    3    3    0    0 -0.17606140622E+02 -0.35933894677E+02  0.13870857260E+03  0.14437897731E+03  0.20000006553E+01 0.  0.
        -13    1    3    3    0    0  0.17606140622E+02  0.35933894677E+02  0.11065846983E+03  0.11767127553E+03  0.10566000000E+00 0.  1.
         13    1    4    4    0    0 -0.13886249464E+02 -0.27690251707E+02  0.10595533539E+03  0.11039077056E+03  0.10566000000E+00 0. -1.
        -13    1    4    4    0    0 -0.42609544411E-01 -0.32034097525E+00  0.14241213719E+01  0.14641446757E+01  0.10566000000E+00 0.  1.
         14    1    4    4    0    0 -0.36772816138E+01 -0.79233019947E+01  0.31329115842E+02  0.32524062077E+02  0.00000000000E+00 0. -1.
<mgrwt>
<rscale>  0 0.80538271E+02</rscale>
<asrwt>0</asrwt>
<pdfrwt beam="1">  1        2 0.39339797E-01 0.80538271E+02</pdfrwt>
<pdfrwt beam="2">  1       -1 0.97563144E-03 0.80538271E+02</pdfrwt>
<totfact> 0.23641877E+05</totfact>
</mgrwt>
</event>
<event>
 8    1  0.2676873E-020  0.8150985E+02  0.7818608E-02  0.1324820E+00
         -1   -1    0    0    0  501 -0.00000000000E+00  0.00000000000E+00  0.25429818183E+01  0.25429868128E+01  0.50400000000E-02 0.  1.
          2   -1    0    0  501    0  0.00000000000E+00 -0.00000000000E+00 -0.65315545092E+03  0.65315545092E+03  0.25500000000E-02 0. -1.
         24    2    1    2    0    0  0.00000000000E+00  0.35527136788E-14 -0.65061246910E+03  0.65569843774E+03  0.81509854012E+02 0.  0.
         66    2    3    3    0    0 -0.40724345215E+01  0.26670530288E+02 -0.57096237900E+03  0.57160295672E+03  0.19999999974E+01 0.  0.
        -13    1    3    3    0    0  0.40724345215E+01 -0.26670530288E+02 -0.79650090104E+02  0.84095481011E+02  0.10566000000E+00 0.  1.
         13    1    4    4    0    0 -0.55275900320E+00  0.54776185128E+01 -0.10387608219E+03  0.10402192780E+03  0.10566000000E+00 0. -1.
        -13    1    4    4    0    0 -0.14190696668E+01  0.81228492270E+01 -0.18903632796E+03  0.18921611689E+03  0.10566000000E+00 0.  1.
        -14    1    4    4    0    0 -0.21006058515E+01  0.13070062548E+02 -0.27804996884E+03  0.27836491203E+03  0.00000000000E+00 0.  1.
<mgrwt>
<rscale>  0 0.81509854E+02</rscale>
<asrwt>0</asrwt>
<pdfrwt beam="1">  1        2 0.10048532E+00 0.81509854E+02</pdfrwt>
<pdfrwt beam="2">  1       -1 0.39122888E-03 0.81509854E+02</pdfrwt>
<totfact> 0.31334922E+05</totfact>
</mgrwt>
</event>
<event>
 8    1  0.2676873E-020  0.8221954E+02  0.7818608E-02  0.1322868E+00
          2   -1    0    0  501    0  0.00000000000E+00  0.00000000000E+00  0.85614680184E+01  0.85614683982E+01  0.25500000000E-02 0. -1.
         -1   -1    0    0    0  501 -0.00000000000E+00 -0.00000000000E+00 -0.19739760587E+03  0.19739760594E+03  0.50400000000E-02 0.  1.
         24    2    1    2    0    0  0.00000000000E+00  0.00000000000E+00 -0.18883613785E+03  0.20595907434E+03  0.82219543549E+02 0.  0.
         66    2    3    3    0    0 -0.73548069771E+01  0.38721288583E+02 -0.12353348869E+03  0.12968405531E+03  0.19999997542E+01 0.  0.
        -13    1    3    3    0    0  0.73548069771E+01 -0.38721288583E+02 -0.65302649170E+02  0.76275019029E+02  0.10566000000E+00 0.  1.
         13    1    4    4    0    0 -0.75410286902E+00  0.71460523353E+01 -0.23859401104E+02  0.24918204594E+02  0.10566000000E+00 0. -1.
        -13    1    4    4    0    0 -0.40415407127E+01  0.18511956696E+02 -0.57728616424E+02  0.60758792864E+02  0.10566000000E+00 0.  1.
         14    1    4    4    0    0 -0.25591633953E+01  0.13063279552E+02 -0.41945471158E+02  0.44007057849E+02  0.00000000000E+00 0. -1.
<mgrwt>
<rscale>  0 0.82219544E+02</rscale>
<asrwt>0</asrwt>
<pdfrwt beam="1">  1        2 0.13171491E-02 0.82219544E+02</pdfrwt>
<pdfrwt beam="2">  1       -1 0.30368859E-01 0.82219544E+02</pdfrwt>
<totfact> 0.93267966E+04</totfact>
</mgrwt>
</event>
<event>
 8    1  0.2676873E-020  0.8197088E+02  0.7818608E-02  0.1323550E+00
          2   -1    0    0  501    0  0.00000000000E+00  0.00000000000E+00  0.93737820425E+02  0.93737820459E+02  0.25500000000E-02 0. -1.
         -1   -1    0    0    0  501 -0.00000000000E+00 -0.00000000000E+00 -0.17920263222E+02  0.17920263931E+02  0.50400000000E-02 0.  1.
         24    2    1    2    0    0  0.00000000000E+00  0.00000000000E+00  0.75817557202E+02  0.11165808439E+03  0.81970884036E+02 0.  0.
         66    2    3    3    0    0 -0.72282578485E+00 -0.32599388003E+02  0.71699824818E+02  0.78791544272E+02  0.19999986506E+01 0.  0.
        -13    1    3    3    0    0  0.72282578485E+00  0.32599388003E+02  0.41177323848E+01  0.32866540118E+02  0.10566000000E+00 0.  1.
         13    1    4    4    0    0  0.48930096826E+00 -0.12644961072E+02  0.27083033544E+02  0.29893750616E+02  0.10566000000E+00 0. -1.
        -13    1    4    4    0    0 -0.17822787002E+00 -0.26397399342E+01  0.65760877215E+01  0.70891526892E+01  0.10566000000E+00 0.  1.
         14    1    4    4    0    0 -0.10338988831E+01 -0.17314686998E+02  0.38040703552E+02  0.41808640967E+02  0.00000000000E+00 0. -1.
<mgrwt>
<rscale>  0 0.81970884E+02</rscale>
<asrwt>0</asrwt>
<pdfrwt beam="1">  1        2 0.14421203E-01 0.81970884E+02</pdfrwt>
<pdfrwt beam="2">  1       -1 0.27569636E-02 0.81970884E+02</pdfrwt>
<totfact> 0.16309351E+05</totfact>
</mgrwt>
</event>
<event>
 8    1  0.2676873E-020  0.7891168E+02  0.7818608E-02  0.1332169E+00
         -1   -1    0    0    0  501 -0.00000000000E+00  0.00000000000E+00  0.28729801114E+01  0.28729845322E+01  0.50400000000E-02 0.  1.
          2   -1    0    0  501    0  0.00000000000E+00 -0.00000000000E+00 -0.54186317910E+03  0.54186317911E+03  0.25500000000E-02 0. -1.
         24    2    1    2    0    0 -0.35527136788E-14  0.00000000000E+00 -0.53899019899E+03  0.54473616364E+03  0.78911680818E+02 0.  0.
         66    2    3    3    0    0  0.23448107873E+02 -0.30445620413E+02 -0.33063781447E+03  0.33286951486E+03  0.20000004246E+01 0.  0.
        -13    1    3    3    0    0 -0.23448107873E+02  0.30445620413E+02 -0.20835238452E+03  0.21186664878E+03  0.10566000000E+00 0.  1.
         13    1    4    4    0    0  0.96826527564E+01 -0.12018440813E+02 -0.13713497175E+03  0.13800075479E+03  0.10566000000E+00 0. -1.
        -13    1    4    4    0    0  0.13346778948E+02 -0.18151047987E+02 -0.18909204370E+03  0.19042953869E+03  0.10566000000E+00 0.  1.
         14    1    4    4    0    0  0.41867616845E+00 -0.27613161306E+00 -0.44107990242E+01  0.44392213769E+01  0.00000000000E+00 0. -1.
<mgrwt>
<rscale>  0 0.78911681E+02</rscale>
<asrwt>0</asrwt>
<pdfrwt beam="1">  1        2 0.83363485E-01 0.78911681E+02</pdfrwt>
<pdfrwt beam="2">  1       -1 0.44199771E-03 0.78911681E+02</pdfrwt>
<totfact> 0.32355283E+05</totfact>
</mgrwt>
</event>
<event>
 8    1  0.2676873E-020  0.7881091E+02  0.7818608E-02  0.1332460E+00
          2   -1    0    0  501    0  0.00000000000E+00  0.00000000000E+00  0.76325398956E+03  0.76325398957E+03  0.25500000000E-02 0. -1.
         -1   -1    0    0    0  501 -0.00000000000E+00 -0.00000000000E+00 -0.20344309477E+01  0.20344371906E+01  0.50400000000E-02 0.  1.
         24    2    1    2    0    0  0.00000000000E+00  0.88817841970E-15  0.76121955861E+03  0.76528842676E+03  0.78810911117E+02 0.  0.
         66    2    3    3    0    0 -0.25401604811E+02 -0.77269928400E+01  0.66326555901E+03  0.66379978134E+03  0.19999993726E+01 0.  0.
        -13    1    3    3    0    0  0.25401604811E+02  0.77269928400E+01  0.97953999606E+02  0.10148864541E+03  0.10566000000E+00 0.  1.
         13    1    4    4    0    0 -0.53650243556E+01 -0.10851107123E+01  0.13161311170E+03  0.13172692697E+03  0.10566000000E+00 0. -1.
        -13    1    4    4    0    0 -0.56946945315E+01 -0.13560950235E+01  0.15355190523E+03  0.15366348722E+03  0.10566000000E+00 0.  1.
         14    1    4    4    0    0 -0.14341885924E+02 -0.52857871042E+01  0.37810054207E+03  0.37840936716E+03  0.00000000000E+00 0. -1.
<mgrwt>
<rscale>  0 0.78810911E+02</rscale>
<asrwt>0</asrwt>
<pdfrwt beam="1">  1        2 0.11742376E+00 0.78810911E+02</pdfrwt>
<pdfrwt beam="2">  1       -1 0.31298967E-03 0.78810911E+02</pdfrwt>
<totfact> 0.35421418E+05</totfact>
</mgrwt>
</event>
<event>
 8    1  0.2676873E-020  0.8071726E+02  0.7818608E-02  0.1327028E+00
          2   -1    0    0  501    0  0.00000000000E+00  0.00000000000E+00  0.12076237090E+02  0.12076237359E+02  0.25500000000E-02 0. -1.
         -1   -1    0    0    0  501 -0.00000000000E+00 -0.00000000000E+00 -0.13487803255E+03  0.13487803264E+03  0.50400000000E-02 0.  1.
         24    2    1    2    0    0  0.00000000000E+00  0.00000000000E+00 -0.12280179546E+03  0.14695427000E+03  0.80717262738E+02 0.  0.
         66    2    3    3    0    0 -0.82259824064E+01 -0.39375124533E+02 -0.66822968280E+02  0.78021640030E+02  0.20000011770E+01 0.  0.
        -13    1    3    3    0    0  0.82259824064E+01  0.39375124533E+02 -0.55978827176E+02  0.68932629970E+02  0.10566000000E+00 0.  1.
         13    1    4    4    0    0 -0.63062979581E+01 -0.27793395395E+02 -0.47389806935E+02  0.55299612900E+02  0.10566000000E+00 0. -1.
        -13    1    4    4    0    0 -0.32831414872E-01 -0.65163281655E+00 -0.14466435541E+01  0.15904857238E+01  0.10566000000E+00 0.  1.
         14    1    4    4    0    0 -0.18868530334E+01 -0.10930096321E+02 -0.17986517791E+02  0.21131541407E+02  0.00000000000E+00 0. -1.
<mgrwt>
<rscale>  0 0.80717263E+02</rscale>
<asrwt>0</asrwt>
<pdfrwt beam="1">  1        2 0.18578827E-02 0.80717263E+02</pdfrwt>
<pdfrwt beam="2">  1       -1 0.20750466E-01 0.80717263E+02</pdfrwt>
<totfact> 0.10829231E+05</totfact>
</mgrwt>
</event>
<event>
 8    1  0.2676873E-020  0.7990159E+02  0.7818608E-02  0.1329331E+00
          2   -1    0    0  501    0  0.00000000000E+00  0.00000000000E+00  0.68720565181E+03  0.68720565182E+03  0.25500000000E-02 0. -1.
         -1   -1    0    0    0  501 -0.00000000000E+00 -0.00000000000E+00 -0.23225420520E+01  0.23225475205E+01  0.50400000000E-02 0.  1.
         24    2    1    2    0    0  0.00000000000E+00  0.00000000000E+00  0.68488310976E+03  0.68952819934E+03  0.79901587260E+02 0.  0.
         66    2    3    3    0    0  0.10129735252E+02 -0.12490567061E+02  0.65801654074E+03  0.65821606915E+03  0.20000005782E+01 0.  0.
        -13    1    3    3    0    0 -0.10129735252E+02  0.12490567061E+02  0.26866569027E+02  0.31312130191E+02  0.10566000000E+00 0.  1.
         13    1    4    4    0    0  0.53767233712E+01 -0.56718006896E+01  0.33086898726E+03  0.33096129135E+03  0.10566000000E+00 0. -1.
        -13    1    4    4    0    0  0.17871250041E+01 -0.19491102495E+01  0.91588656027E+02  0.91626884283E+02  0.10566000000E+00 0. -1.
         14    1    4    4    0    0  0.29658868770E+01 -0.48696561216E+01  0.23555889745E+03  0.23562789351E+03  0.00000000000E+00 0. -1.
<mgrwt>
<rscale>  0 0.79901587E+02</rscale>
<asrwt>0</asrwt>
<pdfrwt beam="1">  1        2 0.10572394E+00 0.79901587E+02</pdfrwt>
<pdfrwt beam="2">  1       -1 0.35731462E-03 0.79901587E+02</pdfrwt>
<totfact> 0.33415480E+05</totfact>
</mgrwt>
</event>
<event>
 8    1  0.2676873E-020  0.7734624E+02  0.7818608E-02  0.1336756E+00
         -1   -1    0    0    0  501 -0.00000000000E+00  0.00000000000E+00  0.32617680227E+01  0.32617719165E+01  0.50400000000E-02 0.  1.
          2   -1    0    0  501    0  0.00000000000E+00 -0.00000000000E+00 -0.45852717874E+03  0.45852717875E+03  0.25500000000E-02 0. -1.
         24    2    1    2    0    0  0.00000000000E+00  0.00000000000E+00 -0.45526541072E+03  0.46178895067E+03  0.77346239466E+02 0.  0.
         66    2    3    3    0    0 -0.34641586348E+02 -0.13883755013E+02 -0.28772906238E+03  0.29014618986E+03  0.19999986066E+01 0.  0.
        -13    1    3    3    0    0  0.34641586348E+02  0.13883755013E+02 -0.16753634834E+03  0.17164276081E+03  0.10566000000E+00 0.  1.
         13    1    4    4    0    0 -0.70451756553E+01 -0.21863334951E+01 -0.60720332143E+02  0.61166857478E+02  0.10566000000E+00 0.  1.
        -13    1    4    4    0    0 -0.20506606231E+02 -0.88437574902E+01 -0.16995534386E+03  0.17141634408E+03  0.10566000000E+00 0. -1.
        -14    1    4    4    0    0 -0.70898044613E+01 -0.28536640280E+01 -0.57053386370E+02  0.57562988300E+02  0.00000000000E+00 0.  1.
<mgrwt>
<rscale>  0 0.77346239E+02</rscale>
<asrwt>0</asrwt>
<pdfrwt beam="1">  1        2 0.70542592E-01 0.77346239E+02</pdfrwt>
<pdfrwt beam="2">  1       -1 0.50181113E-03 0.77346239E+02</pdfrwt>
<totfact> 0.32321942E+05</totfact>
</mgrwt>
</event>
<event>
 8    1  0.2676873E-020  0.7968238E+02  0.7818608E-02  0.1329955E+00
          2   -1    0    0  501    0  0.00000000000E+00  0.00000000000E+00  0.31320981443E+03  0.31320981444E+03  0.25500000000E-02 0. -1.
         -1   -1    0    0    0  501 -0.00000000000E+00 -0.00000000000E+00 -0.50679126501E+01  0.50679151562E+01  0.50400000000E-02 0.  1.
         24    2    1    2    0    0  0.00000000000E+00 -0.44408920985E-15  0.30814190178E+03  0.31827772960E+03  0.79682379010E+02 0.  0.
         66    2    3    3    0    0  0.14184928617E+02 -0.20415006482E+01  0.30254705559E+03  0.30289288665E+03  0.20000018108E+01 0.  0.
        -13    1    3    3    0    0 -0.14184928617E+02  0.20415006482E+01  0.55948461873E+01  0.15384842952E+02  0.10566000000E+00 0.  1.
         13    1    4    4    0    0  0.11179160721E+01  0.43428554230E-01  0.29733025653E+02  0.29754253493E+02  0.10566000000E+00 0. -1.
        -13    1    4    4    0    0  0.16628942241E+01  0.60991762661E-01  0.27797213045E+02  0.27847174979E+02  0.10566000000E+00 0.  1.
         14    1    4    4    0    0  0.11404118321E+02 -0.21459209651E+01  0.24501681690E+03  0.24529145817E+03  0.00000000000E+00 0. -1.
<mgrwt>
<rscale>  0 0.79682379E+02</rscale>
<asrwt>0</asrwt>
<pdfrwt beam="1">  1        2 0.48186125E-01 0.79682379E+02</pdfrwt>
<pdfrwt beam="2">  1       -1 0.77967907E-03 0.79682379E+02</pdfrwt>
<totfact> 0.26166246E+05</totfact>
</mgrwt>
</event>
<event>
 8    1  0.2676873E-020  0.8322003E+02  0.7818608E-02  0.1320154E+00
          2   -1    0    0  501    0  0.00000000000E+00  0.00000000000E+00  0.42677866158E+03  0.42677866159E+03  0.25500000000E-02 0. -1.
         -1   -1    0    0    0  501 -0.00000000000E+00 -0.00000000000E+00 -0.40568867854E+01  0.40568899161E+01  0.50400000000E-02 0.  1.
         24    2    1    2    0    0  0.00000000000E+00  0.00000000000E+00  0.42272177479E+03  0.43083555150E+03  0.83220030966E+02 0.  0.
         66    2    3    3    0    0 -0.12795823638E+02  0.10367249573E+01  0.41626030005E+03  0.41646301794E+03  0.20000021988E+01 0.  0.
        -13    1    3    3    0    0  0.12795823638E+02 -0.10367249573E+01  0.64614747411E+01  0.14372533565E+02  0.10566000000E+00 0.  1.
         13    1    4    4    0    0 -0.57276218345E+01  0.77285245553E+00  0.20743278511E+03  0.20751331151E+03  0.10566000000E+00 0. -1.
        -13    1    4    4    0    0 -0.82443709649E+00  0.66168876100E-02  0.16817120745E+02  0.16837649910E+02  0.10566000000E+00 0.  1.
        -14    1    4    4    0    0 -0.62437647070E+01  0.25725561418E+00  0.19201039420E+03  0.19211205652E+03  0.00000000000E+00 0.  1.
<mgrwt>
<rscale>  0 0.83220031E+02</rscale>
<asrwt>0</asrwt>
<pdfrwt beam="1">  1        2 0.65658224E-01 0.83220031E+02</pdfrwt>
<pdfrwt beam="2">  1       -1 0.62413697E-03 0.83220031E+02</pdfrwt>
<totfact> 0.26061155E+05</totfact>
</mgrwt>
</event>
<event>
 8    1  0.2676873E-020  0.8078553E+02  0.7818608E-02  0.1326837E+00
          2   -1    0    0  501    0  0.00000000000E+00  0.00000000000E+00  0.66824661350E+02  0.66824661399E+02  0.25500000000E-02 0. -1.
         -1   -1    0    0    0  501 -0.00000000000E+00 -0.00000000000E+00 -0.24415771133E+02  0.24415771653E+02  0.50400000000E-02 0.  1.
         24    2    1    2    0    0  0.00000000000E+00  0.00000000000E+00  0.42408890218E+02  0.91240433052E+02  0.80785534931E+02 0.  0.
         66    2    3    3    0    0  0.35508717189E+01  0.36685223419E+02  0.39815294001E+02  0.54292466766E+02  0.20000009711E+01 0.  0.
        -13    1    3    3    0    0 -0.35508717189E+01 -0.36685223419E+02  0.25935962164E+01  0.36947966286E+02  0.10566000000E+00 0.  1.
         13    1    4    4    0    0  0.76297606331E+00  0.91529860915E+01  0.95916213184E+01  0.13280423578E+02  0.10566000000E+00 0. -1.
        -13    1    4    4    0    0  0.21776739345E+01  0.23553498751E+02  0.24992116900E+02  0.34411141195E+02  0.10566000000E+00 0. -1.
         14    1    4    4    0    0  0.61022172108E+00  0.39787385766E+01  0.52315557833E+01  0.66009019932E+01  0.00000000000E+00 0. -1.
<mgrwt>
<rscale>  0 0.80785535E+02</rscale>
<asrwt>0</asrwt>
<pdfrwt beam="1">  1        2 0.10280717E-01 0.80785535E+02</pdfrwt>
<pdfrwt beam="2">  1       -1 0.37562725E-02 0.80785535E+02</pdfrwt>
<totfact> 0.15548401E+05</totfact>
</mgrwt>
</event>
<event>
 8    1  0.2676873E-020  0.8391179E+02  0.7818608E-02  0.1318303E+00
         -1   -1    0    0    0  501 -0.00000000000E+00  0.00000000000E+00  0.74259468856E+01  0.74259485959E+01  0.50400000000E-02 0.  1.
          2   -1    0    0  501    0  0.00000000000E+00 -0.00000000000E+00 -0.23704677379E+03  0.23704677381E+03  0.25500000000E-02 0. -1.
         24    2    1    2    0    0  0.00000000000E+00  0.44408920985E-15 -0.22962082691E+03  0.24447272240E+03  0.83911786116E+02 0.  0.
         66    2    3    3    0    0 -0.19541973209E+02 -0.26716352029E+01 -0.22268352852E+03  0.22356426420E+03  0.19999996542E+01 0.  0.
        -13    1    3    3    0    0  0.19541973209E+02  0.26716352029E+01 -0.69372983815E+01  0.20908458203E+02  0.10566000000E+00 0.  1.
         13    1    4    4    0    0 -0.16206194821E+02 -0.17932801722E+01 -0.18740568318E+03  0.18811368333E+03  0.10566000000E+00 0. -1.
        -13    1    4    4    0    0 -0.42077575725E+00  0.22381138099E-01 -0.53566699791E+01  0.53742562699E+01  0.10566000000E+00 0.  1.
         14    1    4    4    0    0 -0.29150026307E+01 -0.90073616886E+00 -0.29921175364E+02  0.30076324595E+02  0.00000000000E+00 0. -1.
<mgrwt>
<rscale>  0 0.83911786E+02</rscale>
<asrwt>0</asrwt>
<pdfrwt beam="1">  1        2 0.36468729E-01 0.83911786E+02</pdfrwt>
<pdfrwt beam="2">  1       -1 0.11424537E-02 0.83911786E+02</pdfrwt>
<totfact> 0.20648219E+05</totfact>
</mgrwt>
</event>
<event>
 8    1  0.2676873E-020  0.7954647E+02  0.7818608E-02  0.1330343E+00
         -1   -1    0    0    0  501 -0.00000000000E+00  0.00000000000E+00  0.73049064227E+01  0.73049081613E+01  0.50400000000E-02 0.  1.
          2   -1    0    0  501    0  0.00000000000E+00 -0.00000000000E+00 -0.21655444027E+03  0.21655444028E+03  0.25500000000E-02 0. -1.
         24    2    1    2    0    0 -0.17763568394E-14  0.00000000000E+00 -0.20924953385E+03  0.22385934845E+03  0.79546467373E+02 0.  0.
         66    2    3    3    0    0 -0.12633605437E+02  0.34034901180E+02 -0.59145701180E+02  0.69427634637E+02  0.19999996344E+01 0.  0.
        -13    1    3    3    0    0  0.12633605437E+02 -0.34034901180E+02 -0.15010383267E+03  0.15443171381E+03  0.10566000000E+00 0.  1.
         13    1    4    4    0    0 -0.34261772637E+01  0.10088387701E+02 -0.16314309727E+02  0.19485433609E+02  0.10566000000E+00 0. -1.
        -13    1    4    4    0    0 -0.33365547822E+01  0.72822826196E+01 -0.13840749086E+02  0.15991927253E+02  0.10566000000E+00 0.  1.
         14    1    4    4    0    0 -0.58708733907E+01  0.16664230860E+02 -0.28990642368E+02  0.33950273776E+02  0.00000000000E+00 0. -1.
<mgrwt>
<rscale>  0 0.79546467E+02</rscale>
<asrwt>0</asrwt>
<pdfrwt beam="1">  1        2 0.33316063E-01 0.79546467E+02</pdfrwt>
<pdfrwt beam="2">  1       -1 0.11238321E-02 0.79546467E+02</pdfrwt>
<totfact> 0.23022917E+05</totfact>
</mgrwt>
</event>
<event>
 8    1  0.2676873E-020  0.7905733E+02  0.7818608E-02  0.1331748E+00
         -1   -1    0    0    0  501 -0.00000000000E+00  0.00000000000E+00  0.49060508285E+02  0.49060508544E+02  0.50400000000E-02 0.  1.
          2   -1    0    0  501    0  0.00000000000E+00 -0.00000000000E+00 -0.31848741699E+02  0.31848741801E+02  0.25500000000E-02 0. -1.
         24    2    1    2    0    0  0.00000000000E+00  0.35527136788E-14  0.17211766586E+02  0.80909250346E+02  0.79057332882E+02 0.  0.
         66    2    3    3    0    0  0.19687836477E+02  0.20443101462E+02 -0.19509155436E+02  0.34498383291E+02  0.20000003381E+01 0.  0.
        -13    1    3    3    0    0 -0.19687836477E+02 -0.20443101462E+02  0.36720922022E+02  0.46410867054E+02  0.10566000000E+00 0.  1.
         13    1    4    4    0    0  0.27351448642E+01  0.24359677890E+01 -0.26970926614E+01  0.45497724511E+01  0.10566000000E+00 0. -1.
        -13    1    4    4    0    0  0.32718982410E+00  0.32545493397E+00 -0.10826918488E+00  0.48565455525E+00  0.10566000000E+00 0.  1.
        -14    1    4    4    0    0  0.16625501789E+02  0.17681678739E+02 -0.16703793590E+02  0.29462956285E+02  0.00000000000E+00 0.  1.
<mgrwt>
<rscale>  0 0.79057333E+02</rscale>
<asrwt>0</asrwt>
<pdfrwt beam="1">  1        2 0.48998064E-02 0.79057333E+02</pdfrwt>
<pdfrwt beam="2">  1       -1 0.75477705E-02 0.79057333E+02</pdfrwt>
<totfact> 0.14073417E+05</totfact>
</mgrwt>
</event>
<event>
 8    1  0.2676873E-020  0.7887379E+02  0.7818608E-02  0.1332278E+00
          2   -1    0    0  501    0  0.00000000000E+00  0.00000000000E+00  0.20958387551E+03  0.20958387552E+03  0.25500000000E-02 0. -1.
         -1   -1    0    0    0  501 -0.00000000000E+00 -0.00000000000E+00 -0.74207447684E+01  0.74207464799E+01  0.50400000000E-02 0.  1.
         24    2    1    2    0    0  0.00000000000E+00 -0.35527136788E-14  0.20216313074E+03  0.21700462200E+03  0.78873788678E+02 0.  0.
         66    2    3    3    0    0 -0.15442874505E+02 -0.27503849896E+02  0.16615600849E+03  0.16913534011E+03  0.19999963464E+01 0.  0.
        -13    1    3    3    0    0  0.15442874505E+02  0.27503849896E+02  0.36007122250E+02  0.47869281892E+02  0.10566000000E+00 0.  1.
         13    1    4    4    0    0 -0.11662719097E+01 -0.17437949735E+01  0.12946142062E+02  0.13115440114E+02  0.10566000000E+00 0.  1.
        -13    1    4    4    0    0 -0.65696663841E+01 -0.10841169362E+02  0.67830634024E+02  0.69005054494E+02  0.10566000000E+00 0. -1.
         14    1    4    4    0    0 -0.77069362116E+01 -0.14918885561E+02  0.85379232404E+02  0.87014845504E+02  0.00000000000E+00 0. -1.
<mgrwt>
<rscale>  0 0.78873789E+02</rscale>
<asrwt>0</asrwt>
<pdfrwt beam="1">  1        2 0.32243667E-01 0.78873789E+02</pdfrwt>
<pdfrwt beam="2">  1       -1 0.11416534E-02 0.78873789E+02</pdfrwt>
<totfact> 0.23274949E+05</totfact>
</mgrwt>
</event>
<event>
 8    1  0.2676873E-020  0.8113413E+02  0.7818608E-02  0.1325863E+00
         -1   -1    0    0    0  501 -0.00000000000E+00  0.00000000000E+00  0.42884032696E+02  0.42884032992E+02  0.50400000000E-02 0.  1.
          2   -1    0    0  501    0  0.00000000000E+00 -0.00000000000E+00 -0.38375278690E+02  0.38375278774E+02  0.25500000000E-02 0. -1.
         24    2    1    2    0    0  0.00000000000E+00  0.00000000000E+00  0.45087540058E+01  0.81259311766E+02  0.81134128984E+02 0.  0.
         66    2    3    3    0    0 -0.33334290268E+02  0.18812958795E+02  0.15639722543E+02  0.41396899008E+02  0.19999999949E+01 0.  0.
        -13    1    3    3    0    0  0.33334290268E+02 -0.18812958795E+02 -0.11130968537E+02  0.39862412758E+02  0.10566000000E+00 0.  1.
         13    1    4    4    0    0 -0.26426895579E+02  0.14856014722E+02  0.12240010713E+02  0.32694204527E+02  0.10566000000E+00 0. -1.
        -13    1    4    4    0    0 -0.10658364783E+01  0.68676751678E+00  0.21955938241E+00  0.12911341443E+01  0.10566000000E+00 0.  1.
         14    1    4    4    0    0 -0.58415582105E+01  0.32701765566E+01  0.31801524472E+01  0.74115603368E+01  0.00000000000E+00 0. -1.
<mgrwt>
<rscale>  0 0.81134129E+02</rscale>
<asrwt>0</asrwt>
<pdfrwt beam="1">  1        2 0.59038891E-02 0.81134129E+02</pdfrwt>
<pdfrwt beam="2">  1       -1 0.65975435E-02 0.81134129E+02</pdfrwt>
<totfact> 0.13593644E+05</totfact>
</mgrwt>
</event>
<event>
 8    1  0.2676873E-020  0.7937431E+02  0.7818608E-02  0.1330836E+00
          2   -1    0    0  501    0  0.00000000000E+00  0.00000000000E+00  0.35024083084E+03  0.35024083085E+03  0.25500000000E-02 0. -1.
         -1   -1    0    0    0  501 -0.00000000000E+00 -0.00000000000E+00 -0.44971052584E+01  0.44971080826E+01  0.50400000000E-02 0.  1.
         24    2    1    2    0    0  0.35527136788E-14 -0.35527136788E-14  0.34574372558E+03  0.35473793893E+03  0.79374312838E+02 0.  0.
         66    2    3    3    0    0  0.22080645724E+02 -0.31976018257E+02  0.20846691413E+03  0.21206714729E+03  0.20000042425E+01 0.  0.
        -13    1    3    3    0    0 -0.22080645724E+02  0.31976018257E+02  0.13727681145E+03  0.14267079164E+03  0.10566000000E+00 0.  1.
         13    1    4    4    0    0  0.13292036861E+02 -0.19823494705E+02  0.12934168248E+03  0.13152540126E+03  0.10566000000E+00 0. -1.
        -13    1    4    4    0    0  0.21842986340E+01 -0.23476943231E+01  0.18052021760E+02  0.18334925220E+02  0.10566000000E+00 0.  1.
        -14    1    4    4    0    0  0.66043102290E+01 -0.98048292288E+01  0.61073209884E+02  0.62206820810E+02  0.00000000000E+00 0.  1.
<mgrwt>
<rscale>  0 0.79374313E+02</rscale>
<asrwt>0</asrwt>
<pdfrwt beam="1">  1        2 0.53883228E-01 0.79374313E+02</pdfrwt>
<pdfrwt beam="2">  1       -1 0.69186227E-03 0.79374313E+02</pdfrwt>
<totfact> 0.27515511E+05</totfact>
</mgrwt>
</event>
<event>
 8    1  0.2676873E-020  0.7820711E+02  0.7818608E-02  0.1334218E+00
          2   -1    0    0  501    0  0.00000000000E+00  0.00000000000E+00  0.10627196534E+03  0.10627196537E+03  0.25500000000E-02 0. -1.
         -1   -1    0    0    0  501 -0.00000000000E+00 -0.00000000000E+00 -0.14388439968E+02  0.14388440851E+02  0.50400000000E-02 0.  1.
         24    2    1    2    0    0  0.00000000000E+00  0.00000000000E+00  0.91883525367E+02  0.12066040622E+03  0.78207105781E+02 0.  0.
         66    2    3    3    0    0  0.30535547222E+02 -0.11287212767E+02  0.79321955076E+02  0.85765922006E+02  0.20000010525E+01 0.  0.
        -13    1    3    3    0    0 -0.30535547222E+02  0.11287212767E+02  0.12561570292E+02  0.34894484212E+02  0.10566000000E+00 0.  1.
         13    1    4    4    0    0  0.73730576496E+01 -0.26608426326E+01  0.17319190866E+02  0.19010723261E+02  0.10566000000E+00 0. -1.
        -13    1    4    4    0    0  0.10614474032E+02 -0.35501264280E+01  0.27218332159E+02  0.29429903605E+02  0.10566000000E+00 0. -1.
        -14    1    4    4    0    0  0.12548015540E+02 -0.50762437067E+01  0.34784432050E+02  0.37325295139E+02  0.00000000000E+00 0.  1.
<mgrwt>
<rscale>  0 0.78207106E+02</rscale>
<asrwt>0</asrwt>
<pdfrwt beam="1">  1        2 0.16349533E-01 0.78207106E+02</pdfrwt>
<pdfrwt beam="2">  1       -1 0.22136063E-02 0.78207106E+02</pdfrwt>
<totfact> 0.19159346E+05</totfact>
</mgrwt>
</event>
<event>
 8    1  0.2676873E-020  0.7939135E+02  0.7818608E-02  0.1330788E+00
          2   -1    0    0  501    0  0.00000000000E+00  0.00000000000E+00  0.53551149050E+03  0.53551149050E+03  0.25500000000E-02 0. -1.
         -1   -1    0    0    0  501 -0.00000000000E+00 -0.00000000000E+00 -0.29425051454E+01  0.29425094617E+01  0.50400000000E-02 0.  1.
         24    2    1    2    0    0  0.00000000000E+00  0.00000000000E+00  0.53256898535E+03  0.53845399997E+03  0.79391346630E+02 0.  0.
         66    2    3    3    0    0  0.76310968603E+01  0.28986840765E+02  0.44269706364E+03  0.44371517976E+03  0.20000052329E+01 0.  0.
        -13    1    3    3    0    0 -0.76310968603E+01 -0.28986840765E+02  0.89871921715E+02  0.94738820204E+02  0.10566000000E+00 0.  1.
         13    1    4    4    0    0  0.22700828583E+01  0.10591438758E+02  0.16661923372E+03  0.16697099167E+03  0.10566000000E+00 0. -1.
        -13    1    4    4    0    0  0.99039650787E+00  0.51304307273E+01  0.74298448616E+02  0.74482030285E+02  0.10566000000E+00 0.  1.
        -14    1    4    4    0    0  0.43706174941E+01  0.13264971280E+02  0.20177938130E+03  0.20226215780E+03  0.00000000000E+00 0.  1.
<mgrwt>
<rscale>  0 0.79391347E+02</rscale>
<asrwt>0</asrwt>
<pdfrwt beam="1">  1        2 0.82386371E-01 0.79391347E+02</pdfrwt>
<pdfrwt beam="2">  1       -1 0.45269350E-03 0.79391347E+02</pdfrwt>
<totfact> 0.31735210E+05</totfact>
</mgrwt>
</event>
<event>
 8    1  0.2676873E-020  0.7971841E+02  0.7818608E-02  0.1329852E+00
         -1   -1    0    0    0  501 -0.00000000000E+00  0.00000000000E+00  0.33485945901E+01  0.33485983830E+01  0.50400000000E-02 0.  1.
          2   -1    0    0  501    0  0.00000000000E+00 -0.00000000000E+00 -0.47445433936E+03  0.47445433937E+03  0.25500000000E-02 0. -1.
         24    2    1    2    0    0  0.00000000000E+00  0.00000000000E+00 -0.47110574477E+03  0.47780293775E+03  0.79718407957E+02 0.  0.
         66    2    3    3    0    0  0.88498774983E+01 -0.38088256679E+02 -0.28123480982E+03  0.28394727306E+03  0.19999991307E+01 0.  0.
        -13    1    3    3    0    0 -0.88498774983E+01  0.38088256679E+02 -0.18987093495E+03  0.19385566468E+03  0.10566000000E+00 0.  1.
         13    1    4    4    0    0  0.26083890060E+01 -0.12078508438E+02 -0.89801527044E+02  0.90647777042E+02  0.10566000000E+00 0. -1.
        -13    1    4    4    0    0  0.26491298646E+01 -0.12041464626E+02 -0.82815359556E+02  0.83728189409E+02  0.10566000000E+00 0.  1.
        -14    1    4    4    0    0  0.35923586278E+01 -0.13968283615E+02 -0.10861792322E+03  0.10957130661E+03  0.00000000000E+00 0.  1.
<mgrwt>
<rscale>  0 0.79718408E+02</rscale>
<asrwt>0</asrwt>
<pdfrwt beam="1">  1        2 0.72992922E-01 0.79718408E+02</pdfrwt>
<pdfrwt beam="2">  1       -1 0.51516907E-03 0.79718408E+02</pdfrwt>
<totfact> 0.30215981E+05</totfact>
</mgrwt>
</event>
<event>
 8    1  0.2676873E-020  0.7783824E+02  0.7818608E-02  0.1335301E+00
         -1   -1    0    0    0  501 -0.00000000000E+00  0.00000000000E+00  0.15857709694E+03  0.15857709702E+03  0.50400000000E-02 0.  1.
          2   -1    0    0  501    0  0.00000000000E+00 -0.00000000000E+00 -0.95518075027E+01  0.95518078431E+01  0.25500000000E-02 0. -1.
         24    2    1    2    0    0  0.00000000000E+00  0.00000000000E+00  0.14902528944E+03  0.16812890487E+03  0.77838240980E+02 0.  0.
         66    2    3    3    0    0  0.29489982828E+02  0.19799720195E+02  0.40340868670E+02  0.53787300499E+02  0.20000007328E+01 0.  0.
        -13    1    3    3    0    0 -0.29489982828E+02 -0.19799720195E+02  0.10868442077E+03  0.11434160437E+03  0.10566000000E+00 0.  1.
         13    1    4    4    0    0  0.14954924030E+02  0.10948300795E+02  0.21644637592E+02  0.28495903979E+02  0.10566000000E+00 0. -1.
        -13    1    4    4    0    0  0.12218579155E+02  0.74446238234E+01  0.15332957834E+02  0.20972049504E+02  0.10566000000E+00 0.  1.
         14    1    4    4    0    0  0.23164796431E+01  0.14067955767E+01  0.33632732439E+01  0.43193470160E+01  0.00000000000E+00 0. -1.
<mgrwt>
<rscale>  0 0.77838241E+02</rscale>
<asrwt>0</asrwt>
<pdfrwt beam="1">  1        2 0.14695089E-02 0.77838241E+02</pdfrwt>
<pdfrwt beam="2">  1       -1 0.24396477E-01 0.77838241E+02</pdfrwt>
<totfact> 0.11396410E+05</totfact>
</mgrwt>
</event>
<event>
 8    1  0.2676873E-020  0.7433847E+02  0.7818608E-02  0.1345932E+00
          2   -1    0    0  501    0  0.00000000000E+00  0.00000000000E+00  0.44985932867E+03  0.44985932868E+03  0.25500000000E-02 0. -1.
         -1   -1    0    0    0  501 -0.00000000000E+00 -0.00000000000E+00 -0.30710731763E+01  0.30710773119E+01  0.50400000000E-02 0.  1.
         24    2    1    2    0    0 -0.22204460493E-15 -0.71054273576E-14  0.44678825550E+03  0.45293040599E+03  0.74338465295E+02 0.  0.
         66    2    3    3    0    0  0.13752576027E+01  0.35009487441E+02  0.29867051171E+03  0.30072517371E+03  0.19999989746E+01 0.  0.
        -13    1    3    3    0    0 -0.13752576027E+01 -0.35009487441E+02  0.14811774379E+03  0.15220523228E+03  0.10566000000E+00 0.  1.
         13    1    4    4    0    0  0.10891835131E+01  0.23693988760E+02  0.20585112762E+03  0.20721314952E+03  0.10566000000E+00 0. -1.
        -13    1    4    4    0    0 -0.27658221456E+00  0.34959209644E+01  0.26727309562E+02  0.26956598479E+02  0.10566000000E+00 0.  1.
        -14    1    4    4    0    0  0.56265630419E+00  0.78195777157E+01  0.66092074523E+02  0.66555425718E+02  0.00000000000E+00 0.  1.
<mgrwt>
<rscale>  0 0.74338465E+02</rscale>
<asrwt>0</asrwt>
<pdfrwt beam="1">  1        2 0.69209116E-01 0.74338465E+02</pdfrwt>
<pdfrwt beam="2">  1       -1 0.47247319E-03 0.74338465E+02</pdfrwt>
<totfact> 0.35597608E+05</totfact>
</mgrwt>
</event>
<event>
 8    1  0.2676873E-020  0.8215571E+02  0.7818608E-02  0.1323043E+00
          2   -1    0    0  501    0  0.00000000000E+00  0.00000000000E+00  0.34940276544E+03  0.34940276545E+03  0.25500000000E-02 0. -1.
         -1   -1    0    0    0  501 -0.00000000000E+00 -0.00000000000E+00 -0.48293540226E+01  0.48293566525E+01  0.50400000000E-02 0.  1.
         24    2    1    2    0    0  0.17763568394E-14 -0.22204460493E-15  0.34457341142E+03  0.35423212210E+03  0.82155708706E+02 0.  0.
         66    2    3    3    0    0  0.15070745413E+02 -0.17743769060E+01  0.33686280905E+03  0.33721036151E+03  0.20000024616E+01 0.  0.
        -13    1    3    3    0    0 -0.15070745413E+02  0.17743769060E+01  0.77106023712E+01  0.17021760593E+02  0.10566000000E+00 0.  1.
         13    1    4    4    0    0  0.14900087107E+01  0.90738005346E-01  0.43115600779E+02  0.43141564110E+02  0.10566000000E+00 0. -1.
        -13    1    4    4    0    0  0.24945254479E+01 -0.42482261039E+00  0.46374250137E+02  0.46443356589E+02  0.10566000000E+00 0.  1.
         14    1    4    4    0    0  0.11086211255E+02 -0.14402923009E+01  0.24737295813E+03  0.24762544081E+03  0.00000000000E+00 0. -1.
<mgrwt>
<rscale>  0 0.82155709E+02</rscale>
<asrwt>0</asrwt>
<pdfrwt beam="1">  1        2 0.53754286E-01 0.82155709E+02</pdfrwt>
<pdfrwt beam="2">  1       -1 0.74297755E-03 0.82155709E+02</pdfrwt>
<totfact> 0.25120736E+05</totfact>
</mgrwt>
</event>
<event>
 8    1  0.2676873E-020  0.8026652E+02  0.7818608E-02  0.1328297E+00
          2   -1    0    0  501    0  0.00000000000E+00  0.00000000000E+00  0.58453407974E+03  0.58453407974E+03  0.25500000000E-02 0. -1.
         -1   -1    0    0    0  501 -0.00000000000E+00 -0.00000000000E+00 -0.27554891200E+01  0.27554937293E+01  0.50400000000E-02 0.  1.
         24    2    1    2    0    0  0.35527136788E-14  0.71054273576E-14  0.58177859062E+03  0.58728957347E+03  0.80266522339E+02 0.  0.
         66    2    3    3    0    0 -0.21769192447E+02 -0.17326702459E+02  0.50244115586E+03  0.50321489193E+03  0.20000010483E+01 0.  0.
        -13    1    3    3    0    0  0.21769192447E+02  0.17326702459E+02  0.79337434762E+02  0.84074681543E+02  0.10566000000E+00 0.  1.
         13    1    4    4    0    0 -0.26808837157E+01 -0.27572458267E+01  0.76827433130E+02  0.76923697177E+02  0.10566000000E+00 0. -1.
        -13    1    4    4    0    0 -0.49558312722E+00 -0.35306485126E+00  0.11623424304E+02  0.11639820188E+02  0.10566000000E+00 0. -1.
        -14    1    4    4    0    0 -0.18592725604E+02 -0.14216391781E+02  0.41399029842E+03  0.41465137456E+03  0.00000000000E+00 0.  1.
<mgrwt>
<rscale>  0 0.80266522E+02</rscale>
<asrwt>0</asrwt>
<pdfrwt beam="1">  1        2 0.89928349E-01 0.80266522E+02</pdfrwt>
<pdfrwt beam="2">  1       -1 0.42392162E-03 0.80266522E+02</pdfrwt>
<totfact> 0.31652431E+05</totfact>
</mgrwt>
</event>
<event>
 8    1  0.2676873E-020  0.8718251E+02  0.7818608E-02  0.1309822E+00
          2   -1    0    0  501    0  0.00000000000E+00  0.00000000000E+00  0.38460239935E+03  0.38460239936E+03  0.25500000000E-02 0. -1.
         -1   -1    0    0    0  501 -0.00000000000E+00 -0.00000000000E+00 -0.49406792355E+01  0.49406818062E+01  0.50400000000E-02 0.  1.
         24    2    1    2    0    0  0.00000000000E+00  0.00000000000E+00  0.37966172011E+03  0.38954308116E+03  0.87182511795E+02 0.  0.
         66    2    3    3    0    0  0.23172801288E+02  0.30650996886E+02  0.28168838311E+03  0.28430407577E+03  0.19999969487E+01 0.  0.
        -13    1    3    3    0    0 -0.23172801288E+02 -0.30650996886E+02  0.97973336999E+02  0.10523900539E+03  0.10566000000E+00 0.  1.
         13    1    4    4    0    0  0.20707902170E+01  0.36397976007E+01  0.31098993657E+02  0.31379848139E+02  0.10566000000E+00 0. -1.
        -13    1    4    4    0    0  0.19279155084E+01  0.21447478879E+01  0.20532045439E+02  0.20733857713E+02  0.10566000000E+00 0.  1.
         14    1    4    4    0    0  0.19174095562E+02  0.24866451397E+02  0.23005734402E+03  0.23219036992E+03  0.00000000000E+00 0. -1.
<mgrwt>
<rscale>  0 0.87182512E+02</rscale>
<asrwt>0</asrwt>
<pdfrwt beam="1">  1        2 0.59169615E-01 0.87182512E+02</pdfrwt>
<pdfrwt beam="2">  1       -1 0.76010451E-03 0.87182512E+02</pdfrwt>
<totfact> 0.22237561E+05</totfact>
</mgrwt>
</event>
<event>
 8    1  0.2676873E-020  0.7866186E+02  0.7818608E-02  0.1332892E+00
         -1   -1    0    0    0  501 -0.00000000000E+00  0.00000000000E+00  0.12438060080E+01  0.12438162192E+01  0.50400000000E-02 0.  1.
          2   -1    0    0  501    0  0.00000000000E+00 -0.00000000000E+00 -0.12436954247E+04  0.12436954247E+04  0.25500000000E-02 0. -1.
         24    2    1    2    0    0  0.00000000000E+00  0.17763568394E-14 -0.12424516187E+04  0.12449392410E+04  0.78661863675E+02 0.  0.
         66    2    3    3    0    0 -0.19891434435E+01 -0.11036578539E+02 -0.12178356019E+04  0.12178888767E+04  0.19999989219E+01 0.  0.
        -13    1    3    3    0    0  0.19891434435E+01  0.11036578539E+02 -0.24616016813E+02  0.27050364235E+02  0.10566000000E+00 0.  1.
         13    1    4    4    0    0 -0.11541633666E+01 -0.48249991219E+01 -0.51825437777E+03  0.51827813377E+03  0.10566000000E+00 0. -1.
        -13    1    4    4    0    0 -0.10448141291E+01 -0.58758076424E+01 -0.62608569605E+03  0.62611414831E+03  0.10566000000E+00 0.  1.
        -14    1    4    4    0    0  0.20983405219E+00 -0.33577177439E+00 -0.73495528103E+02  0.73496594643E+02  0.00000000000E+00 0.  1.
<mgrwt>
<rscale>  0 0.78661864E+02</rscale>
<asrwt>0</asrwt>
<pdfrwt beam="1">  1        2 0.19133676E+00 0.78661864E+02</pdfrwt>
<pdfrwt beam="2">  1       -1 0.19135655E-03 0.78661864E+02</pdfrwt>
<totfact> 0.36438149E+05</totfact>
</mgrwt>
</event>
<event>
 8    1  0.2676873E-020  0.8071526E+02  0.7818608E-02  0.1327034E+00
          2   -1    0    0  501    0  0.00000000000E+00  0.00000000000E+00  0.36329461915E+02  0.36329462004E+02  0.25500000000E-02 0. -1.
         -1   -1    0    0    0  501 -0.00000000000E+00 -0.00000000000E+00 -0.44832441667E+02  0.44832441950E+02  0.50400000000E-02 0.  1.
         24    2    1    2    0    0  0.00000000000E+00  0.00000000000E+00 -0.85029797524E+01  0.81161903954E+02  0.80715264906E+02 0.  0.
         66    2    3    3    0    0  0.10140977300E+02  0.34100330793E+01  0.34848955257E+02  0.36509141673E+02  0.19999992523E+01 0.  0.
        -13    1    3    3    0    0 -0.10140977300E+02 -0.34100330793E+01 -0.43351935010E+02  0.44652762281E+02  0.10566000000E+00 0.  1.
         13    1    4    4    0    0  0.14365501723E+01  0.12330809994E+00  0.39493082808E+01  0.42056011720E+01  0.10566000000E+00 0. -1.
        -13    1    4    4    0    0  0.61002810544E+00 -0.12732930775E+00  0.22748186175E+01  0.23609978442E+01  0.10566000000E+00 0. -1.
         14    1    4    4    0    0  0.80943990220E+01  0.34140542871E+01  0.28624828359E+02  0.29942542657E+02  0.00000000000E+00 0. -1.
<mgrwt>
<rscale>  0 0.80715265E+02</rscale>
<asrwt>0</asrwt>
<pdfrwt beam="1">  1        2 0.55891480E-02 0.80715265E+02</pdfrwt>
<pdfrwt beam="2">  1       -1 0.68972988E-02 0.80715265E+02</pdfrwt>
<totfact> 0.13637022E+05</totfact>
</mgrwt>
</event>
<event>
 8    1  0.2676873E-020  0.7885445E+02  0.7818608E-02  0.1332334E+00
         -1   -1    0    0    0  501 -0.00000000000E+00  0.00000000000E+00  0.34492067668E+02  0.34492068036E+02  0.50400000000E-02 0.  1.
          2   -1    0    0  501    0  0.00000000000E+00 -0.00000000000E+00 -0.45068505912E+02  0.45068505984E+02  0.25500000000E-02 0. -1.
         24    2    1    2    0    0  0.00000000000E+00  0.00000000000E+00 -0.10576438244E+02  0.79560574020E+02  0.78854447512E+02 0.  0.
         66    2    3    3    0    0  0.13939970445E+02 -0.31551059687E+02 -0.24507072816E+02  0.42360226078E+02  0.19999979933E+01 0.  0.
        -13    1    3    3    0    0 -0.13939970445E+02  0.31551059687E+02  0.13930634572E+02  0.37200347942E+02  0.10566000000E+00 0.  1.
         13    1    4    4    0    0  0.14422921422E+01 -0.34067654913E+01 -0.29757848592E+01  0.47489701304E+01  0.10566000000E+00 0. -1.
        -13    1    4    4    0    0  0.59921026817E+01 -0.15267968931E+02 -0.11931975146E+02  0.20282982146E+02  0.10566000000E+00 0.  1.
         14    1    4    4    0    0  0.65055756211E+01 -0.12876325265E+02 -0.95993128104E+01  0.17328273801E+02  0.00000000000E+00 0. -1.
<mgrwt>
<rscale>  0 0.78854448E+02</rscale>
<asrwt>0</asrwt>
<pdfrwt beam="1">  1        2 0.69336163E-02 0.78854448E+02</pdfrwt>
<pdfrwt beam="2">  1       -1 0.53064720E-02 0.78854448E+02</pdfrwt>
<totfact> 0.15204678E+05</totfact>
</mgrwt>
</event>
<event>
 8    1  0.2676873E-020  0.7871734E+02  0.7818608E-02  0.1332731E+00
          2   -1    0    0  501    0  0.00000000000E+00  0.00000000000E+00  0.60454934543E+02  0.60454934596E+02  0.25500000000E-02 0. -1.
         -1   -1    0    0    0  501 -0.00000000000E+00 -0.00000000000E+00 -0.25624128402E+02  0.25624128897E+02  0.50400000000E-02 0.  1.
         24    2    1    2    0    0 -0.35527136788E-14  0.00000000000E+00  0.34830806141E+02  0.86079063494E+02  0.78717343169E+02 0.  0.
         66    2    3    3    0    0 -0.22056479226E+02  0.32537075601E+02  0.15899390687E+02  0.42449266111E+02  0.20000011516E+01 0.  0.
        -13    1    3    3    0    0  0.22056479226E+02 -0.32537075601E+02  0.18931415454E+02  0.43629797383E+02  0.10566000000E+00 0.  1.
         13    1    4    4    0    0 -0.11367026334E+02  0.16249604909E+02  0.74622578363E+01  0.21188567753E+02  0.10566000000E+00 0. -1.
        -13    1    4    4    0    0 -0.10197766815E+02  0.15254349732E+02  0.81683984873E+01  0.20085405936E+02  0.10566000000E+00 0.  1.
         14    1    4    4    0    0 -0.49168607701E+00  0.10331209608E+01  0.26873436341E+00  0.11752924215E+01  0.00000000000E+00 0. -1.
<mgrwt>
<rscale>  0 0.78717343E+02</rscale>
<asrwt>0</asrwt>
<pdfrwt beam="1">  1        2 0.93007592E-02 0.78717343E+02</pdfrwt>
<pdfrwt beam="2">  1       -1 0.39421736E-02 0.78717343E+02</pdfrwt>
<totfact> 0.16293457E+05</totfact>
</mgrwt>
</event>
<event>
 8    1  0.2676873E-020  0.7924735E+02  0.7818608E-02  0.1331201E+00
          2   -1    0    0  501    0  0.00000000000E+00  0.00000000000E+00  0.10367293890E+03  0.10367293893E+03  0.25500000000E-02 0. -1.
         -1   -1    0    0    0  501 -0.00000000000E+00 -0.00000000000E+00 -0.15144123137E+02  0.15144123975E+02  0.50400000000E-02 0.  1.
         24    2    1    2    0    0 -0.35527136788E-14  0.35527136788E-14  0.88528815762E+02  0.11881706291E+03  0.79247354639E+02 0.  0.
         66    2    3    3    0    0  0.22872643722E+02 -0.26648540367E+02  0.71723435859E+02  0.79884627941E+02  0.19999988372E+01 0.  0.
        -13    1    3    3    0    0 -0.22872643722E+02  0.26648540367E+02  0.16805379902E+02  0.38932434964E+02  0.10566000000E+00 0.  1.
         13    1    4    4    0    0  0.39313737987E+01 -0.37294112958E+01  0.10505069697E+02  0.11820823235E+02  0.10566000000E+00 0. -1.
        -13    1    4    4    0    0  0.40010961652E+01 -0.51120692159E+01  0.14176141145E+02  0.15592182785E+02  0.10566000000E+00 0.  1.
         14    1    4    4    0    0  0.14940173758E+02 -0.17807059855E+02  0.47042225016E+02  0.52471621922E+02  0.00000000000E+00 0. -1.
<mgrwt>
<rscale>  0 0.79247355E+02</rscale>
<asrwt>0</asrwt>
<pdfrwt beam="1">  1        2 0.15949683E-01 0.79247355E+02</pdfrwt>
<pdfrwt beam="2">  1       -1 0.23298652E-02 0.79247355E+02</pdfrwt>
<totfact> 0.18365490E+05</totfact>
</mgrwt>
</event>
<event>
 8    1  0.2676873E-020  0.7729507E+02  0.7818608E-02  0.1336908E+00
          2   -1    0    0  501    0  0.00000000000E+00  0.00000000000E+00  0.11245612062E+04  0.11245612062E+04  0.25500000000E-02 0. -1.
         -1   -1    0    0    0  501 -0.00000000000E+00 -0.00000000000E+00 -0.13281861598E+01  0.13281957223E+01  0.50400000000E-02 0.  1.
         24    2    1    2    0    0  0.00000000000E+00 -0.35527136788E-14  0.11232330200E+04  0.11258894019E+04  0.77295071374E+02 0.  0.
         66    2    3    3    0    0  0.15410963410E+02  0.17597764135E+02  0.10096356611E+04  0.10099085836E+04  0.19999945355E+01 0.  0.
        -13    1    3    3    0    0 -0.15410963410E+02 -0.17597764135E+02  0.11359735888E+03  0.11598081826E+03  0.10566000000E+00 0.  1.
         13    1    4    4    0    0  0.59724124213E+01  0.69587234289E+01  0.35839105759E+03  0.35850837489E+03  0.10566000000E+00 0. -1.
        -13    1    4    4    0    0  0.88859698096E+01  0.99929797136E+01  0.60480081654E+03  0.60494864158E+03  0.10566000000E+00 0.  1.
         14    1    4    4    0    0  0.55258117862E+00  0.64606099230E+00  0.46443787015E+02  0.46451567175E+02  0.00000000000E+00 0. -1.
<mgrwt>
<rscale>  0 0.77295071E+02</rscale>
<asrwt>0</asrwt>
<pdfrwt beam="1">  1        2 0.17300965E+00 0.77295071E+02</pdfrwt>
<pdfrwt beam="2">  1       -1 0.20433680E-03 0.77295071E+02</pdfrwt>
<totfact> 0.38503468E+05</totfact>
</mgrwt>
</event>
<event>
 8    1  0.2676873E-020  0.7010240E+02  0.7818608E-02  0.1359745E+00
         -1   -1    0    0    0  501 -0.00000000000E+00  0.00000000000E+00  0.26813163699E+02  0.26813164172E+02  0.50400000000E-02 0.  1.
          2   -1    0    0  501    0  0.00000000000E+00 -0.00000000000E+00 -0.45820279562E+02  0.45820279633E+02  0.25500000000E-02 0. -1.
         24    2    1    2    0    0 -0.35527136788E-14  0.35527136788E-14 -0.19007115863E+02  0.72633443806E+02  0.70102401568E+02 0.  0.
         66    2    3    3    0    0  0.24496839522E+02 -0.16755566219E+02 -0.28776632436E+02  0.41387663867E+02  0.20000000439E+01 0.  0.
        -13    1    3    3    0    0 -0.24496839522E+02  0.16755566219E+02  0.97695165726E+01  0.31245779938E+02  0.10566000000E+00 0.  1.
         13    1    4    4    0    0  0.30043506114E+01 -0.20804244515E+01 -0.40863389659E+01  0.54830300633E+01  0.10566000000E+00 0. -1.
        -13    1    4    4    0    0  0.14510578672E+02 -0.10400331024E+02 -0.17691264484E+02  0.25133956750E+02  0.10566000000E+00 0.  1.
        -14    1    4    4    0    0  0.69819102383E+01 -0.42748107431E+01 -0.69990289857E+01  0.10770677054E+02  0.00000000000E+00 0.  1.
<mgrwt>
<rscale>  0 0.70102402E+02</rscale>
<asrwt>0</asrwt>
<pdfrwt beam="1">  1        2 0.70492738E-02 0.70102402E+02</pdfrwt>
<pdfrwt beam="2">  1       -1 0.41251022E-02 0.70102402E+02</pdfrwt>
<totfact> 0.21001595E+05</totfact>
</mgrwt>
</event>
<event>
 8    1  0.2676873E-020  0.8100040E+02  0.7818608E-02  0.1326236E+00
          2   -1    0    0  501    0  0.00000000000E+00  0.00000000000E+00  0.26339695988E+02  0.26339696112E+02  0.25500000000E-02 0. -1.
         -1   -1    0    0    0  501 -0.00000000000E+00 -0.00000000000E+00 -0.62273543344E+02  0.62273543547E+02  0.50400000000E-02 0.  1.
         24    2    1    2    0    0  0.00000000000E+00  0.00000000000E+00 -0.35933847355E+02  0.88613239659E+02  0.81000400351E+02 0.  0.
         66    2    3    3    0    0 -0.10237539143E+02  0.30994877788E+02  0.82041147742E+01  0.33716422613E+02  0.19999994567E+01 0.  0.
        -13    1    3    3    0    0  0.10237539143E+02 -0.30994877788E+02 -0.44137962130E+02  0.54896817046E+02  0.10566000000E+00 0.  1.
         13    1    4    4    0    0 -0.54045466027E+01  0.15443163126E+02  0.44961957457E+01  0.16968422188E+02  0.10566000000E+00 0.  1.
        -13    1    4    4    0    0 -0.10888486802E+01  0.33133694204E+01  0.13095710751E+01  0.37269489936E+01  0.10566000000E+00 0. -1.
        -14    1    4    4    0    0 -0.37441438598E+01  0.12238345241E+02  0.23983479533E+01  0.13021051432E+02  0.00000000000E+00 0.  1.
<mgrwt>
<rscale>  0 0.81000400E+02</rscale>
<asrwt>0</asrwt>
<pdfrwt beam="1">  1        2 0.40522609E-02 0.81000400E+02</pdfrwt>
<pdfrwt beam="2">  1       -1 0.95805452E-02 0.81000400E+02</pdfrwt>
<totfact> 0.12662033E+05</totfact>
</mgrwt>
</event>
<event>
 8    1  0.2676873E-020  0.7748158E+02  0.7818608E-02  0.1336354E+00
          2   -1    0    0  501    0  0.00000000000E+00  0.00000000000E+00  0.25946195638E+02  0.25946195763E+02  0.25500000000E-02 0. -1.
         -1   -1    0    0    0  501 -0.00000000000E+00 -0.00000000000E+00 -0.57844660804E+02  0.57844661024E+02  0.50400000000E-02 0.  1.
         24    2    1    2    0    0  0.00000000000E+00  0.71054273576E-14 -0.31898465166E+02  0.83790856787E+02  0.77481582335E+02 0.  0.
         66    2    3    3    0    0  0.18168888256E+02 -0.24996692748E+02  0.92609209821E+01  0.32321940139E+02  0.20000020248E+01 0.  0.
        -13    1    3    3    0    0 -0.18168888256E+02  0.24996692748E+02 -0.41159386148E+02  0.51468916648E+02  0.10566000000E+00 0.  1.
         13    1    4    4    0    0  0.10955423718E+01 -0.18349064965E+01  0.31188180475E+00  0.21622972125E+01  0.10566000000E+00 0. -1.
        -13    1    4    4    0    0  0.52737174480E+01 -0.74654542028E+01  0.34136052690E+01  0.97575082446E+01  0.10566000000E+00 0.  1.
         14    1    4    4    0    0  0.11799628436E+02 -0.15696332049E+02  0.55354339084E+01  0.20402134682E+02  0.00000000000E+00 0. -1.
<mgrwt>
<rscale>  0 0.77481582E+02</rscale>
<asrwt>0</asrwt>
<pdfrwt beam="1">  1        2 0.39917224E-02 0.77481582E+02</pdfrwt>
<pdfrwt beam="2">  1       -1 0.88991786E-02 0.77481582E+02</pdfrwt>
<totfact> 0.14308950E+05</totfact>
</mgrwt>
</event>
<event>
 8    1  0.2676873E-020  0.8142825E+02  0.7818608E-02  0.1325046E+00
         -1   -1    0    0    0  501 -0.00000000000E+00  0.00000000000E+00  0.27661145714E+02  0.27661146174E+02  0.50400000000E-02 0.  1.
          2   -1    0    0  501    0  0.00000000000E+00 -0.00000000000E+00 -0.59926660347E+02  0.59926660402E+02  0.25500000000E-02 0. -1.
         24    2    1    2    0    0  0.17763568394E-14  0.00000000000E+00 -0.32265514633E+02  0.87587806575E+02  0.81428253243E+02 0.  0.
         66    2    3    3    0    0 -0.12504925404E+02  0.27989407915E+01 -0.57682765787E+02  0.59122827229E+02  0.20000004715E+01 0.  0.
        -13    1    3    3    0    0  0.12504925404E+02 -0.27989407915E+01  0.25417251154E+02  0.28464979346E+02  0.10566000000E+00 0.  1.
         13    1    4    4    0    0 -0.44253342586E+01  0.83832271761E+00 -0.16968919507E+02  0.17556815245E+02  0.10566000000E+00 0. -1.
        -13    1    4    4    0    0 -0.69076474247E+00  0.33050201543E+00 -0.28143203740E+01  0.29185528460E+01  0.10566000000E+00 0. -1.
         14    1    4    4    0    0 -0.73888264027E+01  0.16301160585E+01 -0.37899525906E+02  0.38647459138E+02  0.00000000000E+00 0. -1.
<mgrwt>
<rscale>  0 0.81428253E+02</rscale>
<asrwt>0</asrwt>
<pdfrwt beam="1">  1        2 0.92194862E-02 0.81428253E+02</pdfrwt>
<pdfrwt beam="2">  1       -1 0.42555609E-02 0.81428253E+02</pdfrwt>
<totfact> 0.14829427E+05</totfact>
</mgrwt>
</event>
<event>
 8    1  0.2676873E-020  0.8002553E+02  0.7818608E-02  0.1328979E+00
          2   -1    0    0  501    0  0.00000000000E+00  0.00000000000E+00  0.18284646836E+03  0.18284646838E+03  0.25500000000E-02 0. -1.
         -1   -1    0    0    0  501 -0.00000000000E+00 -0.00000000000E+00 -0.87560965879E+01  0.87560980384E+01  0.50400000000E-02 0.  1.
         24    2    1    2    0    0 -0.35527136788E-14  0.00000000000E+00  0.17409037177E+03  0.19160256642E+03  0.80025532885E+02 0.  0.
         66    2    3    3    0    0 -0.17652729519E+02 -0.24213894342E+01  0.17281066765E+03  0.17373833419E+03  0.19999822873E+01 0.  0.
        -13    1    3    3    0    0  0.17652729519E+02  0.24213894342E+01  0.12797041260E+01  0.17864232224E+02  0.10566000000E+00 0.  1.
         13    1    4    4    0    0 -0.18064387669E+01 -0.58707067722E+00  0.15165933589E+02  0.15284782584E+02  0.10566000000E+00 0. -1.
        -13    1    4    4    0    0 -0.45741976407E+01 -0.40182048117E+00  0.50183380792E+02  0.50393130638E+02  0.10566000000E+00 0.  1.
         14    1    4    4    0    0 -0.11272093112E+02 -0.14324982758E+01  0.10746135326E+03  0.10806042097E+03  0.00000000000E+00 0. -1.
<mgrwt>
<rscale>  0 0.80025533E+02</rscale>
<asrwt>0</asrwt>
<pdfrwt beam="1">  1        2 0.28130228E-01 0.80025533E+02</pdfrwt>
<pdfrwt beam="2">  1       -1 0.13470918E-02 0.80025533E+02</pdfrwt>
<totfact> 0.21370250E+05</totfact>
</mgrwt>
</event>
<event>
 8    1  0.2676873E-020  0.7202364E+02  0.7818608E-02  0.1353344E+00
         -1   -1    0    0    0  501 -0.00000000000E+00  0.00000000000E+00  0.30804206421E+01  0.30804247652E+01  0.50400000000E-02 0.  1.
          2   -1    0    0  501    0  0.00000000000E+00 -0.00000000000E+00 -0.42099774906E+03  0.42099774907E+03  0.25500000000E-02 0. -1.
         24    2    1    2    0    0  0.00000000000E+00  0.44408920985E-15 -0.41791732842E+03  0.42407817383E+03  0.72023635909E+02 0.  0.
         66    2    3    3    0    0  0.26653699275E+02 -0.16837930648E+01 -0.35111656734E+03  0.35213647738E+03  0.19999990076E+01 0.  0.
        -13    1    3    3    0    0 -0.26653699275E+02  0.16837930648E+01 -0.66800761081E+02  0.71941696457E+02  0.10566000000E+00 0.  1.
         13    1    4    4    0    0  0.11325697757E+02 -0.10429697423E+01 -0.14713284377E+03  0.14757182690E+03  0.10566000000E+00 0. -1.
        -13    1    4    4    0    0  0.48033280377E+01 -0.28561106352E+00 -0.72810308888E+02  0.72969211167E+02  0.10566000000E+00 0.  1.
        -14    1    4    4    0    0  0.10524673480E+02 -0.35521225899E+00 -0.13117341468E+03  0.13159543931E+03  0.00000000000E+00 0.  1.
<mgrwt>
<rscale>  0 0.72023636E+02</rscale>
<asrwt>0</asrwt>
<pdfrwt beam="1">  1        2 0.64768839E-01 0.72023636E+02</pdfrwt>
<pdfrwt beam="2">  1       -1 0.47391152E-03 0.72023636E+02</pdfrwt>
<totfact> 0.37774703E+05</totfact>
</mgrwt>
</event>
<event>
 8    1  0.2676873E-020  0.7898405E+02  0.7818608E-02  0.1331960E+00
         -1   -1    0    0    0  501 -0.00000000000E+00  0.00000000000E+00  0.44520603608E+02  0.44520603893E+02  0.50400000000E-02 0.  1.
          2   -1    0    0  501    0  0.00000000000E+00 -0.00000000000E+00 -0.35031418805E+02  0.35031418898E+02  0.25500000000E-02 0. -1.
         24    2    1    2    0    0 -0.17763568394E-14  0.00000000000E+00  0.94891848025E+01  0.79552022791E+02  0.78984047135E+02 0.  0.
         66    2    3    3    0    0  0.94533891831E+01  0.26354836860E+02 -0.23267333522E+02  0.36459742162E+02  0.19999990885E+01 0.  0.
        -13    1    3    3    0    0 -0.94533891831E+01 -0.26354836860E+02  0.32756518325E+02  0.43092280628E+02  0.10566000000E+00 0.  1.
         13    1    4    4    0    0  0.12900887858E+01  0.30267908678E+01 -0.29122595245E+01  0.43952487536E+01  0.10566000000E+00 0. -1.
        -13    1    4    4    0    0  0.81844705837E+01  0.23330375654E+02 -0.20254425248E+02  0.31961615933E+02  0.10566000000E+00 0.  1.
        -14    1    4    4    0    0 -0.21170186400E-01 -0.23296621456E-02 -0.10064875006E+00  0.10287747570E+00  0.00000000000E+00 0.  1.
<mgrwt>
<rscale>  0 0.78984047E+02</rscale>
<asrwt>0</asrwt>
<pdfrwt beam="1">  1        2 0.53894491E-02 0.78984047E+02</pdfrwt>
<pdfrwt beam="2">  1       -1 0.68493236E-02 0.78984047E+02</pdfrwt>
<totfact> 0.14378138E+05</totfact>
</mgrwt>
</event>
<event>
 8    1  0.2676873E-020  0.7995949E+02  0.7818608E-02  0.1329166E+00
         -1   -1    0    0    0  501 -0.00000000000E+00  0.00000000000E+00  0.48098026675E+01  0.48098053081E+01  0.50400000000E-02 0.  1.
          2   -1    0    0  501    0  0.00000000000E+00 -0.00000000000E+00 -0.33231704312E+03  0.33231704313E+03  0.25500000000E-02 0. -1.
         24    2    1    2    0    0  0.17763568394E-14 -0.71054273576E-14 -0.32750724045E+03  0.33712684843E+03  0.79959485921E+02 0.  0.
         66    2    3    3    0    0  0.12454993839E+02 -0.36161497269E+02 -0.21258809400E+03  0.21601036672E+03  0.20000168320E+01 0.  0.
        -13    1    3    3    0    0 -0.12454993839E+02  0.36161497269E+02 -0.11491914645E+03  0.12111648171E+03  0.10566000000E+00 0.  1.
         13    1    4    4    0    0  0.55472564349E+00 -0.23059430971E+01 -0.11661698957E+02  0.11900902517E+02  0.10566000000E+00 0. -1.
        -13    1    4    4    0    0  0.20427066976E+01 -0.71634006070E+01 -0.42635004821E+02  0.43280963009E+02  0.10566000000E+00 0.  1.
         14    1    4    4    0    0  0.98575614980E+01 -0.26692153565E+02 -0.15829139022E+03  0.16082850120E+03  0.00000000000E+00 0. -1.
<mgrwt>
<rscale>  0 0.79959486E+02</rscale>
<asrwt>0</asrwt>
<pdfrwt beam="1">  1        2 0.51125681E-01 0.79959486E+02</pdfrwt>
<pdfrwt beam="2">  1       -1 0.73997011E-03 0.79959486E+02</pdfrwt>
<totfact> 0.26488699E+05</totfact>
</mgrwt>
</event>
<event>
 8    1  0.2676873E-020  0.7899971E+02  0.7818608E-02  0.1331914E+00
          2   -1    0    0  501    0  0.00000000000E+00  0.00000000000E+00  0.10873142459E+04  0.10873142459E+04  0.25500000000E-02 0. -1.
         -1   -1    0    0    0  501 -0.00000000000E+00 -0.00000000000E+00 -0.14349426760E+01  0.14349515271E+01  0.50400000000E-02 0.  1.
         24    2    1    2    0    0  0.17763568394E-14 -0.17763568394E-14  0.10858793032E+04  0.10887491974E+04  0.78999707179E+02 0.  0.
         66    2    3    3    0    0  0.13328248010E+02 -0.10329109281E+02  0.10351791315E+04  0.10353183891E+04  0.19999966295E+01 0.  0.
        -13    1    3    3    0    0 -0.13328248010E+02  0.10329109281E+02  0.50700171741E+02  0.53430808268E+02  0.10566000000E+00 0.  1.
         13    1    4    4    0    0  0.91120660694E+01 -0.65729946606E+01  0.64902022284E+03  0.64911747383E+03  0.10566000000E+00 0. -1.
        -13    1    4    4    0    0  0.15585388971E+00 -0.32763686011E+00  0.29429830047E+02  0.29432256063E+02  0.10566000000E+00 0. -1.
         14    1    4    4    0    0  0.40603280505E+01 -0.34284777599E+01  0.35672907856E+03  0.35676865924E+03  0.00000000000E+00 0. -1.
<mgrwt>
<rscale>  0 0.78999707E+02</rscale>
<asrwt>0</asrwt>
<pdfrwt beam="1">  1        2 0.16727900E+00 0.78999707E+02</pdfrwt>
<pdfrwt beam="2">  1       -1 0.22076124E-03 0.78999707E+02</pdfrwt>
<totfact> 0.36433001E+05</totfact>
</mgrwt>
</event>
<event>
 8    1  0.2676873E-020  0.7880828E+02  0.7818608E-02  0.1332468E+00
          2   -1    0    0  501    0  0.00000000000E+00  0.00000000000E+00  0.30704635283E+03  0.30704635284E+03  0.25500000000E-02 0. -1.
         -1   -1    0    0    0  501 -0.00000000000E+00 -0.00000000000E+00 -0.50568448050E+01  0.50568473166E+01  0.50400000000E-02 0.  1.
         24    2    1    2    0    0  0.00000000000E+00  0.00000000000E+00  0.30198950802E+03  0.31210320016E+03  0.78808277428E+02 0.  0.
         66    2    3    3    0    0  0.85033558792E+01 -0.58864379795E+01  0.30156815814E+03  0.30175206915E+03  0.20000049099E+01 0.  0.
        -13    1    3    3    0    0 -0.85033558792E+01  0.58864379795E+01  0.42134988227E+00  0.10351131004E+02  0.10566000000E+00 0.  1.
         13    1    4    4    0    0  0.13131083144E+01 -0.13023053291E+01  0.42875736144E+02  0.42915733322E+02  0.10566000000E+00 0. -1.
        -13    1    4    4    0    0  0.65394766368E+00 -0.92819109572E+00  0.33200370670E+02  0.33219948268E+02  0.10566000000E+00 0.  1.
        -14    1    4    4    0    0  0.65362999011E+01 -0.36559415547E+01  0.22549205133E+03  0.22561638756E+03  0.00000000000E+00 0.  1.
<mgrwt>
<rscale>  0 0.78808277E+02</rscale>
<asrwt>0</asrwt>
<pdfrwt beam="1">  1        2 0.47237896E-01 0.78808277E+02</pdfrwt>
<pdfrwt beam="2">  1       -1 0.77797639E-03 0.78808277E+02</pdfrwt>
<totfact> 0.26740292E+05</totfact>
</mgrwt>
</event>
<event>
 8    1  0.2676873E-020  0.7992146E+02  0.7818608E-02  0.1329274E+00
          2   -1    0    0  501    0  0.00000000000E+00  0.00000000000E+00  0.19419660868E+02  0.19419661035E+02  0.25500000000E-02 0. -1.
         -1   -1    0    0    0  501 -0.00000000000E+00 -0.00000000000E+00 -0.82229040069E+02  0.82229040223E+02  0.50400000000E-02 0.  1.
         24    2    1    2    0    0  0.00000000000E+00  0.11102230246E-15 -0.62809379201E+02  0.10164870126E+03  0.79921463650E+02 0.  0.
         66    2    3    3    0    0 -0.23763504716E+02 -0.65197252935E+00  0.93887650121E+01  0.25637436196E+02  0.20000004195E+01 0.  0.
        -13    1    3    3    0    0  0.23763504716E+02  0.65197252935E+00 -0.72198144213E+02  0.76011265063E+02  0.10566000000E+00 0.  1.
         13    1    4    4    0    0 -0.81361447793E+00  0.24015886046E+00  0.29727462806E+00  0.90508620420E+00  0.10566000000E+00 0. -1.
        -13    1    4    4    0    0 -0.83224069791E+01 -0.83303140934E+00  0.36313830434E+01  0.91189092603E+01  0.10566000000E+00 0.  1.
         14    1    4    4    0    0 -0.14627483259E+02 -0.59099980471E-01  0.54601073406E+01  0.15613440731E+02  0.00000000000E+00 0. -1.
<mgrwt>
<rscale>  0 0.79921464E+02</rscale>
<asrwt>0</asrwt>
<pdfrwt beam="1">  1        2 0.29876402E-02 0.79921464E+02</pdfrwt>
<pdfrwt beam="2">  1       -1 0.12650621E-01 0.79921464E+02</pdfrwt>
<totfact> 0.12376708E+05</totfact>
</mgrwt>
</event>
<event>
 8    1  0.2676873E-020  0.7685466E+02  0.7818608E-02  0.1338222E+00
         -1   -1    0    0    0  501 -0.00000000000E+00  0.00000000000E+00  0.13493364708E+01  0.13493458834E+01  0.50400000000E-02 0.  1.
          2   -1    0    0  501    0  0.00000000000E+00 -0.00000000000E+00 -0.10943560520E+04  0.10943560520E+04  0.25500000000E-02 0. -1.
         24    2    1    2    0    0  0.00000000000E+00  0.00000000000E+00 -0.10930067156E+04  0.10957053979E+04  0.76854660012E+02 0.  0.
         66    2    3    3    0    0  0.12267811680E+02  0.13205042401E+02 -0.10303000065E+04  0.10304595944E+04  0.20000000867E+01 0.  0.
        -13    1    3    3    0    0 -0.12267811680E+02 -0.13205042401E+02 -0.62706709069E+02  0.65245803501E+02  0.10566000000E+00 0.  1.
         13    1    4    4    0    0  0.70879695173E+01  0.67284757878E+01 -0.58863991134E+03  0.58872104437E+03  0.10566000000E+00 0. -1.
        -13    1    4    4    0    0  0.48968370068E+01  0.57987834360E+01 -0.40316790932E+03  0.40323935718E+03  0.10566000000E+00 0.  1.
        -14    1    4    4    0    0  0.28300515543E+00  0.67778317716E+00 -0.38492185821E+02  0.38499192865E+02  0.00000000000E+00 0.  1.
<mgrwt>
<rscale>  0 0.76854660E+02</rscale>
<asrwt>0</asrwt>
<pdfrwt beam="1">  1        2 0.16836176E+00 0.76854660E+02</pdfrwt>
<pdfrwt beam="2">  1       -1 0.20759183E-03 0.76854660E+02</pdfrwt>
<totfact> 0.39117977E+05</totfact>
</mgrwt>
</event>
<event>
 8    1  0.2676873E-020  0.7760457E+02  0.7818608E-02  0.1335990E+00
         -1   -1    0    0    0  501 -0.00000000000E+00  0.00000000000E+00  0.77890344094E+01  0.77890360400E+01  0.50400000000E-02 0.  1.
          2   -1    0    0  501    0  0.00000000000E+00 -0.00000000000E+00 -0.19329959695E+03  0.19329959697E+03  0.25500000000E-02 0. -1.
         24    2    1    2    0    0 -0.71054273576E-14 -0.17763568394E-14 -0.18551056254E+03  0.20108863301E+03  0.77604571453E+02 0.  0.
         66    2    3    3    0    0 -0.34800414604E+02 -0.12673193026E+02 -0.12257981852E+03  0.12806830443E+03  0.20000034724E+01 0.  0.
        -13    1    3    3    0    0  0.34800414604E+02  0.12673193026E+02 -0.62930744026E+02  0.73020328579E+02  0.10566000000E+00 0.  1.
         13    1    4    4    0    0 -0.18220182785E+02 -0.66854758889E+01 -0.63839740348E+02  0.66724764970E+02  0.10566000000E+00 0. -1.
        -13    1    4    4    0    0 -0.20109135358E+01 -0.10672620082E+01 -0.87294624824E+01  0.90220563459E+01  0.10566000000E+00 0.  1.
        -14    1    4    4    0    0 -0.14569318283E+02 -0.49204551291E+01 -0.50010615685E+02  0.52321483112E+02  0.00000000000E+00 0.  1.
<mgrwt>
<rscale>  0 0.77604571E+02</rscale>
<asrwt>0</asrwt>
<pdfrwt beam="1">  1        2 0.29738396E-01 0.77604571E+02</pdfrwt>
<pdfrwt beam="2">  1       -1 0.11983133E-02 0.77604571E+02</pdfrwt>
<totfact> 0.23618827E+05</totfact>
</mgrwt>
</event>
<event>
 8    1  0.2676873E-020  0.7869910E+02  0.7818608E-02  0.1332784E+00
          2   -1    0    0  501    0  0.00000000000E+00  0.00000000000E+00  0.76592057194E+03  0.76592057195E+03  0.25500000000E-02 0. -1.
         -1   -1    0    0    0  501 -0.00000000000E+00 -0.00000000000E+00 -0.20215996158E+01  0.20216058984E+01  0.50400000000E-02 0.  1.
         24    2    1    2    0    0  0.00000000000E+00  0.88817841970E-15  0.76389897233E+03  0.76794217785E+03  0.78699101594E+02 0.  0.
         66    2    3    3    0    0  0.17130564457E+02 -0.50540681426E+01  0.72405578641E+03  0.72427880107E+03  0.20000004298E+01 0.  0.
        -13    1    3    3    0    0 -0.17130564457E+02  0.50540681426E+01  0.39843185915E+02  0.43663376774E+02  0.10566000000E+00 0.  1.
         13    1    4    4    0    0  0.10439792009E+01 -0.67262893511E+00  0.51336189282E+02  0.51351317571E+02  0.10566000000E+00 0. -1.
        -13    1    4    4    0    0  0.24463671561E+01 -0.20960025919E+00  0.93807291052E+02  0.93839478170E+02  0.10566000000E+00 0.  1.
         14    1    4    4    0    0  0.13640218100E+02 -0.41718389483E+01  0.57891230608E+03  0.57908800533E+03  0.00000000000E+00 0. -1.
<mgrwt>
<rscale>  0 0.78699102E+02</rscale>
<asrwt>0</asrwt>
<pdfrwt beam="1">  1        2 0.11783381E+00 0.78699102E+02</pdfrwt>
<pdfrwt beam="2">  1       -1 0.31101615E-03 0.78699102E+02</pdfrwt>
<totfact> 0.35576043E+05</totfact>
</mgrwt>
</event>
<event>
 8    1  0.2676873E-020  0.7839702E+02  0.7818608E-02  0.1333663E+00
          2   -1    0    0  501    0  0.00000000000E+00  0.00000000000E+00  0.30166961681E+03  0.30166961682E+03  0.25500000000E-02 0. -1.
         -1   -1    0    0    0  501 -0.00000000000E+00 -0.00000000000E+00 -0.50933957675E+01  0.50933982611E+01  0.50400000000E-02 0.  1.
         24    2    1    2    0    0  0.00000000000E+00  0.00000000000E+00  0.29657622105E+03  0.30676301508E+03  0.78397018657E+02 0.  0.
         66    2    3    3    0    0  0.17903235503E+02 -0.22292292340E+02  0.25316400802E+03  0.25478125345E+03  0.20000029868E+01 0.  0.
        -13    1    3    3    0    0 -0.17903235503E+02  0.22292292340E+02  0.43412213027E+02  0.51981761640E+02  0.10566000000E+00 0.  1.
         13    1    4    4    0    0  0.67471358426E+01 -0.81379802308E+01  0.94829098013E+02  0.95416558093E+02  0.10566000000E+00 0. -1.
        -13    1    4    4    0    0  0.11498800581E+01 -0.12719899341E+01  0.11736259003E+02  0.11861328845E+02  0.10566000000E+00 0.  1.
        -14    1    4    4    0    0  0.10006219602E+02 -0.12882322175E+02  0.14659865100E+03  0.14750336651E+03  0.00000000000E+00 0.  1.
<mgrwt>
<rscale>  0 0.78397019E+02</rscale>
<asrwt>0</asrwt>
<pdfrwt beam="1">  1        2 0.46410709E-01 0.78397019E+02</pdfrwt>
<pdfrwt beam="2">  1       -1 0.78359956E-03 0.78397019E+02</pdfrwt>
<totfact> 0.26936467E+05</totfact>
</mgrwt>
</event>
<event>
 8    1  0.2676873E-020  0.7904513E+02  0.7818608E-02  0.1331783E+00
         -1   -1    0    0    0  501 -0.00000000000E+00  0.00000000000E+00  0.55199848084E+02  0.55199848314E+02  0.50400000000E-02 0.  1.
          2   -1    0    0  501    0  0.00000000000E+00 -0.00000000000E+00 -0.28297778790E+02  0.28297778905E+02  0.25500000000E-02 0. -1.
         24    2    1    2    0    0  0.35527136788E-14  0.35527136788E-14  0.26902069294E+02  0.83497627219E+02  0.79045129002E+02 0.  0.
         66    2    3    3    0    0 -0.25655623576E+02  0.25233445333E+02 -0.37390932982E+01  0.36234218608E+02  0.19999987458E+01 0.  0.
        -13    1    3    3    0    0  0.25655623576E+02 -0.25233445333E+02  0.30641162593E+02  0.47263408611E+02  0.10566000000E+00 0.  1.
         13    1    4    4    0    0 -0.83918795437E+01  0.81913507057E+01 -0.83928299251E+00  0.11757441415E+02  0.10566000000E+00 0. -1.
        -13    1    4    4    0    0 -0.15561130387E+02  0.15499698564E+02 -0.21914004300E+01  0.22072671664E+02  0.10566000000E+00 0.  1.
         14    1    4    4    0    0 -0.17026136450E+01  0.15423960639E+01 -0.70840987575E+00  0.24041055289E+01  0.00000000000E+00 0. -1.
<mgrwt>
<rscale>  0 0.79045129E+02</rscale>
<asrwt>0</asrwt>
<pdfrwt beam="1">  1        2 0.43535045E-02 0.79045129E+02</pdfrwt>
<pdfrwt beam="2">  1       -1 0.84922843E-02 0.79045129E+02</pdfrwt>
<totfact> 0.13757436E+05</totfact>
</mgrwt>
</event>
<event>
 8    1  0.2676873E-020  0.7754840E+02  0.7818608E-02  0.1336156E+00
         -1   -1    0    0    0  501 -0.00000000000E+00  0.00000000000E+00  0.30695965499E+02  0.30695965913E+02  0.50400000000E-02 0.  1.
          2   -1    0    0  501    0  0.00000000000E+00 -0.00000000000E+00 -0.48978381310E+02  0.48978381376E+02  0.25500000000E-02 0. -1.
         24    2    1    2    0    0 -0.22204460493E-15  0.00000000000E+00 -0.18282415811E+02  0.79674347289E+02  0.77548403517E+02 0.  0.
         66    2    3    3    0    0 -0.13968286763E+01 -0.25483540191E+02 -0.39102557100E+02  0.46737264868E+02  0.20000011317E+01 0.  0.
        -13    1    3    3    0    0  0.13968286763E+01  0.25483540191E+02  0.20820141290E+02  0.32937082421E+02  0.10566000000E+00 0.  1.
         13    1    4    4    0    0 -0.28411216260E+00 -0.61787609850E+01 -0.10048868542E+02  0.11800369911E+02  0.10566000000E+00 0. -1.
        -13    1    4    4    0    0 -0.11124088841E+01 -0.66666222846E+01 -0.10506632054E+02  0.12493269682E+02  0.10566000000E+00 0.  1.
        -14    1    4    4    0    0 -0.30762967919E-03 -0.12638156922E+02 -0.18547056505E+02  0.22443625275E+02  0.00000000000E+00 0.  1.
<mgrwt>
<rscale>  0 0.77548404E+02</rscale>
<asrwt>0</asrwt>
<pdfrwt beam="1">  1        2 0.75351356E-02 0.77548404E+02</pdfrwt>
<pdfrwt beam="2">  1       -1 0.47224563E-02 0.77548404E+02</pdfrwt>
<totfact> 0.16198175E+05</totfact>
</mgrwt>
</event>
<event>
 8    1  0.2676873E-020  0.7911646E+02  0.7818608E-02  0.1331578E+00
         -1   -1    0    0    0  501 -0.00000000000E+00  0.00000000000E+00  0.25364231685E+02  0.25364232186E+02  0.50400000000E-02 0.  1.
          2   -1    0    0  501    0  0.00000000000E+00 -0.00000000000E+00 -0.61695280140E+02  0.61695280193E+02  0.25500000000E-02 0. -1.
         24    2    1    2    0    0  0.00000000000E+00 -0.71054273576E-14 -0.36331048455E+02  0.87059512379E+02  0.79116456024E+02 0.  0.
         66    2    3    3    0    0 -0.12483547399E+02 -0.37442135954E+02 -0.20661161385E+02  0.44594126177E+02  0.19999998068E+01 0.  0.
        -13    1    3    3    0    0  0.12483547399E+02  0.37442135954E+02 -0.15669887070E+02  0.42465386202E+02  0.10566000000E+00 0.  1.
         13    1    4    4    0    0 -0.26279459483E+01 -0.67279179880E+01 -0.42528994711E+01  0.83826784685E+01  0.10566000000E+00 0. -1.
        -13    1    4    4    0    0 -0.40215465714E+01 -0.14429594213E+02 -0.73861226836E+01  0.16701856134E+02  0.10566000000E+00 0.  1.
        -14    1    4    4    0    0 -0.58340548790E+01 -0.16284623753E+02 -0.90221392301E+01  0.19509591574E+02  0.00000000000E+00 0.  1.
<mgrwt>
<rscale>  0 0.79116456E+02</rscale>
<asrwt>0</asrwt>
<pdfrwt beam="1">  1        2 0.94915815E-02 0.79116456E+02</pdfrwt>
<pdfrwt beam="2">  1       -1 0.39021896E-02 0.79116456E+02</pdfrwt>
<totfact> 0.16146960E+05</totfact>
</mgrwt>
</event>
<event>
 8    1  0.2676873E-020  0.8718116E+02  0.7818608E-02  0.1309825E+00
          2   -1    0    0  501    0  0.00000000000E+00  0.00000000000E+00  0.43289681587E+03  0.43289681588E+03  0.25500000000E-02 0. -1.
         -1   -1    0    0    0  501 -0.00000000000E+00 -0.00000000000E+00 -0.43893551103E+01  0.43893580039E+01  0.50400000000E-02 0.  1.
         24    2    1    2    0    0  0.17763568394E-14 -0.71054273576E-14  0.42850746076E+03  0.43728617388E+03  0.87181155883E+02 0.  0.
         66    2    3    3    0    0  0.91434354011E+01 -0.42437231311E+02  0.19586025265E+03  0.20062342730E+03  0.20000007003E+01 0.  0.
        -13    1    3    3    0    0 -0.91434354011E+01  0.42437231311E+02  0.23264720812E+03  0.23666274658E+03  0.10566000000E+00 0.  1.
         13    1    4    4    0    0  0.24113221138E+01 -0.13684089121E+02  0.60331809978E+02  0.61911285148E+02  0.10566000000E+00 0. -1.
        -13    1    4    4    0    0  0.10276104335E+01 -0.31356832976E+01  0.15643597425E+02  0.15988176800E+02  0.10566000000E+00 0.  1.
        -14    1    4    4    0    0  0.57045028538E+01 -0.25617458893E+02  0.11988484524E+03  0.12272396535E+03  0.00000000000E+00 0.  1.
<mgrwt>
<rscale>  0 0.87181156E+02</rscale>
<asrwt>0</asrwt>
<pdfrwt beam="1">  1        2 0.66599530E-01 0.87181156E+02</pdfrwt>
<pdfrwt beam="2">  1       -1 0.67528543E-03 0.87181156E+02</pdfrwt>
<totfact> 0.23178315E+05</totfact>
</mgrwt>
</event>
<event>
 8    1  0.2676873E-020  0.7960301E+02  0.7818608E-02  0.1330182E+00
          2   -1    0    0  501    0  0.00000000000E+00  0.00000000000E+00  0.64424406261E+03  0.64424406262E+03  0.25500000000E-02 0. -1.
         -1   -1    0    0    0  501 -0.00000000000E+00 -0.00000000000E+00 -0.24589412853E+01  0.24589464504E+01  0.50400000000E-02 0.  1.
         24    2    1    2    0    0  0.00000000000E+00 -0.11102230246E-15  0.64178512133E+03  0.64670300907E+03  0.79603014897E+02 0.  0.
         66    2    3    3    0    0 -0.11256371440E+02  0.97617937096E+00  0.63093040575E+03  0.63103473416E+03  0.19999995562E+01 0.  0.
        -13    1    3    3    0    0  0.11256371440E+02 -0.97617937096E+00  0.10854715577E+02  0.15668274904E+02  0.10566000000E+00 0.  1.
         13    1    4    4    0    0 -0.29596039892E+01 -0.23298029393E+00  0.15226576280E+03  0.15229473800E+03  0.10566000000E+00 0. -1.
        -13    1    4    4    0    0 -0.42928849614E+00  0.35402206072E+00  0.39408033614E+02  0.39412103441E+02  0.10566000000E+00 0.  1.
         14    1    4    4    0    0 -0.78674789543E+01  0.85513760417E+00  0.43925660933E+03  0.43932789273E+03  0.00000000000E+00 0. -1.
<mgrwt>
<rscale>  0 0.79603015E+02</rscale>
<asrwt>0</asrwt>
<pdfrwt beam="1">  1        2 0.99114509E-01 0.79603015E+02</pdfrwt>
<pdfrwt beam="2">  1       -1 0.37829891E-03 0.79603015E+02</pdfrwt>
<totfact> 0.33209474E+05</totfact>
</mgrwt>
</event>
<event>
 8    1  0.2676873E-020  0.8026613E+02  0.7818608E-02  0.1328298E+00
         -1   -1    0    0    0  501 -0.00000000000E+00  0.00000000000E+00  0.38475085706E+01  0.38475118716E+01  0.50400000000E-02 0.  1.
          2   -1    0    0  501    0  0.00000000000E+00 -0.00000000000E+00 -0.41862473977E+03  0.41862473977E+03  0.25500000000E-02 0. -1.
         24    2    1    2    0    0  0.00000000000E+00  0.00000000000E+00 -0.41477723120E+03  0.42247225165E+03  0.80266131663E+02 0.  0.
         66    2    3    3    0    0  0.29797179211E+02  0.23311246521E+02 -0.27761544299E+03  0.28018854418E+03  0.19999994868E+01 0.  0.
        -13    1    3    3    0    0 -0.29797179211E+02 -0.23311246521E+02 -0.13716178820E+03  0.14228370747E+03  0.10566000000E+00 0.  1.
         13    1    4    4    0    0  0.10764273431E+02  0.85589166936E+01 -0.95491145546E+02  0.96476394415E+02  0.10566000000E+00 0. -1.
        -13    1    4    4    0    0  0.10355231116E+02  0.86124174724E+01 -0.10047044598E+03  0.10136925681E+03  0.10566000000E+00 0.  1.
        -14    1    4    4    0    0  0.86776746640E+01  0.61399123550E+01 -0.81653851464E+02  0.82342892955E+02  0.00000000000E+00 0.  1.
<mgrwt>
<rscale>  0 0.80266132E+02</rscale>
<asrwt>0</asrwt>
<pdfrwt beam="1">  1        2 0.64403770E-01 0.80266132E+02</pdfrwt>
<pdfrwt beam="2">  1       -1 0.59192498E-03 0.80266132E+02</pdfrwt>
<totfact> 0.28455771E+05</totfact>
</mgrwt>
</event>
<event>
 8    1  0.2676873E-020  0.7826165E+02  0.7818608E-02  0.1334058E+00
          2   -1    0    0  501    0  0.00000000000E+00  0.00000000000E+00  0.38604130874E+02  0.38604130959E+02  0.25500000000E-02 0. -1.
         -1   -1    0    0    0  501 -0.00000000000E+00 -0.00000000000E+00 -0.39664709172E+02  0.39664709492E+02  0.50400000000E-02 0.  1.
         24    2    1    2    0    0  0.17763568394E-14 -0.55511151231E-16 -0.10605782970E+01  0.78268840450E+02  0.78261654462E+02 0.  0.
         66    2    3    3    0    0 -0.13373789988E+02  0.21836600949E-01  0.36219956938E+02  0.38661919250E+02  0.19999960026E+01 0.  0.
        -13    1    3    3    0    0  0.13373789988E+02 -0.21836600949E-01 -0.37280535235E+02  0.39606921200E+02  0.10566000000E+00 0.  1.
         13    1    4    4    0    0 -0.43977840745E+01 -0.34549860757E+00  0.12840000760E+02  0.13577063660E+02  0.10566000000E+00 0. -1.
        -13    1    4    4    0    0 -0.54682785321E+01 -0.44599878443E+00  0.13876201284E+02  0.14921833370E+02  0.10566000000E+00 0.  1.
        -14    1    4    4    0    0 -0.35077273819E+01  0.81333399295E+00  0.95037548942E+01  0.10163022221E+02  0.00000000000E+00 0.  1.
<mgrwt>
<rscale>  0 0.78261654E+02</rscale>
<asrwt>0</asrwt>
<pdfrwt beam="1">  1        2 0.59390971E-02 0.78261654E+02</pdfrwt>
<pdfrwt beam="2">  1       -1 0.61022629E-02 0.78261654E+02</pdfrwt>
<totfact> 0.15037935E+05</totfact>
</mgrwt>
</event>
<event>
 8    1  0.2676873E-020  0.7740482E+02  0.7818608E-02  0.1336582E+00
          2   -1    0    0  501    0  0.00000000000E+00  0.00000000000E+00  0.19705641364E+03  0.19705641366E+03  0.25500000000E-02 0. -1.
         -1   -1    0    0    0  501 -0.00000000000E+00 -0.00000000000E+00 -0.76012569770E+01  0.76012586479E+01  0.50400000000E-02 0.  1.
         24    2    1    2    0    0  0.35527136788E-14  0.88817841970E-15  0.18945515666E+03  0.20465767231E+03  0.77404821858E+02 0.  0.
         66    2    3    3    0    0  0.31624317362E+02  0.73297599443E+01  0.15038044858E+03  0.15385740848E+03  0.19999994088E+01 0.  0.
        -13    1    3    3    0    0 -0.31624317362E+02 -0.73297599443E+01  0.39074708082E+02  0.50800263829E+02  0.10566000000E+00 0.  1.
         13    1    4    4    0    0  0.24622525083E+02  0.54081889145E+01  0.12020141727E+03  0.12281656699E+03  0.10566000000E+00 0. -1.
        -13    1    4    4    0    0  0.30905673871E+01  0.91384734506E+00  0.13331276503E+02  0.13715714381E+02  0.10566000000E+00 0. -1.
         14    1    4    4    0    0  0.39112248921E+01  0.10077236847E+01  0.16847754809E+02  0.17325127108E+02  0.00000000000E+00 0. -1.
<mgrwt>
<rscale>  0 0.77404822E+02</rscale>
<asrwt>0</asrwt>
<pdfrwt beam="1">  1        2 0.30316365E-01 0.77404822E+02</pdfrwt>
<pdfrwt beam="2">  1       -1 0.11694245E-02 0.77404822E+02</pdfrwt>
<totfact> 0.23937582E+05</totfact>
</mgrwt>
</event>
<event>
 8    1  0.2676873E-020  0.7997392E+02  0.7818608E-02  0.1329125E+00
         -1   -1    0    0    0  501 -0.00000000000E+00  0.00000000000E+00  0.91578665858E+02  0.91578665996E+02  0.50400000000E-02 0.  1.
          2   -1    0    0  501    0  0.00000000000E+00 -0.00000000000E+00 -0.17459928468E+02  0.17459928654E+02  0.25500000000E-02 0. -1.
         24    2    1    2    0    0  0.35527136788E-14 -0.35527136788E-14  0.74118737390E+02  0.10903859465E+03  0.79973920069E+02 0.  0.
         66    2    3    3    0    0 -0.19264874912E+02 -0.31679811311E+02  0.16758447383E+02  0.40738083058E+02  0.20000006293E+01 0.  0.
        -13    1    3    3    0    0  0.19264874912E+02  0.31679811311E+02  0.57360290007E+02  0.68300511592E+02  0.10566000000E+00 0.  1.
         13    1    4    4    0    0 -0.19849910889E+01 -0.37150807338E+01  0.20031621046E+01  0.46653871151E+01  0.10566000000E+00 0. -1.
        -13    1    4    4    0    0 -0.55167969165E+01 -0.87748442873E+01  0.55171708742E+01  0.11742371097E+02  0.10566000000E+00 0.  1.
         14    1    4    4    0    0 -0.11763086907E+02 -0.19189886290E+02  0.92381144042E+01  0.24330324847E+02  0.00000000000E+00 0. -1.
<mgrwt>
<rscale>  0 0.79973920E+02</rscale>
<asrwt>0</asrwt>
<pdfrwt beam="1">  1        2 0.26861428E-02 0.79973920E+02</pdfrwt>
<pdfrwt beam="2">  1       -1 0.14089026E-01 0.79973920E+02</pdfrwt>
<totfact> 0.12085405E+05</totfact>
</mgrwt>
</event>
<event>
 8    1  0.2676873E-020  0.7873680E+02  0.7818608E-02  0.1332675E+00
         -1   -1    0    0    0  501 -0.00000000000E+00  0.00000000000E+00  0.16765415506E+01  0.16765491262E+01  0.50400000000E-02 0.  1.
          2   -1    0    0  501    0  0.00000000000E+00 -0.00000000000E+00 -0.92444316137E+03  0.92444316137E+03  0.25500000000E-02 0. -1.
         24    2    1    2    0    0  0.35527136788E-14  0.00000000000E+00 -0.92276661982E+03  0.92611971050E+03  0.78736799041E+02 0.  0.
         66    2    3    3    0    0 -0.20308579760E+02 -0.17954745042E+02 -0.79706950192E+03  0.79753282200E+03  0.19999994344E+01 0.  0.
        -13    1    3    3    0    0  0.20308579760E+02  0.17954745042E+02 -0.12569711791E+03  0.12858688850E+03  0.10566000000E+00 0.  1.
         13    1    4    4    0    0 -0.58340527305E+01 -0.44642747598E+01 -0.20895092182E+03  0.20908004403E+03  0.10566000000E+00 0. -1.
        -13    1    4    4    0    0 -0.31958762227E+01 -0.35455129632E+01 -0.13127251203E+03  0.13135930826E+03  0.10566000000E+00 0.  1.
        -14    1    4    4    0    0 -0.11278650807E+02 -0.99449573189E+01 -0.45684606807E+03  0.45709346971E+03  0.00000000000E+00 0.  1.
<mgrwt>
<rscale>  0 0.78736799E+02</rscale>
<asrwt>0</asrwt>
<pdfrwt beam="1">  1        2 0.14222162E+00 0.78736799E+02</pdfrwt>
<pdfrwt beam="2">  1       -1 0.25793079E-03 0.78736799E+02</pdfrwt>
<totfact> 0.36519453E+05</totfact>
</mgrwt>
</event>
<event>
 8    1  0.2676873E-020  0.8034674E+02  0.7818608E-02  0.1328070E+00
         -1   -1    0    0    0  501 -0.00000000000E+00  0.00000000000E+00  0.40269547667E+01  0.40269579207E+01  0.50400000000E-02 0.  1.
          2   -1    0    0  501    0  0.00000000000E+00 -0.00000000000E+00 -0.40077401519E+03  0.40077401520E+03  0.25500000000E-02 0. -1.
         24    2    1    2    0    0  0.35527136788E-14  0.00000000000E+00 -0.39674706043E+03  0.40480097312E+03  0.80346735363E+02 0.  0.
         66    2    3    3    0    0 -0.31388691943E+02 -0.19291961107E+02 -0.27886483843E+03  0.28129526811E+03  0.19999998803E+01 0.  0.
        -13    1    3    3    0    0  0.31388691943E+02  0.19291961107E+02 -0.11788222199E+03  0.12350570501E+03  0.10566000000E+00 0.  1.
         13    1    4    4    0    0 -0.13117618196E+02 -0.83038552234E+01 -0.12002413622E+03  0.12102408999E+03  0.10566000000E+00 0. -1.
        -13    1    4    4    0    0 -0.10955205226E+02 -0.72688430733E+01 -0.10024075844E+03  0.10109932452E+03  0.10566000000E+00 0.  1.
         14    1    4    4    0    0 -0.73158685215E+01 -0.37192628102E+01 -0.58599943768E+02  0.59171853594E+02  0.00000000000E+00 0. -1.
<mgrwt>
<rscale>  0 0.80346735E+02</rscale>
<asrwt>0</asrwt>
<pdfrwt beam="1">  1        2 0.61657509E-01 0.80346735E+02</pdfrwt>
<pdfrwt beam="2">  1       -1 0.61953207E-03 0.80346735E+02</pdfrwt>
<totfact> 0.27955033E+05</totfact>
</mgrwt>
</event>
<event>
 8    1  0.2676873E-020  0.8113963E+02  0.7818608E-02  0.1325848E+00
          2   -1    0    0  501    0  0.00000000000E+00  0.00000000000E+00  0.47417600113E+03  0.47417600113E+03  0.25500000000E-02 0. -1.
         -1   -1    0    0    0  501 -0.00000000000E+00 -0.00000000000E+00 -0.34710929696E+01  0.34710966286E+01  0.50400000000E-02 0.  1.
         24    2    1    2    0    0  0.35527136788E-14 -0.44408920985E-15  0.47070490816E+03  0.47764709776E+03  0.81139629266E+02 0.  0.
         66    2    3    3    0    0  0.28950221119E+02 -0.27471512625E+01  0.40181395062E+03  0.40286984630E+03  0.19999990596E+01 0.  0.
        -13    1    3    3    0    0 -0.28950221119E+02  0.27471512625E+01  0.68890957534E+02  0.74777251467E+02  0.10566000000E+00 0.  1.
         13    1    4    4    0    0  0.11595361120E+02 -0.53970684118E+00  0.15898928223E+03  0.15941250487E+03  0.10566000000E+00 0. -1.
        -13    1    4    4    0    0  0.50338291184E+01 -0.55587974581E+00  0.78320937742E+02  0.78484577407E+02  0.10566000000E+00 0.  1.
         14    1    4    4    0    0  0.12321030881E+02 -0.16515646755E+01  0.16450373065E+03  0.16497276402E+03  0.00000000000E+00 0. -1.
<mgrwt>
<rscale>  0 0.81139629E+02</rscale>
<asrwt>0</asrwt>
<pdfrwt beam="1">  1        2 0.72950134E-01 0.81139629E+02</pdfrwt>
<pdfrwt beam="2">  1       -1 0.53401473E-03 0.81139629E+02</pdfrwt>
<totfact> 0.28849050E+05</totfact>
</mgrwt>
</event>
<event>
 8    1  0.2676873E-020  0.7988365E+02  0.7818608E-02  0.1329382E+00
          2   -1    0    0  501    0  0.00000000000E+00  0.00000000000E+00  0.20825174995E+03  0.20825174997E+03  0.25500000000E-02 0. -1.
         -1   -1    0    0    0  501 -0.00000000000E+00 -0.00000000000E+00 -0.76606759536E+01  0.76606776115E+01  0.50400000000E-02 0.  1.
         24    2    1    2    0    0 -0.17763568394E-14  0.00000000000E+00  0.20059107400E+03  0.21591242758E+03  0.79883649236E+02 0.  0.
         66    2    3    3    0    0  0.13445596389E+02  0.33331639359E+02  0.14729445421E+03  0.15162927979E+03  0.20000010799E+01 0.  0.
        -13    1    3    3    0    0 -0.13445596389E+02 -0.33331639359E+02  0.53296619788E+02  0.64283147787E+02  0.10566000000E+00 0.  1.
         13    1    4    4    0    0  0.58965601893E+01  0.16670386508E+02  0.72263843199E+02  0.74395869551E+02  0.10566000000E+00 0. -1.
        -13    1    4    4    0    0  0.37513046375E+00  0.10451218737E+01  0.39088511830E+01  0.40648842790E+01  0.10566000000E+00 0.  1.
         14    1    4    4    0    0  0.71739057356E+01  0.15616130978E+02  0.71121759827E+02  0.73168525960E+02  0.00000000000E+00 0. -1.
<mgrwt>
<rscale>  0 0.79883649E+02</rscale>
<asrwt>0</asrwt>
<pdfrwt beam="1">  1        2 0.32038729E-01 0.79883649E+02</pdfrwt>
<pdfrwt beam="2">  1       -1 0.11785657E-02 0.79883649E+02</pdfrwt>
<totfact> 0.22457636E+05</totfact>
</mgrwt>
</event>
<event>
 8    1  0.2676873E-020  0.8032438E+02  0.7818608E-02  0.1328133E+00
          2   -1    0    0  501    0  0.00000000000E+00  0.00000000000E+00  0.23515766040E+03  0.23515766041E+03  0.25500000000E-02 0. -1.
         -1   -1    0    0    0  501 -0.00000000000E+00 -0.00000000000E+00 -0.68592327060E+01  0.68592345576E+01  0.50400000000E-02 0.  1.
         24    2    1    2    0    0  0.71054273576E-14  0.88817841970E-15  0.22829842769E+03  0.24201689497E+03  0.80324375902E+02 0.  0.
         66    2    3    3    0    0 -0.25639029012E+02 -0.21245979564E+01  0.20704361663E+03  0.20864547183E+03  0.20000006669E+01 0.  0.
        -13    1    3    3    0    0  0.25639029012E+02  0.21245979564E+01  0.21254811066E+02  0.33371423144E+02  0.10566000000E+00 0.  1.
         13    1    4    4    0    0 -0.13693978818E+02 -0.13066359112E+01  0.11162780340E+03  0.11247226329E+03  0.10566000000E+00 0. -1.
        -13    1    4    4    0    0 -0.39107507657E+01  0.23651276054E-01  0.35614644022E+02  0.35828878908E+02  0.10566000000E+00 0.  1.
        -14    1    4    4    0    0 -0.80342994279E+01 -0.84161332125E+00  0.59801169205E+02  0.60344329630E+02  0.00000000000E+00 0.  1.
<mgrwt>
<rscale>  0 0.80324376E+02</rscale>
<asrwt>0</asrwt>
<pdfrwt beam="1">  1        2 0.36178107E-01 0.80324376E+02</pdfrwt>
<pdfrwt beam="2">  1       -1 0.10552666E-02 0.80324376E+02</pdfrwt>
<totfact> 0.23104912E+05</totfact>
</mgrwt>
</event>
<event>
 8    1  0.2676873E-020  0.8113029E+02  0.7818608E-02  0.1325874E+00
         -1   -1    0    0    0  501 -0.00000000000E+00  0.00000000000E+00  0.10831244142E+02  0.10831245315E+02  0.50400000000E-02 0.  1.
          2   -1    0    0  501    0  0.00000000000E+00 -0.00000000000E+00 -0.15192446807E+03  0.15192446809E+03  0.25500000000E-02 0. -1.
         24    2    1    2    0    0  0.00000000000E+00  0.00000000000E+00 -0.14109322392E+03  0.16275571340E+03  0.81130292788E+02 0.  0.
         66    2    3    3    0    0  0.19478039686E+02  0.25356309801E+02 -0.12058882302E+03  0.12477179448E+03  0.19999953764E+01 0.  0.
        -13    1    3    3    0    0 -0.19478039686E+02 -0.25356309801E+02 -0.20504400899E+02  0.37983918926E+02  0.10566000000E+00 0.  1.
         13    1    4    4    0    0  0.76690612438E+01  0.10001381597E+02 -0.45137193061E+02  0.46863839959E+02  0.10566000000E+00 0. -1.
        -13    1    4    4    0    0  0.89977681870E+01  0.10857692640E+02 -0.55474934661E+02  0.57239224851E+02  0.10566000000E+00 0.  1.
        -14    1    4    4    0    0  0.28112102556E+01  0.44972355629E+01 -0.19976695303E+02  0.20668729667E+02  0.00000000000E+00 0.  1.
<mgrwt>
<rscale>  0 0.81130293E+02</rscale>
<asrwt>0</asrwt>
<pdfrwt beam="1">  1        2 0.23372994E-01 0.81130293E+02</pdfrwt>
<pdfrwt beam="2">  1       -1 0.16663455E-02 0.81130293E+02</pdfrwt>
<totfact> 0.19377271E+05</totfact>
</mgrwt>
</event>
<event>
 8    1  0.2676873E-020  0.8115085E+02  0.7818608E-02  0.1325817E+00
          2   -1    0    0  501    0  0.00000000000E+00  0.00000000000E+00  0.52659908465E+03  0.52659908466E+03  0.25500000000E-02 0. -1.
         -1   -1    0    0    0  501 -0.00000000000E+00 -0.00000000000E+00 -0.31264087296E+01  0.31264127921E+01  0.50400000000E-02 0.  1.
         24    2    1    2    0    0  0.00000000000E+00  0.00000000000E+00  0.52347267592E+03  0.52972549745E+03  0.81150848496E+02 0.  0.
         66    2    3    3    0    0  0.18058815762E+02 -0.34465302554E+02  0.33643101325E+03  0.33867950130E+03  0.20000039029E+01 0.  0.
        -13    1    3    3    0    0 -0.18058815762E+02  0.34465302554E+02  0.18704166268E+03  0.19104599616E+03  0.10566000000E+00 0.  1.
         13    1    4    4    0    0  0.11245720244E+02 -0.21975417601E+02  0.20862553884E+03  0.21008096493E+03  0.10566000000E+00 0. -1.
        -13    1    4    4    0    0  0.18350508161E+01 -0.42904375138E+01  0.41897593715E+02  0.42156788169E+02  0.10566000000E+00 0.  1.
         14    1    4    4    0    0  0.49780447011E+01 -0.81994474397E+01  0.85907880689E+02  0.86441748200E+02  0.00000000000E+00 0. -1.
<mgrwt>
<rscale>  0 0.81150848E+02</rscale>
<asrwt>0</asrwt>
<pdfrwt beam="1">  1        2 0.81015262E-01 0.81150848E+02</pdfrwt>
<pdfrwt beam="2">  1       -1 0.48098617E-03 0.81150848E+02</pdfrwt>
<totfact> 0.29819362E+05</totfact>
</mgrwt>
</event>
<event>
 8    1  0.2676873E-020  0.7547068E+02  0.7818608E-02  0.1342420E+00
          2   -1    0    0  501    0  0.00000000000E+00  0.00000000000E+00  0.11617131807E+02  0.11617132087E+02  0.25500000000E-02 0. -1.
         -1   -1    0    0    0  501 -0.00000000000E+00 -0.00000000000E+00 -0.12257379035E+03  0.12257379045E+03  0.50400000000E-02 0.  1.
         24    2    1    2    0    0 -0.71054273576E-14  0.00000000000E+00 -0.11095665854E+03  0.13419092254E+03  0.75470680514E+02 0.  0.
         66    2    3    3    0    0 -0.35450963626E+02  0.50069015216E+01 -0.34470617291E+02  0.49739957150E+02  0.19999990093E+01 0.  0.
        -13    1    3    3    0    0  0.35450963626E+02 -0.50069015216E+01 -0.76486041252E+02  0.84450965390E+02  0.10566000000E+00 0.  1.
         13    1    4    4    0    0 -0.16726935649E+02  0.19378237608E+01 -0.16224224142E+02  0.23383373370E+02  0.10566000000E+00 0. -1.
        -13    1    4    4    0    0 -0.20795734695E+01  0.32263587528E-01 -0.23686091236E+01  0.31539086814E+01  0.10566000000E+00 0.  1.
        -14    1    4    4    0    0 -0.16644454508E+02  0.30368141733E+01 -0.15877784025E+02  0.23202675099E+02  0.00000000000E+00 0.  1.
<mgrwt>
<rscale>  0 0.75470681E+02</rscale>
<asrwt>0</asrwt>
<pdfrwt beam="1">  1        2 0.17872512E-02 0.75470681E+02</pdfrwt>
<pdfrwt beam="2">  1       -1 0.18857505E-01 0.75470681E+02</pdfrwt>
<totfact> 0.13114101E+05</totfact>
</mgrwt>
</event>
<event>
 8    1  0.2676873E-020  0.7975574E+02  0.7818608E-02  0.1329746E+00
         -1   -1    0    0    0  501 -0.00000000000E+00  0.00000000000E+00  0.44641993540E+02  0.44641993824E+02  0.50400000000E-02 0.  1.
          2   -1    0    0  501    0  0.00000000000E+00 -0.00000000000E+00 -0.35622161561E+02  0.35622161652E+02  0.25500000000E-02 0. -1.
         24    2    1    2    0    0  0.35527136788E-14  0.00000000000E+00  0.90198319789E+01  0.80264155476E+02  0.79755735125E+02 0.  0.
         66    2    3    3    0    0 -0.30224393662E+02  0.19766304612E+02  0.21473027441E+02  0.42063186752E+02  0.20000005057E+01 0.  0.
        -13    1    3    3    0    0  0.30224393662E+02 -0.19766304612E+02 -0.12453195462E+02  0.38200968724E+02  0.10566000000E+00 0.  1.
         13    1    4    4    0    0 -0.81902057932E+01  0.62625790689E+01  0.61768894896E+01  0.12019338390E+02  0.10566000000E+00 0. -1.
        -13    1    4    4    0    0 -0.51386969550E+01  0.27829387834E+01  0.32430518953E+01  0.66842729072E+01  0.10566000000E+00 0.  1.
         14    1    4    4    0    0 -0.16895490914E+02  0.10720786760E+02  0.12053086056E+02  0.23359575455E+02  0.00000000000E+00 0. -1.
<mgrwt>
<rscale>  0 0.79755735E+02</rscale>
<asrwt>0</asrwt>
<pdfrwt beam="1">  1        2 0.54803326E-02 0.79755735E+02</pdfrwt>
<pdfrwt beam="2">  1       -1 0.68679991E-02 0.79755735E+02</pdfrwt>
<totfact> 0.14042028E+05</totfact>
</mgrwt>
</event>
<event>
 8    1  0.2676873E-020  0.8179118E+02  0.7818608E-02  0.1324044E+00
         -1   -1    0    0    0  501 -0.00000000000E+00  0.00000000000E+00  0.19097518383E+01  0.19097584887E+01  0.50400000000E-02 0.  1.
          2   -1    0    0  501    0  0.00000000000E+00 -0.00000000000E+00 -0.87574004800E+03  0.87574004800E+03  0.25500000000E-02 0. -1.
         24    2    1    2    0    0  0.00000000000E+00  0.00000000000E+00 -0.87383029616E+03  0.87764980649E+03  0.81791175234E+02 0.  0.
         66    2    3    3    0    0  0.16123122030E+02  0.10201863632E+02 -0.82501756495E+03  0.82524058041E+03  0.20000009584E+01 0.  0.
        -13    1    3    3    0    0 -0.16123122030E+02 -0.10201863632E+02 -0.48812731214E+02  0.52409226079E+02  0.10566000000E+00 0.  1.
         13    1    4    4    0    0  0.72733301956E+01  0.41726295405E+01 -0.33109180582E+03  0.33119798794E+03  0.10566000000E+00 0. -1.
        -13    1    4    4    0    0  0.24711239831E+01  0.21380433590E+01 -0.15526897337E+03  0.15530338997E+03  0.10566000000E+00 0.  1.
        -14    1    4    4    0    0  0.63786678511E+01  0.38911907327E+01 -0.33865678576E+03  0.33873920250E+03  0.00000000000E+00 0.  1.
<mgrwt>
<rscale>  0 0.81791175E+02</rscale>
<asrwt>0</asrwt>
<pdfrwt beam="1">  1        2 0.13472892E+00 0.81791175E+02</pdfrwt>
<pdfrwt beam="2">  1       -1 0.29380919E-03 0.81791175E+02</pdfrwt>
<totfact> 0.32885540E+05</totfact>
</mgrwt>
</event>
<event>
 8    1  0.2676873E-020  0.8073402E+02  0.7818608E-02  0.1326981E+00
         -1   -1    0    0    0  501 -0.00000000000E+00  0.00000000000E+00  0.20908540876E+01  0.20908601620E+01  0.50400000000E-02 0.  1.
          2   -1    0    0  501    0  0.00000000000E+00 -0.00000000000E+00 -0.77934332882E+03  0.77934332883E+03  0.25500000000E-02 0. -1.
         24    2    1    2    0    0  0.00000000000E+00  0.35527136788E-14 -0.77725247473E+03  0.78143418899E+03  0.80734021570E+02 0.  0.
         66    2    3    3    0    0 -0.24605181208E+02  0.24663639281E+02 -0.58575279478E+03  0.58679131439E+03  0.20000017494E+01 0.  0.
        -13    1    3    3    0    0  0.24605181208E+02 -0.24663639281E+02 -0.19149967995E+03  0.19464287459E+03  0.10566000000E+00 0.  1.
         13    1    4    4    0    0 -0.55706088551E+01  0.59688165091E+01 -0.13623282102E+03  0.13647729167E+03  0.10566000000E+00 0. -1.
        -13    1    4    4    0    0 -0.14827069541E+02  0.14447277864E+02 -0.35977052282E+03  0.36036565608E+03  0.10566000000E+00 0.  1.
        -14    1    4    4    0    0 -0.42075028111E+01  0.42475449077E+01 -0.89749450944E+02  0.89948366647E+02  0.00000000000E+00 0.  1.
<mgrwt>
<rscale>  0 0.80734022E+02</rscale>
<asrwt>0</asrwt>
<pdfrwt beam="1">  1        2 0.11989874E+00 0.80734022E+02</pdfrwt>
<pdfrwt beam="2">  1       -1 0.32167095E-03 0.80734022E+02</pdfrwt>
<totfact> 0.33402990E+05</totfact>
</mgrwt>
</event>
<event>
 8    1  0.2676873E-020  0.7890655E+02  0.7818608E-02  0.1332183E+00
          2   -1    0    0  501    0  0.00000000000E+00  0.00000000000E+00  0.46036692923E+03  0.46036692923E+03  0.25500000000E-02 0. -1.
         -1   -1    0    0    0  501 -0.00000000000E+00 -0.00000000000E+00 -0.33811288713E+01  0.33811326276E+01  0.50400000000E-02 0.  1.
         24    2    1    2    0    0  0.00000000000E+00  0.71054273576E-14  0.45698580036E+03  0.46374806186E+03  0.78906546963E+02 0.  0.
         66    2    3    3    0    0  0.16465672948E+02 -0.28803746578E+02  0.35383588276E+03  0.35539359326E+03  0.19999992278E+01 0.  0.
        -13    1    3    3    0    0 -0.16465672948E+02  0.28803746578E+02  0.10314991760E+03  0.10835446861E+03  0.10566000000E+00 0.  1.
         13    1    4    4    0    0  0.10267859199E+02 -0.18015644811E+02  0.22534015940E+03  0.22629226896E+03  0.10566000000E+00 0. -1.
        -13    1    4    4    0    0  0.13159404300E+01 -0.21978708710E+01  0.31216803410E+02  0.31321914290E+02  0.10566000000E+00 0.  1.
        -14    1    4    4    0    0  0.48818733197E+01 -0.85902308960E+01  0.97278919951E+02  0.97779410004E+02  0.00000000000E+00 0.  1.
<mgrwt>
<rscale>  0 0.78906547E+02</rscale>
<asrwt>0</asrwt>
<pdfrwt beam="1">  1        2 0.70825642E-01 0.78906547E+02</pdfrwt>
<pdfrwt beam="2">  1       -1 0.52017426E-03 0.78906547E+02</pdfrwt>
<totfact> 0.30725812E+05</totfact>
</mgrwt>
</event>
<event>
 8    1  0.2676873E-020  0.8320766E+02  0.7818608E-02  0.1320187E+00
         -1   -1    0    0    0  501 -0.00000000000E+00  0.00000000000E+00  0.76864236939E+01  0.76864253463E+01  0.50400000000E-02 0.  1.
          2   -1    0    0  501    0  0.00000000000E+00 -0.00000000000E+00 -0.22518643247E+03  0.22518643248E+03  0.25500000000E-02 0. -1.
         24    2    1    2    0    0  0.35527136788E-14  0.17763568394E-14 -0.21750000877E+03  0.23287285783E+03  0.83207656478E+02 0.  0.
         66    2    3    3    0    0 -0.23774000445E+02 -0.97637689962E+01 -0.20028929145E+03  0.20194141368E+03  0.20000021777E+01 0.  0.
        -13    1    3    3    0    0  0.23774000445E+02  0.97637689962E+01 -0.17210717328E+02  0.30931444150E+02  0.10566000000E+00 0.  1.
         13    1    4    4    0    0 -0.20253962756E+02 -0.83204190738E+01 -0.16603489006E+03  0.16747252988E+03  0.10566000000E+00 0. -1.
        -13    1    4    4    0    0 -0.33165315647E+01 -0.14250623321E+01 -0.31351577617E+02  0.31558877790E+02  0.10566000000E+00 0.  1.
        -14    1    4    4    0    0 -0.20350612498E+00 -0.18287590353E-01 -0.29028237668E+01  0.29100060137E+01  0.00000000000E+00 0.  1.
<mgrwt>
<rscale>  0 0.83207656E+02</rscale>
<asrwt>0</asrwt>
<pdfrwt beam="1">  1        2 0.34644062E-01 0.83207656E+02</pdfrwt>
<pdfrwt beam="2">  1       -1 0.11825270E-02 0.83207656E+02</pdfrwt>
<totfact> 0.20729964E+05</totfact>
</mgrwt>
</event>
<event>
 8    1  0.2676873E-020  0.8039226E+02  0.7818608E-02  0.1327942E+00
         -1   -1    0    0    0  501 -0.00000000000E+00  0.00000000000E+00  0.47475719567E+01  0.47475746319E+01  0.50400000000E-02 0.  1.
          2   -1    0    0  501    0  0.00000000000E+00 -0.00000000000E+00 -0.34032735304E+03  0.34032735305E+03  0.25500000000E-02 0. -1.
         24    2    1    2    0    0  0.00000000000E+00  0.00000000000E+00 -0.33557978108E+03  0.34507492768E+03  0.80392264817E+02 0.  0.
         66    2    3    3    0    0  0.28196733558E+01  0.19611008454E+02 -0.31789277807E+03  0.31851587178E+03  0.20000052522E+01 0.  0.
        -13    1    3    3    0    0 -0.28196733558E+01 -0.19611008454E+02 -0.17687003016E+02  0.26559055897E+02  0.10566000000E+00 0.  1.
         13    1    4    4    0    0  0.94293397615E+00  0.63540799454E+01 -0.10564345670E+03  0.10583862510E+03  0.10566000000E+00 0. -1.
        -13    1    4    4    0    0 -0.14533783941E+00  0.41175860726E+01 -0.66907972134E+02  0.67034793483E+02  0.10566000000E+00 0.  1.
         14    1    4    4    0    0  0.20220772190E+01  0.91393424357E+01 -0.14534134923E+03  0.14564245320E+03  0.00000000000E+00 0. -1.
<mgrwt>
<rscale>  0 0.80392265E+02</rscale>
<asrwt>0</asrwt>
<pdfrwt beam="1">  1        2 0.52358035E-01 0.80392265E+02</pdfrwt>
<pdfrwt beam="2">  1       -1 0.73039616E-03 0.80392265E+02</pdfrwt>
<totfact> 0.26341239E+05</totfact>
</mgrwt>
</event>
<event>
 8    1  0.2676873E-020  0.8138313E+02  0.7818608E-02  0.1325172E+00
         -1   -1    0    0    0  501 -0.00000000000E+00  0.00000000000E+00  0.18237142841E+01  0.18237212483E+01  0.50400000000E-02 0.  1.
          2   -1    0    0  501    0  0.00000000000E+00 -0.00000000000E+00 -0.90792742261E+03  0.90792742262E+03  0.25500000000E-02 0. -1.
         24    2    1    2    0    0 -0.17763568394E-14 -0.17763568394E-14 -0.90610370833E+03  0.90975114387E+03  0.81383127957E+02 0.  0.
         66    2    3    3    0    0  0.13365676218E+02  0.97637164151E+01 -0.86856600515E+03  0.86872600787E+03  0.19999993902E+01 0.  0.
        -13    1    3    3    0    0 -0.13365676218E+02 -0.97637164151E+01 -0.37537703182E+02  0.41025135993E+02  0.10566000000E+00 0.  1.
         13    1    4    4    0    0  0.45083750255E+01  0.33654991925E+01 -0.27562575208E+03  0.27568318484E+03  0.10566000000E+00 0. -1.
        -13    1    4    4    0    0  0.83727949394E+01  0.56995519600E+01 -0.55999868179E+03  0.56009028143E+03  0.10566000000E+00 0.  1.
        -14    1    4    4    0    0  0.48450625354E+00  0.69866526255E+00 -0.32941571282E+02  0.32952541601E+02  0.00000000000E+00 0.  1.
<mgrwt>
<rscale>  0 0.81383128E+02</rscale>
<asrwt>0</asrwt>
<pdfrwt beam="1">  1        2 0.13968078E+00 0.81383128E+02</pdfrwt>
<pdfrwt beam="2">  1       -1 0.28057269E-03 0.81383128E+02</pdfrwt>
<totfact> 0.33455439E+05</totfact>
</mgrwt>
</event>
<event>
 8    1  0.2676873E-020  0.7894825E+02  0.7818608E-02  0.1332063E+00
         -1   -1    0    0    0  501 -0.00000000000E+00  0.00000000000E+00  0.35183467960E+01  0.35183504059E+01  0.50400000000E-02 0.  1.
          2   -1    0    0  501    0  0.00000000000E+00 -0.00000000000E+00 -0.44288003204E+03  0.44288003204E+03  0.25500000000E-02 0. -1.
         24    2    1    2    0    0  0.00000000000E+00  0.00000000000E+00 -0.43936168524E+03  0.44639838245E+03  0.78948245050E+02 0.  0.
         66    2    3    3    0    0  0.20158299371E+02 -0.18995616712E+01 -0.41125458901E+03  0.41175757716E+03  0.20000012999E+01 0.  0.
        -13    1    3    3    0    0 -0.20158299371E+02  0.18995616712E+01 -0.28107096234E+02  0.34640805286E+02  0.10566000000E+00 0.  1.
         13    1    4    4    0    0  0.10069345350E+02 -0.61544355997E+00 -0.19415279049E+03  0.19441473120E+03  0.10566000000E+00 0. -1.
        -13    1    4    4    0    0  0.19171652605E+01 -0.11408628578E+00 -0.32925348739E+02  0.32981484077E+02  0.10566000000E+00 0.  1.
         14    1    4    4    0    0  0.81717887606E+01 -0.11700318255E+01 -0.18417644978E+03  0.18436136189E+03  0.00000000000E+00 0. -1.
<mgrwt>
<rscale>  0 0.78948245E+02</rscale>
<asrwt>0</asrwt>
<pdfrwt beam="1">  1        2 0.68135345E-01 0.78948245E+02</pdfrwt>
<pdfrwt beam="2">  1       -1 0.54128475E-03 0.78948245E+02</pdfrwt>
<totfact> 0.30288336E+05</totfact>
</mgrwt>
</event>
<event>
 8    1  0.2799003E-020  0.7963464E+02  0.7818608E-02  0.1330091E+00
          2   -1    0    0  501    0  0.00000000000E+00  0.00000000000E+00  0.78407761214E+03  0.78407761215E+03  0.25500000000E-02 0. -1.
         -1   -1    0    0    0  501 -0.00000000000E+00 -0.00000000000E+00 -0.20220146862E+01  0.20220209675E+01  0.50400000000E-02 0.  1.
         24    2    1    2    0    0  0.00000000000E+00  0.00000000000E+00  0.78205559746E+03  0.78609963312E+03  0.79634638628E+02 0.  0.
         66    2    3    3    0    0 -0.24274993975E+02  0.76160270258E+01  0.69330005315E+03  0.69376958920E+03  0.20000001301E+01 0.  0.
        -13    1    3    3    0    0  0.24274993975E+02 -0.76160270258E+01  0.88755544311E+02  0.92330043920E+02  0.10566000000E+00 0.  1.
         13    1    4    4    0    0 -0.15945335367E+02  0.50395091233E+01  0.44971780931E+03  0.45002863192E+03  0.10566000000E+00 0. -1.
        -13    1    4    4    0    0 -0.59811413609E+01  0.21565075277E+01  0.16493531570E+03  0.16505785079E+03  0.10566000000E+00 0.  1.
        -14    1    4    4    0    0 -0.23485172467E+01  0.42001037476E+00  0.78646928127E+02  0.78683106483E+02  0.00000000000E+00 0.  1.
<mgrwt>
<rscale>  0 0.79634639E+02</rscale>
<asrwt>0</asrwt>
<pdfrwt beam="1">  1        2 0.12062741E+00 0.79634639E+02</pdfrwt>
<pdfrwt beam="2">  1       -1 0.31107945E-03 0.79634639E+02</pdfrwt>
<totfact> 0.34653030E+05</totfact>
</mgrwt>
</event>
<event>
 8    1  0.2676873E-020  0.7642727E+02  0.7818608E-02  0.1339507E+00
         -1   -1    0    0    0  501 -0.00000000000E+00  0.00000000000E+00  0.94873449921E+00  0.94874788621E+00  0.50400000000E-02 0.  1.
          2   -1    0    0  501    0  0.00000000000E+00 -0.00000000000E+00 -0.15391783338E+04  0.15391783338E+04  0.25500000000E-02 0. -1.
         24    2    1    2    0    0  0.00000000000E+00  0.17763568394E-14 -0.15382295993E+04  0.15401270817E+04  0.76427269903E+02 0.  0.
         66    2    3    3    0    0 -0.71604219066E+01 -0.83448452280E+01 -0.15065828916E+04  0.15066243451E+04  0.20000089687E+01 0.  0.
        -13    1    3    3    0    0  0.71604219066E+01  0.83448452280E+01 -0.31646707743E+02  0.33502736586E+02  0.10566000000E+00 0.  1.
         13    1    4    4    0    0 -0.19138366433E+01 -0.13036802465E+01 -0.26812628684E+03  0.26813630715E+03  0.10566000000E+00 0.  1.
        -13    1    4    4    0    0 -0.23385727727E+01 -0.38538731354E+01 -0.63106864766E+03  0.63108475697E+03  0.10566000000E+00 0. -1.
         14    1    4    4    0    0 -0.29080124905E+01 -0.31872918461E+01 -0.60738795708E+03  0.60740328100E+03  0.00000000000E+00 0. -1.
<mgrwt>
<rscale>  0 0.76427270E+02</rscale>
<asrwt>0</asrwt>
<pdfrwt beam="1">  1        2 0.23679467E+00 0.76427270E+02</pdfrwt>
<pdfrwt beam="2">  1       -1 0.14596142E-03 0.76427270E+02</pdfrwt>
<totfact> 0.37054953E+05</totfact>
</mgrwt>
</event>
<event>
 8    1  0.2676873E-020  0.7707632E+02  0.7818608E-02  0.1337559E+00
         -1   -1    0    0    0  501 -0.00000000000E+00  0.00000000000E+00  0.36368129782E+02  0.36368130131E+02  0.50400000000E-02 0.  1.
          2   -1    0    0  501    0  0.00000000000E+00 -0.00000000000E+00 -0.40837672289E+02  0.40837672369E+02  0.25500000000E-02 0. -1.
         24    2    1    2    0    0  0.00000000000E+00  0.00000000000E+00 -0.44695425077E+01  0.77205802500E+02  0.77076320160E+02 0.  0.
         66    2    3    3    0    0  0.21244032997E+02 -0.56013150181E+01 -0.33920109251E+02  0.40463038403E+02  0.19999993353E+01 0.  0.
        -13    1    3    3    0    0 -0.21244032997E+02  0.56013150181E+01  0.29450566743E+02  0.36742764096E+02  0.10566000000E+00 0.  1.
         13    1    4    4    0    0  0.71468819686E+01 -0.12211493498E+01 -0.11568054259E+02  0.13652844795E+02  0.10566000000E+00 0. -1.
        -13    1    4    4    0    0  0.65536857617E+01 -0.24110197994E+01 -0.97970336843E+01  0.12031493946E+02  0.10566000000E+00 0.  1.
        -14    1    4    4    0    0  0.75434652671E+01 -0.19691458689E+01 -0.12555021307E+02  0.14778699662E+02  0.00000000000E+00 0.  1.
<mgrwt>
<rscale>  0 0.77076320E+02</rscale>
<asrwt>0</asrwt>
<pdfrwt beam="1">  1        2 0.62827188E-02 0.77076320E+02</pdfrwt>
<pdfrwt beam="2">  1       -1 0.55950969E-02 0.77076320E+02</pdfrwt>
<totfact> 0.15862023E+05</totfact>
</mgrwt>
</event>
<event>
 8    1  0.2676873E-020  0.8229590E+02  0.7818608E-02  0.1322659E+00
         -1   -1    0    0    0  501 -0.00000000000E+00  0.00000000000E+00  0.21109868189E+02  0.21109868791E+02  0.50400000000E-02 0.  1.
          2   -1    0    0  501    0  0.00000000000E+00 -0.00000000000E+00 -0.80206740772E+02  0.80206740813E+02  0.25500000000E-02 0. -1.
         24    2    1    2    0    0  0.00000000000E+00  0.00000000000E+00 -0.59096872583E+02  0.10131660960E+03  0.82295899244E+02 0.  0.
         66    2    3    3    0    0 -0.29502647515E+02 -0.39089211679E+00 -0.64832594035E+02  0.71258854005E+02  0.20000044210E+01 0.  0.
        -13    1    3    3    0    0  0.29502647515E+02  0.39089211679E+00  0.57357214518E+01  0.30057755599E+02  0.10566000000E+00 0.  1.
         13    1    4    4    0    0 -0.10457728290E+02 -0.77760605789E+00 -0.21854817575E+02  0.24240729515E+02  0.10566000000E+00 0. -1.
        -13    1    4    4    0    0 -0.12215800773E+02  0.14692308314E+00 -0.28535790754E+02  0.31041100060E+02  0.10566000000E+00 0.  1.
         14    1    4    4    0    0 -0.68291184521E+01  0.23979085796E+00 -0.14441985706E+02  0.15977024430E+02  0.00000000000E+00 0. -1.
<mgrwt>
<rscale>  0 0.82295899E+02</rscale>
<asrwt>0</asrwt>
<pdfrwt beam="1">  1        2 0.12339498E-01 0.82295899E+02</pdfrwt>
<pdfrwt beam="2">  1       -1 0.32476721E-02 0.82295899E+02</pdfrwt>
<totfact> 0.15477738E+05</totfact>
</mgrwt>
</event>
<event>
 8    1  0.2676873E-020  0.8013303E+02  0.7818608E-02  0.1328674E+00
         -1   -1    0    0    0  501 -0.00000000000E+00  0.00000000000E+00  0.45739185090E+02  0.45739185368E+02  0.50400000000E-02 0.  1.
          2   -1    0    0  501    0  0.00000000000E+00 -0.00000000000E+00 -0.35097382824E+02  0.35097382917E+02  0.25500000000E-02 0. -1.
         24    2    1    2    0    0  0.00000000000E+00  0.00000000000E+00  0.10641802266E+02  0.80836568285E+02  0.80133031994E+02 0.  0.
         66    2    3    3    0    0  0.29281463624E+02  0.36896564820E+01 -0.21974477928E+02  0.36849631876E+02  0.20000030661E+01 0.  0.
        -13    1    3    3    0    0 -0.29281463624E+02 -0.36896564820E+01  0.32616280194E+02  0.43986936409E+02  0.10566000000E+00 0.  1.
         13    1    4    4    0    0  0.16145847501E+02  0.12506385044E+01 -0.11534461729E+02  0.19882340396E+02  0.10566000000E+00 0. -1.
        -13    1    4    4    0    0  0.11289481062E+02  0.19225390745E+01 -0.91127689025E+01  0.14635650319E+02  0.10566000000E+00 0.  1.
        -14    1    4    4    0    0  0.18461350606E+01  0.51647890321E+00 -0.13272472964E+01  0.23316411613E+01  0.00000000000E+00 0.  1.
<mgrwt>
<rscale>  0 0.80133032E+02</rscale>
<asrwt>0</asrwt>
<pdfrwt beam="1">  1        2 0.53995974E-02 0.80133032E+02</pdfrwt>
<pdfrwt beam="2">  1       -1 0.70367977E-02 0.80133032E+02</pdfrwt>
<totfact> 0.13817739E+05</totfact>
</mgrwt>
</event>
<event>
 8    1  0.2676873E-020  0.8011509E+02  0.7818608E-02  0.1328725E+00
          2   -1    0    0  501    0  0.00000000000E+00  0.00000000000E+00  0.22892711536E+02  0.22892711678E+02  0.25500000000E-02 0. -1.
         -1   -1    0    0    0  501 -0.00000000000E+00 -0.00000000000E+00 -0.70092478199E+02  0.70092478380E+02  0.50400000000E-02 0.  1.
         24    2    1    2    0    0  0.22204460493E-15  0.00000000000E+00 -0.47199766663E+02  0.92985190058E+02  0.80115089696E+02 0.  0.
         66    2    3    3    0    0 -0.18022878082E+01  0.12026421852E+02  0.20653358338E+02  0.24050867690E+02  0.19999905203E+01 0.  0.
        -13    1    3    3    0    0  0.18022878082E+01 -0.12026421852E+02 -0.67853125001E+02  0.68934322368E+02  0.10566000000E+00 0.  1.
         13    1    4    4    0    0 -0.44269135960E+00  0.36017432881E+01  0.60110408929E+01  0.70222722110E+01  0.10566000000E+00 0. -1.
        -13    1    4    4    0    0 -0.87412264133E-02  0.43300489714E+01  0.82528296317E+01  0.93203949202E+01  0.10566000000E+00 0.  1.
        -14    1    4    4    0    0 -0.13508552222E+01  0.40946295930E+01  0.63894878131E+01  0.77082005584E+01  0.00000000000E+00 0.  1.
<mgrwt>
<rscale>  0 0.80115090E+02</rscale>
<asrwt>0</asrwt>
<pdfrwt beam="1">  1        2 0.35219557E-02 0.80115090E+02</pdfrwt>
<pdfrwt beam="2">  1       -1 0.10783458E-01 0.80115090E+02</pdfrwt>
<totfact> 0.12704056E+05</totfact>
</mgrwt>
</event>
<event>
 8    1  0.2676873E-020  0.7780168E+02  0.7818608E-02  0.1335408E+00
          2   -1    0    0  501    0  0.00000000000E+00  0.00000000000E+00  0.73522101996E+03  0.73522101996E+03  0.25500000000E-02 0. -1.
         -1   -1    0    0    0  501 -0.00000000000E+00 -0.00000000000E+00 -0.20582558597E+01  0.20582620304E+01  0.50400000000E-02 0.  1.
         24    2    1    2    0    0  0.00000000000E+00  0.00000000000E+00  0.73316276410E+03  0.73727928199E+03  0.77801677331E+02 0.  0.
         66    2    3    3    0    0  0.15792698560E+01  0.34049127596E+02  0.54396640629E+03  0.54503696055E+03  0.20000014157E+01 0.  0.
        -13    1    3    3    0    0 -0.15792698560E+01 -0.34049127596E+02  0.18919635781E+03  0.19224232145E+03  0.10566000000E+00 0.  1.
         13    1    4    4    0    0  0.66131869591E+00  0.20044667134E+02  0.31651752544E+03  0.31715229953E+03  0.10566000000E+00 0. -1.
        -13    1    4    4    0    0 -0.13746268749E+00  0.21102518452E+01  0.39723677573E+02  0.39780067657E+02  0.10566000000E+00 0.  1.
        -14    1    4    4    0    0  0.10554138476E+01  0.11894208617E+02  0.18772520328E+03  0.18810459336E+03  0.00000000000E+00 0.  1.
<mgrwt>
<rscale>  0 0.77801677E+02</rscale>
<asrwt>0</asrwt>
<pdfrwt beam="1">  1        2 0.11311092E+00 0.77801677E+02</pdfrwt>
<pdfrwt beam="2">  1       -1 0.31665524E-03 0.77801677E+02</pdfrwt>
<totfact> 0.36349738E+05</totfact>
</mgrwt>
</event>
<event>
 8    1  0.2676873E-020  0.8071810E+02  0.7818608E-02  0.1327026E+00
         -1   -1    0    0    0  501 -0.00000000000E+00  0.00000000000E+00  0.20392583948E+01  0.20392646229E+01  0.50400000000E-02 0.  1.
          2   -1    0    0  501    0  0.00000000000E+00 -0.00000000000E+00 -0.79874641192E+03  0.79874641193E+03  0.25500000000E-02 0. -1.
         24    2    1    2    0    0  0.00000000000E+00 -0.88817841970E-15 -0.79670715353E+03  0.80078567655E+03  0.80718097628E+02 0.  0.
         66    2    3    3    0    0 -0.17560095676E+02  0.79077436163E+01 -0.75018462612E+03  0.75043444926E+03  0.19999996490E+01 0.  0.
        -13    1    3    3    0    0  0.17560095676E+02 -0.79077436163E+01 -0.46522527409E+02  0.50351227292E+02  0.10566000000E+00 0.  1.
         13    1    4    4    0    0 -0.47816851344E+01  0.19315386543E+01 -0.18201324916E+03  0.18208632400E+03  0.10566000000E+00 0. -1.
        -13    1    4    4    0    0 -0.17197613831E+01  0.51241004218E+00 -0.59080373983E+02  0.59107714363E+02  0.10566000000E+00 0.  1.
         14    1    4    4    0    0 -0.11058649158E+02  0.54637949198E+01 -0.50909100298E+03  0.50924041089E+03  0.00000000000E+00 0. -1.
<mgrwt>
<rscale>  0 0.80718098E+02</rscale>
<asrwt>0</asrwt>
<pdfrwt beam="1">  1        2 0.12288381E+00 0.80718098E+02</pdfrwt>
<pdfrwt beam="2">  1       -1 0.31373318E-03 0.80718098E+02</pdfrwt>
<totfact> 0.33567635E+05</totfact>
</mgrwt>
</event>
<event>
 8    1  0.2676873E-020  0.7791913E+02  0.7818608E-02  0.1335063E+00
          2   -1    0    0  501    0  0.00000000000E+00  0.00000000000E+00  0.17142303198E+03  0.17142303200E+03  0.25500000000E-02 0. -1.
         -1   -1    0    0    0  501 -0.00000000000E+00 -0.00000000000E+00 -0.88543972631E+01  0.88543986975E+01  0.50400000000E-02 0.  1.
         24    2    1    2    0    0  0.00000000000E+00 -0.17763568394E-14  0.16256863472E+03  0.18027743070E+03  0.77919131315E+02 0.  0.
         66    2    3    3    0    0  0.11096600784E+02 -0.11996295304E+02  0.16309815880E+03  0.16392698086E+03  0.20000001988E+01 0.  0.
        -13    1    3    3    0    0 -0.11096600784E+02  0.11996295304E+02 -0.52952408285E+00  0.16350449834E+02  0.10566000000E+00 0.  1.
         13    1    4    4    0    0  0.75501689300E+01 -0.85413472654E+01  0.11381713285E+03  0.11438667124E+03  0.10566000000E+00 0. -1.
        -13    1    4    4    0    0  0.16953223260E+01 -0.13293507608E+01  0.25989515495E+02  0.26078868283E+02  0.10566000000E+00 0.  1.
         14    1    4    4    0    0  0.18511095279E+01 -0.21255972782E+01  0.23291510460E+02  0.23461441340E+02  0.00000000000E+00 0. -1.
<mgrwt>
<rscale>  0 0.77919131E+02</rscale>
<asrwt>0</asrwt>
<pdfrwt beam="1">  1        2 0.26372775E-01 0.77919131E+02</pdfrwt>
<pdfrwt beam="2">  1       -1 0.13622151E-02 0.77919131E+02</pdfrwt>
<totfact> 0.22436991E+05</totfact>
</mgrwt>
</event>
<event>
 8    1  0.2676873E-020  0.7905407E+02  0.7818608E-02  0.1331757E+00
         -1   -1    0    0    0  501 -0.00000000000E+00  0.00000000000E+00  0.19102387957E+01  0.19102454445E+01  0.50400000000E-02 0.  1.
          2   -1    0    0  501    0  0.00000000000E+00 -0.00000000000E+00 -0.81789966603E+03  0.81789966604E+03  0.25500000000E-02 0. -1.
         24    2    1    2    0    0  0.00000000000E+00  0.00000000000E+00 -0.81598942724E+03  0.81980991148E+03  0.79054067576E+02 0.  0.
         66    2    3    3    0    0 -0.30840515855E+01 -0.11500103039E+02 -0.79884558135E+03  0.79893681013E+03  0.19999995606E+01 0.  0.
        -13    1    3    3    0    0  0.30840515855E+01  0.11500103039E+02 -0.17143845889E+02  0.20873101350E+02  0.10566000000E+00 0.  1.
         13    1    4    4    0    0 -0.14202779800E+01 -0.80553417164E+01 -0.54123452481E+03  0.54129634003E+03  0.10566000000E+00 0. -1.
        -13    1    4    4    0    0 -0.11329310142E+01 -0.22107256696E+01 -0.18811800690E+03  0.18813443737E+03  0.10566000000E+00 0.  1.
        -14    1    4    4    0    0 -0.53084259132E+00 -0.12340356530E+01 -0.69493049638E+02  0.69506032729E+02  0.00000000000E+00 0.  1.
<mgrwt>
<rscale>  0 0.79054068E+02</rscale>
<asrwt>0</asrwt>
<pdfrwt beam="1">  1        2 0.12583044E+00 0.79054068E+02</pdfrwt>
<pdfrwt beam="2">  1       -1 0.29388406E-03 0.79054068E+02</pdfrwt>
<totfact> 0.35574583E+05</totfact>
</mgrwt>
</event>
<event>
 8    1  0.2676873E-020  0.7843310E+02  0.7818608E-02  0.1333558E+00
          2   -1    0    0  501    0  0.00000000000E+00  0.00000000000E+00  0.15347462646E+03  0.15347462648E+03  0.25500000000E-02 0. -1.
         -1   -1    0    0    0  501 -0.00000000000E+00 -0.00000000000E+00 -0.10020794353E+02  0.10020795621E+02  0.50400000000E-02 0.  1.
         24    2    1    2    0    0  0.00000000000E+00  0.00000000000E+00  0.14345383210E+03  0.16349542210E+03  0.78433099530E+02 0.  0.
         66    2    3    3    0    0  0.37264543352E+01  0.24068290172E+02  0.13577750505E+03  0.13795905167E+03  0.20000015062E+01 0.  0.
        -13    1    3    3    0    0 -0.37264543352E+01 -0.24068290172E+02  0.76763270560E+01  0.25536370432E+02  0.10566000000E+00 0.  1.
         13    1    4    4    0    0  0.29437642659E+01  0.16955699447E+02  0.92101705430E+02  0.93695767241E+02  0.10566000000E+00 0. -1.
        -13    1    4    4    0    0  0.23657825474E+00  0.23295199544E+01  0.16249719947E+02  0.16417892523E+02  0.10566000000E+00 0.  1.
         14    1    4    4    0    0  0.54611181460E+00  0.47830707713E+01  0.27426079670E+02  0.27845391902E+02  0.00000000000E+00 0. -1.
<mgrwt>
<rscale>  0 0.78433100E+02</rscale>
<asrwt>0</asrwt>
<pdfrwt beam="1">  1        2 0.23611478E-01 0.78433100E+02</pdfrwt>
<pdfrwt beam="2">  1       -1 0.15416609E-02 0.78433100E+02</pdfrwt>
<totfact> 0.21264558E+05</totfact>
</mgrwt>
</event>
<event>
 8    1  0.2676873E-020  0.7966247E+02  0.7818608E-02  0.1330012E+00
          2   -1    0    0  501    0  0.00000000000E+00  0.00000000000E+00  0.13752870156E+03  0.13752870159E+03  0.25500000000E-02 0. -1.
         -1   -1    0    0    0  501 -0.00000000000E+00 -0.00000000000E+00 -0.11535970448E+02  0.11535971549E+02  0.50400000000E-02 0.  1.
         24    2    1    2    0    0  0.35527136788E-14  0.00000000000E+00  0.12599273112E+03  0.14906467314E+03  0.79662465961E+02 0.  0.
         66    2    3    3    0    0  0.22703146535E+02  0.28339283207E+01  0.12398832942E+03  0.12609746167E+03  0.19999985680E+01 0.  0.
        -13    1    3    3    0    0 -0.22703146535E+02 -0.28339283207E+01  0.20044016928E+01  0.22967211465E+02  0.10566000000E+00 0.  1.
         13    1    4    4    0    0  0.12481943478E+02  0.14057109373E+01  0.73082053183E+02  0.74153709265E+02  0.10566000000E+00 0. -1.
        -13    1    4    4    0    0  0.18675935869E+01  0.16902144704E+00  0.97998846836E+01  0.99782452316E+01  0.10566000000E+00 0. -1.
         14    1    4    4    0    0  0.83536094698E+01  0.12591959364E+01  0.41106391556E+02  0.41965507174E+02  0.00000000000E+00 0. -1.
<mgrwt>
<rscale>  0 0.79662466E+02</rscale>
<asrwt>0</asrwt>
<pdfrwt beam="1">  1        2 0.21158262E-01 0.79662466E+02</pdfrwt>
<pdfrwt beam="2">  1       -1 0.17747648E-02 0.79662466E+02</pdfrwt>
<totfact> 0.19704825E+05</totfact>
</mgrwt>
</event>
<event>
 8    1  0.2676873E-020  0.7354975E+02  0.7818608E-02  0.1348422E+00
          2   -1    0    0  501    0  0.00000000000E+00  0.00000000000E+00  0.57403690419E+03  0.57403690420E+03  0.25500000000E-02 0. -1.
         -1   -1    0    0    0  501 -0.00000000000E+00 -0.00000000000E+00 -0.23559285583E+01  0.23559339493E+01  0.50400000000E-02 0.  1.
         24    2    1    2    0    0  0.35527136788E-14 -0.71054273576E-14  0.57168097564E+03  0.57639283815E+03  0.73549751636E+02 0.  0.
         66    2    3    3    0    0 -0.18777413959E+02  0.17384999731E+02  0.49273379042E+03  0.49340188257E+03  0.20000024572E+01 0.  0.
        -13    1    3    3    0    0  0.18777413959E+02 -0.17384999731E+02  0.78947185213E+02  0.82990955578E+02  0.10566000000E+00 0.  1.
         13    1    4    4    0    0 -0.87793306191E+01  0.73789101198E+01  0.22980017112E+03  0.23008618988E+03  0.10566000000E+00 0. -1.
        -13    1    4    4    0    0 -0.47245750615E+01  0.41866417656E+01  0.11163567974E+03  0.11181406769E+03  0.10566000000E+00 0.  1.
         14    1    4    4    0    0 -0.52735082783E+01  0.58194478457E+01  0.15129793956E+03  0.15150162500E+03  0.00000000000E+00 0. -1.
<mgrwt>
<rscale>  0 0.73549752E+02</rscale>
<asrwt>0</asrwt>
<pdfrwt beam="1">  1        2 0.88313346E-01 0.73549752E+02</pdfrwt>
<pdfrwt beam="2">  1       -1 0.36245106E-03 0.73549752E+02</pdfrwt>
<totfact> 0.39493075E+05</totfact>
</mgrwt>
</event>
<event>
 8    1  0.2676873E-020  0.8589519E+02  0.7818608E-02  0.1313108E+00
          2   -1    0    0  501    0  0.00000000000E+00  0.00000000000E+00  0.36863554698E+02  0.36863554786E+02  0.25500000000E-02 0. -1.
         -1   -1    0    0    0  501 -0.00000000000E+00 -0.00000000000E+00 -0.50035755436E+02  0.50035755690E+02  0.50400000000E-02 0.  1.
         24    2    1    2    0    0  0.00000000000E+00  0.00000000000E+00 -0.13172200738E+02  0.86899310476E+02  0.85895187810E+02 0.  0.
         66    2    3    3    0    0 -0.17262809783E+02  0.33402562069E+02  0.14358799221E+02  0.40297777485E+02  0.20000001861E+01 0.  0.
        -13    1    3    3    0    0  0.17262809783E+02 -0.33402562069E+02 -0.27530999959E+02  0.46601532992E+02  0.10566000000E+00 0.  1.
         13    1    4    4    0    0 -0.77480088865E+01  0.15108158329E+02  0.68119567528E+01  0.18294862903E+02  0.10566000000E+00 0. -1.
        -13    1    4    4    0    0 -0.14959860072E+01  0.22550490240E+01  0.61184212814E+00  0.27764608874E+01  0.10566000000E+00 0.  1.
        -14    1    4    4    0    0 -0.80188148894E+01  0.16039354716E+02  0.69350003403E+01  0.19226453694E+02  0.00000000000E+00 0.  1.
<mgrwt>
<rscale>  0 0.85895188E+02</rscale>
<asrwt>0</asrwt>
<pdfrwt beam="1">  1        2 0.56713161E-02 0.85895188E+02</pdfrwt>
<pdfrwt beam="2">  1       -1 0.76978086E-02 0.85895188E+02</pdfrwt>
<totfact> 0.11496601E+05</totfact>
</mgrwt>
</event>
<event>
 8    1  0.2676873E-020  0.8024592E+02  0.7818608E-02  0.1328355E+00
         -1   -1    0    0    0  501 -0.00000000000E+00  0.00000000000E+00  0.40593954723E+01  0.40593986010E+01  0.50400000000E-02 0.  1.
          2   -1    0    0  501    0  0.00000000000E+00 -0.00000000000E+00 -0.39657419443E+03  0.39657419443E+03  0.25500000000E-02 0. -1.
         24    2    1    2    0    0  0.00000000000E+00 -0.71054273576E-14 -0.39251479895E+03  0.40063359303E+03  0.80245924947E+02 0.  0.
         66    2    3    3    0    0  0.98209694817E+01  0.38727740864E+02 -0.17940584225E+03  0.18381171235E+03  0.20000020693E+01 0.  0.
        -13    1    3    3    0    0 -0.98209694817E+01 -0.38727740864E+02 -0.21310895670E+03  0.21682188069E+03  0.10566000000E+00 0.  1.
         13    1    4    4    0    0  0.27940721540E+01  0.11348029085E+02 -0.53388687966E+02  0.54652975858E+02  0.10566000000E+00 0. -1.
        -13    1    4    4    0    0  0.62715176059E+01  0.22415168906E+02 -0.10197011626E+03  0.10459296106E+03  0.10566000000E+00 0.  1.
        -14    1    4    4    0    0  0.75537972179E+00  0.49645428736E+01 -0.24047038026E+02  0.24565775427E+02  0.00000000000E+00 0.  1.
<mgrwt>
<rscale>  0 0.80245925E+02</rscale>
<asrwt>0</asrwt>
<pdfrwt beam="1">  1        2 0.61011384E-01 0.80245925E+02</pdfrwt>
<pdfrwt beam="2">  1       -1 0.62452294E-03 0.80245925E+02</pdfrwt>
<totfact> 0.27943693E+05</totfact>
</mgrwt>
</event>
<event>
 8    1  0.2676873E-020  0.7910694E+02  0.7818608E-02  0.1331605E+00
         -1   -1    0    0    0  501 -0.00000000000E+00  0.00000000000E+00  0.33185604050E+02  0.33185604433E+02  0.50400000000E-02 0.  1.
          2   -1    0    0  501    0  0.00000000000E+00 -0.00000000000E+00 -0.47143243768E+02  0.47143243837E+02  0.25500000000E-02 0. -1.
         24    2    1    2    0    0  0.00000000000E+00  0.00000000000E+00 -0.13957639718E+02  0.80328848269E+02  0.79106941274E+02 0.  0.
         66    2    3    3    0    0 -0.60235661514E+01  0.31526488674E+02 -0.30410589739E+02  0.44260668862E+02  0.20000006336E+01 0.  0.
        -13    1    3    3    0    0  0.60235661514E+01 -0.31526488674E+02  0.16452950021E+02  0.36068179407E+02  0.10566000000E+00 0.  1.
         13    1    4    4    0    0 -0.64017973879E+00  0.34885553442E+01 -0.38119601235E+01  0.52078836879E+01  0.10566000000E+00 0. -1.
        -13    1    4    4    0    0 -0.14660049965E+01  0.48716460530E+01 -0.43351449975E+01  0.66848150386E+01  0.10566000000E+00 0.  1.
        -14    1    4    4    0    0 -0.39173814161E+01  0.23166287277E+02 -0.22263484618E+02  0.32367970136E+02  0.00000000000E+00 0.  1.
<mgrwt>
<rscale>  0 0.79106941E+02</rscale>
<asrwt>0</asrwt>
<pdfrwt beam="1">  1        2 0.72528068E-02 0.79106941E+02</pdfrwt>
<pdfrwt beam="2">  1       -1 0.51054776E-02 0.79106941E+02</pdfrwt>
<totfact> 0.15215930E+05</totfact>
</mgrwt>
</event>
<event>
 8    1  0.2676873E-020  0.7854130E+02  0.7818608E-02  0.1333243E+00
         -1   -1    0    0    0  501 -0.00000000000E+00  0.00000000000E+00  0.79738000175E+02  0.79738000334E+02  0.50400000000E-02 0.  1.
          2   -1    0    0  501    0  0.00000000000E+00 -0.00000000000E+00 -0.19340640154E+02  0.19340640322E+02  0.25500000000E-02 0. -1.
         24    2    1    2    0    0 -0.71054273576E-14  0.00000000000E+00  0.60397360020E+02  0.99078640656E+02  0.78541300835E+02 0.  0.
         66    2    3    3    0    0  0.27673732125E+02  0.10405624243E+02 -0.23385223779E+01  0.29725093018E+02  0.20000006011E+01 0.  0.
        -13    1    3    3    0    0 -0.27673732125E+02 -0.10405624243E+02  0.62735882398E+02  0.69353547638E+02  0.10566000000E+00 0.  1.
         13    1    4    4    0    0  0.16786439346E+02  0.60487184830E+01 -0.81650759947E+00  0.17861953698E+02  0.10566000000E+00 0. -1.
        -13    1    4    4    0    0  0.36029085578E+01  0.99641134657E+00 -0.35352839455E+00  0.37563189440E+01  0.10566000000E+00 0.  1.
        -14    1    4    4    0    0  0.72843842214E+01  0.33604944135E+01 -0.11684863839E+01  0.81068203765E+01  0.00000000000E+00 0.  1.
<mgrwt>
<rscale>  0 0.78541301E+02</rscale>
<asrwt>0</asrwt>
<pdfrwt beam="1">  1        2 0.29754832E-02 0.78541301E+02</pdfrwt>
<pdfrwt beam="2">  1       -1 0.12267384E-01 0.78541301E+02</pdfrwt>
<totfact> 0.13001148E+05</totfact>
</mgrwt>
</event>
<event>
 8    1  0.2676873E-020  0.8018538E+02  0.7818608E-02  0.1328526E+00
          2   -1    0    0  501    0  0.00000000000E+00  0.00000000000E+00  0.26186423285E+02  0.26186423409E+02  0.25500000000E-02 0. -1.
         -1   -1    0    0    0  501 -0.00000000000E+00 -0.00000000000E+00 -0.61383866270E+02  0.61383866477E+02  0.50400000000E-02 0.  1.
         24    2    1    2    0    0  0.00000000000E+00  0.00000000000E+00 -0.35197442985E+02  0.87570289885E+02  0.80185383194E+02 0.  0.
         66    2    3    3    0    0  0.32414802573E+02 -0.22568010027E+02 -0.24966882726E+02  0.46769431688E+02  0.20000012425E+01 0.  0.
        -13    1    3    3    0    0 -0.32414802573E+02  0.22568010027E+02 -0.10230560259E+02  0.40800858198E+02  0.10566000000E+00 0.  1.
         13    1    4    4    0    0  0.21884542329E+02 -0.15582587090E+02 -0.17402757220E+02  0.32009644426E+02  0.10566000000E+00 0. -1.
        -13    1    4    4    0    0  0.47594552816E+01 -0.30215737146E+01 -0.39184448777E+01  0.68664180316E+01  0.10566000000E+00 0.  1.
         14    1    4    4    0    0  0.57708049619E+01 -0.39638492221E+01 -0.36456806275E+01  0.78933692300E+01  0.00000000000E+00 0. -1.
<mgrwt>
<rscale>  0 0.80185383E+02</rscale>
<asrwt>0</asrwt>
<pdfrwt beam="1">  1        2 0.40286805E-02 0.80185383E+02</pdfrwt>
<pdfrwt beam="2">  1       -1 0.94436718E-02 0.80185383E+02</pdfrwt>
<totfact> 0.13014236E+05</totfact>
</mgrwt>
</event>
<event>
 8    1  0.2676873E-020  0.8012327E+02  0.7818608E-02  0.1328702E+00
          2   -1    0    0  501    0  0.00000000000E+00  0.00000000000E+00  0.15837712931E+02  0.15837713136E+02  0.25500000000E-02 0. -1.
         -1   -1    0    0    0  501 -0.00000000000E+00 -0.00000000000E+00 -0.10133624847E+03  0.10133624859E+03  0.50400000000E-02 0.  1.
         24    2    1    2    0    0  0.17763568394E-14  0.00000000000E+00 -0.85498535536E+02  0.11717396173E+03  0.80123265837E+02 0.  0.
         66    2    3    3    0    0  0.10858051920E+02 -0.26245470091E+02 -0.15104734867E+01  0.28513216623E+02  0.20000000626E+01 0.  0.
        -13    1    3    3    0    0 -0.10858051920E+02  0.26245470091E+02 -0.83988062049E+02  0.88660745105E+02  0.10566000000E+00 0.  1.
         13    1    4    4    0    0  0.91412909762E+01 -0.21656882244E+02 -0.83034844251E+00  0.23521998040E+02  0.10566000000E+00 0. -1.
        -13    1    4    4    0    0  0.81425974201E+00 -0.13887530556E+01 -0.10100037050E+00  0.16164835562E+01  0.10566000000E+00 0.  1.
        -14    1    4    4    0    0  0.90250120140E+00 -0.31998347923E+01 -0.57912467367E+00  0.33747350273E+01  0.00000000000E+00 0.  1.
<mgrwt>
<rscale>  0 0.80123266E+02</rscale>
<asrwt>0</asrwt>
<pdfrwt beam="1">  1        2 0.24365713E-02 0.80123266E+02</pdfrwt>
<pdfrwt beam="2">  1       -1 0.15590192E-01 0.80123266E+02</pdfrwt>
<totfact> 0.11773967E+05</totfact>
</mgrwt>
</event>
<event>
 8    1  0.2676873E-020  0.7880434E+02  0.7818608E-02  0.1332479E+00
          2   -1    0    0  501    0  0.00000000000E+00  0.00000000000E+00  0.14828915067E+03  0.14828915069E+03  0.25500000000E-02 0. -1.
         -1   -1    0    0    0  501 -0.00000000000E+00 -0.00000000000E+00 -0.10469619103E+02  0.10469620316E+02  0.50400000000E-02 0.  1.
         24    2    1    2    0    0  0.00000000000E+00 -0.35527136788E-14  0.13781953157E+03  0.15875877101E+03  0.78804340557E+02 0.  0.
         66    2    3    3    0    0 -0.86028915929E+01 -0.25392747737E+02  0.12705419551E+03  0.12986750925E+03  0.19999954892E+01 0.  0.
        -13    1    3    3    0    0  0.86028915929E+01  0.25392747737E+02  0.10765336062E+02  0.28891261757E+02  0.10566000000E+00 0.  1.
         13    1    4    4    0    0 -0.60380417967E+01 -0.18205143935E+02  0.89107347169E+02  0.91148317033E+02  0.10566000000E+00 0. -1.
        -13    1    4    4    0    0 -0.22430539315E+01 -0.68907303468E+01  0.35288425954E+02  0.36024958376E+02  0.10566000000E+00 0.  1.
        -14    1    4    4    0    0 -0.32179586469E+00 -0.29687345452E+00  0.26584223852E+01  0.26942338437E+01  0.00000000000E+00 0.  1.
<mgrwt>
<rscale>  0 0.78804341E+02</rscale>
<asrwt>0</asrwt>
<pdfrwt beam="1">  1        2 0.22813712E-01 0.78804341E+02</pdfrwt>
<pdfrwt beam="2">  1       -1 0.16107110E-02 0.78804341E+02</pdfrwt>
<totfact> 0.20769303E+05</totfact>
</mgrwt>
</event>
<event>
 8    1  0.2676873E-020  0.8301772E+02  0.7818608E-02  0.1320699E+00
         -1   -1    0    0    0  501 -0.00000000000E+00  0.00000000000E+00  0.27282619402E+01  0.27282665955E+01  0.50400000000E-02 0.  1.
          2   -1    0    0  501    0  0.00000000000E+00 -0.00000000000E+00 -0.63153174315E+03  0.63153174315E+03  0.25500000000E-02 0. -1.
         24    2    1    2    0    0 -0.35527136788E-14 -0.71054273576E-14 -0.62880348121E+03  0.63426000975E+03  0.83017720923E+02 0.  0.
         66    2    3    3    0    0  0.20517450178E+02  0.32686968885E+02 -0.43084738012E+03  0.43257700893E+03  0.20000007814E+01 0.  0.
        -13    1    3    3    0    0 -0.20517450178E+02 -0.32686968885E+02 -0.19795610109E+03  0.20168300082E+03  0.10566000000E+00 0.  1.
         13    1    4    4    0    0  0.90810723145E+01  0.13845810015E+02 -0.19285175244E+03  0.19356131306E+03  0.10566000000E+00 0. -1.
        -13    1    4    4    0    0  0.37659861068E+01  0.66962876339E+01 -0.86570821626E+02  0.86911111145E+02  0.10566000000E+00 0.  1.
         14    1    4    4    0    0  0.76703917570E+01  0.12144871236E+02 -0.15142480606E+03  0.15210458473E+03  0.00000000000E+00 0. -1.
<mgrwt>
<rscale>  0 0.83017721E+02</rscale>
<asrwt>0</asrwt>
<pdfrwt beam="1">  1        2 0.97158614E-01 0.83017721E+02</pdfrwt>
<pdfrwt beam="2">  1       -1 0.41973347E-03 0.83017721E+02</pdfrwt>
<totfact> 0.29613178E+05</totfact>
</mgrwt>
</event>
<event>
 8    1  0.2676873E-020  0.8196800E+02  0.7818608E-02  0.1323558E+00
         -1   -1    0    0    0  501 -0.00000000000E+00  0.00000000000E+00  0.33741808143E+01  0.33741845784E+01  0.50400000000E-02 0.  1.
          2   -1    0    0  501    0  0.00000000000E+00 -0.00000000000E+00 -0.49780599258E+03  0.49780599259E+03  0.25500000000E-02 0. -1.
         24    2    1    2    0    0  0.00000000000E+00  0.71054273576E-14 -0.49443181177E+03  0.50118017717E+03  0.81968002887E+02 0.  0.
         66    2    3    3    0    0  0.84559903003E+01 -0.23223085279E+02 -0.44707499643E+03  0.44776206615E+03  0.19999966756E+01 0.  0.
        -13    1    3    3    0    0 -0.84559903003E+01  0.23223085279E+02 -0.47356815337E+02  0.53418111018E+02  0.10566000000E+00 0.  1.
         13    1    4    4    0    0  0.48276031489E+00 -0.32199041126E+01 -0.60932344660E+02  0.61019362745E+02  0.10566000000E+00 0. -1.
        -13    1    4    4    0    0  0.17926211192E+01 -0.46337559677E+01 -0.88403983289E+02  0.88543552054E+02  0.10566000000E+00 0. -1.
         14    1    4    4    0    0  0.61806088663E+01 -0.15369425199E+02 -0.29773866848E+03  0.29819915135E+03  0.00000000000E+00 0. -1.
<mgrwt>
<rscale>  0 0.81968003E+02</rscale>
<asrwt>0</asrwt>
<pdfrwt beam="1">  1        2 0.76585479E-01 0.81968003E+02</pdfrwt>
<pdfrwt beam="2">  1       -1 0.51910543E-03 0.81968003E+02</pdfrwt>
<totfact> 0.28540132E+05</totfact>
</mgrwt>
</event>
<event>
 8    1  0.2676873E-020  0.7992304E+02  0.7818608E-02  0.1329270E+00
         -1   -1    0    0    0  501 -0.00000000000E+00  0.00000000000E+00  0.63892366491E+02  0.63892366689E+02  0.50400000000E-02 0.  1.
          2   -1    0    0  501    0  0.00000000000E+00 -0.00000000000E+00 -0.24993956987E+02  0.24993957117E+02  0.25500000000E-02 0. -1.
         24    2    1    2    0    0  0.11102230246E-15  0.00000000000E+00  0.38898409503E+02  0.88886323807E+02  0.79923039845E+02 0.  0.
         66    2    3    3    0    0  0.47740557179E+00 -0.22623205976E+02 -0.17136305942E+02  0.28455058192E+02  0.19999976612E+01 0.  0.
        -13    1    3    3    0    0 -0.47740557179E+00  0.22623205976E+02  0.56034715446E+02  0.60431265615E+02  0.10566000000E+00 0.  1.
         13    1    4    4    0    0  0.13695822270E+00 -0.16610376648E+02 -0.12174530819E+02  0.20594992951E+02  0.10566000000E+00 0. -1.
        -13    1    4    4    0    0  0.60005942653E+00 -0.35500757793E+01 -0.26440572913E+01  0.44682560747E+01  0.10566000000E+00 0.  1.
         14    1    4    4    0    0 -0.25961207744E+00 -0.24627535486E+01 -0.23177178324E+01  0.33918091666E+01  0.00000000000E+00 0. -1.
<mgrwt>
<rscale>  0 0.79923040E+02</rscale>
<asrwt>0</asrwt>
<pdfrwt beam="1">  1        2 0.38452242E-02 0.79923040E+02</pdfrwt>
<pdfrwt beam="2">  1       -1 0.98295949E-02 0.79923040E+02</pdfrwt>
<totfact> 0.13015183E+05</totfact>
</mgrwt>
</event>
<event>
 8    1  0.2676873E-020  0.7741299E+02  0.7818608E-02  0.1336558E+00
         -1   -1    0    0    0  501 -0.00000000000E+00  0.00000000000E+00  0.31213237050E+01  0.31213277740E+01  0.50400000000E-02 0.  1.
          2   -1    0    0  501    0  0.00000000000E+00 -0.00000000000E+00 -0.47998605000E+03  0.47998605001E+03  0.25500000000E-02 0. -1.
         24    2    1    2    0    0  0.00000000000E+00  0.00000000000E+00 -0.47686472630E+03  0.48310737778E+03  0.77412991686E+02 0.  0.
         66    2    3    3    0    0 -0.19038153478E+02 -0.24326214094E+02 -0.38387520690E+03  0.38512126723E+03  0.20000046303E+01 0.  0.
        -13    1    3    3    0    0  0.19038153478E+02  0.24326214094E+02 -0.92989519397E+02  0.97986110555E+02  0.10566000000E+00 0.  1.
         13    1    4    4    0    0 -0.13036732225E+00 -0.29553611713E+00 -0.35063893206E+01  0.35228209348E+01  0.10566000000E+00 0. -1.
        -13    1    4    4    0    0 -0.53988649247E+01 -0.67065916485E+01 -0.99592068607E+02  0.99963580405E+02  0.10566000000E+00 0. -1.
        -14    1    4    4    0    0 -0.13508921231E+02 -0.17324086329E+02 -0.28077674897E+03  0.28163486589E+03  0.00000000000E+00 0.  1.
<mgrwt>
<rscale>  0 0.77412992E+02</rscale>
<asrwt>0</asrwt>
<pdfrwt beam="1">  1        2 0.73843949E-01 0.77412992E+02</pdfrwt>
<pdfrwt beam="2">  1       -1 0.48020434E-03 0.77412992E+02</pdfrwt>
<totfact> 0.32737828E+05</totfact>
</mgrwt>
</event>
<event>
 8    1  0.2676873E-020  0.8844029E+02  0.7818608E-02  0.1306673E+00
          2   -1    0    0  501    0  0.00000000000E+00  0.00000000000E+00  0.83864771119E+02  0.83864771158E+02  0.25500000000E-02 0. -1.
         -1   -1    0    0    0  501 -0.00000000000E+00 -0.00000000000E+00 -0.23316357856E+02  0.23316358400E+02  0.50400000000E-02 0.  1.
         24    2    1    2    0    0  0.71054273576E-14 -0.35527136788E-14  0.60548413263E+02  0.10718112956E+03  0.88440285982E+02 0.  0.
         66    2    3    3    0    0 -0.36547092865E+02  0.14268351670E+02  0.54952414997E+02  0.67550305482E+02  0.20000001372E+01 0.  0.
        -13    1    3    3    0    0  0.36547092865E+02 -0.14268351670E+02  0.55959982668E+01  0.39630824076E+02  0.10566000000E+00 0.  1.
         13    1    4    4    0    0 -0.79269467045E+01  0.37064126588E+01  0.11476273803E+02  0.14432255655E+02  0.10566000000E+00 0. -1.
        -13    1    4    4    0    0 -0.48577400105E+01  0.15465522546E+01  0.75834971738E+01  0.91383836266E+01  0.10566000000E+00 0.  1.
         14    1    4    4    0    0 -0.23762406150E+02  0.90153867565E+01  0.35892644020E+02  0.43979666201E+02  0.00000000000E+00 0. -1.
<mgrwt>
<rscale>  0 0.88440286E+02</rscale>
<asrwt>0</asrwt>
<pdfrwt beam="1">  1        2 0.12902273E-01 0.88440286E+02</pdfrwt>
<pdfrwt beam="2">  1       -1 0.35871320E-02 0.88440286E+02</pdfrwt>
<totfact> 0.12879642E+05</totfact>
</mgrwt>
</event>
<event>
 8    1  0.2676873E-020  0.7590097E+02  0.7818608E-02  0.1341104E+00
         -1   -1    0    0    0  501 -0.00000000000E+00  0.00000000000E+00  0.22651977903E+01  0.22652033972E+01  0.50400000000E-02 0.  1.
          2   -1    0    0  501    0  0.00000000000E+00 -0.00000000000E+00 -0.63581092609E+03  0.63581092609E+03  0.25500000000E-02 0. -1.
         24    2    1    2    0    0  0.17763568394E-14  0.17763568394E-14 -0.63354572830E+03  0.63807612949E+03  0.75900969566E+02 0.  0.
         66    2    3    3    0    0  0.13330064166E+02  0.12262956170E+02 -0.59709579157E+03  0.59737379840E+03  0.19999999096E+01 0.  0.
        -13    1    3    3    0    0 -0.13330064166E+02 -0.12262956170E+02 -0.36449936728E+02  0.40702331091E+02  0.10566000000E+00 0.  1.
         13    1    4    4    0    0  0.32987209895E+01  0.28729490601E+01 -0.15931456013E+03  0.15937463923E+03  0.10566000000E+00 0. -1.
        -13    1    4    4    0    0  0.16269741536E+01  0.21614747952E+01 -0.96254458226E+02  0.96292527802E+02  0.10566000000E+00 0.  1.
         14    1    4    4    0    0  0.84043690229E+01  0.72285323147E+01 -0.34152677321E+03  0.34170663136E+03  0.00000000000E+00 0. -1.
<mgrwt>
<rscale>  0 0.75900970E+02</rscale>
<asrwt>0</asrwt>
<pdfrwt beam="1">  1        2 0.97816923E-01 0.75900970E+02</pdfrwt>
<pdfrwt beam="2">  1       -1 0.34849291E-03 0.75900970E+02</pdfrwt>
<totfact> 0.37447261E+05</totfact>
</mgrwt>
</event>
<event>
 8    1  0.2676873E-020  0.8126129E+02  0.7818608E-02  0.1325510E+00
          2   -1    0    0  501    0  0.00000000000E+00  0.00000000000E+00  0.39620816617E+02  0.39620816699E+02  0.25500000000E-02 0. -1.
         -1   -1    0    0    0  501 -0.00000000000E+00 -0.00000000000E+00 -0.41666205847E+02  0.41666206152E+02  0.50400000000E-02 0.  1.
         24    2    1    2    0    0  0.22204460493E-15 -0.71054273576E-14 -0.20453892297E+01  0.81287022851E+02  0.81261285167E+02 0.  0.
         66    2    3    3    0    0  0.17140634311E+01 -0.40305327730E+02 -0.56493505526E+01  0.40784465424E+02  0.20000003531E+01 0.  0.
        -13    1    3    3    0    0 -0.17140634311E+01  0.40305327730E+02  0.36039613230E+01  0.40502557427E+02  0.10566000000E+00 0.  1.
         13    1    4    4    0    0  0.56702647290E+00 -0.52036121558E+01 -0.31993686876E+00  0.52452475751E+01  0.10566000000E+00 0. -1.
        -13    1    4    4    0    0  0.95101057769E+00 -0.19045183403E+02 -0.24619782501E+01  0.19227478589E+02  0.10566000000E+00 0.  1.
        -14    1    4    4    0    0  0.19602638048E+00 -0.16056532171E+02 -0.28674354337E+01  0.16311739260E+02  0.00000000000E+00 0.  1.
<mgrwt>
<rscale>  0 0.81261285E+02</rscale>
<asrwt>0</asrwt>
<pdfrwt beam="1">  1        2 0.60955102E-02 0.81261285E+02</pdfrwt>
<pdfrwt beam="2">  1       -1 0.64101856E-02 0.81261285E+02</pdfrwt>
<totfact> 0.13624237E+05</totfact>
</mgrwt>
</event>
<event>
 8    1  0.2676873E-020  0.8067484E+02  0.7818608E-02  0.1327147E+00
          2   -1    0    0  501    0  0.00000000000E+00  0.00000000000E+00  0.54721658464E+03  0.54721658465E+03  0.25500000000E-02 0. -1.
         -1   -1    0    0    0  501 -0.00000000000E+00 -0.00000000000E+00 -0.29734230363E+01  0.29734273077E+01  0.50400000000E-02 0.  1.
         24    2    1    2    0    0  0.35527136788E-14 -0.88817841970E-15  0.54424316161E+03  0.55019001196E+03  0.80674843050E+02 0.  0.
         66    2    3    3    0    0  0.20976557231E+02 -0.46360123662E+01  0.50492349689E+03  0.50538425606E+03  0.19999997284E+01 0.  0.
        -13    1    3    3    0    0 -0.20976557231E+02  0.46360123662E+01  0.39319664718E+02  0.44805755896E+02  0.10566000000E+00 0.  1.
         13    1    4    4    0    0  0.18005079603E+02 -0.37621338869E+01  0.42314179973E+03  0.42354141519E+03  0.10566000000E+00 0. -1.
        -13    1    4    4    0    0  0.86765290175E+00 -0.45649840533E-01  0.27903769037E+02  0.27917492652E+02  0.10566000000E+00 0.  1.
         14    1    4    4    0    0  0.21038247261E+01 -0.82822863872E+00  0.53877928127E+02  0.53925348218E+02  0.00000000000E+00 0. -1.
<mgrwt>
<rscale>  0 0.80674843E+02</rscale>
<asrwt>0</asrwt>
<pdfrwt beam="1">  1        2 0.84187001E-01 0.80674843E+02</pdfrwt>
<pdfrwt beam="2">  1       -1 0.45745093E-03 0.80674843E+02</pdfrwt>
<totfact> 0.30637366E+05</totfact>
</mgrwt>
</event>
<event>
 8    1  0.2676873E-020  0.7907920E+02  0.7818608E-02  0.1331685E+00
          2   -1    0    0  501    0  0.00000000000E+00  0.00000000000E+00  0.73912894564E+02  0.73912894608E+02  0.25500000000E-02 0. -1.
         -1   -1    0    0    0  501 -0.00000000000E+00 -0.00000000000E+00 -0.21151651417E+02  0.21151652018E+02  0.50400000000E-02 0.  1.
         24    2    1    2    0    0  0.00000000000E+00  0.88817841970E-15  0.52761243146E+02  0.95064546626E+02  0.79079196043E+02 0.  0.
         66    2    3    3    0    0 -0.22442344348E+02 -0.51803574444E+01  0.64995055638E+02  0.68984434371E+02  0.20000012420E+01 0.  0.
        -13    1    3    3    0    0  0.22442344348E+02  0.51803574444E+01 -0.12233812492E+02  0.26080112255E+02  0.10566000000E+00 0.  1.
         13    1    4    4    0    0 -0.91881679628E+01 -0.24700419051E+01  0.28397654675E+02  0.29949315394E+02  0.10566000000E+00 0. -1.
        -13    1    4    4    0    0 -0.98409431843E+01 -0.16691656937E+01  0.28023854973E+02  0.29748577924E+02  0.10566000000E+00 0.  1.
        -14    1    4    4    0    0 -0.34132332012E+01 -0.10411498457E+01  0.85735459902E+01  0.92865410532E+01  0.00000000000E+00 0.  1.
<mgrwt>
<rscale>  0 0.79079196E+02</rscale>
<asrwt>0</asrwt>
<pdfrwt beam="1">  1        2 0.11371215E-01 0.79079196E+02</pdfrwt>
<pdfrwt beam="2">  1       -1 0.32541003E-02 0.79079196E+02</pdfrwt>
<totfact> 0.16884296E+05</totfact>
</mgrwt>
</event>
<event>
 8    1  0.2676873E-020  0.8026467E+02  0.7818608E-02  0.1328302E+00
          2   -1    0    0  501    0  0.00000000000E+00  0.00000000000E+00  0.23532630566E+03  0.23532630567E+03  0.25500000000E-02 0. -1.
         -1   -1    0    0    0  501 -0.00000000000E+00 -0.00000000000E+00 -0.68441312348E+01  0.68441330905E+01  0.50400000000E-02 0.  1.
         24    2    1    2    0    0 -0.35527136788E-14 -0.17763568394E-14  0.22848217442E+03  0.24217043876E+03  0.80264670816E+02 0.  0.
         66    2    3    3    0    0  0.31871305319E+02  0.13907334315E+02  0.17460991987E+03  0.17805004399E+03  0.19999997648E+01 0.  0.
        -13    1    3    3    0    0 -0.31871305319E+02 -0.13907334315E+02  0.53872254557E+02  0.64120394771E+02  0.10566000000E+00 0.  1.
         13    1    4    4    0    0  0.13526026454E+02  0.59104169252E+01  0.73678489009E+02  0.75142646523E+02  0.10566000000E+00 0. -1.
        -13    1    4    4    0    0  0.18483481707E+01  0.34111086532E+00  0.94954790679E+01  0.96802910259E+01  0.10566000000E+00 0.  1.
        -14    1    4    4    0    0  0.16496930695E+02  0.76558065245E+01  0.91435951789E+02  0.93227106442E+02  0.00000000000E+00 0.  1.
<mgrwt>
<rscale>  0 0.80264671E+02</rscale>
<asrwt>0</asrwt>
<pdfrwt beam="1">  1        2 0.36204042E-01 0.80264671E+02</pdfrwt>
<pdfrwt beam="2">  1       -1 0.10529436E-02 0.80264671E+02</pdfrwt>
<totfact> 0.23156093E+05</totfact>
</mgrwt>
</event>
<event>
 8    1  0.2676873E-020  0.7929079E+02  0.7818608E-02  0.1331076E+00
          2   -1    0    0  501    0  0.00000000000E+00  0.00000000000E+00  0.19233578283E+02  0.19233578452E+02  0.25500000000E-02 0. -1.
         -1   -1    0    0    0  501 -0.00000000000E+00 -0.00000000000E+00 -0.81719435829E+02  0.81719435984E+02  0.50400000000E-02 0.  1.
         24    2    1    2    0    0  0.00000000000E+00  0.11102230246E-15 -0.62485857546E+02  0.10095301444E+03  0.79290785912E+02 0.  0.
         66    2    3    3    0    0  0.14042090118E+02 -0.87993495628E+00  0.15893752373E+02  0.21320552491E+02  0.20000034041E+01 0.  0.
        -13    1    3    3    0    0 -0.14042090118E+02  0.87993495628E+00 -0.78379609919E+02  0.79632461945E+02  0.10566000000E+00 0.  1.
         13    1    4    4    0    0  0.37832221186E+01 -0.18890242063E+00  0.42644588568E+01  0.57048424255E+01  0.10566000000E+00 0. -1.
        -13    1    4    4    0    0  0.12402724254E+01 -0.47741662763E+00  0.95480091033E+00  0.16398204595E+01  0.10566000000E+00 0. -1.
        -14    1    4    4    0    0  0.90185955737E+01 -0.21361590802E+00  0.10674492606E+02  0.13975889606E+02  0.00000000000E+00 0.  1.
<mgrwt>
<rscale>  0 0.79290786E+02</rscale>
<asrwt>0</asrwt>
<pdfrwt beam="1">  1        2 0.29590121E-02 0.79290786E+02</pdfrwt>
<pdfrwt beam="2">  1       -1 0.12572221E-01 0.79290786E+02</pdfrwt>
<totfact> 0.12637282E+05</totfact>
</mgrwt>
</event>
<event>
 8    1  0.2676873E-020  0.7823501E+02  0.7818608E-02  0.1334136E+00
         -1   -1    0    0    0  501 -0.00000000000E+00  0.00000000000E+00  0.53755727183E+02  0.53755727419E+02  0.50400000000E-02 0.  1.
          2   -1    0    0  501    0  0.00000000000E+00 -0.00000000000E+00 -0.28465420015E+02  0.28465420130E+02  0.25500000000E-02 0. -1.
         24    2    1    2    0    0  0.00000000000E+00 -0.44408920985E-15  0.25290307168E+02  0.82221147549E+02  0.78235014333E+02 0.  0.
         66    2    3    3    0    0 -0.37287924137E+02 -0.27624072587E+01  0.66360524950E+00  0.37449440057E+02  0.20000020883E+01 0.  0.
        -13    1    3    3    0    0  0.37287924137E+02  0.27624072587E+01  0.24626701918E+02  0.44771707492E+02  0.10566000000E+00 0.  1.
         13    1    4    4    0    0 -0.55184994875E+01 -0.17580575134E-01 -0.28044414325E+00  0.55266589024E+01  0.10566000000E+00 0. -1.
        -13    1    4    4    0    0 -0.62629167102E+01 -0.10030681705E+00  0.28445992768E+00  0.62710659909E+01  0.10566000000E+00 0.  1.
         14    1    4    4    0    0 -0.25506507939E+02 -0.26445198665E+01  0.65958946507E+00  0.25651715164E+02  0.00000000000E+00 0. -1.
<mgrwt>
<rscale>  0 0.78235014E+02</rscale>
<asrwt>0</asrwt>
<pdfrwt beam="1">  1        2 0.43792954E-02 0.78235014E+02</pdfrwt>
<pdfrwt beam="2">  1       -1 0.82701119E-02 0.78235014E+02</pdfrwt>
<totfact> 0.14176704E+05</totfact>
</mgrwt>
</event>
<event>
 8    1  0.2676873E-020  0.8039674E+02  0.7818608E-02  0.1327929E+00
          2   -1    0    0  501    0  0.00000000000E+00  0.00000000000E+00  0.12012782812E+03  0.12012782814E+03  0.25500000000E-02 0. -1.
         -1   -1    0    0    0  501 -0.00000000000E+00 -0.00000000000E+00 -0.13451579410E+02  0.13451580354E+02  0.50400000000E-02 0.  1.
         24    2    1    2    0    0 -0.17763568394E-14  0.17763568394E-14  0.10667624871E+03  0.13357940850E+03  0.80396743319E+02 0.  0.
         66    2    3    3    0    0 -0.86859638547E+01  0.15998557904E+02  0.11287289095E+03  0.11434898047E+03  0.19999995545E+01 0.  0.
        -13    1    3    3    0    0  0.86859638547E+01 -0.15998557904E+02 -0.61966422475E+01  0.19230428031E+02  0.10566000000E+00 0.  1.
         13    1    4    4    0    0 -0.61179051896E+01  0.10031867905E+02  0.73190161639E+02  0.74127444731E+02  0.10566000000E+00 0. -1.
        -13    1    4    4    0    0 -0.13567247428E+01  0.42326143453E+01  0.27039702519E+02  0.27402780928E+02  0.10566000000E+00 0.  1.
        -14    1    4    4    0    0 -0.12113339223E+01  0.17340756536E+01  0.12643026796E+02  0.12818754807E+02  0.00000000000E+00 0.  1.
<mgrwt>
<rscale>  0 0.80396743E+02</rscale>
<asrwt>0</asrwt>
<pdfrwt beam="1">  1        2 0.18481204E-01 0.80396743E+02</pdfrwt>
<pdfrwt beam="2">  1       -1 0.20694739E-02 0.80396743E+02</pdfrwt>
<totfact> 0.18447449E+05</totfact>
</mgrwt>
</event>
<event>
 8    1  0.2676873E-020  0.8025198E+02  0.7818608E-02  0.1328338E+00
         -1   -1    0    0    0  501 -0.00000000000E+00  0.00000000000E+00  0.85824801065E+02  0.85824801213E+02  0.50400000000E-02 0.  1.
          2   -1    0    0  501    0  0.00000000000E+00 -0.00000000000E+00 -0.18760253075E+02  0.18760253248E+02  0.25500000000E-02 0. -1.
         24    2    1    2    0    0  0.00000000000E+00  0.00000000000E+00  0.67064547990E+02  0.10458505446E+03  0.80251978290E+02 0.  0.
         66    2    3    3    0    0  0.26829659994E+02 -0.14691823885E+02  0.67346362354E+02  0.73994681337E+02  0.19999998136E+01 0.  0.
        -13    1    3    3    0    0 -0.26829659994E+02  0.14691823885E+02 -0.28181436435E+00  0.30590373124E+02  0.10566000000E+00 0.  1.
         13    1    4    4    0    0  0.35942050100E+01 -0.15224755998E+01  0.97406970388E+01  0.10494216714E+02  0.10566000000E+00 0.  1.
        -13    1    4    4    0    0  0.81579272815E+01 -0.42216170607E+01  0.19869445308E+02  0.21890176998E+02  0.10566000000E+00 0. -1.
        -14    1    4    4    0    0  0.15077527703E+02 -0.89477312249E+01  0.37736220008E+02  0.41610287624E+02  0.00000000000E+00 0.  1.
<mgrwt>
<rscale>  0 0.80251978E+02</rscale>
<asrwt>0</asrwt>
<pdfrwt beam="1">  1        2 0.28861928E-02 0.80251978E+02</pdfrwt>
<pdfrwt beam="2">  1       -1 0.13203816E-01 0.80251978E+02</pdfrwt>
<totfact> 0.12144209E+05</totfact>
</mgrwt>
</event>
<event>
 8    1  0.2676873E-020  0.7693563E+02  0.7818608E-02  0.1337980E+00
          2   -1    0    0  501    0  0.00000000000E+00  0.00000000000E+00  0.83941183370E+03  0.83941183370E+03  0.25500000000E-02 0. -1.
         -1   -1    0    0    0  501 -0.00000000000E+00 -0.00000000000E+00 -0.17628649560E+01  0.17628721606E+01  0.50400000000E-02 0.  1.
         24    2    1    2    0    0  0.00000000000E+00  0.00000000000E+00  0.83764896874E+03  0.84117470586E+03  0.76935628602E+02 0.  0.
         66    2    3    3    0    0  0.24093677524E+01 -0.11577556371E+02  0.81902776653E+03  0.81911557623E+03  0.20000010367E+01 0.  0.
        -13    1    3    3    0    0 -0.24093677524E+01  0.11577556371E+02  0.18621202214E+02  0.22059129638E+02  0.10566000000E+00 0.  1.
         13    1    4    4    0    0  0.32391222848E+00 -0.58286319890E+00  0.32515863938E+02  0.32522872264E+02  0.10566000000E+00 0. -1.
        -13    1    4    4    0    0  0.23606463738E+00 -0.19776935595E+01  0.10860891606E+03  0.10862722868E+03  0.10566000000E+00 0.  1.
         14    1    4    4    0    0  0.18493908866E+01 -0.90169996123E+01  0.67790298653E+03  0.67796547528E+03  0.00000000000E+00 0. -1.
<mgrwt>
<rscale>  0 0.76935629E+02</rscale>
<asrwt>0</asrwt>
<pdfrwt beam="1">  1        2 0.12914044E+00 0.76935629E+02</pdfrwt>
<pdfrwt beam="2">  1       -1 0.27121021E-03 0.76935629E+02</pdfrwt>
<totfact> 0.38321890E+05</totfact>
</mgrwt>
</event>
<event>
 8    1  0.2676873E-020  0.7936706E+02  0.7818608E-02  0.1330857E+00
          2   -1    0    0  501    0  0.00000000000E+00  0.00000000000E+00  0.60658132514E+02  0.60658132568E+02  0.25500000000E-02 0. -1.
         -1   -1    0    0    0  501 -0.00000000000E+00 -0.00000000000E+00 -0.25961606075E+02  0.25961606564E+02  0.50400000000E-02 0.  1.
         24    2    1    2    0    0  0.71054273576E-14  0.22204460493E-15  0.34696526439E+02  0.86619739132E+02  0.79367060298E+02 0.  0.
         66    2    3    3    0    0 -0.32220635970E+02 -0.68633110642E+00 -0.78641138526E+01  0.33233788744E+02  0.19999987203E+01 0.  0.
        -13    1    3    3    0    0  0.32220635970E+02  0.68633110642E+00  0.42560640292E+02  0.53385950388E+02  0.10566000000E+00 0.  1.
         13    1    4    4    0    0 -0.12306635042E+02 -0.20087036798E+00 -0.30700439477E+01  0.12685816837E+02  0.10566000000E+00 0. -1.
        -13    1    4    4    0    0 -0.51830220538E+01  0.51954307312E+00 -0.14647177244E+01  0.54120425593E+01  0.10566000000E+00 0.  1.
        -14    1    4    4    0    0 -0.14730978875E+02 -0.10050038116E+01 -0.33293521804E+01  0.15135929347E+02  0.00000000000E+00 0.  1.
<mgrwt>
<rscale>  0 0.79367060E+02</rscale>
<asrwt>0</asrwt>
<pdfrwt beam="1">  1        2 0.93320202E-02 0.79367060E+02</pdfrwt>
<pdfrwt beam="2">  1       -1 0.39940934E-02 0.79367060E+02</pdfrwt>
<totfact> 0.15946144E+05</totfact>
</mgrwt>
</event>
<event>
 8    1  0.2676873E-020  0.7878461E+02  0.7818608E-02  0.1332536E+00
          2   -1    0    0  501    0  0.00000000000E+00  0.00000000000E+00  0.19160220792E+03  0.19160220794E+03  0.25500000000E-02 0. -1.
         -1   -1    0    0    0  501 -0.00000000000E+00 -0.00000000000E+00 -0.80988293057E+01  0.80988308739E+01  0.50400000000E-02 0.  1.
         24    2    1    2    0    0  0.00000000000E+00 -0.88817841970E-15  0.18350337861E+03  0.19970103881E+03  0.78784611056E+02 0.  0.
         66    2    3    3    0    0 -0.13315937799E+02 -0.58790979746E+01  0.18452480104E+03  0.18510883335E+03  0.19999983367E+01 0.  0.
        -13    1    3    3    0    0  0.13315937799E+02  0.58790979746E+01 -0.10214224229E+01  0.14592205462E+02  0.10566000000E+00 0.  1.
         13    1    4    4    0    0 -0.23313586369E+01 -0.91031332003E+00  0.26491120610E+02  0.26609294216E+02  0.10566000000E+00 0. -1.
        -13    1    4    4    0    0 -0.57890063703E+01 -0.27737951458E+01  0.74826570849E+02  0.75101487358E+02  0.10566000000E+00 0.  1.
         14    1    4    4    0    0 -0.51955727915E+01 -0.21949895087E+01  0.83207109577E+02  0.83398051774E+02  0.00000000000E+00 0. -1.
<mgrwt>
<rscale>  0 0.78784611E+02</rscale>
<asrwt>0</asrwt>
<pdfrwt beam="1">  1        2 0.29477261E-01 0.78784611E+02</pdfrwt>
<pdfrwt beam="2">  1       -1 0.12459739E-02 0.78784611E+02</pdfrwt>
<totfact> 0.22629640E+05</totfact>
</mgrwt>
</event>
<event>
 8    1  0.2676873E-020  0.7947108E+02  0.7818608E-02  0.1330559E+00
          2   -1    0    0  501    0  0.00000000000E+00  0.00000000000E+00  0.99479782897E+01  0.99479786165E+01  0.25500000000E-02 0. -1.
         -1   -1    0    0    0  501 -0.00000000000E+00 -0.00000000000E+00 -0.15871698807E+03  0.15871698815E+03  0.50400000000E-02 0.  1.
         24    2    1    2    0    0  0.00000000000E+00  0.35527136788E-14 -0.14876900978E+03  0.16866496677E+03  0.79471081177E+02 0.  0.
         66    2    3    3    0    0 -0.29844757259E+02 -0.18332768862E+02 -0.11414304541E+03  0.11941287521E+03  0.20000001905E+01 0.  0.
        -13    1    3    3    0    0  0.29844757259E+02  0.18332768862E+02 -0.34625964372E+02  0.49252091557E+02  0.10566000000E+00 0.  1.
         13    1    4    4    0    0 -0.10713637317E+02 -0.63941026706E+01 -0.41267021371E+02  0.43112002857E+02  0.10566000000E+00 0. -1.
        -13    1    4    4    0    0 -0.19005101486E+02 -0.11659129065E+02 -0.71893751613E+02  0.75271853027E+02  0.10566000000E+00 0.  1.
        -14    1    4    4    0    0 -0.12601845579E+00 -0.27953712682E+00 -0.98227242716E+00  0.10290193281E+01  0.00000000000E+00 0.  1.
<mgrwt>
<rscale>  0 0.79471081E+02</rscale>
<asrwt>0</asrwt>
<pdfrwt beam="1">  1        2 0.15304583E-02 0.79471081E+02</pdfrwt>
<pdfrwt beam="2">  1       -1 0.24417996E-01 0.79471081E+02</pdfrwt>
<totfact> 0.10810722E+05</totfact>
</mgrwt>
</event>
<event>
 8    1  0.2676873E-020  0.7904839E+02  0.7818608E-02  0.1331774E+00
          2   -1    0    0  501    0  0.00000000000E+00  0.00000000000E+00  0.58724178069E+03  0.58724178069E+03  0.25500000000E-02 0. -1.
         -1   -1    0    0    0  501 -0.00000000000E+00 -0.00000000000E+00 -0.26601657571E+01  0.26601705316E+01  0.50400000000E-02 0.  1.
         24    2    1    2    0    0  0.00000000000E+00 -0.71054273576E-14  0.58458161493E+03  0.58990195122E+03  0.79048387359E+02 0.  0.
         66    2    3    3    0    0  0.10692885152E+02 -0.26279078222E+02  0.49755875899E+03  0.49837099272E+03  0.19999974632E+01 0.  0.
        -13    1    3    3    0    0 -0.10692885152E+02  0.26279078222E+02  0.87022855936E+02  0.91530958503E+02  0.10566000000E+00 0.  1.
         13    1    4    4    0    0  0.34552876525E+01 -0.10902897578E+02  0.19944658857E+03  0.19977428525E+03  0.10566000000E+00 0. -1.
        -13    1    4    4    0    0  0.34422251092E+01 -0.77905667420E+01  0.15253508535E+03  0.15277272424E+03  0.10566000000E+00 0.  1.
        -14    1    4    4    0    0  0.37953723900E+01 -0.75856139021E+01  0.14557708506E+03  0.14582398323E+03  0.00000000000E+00 0.  1.
<mgrwt>
<rscale>  0 0.79048387E+02</rscale>
<asrwt>0</asrwt>
<pdfrwt beam="1">  1        2 0.90345013E-01 0.79048387E+02</pdfrwt>
<pdfrwt beam="2">  1       -1 0.40925608E-03 0.79048387E+02</pdfrwt>
<totfact> 0.32980426E+05</totfact>
</mgrwt>
</event>
<event>
 8    1  0.2676873E-020  0.7894021E+02  0.7818608E-02  0.1332086E+00
         -1   -1    0    0    0  501 -0.00000000000E+00  0.00000000000E+00  0.63914561084E+01  0.63914580955E+01  0.50400000000E-02 0.  1.
          2   -1    0    0  501    0  0.00000000000E+00 -0.00000000000E+00 -0.24374555444E+03  0.24374555446E+03  0.25500000000E-02 0. -1.
         24    2    1    2    0    0  0.00000000000E+00  0.00000000000E+00 -0.23735409834E+03  0.25013701255E+03  0.78940211883E+02 0.  0.
         66    2    3    3    0    0  0.12992788703E+02 -0.35825475883E+02 -0.86499703903E+02  0.94543514089E+02  0.20000001157E+01 0.  0.
        -13    1    3    3    0    0 -0.12992788703E+02  0.35825475883E+02 -0.15085439443E+03  0.15559349846E+03  0.10566000000E+00 0.  1.
         13    1    4    4    0    0  0.64030897239E+01 -0.17131653770E+02 -0.40499821544E+02  0.44438044827E+02  0.10566000000E+00 0. -1.
        -13    1    4    4    0    0  0.60178865687E+01 -0.17887635147E+02 -0.43871135541E+02  0.47758456294E+02  0.10566000000E+00 0.  1.
        -14    1    4    4    0    0  0.57181241001E+00 -0.80618696676E+00 -0.21287468178E+01  0.23470129680E+01  0.00000000000E+00 0.  1.
<mgrwt>
<rscale>  0 0.78940212E+02</rscale>
<asrwt>0</asrwt>
<pdfrwt beam="1">  1        2 0.37499309E-01 0.78940212E+02</pdfrwt>
<pdfrwt beam="2">  1       -1 0.98330128E-03 0.78940212E+02</pdfrwt>
<totfact> 0.24496722E+05</totfact>
</mgrwt>
</event>
<event>
 8    1  0.2676873E-020  0.7930354E+02  0.7818608E-02  0.1331040E+00
          2   -1    0    0  501    0  0.00000000000E+00  0.00000000000E+00  0.75458064162E+01  0.75458068471E+01  0.25500000000E-02 0. -1.
         -1   -1    0    0    0  501 -0.00000000000E+00 -0.00000000000E+00 -0.20836246201E+03  0.20836246207E+03  0.50400000000E-02 0.  1.
         24    2    1    2    0    0  0.00000000000E+00  0.00000000000E+00 -0.20081665559E+03  0.21590826892E+03  0.79303539790E+02 0.  0.
         66    2    3    3    0    0 -0.38743034377E+02  0.76916863776E+01 -0.91831102197E+02  0.99985679380E+02  0.19999995427E+01 0.  0.
        -13    1    3    3    0    0  0.38743034377E+02 -0.76916863776E+01 -0.10898555339E+03  0.11592258954E+03  0.10566000000E+00 0.  1.
         13    1    4    4    0    0 -0.71974424520E+01  0.17802113185E+01 -0.16924761537E+02  0.18477852887E+02  0.10566000000E+00 0. -1.
        -13    1    4    4    0    0 -0.88315227395E+01  0.19542981070E+01 -0.22765093853E+02  0.24496443358E+02  0.10566000000E+00 0.  1.
         14    1    4    4    0    0 -0.22714069185E+02  0.39571769521E+01 -0.52141246807E+02  0.57011383135E+02  0.00000000000E+00 0. -1.
<mgrwt>
<rscale>  0 0.79303540E+02</rscale>
<asrwt>0</asrwt>
<pdfrwt beam="1">  1        2 0.11608935E-02 0.79303540E+02</pdfrwt>
<pdfrwt beam="2">  1       -1 0.32055759E-01 0.79303540E+02</pdfrwt>
<totfact> 0.10057589E+05</totfact>
</mgrwt>
</event>
<event>
 8    1  0.2676873E-020  0.8651989E+02  0.7818608E-02  0.1311505E+00
         -1   -1    0    0    0  501 -0.00000000000E+00  0.00000000000E+00  0.15334187406E+01  0.15334270233E+01  0.50400000000E-02 0.  1.
          2   -1    0    0  501    0  0.00000000000E+00 -0.00000000000E+00 -0.12204219264E+04  0.12204219264E+04  0.25500000000E-02 0. -1.
         24    2    1    2    0    0  0.35527136788E-14 -0.17763568394E-14 -0.12188885077E+04  0.12219553535E+04  0.86519891715E+02 0.  0.
         66    2    3    3    0    0 -0.27150716054E+02  0.12448458440E+02 -0.10512902669E+04  0.10517163833E+04  0.20000000404E+01 0.  0.
        -13    1    3    3    0    0  0.27150716054E+02 -0.12448458440E+02 -0.16759824075E+03  0.17023897018E+03  0.10566000000E+00 0.  1.
         13    1    4    4    0    0 -0.16729359355E+02  0.83876487257E+01 -0.65803565547E+03  0.65830172349E+03  0.10566000000E+00 0. -1.
        -13    1    4    4    0    0 -0.58855003260E+01  0.25329150971E+01 -0.23827624045E+03  0.23836239783E+03  0.10566000000E+00 0.  1.
        -14    1    4    4    0    0 -0.45358563727E+01  0.15278946170E+01 -0.15497837102E+03  0.15505226196E+03  0.00000000000E+00 0.  1.
<mgrwt>
<rscale>  0 0.86519892E+02</rscale>
<asrwt>0</asrwt>
<pdfrwt beam="1">  1        2 0.18775644E+00 0.86519892E+02</pdfrwt>
<pdfrwt beam="2">  1       -1 0.23591219E-03 0.86519892E+02</pdfrwt>
<totfact> 0.28507837E+05</totfact>
</mgrwt>
</event>
<event>
 8    1  0.2676873E-020  0.8170991E+02  0.7818608E-02  0.1324268E+00
          2   -1    0    0  501    0  0.00000000000E+00  0.00000000000E+00  0.66926281902E+03  0.66926281902E+03  0.25500000000E-02 0. -1.
         -1   -1    0    0    0  501 -0.00000000000E+00 -0.00000000000E+00 -0.24939764601E+01  0.24939815527E+01  0.50400000000E-02 0.  1.
         24    2    1    2    0    0  0.00000000000E+00  0.00000000000E+00  0.66676884256E+03  0.67175680058E+03  0.81709911966E+02 0.  0.
         66    2    3    3    0    0  0.12710672222E+02 -0.25485337762E+02  0.57412460944E+03  0.57483400283E+03  0.20000032785E+01 0.  0.
        -13    1    3    3    0    0 -0.12710672222E+02  0.25485337762E+02  0.92644233114E+02  0.96922797744E+02  0.10566000000E+00 0.  1.
         13    1    4    4    0    0  0.11734579603E+02 -0.24132449874E+02  0.53927141094E+03  0.53993864588E+03  0.10566000000E+00 0. -1.
        -13    1    4    4    0    0  0.13344453005E+00 -0.10887250016E+00  0.30507229515E+01  0.30574066178E+01  0.10566000000E+00 0. -1.
         14    1    4    4    0    0  0.84264808908E+00 -0.12440153878E+01  0.31802475554E+02  0.31837950333E+02  0.00000000000E+00 0. -1.
<mgrwt>
<rscale>  0 0.81709912E+02</rscale>
<asrwt>0</asrwt>
<pdfrwt beam="1">  1        2 0.10296359E+00 0.81709912E+02</pdfrwt>
<pdfrwt beam="2">  1       -1 0.38368879E-03 0.81709912E+02</pdfrwt>
<totfact> 0.31324992E+05</totfact>
</mgrwt>
</event>
<event>
 8    1  0.2813699E-020  0.7918349E+02  0.7818608E-02  0.1331385E+00
         -1   -1    0    0    0  501 -0.00000000000E+00  0.00000000000E+00  0.11500650884E+02  0.11500651988E+02  0.50400000000E-02 0.  1.
          2   -1    0    0  501    0  0.00000000000E+00 -0.00000000000E+00 -0.13629715477E+03  0.13629715480E+03  0.25500000000E-02 0. -1.
         24    2    1    2    0    0  0.00000000000E+00  0.00000000000E+00 -0.12479650389E+03  0.14779780678E+03  0.79183485068E+02 0.  0.
         66    2    3    3    0    0  0.17619139582E+02  0.17330899322E+02 -0.12011040145E+03  0.12264298874E+03  0.19999999204E+01 0.  0.
        -13    1    3    3    0    0 -0.17619139582E+02 -0.17330899322E+02 -0.46861024429E+01  0.25154818048E+02  0.10566000000E+00 0.  1.
         13    1    4    4    0    0  0.15085576178E+00  0.31884235749E+00 -0.19985683037E+01  0.20322050117E+01  0.10566000000E+00 0.  1.
        -13    1    4    4    0    0  0.13057560285E+01  0.10004384137E+01 -0.94682033908E+01  0.96106147208E+01  0.10566000000E+00 0.  1.
         14    1    4    4    0    0  0.16162527792E+02  0.16011618551E+02 -0.10864362975E+03  0.11100016900E+03  0.00000000000E+00 0. -1.
<mgrwt>
<rscale>  0 0.79183485E+02</rscale>
<asrwt>0</asrwt>
<pdfrwt beam="1">  1        2 0.20968792E-01 0.79183485E+02</pdfrwt>
<pdfrwt beam="2">  1       -1 0.17693311E-02 0.79183485E+02</pdfrwt>
<totfact> 0.19966772E+05</totfact>
</mgrwt>
</event>
<event>
 8    1  0.2676873E-020  0.7902910E+02  0.7818608E-02  0.1331829E+00
         -1   -1    0    0    0  501 -0.00000000000E+00  0.00000000000E+00  0.95203714511E+01  0.95203727852E+01  0.50400000000E-02 0.  1.
          2   -1    0    0  501    0  0.00000000000E+00 -0.00000000000E+00 -0.16400616386E+03  0.16400616388E+03  0.25500000000E-02 0. -1.
         24    2    1    2    0    0  0.00000000000E+00  0.00000000000E+00 -0.15448579240E+03  0.17352653666E+03  0.79029101416E+02 0.  0.
         66    2    3    3    0    0  0.33050745444E+01  0.17970981340E+02 -0.15415891941E+03  0.15525093276E+03  0.20000003195E+01 0.  0.
        -13    1    3    3    0    0 -0.33050745444E+01 -0.17970981340E+02 -0.32687299813E+00  0.18275603904E+02  0.10566000000E+00 0.  1.
         13    1    4    4    0    0  0.14945788142E+01  0.71432231065E+01 -0.68512397573E+02  0.68900066672E+02  0.10566000000E+00 0. -1.
        -13    1    4    4    0    0  0.18620463610E+01  0.10254899858E+02 -0.81859016107E+02  0.82519936196E+02  0.10566000000E+00 0.  1.
        -14    1    4    4    0    0 -0.51550630859E-01  0.57285837478E+00 -0.37875057267E+01  0.38309298891E+01  0.00000000000E+00 0.  1.
<mgrwt>
<rscale>  0 0.79029101E+02</rscale>
<asrwt>0</asrwt>
<pdfrwt beam="1">  1        2 0.25231716E-01 0.79029101E+02</pdfrwt>
<pdfrwt beam="2">  1       -1 0.14646728E-02 0.79029101E+02</pdfrwt>
<totfact> 0.21299540E+05</totfact>
</mgrwt>
</event>
<event>
 8    1  0.2676873E-020  0.7860292E+02  0.7818608E-02  0.1333064E+00
          2   -1    0    0  501    0  0.00000000000E+00  0.00000000000E+00  0.69360899001E+01  0.69360903689E+01  0.25500000000E-02 0. -1.
         -1   -1    0    0    0  501 -0.00000000000E+00 -0.00000000000E+00 -0.22269100441E+03  0.22269100447E+03  0.50400000000E-02 0.  1.
         24    2    1    2    0    0  0.35527136788E-14  0.00000000000E+00 -0.21575491451E+03  0.22962709484E+03  0.78602923277E+02 0.  0.
         66    2    3    3    0    0  0.26684453718E+02  0.17187304860E+02 -0.40367336374E+02  0.51390518211E+02  0.19999993720E+01 0.  0.
        -13    1    3    3    0    0 -0.26684453718E+02 -0.17187304860E+02 -0.17538757814E+03  0.17823657663E+03  0.10566000000E+00 0.  1.
         13    1    4    4    0    0  0.48082904265E+01  0.32463208173E+01 -0.66477301644E+01  0.88239297396E+01  0.10566000000E+00 0. -1.
        -13    1    4    4    0    0  0.40291387390E+01  0.21343419799E+01 -0.65636388575E+01  0.79926149508E+01  0.10566000000E+00 0.  1.
        -14    1    4    4    0    0  0.17847024553E+02  0.11806642062E+02 -0.27155967352E+02  0.34573973521E+02  0.00000000000E+00 0.  1.
<mgrwt>
<rscale>  0 0.78602923E+02</rscale>
<asrwt>0</asrwt>
<pdfrwt beam="1">  1        2 0.10670910E-02 0.78602923E+02</pdfrwt>
<pdfrwt beam="2">  1       -1 0.34260149E-01 0.78602923E+02</pdfrwt>
<totfact> 0.10072920E+05</totfact>
</mgrwt>
</event>
<event>
 8    1  0.2676873E-020  0.8658857E+02  0.7818608E-02  0.1311330E+00
          2   -1    0    0  501    0  0.00000000000E+00  0.00000000000E+00  0.11053511410E+04  0.11053511410E+04  0.25500000000E-02 0. -1.
         -1   -1    0    0    0  501 -0.00000000000E+00 -0.00000000000E+00 -0.16957426221E+01  0.16957501119E+01  0.50400000000E-02 0.  1.
         24    2    1    2    0    0  0.00000000000E+00  0.00000000000E+00  0.11036553984E+04  0.11070468911E+04  0.86588571752E+02 0.  0.
         66    2    3    3    0    0  0.63260128298E+01  0.19340407046E+02  0.10403596524E+04  0.10405605586E+04  0.20000184853E+01 0.  0.
        -13    1    3    3    0    0 -0.63260128298E+01 -0.19340407046E+02  0.63295745998E+02  0.66486332494E+02  0.10566000000E+00 0.  1.
         13    1    4    4    0    0  0.40798296365E+01  0.11058469588E+02  0.59599027752E+03  0.59610683340E+03  0.10566000000E+00 0. -1.
        -13    1    4    4    0    0  0.11213470010E+01  0.21817333975E+01  0.12430677230E+03  0.12433101859E+03  0.10566000000E+00 0.  1.
         14    1    4    4    0    0  0.11248361923E+01  0.61002040607E+01  0.32006260254E+03  0.32012270661E+03  0.00000000000E+00 0. -1.
<mgrwt>
<rscale>  0 0.86588572E+02</rscale>
<asrwt>0</asrwt>
<pdfrwt beam="1">  1        2 0.17005330E+00 0.86588572E+02</pdfrwt>
<pdfrwt beam="2">  1       -1 0.26088516E-03 0.86588572E+02</pdfrwt>
<totfact> 0.28675962E+05</totfact>
</mgrwt>
</event>
<event>
 8    1  0.2676873E-020  0.8213254E+02  0.7818608E-02  0.1323106E+00
         -1   -1    0    0    0  501 -0.00000000000E+00  0.00000000000E+00  0.12304407724E+02  0.12304408756E+02  0.50400000000E-02 0.  1.
          2   -1    0    0  501    0  0.00000000000E+00 -0.00000000000E+00 -0.13705969054E+03  0.13705969056E+03  0.25500000000E-02 0. -1.
         24    2    1    2    0    0  0.00000000000E+00  0.00000000000E+00 -0.12475528282E+03  0.14936409932E+03  0.82132536640E+02 0.  0.
         66    2    3    3    0    0  0.70445818821E+01 -0.24639863426E+02 -0.12071349433E+03  0.12342000131E+03  0.20000012920E+01 0.  0.
        -13    1    3    3    0    0 -0.70445818821E+01  0.24639863426E+02 -0.40417884857E+01  0.25944098014E+02  0.10566000000E+00 0.  1.
         13    1    4    4    0    0  0.49199001451E+01 -0.17939388184E+02 -0.90171875387E+02  0.92070654069E+02  0.10566000000E+00 0. -1.
        -13    1    4    4    0    0  0.85923698392E+00 -0.16967988260E+01 -0.77546085321E+01  0.79851444553E+01  0.10566000000E+00 0.  1.
         14    1    4    4    0    0  0.12654447531E+01 -0.50036764164E+01 -0.22787010411E+02  0.23364202781E+02  0.00000000000E+00 0. -1.
<mgrwt>
<rscale>  0 0.82132537E+02</rscale>
<asrwt>0</asrwt>
<pdfrwt beam="1">  1        2 0.21086105E-01 0.82132537E+02</pdfrwt>
<pdfrwt beam="2">  1       -1 0.18929860E-02 0.82132537E+02</pdfrwt>
<totfact> 0.18147157E+05</totfact>
</mgrwt>
</event>
<event>
 8    1  0.2676873E-020  0.8532492E+02  0.7818608E-02  0.1314585E+00
         -1   -1    0    0    0  501 -0.00000000000E+00  0.00000000000E+00  0.16846960254E+01  0.16847035643E+01  0.50400000000E-02 0.  1.
          2   -1    0    0  501    0  0.00000000000E+00 -0.00000000000E+00 -0.10803618363E+04  0.10803618363E+04  0.25500000000E-02 0. -1.
         24    2    1    2    0    0  0.00000000000E+00  0.00000000000E+00 -0.10786771403E+04  0.10820465399E+04  0.85324917157E+02 0.  0.
         66    2    3    3    0    0  0.15818136567E+02  0.27922052993E+02 -0.89567128936E+03  0.89624824300E+03  0.19999999934E+01 0.  0.
        -13    1    3    3    0    0 -0.15818136567E+02 -0.27922052993E+02 -0.18300585094E+03  0.18579829690E+03  0.10566000000E+00 0.  1.
         13    1    4    4    0    0  0.10205805313E+02  0.18313428779E+02 -0.58429641232E+03  0.58467242859E+03  0.10566000000E+00 0. -1.
        -13    1    4    4    0    0  0.69922932472E+00  0.88617960023E+00 -0.40979116607E+02  0.40994797205E+02  0.10566000000E+00 0.  1.
        -14    1    4    4    0    0  0.49131019290E+01  0.87224446138E+01 -0.27039576044E+03  0.27058101721E+03  0.00000000000E+00 0.  1.
<mgrwt>
<rscale>  0 0.85324917E+02</rscale>
<asrwt>0</asrwt>
<pdfrwt beam="1">  1        2 0.16620896E+00 0.85324917E+02</pdfrwt>
<pdfrwt beam="2">  1       -1 0.25918545E-03 0.85324917E+02</pdfrwt>
<totfact> 0.29817863E+05</totfact>
</mgrwt>
</event>
<event>
 8    1  0.2676873E-020  0.7974603E+02  0.7818608E-02  0.1329774E+00
         -1   -1    0    0    0  501 -0.00000000000E+00  0.00000000000E+00  0.25630871383E+01  0.25630920936E+01  0.50400000000E-02 0.  1.
          2   -1    0    0  501    0  0.00000000000E+00 -0.00000000000E+00 -0.62028944156E+03  0.62028944156E+03  0.25500000000E-02 0. -1.
         24    2    1    2    0    0  0.00000000000E+00  0.00000000000E+00 -0.61772635442E+03  0.62285253366E+03  0.79746032742E+02 0.  0.
         66    2    3    3    0    0 -0.33045038722E+02 -0.19028653093E+02 -0.39939795812E+03  0.40121913361E+03  0.19999998593E+01 0.  0.
        -13    1    3    3    0    0  0.33045038722E+02  0.19028653093E+02 -0.21832839630E+03  0.22163340005E+03  0.10566000000E+00 0.  1.
         13    1    4    4    0    0 -0.41510924477E+01 -0.22052587915E+01 -0.46969647103E+02  0.47204381659E+02  0.10566000000E+00 0.  1.
        -13    1    4    4    0    0 -0.12076363222E+02 -0.74755272451E+01 -0.15750201181E+03  0.15814112984E+03  0.10566000000E+00 0.  1.
         14    1    4    4    0    0 -0.16817583053E+02 -0.93478670565E+01 -0.19492629920E+03  0.19587362211E+03  0.00000000000E+00 0. -1.
<mgrwt>
<rscale>  0 0.79746033E+02</rscale>
<asrwt>0</asrwt>
<pdfrwt beam="1">  1        2 0.95429025E-01 0.79746033E+02</pdfrwt>
<pdfrwt beam="2">  1       -1 0.39432198E-03 0.79746033E+02</pdfrwt>
<totfact> 0.32727064E+05</totfact>
</mgrwt>
</event>
<event>
 8    1  0.2676873E-020  0.7903446E+02  0.7818608E-02  0.1331814E+00
         -1   -1    0    0    0  501 -0.00000000000E+00  0.00000000000E+00  0.10945017228E+03  0.10945017240E+03  0.50400000000E-02 0.  1.
          2   -1    0    0  501    0  0.00000000000E+00 -0.00000000000E+00 -0.14267782521E+02  0.14267782749E+02  0.25500000000E-02 0. -1.
         24    2    1    2    0    0  0.35527136788E-14  0.71054273576E-14  0.95182389763E+02  0.12371795515E+03  0.79034455179E+02 0.  0.
         66    2    3    3    0    0 -0.19372509438E+02 -0.26459721831E+02  0.13176555549E+02  0.35398200788E+02  0.20000003918E+01 0.  0.
        -13    1    3    3    0    0  0.19372509438E+02  0.26459721831E+02  0.82005834215E+02  0.88319754362E+02  0.10566000000E+00 0.  1.
         13    1    4    4    0    0 -0.70483366456E+01 -0.93785944749E+01  0.43106837825E+01  0.12499209675E+02  0.10566000000E+00 0. -1.
        -13    1    4    4    0    0 -0.71422447045E+01 -0.86923981741E+01  0.45658145359E+01  0.12141963262E+02  0.10566000000E+00 0.  1.
         14    1    4    4    0    0 -0.51819280877E+01 -0.83887291823E+01  0.43000572302E+01  0.10757027851E+02  0.00000000000E+00 0. -1.
<mgrwt>
<rscale>  0 0.79034455E+02</rscale>
<asrwt>0</asrwt>
<pdfrwt beam="1">  1        2 0.21950435E-02 0.79034455E+02</pdfrwt>
<pdfrwt beam="2">  1       -1 0.16838488E-01 0.79034455E+02</pdfrwt>
<totfact> 0.11980927E+05</totfact>
</mgrwt>
</event>
<event>
 8    1  0.2676873E-020  0.8027766E+02  0.7818608E-02  0.1328265E+00
          2   -1    0    0  501    0  0.00000000000E+00  0.00000000000E+00  0.25843917349E+03  0.25843917351E+03  0.25500000000E-02 0. -1.
         -1   -1    0    0    0  501 -0.00000000000E+00 -0.00000000000E+00 -0.62340600292E+01  0.62340620665E+01  0.50400000000E-02 0.  1.
         24    2    1    2    0    0  0.00000000000E+00  0.00000000000E+00  0.25220511346E+03  0.26467323557E+03  0.80277657981E+02 0.  0.
         66    2    3    3    0    0  0.36877368199E+02  0.10829906086E+01  0.74259049696E+02  0.82942869567E+02  0.19999990653E+01 0.  0.
        -13    1    3    3    0    0 -0.36877368199E+02 -0.10829906086E+01  0.17794606377E+03  0.18173036601E+03  0.10566000000E+00 0.  1.
         13    1    4    4    0    0  0.20777137322E+02  0.60345916524E+00  0.41076689751E+02  0.46036498598E+02  0.10566000000E+00 0. -1.
        -13    1    4    4    0    0  0.77839252499E+00  0.10086131585E+00  0.11519896799E+01  0.13979671621E+01  0.10566000000E+00 0.  1.
         14    1    4    4    0    0  0.15321838352E+02  0.37867012753E+00  0.32030370265E+02  0.35508403806E+02  0.00000000000E+00 0. -1.
<mgrwt>
<rscale>  0 0.80277658E+02</rscale>
<asrwt>0</asrwt>
<pdfrwt beam="1">  1        2 0.39759869E-01 0.80277658E+02</pdfrwt>
<pdfrwt beam="2">  1       -1 0.95908641E-03 0.80277658E+02</pdfrwt>
<totfact> 0.23935736E+05</totfact>
</mgrwt>
</event>
<event>
 8    1  0.2676873E-020  0.8013596E+02  0.7818608E-02  0.1328666E+00
         -1   -1    0    0    0  501 -0.00000000000E+00  0.00000000000E+00  0.20051370005E+02  0.20051370638E+02  0.50400000000E-02 0.  1.
          2   -1    0    0  501    0  0.00000000000E+00 -0.00000000000E+00 -0.80066494375E+02  0.80066494415E+02  0.25500000000E-02 0. -1.
         24    2    1    2    0    0  0.00000000000E+00  0.00000000000E+00 -0.60015124370E+02  0.10011786505E+03  0.80135957907E+02 0.  0.
         66    2    3    3    0    0 -0.29625841370E+02  0.23708108096E+02 -0.46009735299E+02  0.59671271211E+02  0.19999997971E+01 0.  0.
        -13    1    3    3    0    0  0.29625841370E+02 -0.23708108096E+02 -0.14005389071E+02  0.40446593843E+02  0.10566000000E+00 0.  1.
         13    1    4    4    0    0 -0.11879100911E+02  0.98769777137E+01 -0.17944892655E+02  0.23679063825E+02  0.10566000000E+00 0. -1.
        -13    1    4    4    0    0 -0.77022877959E+01  0.54911091063E+01 -0.11063619757E+02  0.14556523028E+02  0.10566000000E+00 0.  1.
         14    1    4    4    0    0 -0.10044452664E+02  0.83400212762E+01 -0.17001222887E+02  0.21435684357E+02  0.00000000000E+00 0. -1.
<mgrwt>
<rscale>  0 0.80135958E+02</rscale>
<asrwt>0</asrwt>
<pdfrwt beam="1">  1        2 0.12317922E-01 0.80135958E+02</pdfrwt>
<pdfrwt beam="2">  1       -1 0.30848262E-02 0.80135958E+02</pdfrwt>
<totfact> 0.16622940E+05</totfact>
</mgrwt>
</event>
<event>
 8    1  0.2676873E-020  0.7958077E+02  0.7818608E-02  0.1330245E+00
          2   -1    0    0  501    0  0.00000000000E+00  0.00000000000E+00  0.34082712375E+02  0.34082712470E+02  0.25500000000E-02 0. -1.
         -1   -1    0    0    0  501 -0.00000000000E+00 -0.00000000000E+00 -0.46453892988E+02  0.46453893261E+02  0.50400000000E-02 0.  1.
         24    2    1    2    0    0 -0.35527136788E-14  0.35527136788E-14 -0.12371180613E+02  0.80536605731E+02  0.79580768738E+02 0.  0.
         66    2    3    3    0    0 -0.31191796955E+02  0.24603848487E+02 -0.44389254095E+01  0.40024763089E+02  0.20000109697E+01 0.  0.
        -13    1    3    3    0    0  0.31191796955E+02 -0.24603848487E+02 -0.79322552037E+01  0.40511842642E+02  0.10566000000E+00 0.  1.
         13    1    4    4    0    0 -0.17362400658E+02  0.14663385827E+02 -0.25018907203E+01  0.22863474402E+02  0.10566000000E+00 0. -1.
        -13    1    4    4    0    0 -0.37179584086E+00  0.20902320152E+00  0.13816834021E-01  0.43963369588E+00  0.10566000000E+00 0.  1.
         14    1    4    4    0    0 -0.13457600456E+02  0.97314394579E+01 -0.19508515232E+01  0.16721654991E+02  0.00000000000E+00 0. -1.
<mgrwt>
<rscale>  0 0.79580769E+02</rscale>
<asrwt>0</asrwt>
<pdfrwt beam="1">  1        2 0.52434942E-02 0.79580769E+02</pdfrwt>
<pdfrwt beam="2">  1       -1 0.71467528E-02 0.79580769E+02</pdfrwt>
<totfact> 0.14003730E+05</totfact>
</mgrwt>
</event>
<event>
 8    1  0.2676873E-020  0.8041465E+02  0.7818608E-02  0.1327879E+00
         -1   -1    0    0    0  501 -0.00000000000E+00  0.00000000000E+00  0.37863294996E+01  0.37863328540E+01  0.50400000000E-02 0.  1.
          2   -1    0    0  501    0  0.00000000000E+00 -0.00000000000E+00 -0.42696447083E+03  0.42696447084E+03  0.25500000000E-02 0. -1.
         24    2    1    2    0    0  0.00000000000E+00  0.00000000000E+00 -0.42317814133E+03  0.43075080369E+03  0.80414647802E+02 0.  0.
         66    2    3    3    0    0 -0.17441137288E+02  0.16936313858E+02 -0.38309730764E+03  0.38387312894E+03  0.20000004116E+01 0.  0.
        -13    1    3    3    0    0  0.17441137288E+02 -0.16936313858E+02 -0.40080833685E+02  0.46877674749E+02  0.10566000000E+00 0.  1.
         13    1    4    4    0    0 -0.93552053683E+01  0.91907087794E+01 -0.21382944068E+03  0.21423125323E+03  0.10566000000E+00 0. -1.
        -13    1    4    4    0    0 -0.27388062132E+00  0.25748214487E+00 -0.36407056982E+01  0.36615856764E+01  0.10566000000E+00 0.  1.
        -14    1    4    4    0    0 -0.78120512986E+01  0.74881229333E+01 -0.16562716127E+03  0.16598029003E+03  0.00000000000E+00 0.  1.
<mgrwt>
<rscale>  0 0.80414648E+02</rscale>
<asrwt>0</asrwt>
<pdfrwt beam="1">  1        2 0.65686804E-01 0.80414648E+02</pdfrwt>
<pdfrwt beam="2">  1       -1 0.58251283E-03 0.80414648E+02</pdfrwt>
<totfact> 0.28511404E+05</totfact>
</mgrwt>
</event>
<event>
 8    1  0.2676873E-020  0.8004373E+02  0.7818608E-02  0.1328927E+00
          2   -1    0    0  501    0  0.00000000000E+00  0.00000000000E+00  0.37592833122E+03  0.37592833122E+03  0.25500000000E-02 0. -1.
         -1   -1    0    0    0  501 -0.00000000000E+00 -0.00000000000E+00 -0.42607834604E+01  0.42607864412E+01  0.50400000000E-02 0.  1.
         24    2    1    2    0    0  0.00000000000E+00  0.00000000000E+00  0.37166754775E+03  0.38018911767E+03  0.80043732652E+02 0.  0.
         66    2    3    3    0    0 -0.25229886646E+02  0.30755696749E+02  0.16620233839E+03  0.17090838877E+03  0.20000008918E+01 0.  0.
        -13    1    3    3    0    0  0.25229886646E+02 -0.30755696749E+02  0.20546520937E+03  0.20928072890E+03  0.10566000000E+00 0.  1.
         13    1    4    4    0    0 -0.11444867462E+02  0.13636098361E+02  0.75324772039E+02  0.77400003982E+02  0.10566000000E+00 0.  1.
        -13    1    4    4    0    0 -0.10787680412E+02  0.12565375046E+02  0.69644168071E+02  0.71586199851E+02  0.10566000000E+00 0. -1.
        -14    1    4    4    0    0 -0.29973387720E+01  0.45542233425E+01  0.21233398276E+02  0.21922184935E+02  0.00000000000E+00 0.  1.
<mgrwt>
<rscale>  0 0.80043733E+02</rscale>
<asrwt>0</asrwt>
<pdfrwt beam="1">  1        2 0.57835144E-01 0.80043733E+02</pdfrwt>
<pdfrwt beam="2">  1       -1 0.65550520E-03 0.80043733E+02</pdfrwt>
<totfact> 0.27603128E+05</totfact>
</mgrwt>
</event>
<event>
 8    1  0.2676873E-020  0.7661877E+02  0.7818608E-02  0.1338930E+00
         -1   -1    0    0    0  501 -0.00000000000E+00  0.00000000000E+00  0.40997796816E+01  0.40997827796E+01  0.50400000000E-02 0.  1.
          2   -1    0    0  501    0  0.00000000000E+00 -0.00000000000E+00 -0.35797248415E+03  0.35797248416E+03  0.25500000000E-02 0. -1.
         24    2    1    2    0    0  0.00000000000E+00  0.71054273576E-14 -0.35387270447E+03  0.36207226694E+03  0.76618767403E+02 0.  0.
         66    2    3    3    0    0 -0.18902166045E+02  0.33131882651E+02 -0.16167796026E+03  0.16612879449E+03  0.19999990648E+01 0.  0.
        -13    1    3    3    0    0  0.18902166045E+02 -0.33131882651E+02 -0.19219474421E+03  0.19594347244E+03  0.10566000000E+00 0.  1.
         13    1    4    4    0    0 -0.58076015523E+01  0.10295128662E+02 -0.52055821370E+02  0.53381060429E+02  0.10566000000E+00 0. -1.
        -13    1    4    4    0    0 -0.10504101233E+02  0.18451940238E+02 -0.85919736725E+02  0.88504364662E+02  0.10566000000E+00 0.  1.
         14    1    4    4    0    0 -0.25904632603E+01  0.43848137500E+01 -0.23702402167E+02  0.24243369403E+02  0.00000000000E+00 0. -1.
<mgrwt>
<rscale>  0 0.76618767E+02</rscale>
<asrwt>0</asrwt>
<pdfrwt beam="1">  1        2 0.55072665E-01 0.76618767E+02</pdfrwt>
<pdfrwt beam="2">  1       -1 0.63073586E-03 0.76618767E+02</pdfrwt>
<totfact> 0.30408201E+05</totfact>
</mgrwt>
</event>
<event>
 8    1  0.2676873E-020  0.7835195E+02  0.7818608E-02  0.1333795E+00
          2   -1    0    0  501    0  0.00000000000E+00  0.00000000000E+00  0.37997574459E+03  0.37997574460E+03  0.25500000000E-02 0. -1.
         -1   -1    0    0    0  501 -0.00000000000E+00 -0.00000000000E+00 -0.40390900979E+01  0.40390932424E+01  0.50400000000E-02 0.  1.
         24    2    1    2    0    0  0.00000000000E+00  0.00000000000E+00  0.37593665450E+03  0.38401483784E+03  0.78351946315E+02 0.  0.
         66    2    3    3    0    0 -0.20227886983E+02  0.14139362326E+02  0.33704542354E+03  0.33795370468E+03  0.20000004227E+01 0.  0.
        -13    1    3    3    0    0  0.20227886983E+02 -0.14139362326E+02  0.38891230958E+02  0.46061133163E+02  0.10566000000E+00 0.  1.
         13    1    4    4    0    0 -0.77428879502E+01  0.52032355624E+01  0.13346021497E+03  0.13378589656E+03  0.10566000000E+00 0. -1.
        -13    1    4    4    0    0 -0.39077641316E+01  0.21242118980E+01  0.55420601438E+02  0.55598894994E+02  0.10566000000E+00 0.  1.
         14    1    4    4    0    0 -0.85772349011E+01  0.68119148651E+01  0.14816460713E+03  0.14856891313E+03  0.00000000000E+00 0. -1.
<mgrwt>
<rscale>  0 0.78351946E+02</rscale>
<asrwt>0</asrwt>
<pdfrwt beam="1">  1        2 0.58457813E-01 0.78351946E+02</pdfrwt>
<pdfrwt beam="2">  1       -1 0.62139866E-03 0.78351946E+02</pdfrwt>
<totfact> 0.29297552E+05</totfact>
</mgrwt>
</event>
<event>
 8    1  0.2676873E-020  0.8006919E+02  0.7818608E-02  0.1328855E+00
         -1   -1    0    0    0  501 -0.00000000000E+00  0.00000000000E+00  0.58525759576E+01  0.58525781277E+01  0.50400000000E-02 0.  1.
          2   -1    0    0  501    0  0.00000000000E+00 -0.00000000000E+00 -0.27385694939E+03  0.27385694940E+03  0.25500000000E-02 0. -1.
         24    2    1    2    0    0  0.35527136788E-14  0.00000000000E+00 -0.26800437343E+03  0.27970952753E+03  0.80069192652E+02 0.  0.
         66    2    3    3    0    0 -0.18492455093E+02 -0.25489442471E+02 -0.22029989192E+03  0.22254825311E+03  0.20000024307E+01 0.  0.
        -13    1    3    3    0    0  0.18492455093E+02  0.25489442471E+02 -0.47704481513E+02  0.57161274419E+02  0.10566000000E+00 0.  1.
         13    1    4    4    0    0 -0.69877515902E+01 -0.10320734768E+02 -0.85084914689E+02  0.85993023613E+02  0.10566000000E+00 0. -1.
        -13    1    4    4    0    0 -0.40742103938E+01 -0.43987434268E+01 -0.43797958404E+02  0.44206565785E+02  0.10566000000E+00 0. -1.
        -14    1    4    4    0    0 -0.74304931089E+01 -0.10769964276E+02 -0.91417018829E+02  0.92348663715E+02  0.00000000000E+00 0.  1.
<mgrwt>
<rscale>  0 0.80069193E+02</rscale>
<asrwt>0</asrwt>
<pdfrwt beam="1">  1        2 0.42131829E-01 0.80069193E+02</pdfrwt>
<pdfrwt beam="2">  1       -1 0.90039668E-03 0.80069193E+02</pdfrwt>
<totfact> 0.24610268E+05</totfact>
</mgrwt>
</event>
<event>
 8    1  0.2676873E-020  0.8499283E+02  0.7818608E-02  0.1315451E+00
          2   -1    0    0  501    0  0.00000000000E+00  0.00000000000E+00  0.94977368200E+02  0.94977368234E+02  0.25500000000E-02 0. -1.
         -1   -1    0    0    0  501 -0.00000000000E+00 -0.00000000000E+00 -0.19014480439E+02  0.19014481107E+02  0.50400000000E-02 0.  1.
         24    2    1    2    0    0  0.35527136788E-14  0.35527136788E-14  0.75962887761E+02  0.11399184934E+03  0.84992831458E+02 0.  0.
         66    2    3    3    0    0  0.17948671030E+02 -0.25926553704E+02  0.76164016645E+02  0.82457858227E+02  0.19999933095E+01 0.  0.
        -13    1    3    3    0    0 -0.17948671030E+02  0.25926553704E+02 -0.20112888361E+00  0.31533991114E+02  0.10566000000E+00 0.  1.
         13    1    4    4    0    0  0.11009288508E+02 -0.17335307591E+02  0.49575910930E+02  0.53660967484E+02  0.10566000000E+00 0. -1.
        -13    1    4    4    0    0  0.39408031960E+00 -0.36656720502E+00  0.12488708128E+01  0.13640062891E+01  0.10566000000E+00 0.  1.
         14    1    4    4    0    0  0.65453022027E+01 -0.82246789078E+01  0.25339234901E+02  0.27432884454E+02  0.00000000000E+00 0. -1.
<mgrwt>
<rscale>  0 0.84992831E+02</rscale>
<asrwt>0</asrwt>
<pdfrwt beam="1">  1        2 0.14611903E-01 0.84992831E+02</pdfrwt>
<pdfrwt beam="2">  1       -1 0.29253047E-02 0.84992831E+02</pdfrwt>
<totfact> 0.14846241E+05</totfact>
</mgrwt>
</event>
<event>
 8    1  0.2676873E-020  0.8196088E+02  0.7818608E-02  0.1323577E+00
         -1   -1    0    0    0  501 -0.00000000000E+00  0.00000000000E+00  0.41600444083E+01  0.41600474614E+01  0.50400000000E-02 0.  1.
          2   -1    0    0  501    0  0.00000000000E+00 -0.00000000000E+00 -0.40369662686E+03  0.40369662687E+03  0.25500000000E-02 0. -1.
         24    2    1    2    0    0  0.00000000000E+00  0.00000000000E+00 -0.39953658245E+03  0.40785667433E+03  0.81960881388E+02 0.  0.
         66    2    3    3    0    0  0.26831850353E+02  0.72085170551E+01 -0.34962784413E+03  0.35073571288E+03  0.19999975379E+01 0.  0.
        -13    1    3    3    0    0 -0.26831850353E+02 -0.72085170551E+01 -0.49908738324E+02  0.57120961448E+02  0.10566000000E+00 0.  1.
         13    1    4    4    0    0  0.41537033415E+01  0.74155367362E+00 -0.50583615330E+02  0.50759397723E+02  0.10566000000E+00 0.  1.
        -13    1    4    4    0    0  0.19080275768E+02  0.59949900766E+01 -0.25366177073E+03  0.25444901635E+03  0.10566000000E+00 0. -1.
         14    1    4    4    0    0  0.35978712437E+01  0.47197330489E+00 -0.45382458071E+02  0.45527298809E+02  0.00000000000E+00 0. -1.
<mgrwt>
<rscale>  0 0.81960881E+02</rscale>
<asrwt>0</asrwt>
<pdfrwt beam="1">  1        2 0.62107142E-01 0.81960881E+02</pdfrwt>
<pdfrwt beam="2">  1       -1 0.64000739E-03 0.81960881E+02</pdfrwt>
<totfact> 0.26605239E+05</totfact>
</mgrwt>
</event>
<event>
 8    1  0.2676873E-020  0.8961356E+02  0.7818608E-02  0.1303790E+00
          2   -1    0    0  501    0  0.00000000000E+00  0.00000000000E+00  0.17097384619E+03  0.17097384621E+03  0.25500000000E-02 0. -1.
         -1   -1    0    0    0  501 -0.00000000000E+00 -0.00000000000E+00 -0.11742425105E+02  0.11742426186E+02  0.50400000000E-02 0.  1.
         24    2    1    2    0    0  0.00000000000E+00  0.00000000000E+00  0.15923142108E+03  0.18271627239E+03  0.89613563355E+02 0.  0.
         66    2    3    3    0    0  0.43247874152E+02  0.45118032696E+01  0.10151161813E+03  0.11045063876E+03  0.19999999311E+01 0.  0.
        -13    1    3    3    0    0 -0.43247874152E+02 -0.45118032696E+01  0.57719802953E+02  0.72265633633E+02  0.10566000000E+00 0.  1.
         13    1    4    4    0    0  0.12095830721E+02  0.15984953621E+01  0.29382896047E+02  0.31815563054E+02  0.10566000000E+00 0. -1.
        -13    1    4    4    0    0  0.30978474394E+01  0.85958639021E-01  0.62957255966E+01  0.70179322074E+01  0.10566000000E+00 0.  1.
        -14    1    4    4    0    0  0.28054195991E+02  0.28273492685E+01  0.65832996485E+02  0.71617143498E+02  0.00000000000E+00 0.  1.
<mgrwt>
<rscale>  0 0.89613563E+02</rscale>
<asrwt>0</asrwt>
<pdfrwt beam="1">  1        2 0.26303668E-01 0.89613563E+02</pdfrwt>
<pdfrwt beam="2">  1       -1 0.18065271E-02 0.89613563E+02</pdfrwt>
<totfact> 0.15456540E+05</totfact>
</mgrwt>
</event>
<event>
 8    1  0.2676873E-020  0.8076416E+02  0.7818608E-02  0.1326897E+00
         -1   -1    0    0    0  501 -0.00000000000E+00  0.00000000000E+00  0.32953390665E+01  0.32953429207E+01  0.50400000000E-02 0.  1.
          2   -1    0    0  501    0  0.00000000000E+00 -0.00000000000E+00 -0.49485389604E+03  0.49485389604E+03  0.25500000000E-02 0. -1.
         24    2    1    2    0    0 -0.71054273576E-14  0.00000000000E+00 -0.49155855697E+03  0.49814923896E+03  0.80764158819E+02 0.  0.
         66    2    3    3    0    0  0.37617416441E+02 -0.11490960696E+02 -0.30164468995E+03  0.30420491641E+03  0.20000000498E+01 0.  0.
        -13    1    3    3    0    0 -0.37617416441E+02  0.11490960696E+02 -0.18991386702E+03  0.19394432255E+03  0.10566000000E+00 0.  1.
         13    1    4    4    0    0  0.33052209079E+01 -0.93260292310E+00 -0.27276081493E+02  0.27491635439E+02  0.10566000000E+00 0. -1.
        -13    1    4    4    0    0  0.21856154147E+02 -0.74785779544E+01 -0.18009752864E+03  0.18157299245E+03  0.10566000000E+00 0.  1.
        -14    1    4    4    0    0  0.12456041386E+02 -0.30797798187E+01 -0.94271079816E+02  0.95140288524E+02  0.00000000000E+00 0.  1.
<mgrwt>
<rscale>  0 0.80764159E+02</rscale>
<asrwt>0</asrwt>
<pdfrwt beam="1">  1        2 0.76131310E-01 0.80764159E+02</pdfrwt>
<pdfrwt beam="2">  1       -1 0.50697593E-03 0.80764159E+02</pdfrwt>
<totfact> 0.29607659E+05</totfact>
</mgrwt>
</event>
<event>
 8    1  0.2676873E-020  0.7931061E+02  0.7818608E-02  0.1331019E+00
          2   -1    0    0  501    0  0.00000000000E+00  0.00000000000E+00  0.39581841162E+03  0.39581841163E+03  0.25500000000E-02 0. -1.
         -1   -1    0    0    0  501 -0.00000000000E+00 -0.00000000000E+00 -0.39728888327E+01  0.39728920295E+01  0.50400000000E-02 0.  1.
         24    2    1    2    0    0  0.00000000000E+00  0.17763568394E-14  0.39184552279E+03  0.39979130366E+03  0.79310609328E+02 0.  0.
         66    2    3    3    0    0  0.37944861236E+02 -0.85335446238E+01  0.23440515444E+03  0.23761820284E+03  0.20000042201E+01 0.  0.
        -13    1    3    3    0    0 -0.37944861236E+02  0.85335446238E+01  0.15744036835E+03  0.16217310082E+03  0.10566000000E+00 0.  1.
         13    1    4    4    0    0  0.20483170154E+02 -0.41896526698E+01  0.12430162897E+03  0.12604768771E+03  0.10566000000E+00 0. -1.
        -13    1    4    4    0    0  0.11587565876E+02 -0.31774238294E+01  0.70465735929E+02  0.71482856750E+02  0.10566000000E+00 0.  1.
         14    1    4    4    0    0  0.58741252054E+01 -0.11664681247E+01  0.39637789539E+02  0.40087658379E+02  0.00000000000E+00 0. -1.
<mgrwt>
<rscale>  0 0.79310609E+02</rscale>
<asrwt>0</asrwt>
<pdfrwt beam="1">  1        2 0.60895141E-01 0.79310609E+02</pdfrwt>
<pdfrwt beam="2">  1       -1 0.61121390E-03 0.79310609E+02</pdfrwt>
<totfact> 0.28793335E+05</totfact>
</mgrwt>
</event>
<event>
 8    1  0.2676873E-020  0.7946127E+02  0.7818608E-02  0.1330587E+00
          2   -1    0    0  501    0  0.00000000000E+00  0.00000000000E+00  0.38673005566E+03  0.38673005566E+03  0.25500000000E-02 0. -1.
         -1   -1    0    0    0  501 -0.00000000000E+00 -0.00000000000E+00 -0.40817173234E+01  0.40817204351E+01  0.50400000000E-02 0.  1.
         24    2    1    2    0    0 -0.17763568394E-14  0.44408920985E-15  0.38264833833E+03  0.39081177610E+03  0.79461270499E+02 0.  0.
         66    2    3    3    0    0  0.14367797259E+02  0.21101022660E+01  0.37319696333E+03  0.37348475145E+03  0.20000001198E+01 0.  0.
        -13    1    3    3    0    0 -0.14367797259E+02 -0.21101022660E+01  0.94513750066E+01  0.17327024649E+02  0.10566000000E+00 0.  1.
         13    1    4    4    0    0  0.62720864952E+01  0.97549736925E+00  0.14917651912E+03  0.14931153903E+03  0.10566000000E+00 0. -1.
        -13    1    4    4    0    0  0.31104157954E+01  0.93620060481E+00  0.98697266781E+02  0.98750760970E+02  0.10566000000E+00 0.  1.
        -14    1    4    4    0    0  0.49852949682E+01  0.19840429192E+00  0.12532317742E+03  0.12542245146E+03  0.00000000000E+00 0.  1.
<mgrwt>
<rscale>  0 0.79461270E+02</rscale>
<asrwt>0</asrwt>
<pdfrwt beam="1">  1        2 0.59496947E-01 0.79461270E+02</pdfrwt>
<pdfrwt beam="2">  1       -1 0.62795659E-03 0.79461270E+02</pdfrwt>
<totfact> 0.28418158E+05</totfact>
</mgrwt>
</event>
<event>
 8    1  0.2676873E-020  0.8011742E+02  0.7818608E-02  0.1328719E+00
         -1   -1    0    0    0  501 -0.00000000000E+00  0.00000000000E+00  0.57530652520E+01  0.57530674597E+01  0.50400000000E-02 0.  1.
          2   -1    0    0  501    0  0.00000000000E+00 -0.00000000000E+00 -0.27892956263E+03  0.27892956264E+03  0.25500000000E-02 0. -1.
         24    2    1    2    0    0  0.00000000000E+00  0.17763568394E-14 -0.27317649737E+03  0.28468263010E+03  0.80117421087E+02 0.  0.
         66    2    3    3    0    0  0.37018440915E+02 -0.13982665319E+02 -0.15823313842E+03  0.16311838030E+03  0.20000000638E+01 0.  0.
        -13    1    3    3    0    0 -0.37018440915E+02  0.13982665319E+02 -0.11494335896E+03  0.12156424980E+03  0.10566000000E+00 0.  1.
         13    1    4    4    0    0  0.29071252233E+02 -0.10331770943E+02 -0.12179207294E+03  0.12563917937E+03  0.10566000000E+00 0. -1.
        -13    1    4    4    0    0  0.76086804109E+01 -0.34874887637E+01 -0.34395029037E+02  0.35398923457E+02  0.10566000000E+00 0.  1.
         14    1    4    4    0    0  0.33850827016E+00 -0.16340561167E+00 -0.20460364418E+01  0.20802774729E+01  0.00000000000E+00 0. -1.
<mgrwt>
<rscale>  0 0.80117421E+02</rscale>
<asrwt>0</asrwt>
<pdfrwt beam="1">  1        2 0.42912230E-01 0.80117421E+02</pdfrwt>
<pdfrwt beam="2">  1       -1 0.88508736E-03 0.80117421E+02</pdfrwt>
<totfact> 0.24735296E+05</totfact>
</mgrwt>
</event>
<event>
 8    1  0.2676873E-020  0.8009225E+02  0.7818608E-02  0.1328790E+00
          2   -1    0    0  501    0  0.00000000000E+00  0.00000000000E+00  0.28078807957E+02  0.28078808073E+02  0.25500000000E-02 0. -1.
         -1   -1    0    0    0  501 -0.00000000000E+00 -0.00000000000E+00 -0.57113970978E+02  0.57113971201E+02  0.50400000000E-02 0.  1.
         24    2    1    2    0    0  0.35527136788E-14  0.00000000000E+00 -0.29035163022E+02  0.85192779274E+02  0.80092252738E+02 0.  0.
         66    2    3    3    0    0 -0.17914918277E+02 -0.23385165331E+02  0.14288742720E+02  0.32802109998E+02  0.19999993480E+01 0.  0.
        -13    1    3    3    0    0  0.17914918277E+02  0.23385165331E+02 -0.43323905741E+02  0.52390669275E+02  0.10566000000E+00 0.  1.
         13    1    4    4    0    0 -0.42037315206E+01 -0.56407004944E+01  0.30600555311E+01  0.76722854909E+01  0.10566000000E+00 0.  1.
        -13    1    4    4    0    0 -0.49153451526E+01 -0.52974740372E+01  0.40143769239E+01  0.82674201095E+01  0.10566000000E+00 0.  1.
         14    1    4    4    0    0 -0.87958416042E+01 -0.12446990799E+02  0.72143102646E+01  0.16862404398E+02  0.00000000000E+00 0. -1.
<mgrwt>
<rscale>  0 0.80092253E+02</rscale>
<asrwt>0</asrwt>
<pdfrwt beam="1">  1        2 0.43198166E-02 0.80092253E+02</pdfrwt>
<pdfrwt beam="2">  1       -1 0.87867648E-02 0.80092253E+02</pdfrwt>
<totfact> 0.13237894E+05</totfact>
</mgrwt>
</event>
<event>
 8    1  0.2676873E-020  0.7995977E+02  0.7818608E-02  0.1329166E+00
          2   -1    0    0  501    0  0.00000000000E+00  0.00000000000E+00  0.32276053281E+02  0.32276053382E+02  0.25500000000E-02 0. -1.
         -1   -1    0    0    0  501 -0.00000000000E+00 -0.00000000000E+00 -0.49522514545E+02  0.49522514801E+02  0.50400000000E-02 0.  1.
         24    2    1    2    0    0  0.35527136788E-14  0.35527136788E-14 -0.17246461264E+02  0.81798568183E+02  0.79959773203E+02 0.  0.
         66    2    3    3    0    0  0.25152743711E+02 -0.14667393881E+02  0.19361019000E+02  0.35023449426E+02  0.19999983940E+01 0.  0.
        -13    1    3    3    0    0 -0.25152743711E+02  0.14667393881E+02 -0.36607480263E+02  0.46775118757E+02  0.10566000000E+00 0.  1.
         13    1    4    4    0    0  0.23817207571E+01 -0.14092260878E+01  0.14389285742E+01  0.31209279723E+01  0.10566000000E+00 0. -1.
        -13    1    4    4    0    0  0.15769792819E+02 -0.86542228920E+01  0.11579903978E+02  0.21393627079E+02  0.10566000000E+00 0.  1.
         14    1    4    4    0    0  0.70012301344E+01 -0.46039449015E+01  0.63421864469E+01  0.10508894375E+02  0.00000000000E+00 0. -1.
<mgrwt>
<rscale>  0 0.79959773E+02</rscale>
<asrwt>0</asrwt>
<pdfrwt beam="1">  1        2 0.49655466E-02 0.79959773E+02</pdfrwt>
<pdfrwt beam="2">  1       -1 0.76188485E-02 0.79959773E+02</pdfrwt>
<totfact> 0.13670614E+05</totfact>
</mgrwt>
</event>
<event>
 8    1  0.2676873E-020  0.7944386E+02  0.7818608E-02  0.1330637E+00
          2   -1    0    0  501    0  0.00000000000E+00  0.00000000000E+00  0.20488034580E+03  0.20488034581E+03  0.25500000000E-02 0. -1.
         -1   -1    0    0    0  501 -0.00000000000E+00 -0.00000000000E+00 -0.77012334628E+01  0.77012351120E+01  0.50400000000E-02 0.  1.
         24    2    1    2    0    0  0.88817841970E-15  0.00000000000E+00  0.19717911234E+03  0.21258158093E+03  0.79443855695E+02 0.  0.
         66    2    3    3    0    0 -0.76307289565E+01  0.15484777589E+02  0.19430521928E+03  0.19508081561E+03  0.20000046816E+01 0.  0.
        -13    1    3    3    0    0  0.76307289565E+01 -0.15484777589E+02  0.28738930591E+01  0.17500765319E+02  0.10566000000E+00 0.  1.
         13    1    4    4    0    0 -0.27431398911E+01  0.47861662813E+01  0.52963413274E+02  0.53250037689E+02  0.10566000000E+00 0. -1.
        -13    1    4    4    0    0 -0.61358456965E+00  0.13639389843E+01  0.17369833279E+02  0.17434422495E+02  0.10566000000E+00 0.  1.
         14    1    4    4    0    0 -0.42740044958E+01  0.93346723232E+01  0.12397197272E+03  0.12439635542E+03  0.00000000000E+00 0. -1.
<mgrwt>
<rscale>  0 0.79443856E+02</rscale>
<asrwt>0</asrwt>
<pdfrwt beam="1">  1        2 0.31520048E-01 0.79443856E+02</pdfrwt>
<pdfrwt beam="2">  1       -1 0.11848055E-02 0.79443856E+02</pdfrwt>
<totfact> 0.22657365E+05</totfact>
</mgrwt>
</event>
<event>
 8    1  0.2676873E-020  0.8084562E+02  0.7818608E-02  0.1326669E+00
          2   -1    0    0  501    0  0.00000000000E+00  0.00000000000E+00  0.50833622221E+03  0.50833622222E+03  0.25500000000E-02 0. -1.
         -1   -1    0    0    0  501 -0.00000000000E+00 -0.00000000000E+00 -0.32144129206E+01  0.32144168718E+01  0.50400000000E-02 0.  1.
         24    2    1    2    0    0  0.71054273576E-14  0.17763568394E-14  0.50512180929E+03  0.51155063909E+03  0.80845619125E+02 0.  0.
         66    2    3    3    0    0 -0.36723923801E+02 -0.98401604271E+01  0.33913192162E+03  0.34126226806E+03  0.19999999182E+01 0.  0.
        -13    1    3    3    0    0  0.36723923801E+02  0.98401604271E+01  0.16598988767E+03  0.17028837103E+03  0.10566000000E+00 0.  1.
         13    1    4    4    0    0 -0.42390974259E+01 -0.12023267953E+01  0.36482981324E+02  0.36748260191E+02  0.10566000000E+00 0. -1.
        -13    1    4    4    0    0 -0.30452368096E+02 -0.84319788208E+01  0.28242311774E+03  0.28418528039E+03  0.10566000000E+00 0.  1.
        -14    1    4    4    0    0 -0.20324582791E+01 -0.20585481099E+00  0.20225822556E+02  0.20328727479E+02  0.00000000000E+00 0.  1.
<mgrwt>
<rscale>  0 0.80845619E+02</rscale>
<asrwt>0</asrwt>
<pdfrwt beam="1">  1        2 0.78205528E-01 0.80845619E+02</pdfrwt>
<pdfrwt beam="2">  1       -1 0.49452566E-03 0.80845619E+02</pdfrwt>
<totfact> 0.29783650E+05</totfact>
</mgrwt>
</event>
<event>
 8    1  0.2676873E-020  0.8375604E+02  0.7818608E-02  0.1318718E+00
          2   -1    0    0  501    0  0.00000000000E+00  0.00000000000E+00  0.96083304263E+03  0.96083304264E+03  0.25500000000E-02 0. -1.
         -1   -1    0    0    0  501 -0.00000000000E+00 -0.00000000000E+00 -0.18252549213E+01  0.18252618797E+01  0.50400000000E-02 0.  1.
         24    2    1    2    0    0  0.00000000000E+00  0.17763568394E-14  0.95900778771E+03  0.96265830452E+03  0.83756040750E+02 0.  0.
         66    2    3    3    0    0  0.14576989788E+02 -0.14195960290E+02  0.90015789955E+03  0.90039005883E+03  0.20000007249E+01 0.  0.
        -13    1    3    3    0    0 -0.14576989788E+02  0.14195960290E+02  0.58849888167E+02  0.62268245689E+02  0.10566000000E+00 0.  1.
         13    1    4    4    0    0  0.38157120007E+01 -0.42450197089E+01  0.27942856469E+03  0.27948687587E+03  0.10566000000E+00 0. -1.
        -13    1    4    4    0    0  0.43974181575E+00 -0.68867952240E+00  0.34479772278E+02  0.34489614564E+02  0.10566000000E+00 0.  1.
         14    1    4    4    0    0  0.10321535971E+02 -0.92622610589E+01  0.58624956257E+03  0.58641356840E+03  0.00000000000E+00 0. -1.
<mgrwt>
<rscale>  0 0.83756041E+02</rscale>
<asrwt>0</asrwt>
<pdfrwt beam="1">  1        2 0.14782037E+00 0.83756041E+02</pdfrwt>
<pdfrwt beam="2">  1       -1 0.28080917E-03 0.83756041E+02</pdfrwt>
<totfact> 0.31196521E+05</totfact>
</mgrwt>
</event>
<event>
 8    1  0.2676873E-020  0.7737264E+02  0.7818608E-02  0.1336677E+00
         -1   -1    0    0    0  501 -0.00000000000E+00  0.00000000000E+00  0.12940498613E+02  0.12940499595E+02  0.50400000000E-02 0.  1.
          2   -1    0    0  501    0  0.00000000000E+00 -0.00000000000E+00 -0.11565484209E+03  0.11565484212E+03  0.25500000000E-02 0. -1.
         24    2    1    2    0    0  0.00000000000E+00  0.00000000000E+00 -0.10271434348E+03  0.12859534172E+03  0.77372640866E+02 0.  0.
         66    2    3    3    0    0  0.14603924869E+02  0.27618352275E+02 -0.89239576035E+02  0.94571401238E+02  0.19999992769E+01 0.  0.
        -13    1    3    3    0    0 -0.14603924869E+02 -0.27618352275E+02 -0.13474767445E+02  0.34023940479E+02  0.10566000000E+00 0.  1.
         13    1    4    4    0    0  0.30883418096E+01  0.65070713811E+01 -0.22268016440E+02  0.23404178116E+02  0.10566000000E+00 0.  1.
        -13    1    4    4    0    0  0.10162537716E+02  0.19077880721E+02 -0.59350974902E+02  0.63164801048E+02  0.10566000000E+00 0. -1.
         14    1    4    4    0    0  0.13530453429E+01  0.20334001736E+01 -0.76205846933E+01  0.80024220729E+01  0.00000000000E+00 0. -1.
<mgrwt>
<rscale>  0 0.77372641E+02</rscale>
<asrwt>0</asrwt>
<pdfrwt beam="1">  1        2 0.17793052E-01 0.77372641E+02</pdfrwt>
<pdfrwt beam="2">  1       -1 0.19908461E-02 0.77372641E+02</pdfrwt>
<totfact> 0.20202504E+05</totfact>
</mgrwt>
</event>
<event>
 8    1  0.2676873E-020  0.8117168E+02  0.7818608E-02  0.1325759E+00
         -1   -1    0    0    0  501 -0.00000000000E+00  0.00000000000E+00  0.25004509983E+01  0.25004560777E+01  0.50400000000E-02 0.  1.
          2   -1    0    0  501    0  0.00000000000E+00 -0.00000000000E+00 -0.65876471372E+03  0.65876471373E+03  0.25500000000E-02 0. -1.
         24    2    1    2    0    0  0.17763568394E-14  0.00000000000E+00 -0.65626426273E+03  0.66126516981E+03  0.81171683907E+02 0.  0.
         66    2    3    3    0    0  0.12084972342E+02  0.34336312908E+02 -0.47410002826E+03  0.47549959597E+03  0.20000075127E+01 0.  0.
        -13    1    3    3    0    0 -0.12084972342E+02 -0.34336312908E+02 -0.18216423447E+03  0.18576557384E+03  0.10566000000E+00 0.  1.
         13    1    4    4    0    0  0.56655922764E+01  0.17284058127E+02 -0.23336192614E+03  0.23406972751E+03  0.10566000000E+00 0. -1.
        -13    1    4    4    0    0  0.25468501571E+01  0.78743082764E+01 -0.11559014466E+03  0.11588608149E+03  0.10566000000E+00 0.  1.
        -14    1    4    4    0    0  0.38725299085E+01  0.91779465044E+01 -0.12514795746E+03  0.12554378697E+03  0.00000000000E+00 0.  1.
<mgrwt>
<rscale>  0 0.81171684E+02</rscale>
<asrwt>0</asrwt>
<pdfrwt beam="1">  1        2 0.10134828E+00 0.81171684E+02</pdfrwt>
<pdfrwt beam="2">  1       -1 0.38468569E-03 0.81171684E+02</pdfrwt>
<totfact> 0.31744363E+05</totfact>
</mgrwt>
</event>
<event>
 8    1  0.2676873E-020  0.8180688E+02  0.7818608E-02  0.1324001E+00
         -1   -1    0    0    0  501 -0.00000000000E+00  0.00000000000E+00  0.16380514282E+01  0.16380591818E+01  0.50400000000E-02 0.  1.
          2   -1    0    0  501    0  0.00000000000E+00 -0.00000000000E+00 -0.10213888028E+04  0.10213888028E+04  0.25500000000E-02 0. -1.
         24    2    1    2    0    0  0.17763568394E-14  0.00000000000E+00 -0.10197507514E+04  0.10230268620E+04  0.81806878802E+02 0.  0.
         66    2    3    3    0    0 -0.14232310701E+02 -0.19355465118E+02 -0.92378331224E+03  0.92409783068E+03  0.19999979699E+01 0.  0.
        -13    1    3    3    0    0  0.14232310701E+02  0.19355465118E+02 -0.95967439121E+02  0.98929031296E+02  0.10566000000E+00 0.  1.
         13    1    4    4    0    0 -0.70233211651E+01 -0.10991048390E+02 -0.48952194895E+03  0.48969570128E+03  0.10566000000E+00 0. -1.
        -13    1    4    4    0    0 -0.12714572840E+01 -0.13745563578E+01 -0.81380623604E+02  0.81402230135E+02  0.10566000000E+00 0.  1.
         14    1    4    4    0    0 -0.59375322519E+01 -0.69898603704E+01 -0.35288073969E+03  0.35299989926E+03  0.00000000000E+00 0. -1.
<mgrwt>
<rscale>  0 0.81806879E+02</rscale>
<asrwt>0</asrwt>
<pdfrwt beam="1">  1        2 0.15713623E+00 0.81806879E+02</pdfrwt>
<pdfrwt beam="2">  1       -1 0.25200933E-03 0.81806879E+02</pdfrwt>
<totfact> 0.33268358E+05</totfact>
</mgrwt>
</event>
<event>
 8    1  0.2676873E-020  0.8001844E+02  0.7818608E-02  0.1328999E+00
          2   -1    0    0  501    0  0.00000000000E+00  0.00000000000E+00  0.14367214162E+04  0.14367214162E+04  0.25500000000E-02 0. -1.
         -1   -1    0    0    0  501 -0.00000000000E+00 -0.00000000000E+00 -0.11141544652E+01  0.11141658646E+01  0.50400000000E-02 0.  1.
         24    2    1    2    0    0  0.00000000000E+00  0.00000000000E+00  0.14356072617E+04  0.14378355821E+04  0.80018442322E+02 0.  0.
         66    2    3    3    0    0  0.21797500633E+02 -0.56150939560E+01  0.13120571945E+04  0.13122517829E+04  0.19999991168E+01 0.  0.
        -13    1    3    3    0    0 -0.21797500633E+02  0.56150939560E+01  0.12355006728E+03  0.12558379912E+03  0.10566000000E+00 0.  1.
         13    1    4    4    0    0  0.12115273886E+02 -0.38806917345E+01  0.76930163050E+03  0.76940681663E+03  0.10566000000E+00 0. -1.
        -13    1    4    4    0    0  0.36357268533E+01 -0.56896534308E+00  0.21641437491E+03  0.21644568617E+03  0.10566000000E+00 0.  1.
         14    1    4    4    0    0  0.60464998941E+01 -0.11654368784E+01  0.32634118904E+03  0.32639928013E+03  0.00000000000E+00 0. -1.
<mgrwt>
<rscale>  0 0.80018442E+02</rscale>
<asrwt>0</asrwt>
<pdfrwt beam="1">  1        2 0.22103435E+00 0.80018442E+02</pdfrwt>
<pdfrwt beam="2">  1       -1 0.17140903E-03 0.80018442E+02</pdfrwt>
<totfact> 0.33731014E+05</totfact>
</mgrwt>
</event>
<event>
 8    1  0.2676873E-020  0.8812700E+02  0.7818608E-02  0.1307452E+00
          2   -1    0    0  501    0  0.00000000000E+00  0.00000000000E+00  0.81599017287E+03  0.81599017288E+03  0.25500000000E-02 0. -1.
         -1   -1    0    0    0  501 -0.00000000000E+00 -0.00000000000E+00 -0.23794280295E+01  0.23794333673E+01  0.50400000000E-02 0.  1.
         24    2    1    2    0    0  0.17763568394E-14  0.00000000000E+00  0.81361074484E+03  0.81836960624E+03  0.88127000968E+02 0.  0.
         66    2    3    3    0    0 -0.11254269645E+02  0.11242302369E+02  0.78837743813E+03  0.78854044468E+03  0.19999996459E+01 0.  0.
        -13    1    3    3    0    0  0.11254269645E+02 -0.11242302369E+02  0.25233306715E+02  0.29829161564E+02  0.10566000000E+00 0.  1.
         13    1    4    4    0    0 -0.20158599094E+01  0.21103753527E+01  0.16567019123E+03  0.16569592874E+03  0.10566000000E+00 0. -1.
        -13    1    4    4    0    0 -0.51459580589E+01  0.57139896514E+01  0.39493006789E+03  0.39500493699E+03  0.10566000000E+00 0.  1.
        -14    1    4    4    0    0 -0.40924516768E+01  0.34179373652E+01  0.22777717902E+03  0.22783957895E+03  0.00000000000E+00 0.  1.
<mgrwt>
<rscale>  0 0.88127001E+02</rscale>
<asrwt>0</asrwt>
<pdfrwt beam="1">  1        2 0.12553686E+00 0.88127001E+02</pdfrwt>
<pdfrwt beam="2">  1       -1 0.36606651E-03 0.88127001E+02</pdfrwt>
<totfact> 0.26785090E+05</totfact>
</mgrwt>
</event>
<event>
 8    1  0.2676873E-020  0.7877411E+02  0.7818608E-02  0.1332567E+00
         -1   -1    0    0    0  501 -0.00000000000E+00  0.00000000000E+00  0.21372497849E+03  0.21372497855E+03  0.50400000000E-02 0.  1.
          2   -1    0    0  501    0  0.00000000000E+00 -0.00000000000E+00 -0.72585808995E+01  0.72585813474E+01  0.25500000000E-02 0. -1.
         24    2    1    2    0    0 -0.55511151231E-16  0.00000000000E+00  0.20646639760E+03  0.22098355990E+03  0.78774110029E+02 0.  0.
         66    2    3    3    0    0 -0.19178193131E+00 -0.38285938588E+02  0.12893149514E+03  0.13451089291E+03  0.19999996573E+01 0.  0.
        -13    1    3    3    0    0  0.19178193131E+00  0.38285938588E+02  0.77534902457E+02  0.86472666993E+02  0.10566000000E+00 0.  1.
         13    1    4    4    0    0  0.61858433050E+00 -0.21498148900E+02  0.70710573482E+02  0.73909061818E+02  0.10566000000E+00 0. -1.
        -13    1    4    4    0    0 -0.17637962151E+00 -0.68034000446E+01  0.24541348362E+02  0.25467750301E+02  0.10566000000E+00 0.  1.
        -14    1    4    4    0    0 -0.63398664030E+00 -0.99843896426E+01  0.33679573295E+02  0.35134080789E+02  0.00000000000E+00 0.  1.
<mgrwt>
<rscale>  0 0.78774110E+02</rscale>
<asrwt>0</asrwt>
<pdfrwt beam="1">  1        2 0.11167049E-02 0.78774110E+02</pdfrwt>
<pdfrwt beam="2">  1       -1 0.32880762E-01 0.78774110E+02</pdfrwt>
<totfact> 0.10149670E+05</totfact>
</mgrwt>
</event>
<event>
 8    1  0.2676873E-020  0.7907275E+02  0.7818608E-02  0.1331704E+00
         -1   -1    0    0    0  501 -0.00000000000E+00  0.00000000000E+00  0.76675039356E+01  0.76675055920E+01  0.50400000000E-02 0.  1.
          2   -1    0    0  501    0  0.00000000000E+00 -0.00000000000E+00 -0.20386357206E+03  0.20386357207E+03  0.25500000000E-02 0. -1.
         24    2    1    2    0    0  0.00000000000E+00  0.00000000000E+00 -0.19619606812E+03  0.21153107767E+03  0.79072749237E+02 0.  0.
         66    2    3    3    0    0 -0.18646243055E+02 -0.16680468515E+02 -0.17996931647E+03  0.18171096628E+03  0.19999963747E+01 0.  0.
        -13    1    3    3    0    0  0.18646243055E+02  0.16680468515E+02 -0.16226751655E+02  0.29820111389E+02  0.10566000000E+00 0.  1.
         13    1    4    4    0    0 -0.48459202722E+01 -0.45393721750E+01 -0.44285503001E+02  0.44780640718E+02  0.10566000000E+00 0. -1.
        -13    1    4    4    0    0 -0.67508150376E+01 -0.50549332861E+01 -0.60610292580E+02  0.61194318240E+02  0.10566000000E+00 0.  1.
        -14    1    4    4    0    0 -0.70495077457E+01 -0.70861630535E+01 -0.75073520888E+02  0.75736007320E+02  0.00000000000E+00 0.  1.
<mgrwt>
<rscale>  0 0.79072749E+02</rscale>
<asrwt>0</asrwt>
<pdfrwt beam="1">  1        2 0.31363622E-01 0.79072749E+02</pdfrwt>
<pdfrwt beam="2">  1       -1 0.11796163E-02 0.79072749E+02</pdfrwt>
<totfact> 0.22898945E+05</totfact>
</mgrwt>
</event>
<event>
 8    1  0.2676873E-020  0.8292656E+02  0.7818608E-02  0.1320946E+00
          2   -1    0    0  501    0  0.00000000000E+00  0.00000000000E+00  0.13005955021E+02  0.13005955271E+02  0.25500000000E-02 0. -1.
         -1   -1    0    0    0  501 -0.00000000000E+00 -0.00000000000E+00 -0.13218586135E+03  0.13218586144E+03  0.50400000000E-02 0.  1.
         24    2    1    2    0    0 -0.35527136788E-14 -0.35527136788E-14 -0.11917990633E+03  0.14519181671E+03  0.82926555270E+02 0.  0.
         66    2    3    3    0    0 -0.17055769071E+02 -0.21908851149E+02 -0.57649022815E+01  0.28427647023E+02  0.19999999095E+01 0.  0.
        -13    1    3    3    0    0  0.17055769071E+02  0.21908851149E+02 -0.11341500404E+03  0.11676416969E+03  0.10566000000E+00 0.  1.
         13    1    4    4    0    0 -0.79604782871E+01 -0.10323772781E+02 -0.18491809974E+01  0.13167389012E+02  0.10566000000E+00 0.  1.
        -13    1    4    4    0    0 -0.85471245375E+01 -0.10739685292E+02 -0.34662202245E+01  0.14156977951E+02  0.10566000000E+00 0. -1.
         14    1    4    4    0    0 -0.54816624677E+00 -0.84539307676E+00 -0.44950105960E+00  0.11032800601E+01  0.00000000000E+00 0. -1.
<mgrwt>
<rscale>  0 0.82926555E+02</rscale>
<asrwt>0</asrwt>
<pdfrwt beam="1">  1        2 0.20009163E-02 0.82926555E+02</pdfrwt>
<pdfrwt beam="2">  1       -1 0.20336285E-01 0.82926555E+02</pdfrwt>
<totfact> 0.10166615E+05</totfact>
</mgrwt>
</event>
<event>
 8    1  0.2676873E-020  0.7510327E+02  0.7818608E-02  0.1343552E+00
         -1   -1    0    0    0  501 -0.00000000000E+00  0.00000000000E+00  0.11353528400E+01  0.11353640266E+01  0.50400000000E-02 0.  1.
          2   -1    0    0  501    0  0.00000000000E+00 -0.00000000000E+00 -0.12420089143E+04  0.12420089143E+04  0.25500000000E-02 0. -1.
         24    2    1    2    0    0 -0.22204460493E-15  0.00000000000E+00 -0.12408735615E+04  0.12431442783E+04  0.75103270317E+02 0.  0.
         66    2    3    3    0    0 -0.16884981173E+01  0.23026370728E+02 -0.11105196377E+04  0.11107614193E+04  0.19999994273E+01 0.  0.
        -13    1    3    3    0    0  0.16884981173E+01 -0.23026370728E+02 -0.13035392374E+03  0.13238285906E+03  0.10566000000E+00 0.  1.
         13    1    4    4    0    0  0.14722856019E+00  0.59737182991E+01 -0.29600624879E+03  0.29606657608E+03  0.10566000000E+00 0. -1.
        -13    1    4    4    0    0 -0.69456996697E+00  0.25135876753E+01 -0.12460902165E+03  0.12463635100E+03  0.10566000000E+00 0.  1.
         14    1    4    4    0    0 -0.11411567105E+01  0.14539064753E+02 -0.68990436728E+03  0.69005849218E+03  0.00000000000E+00 0. -1.
<mgrwt>
<rscale>  0 0.75103270E+02</rscale>
<asrwt>0</asrwt>
<pdfrwt beam="1">  1        2 0.19107721E+00 0.75103270E+02</pdfrwt>
<pdfrwt beam="2">  1       -1 0.17467152E-03 0.75103270E+02</pdfrwt>
<totfact> 0.41080013E+05</totfact>
</mgrwt>
</event>
<event>
 8    1  0.2676873E-020  0.7268626E+02  0.7818608E-02  0.1351189E+00
         -1   -1    0    0    0  501 -0.00000000000E+00  0.00000000000E+00  0.12034052857E+01  0.12034158397E+01  0.50400000000E-02 0.  1.
          2   -1    0    0  501    0  0.00000000000E+00 -0.00000000000E+00 -0.10975663882E+04  0.10975663882E+04  0.25500000000E-02 0. -1.
         24    2    1    2    0    0  0.00000000000E+00  0.00000000000E+00 -0.10963629829E+04  0.10987698040E+04  0.72686257100E+02 0.  0.
         66    2    3    3    0    0  0.20585786643E+02  0.18212119316E+01 -0.10000044580E+04  0.10002199796E+04  0.19999986318E+01 0.  0.
        -13    1    3    3    0    0 -0.20585786643E+02 -0.18212119316E+01 -0.96358524835E+02  0.98549824440E+02  0.10566000000E+00 0.  1.
         13    1    4    4    0    0  0.17054811036E+02  0.21095069441E+01 -0.82961096794E+03  0.82978894057E+03  0.10566000000E+00 0.  1.
        -13    1    4    4    0    0  0.10063090732E+01  0.85130383784E-01 -0.43001246664E+02  0.43013233822E+02  0.10566000000E+00 0. -1.
        -14    1    4    4    0    0  0.25246665339E+01 -0.37342539630E+00 -0.12739224344E+03  0.12741780518E+03  0.00000000000E+00 0.  1.
<mgrwt>
<rscale>  0 0.72686257E+02</rscale>
<asrwt>0</asrwt>
<pdfrwt beam="1">  1        2 0.16885557E+00 0.72686257E+02</pdfrwt>
<pdfrwt beam="2">  1       -1 0.18514097E-03 0.72686257E+02</pdfrwt>
<totfact> 0.45162587E+05</totfact>
</mgrwt>
</event>
<event>
 8    1  0.2676873E-020  0.8017168E+02  0.7818608E-02  0.1328565E+00
          2   -1    0    0  501    0  0.00000000000E+00  0.00000000000E+00  0.94098965599E+01  0.94098969054E+01  0.25500000000E-02 0. -1.
         -1   -1    0    0    0  501 -0.00000000000E+00 -0.00000000000E+00 -0.17076431445E+03  0.17076431453E+03  0.50400000000E-02 0.  1.
         24    2    1    2    0    0 -0.17763568394E-14  0.00000000000E+00 -0.16135441789E+03  0.18017421143E+03  0.80171680111E+02 0.  0.
         66    2    3    3    0    0  0.13129313261E+02  0.23425469143E+02 -0.13918511043E+02  0.30312644431E+02  0.19999978687E+01 0.  0.
        -13    1    3    3    0    0 -0.13129313261E+02 -0.23425469143E+02 -0.14743590685E+03  0.14986156700E+03  0.10566000000E+00 0.  1.
         13    1    4    4    0    0  0.36506033529E+01  0.77212839604E+01 -0.50855790188E+01  0.99407951810E+01  0.10566000000E+00 0. -1.
        -13    1    4    4    0    0  0.13743713028E+01  0.21161995288E+01 -0.14568860220E+01  0.29156264919E+01  0.10566000000E+00 0. -1.
         14    1    4    4    0    0  0.81043386050E+01  0.13587985654E+02 -0.73760460017E+01  0.17456222758E+02  0.00000000000E+00 0. -1.
<mgrwt>
<rscale>  0 0.80171680E+02</rscale>
<asrwt>0</asrwt>
<pdfrwt beam="1">  1        2 0.14476766E-02 0.80171680E+02</pdfrwt>
<pdfrwt beam="2">  1       -1 0.26271431E-01 0.80171680E+02</pdfrwt>
<totfact> 0.10367617E+05</totfact>
</mgrwt>
</event>
<event>
 8    1  0.2676873E-020  0.8321795E+02  0.7818608E-02  0.1320160E+00
         -1   -1    0    0    0  501 -0.00000000000E+00  0.00000000000E+00  0.52079332138E+02  0.52079332382E+02  0.50400000000E-02 0.  1.
          2   -1    0    0  501    0  0.00000000000E+00 -0.00000000000E+00 -0.33243641600E+02  0.33243641698E+02  0.25500000000E-02 0. -1.
         24    2    1    2    0    0 -0.71054273576E-14  0.00000000000E+00  0.18835690538E+02  0.85322974079E+02  0.83217946788E+02 0.  0.
         66    2    3    3    0    0  0.40483815830E+02 -0.49774357640E+01  0.11198051438E+01  0.40853007020E+02  0.20000020104E+01 0.  0.
        -13    1    3    3    0    0 -0.40483815830E+02  0.49774357640E+01  0.17715885394E+02  0.44469967060E+02  0.10566000000E+00 0.  1.
         13    1    4    4    0    0  0.31801389548E+02 -0.38546282722E+01  0.76143530907E+00  0.32043368800E+02  0.10566000000E+00 0. -1.
        -13    1    4    4    0    0  0.59595496868E+00 -0.28233732154E-01  0.23094541355E+00  0.64842832138E+00  0.10566000000E+00 0.  1.
        -14    1    4    4    0    0  0.80864713132E+01 -0.10945737596E+01  0.12742442113E+00  0.81612098979E+01  0.00000000000E+00 0.  1.
<mgrwt>
<rscale>  0 0.83217947E+02</rscale>
<asrwt>0</asrwt>
<pdfrwt beam="1">  1        2 0.51144064E-02 0.83217947E+02</pdfrwt>
<pdfrwt beam="2">  1       -1 0.80122050E-02 0.83217947E+02</pdfrwt>
<totfact> 0.12297522E+05</totfact>
</mgrwt>
</event>
<event>
 8    1  0.2676873E-020  0.8027321E+02  0.7818608E-02  0.1328278E+00
         -1   -1    0    0    0  501 -0.00000000000E+00  0.00000000000E+00  0.24869102138E+01  0.24869153208E+01  0.50400000000E-02 0.  1.
          2   -1    0    0  501    0  0.00000000000E+00 -0.00000000000E+00 -0.64776980920E+03  0.64776980920E+03  0.25500000000E-02 0. -1.
         24    2    1    2    0    0 -0.35527136788E-14 -0.22204460493E-15 -0.64528289899E+03  0.65025672452E+03  0.80273208900E+02 0.  0.
         66    2    3    3    0    0  0.25186043171E+02  0.10767573021E+01 -0.57557893239E+03  0.57613418882E+03  0.19999834360E+01 0.  0.
        -13    1    3    3    0    0 -0.25186043171E+02 -0.10767573021E+01 -0.69703966595E+02  0.74122535709E+02  0.10566000000E+00 0.  1.
         13    1    4    4    0    0  0.75490594054E+01  0.24776131670E+00 -0.16381345172E+03  0.16398752334E+03  0.10566000000E+00 0. -1.
        -13    1    4    4    0    0  0.11727323089E+02  0.12515137214E+01 -0.27744705629E+03  0.27769763521E+03  0.10566000000E+00 0.  1.
        -14    1    4    4    0    0  0.59096606763E+01 -0.42251773597E+00 -0.13431842438E+03  0.13444903027E+03  0.00000000000E+00 0.  1.
<mgrwt>
<rscale>  0 0.80273209E+02</rscale>
<asrwt>0</asrwt>
<pdfrwt beam="1">  1        2 0.99656759E-01 0.80273209E+02</pdfrwt>
<pdfrwt beam="2">  1       -1 0.38260248E-03 0.80273209E+02</pdfrwt>
<totfact> 0.32538703E+05</totfact>
</mgrwt>
</event>
<event>
 8    1  0.2676873E-020  0.8131974E+02  0.7818608E-02  0.1325347E+00
         -1   -1    0    0    0  501 -0.00000000000E+00  0.00000000000E+00  0.22095812781E+02  0.22095813356E+02  0.50400000000E-02 0.  1.
          2   -1    0    0  501    0  0.00000000000E+00 -0.00000000000E+00 -0.74820745525E+02  0.74820745568E+02  0.25500000000E-02 0. -1.
         24    2    1    2    0    0  0.35527136788E-14 -0.35527136788E-14 -0.52724932744E+02  0.96916558924E+02  0.81319744594E+02 0.  0.
         66    2    3    3    0    0  0.31204703023E+02 -0.25538570527E+02 -0.20387513133E+02  0.45228340282E+02  0.19999993931E+01 0.  0.
        -13    1    3    3    0    0 -0.31204703023E+02  0.25538570527E+02 -0.32337419610E+02  0.51688218642E+02  0.10566000000E+00 0.  1.
         13    1    4    4    0    0  0.97824688800E+01 -0.83847125169E+01 -0.74775922156E+01  0.14897169220E+02  0.10566000000E+00 0. -1.
        -13    1    4    4    0    0  0.10672597173E+02 -0.87461906884E+01 -0.65816627592E+01  0.15288218689E+02  0.10566000000E+00 0.  1.
         14    1    4    4    0    0  0.10749636969E+02 -0.84076673221E+01 -0.63282581586E+01  0.15042952373E+02  0.00000000000E+00 0. -1.
<mgrwt>
<rscale>  0 0.81319745E+02</rscale>
<asrwt>0</asrwt>
<pdfrwt beam="1">  1        2 0.11510884E-01 0.81319745E+02</pdfrwt>
<pdfrwt beam="2">  1       -1 0.33993559E-02 0.81319745E+02</pdfrwt>
<totfact> 0.15704191E+05</totfact>
</mgrwt>
</event>
<event>
 8    1  0.2676873E-020  0.7878859E+02  0.7818608E-02  0.1332525E+00
          2   -1    0    0  501    0  0.00000000000E+00  0.00000000000E+00  0.13522794095E+04  0.13522794095E+04  0.25500000000E-02 0. -1.
         -1   -1    0    0    0  501 -0.00000000000E+00 -0.00000000000E+00 -0.11476199515E+01  0.11476310185E+01  0.50400000000E-02 0.  1.
         24    2    1    2    0    0  0.00000000000E+00 -0.17763568394E-14  0.13511317895E+04  0.13534270405E+04  0.78788586003E+02 0.  0.
         66    2    3    3    0    0 -0.29101391509E+01 -0.15600104726E+02  0.12949009218E+04  0.12949997024E+04  0.20000001632E+01 0.  0.
        -13    1    3    3    0    0  0.29101391509E+01  0.15600104726E+02  0.56230867766E+02  0.58427338046E+02  0.10566000000E+00 0.  1.
         13    1    4    4    0    0 -0.22019446051E+01 -0.99414873555E+01  0.79725853132E+03  0.79732355958E+03  0.10566000000E+00 0. -1.
        -13    1    4    4    0    0 -0.24890926895E-01 -0.79556841200E+00  0.45497273800E+02  0.45504358428E+02  0.10566000000E+00 0.  1.
         14    1    4    4    0    0 -0.68330361882E+00 -0.48630489582E+01  0.45214511663E+03  0.45217178444E+03  0.00000000000E+00 0. -1.
<mgrwt>
<rscale>  0 0.78788586E+02</rscale>
<asrwt>0</asrwt>
<pdfrwt beam="1">  1        2 0.20804310E+00 0.78788586E+02</pdfrwt>
<pdfrwt beam="2">  1       -1 0.17655767E-03 0.78788586E+02</pdfrwt>
<totfact> 0.35709347E+05</totfact>
</mgrwt>
</event>
<event>
 8    1  0.2676873E-020  0.8269701E+02  0.7818608E-02  0.1321567E+00
          2   -1    0    0  501    0  0.00000000000E+00  0.00000000000E+00  0.11610556654E+03  0.11610556657E+03  0.25500000000E-02 0. -1.
         -1   -1    0    0    0  501 -0.00000000000E+00 -0.00000000000E+00 -0.14725383519E+02  0.14725384382E+02  0.50400000000E-02 0.  1.
         24    2    1    2    0    0  0.00000000000E+00  0.35527136788E-14  0.10138018302E+03  0.13083095095E+03  0.82697014560E+02 0.  0.
         66    2    3    3    0    0  0.31099453797E+02 -0.26604968742E+02  0.59765570960E+02  0.72463258780E+02  0.20000031609E+01 0.  0.
        -13    1    3    3    0    0 -0.31099453797E+02  0.26604968742E+02  0.41614612061E+02  0.58367692170E+02  0.10566000000E+00 0.  1.
         13    1    4    4    0    0  0.15696205196E+02 -0.13021201242E+02  0.30756883157E+02  0.36904194408E+02  0.10566000000E+00 0. -1.
        -13    1    4    4    0    0  0.14201955912E+02 -0.12540127703E+02  0.26230207329E+02  0.32357152147E+02  0.10566000000E+00 0.  1.
         14    1    4    4    0    0  0.12012926888E+01 -0.10436397968E+01  0.27784804743E+01  0.32019122249E+01  0.00000000000E+00 0. -1.
<mgrwt>
<rscale>  0 0.82697015E+02</rscale>
<asrwt>0</asrwt>
<pdfrwt beam="1">  1        2 0.17862395E-01 0.82697015E+02</pdfrwt>
<pdfrwt beam="2">  1       -1 0.22654436E-02 0.82697015E+02</pdfrwt>
<totfact> 0.16934128E+05</totfact>
</mgrwt>
</event>
<event>
 8    1  0.2676873E-020  0.7997676E+02  0.7818608E-02  0.1329117E+00
          2   -1    0    0  501    0  0.00000000000E+00  0.00000000000E+00  0.11175651081E+04  0.11175651081E+04  0.25500000000E-02 0. -1.
         -1   -1    0    0    0  501 -0.00000000000E+00 -0.00000000000E+00 -0.14308476201E+01  0.14308564965E+01  0.50400000000E-02 0.  1.
         24    2    1    2    0    0  0.17763568394E-14  0.17763568394E-14  0.11161342605E+04  0.11189959646E+04  0.79976755201E+02 0.  0.
         66    2    3    3    0    0 -0.12391402884E+02  0.14660992520E+02  0.10488319833E+04  0.10490095427E+04  0.19999995301E+01 0.  0.
        -13    1    3    3    0    0  0.12391402884E+02 -0.14660992520E+02  0.67302277179E+02  0.69986421859E+02  0.10566000000E+00 0.  1.
         13    1    4    4    0    0 -0.64769084036E+01  0.77560642956E+01  0.50204362259E+03  0.50214531465E+03  0.10566000000E+00 0. -1.
        -13    1    4    4    0    0 -0.55880176749E+00  0.80290425387E+00  0.53206066073E+02  0.53215162742E+02  0.10566000000E+00 0. -1.
        -14    1    4    4    0    0 -0.53556927130E+01  0.61020239710E+01  0.49358229463E+03  0.49364906534E+03  0.00000000000E+00 0.  1.
<mgrwt>
<rscale>  0 0.79976755E+02</rscale>
<asrwt>0</asrwt>
<pdfrwt beam="1">  1        2 0.17193258E+00 0.79976755E+02</pdfrwt>
<pdfrwt beam="2">  1       -1 0.22013174E-03 0.79976755E+02</pdfrwt>
<totfact> 0.35257112E+05</totfact>
</mgrwt>
</event>
<event>
 8    1  0.2676873E-020  0.7981584E+02  0.7818608E-02  0.1329575E+00
         -1   -1    0    0    0  501 -0.00000000000E+00  0.00000000000E+00  0.30572879350E+02  0.30572879766E+02  0.50400000000E-02 0.  1.
          2   -1    0    0  501    0  0.00000000000E+00 -0.00000000000E+00 -0.52093301707E+02  0.52093301769E+02  0.25500000000E-02 0. -1.
         24    2    1    2    0    0  0.35527136788E-14  0.35527136788E-14 -0.21520422357E+02  0.82666181535E+02  0.79815844237E+02 0.  0.
         66    2    3    3    0    0  0.20523719232E+02  0.21802067356E+02 -0.38053258759E+02  0.48462394674E+02  0.20000008067E+01 0.  0.
        -13    1    3    3    0    0 -0.20523719232E+02 -0.21802067356E+02  0.16532836402E+02  0.34203786861E+02  0.10566000000E+00 0.  1.
         13    1    4    4    0    0  0.10072660264E+02  0.11506929344E+02 -0.20244174869E+02  0.25371355657E+02  0.10566000000E+00 0. -1.
        -13    1    4    4    0    0  0.40768961533E+01  0.34517135963E+01 -0.67010811916E+01  0.85703595121E+01  0.10566000000E+00 0.  1.
        -14    1    4    4    0    0  0.63741628154E+01  0.68434244159E+01 -0.11108002699E+02  0.14520679505E+02  0.00000000000E+00 0.  1.
<mgrwt>
<rscale>  0 0.79815844E+02</rscale>
<asrwt>0</asrwt>
<pdfrwt beam="1">  1        2 0.80143541E-02 0.79815844E+02</pdfrwt>
<pdfrwt beam="2">  1       -1 0.47035200E-02 0.79815844E+02</pdfrwt>
<totfact> 0.15173165E+05</totfact>
</mgrwt>
</event>
<event>
 8    1  0.2676873E-020  0.8141748E+02  0.7818608E-02  0.1325076E+00
          2   -1    0    0  501    0  0.00000000000E+00  0.00000000000E+00  0.72805475860E+02  0.72805475905E+02  0.25500000000E-02 0. -1.
         -1   -1    0    0    0  501 -0.00000000000E+00 -0.00000000000E+00 -0.22762044934E+02  0.22762045492E+02  0.50400000000E-02 0.  1.
         24    2    1    2    0    0  0.88817841970E-15  0.35527136788E-14  0.50043430926E+02  0.95567521396E+02  0.81417480721E+02 0.  0.
         66    2    3    3    0    0 -0.72024920159E+01 -0.17105857494E+02  0.67532573105E+02  0.70065217383E+02  0.20000012387E+01 0.  0.
        -13    1    3    3    0    0  0.72024920159E+01  0.17105857494E+02 -0.17489142178E+02  0.25502304013E+02  0.10566000000E+00 0.  1.
         13    1    4    4    0    0 -0.45231572414E+01 -0.89521783376E+01  0.37217098229E+02  0.38545090648E+02  0.10566000000E+00 0. -1.
        -13    1    4    4    0    0 -0.58952178744E+00 -0.17648823644E+01  0.53397559145E+01  0.56556611426E+01  0.10566000000E+00 0.  1.
        -14    1    4    4    0    0 -0.20898129871E+01 -0.63887967916E+01  0.24975718961E+02  0.25864465593E+02  0.00000000000E+00 0.  1.
<mgrwt>
<rscale>  0 0.81417481E+02</rscale>
<asrwt>0</asrwt>
<pdfrwt beam="1">  1        2 0.11200842E-01 0.81417481E+02</pdfrwt>
<pdfrwt beam="2">  1       -1 0.35018531E-02 0.81417481E+02</pdfrwt>
<totfact> 0.15546474E+05</totfact>
</mgrwt>
</event>
<event>
 8    1  0.2676873E-020  0.7548842E+02  0.7818608E-02  0.1342365E+00
          2   -1    0    0  501    0  0.00000000000E+00  0.00000000000E+00  0.41189232850E+02  0.41189232929E+02  0.25500000000E-02 0. -1.
         -1   -1    0    0    0  501 -0.00000000000E+00 -0.00000000000E+00 -0.34587328169E+02  0.34587328536E+02  0.50400000000E-02 0.  1.
         24    2    1    2    0    0  0.00000000000E+00  0.00000000000E+00  0.66019046810E+01  0.75776561465E+02  0.75488423762E+02 0.  0.
         66    2    3    3    0    0 -0.20165274163E+02 -0.15681057506E+02  0.31159623666E+02  0.40341739999E+02  0.19999981470E+01 0.  0.
        -13    1    3    3    0    0  0.20165274163E+02  0.15681057506E+02 -0.24557718985E+02  0.35434821466E+02  0.10566000000E+00 0.  1.
         13    1    4    4    0    0 -0.10585305396E+02 -0.87419251121E+01  0.16276361105E+02  0.21293215817E+02  0.10566000000E+00 0. -1.
        -13    1    4    4    0    0 -0.88791348160E+01 -0.64563493687E+01  0.14244474224E+02  0.17984429160E+02  0.10566000000E+00 0.  1.
        -14    1    4    4    0    0 -0.70083395084E+00 -0.48278302478E+00  0.63878833649E+00  0.10640950214E+01  0.00000000000E+00 0.  1.
<mgrwt>
<rscale>  0 0.75488424E+02</rscale>
<asrwt>0</asrwt>
<pdfrwt beam="1">  1        2 0.63368051E-02 0.75488424E+02</pdfrwt>
<pdfrwt beam="2">  1       -1 0.53211275E-02 0.75488424E+02</pdfrwt>
<totfact> 0.16822590E+05</totfact>
</mgrwt>
</event>
<event>
 8    1  0.2676873E-020  0.8090773E+02  0.7818608E-02  0.1326495E+00
         -1   -1    0    0    0  501 -0.00000000000E+00  0.00000000000E+00  0.10175661036E+01  0.10175785851E+01  0.50400000000E-02 0.  1.
          2   -1    0    0  501    0  0.00000000000E+00 -0.00000000000E+00 -0.16082543251E+04  0.16082543251E+04  0.25500000000E-02 0. -1.
         24    2    1    2    0    0  0.00000000000E+00  0.00000000000E+00 -0.16072367590E+04  0.16092719037E+04  0.80907728477E+02 0.  0.
         66    2    3    3    0    0  0.12999734423E+02  0.94825690593E+00 -0.15653129811E+04  0.15653685256E+04  0.19999996743E+01 0.  0.
        -13    1    3    3    0    0 -0.12999734423E+02 -0.94825690593E+00 -0.41923777896E+02  0.43903378040E+02  0.10566000000E+00 0.  1.
         13    1    4    4    0    0  0.17488254444E+01  0.67693868403E+00 -0.25907956407E+03  0.25908637232E+03  0.10566000000E+00 0. -1.
        -13    1    4    4    0    0  0.24159201216E+01 -0.19106130085E+00 -0.25813704369E+03  0.25814844115E+03  0.10566000000E+00 0.  1.
         14    1    4    4    0    0  0.88349888565E+01  0.46237952275E+00 -0.10480963733E+04  0.10481337122E+04  0.00000000000E+00 0. -1.
<mgrwt>
<rscale>  0 0.80907728E+02</rscale>
<asrwt>0</asrwt>
<pdfrwt beam="1">  1        2 0.24742171E+00 0.80907728E+02</pdfrwt>
<pdfrwt beam="2">  1       -1 0.15655088E-03 0.80907728E+02</pdfrwt>
<totfact> 0.31338406E+05</totfact>
</mgrwt>
</event>
<event>
 8    1  0.2676873E-020  0.8444067E+02  0.7818608E-02  0.1316902E+00
          2   -1    0    0  501    0  0.00000000000E+00  0.00000000000E+00  0.20560951789E+04  0.20560951789E+04  0.25500000000E-02 0. -1.
         -1   -1    0    0    0  501 -0.00000000000E+00 -0.00000000000E+00 -0.86695479686E+00  0.86696944664E+00  0.50400000000E-02 0.  1.
         24    2    1    2    0    0 -0.17763568394E-14  0.00000000000E+00  0.20552282241E+04  0.20569621483E+04  0.84440669035E+02 0.  0.
         66    2    3    3    0    0 -0.13593583833E+02 -0.86415054462E+01  0.19782514486E+04  0.19783180369E+04  0.20000032124E+01 0.  0.
        -13    1    3    3    0    0  0.13593583833E+02  0.86415054462E+01  0.76976775449E+02  0.78644111416E+02  0.10566000000E+00 0.  1.
         13    1    4    4    0    0 -0.29936575992E+01 -0.13128363440E+01  0.42530177960E+03  0.42531435483E+03  0.10566000000E+00 0. -1.
        -13    1    4    4    0    0 -0.55806694986E+01 -0.45839745722E+01  0.83790959745E+03  0.83794072664E+03  0.10566000000E+00 0.  1.
        -14    1    4    4    0    0 -0.50192567349E+01 -0.27446945299E+01  0.71504007155E+03  0.71506295542E+03  0.00000000000E+00 0.  1.
<mgrwt>
<rscale>  0 0.84440669E+02</rscale>
<asrwt>0</asrwt>
<pdfrwt beam="1">  1        2 0.31632168E+00 0.84440669E+02</pdfrwt>
<pdfrwt beam="2">  1       -1 0.13337907E-03 0.84440669E+02</pdfrwt>
<totfact> 0.23467803E+05</totfact>
</mgrwt>
</event>
<event>
 8    1  0.2676873E-020  0.7912358E+02  0.7818608E-02  0.1331557E+00
          2   -1    0    0  501    0  0.00000000000E+00  0.00000000000E+00  0.26420823280E+02  0.26420823403E+02  0.25500000000E-02 0. -1.
         -1   -1    0    0    0  501 -0.00000000000E+00 -0.00000000000E+00 -0.59238701837E+02  0.59238702051E+02  0.50400000000E-02 0.  1.
         24    2    1    2    0    0  0.00000000000E+00  0.00000000000E+00 -0.32817878557E+02  0.85659525454E+02  0.79123581492E+02 0.  0.
         66    2    3    3    0    0 -0.19007357081E+02 -0.26213941068E+02  0.81411723323E+01  0.33447406715E+02  0.19999998799E+01 0.  0.
        -13    1    3    3    0    0  0.19007357081E+02  0.26213941068E+02 -0.40959050889E+02  0.52212118739E+02  0.10566000000E+00 0.  1.
         13    1    4    4    0    0 -0.50408168617E+01 -0.66970721896E+01  0.25846260609E+01  0.87722326951E+01  0.10566000000E+00 0. -1.
        -13    1    4    4    0    0 -0.35630084682E+01 -0.53814100155E+01  0.90497384451E+00  0.65180322793E+01  0.10566000000E+00 0.  1.
         14    1    4    4    0    0 -0.10403531751E+02 -0.14135458862E+02  0.46515724269E+01  0.18157141740E+02  0.00000000000E+00 0. -1.
<mgrwt>
<rscale>  0 0.79123581E+02</rscale>
<asrwt>0</asrwt>
<pdfrwt beam="1">  1        2 0.40647421E-02 0.79123581E+02</pdfrwt>
<pdfrwt beam="2">  1       -1 0.91136465E-02 0.79123581E+02</pdfrwt>
<totfact> 0.13536647E+05</totfact>
</mgrwt>
</event>
<event>
 8    1  0.2676873E-020  0.7416517E+02  0.7818608E-02  0.1346476E+00
          2   -1    0    0  501    0  0.00000000000E+00  0.00000000000E+00  0.24931115460E+02  0.24931115590E+02  0.25500000000E-02 0. -1.
         -1   -1    0    0    0  501 -0.00000000000E+00 -0.00000000000E+00 -0.55156708878E+02  0.55156709108E+02  0.50400000000E-02 0.  1.
         24    2    1    2    0    0  0.00000000000E+00 -0.88817841970E-15 -0.30225593418E+02  0.80087824698E+02  0.74165174896E+02 0.  0.
         66    2    3    3    0    0  0.36227676801E+02  0.73509974862E+01 -0.17904616052E+02  0.41122463443E+02  0.19999983061E+01 0.  0.
        -13    1    3    3    0    0 -0.36227676801E+02 -0.73509974862E+01 -0.12320977366E+02  0.38965361255E+02  0.10566000000E+00 0.  1.
         13    1    4    4    0    0  0.10603164298E+02  0.23988453004E+01 -0.47688685363E+01  0.11871597325E+02  0.10566000000E+00 0. -1.
        -13    1    4    4    0    0  0.60440814260E+01  0.80634378232E+00 -0.25607567496E+01  0.66143593602E+01  0.10566000000E+00 0. -1.
         14    1    4    4    0    0  0.19580431077E+02  0.41458084035E+01 -0.10574990767E+02  0.22636506758E+02  0.00000000000E+00 0. -1.
<mgrwt>
<rscale>  0 0.74165175E+02</rscale>
<asrwt>0</asrwt>
<pdfrwt beam="1">  1        2 0.38355562E-02 0.74165175E+02</pdfrwt>
<pdfrwt beam="2">  1       -1 0.84856476E-02 0.74165175E+02</pdfrwt>
<totfact> 0.16051449E+05</totfact>
</mgrwt>
</event>
<event>
 8    1  0.2676873E-020  0.8004591E+02  0.7818608E-02  0.1328921E+00
          2   -1    0    0  501    0  0.00000000000E+00  0.00000000000E+00  0.41803944031E+03  0.41803944032E+03  0.25500000000E-02 0. -1.
         -1   -1    0    0    0  501 -0.00000000000E+00 -0.00000000000E+00 -0.38317829590E+01  0.38317862736E+01  0.50400000000E-02 0.  1.
         24    2    1    2    0    0  0.00000000000E+00  0.35527136788E-14  0.41420765735E+03  0.42187122659E+03  0.80045914434E+02 0.  0.
         66    2    3    3    0    0  0.14083068377E+02  0.23083146601E+02  0.36256713076E+03  0.36357954946E+03  0.20000020148E+01 0.  0.
        -13    1    3    3    0    0 -0.14083068377E+02 -0.23083146601E+02  0.51640526596E+02  0.58291677134E+02  0.10566000000E+00 0.  1.
         13    1    4    4    0    0  0.23906013903E+01  0.42795991827E+01  0.71210824005E+02  0.71379426753E+02  0.10566000000E+00 0. -1.
        -13    1    4    4    0    0  0.76560284211E+00  0.14640369659E+01  0.17604875138E+02  0.17682543500E+02  0.10566000000E+00 0.  1.
         14    1    4    4    0    0  0.10926864144E+02  0.17339510453E+02  0.27375143161E+03  0.27451757921E+03  0.00000000000E+00 0. -1.
<mgrwt>
<rscale>  0 0.80045914E+02</rscale>
<asrwt>0</asrwt>
<pdfrwt beam="1">  1        2 0.64313755E-01 0.80045914E+02</pdfrwt>
<pdfrwt beam="2">  1       -1 0.58950537E-03 0.80045914E+02</pdfrwt>
<totfact> 0.28646837E+05</totfact>
</mgrwt>
</event>
<event>
 8    1  0.2676873E-020  0.7652568E+02  0.7818608E-02  0.1339211E+00
          2   -1    0    0  501    0  0.00000000000E+00  0.00000000000E+00  0.10363333617E+03  0.10363333620E+03  0.25500000000E-02 0. -1.
         -1   -1    0    0    0  501 -0.00000000000E+00 -0.00000000000E+00 -0.14127159634E+02  0.14127160533E+02  0.50400000000E-02 0.  1.
         24    2    1    2    0    0  0.35527136788E-14  0.00000000000E+00  0.89506176533E+02  0.11776049673E+03  0.76525675123E+02 0.  0.
         66    2    3    3    0    0 -0.25417679630E+02 -0.12716512973E+02  0.84145060684E+02  0.88837826261E+02  0.19999993121E+01 0.  0.
        -13    1    3    3    0    0  0.25417679630E+02  0.12716512973E+02  0.53611158482E+01  0.28922670470E+02  0.10566000000E+00 0.  1.
         13    1    4    4    0    0 -0.78371494973E+01 -0.36028226445E+01  0.24369032973E+02  0.25850767403E+02  0.10566000000E+00 0. -1.
        -13    1    4    4    0    0 -0.32780375366E+01 -0.22803988348E+01  0.11298569800E+02  0.11983930594E+02  0.10566000000E+00 0.  1.
         14    1    4    4    0    0 -0.14302492596E+02 -0.68332914942E+01  0.48477457911E+02  0.51003128263E+02  0.00000000000E+00 0. -1.
<mgrwt>
<rscale>  0 0.76525675E+02</rscale>
<asrwt>0</asrwt>
<pdfrwt beam="1">  1        2 0.15943590E-01 0.76525675E+02</pdfrwt>
<pdfrwt beam="2">  1       -1 0.21734092E-02 0.76525675E+02</pdfrwt>
<totfact> 0.20158101E+05</totfact>
</mgrwt>
</event>
<event>
 8    1  0.2676873E-020  0.8460425E+02  0.7818608E-02  0.1316471E+00
         -1   -1    0    0    0  501 -0.00000000000E+00  0.00000000000E+00  0.18479734304E+01  0.18479803032E+01  0.50400000000E-02 0.  1.
          2   -1    0    0  501    0  0.00000000000E+00 -0.00000000000E+00 -0.96833986764E+03  0.96833986765E+03  0.25500000000E-02 0. -1.
         24    2    1    2    0    0  0.00000000000E+00  0.35527136788E-14 -0.96649189421E+03  0.97018784795E+03  0.84604247709E+02 0.  0.
         66    2    3    3    0    0  0.10710933128E+02 -0.28174906640E+02 -0.82348254691E+03  0.82403644005E+03  0.20000008545E+01 0.  0.
        -13    1    3    3    0    0 -0.10710933128E+02  0.28174906640E+02 -0.14300934730E+03  0.14615140790E+03  0.10566000000E+00 0.  1.
         13    1    4    4    0    0  0.48686362775E+01 -0.13651171616E+02 -0.41713946907E+03  0.41739119052E+03  0.10566000000E+00 0. -1.
        -13    1    4    4    0    0  0.29873297056E+01 -0.84266909013E+01 -0.23117185581E+03  0.23134470242E+03  0.10566000000E+00 0.  1.
         14    1    4    4    0    0  0.28549671450E+01 -0.60970441222E+01 -0.17517122204E+03  0.17530054711E+03  0.00000000000E+00 0. -1.
<mgrwt>
<rscale>  0 0.84604248E+02</rscale>
<asrwt>0</asrwt>
<pdfrwt beam="1">  1        2 0.14897496E+00 0.84604248E+02</pdfrwt>
<pdfrwt beam="2">  1       -1 0.28430491E-03 0.84604248E+02</pdfrwt>
<totfact> 0.30402681E+05</totfact>
</mgrwt>
</event>
<event>
 8    1  0.2676873E-020  0.8056123E+02  0.7818608E-02  0.1327466E+00
         -1   -1    0    0    0  501 -0.00000000000E+00  0.00000000000E+00  0.14741488348E+03  0.14741488357E+03  0.50400000000E-02 0.  1.
          2   -1    0    0  501    0  0.00000000000E+00 -0.00000000000E+00 -0.11006540543E+02  0.11006540839E+02  0.25500000000E-02 0. -1.
         24    2    1    2    0    0  0.00000000000E+00 -0.22204460493E-15  0.13640834294E+03  0.15842142441E+03  0.80561229434E+02 0.  0.
         66    2    3    3    0    0 -0.29737506303E+02  0.66811402454E+00  0.14905831249E+02  0.33330908506E+02  0.19999997737E+01 0.  0.
        -13    1    3    3    0    0  0.29737506303E+02 -0.66811402454E+00  0.12150251169E+03  0.12509051590E+03  0.10566000000E+00 0.  1.
         13    1    4    4    0    0 -0.91639063885E+01 -0.11985579763E+00  0.43280254978E+01  0.10135803592E+02  0.10566000000E+00 0. -1.
        -13    1    4    4    0    0 -0.86366731026E+01 -0.39687339391E+00  0.45268706845E+01  0.97597824260E+01  0.10566000000E+00 0.  1.
         14    1    4    4    0    0 -0.11936926812E+02  0.11848432161E+01  0.60509350670E+01  0.13435322488E+02  0.00000000000E+00 0. -1.
<mgrwt>
<rscale>  0 0.80561229E+02</rscale>
<asrwt>0</asrwt>
<pdfrwt beam="1">  1        2 0.16933139E-02 0.80561229E+02</pdfrwt>
<pdfrwt beam="2">  1       -1 0.22679213E-01 0.80561229E+02</pdfrwt>
<totfact> 0.10645272E+05</totfact>
</mgrwt>
</event>
<event>
 8    1  0.2676873E-020  0.8057226E+02  0.7818608E-02  0.1327435E+00
          2   -1    0    0  501    0  0.00000000000E+00  0.00000000000E+00  0.21544825280E+02  0.21544825431E+02  0.25500000000E-02 0. -1.
         -1   -1    0    0    0  501 -0.00000000000E+00 -0.00000000000E+00 -0.75330020212E+02  0.75330020381E+02  0.50400000000E-02 0.  1.
         24    2    1    2    0    0  0.22204460493E-15  0.00000000000E+00 -0.53785194932E+02  0.96874845812E+02  0.80572256746E+02 0.  0.
         66    2    3    3    0    0 -0.19152066411E+01  0.24734117062E+02  0.11216893971E+02  0.27299510462E+02  0.19999994432E+01 0.  0.
        -13    1    3    3    0    0  0.19152066411E+01 -0.24734117062E+02 -0.65002088903E+02  0.69575335350E+02  0.10566000000E+00 0.  1.
         13    1    4    4    0    0 -0.19596326350E+01  0.21643123073E+02  0.10172685027E+02  0.23994991584E+02  0.10566000000E+00 0. -1.
        -13    1    4    4    0    0  0.80723763850E-01  0.18229675738E+01  0.86920458913E+00  0.20239584369E+01  0.10566000000E+00 0.  1.
         14    1    4    4    0    0 -0.36297769936E-01  0.12680264157E+01  0.17500435436E+00  0.12805604410E+01  0.00000000000E+00 0. -1.
<mgrwt>
<rscale>  0 0.80572257E+02</rscale>
<asrwt>0</asrwt>
<pdfrwt beam="1">  1        2 0.33145886E-02 0.80572257E+02</pdfrwt>
<pdfrwt beam="2">  1       -1 0.11589234E-01 0.80572257E+02</pdfrwt>
<totfact> 0.12348569E+05</totfact>
</mgrwt>
</event>
<event>
 8    1  0.2676873E-020  0.7985976E+02  0.7818608E-02  0.1329450E+00
          2   -1    0    0  501    0  0.00000000000E+00  0.00000000000E+00  0.13067283561E+04  0.13067283561E+04  0.25500000000E-02 0. -1.
         -1   -1    0    0    0  501 -0.00000000000E+00 -0.00000000000E+00 -0.12201376157E+01  0.12201480250E+01  0.50400000000E-02 0.  1.
         24    2    1    2    0    0  0.88817841970E-15  0.00000000000E+00  0.13055082185E+04  0.13079485041E+04  0.79859757821E+02 0.  0.
         66    2    3    3    0    0  0.28692086039E+01 -0.17184646002E+02  0.12411431741E+04  0.12412670636E+04  0.19999985864E+01 0.  0.
        -13    1    3    3    0    0 -0.28692086039E+01  0.17184646002E+02  0.64365044349E+02  0.66681440553E+02  0.10566000000E+00 0.  1.
         13    1    4    4    0    0  0.76890789199E+00 -0.52409771187E+01  0.33876509313E+03  0.33880652081E+03  0.10566000000E+00 0. -1.
        -13    1    4    4    0    0  0.98312003527E+00 -0.25530684212E+01  0.19209946298E+03  0.19211897232E+03  0.10566000000E+00 0.  1.
         14    1    4    4    0    0  0.11171806766E+01 -0.93906004618E+01  0.71027861804E+03  0.71034157045E+03  0.00000000000E+00 0. -1.
<mgrwt>
<rscale>  0 0.79859758E+02</rscale>
<asrwt>0</asrwt>
<pdfrwt beam="1">  1        2 0.20103509E+00 0.79859758E+02</pdfrwt>
<pdfrwt beam="2">  1       -1 0.18771432E-03 0.79859758E+02</pdfrwt>
<totfact> 0.34739763E+05</totfact>
</mgrwt>
</event>
<event>
 8    1  0.2676873E-020  0.7878601E+02  0.7818608E-02  0.1332532E+00
         -1   -1    0    0    0  501 -0.00000000000E+00  0.00000000000E+00  0.16616256478E+02  0.16616257242E+02  0.50400000000E-02 0.  1.
          2   -1    0    0  501    0  0.00000000000E+00 -0.00000000000E+00 -0.93390997570E+02  0.93390997605E+02  0.25500000000E-02 0. -1.
         24    2    1    2    0    0  0.00000000000E+00 -0.35527136788E-14 -0.76774741092E+02  0.11000725485E+03  0.78786009223E+02 0.  0.
         66    2    3    3    0    0  0.19546979397E+02 -0.20780218991E+02 -0.76289617154E+02  0.81473968774E+02  0.19999993237E+01 0.  0.
        -13    1    3    3    0    0 -0.19546979397E+02  0.20780218991E+02 -0.48512393770E+00  0.28533286074E+02  0.10566000000E+00 0.  1.
         13    1    4    4    0    0  0.11547196416E+02 -0.11995037508E+02 -0.42732124189E+02  0.45861359243E+02  0.10566000000E+00 0. -1.
        -13    1    4    4    0    0  0.53576148339E+01 -0.62301127056E+01 -0.21995022865E+02  0.23480002894E+02  0.10566000000E+00 0.  1.
        -14    1    4    4    0    0  0.26421681475E+01 -0.25550687783E+01 -0.11562470100E+02  0.12132606637E+02  0.00000000000E+00 0.  1.
<mgrwt>
<rscale>  0 0.78786009E+02</rscale>
<asrwt>0</asrwt>
<pdfrwt beam="1">  1        2 0.14367845E-01 0.78786009E+02</pdfrwt>
<pdfrwt beam="2">  1       -1 0.25563473E-02 0.78786009E+02</pdfrwt>
<totfact> 0.18122052E+05</totfact>
</mgrwt>
</event>
<event>
 8    1  0.2676873E-020  0.8041658E+02  0.7818608E-02  0.1327873E+00
         -1   -1    0    0    0  501 -0.00000000000E+00  0.00000000000E+00  0.13354860336E+03  0.13354860345E+03  0.50400000000E-02 0.  1.
          2   -1    0    0  501    0  0.00000000000E+00 -0.00000000000E+00 -0.12105754920E+02  0.12105755188E+02  0.25500000000E-02 0. -1.
         24    2    1    2    0    0 -0.35527136788E-14  0.35527136788E-14  0.12144284844E+03  0.14565435864E+03  0.80416582584E+02 0.  0.
         66    2    3    3    0    0 -0.21483376489E+02  0.30697591215E+02  0.34459948588E+02  0.50944730819E+02  0.19999924486E+01 0.  0.
        -13    1    3    3    0    0  0.21483376489E+02 -0.30697591215E+02  0.86982899851E+02  0.94709627823E+02  0.10566000000E+00 0.  1.
         13    1    4    4    0    0 -0.11539995409E+02  0.16193160685E+02  0.17633535682E+02  0.26577108415E+02  0.10566000000E+00 0. -1.
        -13    1    4    4    0    0 -0.49744207323E+01  0.63007099770E+01  0.79770488919E+01  0.11317609328E+02  0.10566000000E+00 0. -1.
         14    1    4    4    0    0 -0.49689603477E+01  0.82037205535E+01  0.88493640138E+01  0.13050013077E+02  0.00000000000E+00 0. -1.
<mgrwt>
<rscale>  0 0.80416583E+02</rscale>
<asrwt>0</asrwt>
<pdfrwt beam="1">  1        2 0.18624240E-02 0.80416583E+02</pdfrwt>
<pdfrwt beam="2">  1       -1 0.20545937E-01 0.80416583E+02</pdfrwt>
<totfact> 0.10957739E+05</totfact>
</mgrwt>
</event>
<event>
 8    1  0.2676873E-020  0.7806684E+02  0.7818608E-02  0.1334629E+00
          2   -1    0    0  501    0  0.00000000000E+00  0.00000000000E+00  0.37340340840E+03  0.37340340841E+03  0.25500000000E-02 0. -1.
         -1   -1    0    0    0  501 -0.00000000000E+00 -0.00000000000E+00 -0.40803248093E+01  0.40803279220E+01  0.50400000000E-02 0.  1.
         24    2    1    2    0    0  0.00000000000E+00  0.00000000000E+00  0.36932308359E+03  0.37748373633E+03  0.78066837525E+02 0.  0.
         66    2    3    3    0    0 -0.20730344325E+02  0.37413005575E+01  0.34353195403E+03  0.34418301511E+03  0.19999862068E+01 0.  0.
        -13    1    3    3    0    0  0.20730344325E+02 -0.37413005575E+01  0.25791129556E+02  0.33300721216E+02  0.10566000000E+00 0.  1.
         13    1    4    4    0    0 -0.55314988150E+01  0.98665326212E+00  0.97114209188E+02  0.97276676310E+02  0.10566000000E+00 0. -1.
        -13    1    4    4    0    0 -0.31118953576E+00 -0.41674968821E-01  0.31345385376E+01  0.31519948620E+01  0.10566000000E+00 0.  1.
        -14    1    4    4    0    0 -0.14887655974E+02  0.27963222642E+01  0.24328320631E+03  0.24375434394E+03  0.00000000000E+00 0.  1.
<mgrwt>
<rscale>  0 0.78066838E+02</rscale>
<asrwt>0</asrwt>
<pdfrwt beam="1">  1        2 0.57446685E-01 0.78066838E+02</pdfrwt>
<pdfrwt beam="2">  1       -1 0.62774245E-03 0.78066838E+02</pdfrwt>
<totfact> 0.29395358E+05</totfact>
</mgrwt>
</event>
<event>
 8    1  0.2676873E-020  0.7658533E+02  0.7818608E-02  0.1339031E+00
         -1   -1    0    0    0  501 -0.00000000000E+00  0.00000000000E+00  0.90540345963E+01  0.90540359991E+01  0.50400000000E-02 0.  1.
          2   -1    0    0  501    0  0.00000000000E+00 -0.00000000000E+00 -0.16195301747E+03  0.16195301749E+03  0.25500000000E-02 0. -1.
         24    2    1    2    0    0  0.35527136788E-14 -0.55511151231E-16 -0.15289898287E+03  0.17100705349E+03  0.76585333969E+02 0.  0.
         66    2    3    3    0    0  0.26587609933E+02  0.28089415359E+00 -0.13795049048E+03  0.14050379969E+03  0.20000000613E+01 0.  0.
        -13    1    3    3    0    0 -0.26587609933E+02 -0.28089415359E+00 -0.14948492394E+02  0.30503253799E+02  0.10566000000E+00 0.  1.
         13    1    4    4    0    0  0.16686868478E+02  0.99781060694E+00 -0.87765311275E+02  0.89343204738E+02  0.10566000000E+00 0. -1.
        -13    1    4    4    0    0  0.28864666776E+01 -0.18500999205E+00 -0.13432893454E+02  0.13741168406E+02  0.10566000000E+00 0.  1.
         14    1    4    4    0    0  0.70142747765E+01 -0.53190646130E+00 -0.36752285748E+02  0.37419426543E+02  0.00000000000E+00 0. -1.
<mgrwt>
<rscale>  0 0.76585334E+02</rscale>
<asrwt>0</asrwt>
<pdfrwt beam="1">  1        2 0.24915847E-01 0.76585334E+02</pdfrwt>
<pdfrwt beam="2">  1       -1 0.13929286E-02 0.76585334E+02</pdfrwt>
<totfact> 0.23046363E+05</totfact>
</mgrwt>
</event>
<event>
 8    1  0.2676873E-020  0.7954346E+02  0.7818608E-02  0.1330352E+00
         -1   -1    0    0    0  501 -0.00000000000E+00  0.00000000000E+00  0.42764788963E+02  0.42764789260E+02  0.50400000000E-02 0.  1.
          2   -1    0    0  501    0  0.00000000000E+00 -0.00000000000E+00 -0.36988153426E+02  0.36988153514E+02  0.25500000000E-02 0. -1.
         24    2    1    2    0    0 -0.17763568394E-14  0.88817841970E-15  0.57766355373E+01  0.79752942774E+02  0.79543462101E+02 0.  0.
         66    2    3    3    0    0  0.12172732470E+02 -0.63271969055E+01 -0.34511946704E+02  0.37192516795E+02  0.20000009540E+01 0.  0.
        -13    1    3    3    0    0 -0.12172732470E+02  0.63271969055E+01  0.40288582241E+02  0.42560425979E+02  0.10566000000E+00 0.  1.
         13    1    4    4    0    0  0.64816421402E+01 -0.36443356029E+01 -0.18219130469E+02  0.19678433522E+02  0.10566000000E+00 0. -1.
        -13    1    4    4    0    0  0.33803934208E+01 -0.88239152026E+00 -0.90113922539E+01  0.96655071706E+01  0.10566000000E+00 0.  1.
        -14    1    4    4    0    0  0.23106969089E+01 -0.18004697823E+01 -0.72814239810E+01  0.78485761023E+01  0.00000000000E+00 0.  1.
<mgrwt>
<rscale>  0 0.79543462E+02</rscale>
<asrwt>0</asrwt>
<pdfrwt beam="1">  1        2 0.56904852E-02 0.79543462E+02</pdfrwt>
<pdfrwt beam="2">  1       -1 0.65791983E-02 0.79543462E+02</pdfrwt>
<totfact> 0.14253824E+05</totfact>
</mgrwt>
</event>
<event>
 8    1  0.2676873E-020  0.7985686E+02  0.7818608E-02  0.1329458E+00
         -1   -1    0    0    0  501 -0.00000000000E+00  0.00000000000E+00  0.28944943142E+02  0.28944943581E+02  0.50400000000E-02 0.  1.
          2   -1    0    0  501    0  0.00000000000E+00 -0.00000000000E+00 -0.55079724258E+02  0.55079724317E+02  0.25500000000E-02 0. -1.
         24    2    1    2    0    0 -0.35527136788E-14 -0.71054273576E-14 -0.26134781115E+02  0.84024667898E+02  0.79856859639E+02 0.  0.
         66    2    3    3    0    0  0.24628601669E+02  0.27207650343E+02  0.34089577116E+01  0.36911316019E+02  0.20000000454E+01 0.  0.
        -13    1    3    3    0    0 -0.24628601669E+02 -0.27207650343E+02 -0.29543738827E+02  0.47113351879E+02  0.10566000000E+00 0.  1.
         13    1    4    4    0    0  0.92618977302E+01  0.92883012264E+01  0.95003670773E+00  0.13151768817E+02  0.10566000000E+00 0. -1.
        -13    1    4    4    0    0  0.38184199791E+00  0.62594219864E+00 -0.34643604025E-01  0.74160040608E+00  0.10566000000E+00 0.  1.
         14    1    4    4    0    0  0.14984861941E+02  0.17293406918E+02  0.24935646079E+01  0.23017946796E+02  0.00000000000E+00 0. -1.
<mgrwt>
<rscale>  0 0.79856860E+02</rscale>
<asrwt>0</asrwt>
<pdfrwt beam="1">  1        2 0.84738037E-02 0.79856860E+02</pdfrwt>
<pdfrwt beam="2">  1       -1 0.44530683E-02 0.79856860E+02</pdfrwt>
<totfact> 0.15340725E+05</totfact>
</mgrwt>
</event>
<event>
 8    1  0.2676873E-020  0.8120674E+02  0.7818608E-02  0.1325661E+00
         -1   -1    0    0    0  501 -0.00000000000E+00  0.00000000000E+00  0.20413039337E+02  0.20413039960E+02  0.50400000000E-02 0.  1.
          2   -1    0    0  501    0  0.00000000000E+00 -0.00000000000E+00 -0.80763751515E+02  0.80763751555E+02  0.25500000000E-02 0. -1.
         24    2    1    2    0    0  0.00000000000E+00  0.17763568394E-14 -0.60350712177E+02  0.10117679151E+03  0.81206740366E+02 0.  0.
         66    2    3    3    0    0  0.37613351194E+02 -0.14979945760E+02 -0.26789331799E+02  0.48588386139E+02  0.20000015834E+01 0.  0.
        -13    1    3    3    0    0 -0.37613351194E+02  0.14979945760E+02 -0.33561380378E+02  0.52588405376E+02  0.10566000000E+00 0.  1.
         13    1    4    4    0    0  0.22514609707E+02 -0.92630094844E+01 -0.15641172085E+02  0.28937318867E+02  0.10566000000E+00 0. -1.
        -13    1    4    4    0    0  0.14674657717E+02 -0.56626636797E+01 -0.11016199083E+02  0.19203623234E+02  0.10566000000E+00 0.  1.
        -14    1    4    4    0    0  0.42408377060E+00 -0.54272595978E-01 -0.13196063086E+00  0.44744403813E+00  0.00000000000E+00 0.  1.
<mgrwt>
<rscale>  0 0.81206740E+02</rscale>
<asrwt>0</asrwt>
<pdfrwt beam="1">  1        2 0.12425192E-01 0.81206740E+02</pdfrwt>
<pdfrwt beam="2">  1       -1 0.31404677E-02 0.81206740E+02</pdfrwt>
<totfact> 0.16074035E+05</totfact>
</mgrwt>
</event>
<event>
 8    1  0.2676873E-020  0.8038848E+02  0.7818608E-02  0.1327953E+00
         -1   -1    0    0    0  501 -0.00000000000E+00  0.00000000000E+00  0.16276597308E+01  0.16276675339E+01  0.50400000000E-02 0.  1.
          2   -1    0    0  501    0  0.00000000000E+00 -0.00000000000E+00 -0.99257431687E+03  0.99257431687E+03  0.25500000000E-02 0. -1.
         24    2    1    2    0    0  0.00000000000E+00  0.00000000000E+00 -0.99094665714E+03  0.99420198440E+03  0.80388484896E+02 0.  0.
         66    2    3    3    0    0 -0.31722661457E+02 -0.22631914780E+01 -0.79925445463E+03  0.79988945019E+03  0.19999999546E+01 0.  0.
        -13    1    3    3    0    0  0.31722661457E+02  0.22631914780E+01 -0.19169220251E+03  0.19431253421E+03  0.10566000000E+00 0.  1.
         13    1    4    4    0    0 -0.67247253050E+01 -0.40690237157E+00 -0.17251300662E+03  0.17264453688E+03  0.10566000000E+00 0.  1.
        -13    1    4    4    0    0 -0.11040982268E+02 -0.16781206056E+01 -0.27935654608E+03  0.27957970309E+03  0.10566000000E+00 0. -1.
        -14    1    4    4    0    0 -0.13956953884E+02 -0.17816850083E+00 -0.34738490193E+03  0.34766521022E+03  0.00000000000E+00 0.  1.
<mgrwt>
<rscale>  0 0.80388485E+02</rscale>
<asrwt>0</asrwt>
<pdfrwt beam="1">  1        2 0.15270326E+00 0.80388485E+02</pdfrwt>
<pdfrwt beam="2">  1       -1 0.25041058E-03 0.80388485E+02</pdfrwt>
<totfact> 0.34779213E+05</totfact>
</mgrwt>
</event>
<event>
 8    1  0.2676873E-020  0.8197593E+02  0.7818608E-02  0.1323536E+00
          2   -1    0    0  501    0  0.00000000000E+00  0.00000000000E+00  0.29721827226E+03  0.29721827227E+03  0.25500000000E-02 0. -1.
         -1   -1    0    0    0  501 -0.00000000000E+00 -0.00000000000E+00 -0.56524546200E+01  0.56524568669E+01  0.50400000000E-02 0.  1.
         24    2    1    2    0    0  0.35527136788E-14  0.71054273576E-14  0.29156581764E+03  0.30287072914E+03  0.81975926664E+02 0.  0.
         66    2    3    3    0    0 -0.23877003111E+02 -0.20500422630E+02  0.24275258722E+03  0.24479215104E+03  0.20000009770E+01 0.  0.
        -13    1    3    3    0    0  0.23877003111E+02  0.20500422630E+02  0.48813230419E+02  0.58078578095E+02  0.10566000000E+00 0.  1.
         13    1    4    4    0    0 -0.11091910180E+02 -0.90259530871E+01  0.11054506280E+03  0.11146622975E+03  0.10566000000E+00 0. -1.
        -13    1    4    4    0    0 -0.17487789014E+01 -0.11579994989E+01  0.18661596095E+02  0.18779390920E+02  0.10566000000E+00 0.  1.
        -14    1    4    4    0    0 -0.11036314030E+02 -0.10316470044E+02  0.11354592832E+03  0.11454653037E+03  0.00000000000E+00 0.  1.
<mgrwt>
<rscale>  0 0.81975927E+02</rscale>
<asrwt>0</asrwt>
<pdfrwt beam="1">  1        2 0.45725900E-01 0.81975927E+02</pdfrwt>
<pdfrwt beam="2">  1       -1 0.86960835E-03 0.81975927E+02</pdfrwt>
<totfact> 0.23832121E+05</totfact>
</mgrwt>
</event>
<event>
 8    1  0.2676873E-020  0.7698406E+02  0.7818608E-02  0.1337835E+00
          2   -1    0    0  501    0  0.00000000000E+00  0.00000000000E+00  0.73018107923E+01  0.73018112375E+01  0.25500000000E-02 0. -1.
         -1   -1    0    0    0  501 -0.00000000000E+00 -0.00000000000E+00 -0.20291356816E+03  0.20291356822E+03  0.50400000000E-02 0.  1.
         24    2    1    2    0    0  0.35527136788E-14  0.00000000000E+00 -0.19561175737E+03  0.21021537946E+03  0.76984064202E+02 0.  0.
         66    2    3    3    0    0 -0.22975924852E+02  0.17023196542E+02 -0.27616905089E+02  0.39804218148E+02  0.19999981010E+01 0.  0.
        -13    1    3    3    0    0  0.22975924852E+02 -0.17023196542E+02 -0.16799485228E+03  0.17041116131E+03  0.10566000000E+00 0.  1.
         13    1    4    4    0    0 -0.84128343759E+01  0.64973461394E+01 -0.90393544373E+01  0.13953937859E+02  0.10566000000E+00 0. -1.
        -13    1    4    4    0    0 -0.31921878018E+01  0.23738952848E+01 -0.38724594786E+01  0.55527063882E+01  0.10566000000E+00 0.  1.
        -14    1    4    4    0    0 -0.11370902674E+02  0.81519551183E+01 -0.14705091173E+02  0.20297573901E+02  0.00000000000E+00 0.  1.
<mgrwt>
<rscale>  0 0.76984064E+02</rscale>
<asrwt>0</asrwt>
<pdfrwt beam="1">  1        2 0.11233557E-02 0.76984064E+02</pdfrwt>
<pdfrwt beam="2">  1       -1 0.31217468E-01 0.76984064E+02</pdfrwt>
<totfact> 0.10935246E+05</totfact>
</mgrwt>
</event>
<event>
 8    1  0.2676873E-020  0.8163228E+02  0.7818608E-02  0.1324482E+00
         -1   -1    0    0    0  501 -0.00000000000E+00  0.00000000000E+00  0.68438112800E+01  0.68438131358E+01  0.50400000000E-02 0.  1.
          2   -1    0    0  501    0  0.00000000000E+00 -0.00000000000E+00 -0.24342534673E+03  0.24342534675E+03  0.25500000000E-02 0. -1.
         24    2    1    2    0    0 -0.71054273576E-14  0.00000000000E+00 -0.23658153545E+03  0.25026915988E+03  0.81632282038E+02 0.  0.
         66    2    3    3    0    0  0.34322825883E+02  0.19684658334E+02 -0.87948135498E+02  0.96459404351E+02  0.19999999662E+01 0.  0.
        -13    1    3    3    0    0 -0.34322825883E+02 -0.19684658334E+02 -0.14863339995E+03  0.15380975553E+03  0.10566000000E+00 0.  1.
         13    1    4    4    0    0  0.30839975536E+02  0.17551833571E+02 -0.79561483414E+02  0.87116082096E+02  0.10566000000E+00 0. -1.
        -13    1    4    4    0    0  0.70861578120E+00  0.27105002245E+00 -0.13075449611E+01  0.15154016963E+01  0.10566000000E+00 0.  1.
        -14    1    4    4    0    0  0.27742345663E+01  0.18617747406E+01 -0.70791071232E+01  0.78279205588E+01  0.00000000000E+00 0.  1.
<mgrwt>
<rscale>  0 0.81632282E+02</rscale>
<asrwt>0</asrwt>
<pdfrwt beam="1">  1        2 0.37450047E-01 0.81632282E+02</pdfrwt>
<pdfrwt beam="2">  1       -1 0.10528944E-02 0.81632282E+02</pdfrwt>
<totfact> 0.22417510E+05</totfact>
</mgrwt>
</event>
<event>
 8    1  0.2676873E-020  0.7842319E+02  0.7818608E-02  0.1333587E+00
         -1   -1    0    0    0  501 -0.00000000000E+00  0.00000000000E+00  0.26065670621E+02  0.26065671109E+02  0.50400000000E-02 0.  1.
          2   -1    0    0  501    0  0.00000000000E+00 -0.00000000000E+00 -0.58987514765E+02  0.58987514820E+02  0.25500000000E-02 0. -1.
         24    2    1    2    0    0  0.00000000000E+00  0.00000000000E+00 -0.32921844144E+02  0.85053185929E+02  0.78423189267E+02 0.  0.
         66    2    3    3    0    0 -0.16444060224E+02  0.35540669625E+02 -0.18004567279E+02  0.43147546367E+02  0.20000001404E+01 0.  0.
        -13    1    3    3    0    0  0.16444060224E+02 -0.35540669625E+02 -0.14917276864E+02  0.41905639562E+02  0.10566000000E+00 0.  1.
         13    1    4    4    0    0 -0.68785203224E+01  0.13982681624E+02 -0.71248209947E+01  0.17134866952E+02  0.10566000000E+00 0. -1.
        -13    1    4    4    0    0 -0.33371090858E+01  0.81720512050E+01 -0.47733408909E+01  0.10035669646E+02  0.10566000000E+00 0.  1.
         14    1    4    4    0    0 -0.62284308155E+01  0.13385936795E+02 -0.61064053938E+01  0.15977009769E+02  0.00000000000E+00 0. -1.
<mgrwt>
<rscale>  0 0.78423189E+02</rscale>
<asrwt>0</asrwt>
<pdfrwt beam="1">  1        2 0.90750023E-02 0.78423189E+02</pdfrwt>
<pdfrwt beam="2">  1       -1 0.40101032E-02 0.78423189E+02</pdfrwt>
<totfact> 0.16367570E+05</totfact>
</mgrwt>
</event>
<event>
 8    1  0.2676873E-020  0.8385589E+02  0.7818608E-02  0.1318452E+00
         -1   -1    0    0    0  501 -0.00000000000E+00  0.00000000000E+00  0.91199560547E+02  0.91199560686E+02  0.50400000000E-02 0.  1.
          2   -1    0    0  501    0  0.00000000000E+00 -0.00000000000E+00 -0.19275889221E+02  0.19275889390E+02  0.25500000000E-02 0. -1.
         24    2    1    2    0    0  0.00000000000E+00 -0.35527136788E-14  0.71923671326E+02  0.11047545008E+03  0.83855891698E+02 0.  0.
         66    2    3    3    0    0  0.17060292803E+02 -0.26459088632E+02 -0.45195876631E+00  0.31549028916E+02  0.19999992788E+01 0.  0.
        -13    1    3    3    0    0 -0.17060292803E+02  0.26459088632E+02  0.72375630092E+02  0.78926421159E+02  0.10566000000E+00 0.  1.
         13    1    4    4    0    0  0.23758698365E+01 -0.43049121604E+01 -0.58844207190E+00  0.49532266551E+01  0.10566000000E+00 0.  1.
        -13    1    4    4    0    0  0.10403251361E+02 -0.15072592748E+02 -0.16377379904E+00  0.18315258036E+02  0.10566000000E+00 0. -1.
         14    1    4    4    0    0  0.42811716053E+01 -0.70815837234E+01  0.30025710464E+00  0.82805442258E+01  0.00000000000E+00 0. -1.
<mgrwt>
<rscale>  0 0.83855892E+02</rscale>
<asrwt>0</asrwt>
<pdfrwt beam="1">  1        2 0.29655215E-02 0.83855892E+02</pdfrwt>
<pdfrwt beam="2">  1       -1 0.14030702E-01 0.83855892E+02</pdfrwt>
<totfact> 0.10753473E+05</totfact>
</mgrwt>
</event>
<event>
 8    1  0.2676873E-020  0.7931629E+02  0.7818608E-02  0.1331003E+00
         -1   -1    0    0    0  501 -0.00000000000E+00  0.00000000000E+00  0.63901883172E+01  0.63901903048E+01  0.50400000000E-02 0.  1.
          2   -1    0    0  501    0  0.00000000000E+00 -0.00000000000E+00 -0.24612238329E+03  0.24612238330E+03  0.25500000000E-02 0. -1.
         24    2    1    2    0    0  0.00000000000E+00  0.00000000000E+00 -0.23973219497E+03  0.25251257361E+03  0.79316294187E+02 0.  0.
         66    2    3    3    0    0  0.16266381272E+02  0.35295771182E+02 -0.95204554447E+02  0.10285083280E+03  0.19999990712E+01 0.  0.
        -13    1    3    3    0    0 -0.16266381272E+02 -0.35295771182E+02 -0.14452764052E+03  0.14966174081E+03  0.10566000000E+00 0.  1.
         13    1    4    4    0    0  0.11999882169E+02  0.26498728053E+02 -0.73324523363E+02  0.78883944190E+02  0.10566000000E+00 0. -1.
        -13    1    4    4    0    0  0.26171936938E+01  0.51895912724E+01 -0.13221682473E+02  0.14443185654E+02  0.10566000000E+00 0.  1.
         14    1    4    4    0    0  0.16493054089E+01  0.36074518563E+01 -0.86583486113E+01  0.95237029511E+01  0.00000000000E+00 0. -1.
<mgrwt>
<rscale>  0 0.79316294E+02</rscale>
<asrwt>0</asrwt>
<pdfrwt beam="1">  1        2 0.37864975E-01 0.79316294E+02</pdfrwt>
<pdfrwt beam="2">  1       -1 0.98310624E-03 0.79316294E+02</pdfrwt>
<totfact> 0.24276749E+05</totfact>
</mgrwt>
</event>
<event>
 8    1  0.2676873E-020  0.8004737E+02  0.7818608E-02  0.1328917E+00
         -1   -1    0    0    0  501 -0.00000000000E+00  0.00000000000E+00  0.30522851405E+01  0.30522893016E+01  0.50400000000E-02 0.  1.
          2   -1    0    0  501    0  0.00000000000E+00 -0.00000000000E+00 -0.52481807043E+03  0.52481807044E+03  0.25500000000E-02 0. -1.
         24    2    1    2    0    0 -0.35527136788E-14  0.71054273576E-14 -0.52176578529E+03  0.52787035974E+03  0.80047373418E+02 0.  0.
         66    2    3    3    0    0  0.11986514349E+02 -0.37133286694E+02 -0.31903657891E+03  0.32142012412E+03  0.19999985736E+01 0.  0.
        -13    1    3    3    0    0 -0.11986514349E+02  0.37133286694E+02 -0.20272920638E+03  0.20645023562E+03  0.10566000000E+00 0.  1.
         13    1    4    4    0    0  0.22994334780E+01 -0.74410868307E+01 -0.59665701932E+02  0.60171956247E+02  0.10566000000E+00 0. -1.
        -13    1    4    4    0    0  0.16137227001E+01 -0.63391070727E+01 -0.57207032974E+02  0.57579893758E+02  0.10566000000E+00 0.  1.
        -14    1    4    4    0    0  0.80733581709E+01 -0.23353092790E+02 -0.20216384401E+03  0.20366827411E+03  0.00000000000E+00 0.  1.
<mgrwt>
<rscale>  0 0.80047373E+02</rscale>
<asrwt>0</asrwt>
<pdfrwt beam="1">  1        2 0.80741170E-01 0.80047373E+02</pdfrwt>
<pdfrwt beam="2">  1       -1 0.46958307E-03 0.80047373E+02</pdfrwt>
<totfact> 0.30870534E+05</totfact>
</mgrwt>
</event>
<event>
 8    1  0.2676873E-020  0.7880481E+02  0.7818608E-02  0.1332478E+00
          2   -1    0    0  501    0  0.00000000000E+00  0.00000000000E+00  0.45808367494E+03  0.45808367495E+03  0.25500000000E-02 0. -1.
         -1   -1    0    0    0  501 -0.00000000000E+00 -0.00000000000E+00 -0.33892248234E+01  0.33892285708E+01  0.50400000000E-02 0.  1.
         24    2    1    2    0    0  0.17763568394E-14  0.00000000000E+00  0.45469445012E+03  0.46147290352E+03  0.78804807686E+02 0.  0.
         66    2    3    3    0    0  0.12771355577E+02 -0.31782835222E+02  0.34123769444E+03  0.34295833602E+03  0.19999991322E+01 0.  0.
        -13    1    3    3    0    0 -0.12771355577E+02  0.31782835222E+02  0.11345675567E+03  0.11851456750E+03  0.10566000000E+00 0.  1.
         13    1    4    4    0    0  0.89364092392E+01 -0.24001681569E+02  0.25224820988E+03  0.25354508609E+03  0.10566000000E+00 0. -1.
        -13    1    4    4    0    0  0.15282803010E+01 -0.25703220372E+01  0.29345707366E+02  0.29497862650E+02  0.10566000000E+00 0.  1.
        -14    1    4    4    0    0  0.23066660368E+01 -0.52108316158E+01  0.59643777196E+02  0.59915387277E+02  0.00000000000E+00 0.  1.
<mgrwt>
<rscale>  0 0.78804808E+02</rscale>
<asrwt>0</asrwt>
<pdfrwt beam="1">  1        2 0.70474362E-01 0.78804808E+02</pdfrwt>
<pdfrwt beam="2">  1       -1 0.52141986E-03 0.78804808E+02</pdfrwt>
<totfact> 0.30778342E+05</totfact>
</mgrwt>
</event>
<event>
 8    1  0.2676873E-020  0.8362165E+02  0.7818608E-02  0.1319077E+00
         -1   -1    0    0    0  501 -0.00000000000E+00  0.00000000000E+00  0.16829118347E+02  0.16829119101E+02  0.50400000000E-02 0.  1.
          2   -1    0    0  501    0  0.00000000000E+00 -0.00000000000E+00 -0.10387621214E+03  0.10387621217E+03  0.25500000000E-02 0. -1.
         24    2    1    2    0    0  0.00000000000E+00  0.00000000000E+00 -0.87047093790E+02  0.12070533127E+03  0.83621650663E+02 0.  0.
         66    2    3    3    0    0 -0.37165332798E+02  0.10521303011E+02 -0.66561662849E+02  0.76983210736E+02  0.19999987470E+01 0.  0.
        -13    1    3    3    0    0  0.37165332798E+02 -0.10521303011E+02 -0.20485430941E+02  0.43722120533E+02  0.10566000000E+00 0.  1.
         13    1    4    4    0    0 -0.79575799877E+01  0.18538884749E+01 -0.13308145293E+02  0.15616589798E+02  0.10566000000E+00 0. -1.
        -13    1    4    4    0    0 -0.15338829827E+01  0.51408944933E+00 -0.23273799799E+01  0.28363615025E+01  0.10566000000E+00 0. -1.
         14    1    4    4    0    0 -0.27673869828E+02  0.81533250867E+01 -0.50926137576E+02  0.58530259435E+02  0.00000000000E+00 0. -1.
<mgrwt>
<rscale>  0 0.83621651E+02</rscale>
<asrwt>0</asrwt>
<pdfrwt beam="1">  1        2 0.15980955E-01 0.83621651E+02</pdfrwt>
<pdfrwt beam="2">  1       -1 0.25890953E-02 0.83621651E+02</pdfrwt>
<totfact> 0.15909899E+05</totfact>
</mgrwt>
</event>
<event>
 8    1  0.2676873E-020  0.7556878E+02  0.7818608E-02  0.1342119E+00
          2   -1    0    0  501    0  0.00000000000E+00  0.00000000000E+00  0.13282445828E+02  0.13282446072E+02  0.25500000000E-02 0. -1.
         -1   -1    0    0    0  501 -0.00000000000E+00 -0.00000000000E+00 -0.10748472286E+03  0.10748472298E+03  0.50400000000E-02 0.  1.
         24    2    1    2    0    0  0.00000000000E+00  0.00000000000E+00 -0.94202277030E+02  0.12076716905E+03  0.75568777430E+02 0.  0.
         66    2    3    3    0    0 -0.13840062236E+02 -0.16700010869E+02  0.22580758948E+01  0.21898323924E+02  0.19999995554E+01 0.  0.
        -13    1    3    3    0    0  0.13840062236E+02  0.16700010869E+02 -0.96460352925E+02  0.98868845124E+02  0.10566000000E+00 0.  1.
         13    1    4    4    0    0 -0.50297836287E+00 -0.12925702899E+01  0.19058835568E+00  0.14039989832E+01  0.10566000000E+00 0. -1.
        -13    1    4    4    0    0 -0.10268759255E+02 -0.11619220296E+02  0.13294304697E+01  0.15563812076E+02  0.10566000000E+00 0.  1.
         14    1    4    4    0    0 -0.30683246183E+01 -0.37882202828E+01  0.73805706938E+00  0.49305128650E+01  0.00000000000E+00 0. -1.
<mgrwt>
<rscale>  0 0.75568777E+02</rscale>
<asrwt>0</asrwt>
<pdfrwt beam="1">  1        2 0.20434533E-02 0.75568777E+02</pdfrwt>
<pdfrwt beam="2">  1       -1 0.16536111E-01 0.75568777E+02</pdfrwt>
<totfact> 0.13455197E+05</totfact>
</mgrwt>
</event>
<event>
 8    1  0.2676873E-020  0.7691015E+02  0.7818608E-02  0.1338056E+00
          2   -1    0    0  501    0  0.00000000000E+00  0.00000000000E+00  0.29207768238E+03  0.29207768240E+03  0.25500000000E-02 0. -1.
         -1   -1    0    0    0  501 -0.00000000000E+00 -0.00000000000E+00 -0.50630107951E+01  0.50630133036E+01  0.50400000000E-02 0.  1.
         24    2    1    2    0    0  0.88817841970E-15  0.00000000000E+00  0.28701467159E+03  0.29714069570E+03  0.76910151040E+02 0.  0.
         66    2    3    3    0    0 -0.76836859008E+01 -0.10487914838E+02  0.28331853656E+03  0.28362374468E+03  0.20000001232E+01 0.  0.
        -13    1    3    3    0    0  0.76836859008E+01  0.10487914838E+02  0.36961350282E+01  0.13516951019E+02  0.10566000000E+00 0.  1.
         13    1    4    4    0    0 -0.92422320497E+00 -0.82164714225E+00  0.22019029629E+02  0.22053982007E+02  0.10566000000E+00 0.  1.
        -13    1    4    4    0    0 -0.41777133859E+00 -0.13593736799E+01  0.27992108326E+02  0.28028409199E+02  0.10566000000E+00 0. -1.
         14    1    4    4    0    0 -0.63416913573E+01 -0.83068940159E+01  0.23330739861E+03  0.23354135347E+03  0.00000000000E+00 0. -1.
<mgrwt>
<rscale>  0 0.76910151E+02</rscale>
<asrwt>0</asrwt>
<pdfrwt beam="1">  1        2 0.44935038E-01 0.76910151E+02</pdfrwt>
<pdfrwt beam="2">  1       -1 0.77892475E-03 0.76910151E+02</pdfrwt>
<totfact> 0.27990748E+05</totfact>
</mgrwt>
</event>
<event>
 8    1  0.2676873E-020  0.7958705E+02  0.7818608E-02  0.1330227E+00
         -1   -1    0    0    0  501 -0.00000000000E+00  0.00000000000E+00  0.16716541800E+01  0.16716617778E+01  0.50400000000E-02 0.  1.
          2   -1    0    0  501    0  0.00000000000E+00 -0.00000000000E+00 -0.94727782023E+03  0.94727782023E+03  0.25500000000E-02 0. -1.
         24    2    1    2    0    0  0.00000000000E+00 -0.22204460493E-15 -0.94560616605E+03  0.94894948201E+03  0.79587047549E+02 0.  0.
         66    2    3    3    0    0  0.17486829590E+02 -0.17369825530E+01 -0.89846997066E+03  0.89864403104E+03  0.20000071844E+01 0.  0.
        -13    1    3    3    0    0 -0.17486829590E+02  0.17369825530E+01 -0.47136195387E+02  0.50305450968E+02  0.10566000000E+00 0.  1.
         13    1    4    4    0    0  0.12222769001E+02 -0.17414575798E+01 -0.63105795845E+03  0.63117872813E+03  0.10566000000E+00 0. -1.
        -13    1    4    4    0    0  0.10491421695E+01 -0.33109939547E+00 -0.60471223648E+02  0.60481322568E+02  0.10566000000E+00 0.  1.
         14    1    4    4    0    0  0.42149184202E+01  0.33557442232E+00 -0.20694078857E+03  0.20698398035E+03  0.00000000000E+00 0. -1.
<mgrwt>
<rscale>  0 0.79587048E+02</rscale>
<asrwt>0</asrwt>
<pdfrwt beam="1">  1        2 0.14573462E+00 0.79587048E+02</pdfrwt>
<pdfrwt beam="2">  1       -1 0.25717891E-03 0.79587048E+02</pdfrwt>
<totfact> 0.35590913E+05</totfact>
</mgrwt>
</event>
<event>
 8    1  0.2676873E-020  0.8106048E+02  0.7818608E-02  0.1326069E+00
          2   -1    0    0  501    0  0.00000000000E+00  0.00000000000E+00  0.99473736803E+03  0.99473736803E+03  0.25500000000E-02 0. -1.
         -1   -1    0    0    0  501 -0.00000000000E+00 -0.00000000000E+00 -0.16513871061E+01  0.16513947970E+01  0.50400000000E-02 0.  1.
         24    2    1    2    0    0  0.00000000000E+00  0.00000000000E+00  0.99308598092E+03  0.99638876283E+03  0.81060478575E+02 0.  0.
         66    2    3    3    0    0 -0.17506559754E+02  0.18507448138E+02  0.88393057165E+03  0.88429987039E+03  0.20000001964E+01 0.  0.
        -13    1    3    3    0    0  0.17506559754E+02 -0.18507448138E+02  0.10915540927E+03  0.11208889244E+03  0.10566000000E+00 0.  1.
         13    1    4    4    0    0 -0.95910156713E+01  0.11276010878E+02  0.51065954639E+03  0.51087407400E+03  0.10566000000E+00 0. -1.
        -13    1    4    4    0    0 -0.28437165999E+01  0.26748169568E+01  0.12353887248E+03  0.12360058878E+03  0.10566000000E+00 0.  1.
         14    1    4    4    0    0 -0.50718274826E+01  0.45566203037E+01  0.24973215278E+03  0.24982520761E+03  0.00000000000E+00 0. -1.
<mgrwt>
<rscale>  0 0.81060479E+02</rscale>
<asrwt>0</asrwt>
<pdfrwt beam="1">  1        2 0.15303663E+00 0.81060479E+02</pdfrwt>
<pdfrwt beam="2">  1       -1 0.25405995E-03 0.81060479E+02</pdfrwt>
<totfact> 0.34038383E+05</totfact>
</mgrwt>
</event>
<event>
 8    1  0.2676873E-020  0.7940005E+02  0.7818608E-02  0.1330763E+00
          2   -1    0    0  501    0  0.00000000000E+00  0.00000000000E+00  0.23015578964E+03  0.23015578965E+03  0.25500000000E-02 0. -1.
         -1   -1    0    0    0  501 -0.00000000000E+00 -0.00000000000E+00 -0.68479352041E+01  0.68479370587E+01  0.50400000000E-02 0.  1.
         24    2    1    2    0    0  0.00000000000E+00  0.00000000000E+00  0.22330785444E+03  0.23700372671E+03  0.79400054301E+02 0.  0.
         66    2    3    3    0    0  0.30533320330E+02  0.10957071226E+02  0.17990567117E+03  0.18281791920E+03  0.19999996856E+01 0.  0.
        -13    1    3    3    0    0 -0.30533320330E+02 -0.10957071226E+02  0.43402183262E+02  0.54185807516E+02  0.10566000000E+00 0.  1.
         13    1    4    4    0    0  0.15115143378E+02  0.52089477974E+01  0.93065887138E+02  0.94429186216E+02  0.10566000000E+00 0. -1.
        -13    1    4    4    0    0  0.14024244747E+02  0.50032962367E+01  0.77916423489E+02  0.79326493855E+02  0.10566000000E+00 0.  1.
         14    1    4    4    0    0  0.13939322053E+01  0.74482719197E+00  0.89233605456E+01  0.90622391254E+01  0.00000000000E+00 0. -1.
<mgrwt>
<rscale>  0 0.79400054E+02</rscale>
<asrwt>0</asrwt>
<pdfrwt beam="1">  1        2 0.35408583E-01 0.79400054E+02</pdfrwt>
<pdfrwt beam="2">  1       -1 0.10535286E-02 0.79400054E+02</pdfrwt>
<totfact> 0.23638120E+05</totfact>
</mgrwt>
</event>
<event>
 8    1  0.2676873E-020  0.8583737E+02  0.7818608E-02  0.1313257E+00
          2   -1    0    0  501    0  0.00000000000E+00  0.00000000000E+00  0.19236883949E+03  0.19236883951E+03  0.25500000000E-02 0. -1.
         -1   -1    0    0    0  501 -0.00000000000E+00 -0.00000000000E+00 -0.95754244728E+01  0.95754257992E+01  0.50400000000E-02 0.  1.
         24    2    1    2    0    0  0.00000000000E+00  0.00000000000E+00  0.18279341502E+03  0.20194426530E+03  0.85837367832E+02 0.  0.
         66    2    3    3    0    0  0.53647470868E+01 -0.40340038115E+02  0.12335104821E+03  0.12990604405E+03  0.19999997422E+01 0.  0.
        -13    1    3    3    0    0 -0.53647470868E+01  0.40340038115E+02  0.59442366803E+02  0.72038221256E+02  0.10566000000E+00 0.  1.
         13    1    4    4    0    0  0.40102615771E+01 -0.27659081265E+02  0.82409180410E+02  0.87019487209E+02  0.10566000000E+00 0. -1.
        -13    1    4    4    0    0  0.17183943529E+00 -0.19368848129E+01  0.56177730851E+01  0.59457203131E+01  0.10566000000E+00 0.  1.
        -14    1    4    4    0    0  0.11826460744E+01 -0.10744072037E+02  0.35324094717E+02  0.36940836527E+02  0.00000000000E+00 0.  1.
<mgrwt>
<rscale>  0 0.85837368E+02</rscale>
<asrwt>0</asrwt>
<pdfrwt beam="1">  1        2 0.29595205E-01 0.85837368E+02</pdfrwt>
<pdfrwt beam="2">  1       -1 0.14731424E-02 0.85837368E+02</pdfrwt>
<totfact> 0.18057923E+05</totfact>
</mgrwt>
</event>
<event>
 8    1  0.2676873E-020  0.8027141E+02  0.7818608E-02  0.1328283E+00
         -1   -1    0    0    0  501 -0.00000000000E+00  0.00000000000E+00  0.52948965656E+01  0.52948989643E+01  0.50400000000E-02 0.  1.
          2   -1    0    0  501    0  0.00000000000E+00 -0.00000000000E+00 -0.30423153931E+03  0.30423153932E+03  0.25500000000E-02 0. -1.
         24    2    1    2    0    0  0.00000000000E+00 -0.17763568394E-14 -0.29893664275E+03  0.30952643829E+03  0.80271412234E+02 0.  0.
         66    2    3    3    0    0  0.32375121070E+02  0.84313171739E+01 -0.23488516097E+03  0.23726414483E+03  0.20000012830E+01 0.  0.
        -13    1    3    3    0    0 -0.32375121070E+02 -0.84313171739E+01 -0.64051481774E+02  0.72262293453E+02  0.10566000000E+00 0.  1.
         13    1    4    4    0    0  0.12660749223E+02  0.36087110967E+01 -0.89771022213E+02  0.90731278840E+02  0.10566000000E+00 0. -1.
        -13    1    4    4    0    0  0.52607851467E+00  0.91583374899E-01 -0.55067346114E+01  0.55335735501E+01  0.10566000000E+00 0.  1.
        -14    1    4    4    0    0  0.19188293332E+02  0.47310227022E+01 -0.13960740415E+03  0.14099929244E+03  0.00000000000E+00 0.  1.
<mgrwt>
<rscale>  0 0.80271412E+02</rscale>
<asrwt>0</asrwt>
<pdfrwt beam="1">  1        2 0.46804839E-01 0.80271412E+02</pdfrwt>
<pdfrwt beam="2">  1       -1 0.81459990E-03 0.80271412E+02</pdfrwt>
<totfact> 0.25397542E+05</totfact>
</mgrwt>
</event>
<event>
 8    1  0.2676873E-020  0.8051734E+02  0.7818608E-02  0.1327590E+00
         -1   -1    0    0    0  501 -0.00000000000E+00  0.00000000000E+00  0.23609274255E+01  0.23609328051E+01  0.50400000000E-02 0.  1.
          2   -1    0    0  501    0  0.00000000000E+00 -0.00000000000E+00 -0.68649233008E+03  0.68649233009E+03  0.25500000000E-02 0. -1.
         24    2    1    2    0    0 -0.44408920985E-15  0.00000000000E+00 -0.68413140265E+03  0.68885326289E+03  0.80517337860E+02 0.  0.
         66    2    3    3    0    0  0.25869950291E+01  0.26404170797E+02 -0.60104979292E+03  0.60163836841E+03  0.19999993220E+01 0.  0.
        -13    1    3    3    0    0 -0.25869950291E+01 -0.26404170797E+02 -0.83081609737E+02  0.87214894481E+02  0.10566000000E+00 0.  1.
         13    1    4    4    0    0  0.13404502051E+01  0.63505669452E+01 -0.14674704391E+03  0.14689054621E+03  0.10566000000E+00 0. -1.
        -13    1    4    4    0    0  0.15629629850E+00  0.15396131458E+01 -0.40442167049E+02  0.40471902313E+02  0.10566000000E+00 0. -1.
         14    1    4    4    0    0  0.10902485255E+01  0.18513990706E+02 -0.41386058196E+03  0.41427591988E+03  0.00000000000E+00 0. -1.
<mgrwt>
<rscale>  0 0.80517338E+02</rscale>
<asrwt>0</asrwt>
<pdfrwt beam="1">  1        2 0.10561405E+00 0.80517338E+02</pdfrwt>
<pdfrwt beam="2">  1       -1 0.36322057E-03 0.80517338E+02</pdfrwt>
<totfact> 0.32746978E+05</totfact>
</mgrwt>
</event>
<event>
 8    1  0.2676873E-020  0.8037041E+02  0.7818608E-02  0.1328004E+00
         -1   -1    0    0    0  501 -0.00000000000E+00  0.00000000000E+00  0.11189356428E+02  0.11189357563E+02  0.50400000000E-02 0.  1.
          2   -1    0    0  501    0  0.00000000000E+00 -0.00000000000E+00 -0.14432024280E+03  0.14432024282E+03  0.25500000000E-02 0. -1.
         24    2    1    2    0    0  0.71054273576E-14  0.00000000000E+00 -0.13313088637E+03  0.15550960039E+03  0.80370410636E+02 0.  0.
         66    2    3    3    0    0 -0.39185963937E+02  0.28762505490E+01 -0.82682990548E+02  0.91565766093E+02  0.20000018215E+01 0.  0.
        -13    1    3    3    0    0  0.39185963937E+02 -0.28762505490E+01 -0.50447895825E+02  0.63943834294E+02  0.10566000000E+00 0.  1.
         13    1    4    4    0    0 -0.20168386202E+02  0.12329242563E+01 -0.43501961372E+02  0.47965776460E+02  0.10566000000E+00 0. -1.
        -13    1    4    4    0    0 -0.56685398560E+01  0.64759149147E+00 -0.12920022643E+02  0.14124088218E+02  0.10566000000E+00 0.  1.
        -14    1    4    4    0    0 -0.13349037880E+02  0.99573480121E+00 -0.26261006533E+02  0.29475901415E+02  0.00000000000E+00 0.  1.
<mgrwt>
<rscale>  0 0.80370411E+02</rscale>
<asrwt>0</asrwt>
<pdfrwt beam="1">  1        2 0.22203113E-01 0.80370411E+02</pdfrwt>
<pdfrwt beam="2">  1       -1 0.17214396E-02 0.80370411E+02</pdfrwt>
<totfact> 0.19542564E+05</totfact>
</mgrwt>
</event>
<event>
 8    1  0.2676873E-020  0.7789900E+02  0.7818608E-02  0.1335122E+00
         -1   -1    0    0    0  501 -0.00000000000E+00  0.00000000000E+00  0.66149074522E+02  0.66149074714E+02  0.50400000000E-02 0.  1.
          2   -1    0    0  501    0  0.00000000000E+00 -0.00000000000E+00 -0.22934007928E+02  0.22934008070E+02  0.25500000000E-02 0. -1.
         24    2    1    2    0    0  0.00000000000E+00  0.00000000000E+00  0.43215066594E+02  0.89083082783E+02  0.77898996511E+02 0.  0.
         66    2    3    3    0    0  0.30587289632E+02  0.31611865817E+01 -0.56682797211E+01  0.31332168517E+02  0.20000003414E+01 0.  0.
        -13    1    3    3    0    0 -0.30587289632E+02 -0.31611865817E+01  0.48883346315E+02  0.57750914266E+02  0.10566000000E+00 0.  1.
         13    1    4    4    0    0  0.11124132435E+02  0.72128702973E+00 -0.15663024611E+01  0.11257488390E+02  0.10566000000E+00 0. -1.
        -13    1    4    4    0    0  0.74532746371E+01  0.67569962764E+00 -0.10476969945E+01  0.75575595155E+01  0.10566000000E+00 0.  1.
        -14    1    4    4    0    0  0.12009882559E+02  0.17641999243E+01 -0.30542802655E+01  0.12517120611E+02  0.00000000000E+00 0.  1.
<mgrwt>
<rscale>  0 0.77898997E+02</rscale>
<asrwt>0</asrwt>
<pdfrwt beam="1">  1        2 0.35283089E-02 0.77898997E+02</pdfrwt>
<pdfrwt beam="2">  1       -1 0.10176781E-01 0.77898997E+02</pdfrwt>
<totfact> 0.13762364E+05</totfact>
</mgrwt>
</event>
<event>
 8    1  0.2676873E-020  0.7967382E+02  0.7818608E-02  0.1329980E+00
          2   -1    0    0  501    0  0.00000000000E+00  0.00000000000E+00  0.51133195034E+03  0.51133195035E+03  0.25500000000E-02 0. -1.
         -1   -1    0    0    0  501 -0.00000000000E+00 -0.00000000000E+00 -0.31036163368E+01  0.31036204290E+01  0.50400000000E-02 0.  1.
         24    2    1    2    0    0 -0.17763568394E-14  0.00000000000E+00  0.50822833401E+03  0.51443557078E+03  0.79673816247E+02 0.  0.
         66    2    3    3    0    0  0.12541628086E+02  0.19571607852E+02  0.46296183360E+03  0.46354934974E+03  0.20000002954E+01 0.  0.
        -13    1    3    3    0    0 -0.12541628086E+02 -0.19571607852E+02  0.45266500407E+02  0.50886221043E+02  0.10566000000E+00 0.  1.
         13    1    4    4    0    0  0.46105517165E+01  0.74766328349E+01  0.18032251702E+03  0.18053636346E+03  0.10566000000E+00 0. -1.
        -13    1    4    4    0    0  0.43492312109E+01  0.78872891723E+01  0.17879863343E+03  0.17902538262E+03  0.10566000000E+00 0.  1.
         14    1    4    4    0    0  0.35818451583E+01  0.42076858446E+01  0.10384068315E+03  0.10398760365E+03  0.00000000000E+00 0. -1.
<mgrwt>
<rscale>  0 0.79673816E+02</rscale>
<asrwt>0</asrwt>
<pdfrwt beam="1">  1        2 0.78666343E-01 0.79673816E+02</pdfrwt>
<pdfrwt beam="2">  1       -1 0.47748043E-03 0.79673816E+02</pdfrwt>
<totfact> 0.30996301E+05</totfact>
</mgrwt>
</event>
<event>
 8    1  0.2676873E-020  0.7951142E+02  0.7818608E-02  0.1330444E+00
         -1   -1    0    0    0  501 -0.00000000000E+00  0.00000000000E+00  0.11734982888E+03  0.11734982899E+03  0.50400000000E-02 0.  1.
          2   -1    0    0  501    0  0.00000000000E+00 -0.00000000000E+00 -0.13468416137E+02  0.13468416379E+02  0.25500000000E-02 0. -1.
         24    2    1    2    0    0  0.35527136788E-14 -0.35527136788E-14  0.10388141274E+03  0.13081824537E+03  0.79511416837E+02 0.  0.
         66    2    3    3    0    0  0.31129775708E+02 -0.24207029647E+02  0.59943848625E+02  0.71779580708E+02  0.19999997003E+01 0.  0.
        -13    1    3    3    0    0 -0.31129775708E+02  0.24207029647E+02  0.43937564118E+02  0.59038664658E+02  0.10566000000E+00 0.  1.
         13    1    4    4    0    0  0.22256083730E+02 -0.18010667719E+02  0.44333912370E+02  0.52775224914E+02  0.10566000000E+00 0. -1.
        -13    1    4    4    0    0  0.46911170110E+01 -0.29320668557E+01  0.78494178198E+01  0.96035472094E+01  0.10566000000E+00 0.  1.
         14    1    4    4    0    0  0.41825749667E+01 -0.32642950724E+01  0.77605184349E+01  0.94008085849E+01  0.00000000000E+00 0. -1.
<mgrwt>
<rscale>  0 0.79511417E+02</rscale>
<asrwt>0</asrwt>
<pdfrwt beam="1">  1        2 0.20720640E-02 0.79511417E+02</pdfrwt>
<pdfrwt beam="2">  1       -1 0.18053820E-01 0.79511417E+02</pdfrwt>
<totfact> 0.11619722E+05</totfact>
</mgrwt>
</event>
<event>
 8    1  0.2676873E-020  0.8182008E+02  0.7818608E-02  0.1323964E+00
          2   -1    0    0  501    0  0.00000000000E+00  0.00000000000E+00  0.36167338790E+02  0.36167338880E+02  0.25500000000E-02 0. -1.
         -1   -1    0    0    0  501 -0.00000000000E+00 -0.00000000000E+00 -0.46274660769E+02  0.46274661044E+02  0.50400000000E-02 0.  1.
         24    2    1    2    0    0  0.17763568394E-14  0.00000000000E+00 -0.10107321980E+02  0.82441999924E+02  0.81820079405E+02 0.  0.
         66    2    3    3    0    0  0.14619033903E+02  0.28723486405E+02  0.20291485758E+02  0.38137897411E+02  0.20000002855E+01 0.  0.
        -13    1    3    3    0    0 -0.14619033903E+02 -0.28723486405E+02 -0.30398807738E+02  0.44304102512E+02  0.10566000000E+00 0.  1.
         13    1    4    4    0    0  0.64599996542E+01  0.13426049195E+02  0.90838873898E+01  0.17450460357E+02  0.10566000000E+00 0. -1.
        -13    1    4    4    0    0  0.78720923983E+01  0.14201269547E+02  0.10234203194E+02  0.19193644118E+02  0.10566000000E+00 0.  1.
        -14    1    4    4    0    0  0.28694185060E+00  0.10961676629E+01  0.97339517435E+00  0.14937929362E+01  0.00000000000E+00 0.  1.
<mgrwt>
<rscale>  0 0.81820079E+02</rscale>
<asrwt>0</asrwt>
<pdfrwt beam="1">  1        2 0.55642060E-02 0.81820079E+02</pdfrwt>
<pdfrwt beam="2">  1       -1 0.71191787E-02 0.81820079E+02</pdfrwt>
<totfact> 0.13118573E+05</totfact>
</mgrwt>
</event>
<event>
 8    1  0.2676873E-020  0.7859561E+02  0.7818608E-02  0.1333085E+00
          2   -1    0    0  501    0  0.00000000000E+00  0.00000000000E+00  0.18898346811E+03  0.18898346813E+03  0.25500000000E-02 0. -1.
         -1   -1    0    0    0  501 -0.00000000000E+00 -0.00000000000E+00 -0.81717067688E+01  0.81717083230E+01  0.50400000000E-02 0.  1.
         24    2    1    2    0    0  0.00000000000E+00  0.00000000000E+00  0.18081176134E+03  0.19715517645E+03  0.78595614139E+02 0.  0.
         66    2    3    3    0    0 -0.27535554835E+02  0.27684004005E+02  0.10101830803E+03  0.10832040165E+03  0.19999998594E+01 0.  0.
        -13    1    3    3    0    0  0.27535554835E+02 -0.27684004005E+02  0.79793453314E+02  0.88834774799E+02  0.10566000000E+00 0.  1.
         13    1    4    4    0    0 -0.23009642073E+02  0.22313885113E+02  0.82482464932E+02  0.88491362756E+02  0.10566000000E+00 0. -1.
        -13    1    4    4    0    0 -0.24000873208E+01  0.27861028240E+01  0.10426464689E+02  0.11056451422E+02  0.10566000000E+00 0.  1.
         14    1    4    4    0    0 -0.21258254407E+01  0.25840160683E+01  0.81093784085E+01  0.87725874756E+01  0.00000000000E+00 0. -1.
<mgrwt>
<rscale>  0 0.78595614E+02</rscale>
<asrwt>0</asrwt>
<pdfrwt beam="1">  1        2 0.29074378E-01 0.78595614E+02</pdfrwt>
<pdfrwt beam="2">  1       -1 0.12571859E-02 0.78595614E+02</pdfrwt>
<totfact> 0.22666136E+05</totfact>
</mgrwt>
</event>
<event>
 8    1  0.2676873E-020  0.8007182E+02  0.7818608E-02  0.1328848E+00
         -1   -1    0    0    0  501 -0.00000000000E+00  0.00000000000E+00  0.11106175837E+03  0.11106175849E+03  0.50400000000E-02 0.  1.
          2   -1    0    0  501    0  0.00000000000E+00 -0.00000000000E+00 -0.14432275989E+02  0.14432276214E+02  0.25500000000E-02 0. -1.
         24    2    1    2    0    0 -0.35527136788E-14 -0.35527136788E-14  0.96629482385E+02  0.12549403470E+03  0.80071817015E+02 0.  0.
         66    2    3    3    0    0 -0.28733540004E+02 -0.27821038934E+02  0.50091779897E+02  0.64131216601E+02  0.20000002307E+01 0.  0.
        -13    1    3    3    0    0  0.28733540004E+02  0.27821038934E+02  0.46537702488E+02  0.61362818102E+02  0.10566000000E+00 0.  1.
         13    1    4    4    0    0 -0.22236543000E+02 -0.21452261816E+02  0.38410368565E+02  0.49295344191E+02  0.10566000000E+00 0. -1.
        -13    1    4    4    0    0 -0.80156664201E+00 -0.45858499426E+00  0.13917133860E+01  0.16735708718E+01  0.10566000000E+00 0.  1.
         14    1    4    4    0    0 -0.56954303620E+01 -0.59101921232E+01  0.10289697946E+02  0.13162301538E+02  0.00000000000E+00 0. -1.
<mgrwt>
<rscale>  0 0.80071817E+02</rscale>
<asrwt>0</asrwt>
<pdfrwt beam="1">  1        2 0.22203500E-02 0.80071817E+02</pdfrwt>
<pdfrwt beam="2">  1       -1 0.17086425E-01 0.80071817E+02</pdfrwt>
<totfact> 0.11558912E+05</totfact>
</mgrwt>
</event>
<event>
 8    1  0.2676873E-020  0.7879487E+02  0.7818608E-02  0.1332507E+00
         -1   -1    0    0    0  501 -0.00000000000E+00  0.00000000000E+00  0.13216774523E+01  0.13216870618E+01  0.50400000000E-02 0.  1.
          2   -1    0    0  501    0  0.00000000000E+00 -0.00000000000E+00 -0.11743806490E+04  0.11743806491E+04  0.25500000000E-02 0. -1.
         24    2    1    2    0    0  0.00000000000E+00  0.00000000000E+00 -0.11730589716E+04  0.11757023361E+04  0.78794874830E+02 0.  0.
         66    2    3    3    0    0  0.72240704269E+01 -0.21760782767E+02 -0.10644811756E+04  0.10647299620E+04  0.19999994379E+01 0.  0.
        -13    1    3    3    0    0 -0.72240704269E+01  0.21760782767E+02 -0.10857779601E+03  0.11097237409E+03  0.10566000000E+00 0.  1.
         13    1    4    4    0    0  0.14093514475E+01 -0.42706173663E+01 -0.21869820888E+03  0.21874446776E+03  0.10566000000E+00 0. -1.
        -13    1    4    4    0    0  0.62664406473E+00 -0.94261798771E+00 -0.65250418911E+02  0.65260321356E+02  0.10566000000E+00 0. -1.
        -14    1    4    4    0    0  0.51880749147E+01 -0.16547547413E+02 -0.78053254780E+03  0.78072517291E+03  0.00000000000E+00 0.  1.
<mgrwt>
<rscale>  0 0.78794875E+02</rscale>
<asrwt>0</asrwt>
<pdfrwt beam="1">  1        2 0.18067311E+00 0.78794875E+02</pdfrwt>
<pdfrwt beam="2">  1       -1 0.20333667E-03 0.78794875E+02</pdfrwt>
<totfact> 0.36523871E+05</totfact>
</mgrwt>
</event>
<event>
 8    1  0.2676873E-020  0.7933843E+02  0.7818608E-02  0.1330939E+00
          2   -1    0    0  501    0  0.00000000000E+00  0.00000000000E+00  0.20802375602E+02  0.20802375758E+02  0.25500000000E-02 0. -1.
         -1   -1    0    0    0  501 -0.00000000000E+00 -0.00000000000E+00 -0.75647437361E+02  0.75647437529E+02  0.50400000000E-02 0.  1.
         24    2    1    2    0    0  0.00000000000E+00  0.00000000000E+00 -0.54845061759E+02  0.96449813287E+02  0.79338425015E+02 0.  0.
         66    2    3    3    0    0  0.34521767520E+02 -0.15308939715E+02 -0.12774734418E+02  0.39916286292E+02  0.20000009834E+01 0.  0.
        -13    1    3    3    0    0 -0.34521767520E+02  0.15308939715E+02 -0.42070327341E+02  0.56533526996E+02  0.10566000000E+00 0.  1.
         13    1    4    4    0    0  0.83855617713E+01 -0.39788198323E+01 -0.35179235076E+01  0.99265101279E+01  0.10566000000E+00 0. -1.
        -13    1    4    4    0    0  0.18548571519E+02 -0.73975043518E+01 -0.68380365216E+01  0.21107877286E+02  0.10566000000E+00 0.  1.
        -14    1    4    4    0    0  0.75876342306E+01 -0.39326155312E+01 -0.24187743891E+01  0.88818988780E+01  0.00000000000E+00 0.  1.
<mgrwt>
<rscale>  0 0.79338425E+02</rscale>
<asrwt>0</asrwt>
<pdfrwt beam="1">  1        2 0.32003655E-02 0.79338425E+02</pdfrwt>
<pdfrwt beam="2">  1       -1 0.11638067E-01 0.79338425E+02</pdfrwt>
<totfact> 0.12815597E+05</totfact>
</mgrwt>
</event>
<event>
 8    1  0.2676873E-020  0.8475435E+02  0.7818608E-02  0.1316076E+00
          2   -1    0    0  501    0  0.00000000000E+00  0.00000000000E+00  0.16022764352E+03  0.16022764354E+03  0.25500000000E-02 0. -1.
         -1   -1    0    0    0  501 -0.00000000000E+00 -0.00000000000E+00 -0.11207960339E+02  0.11207961472E+02  0.50400000000E-02 0.  1.
         24    2    1    2    0    0  0.00000000000E+00 -0.71054273576E-14  0.14901968318E+03  0.17143560501E+03  0.84754354995E+02 0.  0.
         66    2    3    3    0    0 -0.58228956383E+01  0.41153220646E+02  0.58077847679E+02  0.71445994094E+02  0.19999994731E+01 0.  0.
        -13    1    3    3    0    0  0.58228956383E+01 -0.41153220646E+02  0.90941835501E+02  0.99989610918E+02  0.10566000000E+00 0.  1.
         13    1    4    4    0    0 -0.16475992256E-01  0.11562391196E+01  0.12931900852E+01  0.17380060392E+01  0.10566000000E+00 0. -1.
        -13    1    4    4    0    0 -0.23140105347E+01  0.15573898430E+02  0.21207964936E+02  0.26413820205E+02  0.10566000000E+00 0.  1.
         14    1    4    4    0    0 -0.34924091113E+01  0.24423083096E+02  0.35576692658E+02  0.43294167850E+02  0.00000000000E+00 0. -1.
<mgrwt>
<rscale>  0 0.84754355E+02</rscale>
<asrwt>0</asrwt>
<pdfrwt beam="1">  1        2 0.24650406E-01 0.84754355E+02</pdfrwt>
<pdfrwt beam="2">  1       -1 0.17243017E-02 0.84754355E+02</pdfrwt>
<totfact> 0.17553093E+05</totfact>
</mgrwt>
</event>
<event>
 8    1  0.2676873E-020  0.8617616E+02  0.7818608E-02  0.1312385E+00
          2   -1    0    0  501    0  0.00000000000E+00  0.00000000000E+00  0.18039913648E+02  0.18039913828E+02  0.25500000000E-02 0. -1.
         -1   -1    0    0    0  501 -0.00000000000E+00 -0.00000000000E+00 -0.10291527808E+03  0.10291527820E+03  0.50400000000E-02 0.  1.
         24    2    1    2    0    0  0.88817841970E-15  0.35527136788E-14 -0.84875364432E+02  0.12095519203E+03  0.86176162551E+02 0.  0.
         66    2    3    3    0    0  0.49223484320E+01  0.27623452689E+02  0.33937325151E+01  0.28333762047E+02  0.19999996983E+01 0.  0.
        -13    1    3    3    0    0 -0.49223484320E+01 -0.27623452689E+02 -0.88269096947E+02  0.92621429985E+02  0.10566000000E+00 0.  1.
         13    1    4    4    0    0  0.25657819595E+01  0.17698364661E+02  0.14271786895E+01  0.17940550487E+02  0.10566000000E+00 0. -1.
        -13    1    4    4    0    0  0.75906641912E+00  0.27595431366E+01  0.54335073808E+00  0.29150736203E+01  0.10566000000E+00 0.  1.
         14    1    4    4    0    0  0.15975000534E+01  0.71655448919E+01  0.14232030875E+01  0.74781379398E+01  0.00000000000E+00 0. -1.
<mgrwt>
<rscale>  0 0.86176163E+02</rscale>
<asrwt>0</asrwt>
<pdfrwt beam="1">  1        2 0.27753714E-02 0.86176163E+02</pdfrwt>
<pdfrwt beam="2">  1       -1 0.15833119E-01 0.86176163E+02</pdfrwt>
<totfact> 0.97851405E+04</totfact>
</mgrwt>
</event>
<event>
 8    1  0.2676873E-020  0.7881012E+02  0.7818608E-02  0.1332462E+00
          2   -1    0    0  501    0  0.00000000000E+00  0.00000000000E+00  0.29535810058E+03  0.29535810059E+03  0.25500000000E-02 0. -1.
         -1   -1    0    0    0  501 -0.00000000000E+00 -0.00000000000E+00 -0.52572063243E+01  0.52572087402E+01  0.50400000000E-02 0.  1.
         24    2    1    2    0    0  0.88817841970E-15 -0.17763568394E-14  0.29010089426E+03  0.30061530933E+03  0.78810122170E+02 0.  0.
         66    2    3    3    0    0  0.49042507504E+01 -0.92722298618E+01  0.28992744004E+03  0.29012401902E+03  0.20000004863E+01 0.  0.
        -13    1    3    3    0    0 -0.49042507504E+01  0.92722298618E+01  0.17345421726E+00  0.10491290313E+02  0.10566000000E+00 0.  1.
         13    1    4    4    0    0  0.15593521167E+01 -0.30718523474E+01  0.84192901857E+02  0.84263418771E+02  0.10566000000E+00 0. -1.
        -13    1    4    4    0    0  0.33388584751E+01 -0.51700975213E+01  0.17083723586E+03  0.17094809213E+03  0.10566000000E+00 0.  1.
        -14    1    4    4    0    0  0.60401585453E-02 -0.10302799931E+01  0.34897302327E+02  0.34912508118E+02  0.00000000000E+00 0.  1.
<mgrwt>
<rscale>  0 0.78810122E+02</rscale>
<asrwt>0</asrwt>
<pdfrwt beam="1">  1        2 0.45439725E-01 0.78810122E+02</pdfrwt>
<pdfrwt beam="2">  1       -1 0.80880085E-03 0.78810122E+02</pdfrwt>
<totfact> 0.26366191E+05</totfact>
</mgrwt>
</event>
<event>
 8    1  0.2676873E-020  0.7978995E+02  0.7818608E-02  0.1329649E+00
          2   -1    0    0  501    0  0.00000000000E+00  0.00000000000E+00  0.70865886162E+03  0.70865886163E+03  0.25500000000E-02 0. -1.
         -1   -1    0    0    0  501 -0.00000000000E+00 -0.00000000000E+00 -0.22459425867E+01  0.22459482417E+01  0.50400000000E-02 0.  1.
         24    2    1    2    0    0  0.00000000000E+00 -0.71054273576E-14  0.70641291904E+03  0.71090480987E+03  0.79789952462E+02 0.  0.
         66    2    3    3    0    0 -0.41425388799E+01  0.35361628929E+02  0.51330635502E+03  0.51454350600E+03  0.20000072466E+01 0.  0.
        -13    1    3    3    0    0  0.41425388799E+01 -0.35361628929E+02  0.19310656402E+03  0.19636130387E+03  0.10566000000E+00 0.  1.
         13    1    4    4    0    0 -0.28818332582E+01  0.17604514897E+02  0.25752304894E+03  0.25814018634E+03  0.10566000000E+00 0. -1.
        -13    1    4    4    0    0 -0.12075321144E+01  0.17516507792E+02  0.25329425545E+03  0.25390210158E+03  0.10566000000E+00 0.  1.
        -14    1    4    4    0    0 -0.53173507351E-01  0.24060624055E+00  0.24890506331E+01  0.25012180711E+01  0.00000000000E+00 0.  1.
<mgrwt>
<rscale>  0 0.79789952E+02</rscale>
<asrwt>0</asrwt>
<pdfrwt beam="1">  1        2 0.10902462E+00 0.79789952E+02</pdfrwt>
<pdfrwt beam="2">  1       -1 0.34552948E-03 0.79789952E+02</pdfrwt>
<totfact> 0.33775006E+05</totfact>
</mgrwt>
</event>
<event>
 8    1  0.2676873E-020  0.8033250E+02  0.7818608E-02  0.1328110E+00
         -1   -1    0    0    0  501 -0.00000000000E+00  0.00000000000E+00  0.22011856988E+02  0.22011857565E+02  0.50400000000E-02 0.  1.
          2   -1    0    0  501    0  0.00000000000E+00 -0.00000000000E+00 -0.73293569732E+02  0.73293569777E+02  0.25500000000E-02 0. -1.
         24    2    1    2    0    0  0.35527136788E-14  0.00000000000E+00 -0.51281712744E+02  0.95305427342E+02  0.80332499145E+02 0.  0.
         66    2    3    3    0    0  0.29172006698E+02  0.19124811142E+02 -0.49222490978E+02  0.60362388918E+02  0.20000004499E+01 0.  0.
        -13    1    3    3    0    0 -0.29172006698E+02 -0.19124811142E+02 -0.20592217664E+01  0.34943038424E+02  0.10566000000E+00 0.  1.
         13    1    4    4    0    0  0.99215748693E+01  0.69031022208E+01 -0.17028533744E+02  0.20882351249E+02  0.10566000000E+00 0. -1.
        -13    1    4    4    0    0  0.66713986642E+01  0.41246673115E+01 -0.98773208053E+01  0.12613210174E+02  0.10566000000E+00 0.  1.
        -14    1    4    4    0    0  0.12579033164E+02  0.80970416099E+01 -0.22316636428E+02  0.26866827495E+02  0.00000000000E+00 0.  1.
<mgrwt>
<rscale>  0 0.80332499E+02</rscale>
<asrwt>0</asrwt>
<pdfrwt beam="1">  1        2 0.11275934E-01 0.80332499E+02</pdfrwt>
<pdfrwt beam="2">  1       -1 0.33864396E-02 0.80332499E+02</pdfrwt>
<totfact> 0.16148305E+05</totfact>
</mgrwt>
</event>
<event>
 8    1  0.2676873E-020  0.7692652E+02  0.7818608E-02  0.1338007E+00
          2   -1    0    0  501    0  0.00000000000E+00  0.00000000000E+00  0.50754132039E+03  0.50754132039E+03  0.25500000000E-02 0. -1.
         -1   -1    0    0    0  501 -0.00000000000E+00 -0.00000000000E+00 -0.29148786188E+01  0.29148829760E+01  0.50400000000E-02 0.  1.
         24    2    1    2    0    0  0.00000000000E+00 -0.22204460493E-15  0.50462644177E+03  0.51045620337E+03  0.76926522257E+02 0.  0.
         66    2    3    3    0    0  0.26244343155E+02  0.11798198898E+01  0.43866692045E+03  0.43945742071E+03  0.19999992076E+01 0.  0.
        -13    1    3    3    0    0 -0.26244343155E+02 -0.11798198898E+01  0.65959521317E+02  0.70998782659E+02  0.10566000000E+00 0.  1.
         13    1    4    4    0    0  0.16735321016E+02 -0.14572379399E+00  0.27918013369E+03  0.27968133727E+03  0.10566000000E+00 0. -1.
        -13    1    4    4    0    0  0.44397916084E+01  0.71602815866E+00  0.77606350702E+02  0.77736614791E+02  0.10566000000E+00 0.  1.
        -14    1    4    4    0    0  0.50692305308E+01  0.60951552509E+00  0.81880436053E+02  0.82039468645E+02  0.00000000000E+00 0.  1.
<mgrwt>
<rscale>  0 0.76926522E+02</rscale>
<asrwt>0</asrwt>
<pdfrwt beam="1">  1        2 0.78083310E-01 0.76926522E+02</pdfrwt>
<pdfrwt beam="2">  1       -1 0.44844303E-03 0.76926522E+02</pdfrwt>
<totfact> 0.33878083E+05</totfact>
</mgrwt>
</event>
<event>
 8    1  0.2676873E-020  0.7923967E+02  0.7818608E-02  0.1331223E+00
         -1   -1    0    0    0  501 -0.00000000000E+00  0.00000000000E+00  0.35468449318E+01  0.35468485127E+01  0.50400000000E-02 0.  1.
          2   -1    0    0  501    0  0.00000000000E+00 -0.00000000000E+00 -0.44257094545E+03  0.44257094546E+03  0.25500000000E-02 0. -1.
         24    2    1    2    0    0  0.00000000000E+00 -0.35527136788E-14 -0.43902410052E+03  0.44611779397E+03  0.79239669743E+02 0.  0.
         66    2    3    3    0    0  0.29675662424E+02  0.21423863572E+02 -0.30468088858E+03  0.30687794109E+03  0.19999986450E+01 0.  0.
        -13    1    3    3    0    0 -0.29675662424E+02 -0.21423863572E+02 -0.13434321195E+03  0.13923985288E+03  0.10566000000E+00 0.  1.
         13    1    4    4    0    0  0.50913262388E+00  0.32317691435E+00 -0.42910601070E+01  0.43345149929E+01  0.10566000000E+00 0.  1.
        -13    1    4    4    0    0  0.12738828071E+02  0.99354281232E+01 -0.13026828724E+03  0.13126624965E+03  0.10566000000E+00 0.  1.
         14    1    4    4    0    0  0.16427701729E+02  0.11165258534E+02 -0.17012154123E+03  0.17127717645E+03  0.00000000000E+00 0. -1.
<mgrwt>
<rscale>  0 0.79239670E+02</rscale>
<asrwt>0</asrwt>
<pdfrwt beam="1">  1        2 0.68087794E-01 0.79239670E+02</pdfrwt>
<pdfrwt beam="2">  1       -1 0.54566908E-03 0.79239670E+02</pdfrwt>
<totfact> 0.29991786E+05</totfact>
</mgrwt>
</event>
<event>
 8    1  0.2676873E-020  0.8098062E+02  0.7818608E-02  0.1326291E+00
         -1   -1    0    0    0  501 -0.00000000000E+00  0.00000000000E+00  0.98758861492E+02  0.98758861621E+02  0.50400000000E-02 0.  1.
          2   -1    0    0  501    0  0.00000000000E+00 -0.00000000000E+00 -0.16600689819E+02  0.16600690015E+02  0.25500000000E-02 0. -1.
         24    2    1    2    0    0  0.00000000000E+00 -0.35527136788E-14  0.82158171673E+02  0.11535955164E+03  0.80980621020E+02 0.  0.
         66    2    3    3    0    0 -0.32888248750E+02 -0.23491843044E+02  0.38270479084E+02  0.55696796752E+02  0.20000009127E+01 0.  0.
        -13    1    3    3    0    0  0.32888248750E+02  0.23491843044E+02  0.43887692589E+02  0.59662754884E+02  0.10566000000E+00 0.  1.
         13    1    4    4    0    0 -0.22503430794E+02 -0.15821355071E+02  0.24813369525E+02  0.37046378298E+02  0.10566000000E+00 0. -1.
        -13    1    4    4    0    0 -0.63102216868E+01 -0.47704724243E+01  0.83235216494E+01  0.11483400262E+02  0.10566000000E+00 0. -1.
        -14    1    4    4    0    0 -0.40745962691E+01 -0.29000155486E+01  0.51335879091E+01  0.71670181916E+01  0.00000000000E+00 0.  1.
<mgrwt>
<rscale>  0 0.80980621E+02</rscale>
<asrwt>0</asrwt>
<pdfrwt beam="1">  1        2 0.25539523E-02 0.80980621E+02</pdfrwt>
<pdfrwt beam="2">  1       -1 0.15193671E-01 0.80980621E+02</pdfrwt>
<totfact> 0.11529415E+05</totfact>
</mgrwt>
</event>
<event>
 8    1  0.2676873E-020  0.7525723E+02  0.7818608E-02  0.1343076E+00
          2   -1    0    0  501    0  0.00000000000E+00  0.00000000000E+00  0.11462233281E+03  0.11462233284E+03  0.25500000000E-02 0. -1.
         -1   -1    0    0    0  501 -0.00000000000E+00 -0.00000000000E+00 -0.12352851658E+02  0.12352852686E+02  0.50400000000E-02 0.  1.
         24    2    1    2    0    0  0.00000000000E+00  0.00000000000E+00  0.10226948116E+03  0.12697518553E+03  0.75257231972E+02 0.  0.
         66    2    3    3    0    0 -0.27627377093E+02  0.24330281687E+02  0.64094571983E+02  0.73941522385E+02  0.20000007255E+01 0.  0.
        -13    1    3    3    0    0  0.27627377093E+02 -0.24330281687E+02  0.38174909172E+02  0.53033663143E+02  0.10566000000E+00 0.  1.
         13    1    4    4    0    0 -0.96152674482E+01  0.82829226246E+01  0.21080476279E+02  0.24606052497E+02  0.10566000000E+00 0. -1.
        -13    1    4    4    0    0 -0.92992420814E+01  0.90069664017E+01  0.22249254650E+02  0.25741830618E+02  0.10566000000E+00 0.  1.
        -14    1    4    4    0    0 -0.87128675639E+01  0.70403926606E+01  0.20764841054E+02  0.23593639270E+02  0.00000000000E+00 0.  1.
<mgrwt>
<rscale>  0 0.75257232E+02</rscale>
<asrwt>0</asrwt>
<pdfrwt beam="1">  1        2 0.17634205E-01 0.75257232E+02</pdfrwt>
<pdfrwt beam="2">  1       -1 0.19004388E-02 0.75257232E+02</pdfrwt>
<totfact> 0.21688291E+05</totfact>
</mgrwt>
</event>
<event>
 8    1  0.2676873E-020  0.8146064E+02  0.7818608E-02  0.1324957E+00
          2   -1    0    0  501    0  0.00000000000E+00  0.00000000000E+00  0.24692109626E+03  0.24692109627E+03  0.25500000000E-02 0. -1.
         -1   -1    0    0    0  501 -0.00000000000E+00 -0.00000000000E+00 -0.67185779927E+01  0.67185798831E+01  0.50400000000E-02 0.  1.
         24    2    1    2    0    0 -0.17763568394E-14  0.00000000000E+00  0.24020251827E+03  0.25363967616E+03  0.81460637971E+02 0.  0.
         66    2    3    3    0    0 -0.96137959753E+01 -0.15650051789E+02  0.23328092864E+03  0.23401141181E+03  0.20000000342E+01 0.  0.
        -13    1    3    3    0    0  0.96137959753E+01  0.15650051789E+02  0.69215896326E+01  0.19628264343E+02  0.10566000000E+00 0.  1.
         13    1    4    4    0    0 -0.18071755842E+01 -0.26953458483E+01  0.41789636250E+02  0.41915577472E+02  0.10566000000E+00 0. -1.
        -13    1    4    4    0    0 -0.56892210513E+01 -0.85586976583E+01  0.12086112163E+03  0.12129732242E+03  0.10566000000E+00 0.  1.
        -14    1    4    4    0    0 -0.21173993398E+01 -0.43960082819E+01  0.70630170757E+02  0.70798511919E+02  0.00000000000E+00 0.  1.
<mgrwt>
<rscale>  0 0.81460638E+02</rscale>
<asrwt>0</asrwt>
<pdfrwt beam="1">  1        2 0.37987865E-01 0.81460638E+02</pdfrwt>
<pdfrwt beam="2">  1       -1 0.10336274E-02 0.81460638E+02</pdfrwt>
<totfact> 0.22657660E+05</totfact>
</mgrwt>
</event>
<event>
 8    1  0.2676873E-020  0.7950665E+02  0.7818608E-02  0.1330457E+00
         -1   -1    0    0    0  501 -0.00000000000E+00  0.00000000000E+00  0.39709735044E+01  0.39709767028E+01  0.50400000000E-02 0.  1.
          2   -1    0    0  501    0  0.00000000000E+00 -0.00000000000E+00 -0.39796949339E+03  0.39796949340E+03  0.25500000000E-02 0. -1.
         24    2    1    2    0    0  0.00000000000E+00  0.00000000000E+00 -0.39399851989E+03  0.40194047010E+03  0.79506652759E+02 0.  0.
         66    2    3    3    0    0  0.20779238330E+02  0.31437974823E+02 -0.26070936779E+03  0.26342645551E+03  0.20000012173E+01 0.  0.
        -13    1    3    3    0    0 -0.20779238330E+02 -0.31437974823E+02 -0.13328915210E+03  0.13851401459E+03  0.10566000000E+00 0.  1.
         13    1    4    4    0    0  0.23812921031E+01  0.30627815580E+01 -0.25266515071E+02  0.25562846689E+02  0.10566000000E+00 0. -1.
        -13    1    4    4    0    0  0.65185640583E+01  0.88192058965E+01 -0.76851370986E+02  0.77629984262E+02  0.10566000000E+00 0. -1.
        -14    1    4    4    0    0  0.11879382168E+02  0.19555987368E+02 -0.15859148173E+03  0.16023362456E+03  0.00000000000E+00 0.  1.
<mgrwt>
<rscale>  0 0.79506653E+02</rscale>
<asrwt>0</asrwt>
<pdfrwt beam="1">  1        2 0.61226044E-01 0.79506653E+02</pdfrwt>
<pdfrwt beam="2">  1       -1 0.61091956E-03 0.79506653E+02</pdfrwt>
<totfact> 0.28662685E+05</totfact>
</mgrwt>
</event>
<event>
 8    1  0.2676873E-020  0.8015408E+02  0.7818608E-02  0.1328615E+00
          2   -1    0    0  501    0  0.00000000000E+00  0.00000000000E+00  0.33695711358E+03  0.33695711359E+03  0.25500000000E-02 0. -1.
         -1   -1    0    0    0  501 -0.00000000000E+00 -0.00000000000E+00 -0.47666857267E+01  0.47666883912E+01  0.50400000000E-02 0.  1.
         24    2    1    2    0    0  0.00000000000E+00  0.35527136788E-14  0.33219042786E+03  0.34172380198E+03  0.80154079640E+02 0.  0.
         66    2    3    3    0    0  0.48504783696E+01 -0.29953646502E+02  0.27765144667E+03  0.27931178622E+03  0.20000006620E+01 0.  0.
        -13    1    3    3    0    0 -0.48504783696E+01  0.29953646502E+02  0.54538981186E+02  0.62412015767E+02  0.10566000000E+00 0.  1.
         13    1    4    4    0    0  0.30994327402E+01 -0.14906996371E+02  0.14144996933E+03  0.14226710798E+03  0.10566000000E+00 0. -1.
        -13    1    4    4    0    0  0.16672829305E+00 -0.53514668411E+01  0.48282256342E+02  0.48578322709E+02  0.10566000000E+00 0.  1.
        -14    1    4    4    0    0  0.15843173364E+01 -0.96951832903E+01  0.87919220995E+02  0.88466355531E+02  0.00000000000E+00 0.  1.
<mgrwt>
<rscale>  0 0.80154080E+02</rscale>
<asrwt>0</asrwt>
<pdfrwt beam="1">  1        2 0.51839558E-01 0.80154080E+02</pdfrwt>
<pdfrwt beam="2">  1       -1 0.73333645E-03 0.80154080E+02</pdfrwt>
<totfact> 0.26452080E+05</totfact>
</mgrwt>
</event>
<event>
 8    1  0.2676873E-020  0.8128710E+02  0.7818608E-02  0.1325438E+00
          2   -1    0    0  501    0  0.00000000000E+00  0.00000000000E+00  0.58503137836E+02  0.58503137892E+02  0.25500000000E-02 0. -1.
         -1   -1    0    0    0  501 -0.00000000000E+00 -0.00000000000E+00 -0.28236060513E+02  0.28236060963E+02  0.50400000000E-02 0.  1.
         24    2    1    2    0    0  0.00000000000E+00  0.35527136788E-14  0.30267077323E+02  0.86739198855E+02  0.81287100134E+02 0.  0.
         66    2    3    3    0    0  0.11271237264E+02 -0.28158023149E+02  0.43972943639E+02  0.53455914873E+02  0.20000013834E+01 0.  0.
        -13    1    3    3    0    0 -0.11271237264E+02  0.28158023149E+02 -0.13705866315E+02  0.33283283982E+02  0.10566000000E+00 0.  1.
         13    1    4    4    0    0  0.57641045015E+01 -0.13525638908E+02  0.21309637686E+02  0.25889759190E+02  0.10566000000E+00 0. -1.
        -13    1    4    4    0    0  0.15500893568E+01 -0.39856450306E+01  0.72832820684E+01  0.84466268443E+01  0.10566000000E+00 0.  1.
        -14    1    4    4    0    0  0.39570434059E+01 -0.10646739210E+02  0.15380023884E+02  0.19119528839E+02  0.00000000000E+00 0.  1.
<mgrwt>
<rscale>  0 0.81287100E+02</rscale>
<asrwt>0</asrwt>
<pdfrwt beam="1">  1        2 0.90004828E-02 0.81287100E+02</pdfrwt>
<pdfrwt beam="2">  1       -1 0.43440094E-02 0.81287100E+02</pdfrwt>
<totfact> 0.14817021E+05</totfact>
</mgrwt>
</event>
<event>
 8    1  0.2676873E-020  0.7059431E+02  0.7818608E-02  0.1358084E+00
         -1   -1    0    0    0  501 -0.00000000000E+00  0.00000000000E+00  0.65956297224E+01  0.65956316481E+01  0.50400000000E-02 0.  1.
          2   -1    0    0  501    0  0.00000000000E+00 -0.00000000000E+00 -0.18889616156E+03  0.18889616158E+03  0.25500000000E-02 0. -1.
         24    2    1    2    0    0  0.00000000000E+00  0.17763568394E-14 -0.18230053184E+03  0.19549179323E+03  0.70594314999E+02 0.  0.
         66    2    3    3    0    0  0.40389123402E+01  0.98535897845E+01 -0.18433185658E+03  0.18465004573E+03  0.19999983078E+01 0.  0.
        -13    1    3    3    0    0 -0.40389123402E+01 -0.98535897845E+01  0.20313247416E+01  0.10841747496E+02  0.10566000000E+00 0.  1.
         13    1    4    4    0    0  0.19753248160E+01  0.30646925086E+01 -0.73363998495E+02  0.73454623323E+02  0.10566000000E+00 0. -1.
        -13    1    4    4    0    0  0.80460418282E+00  0.33526645709E+01 -0.52816535431E+02  0.52929059378E+02  0.10566000000E+00 0.  1.
         14    1    4    4    0    0  0.12589833414E+01  0.34362327050E+01 -0.58151322653E+02  0.58266363028E+02  0.00000000000E+00 0. -1.
<mgrwt>
<rscale>  0 0.70594315E+02</rscale>
<asrwt>0</asrwt>
<pdfrwt beam="1">  1        2 0.29060944E-01 0.70594315E+02</pdfrwt>
<pdfrwt beam="2">  1       -1 0.10147126E-02 0.70594315E+02</pdfrwt>
<totfact> 0.30021387E+05</totfact>
</mgrwt>
</event>
<event>
 8    1  0.2676873E-020  0.7905373E+02  0.7818608E-02  0.1331758E+00
          2   -1    0    0  501    0  0.00000000000E+00  0.00000000000E+00  0.13850523452E+02  0.13850523686E+02  0.25500000000E-02 0. -1.
         -1   -1    0    0    0  501 -0.00000000000E+00 -0.00000000000E+00 -0.11280245436E+03  0.11280245447E+03  0.50400000000E-02 0.  1.
         24    2    1    2    0    0  0.00000000000E+00  0.00000000000E+00 -0.98951930907E+02  0.12665297816E+03  0.79053730121E+02 0.  0.
         66    2    3    3    0    0 -0.43033400804E+01 -0.38001032542E+02 -0.33665987356E+02  0.50990155057E+02  0.19999994914E+01 0.  0.
        -13    1    3    3    0    0  0.43033400804E+01  0.38001032542E+02 -0.65285943552E+02  0.75662823101E+02  0.10566000000E+00 0.  1.
         13    1    4    4    0    0 -0.12140911198E+01 -0.11332197050E+02 -0.10468358733E+02  0.15475477564E+02  0.10566000000E+00 0. -1.
        -13    1    4    4    0    0 -0.11621316451E+01 -0.12614692437E+02 -0.11881025289E+02  0.17368101255E+02  0.10566000000E+00 0.  1.
        -14    1    4    4    0    0 -0.19271173156E+01 -0.14054143055E+02 -0.11316603334E+02  0.18146576238E+02  0.00000000000E+00 0.  1.
<mgrwt>
<rscale>  0 0.79053730E+02</rscale>
<asrwt>0</asrwt>
<pdfrwt beam="1">  1        2 0.21308499E-02 0.79053730E+02</pdfrwt>
<pdfrwt beam="2">  1       -1 0.17354223E-01 0.79053730E+02</pdfrwt>
<totfact> 0.11894035E+05</totfact>
</mgrwt>
</event>
<event>
 8    1  0.2676873E-020  0.7952018E+02  0.7818608E-02  0.1330419E+00
         -1   -1    0    0    0  501 -0.00000000000E+00  0.00000000000E+00  0.17565329534E+02  0.17565330257E+02  0.50400000000E-02 0.  1.
          2   -1    0    0  501    0  0.00000000000E+00 -0.00000000000E+00 -0.89999159886E+02  0.89999159922E+02  0.25500000000E-02 0. -1.
         24    2    1    2    0    0 -0.71054273576E-14  0.00000000000E+00 -0.72433830352E+02  0.10756449018E+03  0.79520184657E+02 0.  0.
         66    2    3    3    0    0 -0.22598171965E+02  0.26295082676E+02 -0.62495175904E+02  0.71496543669E+02  0.19999990818E+01 0.  0.
        -13    1    3    3    0    0  0.22598171965E+02 -0.26295082676E+02 -0.99386544484E+01  0.36067946509E+02  0.10566000000E+00 0.  1.
         13    1    4    4    0    0 -0.54538709546E+01  0.68242400323E+01 -0.15194795534E+02  0.17527348224E+02  0.10566000000E+00 0. -1.
        -13    1    4    4    0    0 -0.17158478640E+02  0.19371167575E+02 -0.47190518336E+02  0.53820179369E+02  0.10566000000E+00 0.  1.
        -14    1    4    4    0    0  0.14177629693E-01  0.99675069190E-01 -0.10986203358E+00  0.14901607639E+00  0.00000000000E+00 0.  1.
<mgrwt>
<rscale>  0 0.79520185E+02</rscale>
<asrwt>0</asrwt>
<pdfrwt beam="1">  1        2 0.13846024E-01 0.79520185E+02</pdfrwt>
<pdfrwt beam="2">  1       -1 0.27023585E-02 0.79520185E+02</pdfrwt>
<totfact> 0.17501122E+05</totfact>
</mgrwt>
</event>
<event>
 8    1  0.2676873E-020  0.7968240E+02  0.7818608E-02  0.1329955E+00
          2   -1    0    0  501    0  0.00000000000E+00  0.00000000000E+00  0.20944699750E+03  0.20944699751E+03  0.25500000000E-02 0. -1.
         -1   -1    0    0    0  501 -0.00000000000E+00 -0.00000000000E+00 -0.75786292621E+01  0.75786309380E+01  0.50400000000E-02 0.  1.
         24    2    1    2    0    0  0.00000000000E+00  0.00000000000E+00  0.20186836824E+03  0.21702562845E+03  0.79682402766E+02 0.  0.
         66    2    3    3    0    0 -0.73705787430E+01 -0.29492999517E+02  0.17103013617E+03  0.17372239332E+03  0.20000031780E+01 0.  0.
        -13    1    3    3    0    0  0.73705787430E+01  0.29492999517E+02  0.30838232069E+02  0.43303235129E+02  0.10566000000E+00 0.  1.
         13    1    4    4    0    0 -0.45599951374E+01 -0.18692350396E+02  0.11304101544E+03  0.11466682107E+03  0.10566000000E+00 0. -1.
        -13    1    4    4    0    0 -0.42158647504E+00 -0.17565507322E+01  0.85764795298E+01  0.87652935371E+01  0.10566000000E+00 0.  1.
        -14    1    4    4    0    0 -0.23889971305E+01 -0.90440983890E+01  0.49412641196E+02  0.50290278712E+02  0.00000000000E+00 0.  1.
<mgrwt>
<rscale>  0 0.79682403E+02</rscale>
<asrwt>0</asrwt>
<pdfrwt beam="1">  1        2 0.32222616E-01 0.79682403E+02</pdfrwt>
<pdfrwt beam="2">  1       -1 0.11659430E-02 0.79682403E+02</pdfrwt>
<totfact> 0.22652766E+05</totfact>
</mgrwt>
</event>
<event>
 8    1  0.2676873E-020  0.7907522E+02  0.7818608E-02  0.1331696E+00
          2   -1    0    0  501    0  0.00000000000E+00  0.00000000000E+00  0.32489321851E+02  0.32489321951E+02  0.25500000000E-02 0. -1.
         -1   -1    0    0    0  501 -0.00000000000E+00 -0.00000000000E+00 -0.48114968937E+02  0.48114969201E+02  0.50400000000E-02 0.  1.
         24    2    1    2    0    0  0.00000000000E+00  0.00000000000E+00 -0.15625647086E+02  0.80604291153E+02  0.79075223081E+02 0.  0.
         66    2    3    3    0    0 -0.30638376895E+02  0.82372440262E+01  0.16188721963E+02  0.35674038873E+02  0.20000007074E+01 0.  0.
        -13    1    3    3    0    0  0.30638376895E+02 -0.82372440262E+01 -0.31814369049E+02  0.44930252280E+02  0.10566000000E+00 0.  1.
         13    1    4    4    0    0 -0.26664060501E+00  0.61305788593E-01  0.33807375820E+00  0.44756397704E+00  0.10566000000E+00 0.  1.
        -13    1    4    4    0    0 -0.11744301932E+02  0.28722623528E+01  0.61574700015E+01  0.13568497328E+02  0.10566000000E+00 0.  1.
         14    1    4    4    0    0 -0.18627434358E+02  0.53036758848E+01  0.96931782030E+01  0.21657977568E+02  0.00000000000E+00 0. -1.
<mgrwt>
<rscale>  0 0.79075223E+02</rscale>
<asrwt>0</asrwt>
<pdfrwt beam="1">  1        2 0.49983572E-02 0.79075223E+02</pdfrwt>
<pdfrwt beam="2">  1       -1 0.74023030E-02 0.79075223E+02</pdfrwt>
<totfact> 0.14119812E+05</totfact>
</mgrwt>
</event>
<event>
 8    1  0.2676873E-020  0.7940515E+02  0.7818608E-02  0.1330748E+00
          2   -1    0    0  501    0  0.00000000000E+00  0.00000000000E+00  0.75704290188E+01  0.75704294483E+01  0.25500000000E-02 0. -1.
         -1   -1    0    0    0  501 -0.00000000000E+00 -0.00000000000E+00 -0.20821732370E+03  0.20821732376E+03  0.50400000000E-02 0.  1.
         24    2    1    2    0    0  0.00000000000E+00  0.00000000000E+00 -0.20064689468E+03  0.21578775321E+03  0.79405151533E+02 0.  0.
         66    2    3    3    0    0  0.11457837726E+02  0.37152204438E+02 -0.78864779904E+02  0.87950110148E+02  0.20000064305E+01 0.  0.
        -13    1    3    3    0    0 -0.11457837726E+02 -0.37152204438E+02 -0.12178211478E+03  0.12783764306E+03  0.10566000000E+00 0.  1.
         13    1    4    4    0    0  0.16926888176E+01  0.46801184785E+01 -0.10262180898E+02  0.11405797878E+02  0.10566000000E+00 0. -1.
        -13    1    4    4    0    0  0.47990780041E+01  0.15587366181E+02 -0.34901731176E+02  0.38524526438E+02  0.10566000000E+00 0.  1.
         14    1    4    4    0    0  0.49660709046E+01  0.16884719778E+02 -0.33700867830E+02  0.38019785832E+02  0.00000000000E+00 0. -1.
<mgrwt>
<rscale>  0 0.79405152E+02</rscale>
<asrwt>0</asrwt>
<pdfrwt beam="1">  1        2 0.11646816E-02 0.79405152E+02</pdfrwt>
<pdfrwt beam="2">  1       -1 0.32033430E-01 0.79405152E+02</pdfrwt>
<totfact> 0.10027011E+05</totfact>
</mgrwt>
</event>
<event>
 8    1  0.2676873E-020  0.9022649E+02  0.7818608E-02  0.1302304E+00
          2   -1    0    0  501    0  0.00000000000E+00  0.00000000000E+00  0.42407260865E+02  0.42407260941E+02  0.25500000000E-02 0. -1.
         -1   -1    0    0    0  501 -0.00000000000E+00 -0.00000000000E+00 -0.47991892966E+02  0.47991893230E+02  0.50400000000E-02 0.  1.
         24    2    1    2    0    0  0.35527136788E-14  0.17763568394E-14 -0.55846321009E+01  0.90399154172E+02  0.90226487016E+02 0.  0.
         66    2    3    3    0    0  0.18018997202E+02  0.11138856113E+02  0.37087531799E+02  0.42757962839E+02  0.19999988892E+01 0.  0.
        -13    1    3    3    0    0 -0.18018997202E+02 -0.11138856113E+02 -0.42672163900E+02  0.47641191333E+02  0.10566000000E+00 0.  1.
         13    1    4    4    0    0  0.10518470155E+02  0.62779885032E+01  0.22166674214E+02  0.25326349200E+02  0.10566000000E+00 0. -1.
        -13    1    4    4    0    0  0.12992989298E+01  0.53427273636E+00  0.30093817444E+01  0.33228252414E+01  0.10566000000E+00 0.  1.
         14    1    4    4    0    0  0.62012281171E+01  0.43265948734E+01  0.11911475840E+02  0.14108788398E+02  0.00000000000E+00 0. -1.
<mgrwt>
<rscale>  0 0.90226487E+02</rscale>
<asrwt>0</asrwt>
<pdfrwt beam="1">  1        2 0.65241940E-02 0.90226487E+02</pdfrwt>
<pdfrwt beam="2">  1       -1 0.73833682E-02 0.90226487E+02</pdfrwt>
<totfact> 0.10323042E+05</totfact>
</mgrwt>
</event>
<event>
 8    1  0.2676873E-020  0.7841950E+02  0.7818608E-02  0.1333597E+00
         -1   -1    0    0    0  501 -0.00000000000E+00  0.00000000000E+00  0.41337827431E+01  0.41337858155E+01  0.50400000000E-02 0.  1.
          2   -1    0    0  501    0  0.00000000000E+00 -0.00000000000E+00 -0.37191207584E+03  0.37191207584E+03  0.25500000000E-02 0. -1.
         24    2    1    2    0    0 -0.35527136788E-14  0.66613381478E-15 -0.36777829309E+03  0.37604586166E+03  0.78419495035E+02 0.  0.
         66    2    3    3    0    0  0.27940698856E+02 -0.18113698486E+01 -0.31545905241E+03  0.31670550589E+03  0.20000000285E+01 0.  0.
        -13    1    3    3    0    0 -0.27940698856E+02  0.18113698486E+01 -0.52319240681E+02  0.59340355768E+02  0.10566000000E+00 0.  1.
         13    1    4    4    0    0  0.26731770532E+01 -0.31752765911E-01 -0.31243073425E+02  0.31357418339E+02  0.10566000000E+00 0. -1.
        -13    1    4    4    0    0  0.45963710757E+01  0.35483725070E+00 -0.52470894726E+02  0.52673128766E+02  0.10566000000E+00 0.  1.
         14    1    4    4    0    0  0.20671150727E+02 -0.21344543334E+01 -0.23174508426E+03  0.23267495879E+03  0.00000000000E+00 0. -1.
<mgrwt>
<rscale>  0 0.78419495E+02</rscale>
<asrwt>0</asrwt>
<pdfrwt beam="1">  1        2 0.57217216E-01 0.78419495E+02</pdfrwt>
<pdfrwt beam="2">  1       -1 0.63596711E-03 0.78419495E+02</pdfrwt>
<totfact> 0.29010557E+05</totfact>
</mgrwt>
</event>
<event>
 8    1  0.2676873E-020  0.7991037E+02  0.7818608E-02  0.1329306E+00
         -1   -1    0    0    0  501 -0.00000000000E+00  0.00000000000E+00  0.48272996767E+01  0.48273023078E+01  0.50400000000E-02 0.  1.
          2   -1    0    0  501    0  0.00000000000E+00 -0.00000000000E+00 -0.33070587105E+03  0.33070587106E+03  0.25500000000E-02 0. -1.
         24    2    1    2    0    0  0.17763568394E-14  0.00000000000E+00 -0.32587857138E+03  0.33553317337E+03  0.79910369477E+02 0.  0.
         66    2    3    3    0    0  0.98088917435E+01 -0.23527766617E+02 -0.29209340391E+03  0.29321037970E+03  0.19999995356E+01 0.  0.
        -13    1    3    3    0    0 -0.98088917435E+01  0.23527766617E+02 -0.33785167471E+02  0.42322793673E+02  0.10566000000E+00 0.  1.
         13    1    4    4    0    0  0.52306012390E+01 -0.14725504620E+02 -0.18391889381E+03  0.18458160889E+03  0.10566000000E+00 0. -1.
        -13    1    4    4    0    0  0.39226670583E+01 -0.76657403609E+01 -0.93659591804E+02  0.94054671298E+02  0.10566000000E+00 0.  1.
         14    1    4    4    0    0  0.65562344626E+00 -0.11365216364E+01 -0.14514918296E+02  0.14574099515E+02  0.00000000000E+00 0. -1.
<mgrwt>
<rscale>  0 0.79910369E+02</rscale>
<asrwt>0</asrwt>
<pdfrwt beam="1">  1        2 0.50877809E-01 0.79910369E+02</pdfrwt>
<pdfrwt beam="2">  1       -1 0.74266195E-03 0.79910369E+02</pdfrwt>
<totfact> 0.26485030E+05</totfact>
</mgrwt>
</event>
<event>
 8    1  0.2676873E-020  0.7888245E+02  0.7818608E-02  0.1332253E+00
          2   -1    0    0  501    0  0.00000000000E+00  0.00000000000E+00  0.38722748949E+03  0.38722748950E+03  0.25500000000E-02 0. -1.
         -1   -1    0    0    0  501 -0.00000000000E+00 -0.00000000000E+00 -0.40173010942E+01  0.40173042557E+01  0.50400000000E-02 0.  1.
         24    2    1    2    0    0  0.00000000000E+00 -0.71054273576E-14  0.38321018840E+03  0.39124479375E+03  0.78882445128E+02 0.  0.
         66    2    3    3    0    0 -0.10728236602E+02  0.37583897542E+02  0.21699914281E+03  0.22050005078E+03  0.19999995107E+01 0.  0.
        -13    1    3    3    0    0  0.10728236602E+02 -0.37583897542E+02  0.16621104558E+03  0.17074474297E+03  0.10566000000E+00 0.  1.
         13    1    4    4    0    0 -0.76640371431E+01  0.25752649289E+02  0.14688213291E+03  0.14931948481E+03  0.10566000000E+00 0. -1.
        -13    1    4    4    0    0 -0.28144850191E+01  0.93567158251E+01  0.55700393629E+02  0.56550990013E+02  0.10566000000E+00 0.  1.
        -14    1    4    4    0    0 -0.24971444006E+00  0.24745324280E+01  0.14416616277E+02  0.14629575965E+02  0.00000000000E+00 0.  1.
<mgrwt>
<rscale>  0 0.78882445E+02</rscale>
<asrwt>0</asrwt>
<pdfrwt beam="1">  1        2 0.59573464E-01 0.78882445E+02</pdfrwt>
<pdfrwt beam="2">  1       -1 0.61804653E-03 0.78882445E+02</pdfrwt>
<totfact> 0.28978856E+05</totfact>
</mgrwt>
</event>
<event>
 8    1  0.2676873E-020  0.7863949E+02  0.7818608E-02  0.1332957E+00
         -1   -1    0    0    0  501 -0.00000000000E+00  0.00000000000E+00  0.12245589882E+02  0.12245590919E+02  0.50400000000E-02 0.  1.
          2   -1    0    0  501    0  0.00000000000E+00 -0.00000000000E+00 -0.12625298226E+03  0.12625298229E+03  0.25500000000E-02 0. -1.
         24    2    1    2    0    0  0.17763568394E-14 -0.35527136788E-14 -0.11400739238E+03  0.13849857321E+03  0.78639489209E+02 0.  0.
         66    2    3    3    0    0 -0.15138811634E+02 -0.30951645955E+02 -0.90310026315E+02  0.96680343601E+02  0.19999951508E+01 0.  0.
        -13    1    3    3    0    0  0.15138811634E+02  0.30951645955E+02 -0.23697366068E+02  0.41818229609E+02  0.10566000000E+00 0.  1.
         13    1    4    4    0    0 -0.28601975028E+01 -0.43014421707E+01 -0.13990096796E+02  0.14913655048E+02  0.10566000000E+00 0. -1.
        -13    1    4    4    0    0 -0.99276396754E+01 -0.21341402966E+02 -0.61257413316E+02  0.65623893212E+02  0.10566000000E+00 0.  1.
         14    1    4    4    0    0 -0.23509744557E+01 -0.53088008186E+01 -0.15062516204E+02  0.16142795341E+02  0.00000000000E+00 0. -1.
<mgrwt>
<rscale>  0 0.78639489E+02</rscale>
<asrwt>0</asrwt>
<pdfrwt beam="1">  1        2 0.19423535E-01 0.78639489E+02</pdfrwt>
<pdfrwt beam="2">  1       -1 0.18839371E-02 0.78639489E+02</pdfrwt>
<totfact> 0.19861753E+05</totfact>
</mgrwt>
</event>
<event>
 8    1  0.2676873E-020  0.8146053E+02  0.7818608E-02  0.1324957E+00
         -1   -1    0    0    0  501 -0.00000000000E+00  0.00000000000E+00  0.50925054849E+01  0.50925079789E+01  0.50400000000E-02 0.  1.
          2   -1    0    0  501    0  0.00000000000E+00 -0.00000000000E+00 -0.32576382169E+03  0.32576382170E+03  0.25500000000E-02 0. -1.
         24    2    1    2    0    0  0.00000000000E+00  0.00000000000E+00 -0.32067131620E+03  0.33085632968E+03  0.81460529411E+02 0.  0.
         66    2    3    3    0    0 -0.29954548896E+02 -0.10866170339E+02 -0.26331054931E+03  0.26523912614E+03  0.20000001199E+01 0.  0.
        -13    1    3    3    0    0  0.29954548896E+02  0.10866170339E+02 -0.57360766896E+02  0.65617203539E+02  0.10566000000E+00 0.  1.
         13    1    4    4    0    0 -0.11222957639E+02 -0.35592441370E+01 -0.96907656240E+02  0.97620325747E+02  0.10566000000E+00 0. -1.
        -13    1    4    4    0    0 -0.32125478077E+01 -0.84436818094E+00 -0.30251092994E+02  0.30433094033E+02  0.10566000000E+00 0.  1.
         14    1    4    4    0    0 -0.15519043449E+02 -0.64625580210E+01 -0.13615180007E+03  0.13718570636E+03  0.00000000000E+00 0. -1.
<mgrwt>
<rscale>  0 0.81460529E+02</rscale>
<asrwt>0</asrwt>
<pdfrwt beam="1">  1        2 0.50117495E-01 0.81460529E+02</pdfrwt>
<pdfrwt beam="2">  1       -1 0.78346283E-03 0.81460529E+02</pdfrwt>
<totfact> 0.25048209E+05</totfact>
</mgrwt>
</event>
<event>
 8    1  0.2676873E-020  0.7704605E+02  0.7818608E-02  0.1337650E+00
          2   -1    0    0  501    0  0.00000000000E+00  0.00000000000E+00  0.58258289291E+02  0.58258289347E+02  0.25500000000E-02 0. -1.
         -1   -1    0    0    0  501 -0.00000000000E+00 -0.00000000000E+00 -0.25473171624E+02  0.25473172123E+02  0.50400000000E-02 0.  1.
         24    2    1    2    0    0  0.00000000000E+00  0.44408920985E-15  0.32785117667E+02  0.83731461469E+02  0.77046049213E+02 0.  0.
         66    2    3    3    0    0 -0.32818646611E+02 -0.26382286913E+01  0.38084455694E+02  0.50383028769E+02  0.20000016091E+01 0.  0.
        -13    1    3    3    0    0  0.32818646611E+02  0.26382286913E+01 -0.52993380273E+01  0.33348432700E+02  0.10566000000E+00 0.  1.
         13    1    4    4    0    0 -0.20183036491E+02 -0.10594423642E+01  0.23854158891E+02  0.31265147377E+02  0.10566000000E+00 0. -1.
        -13    1    4    4    0    0 -0.27578351361E+01 -0.64493171110E+00  0.28414779217E+01  0.40133218616E+01  0.10566000000E+00 0.  1.
         14    1    4    4    0    0 -0.98777749842E+01 -0.93385461593E+00  0.11388818882E+02  0.15104559530E+02  0.00000000000E+00 0. -1.
<mgrwt>
<rscale>  0 0.77046049E+02</rscale>
<asrwt>0</asrwt>
<pdfrwt beam="1">  1        2 0.89628137E-02 0.77046049E+02</pdfrwt>
<pdfrwt beam="2">  1       -1 0.39189496E-02 0.77046049E+02</pdfrwt>
<totfact> 0.17124961E+05</totfact>
</mgrwt>
</event>
<event>
 8    1  0.2676873E-020  0.7865196E+02  0.7818608E-02  0.1332921E+00
         -1   -1    0    0    0  501 -0.00000000000E+00  0.00000000000E+00  0.58453961425E+01  0.58453983153E+01  0.50400000000E-02 0.  1.
          2   -1    0    0  501    0  0.00000000000E+00 -0.00000000000E+00 -0.26457271207E+03  0.26457271208E+03  0.25500000000E-02 0. -1.
         24    2    1    2    0    0  0.35527136788E-14  0.35527136788E-14 -0.25872731593E+03  0.27041811040E+03  0.78651957534E+02 0.  0.
         66    2    3    3    0    0  0.26937524422E+02  0.25420644646E+02 -0.17462825963E+03  0.17852413981E+03  0.20000093485E+01 0.  0.
        -13    1    3    3    0    0 -0.26937524422E+02 -0.25420644646E+02 -0.84099056302E+02  0.91893970592E+02  0.10566000000E+00 0.  1.
         13    1    4    4    0    0  0.23190025934E+01  0.17525692431E+01 -0.14763065502E+02  0.15046878049E+02  0.10566000000E+00 0.  1.
        -13    1    4    4    0    0  0.14375917721E+01  0.10619445432E+01 -0.77314650815E+01  0.79360640533E+01  0.10566000000E+00 0.  1.
         14    1    4    4    0    0  0.23180930057E+02  0.22606130859E+02 -0.15213372904E+03  0.15554119770E+03  0.00000000000E+00 0. -1.
<mgrwt>
<rscale>  0 0.78651958E+02</rscale>
<asrwt>0</asrwt>
<pdfrwt beam="1">  1        2 0.40703485E-01 0.78651958E+02</pdfrwt>
<pdfrwt beam="2">  1       -1 0.89929209E-03 0.78651958E+02</pdfrwt>
<totfact> 0.25471240E+05</totfact>
</mgrwt>
</event>
<event>
 8    1  0.2676873E-020  0.7864263E+02  0.7818608E-02  0.1332948E+00
         -1   -1    0    0    0  501 -0.00000000000E+00  0.00000000000E+00  0.24041422032E+01  0.24041474860E+01  0.50400000000E-02 0.  1.
          2   -1    0    0  501    0  0.00000000000E+00 -0.00000000000E+00 -0.64312503140E+03  0.64312503141E+03  0.25500000000E-02 0. -1.
         24    2    1    2    0    0 -0.35527136788E-14  0.88817841970E-15 -0.64072088920E+03  0.64552917889E+03  0.78642628050E+02 0.  0.
         66    2    3    3    0    0 -0.17214405397E+02 -0.68197542960E+01 -0.60506982677E+03  0.60535637444E+03  0.19999992952E+01 0.  0.
        -13    1    3    3    0    0  0.17214405397E+02  0.68197542960E+01 -0.35651062426E+02  0.40172804458E+02  0.10566000000E+00 0.  1.
         13    1    4    4    0    0 -0.51689148763E+01 -0.24468479691E+01 -0.19738462162E+03  0.19746747773E+03  0.10566000000E+00 0. -1.
        -13    1    4    4    0    0 -0.71025498935E+01 -0.19979150948E+01 -0.24658471262E+03  0.24669509428E+03  0.10566000000E+00 0.  1.
         14    1    4    4    0    0 -0.49429406273E+01 -0.23749912322E+01 -0.16110049253E+03  0.16119380242E+03  0.00000000000E+00 0. -1.
<mgrwt>
<rscale>  0 0.78642628E+02</rscale>
<asrwt>0</asrwt>
<pdfrwt beam="1">  1        2 0.98942175E-01 0.78642628E+02</pdfrwt>
<pdfrwt beam="2">  1       -1 0.36986895E-03 0.78642628E+02</pdfrwt>
<totfact> 0.34258075E+05</totfact>
</mgrwt>
</event>
<event>
 8    1  0.2676873E-020  0.8111564E+02  0.7818608E-02  0.1325915E+00
         -1   -1    0    0    0  501 -0.00000000000E+00  0.00000000000E+00  0.10802617704E+02  0.10802618880E+02  0.50400000000E-02 0.  1.
          2   -1    0    0  501    0  0.00000000000E+00 -0.00000000000E+00 -0.15227205316E+03  0.15227205318E+03  0.25500000000E-02 0. -1.
         24    2    1    2    0    0 -0.35527136788E-14  0.17763568394E-14 -0.14146943546E+03  0.16307467206E+03  0.81115642755E+02 0.  0.
         66    2    3    3    0    0  0.21286999379E+02 -0.13002193890E+02 -0.13500778082E+03  0.13730729864E+03  0.19999970438E+01 0.  0.
        -13    1    3    3    0    0 -0.21286999379E+02  0.13002193890E+02 -0.64616546342E+01  0.25767373424E+02  0.10566000000E+00 0.  1.
         13    1    4    4    0    0  0.17129065850E+02 -0.10580114168E+02 -0.11168856964E+03  0.11348872836E+03  0.10566000000E+00 0. -1.
        -13    1    4    4    0    0  0.30968881930E+01 -0.20024685233E+01 -0.16809668641E+02  0.17209785604E+02  0.10566000000E+00 0.  1.
        -14    1    4    4    0    0  0.10610453362E+01 -0.41961119830E+00 -0.65095425419E+01  0.66087846741E+01  0.00000000000E+00 0.  1.
<mgrwt>
<rscale>  0 0.81115643E+02</rscale>
<asrwt>0</asrwt>
<pdfrwt beam="1">  1        2 0.23426468E-01 0.81115643E+02</pdfrwt>
<pdfrwt beam="2">  1       -1 0.16619414E-02 0.81115643E+02</pdfrwt>
<totfact> 0.19400942E+05</totfact>
</mgrwt>
</event>
<event>
 8    1  0.2676873E-020  0.7982429E+02  0.7818608E-02  0.1329551E+00
          2   -1    0    0  501    0  0.00000000000E+00  0.00000000000E+00  0.96286169551E+03  0.96286169551E+03  0.25500000000E-02 0. -1.
         -1   -1    0    0    0  501 -0.00000000000E+00 -0.00000000000E+00 -0.16544178770E+01  0.16544255539E+01  0.50400000000E-02 0.  1.
         24    2    1    2    0    0  0.00000000000E+00  0.17763568394E-14  0.96120727763E+03  0.96451612106E+03  0.79824289686E+02 0.  0.
         66    2    3    3    0    0  0.12278551647E+02 -0.14047144843E+02  0.90688590349E+03  0.90708000036E+03  0.19999999116E+01 0.  0.
        -13    1    3    3    0    0 -0.12278551647E+02  0.14047144843E+02  0.54321374143E+02  0.57436120705E+02  0.10566000000E+00 0.  1.
         13    1    4    4    0    0  0.13817327403E+01 -0.17214704405E+01  0.10034253380E+03  0.10036686654E+03  0.10566000000E+00 0. -1.
        -13    1    4    4    0    0  0.67152521687E+01 -0.67871254994E+01  0.50075773045E+03  0.50084875507E+03  0.10566000000E+00 0.  1.
        -14    1    4    4    0    0  0.41815667383E+01 -0.55385489035E+01  0.30578563923E+03  0.30586437875E+03  0.00000000000E+00 0.  1.
<mgrwt>
<rscale>  0 0.79824290E+02</rscale>
<asrwt>0</asrwt>
<pdfrwt beam="1">  1        2 0.14813289E+00 0.79824290E+02</pdfrwt>
<pdfrwt beam="2">  1       -1 0.25452586E-03 0.79824290E+02</pdfrwt>
<totfact> 0.35359225E+05</totfact>
</mgrwt>
</event>
<event>
 8    1  0.2676873E-020  0.8124751E+02  0.7818608E-02  0.1325548E+00
         -1   -1    0    0    0  501 -0.00000000000E+00  0.00000000000E+00  0.10425246072E+01  0.10425367898E+01  0.50400000000E-02 0.  1.
          2   -1    0    0  501    0  0.00000000000E+00 -0.00000000000E+00 -0.15829649041E+04  0.15829649041E+04  0.25500000000E-02 0. -1.
         24    2    1    2    0    0 -0.13877787808E-16  0.35527136788E-14 -0.15819223795E+04  0.15840074409E+04  0.81247511105E+02 0.  0.
         66    2    3    3    0    0 -0.80452505779E-01 -0.16677741633E+02 -0.15130917658E+04  0.15131850003E+04  0.20000065032E+01 0.  0.
        -13    1    3    3    0    0  0.80452505779E-01  0.16677741633E+02 -0.68830613741E+02  0.70822440586E+02  0.10566000000E+00 0.  1.
         13    1    4    4    0    0 -0.76457800732E+00 -0.82719359861E+01 -0.74779464504E+03  0.74784079309E+03  0.10566000000E+00 0. -1.
        -13    1    4    4    0    0  0.67157216416E+00 -0.67040326200E+01 -0.57518593365E+03  0.57522540320E+03  0.10566000000E+00 0.  1.
         14    1    4    4    0    0  0.12553337378E-01 -0.17017730264E+01 -0.19011118709E+03  0.19011880403E+03  0.00000000000E+00 0. -1.
<mgrwt>
<rscale>  0 0.81247511E+02</rscale>
<asrwt>0</asrwt>
<pdfrwt beam="1">  1        2 0.24353114E+00 0.81247511E+02</pdfrwt>
<pdfrwt beam="2">  1       -1 0.16039061E-03 0.81247511E+02</pdfrwt>
<totfact> 0.31230727E+05</totfact>
</mgrwt>
</event>
<event>
 8    1  0.2676873E-020  0.8060499E+02  0.7818608E-02  0.1327343E+00
          2   -1    0    0  501    0  0.00000000000E+00  0.00000000000E+00  0.26779651714E+02  0.26779651835E+02  0.25500000000E-02 0. -1.
         -1   -1    0    0    0  501 -0.00000000000E+00 -0.00000000000E+00 -0.60653921730E+02  0.60653921940E+02  0.50400000000E-02 0.  1.
         24    2    1    2    0    0  0.17763568394E-14  0.71054273576E-14 -0.33874270017E+02  0.87433573775E+02  0.80604985292E+02 0.  0.
         66    2    3    3    0    0  0.14152782820E+02  0.37536771410E+02 -0.20854843956E+02  0.45257430181E+02  0.20000002056E+01 0.  0.
        -13    1    3    3    0    0 -0.14152782820E+02 -0.37536771410E+02 -0.13019426061E+02  0.42176143593E+02  0.10566000000E+00 0.  1.
         13    1    4    4    0    0  0.42391351385E+01  0.10252540507E+02 -0.52504272287E+01  0.12274485883E+02  0.10566000000E+00 0. -1.
        -13    1    4    4    0    0  0.61255175752E+01  0.16841794665E+02 -0.10338231163E+02  0.20689567437E+02  0.10566000000E+00 0.  1.
        -14    1    4    4    0    0  0.37881301059E+01  0.10442436237E+02 -0.52661855643E+01  0.12293376862E+02  0.00000000000E+00 0.  1.
<mgrwt>
<rscale>  0 0.80604985E+02</rscale>
<asrwt>0</asrwt>
<pdfrwt beam="1">  1        2 0.41199464E-02 0.80604985E+02</pdfrwt>
<pdfrwt beam="2">  1       -1 0.93313726E-02 0.80604985E+02</pdfrwt>
<totfact> 0.12880730E+05</totfact>
</mgrwt>
</event>
<event>
 8    1  0.2676873E-020  0.7879978E+02  0.7818608E-02  0.1332492E+00
          2   -1    0    0  501    0  0.00000000000E+00  0.00000000000E+00  0.12921641389E+03  0.12921641391E+03  0.25500000000E-02 0. -1.
         -1   -1    0    0    0  501 -0.00000000000E+00 -0.00000000000E+00 -0.12013576120E+02  0.12013577177E+02  0.50400000000E-02 0.  1.
         24    2    1    2    0    0  0.00000000000E+00  0.00000000000E+00  0.11720283777E+03  0.14122999109E+03  0.78799779205E+02 0.  0.
         66    2    3    3    0    0 -0.58807438637E+01 -0.23047505138E+02  0.11487662658E+03  0.11733034540E+03  0.19999942190E+01 0.  0.
        -13    1    3    3    0    0  0.58807438637E+01  0.23047505138E+02  0.23262111896E+01  0.23899645688E+02  0.10566000000E+00 0.  1.
         13    1    4    4    0    0 -0.21592799844E+01 -0.87172065174E+01  0.44441855220E+02  0.45340289356E+02  0.10566000000E+00 0. -1.
        -13    1    4    4    0    0 -0.29901979071E+01 -0.12425847482E+02  0.62802938623E+02  0.64090274089E+02  0.10566000000E+00 0.  1.
        -14    1    4    4    0    0 -0.73126597227E+00 -0.19044511383E+01  0.76318327362E+01  0.78997819573E+01  0.00000000000E+00 0.  1.
<mgrwt>
<rscale>  0 0.78799779E+02</rscale>
<asrwt>0</asrwt>
<pdfrwt beam="1">  1        2 0.19879448E-01 0.78799779E+02</pdfrwt>
<pdfrwt beam="2">  1       -1 0.18482426E-02 0.78799779E+02</pdfrwt>
<totfact> 0.19894969E+05</totfact>
</mgrwt>
</event>
<event>
 8    1  0.2676873E-020  0.8311943E+02  0.7818608E-02  0.1320425E+00
          2   -1    0    0  501    0  0.00000000000E+00  0.00000000000E+00  0.14059203553E+04  0.14059203553E+04  0.25500000000E-02 0. -1.
         -1   -1    0    0    0  501 -0.00000000000E+00 -0.00000000000E+00 -0.12285209431E+01  0.12285312813E+01  0.50400000000E-02 0.  1.
         24    2    1    2    0    0  0.88817841970E-15  0.00000000000E+00  0.14046918344E+04  0.14071488866E+04  0.83119429164E+02 0.  0.
         66    2    3    3    0    0  0.68469012344E+01  0.20523022002E+02  0.13029951875E+04  0.13031763246E+04  0.19999994527E+01 0.  0.
        -13    1    3    3    0    0 -0.68469012344E+01 -0.20523022002E+02  0.10169664687E+03  0.10397256194E+03  0.10566000000E+00 0.  1.
         13    1    4    4    0    0  0.24771303181E+01  0.57586238892E+01  0.40072865184E+03  0.40077769586E+03  0.10566000000E+00 0.  1.
        -13    1    4    4    0    0  0.19710376516E+01  0.83314114257E+01  0.51832972956E+03  0.51840044089E+03  0.10566000000E+00 0. -1.
         14    1    4    4    0    0  0.23987332647E+01  0.64329866872E+01  0.38393680608E+03  0.38399818789E+03  0.00000000000E+00 0. -1.
<mgrwt>
<rscale>  0 0.83119429E+02</rscale>
<asrwt>0</asrwt>
<pdfrwt beam="1">  1        2 0.21629522E+00 0.83119429E+02</pdfrwt>
<pdfrwt beam="2">  1       -1 0.18900421E-03 0.83119429E+02</pdfrwt>
<totfact> 0.30752835E+05</totfact>
</mgrwt>
</event>
<event>
 8    1  0.2676873E-020  0.8007749E+02  0.7818608E-02  0.1328832E+00
         -1   -1    0    0    0  501 -0.00000000000E+00  0.00000000000E+00  0.32212685710E+01  0.32212725138E+01  0.50400000000E-02 0.  1.
          2   -1    0    0  501    0  0.00000000000E+00 -0.00000000000E+00 -0.49766107795E+03  0.49766107796E+03  0.25500000000E-02 0. -1.
         24    2    1    2    0    0  0.00000000000E+00  0.00000000000E+00 -0.49443980938E+03  0.50088235047E+03  0.80077486936E+02 0.  0.
         66    2    3    3    0    0  0.77461397485E+01  0.19388697272E+02 -0.46088469416E+03  0.46136170796E+03  0.19999998372E+01 0.  0.
        -13    1    3    3    0    0 -0.77461397485E+01 -0.19388697272E+02 -0.33555115220E+02  0.39520642510E+02  0.10566000000E+00 0.  1.
         13    1    4    4    0    0  0.38946847728E+01  0.10104152228E+02 -0.22468163400E+03  0.22494245994E+03  0.10566000000E+00 0. -1.
        -13    1    4    4    0    0  0.38489676954E+01  0.89711595210E+01 -0.23150115110E+03  0.23170690620E+03  0.10566000000E+00 0.  1.
         14    1    4    4    0    0  0.24872803320E-02  0.31338552330E+00 -0.47019090532E+01  0.47123418188E+01  0.00000000000E+00 0. -1.
<mgrwt>
<rscale>  0 0.80077487E+02</rscale>
<asrwt>0</asrwt>
<pdfrwt beam="1">  1        2 0.76563182E-01 0.80077487E+02</pdfrwt>
<pdfrwt beam="2">  1       -1 0.49558048E-03 0.80077487E+02</pdfrwt>
<totfact> 0.30329181E+05</totfact>
</mgrwt>
</event>
<event>
 8    1  0.2676873E-020  0.8025756E+02  0.7818608E-02  0.1328322E+00
          2   -1    0    0  501    0  0.00000000000E+00  0.00000000000E+00  0.25926134052E+02  0.25926134177E+02  0.25500000000E-02 0. -1.
         -1   -1    0    0    0  501 -0.00000000000E+00 -0.00000000000E+00 -0.62111802745E+02  0.62111802949E+02  0.50400000000E-02 0.  1.
         24    2    1    2    0    0  0.17763568394E-14  0.35527136788E-14 -0.36185668693E+02  0.88037937127E+02  0.80257558864E+02 0.  0.
         66    2    3    3    0    0  0.14120356528E+02  0.27480361190E+02  0.99433761448E+01  0.32518078866E+02  0.20000011028E+01 0.  0.
        -13    1    3    3    0    0 -0.14120356528E+02 -0.27480361190E+02 -0.46129044837E+02  0.55519858260E+02  0.10566000000E+00 0.  1.
         13    1    4    4    0    0  0.42518660676E+01  0.89385224133E+01  0.28814560339E+01  0.10309679961E+02  0.10566000000E+00 0. -1.
        -13    1    4    4    0    0  0.36671992293E+01  0.75058046757E+01  0.34989257227E+01  0.90575437766E+01  0.10566000000E+00 0.  1.
        -14    1    4    4    0    0  0.62012912307E+01  0.11036034101E+02  0.35629943882E+01  0.13150855129E+02  0.00000000000E+00 0.  1.
<mgrwt>
<rscale>  0 0.80257559E+02</rscale>
<asrwt>0</asrwt>
<pdfrwt beam="1">  1        2 0.39886361E-02 0.80257559E+02</pdfrwt>
<pdfrwt beam="2">  1       -1 0.95556619E-02 0.80257559E+02</pdfrwt>
<totfact> 0.12955594E+05</totfact>
</mgrwt>
</event>
<event>
 8    1  0.2676873E-020  0.8112943E+02  0.7818608E-02  0.1325876E+00
          2   -1    0    0  501    0  0.00000000000E+00  0.00000000000E+00  0.58985384928E+02  0.58985384983E+02  0.25500000000E-02 0. -1.
         -1   -1    0    0    0  501 -0.00000000000E+00 -0.00000000000E+00 -0.27896676873E+02  0.27896677328E+02  0.50400000000E-02 0.  1.
         24    2    1    2    0    0 -0.71054273576E-14  0.00000000000E+00  0.31088708055E+02  0.86882062311E+02  0.81129433517E+02 0.  0.
         66    2    3    3    0    0  0.39954897715E+02  0.55424096228E+01  0.11219694646E+02  0.41916508675E+02  0.19999989178E+01 0.  0.
        -13    1    3    3    0    0 -0.39954897715E+02 -0.55424096228E+01  0.19869013409E+02  0.44965553636E+02  0.10566000000E+00 0.  1.
         13    1    4    4    0    0  0.56855423309E+01  0.11172507951E+01  0.19239859875E+01  0.61062694873E+01  0.10566000000E+00 0. -1.
        -13    1    4    4    0    0  0.62145174770E+01  0.56052060044E+00  0.21770776575E+01  0.66094812185E+01  0.10566000000E+00 0.  1.
         14    1    4    4    0    0  0.28054837908E+02  0.38646382273E+01  0.71186310008E+01  0.29200757969E+02  0.00000000000E+00 0. -1.
<mgrwt>
<rscale>  0 0.81129434E+02</rscale>
<asrwt>0</asrwt>
<pdfrwt beam="1">  1        2 0.90746746E-02 0.81129434E+02</pdfrwt>
<pdfrwt beam="2">  1       -1 0.42917965E-02 0.81129434E+02</pdfrwt>
<totfact> 0.14923994E+05</totfact>
</mgrwt>
</event>
<event>
 8    1  0.2676873E-020  0.7963207E+02  0.7818608E-02  0.1330099E+00
         -1   -1    0    0    0  501 -0.00000000000E+00  0.00000000000E+00  0.11262054935E+02  0.11262056063E+02  0.50400000000E-02 0.  1.
          2   -1    0    0  501    0  0.00000000000E+00 -0.00000000000E+00 -0.14076618450E+03  0.14076618452E+03  0.25500000000E-02 0. -1.
         24    2    1    2    0    0  0.00000000000E+00  0.00000000000E+00 -0.12950412956E+03  0.15202824058E+03  0.79632068673E+02 0.  0.
         66    2    3    3    0    0 -0.11706789538E+01 -0.35224324810E+02 -0.10005692830E+03  0.10610142517E+03  0.19999938194E+01 0.  0.
        -13    1    3    3    0    0  0.11706789538E+01  0.35224324810E+02 -0.29447201262E+02  0.45926815410E+02  0.10566000000E+00 0.  1.
         13    1    4    4    0    0 -0.12547670846E+01 -0.31308713629E+02 -0.89769014496E+02  0.95080477056E+02  0.10566000000E+00 0. -1.
        -13    1    4    4    0    0 -0.13118517515E+00 -0.46077048762E+00 -0.13024579231E+01  0.13917900953E+01  0.10566000000E+00 0. -1.
         14    1    4    4    0    0  0.21527330598E+00 -0.34548406935E+01 -0.89854558790E+01  0.96291580197E+01  0.00000000000E+00 0. -1.
<mgrwt>
<rscale>  0 0.79632069E+02</rscale>
<asrwt>0</asrwt>
<pdfrwt beam="1">  1        2 0.21656335E-01 0.79632069E+02</pdfrwt>
<pdfrwt beam="2">  1       -1 0.17326240E-02 0.79632069E+02</pdfrwt>
<totfact> 0.19869758E+05</totfact>
</mgrwt>
</event>
<event>
 8    1  0.2676873E-020  0.7964849E+02  0.7818608E-02  0.1330052E+00
          2   -1    0    0  501    0  0.00000000000E+00  0.00000000000E+00  0.23880299138E+02  0.23880299274E+02  0.25500000000E-02 0. -1.
         -1   -1    0    0    0  501 -0.00000000000E+00 -0.00000000000E+00 -0.66413339951E+02  0.66413340142E+02  0.50400000000E-02 0.  1.
         24    2    1    2    0    0  0.00000000000E+00  0.00000000000E+00 -0.42533040813E+02  0.90293639416E+02  0.79648488737E+02 0.  0.
         66    2    3    3    0    0  0.28374936137E+02  0.27906368520E+02 -0.20995171686E+02  0.45041088379E+02  0.20000008875E+01 0.  0.
        -13    1    3    3    0    0 -0.28374936137E+02 -0.27906368520E+02 -0.21537869127E+02  0.45252551036E+02  0.10566000000E+00 0.  1.
         13    1    4    4    0    0  0.91382004723E+01  0.92848618234E+01 -0.61464797663E+01  0.14405059684E+02  0.10566000000E+00 0. -1.
        -13    1    4    4    0    0  0.22201454896E+01  0.26523622209E+01 -0.18655854095E+01  0.39313667219E+01  0.10566000000E+00 0.  1.
         14    1    4    4    0    0  0.17016590175E+02  0.15969144475E+02 -0.12983106510E+02  0.26704661973E+02  0.00000000000E+00 0. -1.
<mgrwt>
<rscale>  0 0.79648489E+02</rscale>
<asrwt>0</asrwt>
<pdfrwt beam="1">  1        2 0.36738922E-02 0.79648489E+02</pdfrwt>
<pdfrwt beam="2">  1       -1 0.10217437E-01 0.79648489E+02</pdfrwt>
<totfact> 0.13025174E+05</totfact>
</mgrwt>
</event>
<event>
 8    1  0.2676873E-020  0.7751924E+02  0.7818608E-02  0.1336243E+00
          2   -1    0    0  501    0  0.00000000000E+00  0.00000000000E+00  0.47229505273E+02  0.47229505342E+02  0.25500000000E-02 0. -1.
         -1   -1    0    0    0  501 -0.00000000000E+00 -0.00000000000E+00 -0.31808678637E+02  0.31808679036E+02  0.50400000000E-02 0.  1.
         24    2    1    2    0    0  0.00000000000E+00 -0.17763568394E-14  0.15420826637E+02  0.79038184378E+02  0.77519240809E+02 0.  0.
         66    2    3    3    0    0 -0.28295709804E+02 -0.13796738352E+02 -0.15294482078E+02  0.35055931867E+02  0.19999986489E+01 0.  0.
        -13    1    3    3    0    0  0.28295709804E+02  0.13796738352E+02  0.30715308714E+02  0.43982252511E+02  0.10566000000E+00 0.  1.
         13    1    4    4    0    0 -0.16272808388E+02 -0.76223455568E+01 -0.89733019604E+01  0.20085710262E+02  0.10566000000E+00 0. -1.
        -13    1    4    4    0    0 -0.25788828729E+01 -0.79466199645E+00 -0.13223103244E+01  0.30069574640E+01  0.10566000000E+00 0.  1.
        -14    1    4    4    0    0 -0.94440185433E+01 -0.53797307985E+01 -0.49988697928E+01  0.11963264141E+02  0.00000000000E+00 0.  1.
<mgrwt>
<rscale>  0 0.77519241E+02</rscale>
<asrwt>0</asrwt>
<pdfrwt beam="1">  1        2 0.72660777E-02 0.77519241E+02</pdfrwt>
<pdfrwt beam="2">  1       -1 0.48936429E-02 0.77519241E+02</pdfrwt>
<totfact> 0.16090361E+05</totfact>
</mgrwt>
</event>
<event>
 8    1  0.2676873E-020  0.7896972E+02  0.7818608E-02  0.1332001E+00
          2   -1    0    0  501    0  0.00000000000E+00  0.00000000000E+00  0.53182200345E+02  0.53182200407E+02  0.25500000000E-02 0. -1.
         -1   -1    0    0    0  501 -0.00000000000E+00 -0.00000000000E+00 -0.29315339791E+02  0.29315340224E+02  0.50400000000E-02 0.  1.
         24    2    1    2    0    0 -0.17763568394E-14  0.00000000000E+00  0.23866860555E+02  0.82497540631E+02  0.78969723169E+02 0.  0.
         66    2    3    3    0    0  0.13665625241E+02  0.55485877293E+01  0.50175428654E+02  0.52336505196E+02  0.19999991244E+01 0.  0.
        -13    1    3    3    0    0 -0.13665625241E+02 -0.55485877293E+01 -0.26308568099E+02  0.30161035435E+02  0.10566000000E+00 0.  1.
         13    1    4    4    0    0  0.98790536688E+01  0.34117855003E+01  0.35603870979E+02  0.37106371076E+02  0.10566000000E+00 0. -1.
        -13    1    4    4    0    0  0.46148403748E+00  0.45237504111E-02  0.18367178287E+01  0.18967562835E+01  0.10566000000E+00 0.  1.
         14    1    4    4    0    0  0.33250875346E+01  0.21322784786E+01  0.12734839846E+02  0.13333377836E+02  0.00000000000E+00 0. -1.
<mgrwt>
<rscale>  0 0.78969723E+02</rscale>
<asrwt>0</asrwt>
<pdfrwt beam="1">  1        2 0.81818768E-02 0.78969723E+02</pdfrwt>
<pdfrwt beam="2">  1       -1 0.45100524E-02 0.78969723E+02</pdfrwt>
<totfact> 0.15692666E+05</totfact>
</mgrwt>
</event>
<event>
 8    1  0.2676873E-020  0.7671373E+02  0.7818608E-02  0.1338645E+00
          2   -1    0    0  501    0  0.00000000000E+00  0.00000000000E+00  0.66641860389E+02  0.66641860437E+02  0.25500000000E-02 0. -1.
         -1   -1    0    0    0  501 -0.00000000000E+00 -0.00000000000E+00 -0.22076949419E+02  0.22076949994E+02  0.50400000000E-02 0.  1.
         24    2    1    2    0    0  0.00000000000E+00  0.11102230246E-15  0.44564910970E+02  0.88718810432E+02  0.76713727811E+02 0.  0.
         66    2    3    3    0    0 -0.36166115218E+02  0.63567915500E+00  0.36965055519E+02  0.51757195953E+02  0.20000063817E+01 0.  0.
        -13    1    3    3    0    0  0.36166115218E+02 -0.63567915500E+00  0.75998554510E+01  0.36961614478E+02  0.10566000000E+00 0.  1.
         13    1    4    4    0    0 -0.10278685429E+02  0.52235654014E+00  0.10596926641E+02  0.14772618210E+02  0.10566000000E+00 0. -1.
        -13    1    4    4    0    0 -0.50847197055E+01 -0.65698132106E-01  0.43468917186E+01  0.66906892303E+01  0.10566000000E+00 0.  1.
        -14    1    4    4    0    0 -0.20802710084E+02  0.17902074697E+00  0.22021237159E+02  0.30293888513E+02  0.00000000000E+00 0.  1.
<mgrwt>
<rscale>  0 0.76713728E+02</rscale>
<asrwt>0</asrwt>
<pdfrwt beam="1">  1        2 0.10252594E-01 0.76713728E+02</pdfrwt>
<pdfrwt beam="2">  1       -1 0.33964538E-02 0.76713728E+02</pdfrwt>
<totfact> 0.17871666E+05</totfact>
</mgrwt>
</event>
<event>
 8    1  0.2676873E-020  0.8000770E+02  0.7818608E-02  0.1329030E+00
          2   -1    0    0  501    0  0.00000000000E+00  0.00000000000E+00  0.65663701032E+03  0.65663701033E+03  0.25500000000E-02 0. -1.
         -1   -1    0    0    0  501 -0.00000000000E+00 -0.00000000000E+00 -0.24371247636E+01  0.24371299750E+01  0.50400000000E-02 0.  1.
         24    2    1    2    0    0  0.71054273576E-14  0.00000000000E+00  0.65419988556E+03  0.65907414030E+03  0.80007700567E+02 0.  0.
         66    2    3    3    0    0 -0.26488700185E+02 -0.25526950165E+02  0.45625014573E+03  0.45773515480E+03  0.20000089092E+01 0.  0.
        -13    1    3    3    0    0  0.26488700185E+02  0.25526950165E+02  0.19794973982E+03  0.20133898550E+03  0.10566000000E+00 0.  1.
         13    1    4    4    0    0 -0.40619093156E+00 -0.20593287344E+00  0.68745577218E+01  0.68904359316E+01  0.10566000000E+00 0.  1.
        -13    1    4    4    0    0 -0.91703511814E+01 -0.82610300572E+01  0.15056744602E+03  0.15107252207E+03  0.10566000000E+00 0.  1.
         14    1    4    4    0    0 -0.16912158072E+02 -0.17059987234E+02  0.29880814199E+03  0.29977219680E+03  0.00000000000E+00 0. -1.
<mgrwt>
<rscale>  0 0.80007701E+02</rscale>
<asrwt>0</asrwt>
<pdfrwt beam="1">  1        2 0.10102123E+00 0.80007701E+02</pdfrwt>
<pdfrwt beam="2">  1       -1 0.37494211E-03 0.80007701E+02</pdfrwt>
<totfact> 0.32933577E+05</totfact>
</mgrwt>
</event>
<event>
 8    1  0.2676873E-020  0.7965689E+02  0.7818608E-02  0.1330028E+00
         -1   -1    0    0    0  501 -0.00000000000E+00  0.00000000000E+00  0.14630994654E+02  0.14630995522E+02  0.50400000000E-02 0.  1.
          2   -1    0    0  501    0  0.00000000000E+00 -0.00000000000E+00 -0.10842085737E+03  0.10842085740E+03  0.25500000000E-02 0. -1.
         24    2    1    2    0    0  0.00000000000E+00  0.00000000000E+00 -0.93789862713E+02  0.12305185292E+03  0.79656890216E+02 0.  0.
         66    2    3    3    0    0 -0.14144726795E+01 -0.20127647175E+02 -0.99925614032E+02  0.10196200887E+03  0.19999997804E+01 0.  0.
        -13    1    3    3    0    0  0.14144726795E+01  0.20127647175E+02  0.61357513186E+01  0.21089844050E+02  0.10566000000E+00 0.  1.
         13    1    4    4    0    0 -0.19912078203E+00 -0.48497079421E+01 -0.22307291970E+02  0.22829493102E+02  0.10566000000E+00 0. -1.
        -13    1    4    4    0    0 -0.76935439837E+00 -0.24431527116E+01 -0.12829010855E+02  0.13082644416E+02  0.10566000000E+00 0.  1.
         14    1    4    4    0    0 -0.44599749908E+00 -0.12834786522E+02 -0.64789311206E+02  0.66049871351E+02  0.00000000000E+00 0. -1.
<mgrwt>
<rscale>  0 0.79656890E+02</rscale>
<asrwt>0</asrwt>
<pdfrwt beam="1">  1        2 0.16680131E-01 0.79656890E+02</pdfrwt>
<pdfrwt beam="2">  1       -1 0.22509224E-02 0.79656890E+02</pdfrwt>
<totfact> 0.18347343E+05</totfact>
</mgrwt>
</event>
<event>
 8    1  0.2676873E-020  0.8154701E+02  0.7818608E-02  0.1324718E+00
          2   -1    0    0  501    0  0.00000000000E+00  0.00000000000E+00  0.17042685079E+03  0.17042685081E+03  0.25500000000E-02 0. -1.
         -1   -1    0    0    0  501 -0.00000000000E+00 -0.00000000000E+00 -0.97547931943E+01  0.97547944963E+01  0.50400000000E-02 0.  1.
         24    2    1    2    0    0  0.71054273576E-14  0.00000000000E+00  0.16067205760E+03  0.18018164531E+03  0.81547012287E+02 0.  0.
         66    2    3    3    0    0  0.36625033203E+02 -0.34401225713E+00  0.11984559520E+03  0.12533346761E+03  0.20000026725E+01 0.  0.
        -13    1    3    3    0    0 -0.36625033203E+02  0.34401225713E+00  0.40826462391E+02  0.54848177700E+02  0.10566000000E+00 0.  1.
         13    1    4    4    0    0  0.90495669434E+01 -0.20797158220E+00  0.28555569735E+02  0.29956128605E+02  0.10566000000E+00 0. -1.
        -13    1    4    4    0    0  0.10374413592E+02 -0.61849728431E+00  0.36180926431E+02  0.37644144268E+02  0.10566000000E+00 0.  1.
         14    1    4    4    0    0  0.17201052667E+02  0.48245660938E+00  0.55109099038E+02  0.57733194733E+02  0.00000000000E+00 0. -1.
<mgrwt>
<rscale>  0 0.81547012E+02</rscale>
<asrwt>0</asrwt>
<pdfrwt beam="1">  1        2 0.26219515E-01 0.81547012E+02</pdfrwt>
<pdfrwt beam="2">  1       -1 0.15007375E-02 0.81547012E+02</pdfrwt>
<totfact> 0.19853346E+05</totfact>
</mgrwt>
</event>
<event>
 8    1  0.2676873E-020  0.8006780E+02  0.7818608E-02  0.1328859E+00
          2   -1    0    0  501    0  0.00000000000E+00  0.00000000000E+00  0.10170435853E+04  0.10170435853E+04  0.25500000000E-02 0. -1.
         -1   -1    0    0    0  501 -0.00000000000E+00 -0.00000000000E+00 -0.15758507815E+01  0.15758588411E+01  0.50400000000E-02 0.  1.
         24    2    1    2    0    0  0.00000000000E+00  0.00000000000E+00  0.10154677345E+04  0.10186194442E+04  0.80067797153E+02 0.  0.
         66    2    3    3    0    0 -0.18243738500E+02  0.96327734672E+01  0.94415219723E+03  0.94437968835E+03  0.19999743529E+01 0.  0.
        -13    1    3    3    0    0  0.18243738500E+02 -0.96327734672E+01  0.71315537314E+02  0.74239755829E+02  0.10566000000E+00 0.  1.
         13    1    4    4    0    0 -0.85896813494E+01  0.45016968704E+01  0.47711701267E+03  0.47721557271E+03  0.10566000000E+00 0. -1.
        -13    1    4    4    0    0 -0.88510624785E+01  0.46870179020E+01  0.41507002732E+03  0.41519085754E+03  0.10566000000E+00 0.  1.
        -14    1    4    4    0    0 -0.80299467211E+00  0.44405869482E+00  0.51965157246E+02  0.51973258087E+02  0.00000000000E+00 0.  1.
<mgrwt>
<rscale>  0 0.80067797E+02</rscale>
<asrwt>0</asrwt>
<pdfrwt beam="1">  1        2 0.15646864E+00 0.80067797E+02</pdfrwt>
<pdfrwt beam="2">  1       -1 0.24243859E-03 0.80067797E+02</pdfrwt>
<totfact> 0.35175079E+05</totfact>
</mgrwt>
</event>
<event>
 8    1  0.2676873E-020  0.8393379E+02  0.7818608E-02  0.1318245E+00
          2   -1    0    0  501    0  0.00000000000E+00  0.00000000000E+00  0.52529255866E+03  0.52529255866E+03  0.25500000000E-02 0. -1.
         -1   -1    0    0    0  501 -0.00000000000E+00 -0.00000000000E+00 -0.33528346797E+01  0.33528384678E+01  0.50400000000E-02 0.  1.
         24    2    1    2    0    0  0.00000000000E+00  0.00000000000E+00  0.52193972398E+03  0.52864539713E+03  0.83933786060E+02 0.  0.
         66    2    3    3    0    0 -0.37710956967E+02  0.96806079102E+01  0.35937705210E+03  0.36148540223E+03  0.20000003021E+01 0.  0.
        -13    1    3    3    0    0  0.37710956967E+02 -0.96806079102E+01  0.16256267188E+03  0.16715999490E+03  0.10566000000E+00 0.  1.
         13    1    4    4    0    0 -0.12988362600E+02  0.30249143399E+01  0.12298056125E+03  0.12370156539E+03  0.10566000000E+00 0. -1.
        -13    1    4    4    0    0 -0.14444720030E+02  0.38934464241E+01  0.13109030304E+03  0.13194122774E+03  0.10566000000E+00 0.  1.
        -14    1    4    4    0    0 -0.10277874337E+02  0.27622471462E+01  0.10530618781E+03  0.10584260910E+03  0.00000000000E+00 0.  1.
<mgrwt>
<rscale>  0 0.83933786E+02</rscale>
<asrwt>0</asrwt>
<pdfrwt beam="1">  1        2 0.80814268E-01 0.83933786E+02</pdfrwt>
<pdfrwt beam="2">  1       -1 0.51582083E-03 0.83933786E+02</pdfrwt>
<totfact> 0.27283524E+05</totfact>
</mgrwt>
</event>
<event>
 8    1  0.2676873E-020  0.8010971E+02  0.7818608E-02  0.1328740E+00
         -1   -1    0    0    0  501 -0.00000000000E+00  0.00000000000E+00  0.32343289723E+01  0.32343328991E+01  0.50400000000E-02 0.  1.
          2   -1    0    0  501    0  0.00000000000E+00 -0.00000000000E+00 -0.49605048486E+03  0.49605048486E+03  0.25500000000E-02 0. -1.
         24    2    1    2    0    0  0.00000000000E+00 -0.35527136788E-14 -0.49281615588E+03  0.49928481776E+03  0.80109710693E+02 0.  0.
         66    2    3    3    0    0 -0.27317253584E+02 -0.29165512873E+02 -0.26121359300E+03  0.26426010037E+03  0.19999993767E+01 0.  0.
        -13    1    3    3    0    0  0.27317253584E+02  0.29165512873E+02 -0.23160256289E+03  0.23502471739E+03  0.10566000000E+00 0.  1.
         13    1    4    4    0    0 -0.13911914330E+02 -0.15366140959E+02 -0.13280835670E+03  0.13441625802E+03  0.10566000000E+00 0. -1.
        -13    1    4    4    0    0 -0.65417355286E+01 -0.63963953106E+01 -0.57454776720E+02  0.58178782289E+02  0.10566000000E+00 0.  1.
        -14    1    4    4    0    0 -0.68636037256E+01 -0.74029766027E+01 -0.70950459578E+02  0.71665060057E+02  0.00000000000E+00 0.  1.
<mgrwt>
<rscale>  0 0.80109711E+02</rscale>
<asrwt>0</asrwt>
<pdfrwt beam="1">  1        2 0.76315399E-01 0.80109711E+02</pdfrwt>
<pdfrwt beam="2">  1       -1 0.49758977E-03 0.80109711E+02</pdfrwt>
<totfact> 0.30265997E+05</totfact>
</mgrwt>
</event>
<event>
 8    1  0.2676873E-020  0.8083550E+02  0.7818608E-02  0.1326697E+00
          2   -1    0    0  501    0  0.00000000000E+00  0.00000000000E+00  0.51727334684E+03  0.51727334684E+03  0.25500000000E-02 0. -1.
         -1   -1    0    0    0  501 -0.00000000000E+00 -0.00000000000E+00 -0.31580851765E+01  0.31580891981E+01  0.50400000000E-02 0.  1.
         24    2    1    2    0    0  0.17763568394E-14  0.00000000000E+00  0.51411526166E+03  0.52043143604E+03  0.80835495594E+02 0.  0.
         66    2    3    3    0    0  0.65374180426E+01  0.20116736709E+02  0.47876271324E+03  0.47923392672E+03  0.19999999955E+01 0.  0.
        -13    1    3    3    0    0 -0.65374180426E+01 -0.20116736709E+02  0.35352548426E+02  0.41197509327E+02  0.10566000000E+00 0.  1.
         13    1    4    4    0    0  0.30192330899E+01  0.10894964950E+02  0.26103202576E+03  0.26127676067E+03  0.10566000000E+00 0. -1.
        -13    1    4    4    0    0  0.26223437208E+01  0.54002633188E+01  0.12856262346E+03  0.12870275383E+03  0.10566000000E+00 0.  1.
        -14    1    4    4    0    0  0.89584123195E+00  0.38215084403E+01  0.89168064023E+02  0.89254412216E+02  0.00000000000E+00 0.  1.
<mgrwt>
<rscale>  0 0.80835496E+02</rscale>
<asrwt>0</asrwt>
<pdfrwt beam="1">  1        2 0.79580534E-01 0.80835496E+02</pdfrwt>
<pdfrwt beam="2">  1       -1 0.48585945E-03 0.80835496E+02</pdfrwt>
<totfact> 0.29956960E+05</totfact>
</mgrwt>
</event>
<event>
 8    1  0.2676873E-020  0.8006562E+02  0.7818608E-02  0.1328865E+00
         -1   -1    0    0    0  501 -0.00000000000E+00  0.00000000000E+00  0.37754893013E+01  0.37754926653E+01  0.50400000000E-02 0.  1.
          2   -1    0    0  501    0  0.00000000000E+00 -0.00000000000E+00 -0.42448142418E+03  0.42448142419E+03  0.25500000000E-02 0. -1.
         24    2    1    2    0    0  0.17763568394E-14  0.00000000000E+00 -0.42070593488E+03  0.42825691686E+03  0.80065618029E+02 0.  0.
         66    2    3    3    0    0 -0.14030437366E+02 -0.17670276497E+02 -0.38719989329E+03  0.38786189450E+03  0.19999987557E+01 0.  0.
        -13    1    3    3    0    0  0.14030437366E+02  0.17670276497E+02 -0.33506041590E+02  0.40395022357E+02  0.10566000000E+00 0.  1.
         13    1    4    4    0    0 -0.65457862736E+01 -0.79529604552E+01 -0.19113918260E+03  0.19141654889E+03  0.10566000000E+00 0. -1.
        -13    1    4    4    0    0 -0.24946246341E+01 -0.32160272706E+01 -0.59905306017E+02  0.60043507863E+02  0.10566000000E+00 0.  1.
        -14    1    4    4    0    0 -0.49900264580E+01 -0.65012887712E+01 -0.13615540467E+03  0.13640183775E+03  0.00000000000E+00 0.  1.
<mgrwt>
<rscale>  0 0.80065618E+02</rscale>
<asrwt>0</asrwt>
<pdfrwt beam="1">  1        2 0.65304797E-01 0.80065618E+02</pdfrwt>
<pdfrwt beam="2">  1       -1 0.58084511E-03 0.80065618E+02</pdfrwt>
<totfact> 0.28779469E+05</totfact>
</mgrwt>
</event>
<event>
 8    1  0.2676873E-020  0.7893606E+02  0.7818608E-02  0.1332098E+00
          2   -1    0    0  501    0  0.00000000000E+00  0.00000000000E+00  0.63540426533E+03  0.63540426534E+03  0.25500000000E-02 0. -1.
         -1   -1    0    0    0  501 -0.00000000000E+00 -0.00000000000E+00 -0.24515476266E+01  0.24515528074E+01  0.50400000000E-02 0.  1.
         24    2    1    2    0    0  0.00000000000E+00  0.00000000000E+00  0.63295271771E+03  0.63785581814E+03  0.78936062039E+02 0.  0.
         66    2    3    3    0    0 -0.33810740245E+02 -0.91287422965E+01  0.46329802682E+03  0.46462410801E+03  0.19999997945E+01 0.  0.
        -13    1    3    3    0    0  0.33810740245E+02  0.91287422965E+01  0.16965469089E+03  0.17323171013E+03  0.10566000000E+00 0.  1.
         13    1    4    4    0    0 -0.19840754799E+02 -0.56746914446E+01  0.27228095657E+03  0.27306187604E+03  0.10566000000E+00 0. -1.
        -13    1    4    4    0    0 -0.90405329093E+01 -0.18813549895E+01  0.12849261687E+03  0.12882404467E+03  0.10566000000E+00 0. -1.
         14    1    4    4    0    0 -0.49294525371E+01 -0.15726958624E+01  0.62524453388E+02  0.62738187303E+02  0.00000000000E+00 0. -1.
<mgrwt>
<rscale>  0 0.78936062E+02</rscale>
<asrwt>0</asrwt>
<pdfrwt beam="1">  1        2 0.97754528E-01 0.78936062E+02</pdfrwt>
<pdfrwt beam="2">  1       -1 0.37716148E-03 0.78936062E+02</pdfrwt>
<totfact> 0.33822222E+05</totfact>
</mgrwt>
</event>
<event>
 8    1  0.2676873E-020  0.8047450E+02  0.7818608E-02  0.1327710E+00
          2   -1    0    0  501    0  0.00000000000E+00  0.00000000000E+00  0.94847675906E+02  0.94847675940E+02  0.25500000000E-02 0. -1.
         -1   -1    0    0    0  501 -0.00000000000E+00 -0.00000000000E+00 -0.17069854862E+02  0.17069855606E+02  0.50400000000E-02 0.  1.
         24    2    1    2    0    0  0.00000000000E+00 -0.17763568394E-14  0.77777821043E+02  0.11191753155E+03  0.80474495470E+02 0.  0.
         66    2    3    3    0    0  0.89424052417E+01 -0.10782692757E+02  0.91333952179E+02  0.92423611212E+02  0.20000035443E+01 0.  0.
        -13    1    3    3    0    0 -0.89424052417E+01  0.10782692757E+02 -0.13556131136E+02  0.19493920334E+02  0.10566000000E+00 0.  1.
         13    1    4    4    0    0  0.17130529604E+01 -0.20751775033E+01  0.18986303713E+02  0.19176334500E+02  0.10566000000E+00 0. -1.
        -13    1    4    4    0    0  0.20926932935E+01 -0.14837270599E+01  0.14819425431E+02  0.15040191001E+02  0.10566000000E+00 0.  1.
        -14    1    4    4    0    0  0.51366589878E+01 -0.72237881937E+01  0.57528223035E+02  0.58207085711E+02  0.00000000000E+00 0.  1.
<mgrwt>
<rscale>  0 0.80474495E+02</rscale>
<asrwt>0</asrwt>
<pdfrwt beam="1">  1        2 0.14591950E-01 0.80474495E+02</pdfrwt>
<pdfrwt beam="2">  1       -1 0.26261316E-02 0.80474495E+02</pdfrwt>
<totfact> 0.17192873E+05</totfact>
</mgrwt>
</event>
<event>
 8    1  0.2676873E-020  0.7933620E+02  0.7818608E-02  0.1330946E+00
          2   -1    0    0  501    0  0.00000000000E+00  0.00000000000E+00  0.23766358421E+02  0.23766358558E+02  0.25500000000E-02 0. -1.
         -1   -1    0    0    0  501 -0.00000000000E+00 -0.00000000000E+00 -0.66209478247E+02  0.66209478439E+02  0.50400000000E-02 0.  1.
         24    2    1    2    0    0  0.00000000000E+00 -0.71054273576E-14 -0.42443119827E+02  0.89975836997E+02  0.79336201211E+02 0.  0.
         66    2    3    3    0    0 -0.17066171720E+02 -0.30630293331E+02 -0.25909053845E+00  0.35121734345E+02  0.20000021949E+01 0.  0.
        -13    1    3    3    0    0  0.17066171720E+02  0.30630293331E+02 -0.42184029288E+02  0.54854102652E+02  0.10566000000E+00 0.  1.
         13    1    4    4    0    0 -0.55388222356E+01 -0.92627488672E+01 -0.64282344792E+00  0.10812097593E+02  0.10566000000E+00 0. -1.
        -13    1    4    4    0    0 -0.40035218963E+01 -0.73622294894E+01 -0.41452131777E+00  0.83912813436E+01  0.10566000000E+00 0.  1.
        -14    1    4    4    0    0 -0.75238275878E+01 -0.14005314974E+02  0.79825422724E+00  0.15918355409E+02  0.00000000000E+00 0.  1.
<mgrwt>
<rscale>  0 0.79336201E+02</rscale>
<asrwt>0</asrwt>
<pdfrwt beam="1">  1        2 0.36563629E-02 0.79336201E+02</pdfrwt>
<pdfrwt beam="2">  1       -1 0.10186074E-01 0.79336201E+02</pdfrwt>
<totfact> 0.13158736E+05</totfact>
</mgrwt>
</event>
<event>
 8    1  0.2676873E-020  0.8005695E+02  0.7818608E-02  0.1328890E+00
         -1   -1    0    0    0  501 -0.00000000000E+00  0.00000000000E+00  0.16953770212E+01  0.16953845126E+01  0.50400000000E-02 0.  1.
          2   -1    0    0  501    0  0.00000000000E+00 -0.00000000000E+00 -0.94508484438E+03  0.94508484438E+03  0.25500000000E-02 0. -1.
         24    2    1    2    0    0  0.00000000000E+00 -0.17763568394E-14 -0.94338946736E+03  0.94678022889E+03  0.80056946638E+02 0.  0.
         66    2    3    3    0    0 -0.17483675654E+02 -0.14780877763E+02 -0.85994262966E+03  0.86024966119E+03  0.20000014858E+01 0.  0.
        -13    1    3    3    0    0  0.17483675654E+02  0.14780877763E+02 -0.83446837692E+02  0.86530567701E+02  0.10566000000E+00 0.  1.
         13    1    4    4    0    0 -0.59489756063E+01 -0.58854297041E+01 -0.30423687537E+03  0.30435196088E+03  0.10566000000E+00 0. -1.
        -13    1    4    4    0    0 -0.11353786261E+02 -0.88473913692E+01 -0.55144779236E+03  0.55163562581E+03  0.10566000000E+00 0.  1.
        -14    1    4    4    0    0 -0.18091378714E+00 -0.48056690081E-01 -0.42579619297E+01  0.42620744994E+01  0.00000000000E+00 0.  1.
<mgrwt>
<rscale>  0 0.80056947E+02</rscale>
<asrwt>0</asrwt>
<pdfrwt beam="1">  1        2 0.14539725E+00 0.80056947E+02</pdfrwt>
<pdfrwt beam="2">  1       -1 0.26082857E-03 0.80056947E+02</pdfrwt>
<totfact> 0.35044751E+05</totfact>
</mgrwt>
</event>
<event>
 8    1  0.2676873E-020  0.8017419E+02  0.7818608E-02  0.1328558E+00
         -1   -1    0    0    0  501 -0.00000000000E+00  0.00000000000E+00  0.81546110093E+01  0.81546125668E+01  0.50400000000E-02 0.  1.
          2   -1    0    0  501    0  0.00000000000E+00 -0.00000000000E+00 -0.19706333831E+03  0.19706333832E+03  0.25500000000E-02 0. -1.
         24    2    1    2    0    0 -0.17763568394E-14  0.00000000000E+00 -0.18890872730E+03  0.20521795089E+03  0.80174186110E+02 0.  0.
         66    2    3    3    0    0  0.15644387661E+02 -0.51133494235E+01 -0.18800428029E+03  0.18873394664E+03  0.20000003893E+01 0.  0.
        -13    1    3    3    0    0 -0.15644387661E+02  0.51133494235E+01 -0.90444701104E+00  0.16484004248E+02  0.10566000000E+00 0.  1.
         13    1    4    4    0    0  0.86481981915E+00 -0.50698881301E+00 -0.82109837757E+01  0.82726277310E+01  0.10566000000E+00 0. -1.
        -13    1    4    4    0    0  0.12762402380E+01 -0.24665038441E+00 -0.12811710948E+02  0.12877916252E+02  0.10566000000E+00 0.  1.
         14    1    4    4    0    0  0.13503327604E+02 -0.43597102261E+01 -0.16698158556E+03  0.16758340266E+03  0.00000000000E+00 0. -1.
<mgrwt>
<rscale>  0 0.80174186E+02</rscale>
<asrwt>0</asrwt>
<pdfrwt beam="1">  1        2 0.30317433E-01 0.80174186E+02</pdfrwt>
<pdfrwt beam="2">  1       -1 0.12545558E-02 0.80174186E+02</pdfrwt>
<totfact> 0.21820065E+05</totfact>
</mgrwt>
</event>
<event>
 8    1  0.2676873E-020  0.8047653E+02  0.7818608E-02  0.1327705E+00
          2   -1    0    0  501    0  0.00000000000E+00  0.00000000000E+00  0.92401640069E+02  0.92401640104E+02  0.25500000000E-02 0. -1.
         -1   -1    0    0    0  501 -0.00000000000E+00 -0.00000000000E+00 -0.17522608602E+02  0.17522609327E+02  0.50400000000E-02 0.  1.
         24    2    1    2    0    0  0.00000000000E+00  0.00000000000E+00  0.74879031467E+02  0.10992424943E+03  0.80476526140E+02 0.  0.
         66    2    3    3    0    0 -0.37775312777E+02 -0.26765066877E+00  0.18631392153E+02  0.42168408467E+02  0.20000016916E+01 0.  0.
        -13    1    3    3    0    0  0.37775312777E+02  0.26765066877E+00  0.56247639314E+02  0.67755840964E+02  0.10566000000E+00 0.  1.
         13    1    4    4    0    0 -0.17419916878E+02 -0.73625741999E+00  0.86899012190E+01  0.19481301965E+02  0.10566000000E+00 0. -1.
        -13    1    4    4    0    0 -0.10954013499E+02 -0.32756496316E-02  0.47839629721E+01  0.11953572195E+02  0.10566000000E+00 0.  1.
        -14    1    4    4    0    0 -0.94013824008E+01  0.47188240085E+00  0.51575279624E+01  0.10733534307E+02  0.00000000000E+00 0.  1.
<mgrwt>
<rscale>  0 0.80476526E+02</rscale>
<asrwt>0</asrwt>
<pdfrwt beam="1">  1        2 0.14215637E-01 0.80476526E+02</pdfrwt>
<pdfrwt beam="2">  1       -1 0.26957860E-02 0.80476526E+02</pdfrwt>
<totfact> 0.17069321E+05</totfact>
</mgrwt>
</event>
<event>
 8    1  0.2676873E-020  0.8104853E+02  0.7818608E-02  0.1326102E+00
          2   -1    0    0  501    0  0.00000000000E+00  0.00000000000E+00  0.21700216727E+02  0.21700216876E+02  0.25500000000E-02 0. -1.
         -1   -1    0    0    0  501 -0.00000000000E+00 -0.00000000000E+00 -0.75677403047E+02  0.75677403215E+02  0.50400000000E-02 0.  1.
         24    2    1    2    0    0  0.00000000000E+00  0.00000000000E+00 -0.53977186321E+02  0.97377620091E+02  0.81048530225E+02 0.  0.
         66    2    3    3    0    0  0.18424980739E+02  0.32536196933E+02 -0.83095422975E+01  0.38355345476E+02  0.20000018205E+01 0.  0.
        -13    1    3    3    0    0 -0.18424980739E+02 -0.32536196933E+02 -0.45667644023E+02  0.59022274615E+02  0.10566000000E+00 0.  1.
         13    1    4    4    0    0  0.40502831541E+01  0.62188896792E+01 -0.23079655545E+01  0.77728534984E+01  0.10566000000E+00 0. -1.
        -13    1    4    4    0    0  0.70496339941E+01  0.12995851038E+02 -0.30026467669E+01  0.15086965742E+02  0.10566000000E+00 0.  1.
         14    1    4    4    0    0  0.73250635908E+01  0.13321456216E+02 -0.29989299761E+01  0.15495526235E+02  0.00000000000E+00 0. -1.
<mgrwt>
<rscale>  0 0.81048530E+02</rscale>
<asrwt>0</asrwt>
<pdfrwt beam="1">  1        2 0.33384949E-02 0.81048530E+02</pdfrwt>
<pdfrwt beam="2">  1       -1 0.11642677E-01 0.81048530E+02</pdfrwt>
<totfact> 0.12159572E+05</totfact>
</mgrwt>
</event>
<event>
 8    1  0.2676873E-020  0.8029990E+02  0.7818608E-02  0.1328202E+00
          2   -1    0    0  501    0  0.00000000000E+00  0.00000000000E+00  0.94058928839E+02  0.94058928874E+02  0.25500000000E-02 0. -1.
         -1   -1    0    0    0  501 -0.00000000000E+00 -0.00000000000E+00 -0.17138390031E+02  0.17138390772E+02  0.50400000000E-02 0.  1.
         24    2    1    2    0    0  0.00000000000E+00  0.71054273576E-14  0.76920538808E+02  0.11119731965E+03  0.80299904147E+02 0.  0.
         66    2    3    3    0    0  0.87821135528E+01  0.35318585704E+02  0.61881668588E+02  0.71818304980E+02  0.20000020829E+01 0.  0.
        -13    1    3    3    0    0 -0.87821135528E+01 -0.35318585704E+02  0.15038870220E+02  0.39379014666E+02  0.10566000000E+00 0.  1.
         13    1    4    4    0    0  0.57854819352E+01  0.22472016408E+02  0.40156409571E+02  0.46379000813E+02  0.10566000000E+00 0. -1.
        -13    1    4    4    0    0  0.46599226503E+00  0.40678691308E+01  0.64675008542E+01  0.76553536425E+01  0.10566000000E+00 0.  1.
         14    1    4    4    0    0  0.25306393526E+01  0.87787001646E+01  0.15257758163E+02  0.17783950525E+02  0.00000000000E+00 0. -1.
<mgrwt>
<rscale>  0 0.80299904E+02</rscale>
<asrwt>0</asrwt>
<pdfrwt beam="1">  1        2 0.14470605E-01 0.80299904E+02</pdfrwt>
<pdfrwt beam="2">  1       -1 0.26366754E-02 0.80299904E+02</pdfrwt>
<totfact> 0.17253840E+05</totfact>
</mgrwt>
</event>
<event>
 8    1  0.2676873E-020  0.8367826E+02  0.7818608E-02  0.1318926E+00
          2   -1    0    0  501    0  0.00000000000E+00  0.00000000000E+00  0.52876447536E+02  0.52876447597E+02  0.25500000000E-02 0. -1.
         -1   -1    0    0    0  501 -0.00000000000E+00 -0.00000000000E+00 -0.33105722150E+02  0.33105722534E+02  0.50400000000E-02 0.  1.
         24    2    1    2    0    0  0.35527136788E-14 -0.71054273576E-14  0.19770725385E+02  0.85982170131E+02  0.83678264790E+02 0.  0.
         66    2    3    3    0    0  0.22004332178E+02 -0.35484035646E+02  0.75477324176E+01  0.42476766542E+02  0.20000027354E+01 0.  0.
        -13    1    3    3    0    0 -0.22004332178E+02  0.35484035646E+02  0.12222992967E+02  0.43505403589E+02  0.10566000000E+00 0.  1.
         13    1    4    4    0    0  0.94121222114E+01 -0.14201966898E+02  0.26934925092E+01  0.17249636930E+02  0.10566000000E+00 0. -1.
        -13    1    4    4    0    0  0.50422234340E+01 -0.74356499644E+01  0.17604467350E+01  0.91555034976E+01  0.10566000000E+00 0.  1.
         14    1    4    4    0    0  0.75499865328E+01 -0.13846418783E+02  0.30937931735E+01  0.16071626115E+02  0.00000000000E+00 0. -1.
<mgrwt>
<rscale>  0 0.83678265E+02</rscale>
<asrwt>0</asrwt>
<pdfrwt beam="1">  1        2 0.81348380E-02 0.83678265E+02</pdfrwt>
<pdfrwt beam="2">  1       -1 0.50931881E-02 0.83678265E+02</pdfrwt>
<totfact> 0.13373207E+05</totfact>
</mgrwt>
</event>
<event>
 8    1  0.2676873E-020  0.7941926E+02  0.7818608E-02  0.1330708E+00
         -1   -1    0    0    0  501 -0.00000000000E+00  0.00000000000E+00  0.49540875220E+02  0.49540875476E+02  0.50400000000E-02 0.  1.
          2   -1    0    0  501    0  0.00000000000E+00 -0.00000000000E+00 -0.31829369442E+02  0.31829369545E+02  0.25500000000E-02 0. -1.
         24    2    1    2    0    0  0.00000000000E+00  0.00000000000E+00  0.17711505778E+02  0.81370245021E+02  0.79419263015E+02 0.  0.
         66    2    3    3    0    0  0.11176223376E+02  0.39538840764E+01 -0.29941270174E+02  0.32264854398E+02  0.20000003654E+01 0.  0.
        -13    1    3    3    0    0 -0.11176223376E+02 -0.39538840764E+01  0.47652775952E+02  0.49105390623E+02  0.10566000000E+00 0.  1.
         13    1    4    4    0    0  0.84581598278E+01  0.31165093308E+01 -0.23481475974E+02  0.25152414914E+02  0.10566000000E+00 0. -1.
        -13    1    4    4    0    0  0.27559342084E+00 -0.13143486859E+00 -0.10445174718E+01  0.10933469910E+01  0.10566000000E+00 0.  1.
         14    1    4    4    0    0  0.24424701268E+01  0.96880961422E+00 -0.54152767290E+01  0.60190924931E+01  0.00000000000E+00 0. -1.
<mgrwt>
<rscale>  0 0.79419263E+02</rscale>
<asrwt>0</asrwt>
<pdfrwt beam="1">  1        2 0.48968261E-02 0.79419263E+02</pdfrwt>
<pdfrwt beam="2">  1       -1 0.76216732E-02 0.79419263E+02</pdfrwt>
<totfact> 0.13893548E+05</totfact>
</mgrwt>
</event>
<event>
 8    1  0.2676873E-020  0.7864538E+02  0.7818608E-02  0.1332940E+00
          2   -1    0    0  501    0  0.00000000000E+00  0.00000000000E+00  0.87761813555E+02  0.87761813592E+02  0.25500000000E-02 0. -1.
         -1   -1    0    0    0  501 -0.00000000000E+00 -0.00000000000E+00 -0.17618980907E+02  0.17618981628E+02  0.50400000000E-02 0.  1.
         24    2    1    2    0    0  0.17763568394E-14  0.44408920985E-15  0.70142832648E+02  0.10538079522E+03  0.78645375130E+02 0.  0.
         66    2    3    3    0    0 -0.15151528998E+02 -0.39154671720E+01  0.83394859527E+02  0.84874037929E+02  0.20000011868E+01 0.  0.
        -13    1    3    3    0    0  0.15151528998E+02  0.39154671720E+01 -0.13252026879E+02  0.20506757291E+02  0.10566000000E+00 0.  1.
         13    1    4    4    0    0 -0.11105578098E+02 -0.32398976647E+01  0.58704052634E+02  0.59833166066E+02  0.10566000000E+00 0. -1.
        -13    1    4    4    0    0 -0.28295008545E+01 -0.17741368290E+00  0.15661736408E+02  0.15916617167E+02  0.10566000000E+00 0.  1.
         14    1    4    4    0    0 -0.12164500458E+01 -0.49815582440E+00  0.90290704853E+01  0.91242546966E+01  0.00000000000E+00 0. -1.
<mgrwt>
<rscale>  0 0.78645375E+02</rscale>
<asrwt>0</asrwt>
<pdfrwt beam="1">  1        2 0.13501817E-01 0.78645375E+02</pdfrwt>
<pdfrwt beam="2">  1       -1 0.27106126E-02 0.78645375E+02</pdfrwt>
<totfact> 0.17907760E+05</totfact>
</mgrwt>
</event>
<event>
 8    1  0.2676873E-020  0.7986516E+02  0.7818608E-02  0.1329435E+00
         -1   -1    0    0    0  501 -0.00000000000E+00  0.00000000000E+00  0.13553413765E+01  0.13553507474E+01  0.50400000000E-02 0.  1.
          2   -1    0    0  501    0  0.00000000000E+00 -0.00000000000E+00 -0.11765341368E+04  0.11765341368E+04  0.25500000000E-02 0. -1.
         24    2    1    2    0    0  0.00000000000E+00  0.35527136788E-14 -0.11751787954E+04  0.11778894875E+04  0.79865159287E+02 0.  0.
         66    2    3    3    0    0 -0.12428049489E+02  0.22846093707E+02 -0.10343768528E+04  0.10347056944E+04  0.19999983886E+01 0.  0.
        -13    1    3    3    0    0  0.12428049489E+02 -0.22846093707E+02 -0.14080194264E+03  0.14318379317E+03  0.10566000000E+00 0.  1.
         13    1    4    4    0    0 -0.47310676576E+00  0.68834933433E+00 -0.27885086957E+02  0.27897793702E+02  0.10566000000E+00 0. -1.
        -13    1    4    4    0    0 -0.88401937163E+01  0.15883104834E+02 -0.69863916010E+03  0.69887560354E+03  0.10566000000E+00 0. -1.
         14    1    4    4    0    0 -0.31147490065E+01  0.62746395382E+01 -0.30785260571E+03  0.30793229711E+03  0.00000000000E+00 0. -1.
<mgrwt>
<rscale>  0 0.79865159E+02</rscale>
<asrwt>0</asrwt>
<pdfrwt beam="1">  1        2 0.18100444E+00 0.79865159E+02</pdfrwt>
<pdfrwt beam="2">  1       -1 0.20851572E-03 0.79865159E+02</pdfrwt>
<totfact> 0.35261954E+05</totfact>
</mgrwt>
</event>
<event>
 8    1  0.2676873E-020  0.7859336E+02  0.7818608E-02  0.1333091E+00
         -1   -1    0    0    0  501 -0.00000000000E+00  0.00000000000E+00  0.15977618995E+02  0.15977619790E+02  0.50400000000E-02 0.  1.
          2   -1    0    0  501    0  0.00000000000E+00 -0.00000000000E+00 -0.96649506698E+02  0.96649506732E+02  0.25500000000E-02 0. -1.
         24    2    1    2    0    0  0.88817841970E-15  0.00000000000E+00 -0.80671887704E+02  0.11262712652E+03  0.78593359534E+02 0.  0.
         66    2    3    3    0    0 -0.56144310407E+01  0.36468619445E+02 -0.21096203995E+02  0.42550345106E+02  0.20000013759E+01 0.  0.
        -13    1    3    3    0    0  0.56144310407E+01 -0.36468619445E+02 -0.59575683709E+02  0.70076781415E+02  0.10566000000E+00 0.  1.
         13    1    4    4    0    0 -0.28735503127E+01  0.19140569571E+02 -0.11424700502E+02  0.22475623250E+02  0.10566000000E+00 0. -1.
        -13    1    4    4    0    0 -0.23753237273E+00  0.48700908207E+01 -0.24241977136E+01  0.54462927593E+01  0.10566000000E+00 0.  1.
         14    1    4    4    0    0 -0.25033483553E+01  0.12457959054E+02 -0.72473057797E+01  0.14628429097E+02  0.00000000000E+00 0. -1.
<mgrwt>
<rscale>  0 0.78593360E+02</rscale>
<asrwt>0</asrwt>
<pdfrwt beam="1">  1        2 0.14869154E-01 0.78593360E+02</pdfrwt>
<pdfrwt beam="2">  1       -1 0.24580954E-02 0.78593360E+02</pdfrwt>
<totfact> 0.18413053E+05</totfact>
</mgrwt>
</event>
<event>
 8    1  0.2676873E-020  0.7865308E+02  0.7818608E-02  0.1332918E+00
          2   -1    0    0  501    0  0.00000000000E+00  0.00000000000E+00  0.21106806209E+03  0.21106806211E+03  0.25500000000E-02 0. -1.
         -1   -1    0    0    0  501 -0.00000000000E+00 -0.00000000000E+00 -0.73273827853E+01  0.73273845186E+01  0.50400000000E-02 0.  1.
         24    2    1    2    0    0  0.00000000000E+00  0.35527136788E-14  0.20374067931E+03  0.21839544663E+03  0.78653078151E+02 0.  0.
         66    2    3    3    0    0  0.23836996426E+02 -0.31231591184E+02  0.10465243342E+03  0.11180226521E+03  0.19999999574E+01 0.  0.
        -13    1    3    3    0    0 -0.23836996426E+02  0.31231591184E+02  0.99088245890E+02  0.10659318141E+03  0.10566000000E+00 0.  1.
         13    1    4    4    0    0  0.11792703435E+01 -0.15873979774E+01  0.48131826258E+01  0.52046519486E+01  0.10566000000E+00 0.  1.
        -13    1    4    4    0    0  0.16979210169E+02 -0.22348010502E+02  0.72920860925E+02  0.78135717015E+02  0.10566000000E+00 0. -1.
        -14    1    4    4    0    0  0.56785159141E+01 -0.72961827050E+01  0.26918389868E+02  0.28461896250E+02  0.00000000000E+00 0.  1.
<mgrwt>
<rscale>  0 0.78653078E+02</rscale>
<asrwt>0</asrwt>
<pdfrwt beam="1">  1        2 0.32472008E-01 0.78653078E+02</pdfrwt>
<pdfrwt beam="2">  1       -1 0.11272899E-02 0.78653078E+02</pdfrwt>
<totfact> 0.23505190E+05</totfact>
</mgrwt>
</event>
<event>
 8    1  0.2676873E-020  0.7931708E+02  0.7818608E-02  0.1331001E+00
         -1   -1    0    0    0  501 -0.00000000000E+00  0.00000000000E+00  0.41877022321E+02  0.41877022624E+02  0.50400000000E-02 0.  1.
          2   -1    0    0  501    0  0.00000000000E+00 -0.00000000000E+00 -0.37557587586E+02  0.37557587672E+02  0.25500000000E-02 0. -1.
         24    2    1    2    0    0 -0.35527136788E-14  0.71054273576E-14  0.43194347349E+01  0.79434610296E+02  0.79317083888E+02 0.  0.
         66    2    3    3    0    0 -0.20495329647E+02  0.32975613280E+02 -0.58096880892E+01  0.39309058564E+02  0.20000002338E+01 0.  0.
        -13    1    3    3    0    0  0.20495329647E+02 -0.32975613280E+02  0.10129122824E+02  0.40125551732E+02  0.10566000000E+00 0.  1.
         13    1    4    4    0    0 -0.68338620053E+01  0.12063578886E+02 -0.17224213641E+01  0.13971739506E+02  0.10566000000E+00 0. -1.
        -13    1    4    4    0    0 -0.68058192034E+01  0.10165157412E+02 -0.14408642982E+01  0.12318151412E+02  0.10566000000E+00 0.  1.
         14    1    4    4    0    0 -0.68556484387E+01  0.10746876982E+02 -0.26464024269E+01  0.13019167646E+02  0.00000000000E+00 0. -1.
<mgrwt>
<rscale>  0 0.79317084E+02</rscale>
<asrwt>0</asrwt>
<pdfrwt beam="1">  1        2 0.57780904E-02 0.79317084E+02</pdfrwt>
<pdfrwt beam="2">  1       -1 0.64426189E-02 0.79317084E+02</pdfrwt>
<totfact> 0.14411192E+05</totfact>
</mgrwt>
</event>
<event>
 8    1  0.2676873E-020  0.8541553E+02  0.7818608E-02  0.1314349E+00
          2   -1    0    0  501    0  0.00000000000E+00  0.00000000000E+00  0.65564517576E+02  0.65564517625E+02  0.25500000000E-02 0. -1.
         -1   -1    0    0    0  501 -0.00000000000E+00 -0.00000000000E+00 -0.27819209609E+02  0.27819210065E+02  0.50400000000E-02 0.  1.
         24    2    1    2    0    0  0.35527136788E-14  0.00000000000E+00  0.37745307967E+02  0.93383727691E+02  0.85415527417E+02 0.  0.
         66    2    3    3    0    0  0.20408260631E+02  0.20896622768E+02  0.52911834715E+02  0.60471714037E+02  0.20000001442E+01 0.  0.
        -13    1    3    3    0    0 -0.20408260631E+02 -0.20896622768E+02 -0.15166526749E+02  0.32912013653E+02  0.10566000000E+00 0.  1.
         13    1    4    4    0    0  0.86419657922E+01  0.95520563823E+01  0.23730652312E+02  0.27001488423E+02  0.10566000000E+00 0. -1.
        -13    1    4    4    0    0  0.11135736519E+02  0.10286120893E+02  0.27066285149E+02  0.31022634747E+02  0.10566000000E+00 0.  1.
        -14    1    4    4    0    0  0.63055831932E+00  0.10584454925E+01  0.21148972551E+01  0.24475908674E+01  0.00000000000E+00 0.  1.
<mgrwt>
<rscale>  0 0.85415527E+02</rscale>
<asrwt>0</asrwt>
<pdfrwt beam="1">  1        2 0.10086849E-01 0.85415527E+02</pdfrwt>
<pdfrwt beam="2">  1       -1 0.42798785E-02 0.85415527E+02</pdfrwt>
<totfact> 0.13295864E+05</totfact>
</mgrwt>
</event>
<event>
 8    1  0.2676873E-020  0.7918494E+02  0.7818608E-02  0.1331380E+00
          2   -1    0    0  501    0  0.00000000000E+00  0.00000000000E+00  0.62428386665E+02  0.62428386717E+02  0.25500000000E-02 0. -1.
         -1   -1    0    0    0  501 -0.00000000000E+00 -0.00000000000E+00 -0.25109792394E+02  0.25109792900E+02  0.50400000000E-02 0.  1.
         24    2    1    2    0    0  0.00000000000E+00  0.00000000000E+00  0.37318594271E+02  0.87538179617E+02  0.79184944354E+02 0.  0.
         66    2    3    3    0    0 -0.31555161585E+01 -0.33533793463E+02 -0.42817037010E+01  0.34011844588E+02  0.19999998564E+01 0.  0.
        -13    1    3    3    0    0  0.31555161585E+01  0.33533793463E+02  0.41600297972E+02  0.53526335029E+02  0.10566000000E+00 0.  1.
         13    1    4    4    0    0 -0.24969308399E+00 -0.89802528122E+00 -0.88200461756E-01  0.94219923528E+00  0.10566000000E+00 0. -1.
        -13    1    4    4    0    0 -0.14710308693E+00 -0.37437950035E+01 -0.94173195421E+00  0.38646686088E+01  0.10566000000E+00 0.  1.
         14    1    4    4    0    0 -0.27587199876E+01 -0.28891973179E+02 -0.32517712850E+01  0.29204976744E+02  0.00000000000E+00 0. -1.
<mgrwt>
<rscale>  0 0.79184944E+02</rscale>
<asrwt>0</asrwt>
<pdfrwt beam="1">  1        2 0.96043671E-02 0.79184944E+02</pdfrwt>
<pdfrwt beam="2">  1       -1 0.38630451E-02 0.79184944E+02</pdfrwt>
<totfact> 0.16153438E+05</totfact>
</mgrwt>
</event>
<event>
 8    1  0.2676873E-020  0.8085276E+02  0.7818608E-02  0.1326649E+00
         -1   -1    0    0    0  501 -0.00000000000E+00  0.00000000000E+00  0.38914953544E+01  0.38914986181E+01  0.50400000000E-02 0.  1.
          2   -1    0    0  501    0  0.00000000000E+00 -0.00000000000E+00 -0.41996488186E+03  0.41996488187E+03  0.25500000000E-02 0. -1.
         24    2    1    2    0    0  0.00000000000E+00  0.35527136788E-14 -0.41607338651E+03  0.42385638049E+03  0.80852757036E+02 0.  0.
         66    2    3    3    0    0 -0.25286743249E+01  0.29422052189E+02 -0.35270695688E+03  0.35394667503E+03  0.19999968604E+01 0.  0.
        -13    1    3    3    0    0  0.25286743249E+01 -0.29422052189E+02 -0.63366429629E+02  0.69909705455E+02  0.10566000000E+00 0.  1.
         13    1    4    4    0    0 -0.23763285741E+01  0.20412399028E+02 -0.24231586317E+03  0.24318573494E+03  0.10566000000E+00 0. -1.
        -13    1    4    4    0    0  0.18209274068E-01  0.23851411558E+00 -0.41685895235E+01  0.41767838359E+01  0.10566000000E+00 0. -1.
         14    1    4    4    0    0 -0.17055502486E+00  0.87711390448E+01 -0.10622250419E+03  0.10658415626E+03  0.00000000000E+00 0. -1.
<mgrwt>
<rscale>  0 0.80852757E+02</rscale>
<asrwt>0</asrwt>
<pdfrwt beam="1">  1        2 0.64609946E-01 0.80852757E+02</pdfrwt>
<pdfrwt beam="2">  1       -1 0.59869218E-03 0.80852757E+02</pdfrwt>
<totfact> 0.27950303E+05</totfact>
</mgrwt>
</event>
<event>
 8    1  0.2676873E-020  0.8198465E+02  0.7818608E-02  0.1323512E+00
          2   -1    0    0  501    0  0.00000000000E+00  0.00000000000E+00  0.18783523412E+04  0.18783523412E+04  0.25500000000E-02 0. -1.
         -1   -1    0    0    0  501 -0.00000000000E+00 -0.00000000000E+00 -0.89459114297E+00  0.89460534019E+00  0.50400000000E-02 0.  1.
         24    2    1    2    0    0  0.00000000000E+00 -0.35527136788E-14  0.18774577501E+04  0.18792469466E+04  0.81984650015E+02 0.  0.
         66    2    3    3    0    0  0.53745932069E+01 -0.11959897133E+02  0.18289525319E+04  0.18290006259E+04  0.19999976340E+01 0.  0.
        -13    1    3    3    0    0 -0.53745932069E+01  0.11959897133E+02  0.48505218170E+02  0.50246320715E+02  0.10566000000E+00 0.  1.
         13    1    4    4    0    0  0.23592355815E+01 -0.39068431291E+01  0.55523836579E+03  0.55525713271E+03  0.10566000000E+00 0. -1.
        -13    1    4    4    0    0  0.27028522063E+00 -0.15592029234E+01  0.21436165631E+03  0.21436752326E+03  0.10566000000E+00 0.  1.
         14    1    4    4    0    0  0.27450724048E+01 -0.64938510802E+01  0.10593525098E+04  0.10593759699E+04  0.00000000000E+00 0. -1.
<mgrwt>
<rscale>  0 0.81984650E+02</rscale>
<asrwt>0</asrwt>
<pdfrwt beam="1">  1        2 0.28897661E+00 0.81984650E+02</pdfrwt>
<pdfrwt beam="2">  1       -1 0.13763082E-03 0.81984650E+02</pdfrwt>
<totfact> 0.27473398E+05</totfact>
</mgrwt>
</event>
<event>
 8    1  0.2676873E-020  0.8217213E+02  0.7818608E-02  0.1322998E+00
          2   -1    0    0  501    0  0.00000000000E+00  0.00000000000E+00  0.31017713242E+03  0.31017713243E+03  0.25500000000E-02 0. -1.
         -1   -1    0    0    0  501 -0.00000000000E+00 -0.00000000000E+00 -0.54422592069E+01  0.54422615407E+01  0.50400000000E-02 0.  1.
         24    2    1    2    0    0  0.71054273576E-14  0.88817841970E-15  0.30473487321E+03  0.31561939397E+03  0.82172129695E+02 0.  0.
         66    2    3    3    0    0 -0.33332279484E+02  0.64051306603E+01  0.24121534092E+03  0.24359989174E+03  0.20000020203E+01 0.  0.
        -13    1    3    3    0    0  0.33332279484E+02 -0.64051306603E+01  0.63519532299E+02  0.72019502233E+02  0.10566000000E+00 0.  1.
         13    1    4    4    0    0 -0.79291822378E+01  0.15114418240E+01  0.52399664067E+02  0.53017849312E+02  0.10566000000E+00 0. -1.
        -13    1    4    4    0    0 -0.17519170676E+02  0.37782705951E+01  0.13198274415E+03  0.13319404111E+03  0.10566000000E+00 0.  1.
         14    1    4    4    0    0 -0.78839265708E+01  0.11154182413E+01  0.56832932701E+02  0.57388001320E+02  0.00000000000E+00 0. -1.
<mgrwt>
<rscale>  0 0.82172130E+02</rscale>
<asrwt>0</asrwt>
<pdfrwt beam="1">  1        2 0.47719553E-01 0.82172130E+02</pdfrwt>
<pdfrwt beam="2">  1       -1 0.83727093E-03 0.82172130E+02</pdfrwt>
<totfact> 0.24052385E+05</totfact>
</mgrwt>
</event>
<event>
 8    1  0.2676873E-020  0.8158175E+02  0.7818608E-02  0.1324622E+00
          2   -1    0    0  501    0  0.00000000000E+00  0.00000000000E+00  0.84115927161E+02  0.84115927200E+02  0.25500000000E-02 0. -1.
         -1   -1    0    0    0  501 -0.00000000000E+00 -0.00000000000E+00 -0.19780980853E+02  0.19780981495E+02  0.50400000000E-02 0.  1.
         24    2    1    2    0    0  0.35527136788E-14  0.00000000000E+00  0.64334946309E+02  0.10389690869E+03  0.81581752370E+02 0.  0.
         66    2    3    3    0    0 -0.30574590210E+02 -0.24890993377E+02  0.45392446454E+02  0.60156806013E+02  0.19999991858E+01 0.  0.
        -13    1    3    3    0    0  0.30574590210E+02  0.24890993377E+02  0.18942499855E+02  0.43740102682E+02  0.10566000000E+00 0.  1.
         13    1    4    4    0    0 -0.33260091671E+01 -0.30940391232E+01  0.54135879534E+01  0.70677799654E+01  0.10566000000E+00 0. -1.
        -13    1    4    4    0    0 -0.11530481803E+02 -0.99778328338E+01  0.18255940187E+02  0.23786543986E+02  0.10566000000E+00 0. -1.
         14    1    4    4    0    0 -0.15718099240E+02 -0.11819121420E+02  0.21722918314E+02  0.29302482061E+02  0.00000000000E+00 0. -1.
<mgrwt>
<rscale>  0 0.81581752E+02</rscale>
<asrwt>0</asrwt>
<pdfrwt beam="1">  1        2 0.12940912E-01 0.81581752E+02</pdfrwt>
<pdfrwt beam="2">  1       -1 0.30432278E-02 0.81581752E+02</pdfrwt>
<totfact> 0.16044909E+05</totfact>
</mgrwt>
</event>
<event>
 8    1  0.2676873E-020  0.7914429E+02  0.7818608E-02  0.1331498E+00
          2   -1    0    0  501    0  0.00000000000E+00  0.00000000000E+00  0.77721524936E+03  0.77721524936E+03  0.25500000000E-02 0. -1.
         -1   -1    0    0    0  501 -0.00000000000E+00 -0.00000000000E+00 -0.20148241616E+01  0.20148304652E+01  0.50400000000E-02 0.  1.
         24    2    1    2    0    0  0.00000000000E+00  0.00000000000E+00  0.77520042520E+03  0.77923007983E+03  0.79144286485E+02 0.  0.
         66    2    3    3    0    0  0.24728324688E+02  0.11784560932E+02  0.66867946264E+03  0.66924329632E+03  0.19999987572E+01 0.  0.
        -13    1    3    3    0    0 -0.24728324688E+02 -0.11784560932E+02  0.10652096256E+03  0.10998678351E+03  0.10566000000E+00 0.  1.
         13    1    4    4    0    0  0.16332656218E+02  0.71493209830E+01  0.42770357126E+03  0.42807502203E+03  0.10566000000E+00 0. -1.
        -13    1    4    4    0    0  0.19215842390E+01  0.11016994531E+01  0.47189653254E+02  0.47241726958E+02  0.10566000000E+00 0.  1.
         14    1    4    4    0    0  0.64740842311E+01  0.35335404957E+01  0.19378623812E+03  0.19392654733E+03  0.00000000000E+00 0. -1.
<mgrwt>
<rscale>  0 0.79144286E+02</rscale>
<asrwt>0</asrwt>
<pdfrwt beam="1">  1        2 0.11957164E+00 0.79144286E+02</pdfrwt>
<pdfrwt beam="2">  1       -1 0.30997327E-03 0.79144286E+02</pdfrwt>
<totfact> 0.35156298E+05</totfact>
</mgrwt>
</event>
<event>
 8    1  0.2676873E-020  0.7810338E+02  0.7818608E-02  0.1334522E+00
          2   -1    0    0  501    0  0.00000000000E+00  0.00000000000E+00  0.48596553124E+03  0.48596553125E+03  0.25500000000E-02 0. -1.
         -1   -1    0    0    0  501 -0.00000000000E+00 -0.00000000000E+00 -0.31381518198E+01  0.31381558670E+01  0.50400000000E-02 0.  1.
         24    2    1    2    0    0  0.00000000000E+00  0.44408920985E-15  0.48282737942E+03  0.48910368711E+03  0.78103382964E+02 0.  0.
         66    2    3    3    0    0  0.27501761558E+02 -0.38947208158E+01  0.41324360512E+03  0.41418086983E+03  0.20000065226E+01 0.  0.
        -13    1    3    3    0    0 -0.27501761558E+02  0.38947208158E+01  0.69583774302E+02  0.74922817280E+02  0.10566000000E+00 0.  1.
         13    1    4    4    0    0  0.97331341130E+01 -0.21275620359E+01  0.14830301309E+03  0.14863732800E+03  0.10566000000E+00 0. -1.
        -13    1    4    4    0    0  0.10719826046E+01  0.10931155218E+00  0.15921730503E+02  0.15958501245E+02  0.10566000000E+00 0.  1.
         14    1    4    4    0    0  0.16696644840E+02 -0.18764703321E+01  0.24901886152E+03  0.24958504058E+03  0.00000000000E+00 0. -1.
<mgrwt>
<rscale>  0 0.78103383E+02</rscale>
<asrwt>0</asrwt>
<pdfrwt beam="1">  1        2 0.74763955E-01 0.78103383E+02</pdfrwt>
<pdfrwt beam="2">  1       -1 0.48279273E-03 0.78103383E+02</pdfrwt>
<totfact> 0.32119406E+05</totfact>
</mgrwt>
</event>
<event>
 8    1  0.2676873E-020  0.7985487E+02  0.7818608E-02  0.1329464E+00
         -1   -1    0    0    0  501 -0.00000000000E+00  0.00000000000E+00  0.11482346793E+02  0.11482347899E+02  0.50400000000E-02 0.  1.
          2   -1    0    0  501    0  0.00000000000E+00 -0.00000000000E+00 -0.13883920902E+03  0.13883920904E+03  0.25500000000E-02 0. -1.
         24    2    1    2    0    0 -0.71054273576E-14  0.00000000000E+00 -0.12735686222E+03  0.15032155694E+03  0.79854869137E+02 0.  0.
         66    2    3    3    0    0  0.39163646447E+02 -0.45017900069E+01 -0.75343384558E+02  0.85056939118E+02  0.19999948017E+01 0.  0.
        -13    1    3    3    0    0 -0.39163646447E+02  0.45017900069E+01 -0.52013477665E+02  0.65264617819E+02  0.10566000000E+00 0.  1.
         13    1    4    4    0    0  0.72119339960E+01 -0.12969819808E+01 -0.14114489090E+02  0.15903588291E+02  0.10566000000E+00 0.  1.
        -13    1    4    4    0    0  0.49340100767E+01 -0.91360724374E+00 -0.89536339446E+01  0.10264397619E+02  0.10566000000E+00 0. -1.
         14    1    4    4    0    0  0.27017702374E+02 -0.22912007824E+01 -0.52275261523E+02  0.58888953208E+02  0.00000000000E+00 0. -1.
<mgrwt>
<rscale>  0 0.79854869E+02</rscale>
<asrwt>0</asrwt>
<pdfrwt beam="1">  1        2 0.21359877E-01 0.79854869E+02</pdfrwt>
<pdfrwt beam="2">  1       -1 0.17665151E-02 0.79854869E+02</pdfrwt>
<totfact> 0.19637325E+05</totfact>
</mgrwt>
</event>
<event>
 8    1  0.2676873E-020  0.8006498E+02  0.7818608E-02  0.1328867E+00
          2   -1    0    0  501    0  0.00000000000E+00  0.00000000000E+00  0.62096088957E+02  0.62096089009E+02  0.25500000000E-02 0. -1.
         -1   -1    0    0    0  501 -0.00000000000E+00 -0.00000000000E+00 -0.25808393263E+02  0.25808393755E+02  0.50400000000E-02 0.  1.
         24    2    1    2    0    0  0.00000000000E+00  0.00000000000E+00  0.36287695694E+02  0.87904482764E+02  0.80064981304E+02 0.  0.
         66    2    3    3    0    0  0.35192424797E+02  0.15647611040E+02  0.30043113143E+02  0.48887044744E+02  0.20000005479E+01 0.  0.
        -13    1    3    3    0    0 -0.35192424797E+02 -0.15647611040E+02  0.62445825516E+01  0.39017438020E+02  0.10566000000E+00 0.  1.
         13    1    4    4    0    0  0.49814693436E+01  0.23906671328E+01  0.38426783762E+01  0.67310970353E+01  0.10566000000E+00 0. -1.
        -13    1    4    4    0    0  0.18716270787E+01  0.10502556268E+01  0.20815389936E+01  0.29916539608E+01  0.10566000000E+00 0.  1.
         14    1    4    4    0    0  0.28339328374E+02  0.12206688281E+02  0.24118895773E+02  0.39164293748E+02  0.00000000000E+00 0. -1.
<mgrwt>
<rscale>  0 0.80064981E+02</rscale>
<asrwt>0</asrwt>
<pdfrwt beam="1">  1        2 0.95532443E-02 0.80064981E+02</pdfrwt>
<pdfrwt beam="2">  1       -1 0.39705221E-02 0.80064981E+02</pdfrwt>
<totfact> 0.15656300E+05</totfact>
</mgrwt>
</event>
<event>
 8    1  0.2676873E-020  0.7954132E+02  0.7818608E-02  0.1330358E+00
         -1   -1    0    0    0  501 -0.00000000000E+00  0.00000000000E+00  0.76427095086E+02  0.76427095252E+02  0.50400000000E-02 0.  1.
          2   -1    0    0  501    0  0.00000000000E+00 -0.00000000000E+00 -0.20695608761E+02  0.20695608918E+02  0.25500000000E-02 0. -1.
         24    2    1    2    0    0  0.00000000000E+00  0.00000000000E+00  0.55731486325E+02  0.97122704170E+02  0.79541316919E+02 0.  0.
         66    2    3    3    0    0  0.33402783363E+02  0.21499845623E+02  0.26286123119E+02  0.47675460803E+02  0.19999989710E+01 0.  0.
        -13    1    3    3    0    0 -0.33402783363E+02 -0.21499845623E+02  0.29445363206E+02  0.49447243367E+02  0.10566000000E+00 0.  1.
         13    1    4    4    0    0  0.23319857200E+02  0.15931706850E+02  0.19081955227E+02  0.34084706281E+02  0.10566000000E+00 0. -1.
        -13    1    4    4    0    0  0.42925547942E+01  0.23502211972E+01  0.28671192848E+01  0.56728390922E+01  0.10566000000E+00 0.  1.
         14    1    4    4    0    0  0.57903713694E+01  0.32179175764E+01  0.43370486074E+01  0.79179154294E+01  0.00000000000E+00 0. -1.
<mgrwt>
<rscale>  0 0.79541317E+02</rscale>
<asrwt>0</asrwt>
<pdfrwt beam="1">  1        2 0.31839398E-02 0.79541317E+02</pdfrwt>
<pdfrwt beam="2">  1       -1 0.11758015E-01 0.79541317E+02</pdfrwt>
<totfact> 0.12709225E+05</totfact>
</mgrwt>
</event>
<event>
 8    1  0.2676873E-020  0.7873782E+02  0.7818608E-02  0.1332672E+00
          2   -1    0    0  501    0  0.00000000000E+00  0.00000000000E+00  0.17250680061E+03  0.17250680063E+03  0.25500000000E-02 0. -1.
         -1   -1    0    0    0  501 -0.00000000000E+00 -0.00000000000E+00 -0.89846361600E+01  0.89846375736E+01  0.50400000000E-02 0.  1.
         24    2    1    2    0    0  0.00000000000E+00  0.44408920985E-15  0.16352216445E+03  0.18149143821E+03  0.78737817309E+02 0.  0.
         66    2    3    3    0    0 -0.18127236123E+02  0.23847308399E+01  0.16211350531E+03  0.16315352351E+03  0.20000005758E+01 0.  0.
        -13    1    3    3    0    0  0.18127236123E+02 -0.23847308399E+01  0.14086591494E+01  0.18337914692E+02  0.10566000000E+00 0.  1.
         13    1    4    4    0    0 -0.14343574667E+02  0.16468312918E+01  0.12172790541E+03  0.12258117436E+03  0.10566000000E+00 0. -1.
        -13    1    4    4    0    0 -0.15410504208E+01  0.42421470089E+00  0.18894286335E+02  0.18962067784E+02  0.10566000000E+00 0.  1.
         14    1    4    4    0    0 -0.22426110348E+01  0.31368484721E+00  0.21491313559E+02  0.21610281371E+02  0.00000000000E+00 0. -1.
<mgrwt>
<rscale>  0 0.78737817E+02</rscale>
<asrwt>0</asrwt>
<pdfrwt beam="1">  1        2 0.26539507E-01 0.78737817E+02</pdfrwt>
<pdfrwt beam="2">  1       -1 0.13822519E-02 0.78737817E+02</pdfrwt>
<totfact> 0.21872224E+05</totfact>
</mgrwt>
</event>
<event>
 8    1  0.2676873E-020  0.7621093E+02  0.7818608E-02  0.1340162E+00
          2   -1    0    0  501    0  0.00000000000E+00  0.00000000000E+00  0.72039138885E+02  0.72039138930E+02  0.25500000000E-02 0. -1.
         -1   -1    0    0    0  501 -0.00000000000E+00 -0.00000000000E+00 -0.20156077016E+02  0.20156077646E+02  0.50400000000E-02 0.  1.
         24    2    1    2    0    0  0.00000000000E+00  0.35527136788E-14  0.51883061869E+02  0.92195216577E+02  0.76210929995E+02 0.  0.
         66    2    3    3    0    0 -0.21774916156E+02 -0.30158852890E+02  0.35810961837E+02  0.51673284926E+02  0.20000015372E+01 0.  0.
        -13    1    3    3    0    0  0.21774916156E+02  0.30158852890E+02  0.16072100032E+02  0.40521931651E+02  0.10566000000E+00 0.  1.
         13    1    4    4    0    0 -0.38865968038E+01 -0.55936148631E+01  0.60614147114E+01  0.91184469232E+01  0.10566000000E+00 0. -1.
        -13    1    4    4    0    0 -0.13684244043E+02 -0.19166866213E+02  0.22177872262E+02  0.32349597796E+02  0.10566000000E+00 0.  1.
         14    1    4    4    0    0 -0.42040753089E+01 -0.53983718135E+01  0.75716748632E+01  0.10205240207E+02  0.00000000000E+00 0. -1.
<mgrwt>
<rscale>  0 0.76210930E+02</rscale>
<asrwt>0</asrwt>
<pdfrwt beam="1">  1        2 0.11082944E-01 0.76210930E+02</pdfrwt>
<pdfrwt beam="2">  1       -1 0.31009350E-02 0.76210930E+02</pdfrwt>
<totfact> 0.18533339E+05</totfact>
</mgrwt>
</event>
<event>
 8    1  0.2676873E-020  0.7836995E+02  0.7818608E-02  0.1333742E+00
         -1   -1    0    0    0  501 -0.00000000000E+00  0.00000000000E+00  0.23454476246E+02  0.23454476788E+02  0.50400000000E-02 0.  1.
          2   -1    0    0  501    0  0.00000000000E+00 -0.00000000000E+00 -0.65465643317E+02  0.65465643367E+02  0.25500000000E-02 0. -1.
         24    2    1    2    0    0  0.00000000000E+00  0.00000000000E+00 -0.42011167071E+02  0.88920120155E+02  0.78369953488E+02 0.  0.
         66    2    3    3    0    0  0.38978043077E+02 -0.19767805253E+01 -0.17384549573E+02  0.42771697031E+02  0.19999999172E+01 0.  0.
        -13    1    3    3    0    0 -0.38978043077E+02  0.19767805253E+01 -0.24626617498E+02  0.46148423124E+02  0.10566000000E+00 0.  1.
         13    1    4    4    0    0  0.11933576533E+02 -0.12814623172E+01 -0.48326721211E+01  0.12939021540E+02  0.10566000000E+00 0. -1.
        -13    1    4    4    0    0  0.30841104238E+01  0.10544472404E+00 -0.13132570200E+01  0.33553932306E+01  0.10566000000E+00 0.  1.
         14    1    4    4    0    0  0.23960356121E+02 -0.80076293208E+00 -0.11238620432E+02  0.26477282261E+02  0.00000000000E+00 0. -1.
<mgrwt>
<rscale>  0 0.78369953E+02</rscale>
<asrwt>0</asrwt>
<pdfrwt beam="1">  1        2 0.10071637E-01 0.78369953E+02</pdfrwt>
<pdfrwt beam="2">  1       -1 0.36083811E-02 0.78369953E+02</pdfrwt>
<totfact> 0.16798984E+05</totfact>
</mgrwt>
</event>
<event>
 8    1  0.2676873E-020  0.8057947E+02  0.7818608E-02  0.1327415E+00
          2   -1    0    0  501    0  0.00000000000E+00  0.00000000000E+00  0.12731224035E+04  0.12731224035E+04  0.25500000000E-02 0. -1.
         -1   -1    0    0    0  501 -0.00000000000E+00 -0.00000000000E+00 -0.12750197995E+01  0.12750297607E+01  0.50400000000E-02 0.  1.
         24    2    1    2    0    0  0.00000000000E+00  0.00000000000E+00  0.12718473837E+04  0.12743974333E+04  0.80579466879E+02 0.  0.
         66    2    3    3    0    0 -0.86186775725E+01  0.19451729840E+02  0.11769623554E+04  0.11771563352E+04  0.20000080095E+01 0.  0.
        -13    1    3    3    0    0  0.86186775725E+01 -0.19451729840E+02  0.94885028367E+02  0.97241098149E+02  0.10566000000E+00 0.  1.
         13    1    4    4    0    0 -0.45647252037E+01  0.10838692945E+02  0.66790754938E+03  0.66801109247E+03  0.10566000000E+00 0. -1.
        -13    1    4    4    0    0 -0.30018190519E+01  0.53565197560E+01  0.30632433437E+03  0.30638588775E+03  0.10566000000E+00 0.  1.
        -14    1    4    4    0    0 -0.10521333168E+01  0.32565171393E+01  0.20273047162E+03  0.20275935493E+03  0.00000000000E+00 0.  1.
<mgrwt>
<rscale>  0 0.80579467E+02</rscale>
<asrwt>0</asrwt>
<pdfrwt beam="1">  1        2 0.19586542E+00 0.80579467E+02</pdfrwt>
<pdfrwt beam="2">  1       -1 0.19615722E-03 0.80579467E+02</pdfrwt>
<totfact> 0.34103584E+05</totfact>
</mgrwt>
</event>
<event>
 8    1  0.2676873E-020  0.7930223E+02  0.7818608E-02  0.1331043E+00
         -1   -1    0    0    0  501 -0.00000000000E+00  0.00000000000E+00  0.14945746502E+01  0.14945831481E+01  0.50400000000E-02 0.  1.
          2   -1    0    0  501    0  0.00000000000E+00 -0.00000000000E+00 -0.10519422722E+04  0.10519422722E+04  0.25500000000E-02 0. -1.
         24    2    1    2    0    0  0.00000000000E+00  0.00000000000E+00 -0.10504476976E+04  0.10534368554E+04  0.79302225220E+02 0.  0.
         66    2    3    3    0    0 -0.21992445961E+02 -0.87370998778E+01 -0.94776558042E+03  0.94806307809E+03  0.20000005292E+01 0.  0.
        -13    1    3    3    0    0  0.21992445961E+02  0.87370998778E+01 -0.10268211717E+03  0.10537377730E+03  0.10566000000E+00 0.  1.
         13    1    4    4    0    0 -0.18185348822E+01 -0.42837404408E+00 -0.74509285624E+02  0.74532780585E+02  0.10566000000E+00 0. -1.
        -13    1    4    4    0    0 -0.46479280551E+01 -0.15982240152E+01 -0.22167143884E+03  0.22172594688E+03  0.10566000000E+00 0.  1.
         14    1    4    4    0    0 -0.15525983024E+02 -0.67105018185E+01 -0.65158485595E+03  0.65180435062E+03  0.00000000000E+00 0. -1.
<mgrwt>
<rscale>  0 0.79302225E+02</rscale>
<asrwt>0</asrwt>
<pdfrwt beam="1">  1        2 0.16183668E+00 0.79302225E+02</pdfrwt>
<pdfrwt beam="2">  1       -1 0.22993606E-03 0.79302225E+02</pdfrwt>
<totfact> 0.36084024E+05</totfact>
</mgrwt>
</event>
<event>
 8    1  0.2676873E-020  0.7945097E+02  0.7818608E-02  0.1330617E+00
         -1   -1    0    0    0  501 -0.00000000000E+00  0.00000000000E+00  0.18743246358E+03  0.18743246365E+03  0.50400000000E-02 0.  1.
          2   -1    0    0  501    0  0.00000000000E+00 -0.00000000000E+00 -0.84196408898E+01  0.84196412760E+01  0.25500000000E-02 0. -1.
         24    2    1    2    0    0  0.00000000000E+00  0.00000000000E+00  0.17901282269E+03  0.19585210492E+03  0.79450967996E+02 0.  0.
         66    2    3    3    0    0  0.37372807472E+02  0.81868371296E+01  0.63433462418E+02  0.74105028057E+02  0.19999971244E+01 0.  0.
        -13    1    3    3    0    0 -0.37372807472E+02 -0.81868371296E+01  0.11557936027E+03  0.12174707687E+03  0.10566000000E+00 0.  1.
         13    1    4    4    0    0  0.15565956785E+02  0.42745579725E+01  0.27597168583E+02  0.31971639531E+02  0.10566000000E+00 0. -1.
        -13    1    4    4    0    0  0.11133278812E+02  0.20681584304E+01  0.18611721661E+02  0.21786108501E+02  0.10566000000E+00 0. -1.
        -14    1    4    4    0    0  0.10673571876E+02  0.18441207267E+01  0.17224572174E+02  0.20347280025E+02  0.00000000000E+00 0.  1.
<mgrwt>
<rscale>  0 0.79450968E+02</rscale>
<asrwt>0</asrwt>
<pdfrwt beam="1">  1        2 0.12953296E-02 0.79450968E+02</pdfrwt>
<pdfrwt beam="2">  1       -1 0.28835760E-01 0.79450968E+02</pdfrwt>
<totfact> 0.10333127E+05</totfact>
</mgrwt>
</event>
<event>
 8    1  0.2676873E-020  0.7943195E+02  0.7818608E-02  0.1330671E+00
         -1   -1    0    0    0  501 -0.00000000000E+00  0.00000000000E+00  0.11682326134E+03  0.11682326145E+03  0.50400000000E-02 0.  1.
          2   -1    0    0  501    0  0.00000000000E+00 -0.00000000000E+00 -0.13502095554E+02  0.13502095795E+02  0.25500000000E-02 0. -1.
         24    2    1    2    0    0  0.00000000000E+00  0.00000000000E+00  0.10332116578E+03  0.13032535724E+03  0.79431954786E+02 0.  0.
         66    2    3    3    0    0  0.31676135101E+02 -0.58832014217E+00  0.12465684478E+02  0.34104500339E+02  0.19999995966E+01 0.  0.
        -13    1    3    3    0    0 -0.31676135101E+02  0.58832014217E+00  0.90855481305E+02  0.96220856901E+02  0.10566000000E+00 0.  1.
         13    1    4    4    0    0  0.14557342735E+02  0.28709420363E+00  0.49923503440E+01  0.15392640338E+02  0.10566000000E+00 0. -1.
        -13    1    4    4    0    0  0.45363950995E+01 -0.46282799784E+00  0.21746271038E+01  0.50530443626E+01  0.10566000000E+00 0.  1.
         14    1    4    4    0    0  0.12582397267E+02 -0.41258634796E+00  0.52987070298E+01  0.13658815639E+02  0.00000000000E+00 0. -1.
<mgrwt>
<rscale>  0 0.79431955E+02</rscale>
<asrwt>0</asrwt>
<pdfrwt beam="1">  1        2 0.20772455E-02 0.79431955E+02</pdfrwt>
<pdfrwt beam="2">  1       -1 0.17972810E-01 0.79431955E+02</pdfrwt>
<totfact> 0.11660746E+05</totfact>
</mgrwt>
</event>
<event>
 8    1  0.2676873E-020  0.8148460E+02  0.7818608E-02  0.1324890E+00
         -1   -1    0    0    0  501 -0.00000000000E+00  0.00000000000E+00  0.60881510848E+01  0.60881531709E+01  0.50400000000E-02 0.  1.
          2   -1    0    0  501    0  0.00000000000E+00 -0.00000000000E+00 -0.27265002371E+03  0.27265002372E+03  0.25500000000E-02 0. -1.
         24    2    1    2    0    0 -0.44408920985E-15  0.00000000000E+00 -0.26656187263E+03  0.27873817689E+03  0.81484595600E+02 0.  0.
         66    2    3    3    0    0  0.34785255018E+01  0.22858228007E+02 -0.24801121015E+03  0.24909467896E+03  0.19999999084E+01 0.  0.
        -13    1    3    3    0    0 -0.34785255018E+01 -0.22858228007E+02 -0.18550662474E+02  0.29643497930E+02  0.10566000000E+00 0.  1.
         13    1    4    4    0    0  0.22987878913E+01  0.13311406485E+02 -0.13900962567E+03  0.13966447351E+03  0.10566000000E+00 0. -1.
        -13    1    4    4    0    0 -0.10466075958E+00  0.25264922786E+01 -0.30566077924E+02  0.30670676562E+02  0.10566000000E+00 0.  1.
        -14    1    4    4    0    0  0.12843983701E+01  0.70203292430E+01 -0.78435506560E+02  0.78759528892E+02  0.00000000000E+00 0.  1.
<mgrwt>
<rscale>  0 0.81484596E+02</rscale>
<asrwt>0</asrwt>
<pdfrwt beam="1">  1        2 0.41946148E-01 0.81484596E+02</pdfrwt>
<pdfrwt beam="2">  1       -1 0.93663900E-03 0.81484596E+02</pdfrwt>
<totfact> 0.23465155E+05</totfact>
</mgrwt>
</event>
<event>
 8    1  0.2676873E-020  0.7337997E+02  0.7818608E-02  0.1348962E+00
         -1   -1    0    0    0  501 -0.00000000000E+00  0.00000000000E+00  0.25299470623E+02  0.25299471125E+02  0.50400000000E-02 0.  1.
          2   -1    0    0  501    0  0.00000000000E+00 -0.00000000000E+00 -0.53208819175E+02  0.53208819236E+02  0.25500000000E-02 0. -1.
         24    2    1    2    0    0 -0.88817841970E-15 -0.17763568394E-14 -0.27909348553E+02  0.78508290361E+02  0.73379969466E+02 0.  0.
         66    2    3    3    0    0 -0.65951371600E+01 -0.15110761651E+02 -0.48999842949E+02  0.51737950996E+02  0.20000031095E+01 0.  0.
        -13    1    3    3    0    0  0.65951371600E+01  0.15110761651E+02  0.21090494396E+02  0.26770339365E+02  0.10566000000E+00 0.  1.
         13    1    4    4    0    0 -0.37682278884E+01 -0.73967178660E+01 -0.24174560392E+02  0.25560350365E+02  0.10566000000E+00 0. -1.
        -13    1    4    4    0    0 -0.27066169756E+01 -0.74558584793E+01 -0.24461387576E+02  0.25715486526E+02  0.10566000000E+00 0.  1.
        -14    1    4    4    0    0 -0.12029229607E+00 -0.25818530535E+00 -0.36389498077E+00  0.46211410433E+00  0.00000000000E+00 0.  1.
<mgrwt>
<rscale>  0 0.73379969E+02</rscale>
<asrwt>0</asrwt>
<pdfrwt beam="1">  1        2 0.81859721E-02 0.73379969E+02</pdfrwt>
<pdfrwt beam="2">  1       -1 0.38922263E-02 0.73379969E+02</pdfrwt>
<totfact> 0.19151240E+05</totfact>
</mgrwt>
</event>
<event>
 8    1  0.2676873E-020  0.7741158E+02  0.7818608E-02  0.1336562E+00
          2   -1    0    0  501    0  0.00000000000E+00  0.00000000000E+00  0.23548658895E+03  0.23548658896E+03  0.25500000000E-02 0. -1.
         -1   -1    0    0    0  501 -0.00000000000E+00 -0.00000000000E+00 -0.63618822955E+01  0.63618842919E+01  0.50400000000E-02 0.  1.
         24    2    1    2    0    0  0.00000000000E+00 -0.35527136788E-14  0.22912470665E+03  0.24184847326E+03  0.77411580636E+02 0.  0.
         66    2    3    3    0    0 -0.79408101489E+01  0.28717826073E+02  0.19169681948E+03  0.19400886725E+03  0.19999934626E+01 0.  0.
        -13    1    3    3    0    0  0.79408101489E+01 -0.28717826073E+02  0.37427887179E+02  0.47839606007E+02  0.10566000000E+00 0.  1.
         13    1    4    4    0    0 -0.37863000484E+01  0.10655274785E+02  0.73872749755E+02  0.74733294248E+02  0.10566000000E+00 0. -1.
        -13    1    4    4    0    0 -0.18451819226E+01  0.77206832534E+01  0.48034471717E+02  0.48686089218E+02  0.10566000000E+00 0.  1.
         14    1    4    4    0    0 -0.23093281779E+01  0.10341868035E+02  0.69789598005E+02  0.70589483783E+02  0.00000000000E+00 0. -1.
<mgrwt>
<rscale>  0 0.77411581E+02</rscale>
<asrwt>0</asrwt>
<pdfrwt beam="1">  1        2 0.36228701E-01 0.77411581E+02</pdfrwt>
<pdfrwt beam="2">  1       -1 0.97875140E-03 0.77411581E+02</pdfrwt>
<totfact> 0.25472471E+05</totfact>
</mgrwt>
</event>
<event>
 8    1  0.2676873E-020  0.7928217E+02  0.7818608E-02  0.1331101E+00
          2   -1    0    0  501    0  0.00000000000E+00  0.00000000000E+00  0.25408204662E+02  0.25408204790E+02  0.25500000000E-02 0. -1.
         -1   -1    0    0    0  501 -0.00000000000E+00 -0.00000000000E+00 -0.61846777292E+02  0.61846777497E+02  0.50400000000E-02 0.  1.
         24    2    1    2    0    0  0.17763568394E-14 -0.88817841970E-15 -0.36438572630E+02  0.87254982287E+02  0.79282169235E+02 0.  0.
         66    2    3    3    0    0  0.10246450252E+02 -0.40628256995E+01  0.23647172433E+02  0.26166487305E+02  0.19999995813E+01 0.  0.
        -13    1    3    3    0    0 -0.10246450252E+02  0.40628256995E+01 -0.60085745063E+02  0.61088494983E+02  0.10566000000E+00 0.  1.
         13    1    4    4    0    0  0.47377116214E+01 -0.11674210523E+01  0.93625796500E+01  0.10558306922E+02  0.10566000000E+00 0. -1.
        -13    1    4    4    0    0  0.37075981649E+01 -0.20138575305E+01  0.85904738996E+01  0.95712753675E+01  0.10566000000E+00 0.  1.
         14    1    4    4    0    0  0.18011404659E+01 -0.88154711676E+00  0.56941188839E+01  0.60369050150E+01  0.00000000000E+00 0. -1.
<mgrwt>
<rscale>  0 0.79282169E+02</rscale>
<asrwt>0</asrwt>
<pdfrwt beam="1">  1        2 0.39089546E-02 0.79282169E+02</pdfrwt>
<pdfrwt beam="2">  1       -1 0.95148889E-02 0.79282169E+02</pdfrwt>
<totfact> 0.13357957E+05</totfact>
</mgrwt>
</event>
<event>
 8    1  0.2676873E-020  0.8013915E+02  0.7818608E-02  0.1328657E+00
         -1   -1    0    0    0  501 -0.00000000000E+00  0.00000000000E+00  0.31015606961E+02  0.31015607370E+02  0.50400000000E-02 0.  1.
          2   -1    0    0  501    0  0.00000000000E+00 -0.00000000000E+00 -0.51766541775E+02  0.51766541838E+02  0.25500000000E-02 0. -1.
         24    2    1    2    0    0  0.00000000000E+00 -0.17763568394E-14 -0.20750934814E+02  0.82782149208E+02  0.80139147312E+02 0.  0.
         66    2    3    3    0    0  0.20525963594E+02  0.10282258062E+02 -0.44274457445E+02  0.49912599570E+02  0.20000003686E+01 0.  0.
        -13    1    3    3    0    0 -0.20525963594E+02 -0.10282258062E+02  0.23523522631E+02  0.32869549637E+02  0.10566000000E+00 0.  1.
         13    1    4    4    0    0  0.89590065821E+01  0.43454192091E+01 -0.19778948958E+02  0.22144174244E+02  0.10566000000E+00 0. -1.
        -13    1    4    4    0    0  0.69188794928E+01  0.38083057550E+01 -0.13460575312E+02  0.15606804219E+02  0.10566000000E+00 0.  1.
        -14    1    4    4    0    0  0.46480775196E+01  0.21285330981E+01 -0.11034933176E+02  0.12161621108E+02  0.00000000000E+00 0.  1.
<mgrwt>
<rscale>  0 0.80139147E+02</rscale>
<asrwt>0</asrwt>
<pdfrwt beam="1">  1        2 0.79640834E-02 0.80139147E+02</pdfrwt>
<pdfrwt beam="2">  1       -1 0.47716319E-02 0.80139147E+02</pdfrwt>
<totfact> 0.14985543E+05</totfact>
</mgrwt>
</event>
<event>
 8    1  0.2676873E-020  0.7977603E+02  0.7818608E-02  0.1329688E+00
          2   -1    0    0  501    0  0.00000000000E+00  0.00000000000E+00  0.45007301892E+03  0.45007301893E+03  0.25500000000E-02 0. -1.
         -1   -1    0    0    0  501 -0.00000000000E+00 -0.00000000000E+00 -0.35350993945E+01  0.35351029873E+01  0.50400000000E-02 0.  1.
         24    2    1    2    0    0  0.35527136788E-14  0.00000000000E+00  0.44653791953E+03  0.45360812192E+03  0.79776028308E+02 0.  0.
         66    2    3    3    0    0 -0.29878066944E+02 -0.11584846282E+02  0.35822168851E+03  0.35965773409E+03  0.20000059125E+01 0.  0.
        -13    1    3    3    0    0  0.29878066944E+02  0.11584846282E+02  0.88316231015E+02  0.93950387825E+02  0.10566000000E+00 0.  1.
         13    1    4    4    0    0 -0.51907625593E+01 -0.21044348879E+01  0.65759654557E+02  0.65997848401E+02  0.10566000000E+00 0. -1.
        -13    1    4    4    0    0 -0.16281780544E+02 -0.70047317826E+01  0.19936607710E+03  0.20015245816E+03  0.10566000000E+00 0.  1.
        -14    1    4    4    0    0 -0.84055238405E+01 -0.24756796110E+01  0.93095956853E+02  0.93507427529E+02  0.00000000000E+00 0.  1.
<mgrwt>
<rscale>  0 0.79776028E+02</rscale>
<asrwt>0</asrwt>
<pdfrwt beam="1">  1        2 0.69242017E-01 0.79776028E+02</pdfrwt>
<pdfrwt beam="2">  1       -1 0.54386162E-03 0.79776028E+02</pdfrwt>
<totfact> 0.29636047E+05</totfact>
</mgrwt>
</event>
<event>
 8    1  0.2676873E-020  0.7923336E+02  0.7818608E-02  0.1331241E+00
          2   -1    0    0  501    0  0.00000000000E+00  0.00000000000E+00  0.41349397274E+03  0.41349397275E+03  0.25500000000E-02 0. -1.
         -1   -1    0    0    0  501 -0.00000000000E+00 -0.00000000000E+00 -0.37956551243E+01  0.37956584704E+01  0.50400000000E-02 0.  1.
         24    2    1    2    0    0 -0.17763568394E-14  0.00000000000E+00  0.40969831762E+03  0.41728963122E+03  0.79233357023E+02 0.  0.
         66    2    3    3    0    0  0.80833523828E+01 -0.24408781865E+02  0.36353316754E+03  0.36444683167E+03  0.19999999718E+01 0.  0.
        -13    1    3    3    0    0 -0.80833523828E+01  0.24408781865E+02  0.46165150081E+02  0.52842799546E+02  0.10566000000E+00 0.  1.
         13    1    4    4    0    0  0.27357835942E+01 -0.95398350783E+01  0.14941258822E+03  0.14974186338E+03  0.10566000000E+00 0. -1.
        -13    1    4    4    0    0  0.74538467610E+00 -0.30115875143E+01  0.44592227887E+02  0.44700147759E+02  0.10566000000E+00 0.  1.
         14    1    4    4    0    0  0.46021841125E+01 -0.11857359272E+02  0.16952835143E+03  0.17000482054E+03  0.00000000000E+00 0. -1.
<mgrwt>
<rscale>  0 0.79233357E+02</rscale>
<asrwt>0</asrwt>
<pdfrwt beam="1">  1        2 0.63614461E-01 0.79233357E+02</pdfrwt>
<pdfrwt beam="2">  1       -1 0.58394717E-03 0.79233357E+02</pdfrwt>
<totfact> 0.29309033E+05</totfact>
</mgrwt>
</event>
<event>
 8    1  0.2676873E-020  0.7969600E+02  0.7818608E-02  0.1329916E+00
          2   -1    0    0  501    0  0.00000000000E+00  0.00000000000E+00  0.18763003908E+03  0.18763003910E+03  0.25500000000E-02 0. -1.
         -1   -1    0    0    0  501 -0.00000000000E+00 -0.00000000000E+00 -0.84627333453E+01  0.84627348461E+01  0.50400000000E-02 0.  1.
         24    2    1    2    0    0  0.35527136788E-14  0.00000000000E+00  0.17916730573E+03  0.19609277394E+03  0.79696000832E+02 0.  0.
         66    2    3    3    0    0 -0.20891009894E+02 -0.10146863321E+02  0.16923521359E+03  0.17083310752E+03  0.19999935665E+01 0.  0.
        -13    1    3    3    0    0  0.20891009894E+02  0.10146863321E+02  0.99320921416E+01  0.25259666427E+02  0.10566000000E+00 0.  1.
         13    1    4    4    0    0 -0.60101756634E+01 -0.23355944012E+01  0.46240612104E+02  0.46688141797E+02  0.10566000000E+00 0. -1.
        -13    1    4    4    0    0 -0.33248018896E+01 -0.21264350405E+01  0.25624632950E+02  0.25926993876E+02  0.10566000000E+00 0.  1.
        -14    1    4    4    0    0 -0.11556032341E+02 -0.56848338788E+01  0.97369968538E+02  0.98217971842E+02  0.00000000000E+00 0.  1.
<mgrwt>
<rscale>  0 0.79696001E+02</rscale>
<asrwt>0</asrwt>
<pdfrwt beam="1">  1        2 0.28866159E-01 0.79696001E+02</pdfrwt>
<pdfrwt beam="2">  1       -1 0.13019592E-02 0.79696001E+02</pdfrwt>
<totfact> 0.21795974E+05</totfact>
</mgrwt>
</event>
<event>
 8    1  0.2676873E-020  0.8028566E+02  0.7818608E-02  0.1328243E+00
          2   -1    0    0  501    0  0.00000000000E+00  0.00000000000E+00  0.13945673715E+04  0.13945673715E+04  0.25500000000E-02 0. -1.
         -1   -1    0    0    0  501 -0.00000000000E+00 -0.00000000000E+00 -0.11555119250E+01  0.11555229165E+01  0.50400000000E-02 0.  1.
         24    2    1    2    0    0  0.00000000000E+00  0.00000000000E+00  0.13934118596E+04  0.13957228944E+04  0.80285662484E+02 0.  0.
         66    2    3    3    0    0  0.10006724895E+02  0.21524684190E+02  0.12593826986E+04  0.12596079660E+04  0.19999997122E+01 0.  0.
        -13    1    3    3    0    0 -0.10006724895E+02 -0.21524684190E+02  0.13402916097E+03  0.13611492838E+03  0.10566000000E+00 0.  1.
         13    1    4    4    0    0  0.66056830170E+01  0.15762613498E+02  0.92019645485E+03  0.92035516064E+03  0.10566000000E+00 0. -1.
        -13    1    4    4    0    0  0.18106012772E+01  0.28672935924E+01  0.15744142702E+03  0.15747797864E+03  0.10566000000E+00 0.  1.
         14    1    4    4    0    0  0.15904406007E+01  0.28947770995E+01  0.18174481671E+03  0.18177482674E+03  0.00000000000E+00 0. -1.
<mgrwt>
<rscale>  0 0.80285662E+02</rscale>
<asrwt>0</asrwt>
<pdfrwt beam="1">  1        2 0.21454924E+00 0.80285662E+02</pdfrwt>
<pdfrwt beam="2">  1       -1 0.17777157E-03 0.80285662E+02</pdfrwt>
<totfact> 0.33736900E+05</totfact>
</mgrwt>
</event>
<event>
 8    1  0.2676873E-020  0.7935689E+02  0.7818608E-02  0.1330886E+00
         -1   -1    0    0    0  501 -0.00000000000E+00  0.00000000000E+00  0.59582837894E+00  0.59584969477E+00  0.50400000000E-02 0.  1.
          2   -1    0    0  501    0  0.00000000000E+00 -0.00000000000E+00 -0.26422891132E+04  0.26422891132E+04  0.25500000000E-02 0. -1.
         24    2    1    2    0    0  0.22204460493E-15  0.17763568394E-14 -0.26416932848E+04  0.26428849629E+04  0.79356890268E+02 0.  0.
         66    2    3    3    0    0 -0.10218990410E+01 -0.12178817788E+02 -0.25779938286E+04  0.25780235740E+04  0.20000017940E+01 0.  0.
        -13    1    3    3    0    0  0.10218990410E+01  0.12178817788E+02 -0.63699456196E+02  0.64861388854E+02  0.10566000000E+00 0.  1.
         13    1    4    4    0    0  0.45649224342E+00 -0.27145875579E+01 -0.55625374855E+03  0.55626056961E+03  0.10566000000E+00 0. -1.
        -13    1    4    4    0    0 -0.97624091530E+00 -0.71839825449E+01 -0.16059902050E+04  0.16060065729E+04  0.10566000000E+00 0.  1.
        -14    1    4    4    0    0 -0.50215036907E+00 -0.22802476853E+01 -0.41574987507E+03  0.41575643147E+03  0.00000000000E+00 0.  1.
<mgrwt>
<rscale>  0 0.79356890E+02</rscale>
<asrwt>0</asrwt>
<pdfrwt beam="1">  1        2 0.40649663E+00 0.79356890E+02</pdfrwt>
<pdfrwt beam="2">  1       -1 0.91669660E-04 0.79356890E+02</pdfrwt>
<totfact> 0.19458907E+05</totfact>
</mgrwt>
</event>
<event>
 8    1  0.2676873E-020  0.8033646E+02  0.7818608E-02  0.1328099E+00
         -1   -1    0    0    0  501 -0.00000000000E+00  0.00000000000E+00  0.40407412339E+02  0.40407412653E+02  0.50400000000E-02 0.  1.
          2   -1    0    0  501    0  0.00000000000E+00 -0.00000000000E+00 -0.39930463800E+02  0.39930463881E+02  0.25500000000E-02 0. -1.
         24    2    1    2    0    0  0.35527136788E-14  0.35527136788E-14  0.47694853903E+00  0.80337876534E+02  0.80336460752E+02 0.  0.
         66    2    3    3    0    0 -0.22692744936E+02 -0.18213798185E+02 -0.27416497184E+02  0.40029582160E+02  0.20000032543E+01 0.  0.
        -13    1    3    3    0    0  0.22692744936E+02  0.18213798185E+02  0.27893445723E+02  0.40308294374E+02  0.10566000000E+00 0.  1.
         13    1    4    4    0    0 -0.45914338993E+00 -0.59997046332E+00 -0.76133552961E+00  0.10777629766E+01  0.10566000000E+00 0.  1.
        -13    1    4    4    0    0 -0.77736388879E+01 -0.58302561564E+01 -0.10022489954E+02  0.13960043601E+02  0.10566000000E+00 0. -1.
         14    1    4    4    0    0 -0.14459962658E+02 -0.11783571565E+02 -0.16632671700E+02  0.24991775583E+02  0.00000000000E+00 0. -1.
<mgrwt>
<rscale>  0 0.80336461E+02</rscale>
<asrwt>0</asrwt>
<pdfrwt beam="1">  1        2 0.61431483E-02 0.80336461E+02</pdfrwt>
<pdfrwt beam="2">  1       -1 0.62165250E-02 0.80336461E+02</pdfrwt>
<totfact> 0.14085697E+05</totfact>
</mgrwt>
</event>
<event>
 8    1  0.2676873E-020  0.8172547E+02  0.7818608E-02  0.1324225E+00
          2   -1    0    0  501    0  0.00000000000E+00  0.00000000000E+00  0.28007137160E+02  0.28007137276E+02  0.25500000000E-02 0. -1.
         -1   -1    0    0    0  501 -0.00000000000E+00 -0.00000000000E+00 -0.59619203322E+02  0.59619203535E+02  0.50400000000E-02 0.  1.
         24    2    1    2    0    0 -0.35527136788E-14  0.00000000000E+00 -0.31612066163E+02  0.87626340811E+02  0.81725472632E+02 0.  0.
         66    2    3    3    0    0  0.31365215060E+02 -0.26137925663E+02 -0.14862260843E+02  0.43495455753E+02  0.20000000144E+01 0.  0.
        -13    1    3    3    0    0 -0.31365215060E+02  0.26137925663E+02 -0.16749805320E+02  0.44130885058E+02  0.10566000000E+00 0.  1.
         13    1    4    4    0    0  0.76073161515E+01 -0.68452887392E+01 -0.32548665235E+01  0.10739392770E+02  0.10566000000E+00 0. -1.
        -13    1    4    4    0    0  0.68001586763E+01 -0.54390144211E+01 -0.39027044448E+01  0.95429189410E+01  0.10566000000E+00 0.  1.
         14    1    4    4    0    0  0.16957740233E+02 -0.13853622503E+02 -0.77046898745E+01  0.23213144042E+02  0.00000000000E+00 0. -1.
<mgrwt>
<rscale>  0 0.81725473E+02</rscale>
<asrwt>0</asrwt>
<pdfrwt beam="1">  1        2 0.43087904E-02 0.81725473E+02</pdfrwt>
<pdfrwt beam="2">  1       -1 0.91721851E-02 0.81725473E+02</pdfrwt>
<totfact> 0.12499318E+05</totfact>
</mgrwt>
</event>
<event>
 8    1  0.2676873E-020  0.7707858E+02  0.7818608E-02  0.1337553E+00
          2   -1    0    0  501    0  0.00000000000E+00  0.00000000000E+00  0.14241376323E+03  0.14241376326E+03  0.25500000000E-02 0. -1.
         -1   -1    0    0    0  501 -0.00000000000E+00 -0.00000000000E+00 -0.10429306030E+02  0.10429307247E+02  0.50400000000E-02 0.  1.
         24    2    1    2    0    0  0.00000000000E+00  0.35527136788E-14  0.13198445720E+03  0.15284307050E+03  0.77078578461E+02 0.  0.
         66    2    3    3    0    0  0.28088149433E+02  0.18363824001E+02  0.28564645930E+02  0.44114772906E+02  0.20000052288E+01 0.  0.
        -13    1    3    3    0    0 -0.28088149433E+02 -0.18363824001E+02  0.10341981127E+03  0.10872829760E+03  0.10566000000E+00 0.  1.
         13    1    4    4    0    0  0.11861376877E+02  0.71722364209E+01  0.12625740268E+02  0.18749765813E+02  0.10566000000E+00 0. -1.
        -13    1    4    4    0    0  0.14097479997E+02  0.93905156986E+01  0.13513681224E+02  0.21669136383E+02  0.10566000000E+00 0.  1.
        -14    1    4    4    0    0  0.21292925597E+01  0.18010718818E+01  0.24252244381E+01  0.36958707098E+01  0.00000000000E+00 0.  1.
<mgrwt>
<rscale>  0 0.77078578E+02</rscale>
<asrwt>0</asrwt>
<pdfrwt beam="1">  1        2 0.21909810E-01 0.77078578E+02</pdfrwt>
<pdfrwt beam="2">  1       -1 0.16045087E-02 0.77078578E+02</pdfrwt>
<totfact> 0.21742246E+05</totfact>
</mgrwt>
</event>
<event>
 8    1  0.2676873E-020  0.7704833E+02  0.7818608E-02  0.1337643E+00
         -1   -1    0    0    0  501 -0.00000000000E+00  0.00000000000E+00  0.13250628816E+03  0.13250628826E+03  0.50400000000E-02 0.  1.
          2   -1    0    0  501    0  0.00000000000E+00 -0.00000000000E+00 -0.11200307449E+02  0.11200307739E+02  0.25500000000E-02 0. -1.
         24    2    1    2    0    0 -0.35527136788E-14  0.35527136788E-14  0.12130598071E+03  0.14370659600E+03  0.77048327537E+02 0.  0.
         66    2    3    3    0    0 -0.25062991420E+02  0.14239663313E+02  0.13098276774E+02  0.31725169385E+02  0.19999919604E+01 0.  0.
        -13    1    3    3    0    0  0.25062991420E+02 -0.14239663313E+02  0.10820770394E+03  0.11198142661E+03  0.10566000000E+00 0.  1.
         13    1    4    4    0    0 -0.19490487203E+02  0.10808600079E+02  0.94353100878E+01  0.24202090149E+02  0.10566000000E+00 0. -1.
        -13    1    4    4    0    0 -0.74311197159E+00  0.45180016439E+00  0.70168249131E+00  0.11224353634E+01  0.10566000000E+00 0.  1.
        -14    1    4    4    0    0 -0.48293922454E+01  0.29792630700E+01  0.29612841948E+01  0.64006438725E+01  0.00000000000E+00 0.  1.
<mgrwt>
<rscale>  0 0.77048328E+02</rscale>
<asrwt>0</asrwt>
<pdfrwt beam="1">  1        2 0.17231242E-02 0.77048328E+02</pdfrwt>
<pdfrwt beam="2">  1       -1 0.20385584E-01 0.77048328E+02</pdfrwt>
<totfact> 0.12226934E+05</totfact>
</mgrwt>
</event>
<event>
 8    1  0.2676873E-020  0.8214753E+02  0.7818608E-02  0.1323065E+00
          2   -1    0    0  501    0  0.00000000000E+00  0.00000000000E+00  0.42064126356E+03  0.42064126356E+03  0.25500000000E-02 0. -1.
         -1   -1    0    0    0  501 -0.00000000000E+00 -0.00000000000E+00 -0.40106702085E+01  0.40106733753E+01  0.50400000000E-02 0.  1.
         24    2    1    2    0    0  0.00000000000E+00  0.00000000000E+00  0.41663059335E+03  0.42465193694E+03  0.82147527248E+02 0.  0.
         66    2    3    3    0    0 -0.31372220907E+02  0.20005204147E+02  0.29806791364E+03  0.30038792517E+03  0.20000020613E+01 0.  0.
        -13    1    3    3    0    0  0.31372220907E+02 -0.20005204147E+02  0.11856267970E+03  0.12426401176E+03  0.10566000000E+00 0.  1.
         13    1    4    4    0    0 -0.10202754993E+02  0.66774983831E+01  0.96162034937E+02  0.96932106763E+02  0.10566000000E+00 0. -1.
        -13    1    4    4    0    0 -0.20086083878E+02  0.12626527403E+02  0.19398962120E+03  0.19543506404E+03  0.10566000000E+00 0.  1.
        -14    1    4    4    0    0 -0.10833820361E+01  0.70117836103E+00  0.79162575114E+01  0.80207543733E+01  0.00000000000E+00 0.  1.
<mgrwt>
<rscale>  0 0.82147527E+02</rscale>
<asrwt>0</asrwt>
<pdfrwt beam="1">  1        2 0.64713995E-01 0.82147527E+02</pdfrwt>
<pdfrwt beam="2">  1       -1 0.61702687E-03 0.82147527E+02</pdfrwt>
<totfact> 0.26827566E+05</totfact>
</mgrwt>
</event>
<event>
 8    1  0.2676873E-020  0.8689776E+02  0.7818608E-02  0.1310543E+00
         -1   -1    0    0    0  501 -0.00000000000E+00  0.00000000000E+00  0.30483795146E+01  0.30483836810E+01  0.50400000000E-02 0.  1.
          2   -1    0    0  501    0  0.00000000000E+00 -0.00000000000E+00 -0.61928116932E+03  0.61928116933E+03  0.25500000000E-02 0. -1.
         24    2    1    2    0    0  0.00000000000E+00  0.00000000000E+00 -0.61623278981E+03  0.62232955301E+03  0.86897763571E+02 0.  0.
         66    2    3    3    0    0 -0.15166593304E+02  0.21469892229E+02 -0.55582906971E+03  0.55645389445E+03  0.20000224266E+01 0.  0.
        -13    1    3    3    0    0  0.15166593304E+02 -0.21469892229E+02 -0.60403720100E+02  0.65875658560E+02  0.10566000000E+00 0.  1.
         13    1    4    4    0    0 -0.25477392379E+01  0.49263135922E+01 -0.11971074655E+03  0.11983919870E+03  0.10566000000E+00 0. -1.
        -13    1    4    4    0    0 -0.60897558436E+01  0.77182127808E+01 -0.20203130795E+03  0.20227040438E+03  0.10566000000E+00 0.  1.
        -14    1    4    4    0    0 -0.65290982227E+01  0.88253658565E+01 -0.23408701521E+03  0.23434429136E+03  0.00000000000E+00 0.  1.
<mgrwt>
<rscale>  0 0.86897764E+02</rscale>
<asrwt>0</asrwt>
<pdfrwt beam="1">  1        2 0.95273926E-01 0.86897764E+02</pdfrwt>
<pdfrwt beam="2">  1       -1 0.46898228E-03 0.86897764E+02</pdfrwt>
<totfact> 0.26139684E+05</totfact>
</mgrwt>
</event>
<event>
 8    1  0.2676873E-020  0.7903291E+02  0.7818608E-02  0.1331819E+00
          2   -1    0    0  501    0  0.00000000000E+00  0.00000000000E+00  0.30215181803E+02  0.30215181911E+02  0.25500000000E-02 0. -1.
         -1   -1    0    0    0  501 -0.00000000000E+00 -0.00000000000E+00 -0.51680974337E+02  0.51680974583E+02  0.50400000000E-02 0.  1.
         24    2    1    2    0    0 -0.22204460493E-15  0.00000000000E+00 -0.21465792534E+02  0.81896156493E+02  0.79032905801E+02 0.  0.
         66    2    3    3    0    0 -0.14376349778E+01 -0.28578030286E+02  0.17463462646E+02  0.33581886529E+02  0.19999914775E+01 0.  0.
        -13    1    3    3    0    0  0.14376349778E+01  0.28578030286E+02 -0.38929255180E+02  0.48314269965E+02  0.10566000000E+00 0.  1.
         13    1    4    4    0    0 -0.56861102597E+00 -0.13462047793E+02  0.87615725598E+01  0.16072534555E+02  0.10566000000E+00 0. -1.
        -13    1    4    4    0    0  0.60333754550E-01 -0.95539484462E+01  0.54894645921E+01  0.11019390029E+02  0.10566000000E+00 0.  1.
         14    1    4    4    0    0 -0.92935770634E+00 -0.55620340467E+01  0.32124254940E+01  0.64899619442E+01  0.00000000000E+00 0. -1.
<mgrwt>
<rscale>  0 0.79032906E+02</rscale>
<asrwt>0</asrwt>
<pdfrwt beam="1">  1        2 0.46484895E-02 0.79032906E+02</pdfrwt>
<pdfrwt beam="2">  1       -1 0.79509192E-02 0.79032906E+02</pdfrwt>
<totfact> 0.13940801E+05</totfact>
</mgrwt>
</event>
<event>
 8    1  0.2676873E-020  0.7859844E+02  0.7818608E-02  0.1333077E+00
         -1   -1    0    0    0  501 -0.00000000000E+00  0.00000000000E+00  0.52446328238E+02  0.52446328480E+02  0.50400000000E-02 0.  1.
          2   -1    0    0  501    0  0.00000000000E+00 -0.00000000000E+00 -0.29447795625E+02  0.29447795736E+02  0.25500000000E-02 0. -1.
         24    2    1    2    0    0  0.35527136788E-14  0.00000000000E+00  0.22998532613E+02  0.81894124216E+02  0.78598441961E+02 0.  0.
         66    2    3    3    0    0 -0.29555336629E+02  0.49937965693E+01 -0.14933885176E+02  0.33548127372E+02  0.19999990723E+01 0.  0.
        -13    1    3    3    0    0  0.29555336629E+02 -0.49937965693E+01  0.37932417789E+02  0.48345996844E+02  0.10566000000E+00 0.  1.
         13    1    4    4    0    0 -0.59564347224E+01  0.61118213978E+00 -0.26736872984E+01  0.65583859307E+01  0.10566000000E+00 0. -1.
        -13    1    4    4    0    0 -0.18250862494E+02  0.34969859513E+01 -0.88260133526E+01  0.20572616952E+02  0.10566000000E+00 0.  1.
        -14    1    4    4    0    0 -0.53480394128E+01  0.88562847822E+00 -0.34341845249E+01  0.64171244894E+01  0.00000000000E+00 0.  1.
<mgrwt>
<rscale>  0 0.78598442E+02</rscale>
<asrwt>0</asrwt>
<pdfrwt beam="1">  1        2 0.45304302E-02 0.78598442E+02</pdfrwt>
<pdfrwt beam="2">  1       -1 0.80686658E-02 0.78598442E+02</pdfrwt>
<totfact> 0.14086474E+05</totfact>
</mgrwt>
</event>
<event>
 8    1  0.2676873E-020  0.7817550E+02  0.7818608E-02  0.1334310E+00
          2   -1    0    0  501    0  0.00000000000E+00  0.00000000000E+00  0.42278566626E+03  0.42278566627E+03  0.25500000000E-02 0. -1.
         -1   -1    0    0    0  501 -0.00000000000E+00 -0.00000000000E+00 -0.36137730706E+01  0.36137765852E+01  0.50400000000E-02 0.  1.
         24    2    1    2    0    0  0.00000000000E+00  0.00000000000E+00  0.41917189319E+03  0.42639944285E+03  0.78175500160E+02 0.  0.
         66    2    3    3    0    0  0.19314771546E+02 -0.30253034287E+02  0.29378771025E+03  0.29597892691E+03  0.19999993005E+01 0.  0.
        -13    1    3    3    0    0 -0.19314771546E+02  0.30253034287E+02  0.12538418294E+03  0.13042051594E+03  0.10566000000E+00 0.  1.
         13    1    4    4    0    0  0.13766491360E+02 -0.22880011888E+02  0.21857160985E+03  0.22019666442E+03  0.10566000000E+00 0. -1.
        -13    1    4    4    0    0  0.17814585591E+01 -0.22390904519E+01  0.21367916248E+02  0.21558899079E+02  0.10566000000E+00 0.  1.
         14    1    4    4    0    0  0.37668216271E+01 -0.51339319476E+01  0.53848184159E+02  0.54223363411E+02  0.00000000000E+00 0. -1.
<mgrwt>
<rscale>  0 0.78175500E+02</rscale>
<asrwt>0</asrwt>
<pdfrwt beam="1">  1        2 0.65043965E-01 0.78175500E+02</pdfrwt>
<pdfrwt beam="2">  1       -1 0.55596522E-03 0.78175500E+02</pdfrwt>
<totfact> 0.30587384E+05</totfact>
</mgrwt>
</event>
<event>
 8    1  0.2676873E-020  0.7226638E+02  0.7818608E-02  0.1352551E+00
          2   -1    0    0  501    0  0.00000000000E+00  0.00000000000E+00  0.62159210590E+01  0.62159215820E+01  0.25500000000E-02 0. -1.
         -1   -1    0    0    0  501 -0.00000000000E+00 -0.00000000000E+00 -0.21004246632E+03  0.21004246638E+03  0.50400000000E-02 0.  1.
         24    2    1    2    0    0  0.00000000000E+00 -0.71054273576E-14 -0.20382654526E+03  0.21625838796E+03  0.72266380918E+02 0.  0.
         66    2    3    3    0    0 -0.64601255550E+01  0.35250076898E+02 -0.88843948782E+02  0.95820396445E+02  0.19999990648E+01 0.  0.
        -13    1    3    3    0    0  0.64601255550E+01 -0.35250076898E+02 -0.11498259648E+03  0.12043799151E+03  0.10566000000E+00 0.  1.
         13    1    4    4    0    0 -0.16704144440E+01  0.74733787713E+01 -0.18794822659E+02  0.20295275250E+02  0.10566000000E+00 0. -1.
        -13    1    4    4    0    0 -0.26810745114E+01  0.11415243670E+02 -0.30146744017E+02  0.32347075408E+02  0.10566000000E+00 0.  1.
        -14    1    4    4    0    0 -0.21086365995E+01  0.16361454457E+02 -0.39902382106E+02  0.43178045787E+02  0.00000000000E+00 0.  1.
<mgrwt>
<rscale>  0 0.72266381E+02</rscale>
<asrwt>0</asrwt>
<pdfrwt beam="1">  1        2 0.95629575E-03 0.72266381E+02</pdfrwt>
<pdfrwt beam="2">  1       -1 0.32314220E-01 0.72266381E+02</pdfrwt>
<totfact> 0.12703205E+05</totfact>
</mgrwt>
</event>
<event>
 8    1  0.2676873E-020  0.8931707E+02  0.7818608E-02  0.1304514E+00
         -1   -1    0    0    0  501 -0.00000000000E+00  0.00000000000E+00  0.68025911852E+01  0.68025930523E+01  0.50400000000E-02 0.  1.
          2   -1    0    0  501    0  0.00000000000E+00 -0.00000000000E+00 -0.29318010049E+03  0.29318010050E+03  0.25500000000E-02 0. -1.
         24    2    1    2    0    0  0.17763568394E-14  0.88817841970E-15 -0.28637750930E+03  0.29998269355E+03  0.89317067775E+02 0.  0.
         66    2    3    3    0    0 -0.94791386176E+01 -0.58763561534E+01 -0.28842119076E+03  0.28864367117E+03  0.20000000430E+01 0.  0.
        -13    1    3    3    0    0  0.94791386176E+01  0.58763561534E+01  0.20436814539E+01  0.11339022378E+02  0.10566000000E+00 0.  1.
         13    1    4    4    0    0 -0.40612680683E+01 -0.24222765271E+01 -0.13608973254E+03  0.13617190528E+03  0.10566000000E+00 0.  1.
        -13    1    4    4    0    0 -0.18247718374E+01 -0.18492617241E+01 -0.57936377449E+02  0.57994694216E+02  0.10566000000E+00 0. -1.
         14    1    4    4    0    0 -0.35930987119E+01 -0.16048179022E+01 -0.94395080768E+02  0.94477071674E+02  0.00000000000E+00 0. -1.
<mgrwt>
<rscale>  0 0.89317068E+02</rscale>
<asrwt>0</asrwt>
<pdfrwt beam="1">  1        2 0.45104621E-01 0.89317068E+02</pdfrwt>
<pdfrwt beam="2">  1       -1 0.10465529E-02 0.89317068E+02</pdfrwt>
<totfact> 0.18908580E+05</totfact>
</mgrwt>
</event>
<event>
 8    1  0.2676873E-020  0.7376925E+02  0.7818608E-02  0.1347725E+00
          2   -1    0    0  501    0  0.00000000000E+00  0.00000000000E+00  0.16551674459E+02  0.16551674656E+02  0.25500000000E-02 0. -1.
         -1   -1    0    0    0  501 -0.00000000000E+00 -0.00000000000E+00 -0.82195643093E+02  0.82195643248E+02  0.50400000000E-02 0.  1.
         24    2    1    2    0    0  0.22204460493E-15 -0.35527136788E-14 -0.65643968634E+02  0.98747317903E+02  0.73769249522E+02 0.  0.
         66    2    3    3    0    0 -0.18102444330E+01  0.28917862803E+02 -0.63339950298E+02  0.69681196068E+02  0.20000019123E+01 0.  0.
        -13    1    3    3    0    0  0.18102444330E+01 -0.28917862803E+02 -0.23040183356E+01  0.29066121835E+02  0.10566000000E+00 0.  1.
         13    1    4    4    0    0 -0.10110746452E+01  0.19361583863E+02 -0.44182676838E+02  0.48249490135E+02  0.10566000000E+00 0. -1.
        -13    1    4    4    0    0 -0.27482112675E+00  0.25829600684E+01 -0.57465594430E+01  0.63072433626E+01  0.10566000000E+00 0.  1.
        -14    1    4    4    0    0 -0.52434866105E+00  0.69733188720E+01 -0.13410714017E+02  0.15124462571E+02  0.00000000000E+00 0.  1.
<mgrwt>
<rscale>  0 0.73769250E+02</rscale>
<asrwt>0</asrwt>
<pdfrwt beam="1">  1        2 0.25464115E-02 0.73769250E+02</pdfrwt>
<pdfrwt beam="2">  1       -1 0.12645483E-01 0.73769250E+02</pdfrwt>
<totfact> 0.15086444E+05</totfact>
</mgrwt>
</event>
<event>
 8    1  0.2676873E-020  0.8126339E+02  0.7818608E-02  0.1325504E+00
         -1   -1    0    0    0  501 -0.00000000000E+00  0.00000000000E+00  0.37982793288E+02  0.37982793622E+02  0.50400000000E-02 0.  1.
          2   -1    0    0  501    0  0.00000000000E+00 -0.00000000000E+00 -0.43465326395E+02  0.43465326470E+02  0.25500000000E-02 0. -1.
         24    2    1    2    0    0  0.00000000000E+00 -0.17763568394E-14 -0.54825331071E+01  0.81448120092E+02  0.81263387188E+02 0.  0.
         66    2    3    3    0    0 -0.91981816812E+01  0.15097820082E+02 -0.39382540524E+02  0.43214988068E+02  0.19999945308E+01 0.  0.
        -13    1    3    3    0    0  0.91981816812E+01 -0.15097820082E+02  0.33900007417E+02  0.38233132024E+02  0.10566000000E+00 0.  1.
         13    1    4    4    0    0 -0.24134140289E+01  0.40418833465E+01 -0.10197480578E+02  0.11232148611E+02  0.10566000000E+00 0. -1.
        -13    1    4    4    0    0 -0.47104580648E+01  0.65662814930E+01 -0.19489886252E+02  0.21099082871E+02  0.10566000000E+00 0.  1.
        -14    1    4    4    0    0 -0.20743095875E+01  0.44896552423E+01 -0.96951736943E+01  0.10883756586E+02  0.00000000000E+00 0.  1.
<mgrwt>
<rscale>  0 0.81263387E+02</rscale>
<asrwt>0</asrwt>
<pdfrwt beam="1">  1        2 0.66869733E-02 0.81263387E+02</pdfrwt>
<pdfrwt beam="2">  1       -1 0.58435067E-02 0.81263387E+02</pdfrwt>
<totfact> 0.13889640E+05</totfact>
</mgrwt>
</event>
<event>
 8    1  0.2676873E-020  0.7902720E+02  0.7818608E-02  0.1331835E+00
          2   -1    0    0  501    0  0.00000000000E+00  0.00000000000E+00  0.38277325513E+02  0.38277325598E+02  0.25500000000E-02 0. -1.
         -1   -1    0    0    0  501 -0.00000000000E+00 -0.00000000000E+00 -0.40789800082E+02  0.40789800393E+02  0.50400000000E-02 0.  1.
         24    2    1    2    0    0  0.11102230246E-15  0.00000000000E+00 -0.25124745686E+01  0.79067125992E+02  0.79027197117E+02 0.  0.
         66    2    3    3    0    0 -0.67820780375E+00 -0.10615560264E+02  0.36790709025E+02  0.38349789510E+02  0.19999998400E+01 0.  0.
        -13    1    3    3    0    0  0.67820780375E+00  0.10615560264E+02 -0.39303183593E+02  0.40717336482E+02  0.10566000000E+00 0.  1.
         13    1    4    4    0    0 -0.22770764980E+00 -0.27134628236E+01  0.75416321225E+01  0.80188596680E+01  0.10566000000E+00 0. -1.
        -13    1    4    4    0    0  0.21885201112E+00 -0.59035241975E+01  0.20798538526E+02  0.21621513893E+02  0.10566000000E+00 0.  1.
         14    1    4    4    0    0 -0.66935216507E+00 -0.19985732429E+01  0.84505383761E+01  0.87094159491E+01  0.00000000000E+00 0. -1.
<mgrwt>
<rscale>  0 0.79027197E+02</rscale>
<asrwt>0</asrwt>
<pdfrwt beam="1">  1        2 0.58888193E-02 0.79027197E+02</pdfrwt>
<pdfrwt beam="2">  1       -1 0.62753539E-02 0.79027197E+02</pdfrwt>
<totfact> 0.14613894E+05</totfact>
</mgrwt>
</event>
<event>
 8    1  0.2676873E-020  0.8189689E+02  0.7818608E-02  0.1323753E+00
         -1   -1    0    0    0  501 -0.00000000000E+00  0.00000000000E+00  0.20644302484E+01  0.20644364006E+01  0.50400000000E-02 0.  1.
          2   -1    0    0  501    0  0.00000000000E+00 -0.00000000000E+00 -0.81222055696E+03  0.81222055696E+03  0.25500000000E-02 0. -1.
         24    2    1    2    0    0  0.44408920985E-15  0.00000000000E+00 -0.81015612671E+03  0.81428499336E+03  0.81896891090E+02 0.  0.
         66    2    3    3    0    0 -0.39836536400E+01 -0.95754002261E+01 -0.79893515548E+03  0.79900496898E+03  0.20000005055E+01 0.  0.
        -13    1    3    3    0    0  0.39836536400E+01  0.95754002261E+01 -0.11220971224E+02  0.15280024380E+02  0.10566000000E+00 0.  1.
         13    1    4    4    0    0 -0.38689274847E+01 -0.73053807462E+01 -0.62046765027E+03  0.62052272592E+03  0.10566000000E+00 0. -1.
        -13    1    4    4    0    0  0.84241183266E-02 -0.51593139997E+00 -0.35015715813E+02  0.35019676956E+02  0.10566000000E+00 0.  1.
         14    1    4    4    0    0 -0.12315027361E+00 -0.17540880799E+01 -0.14345178940E+03  0.14346256610E+03  0.00000000000E+00 0. -1.
<mgrwt>
<rscale>  0 0.81896891E+02</rscale>
<asrwt>0</asrwt>
<pdfrwt beam="1">  1        2 0.12495675E+00 0.81896891E+02</pdfrwt>
<pdfrwt beam="2">  1       -1 0.31760578E-03 0.81896891E+02</pdfrwt>
<totfact> 0.32416673E+05</totfact>
</mgrwt>
</event>
<event>
 8    1  0.2676873E-020  0.7136591E+02  0.7818608E-02  0.1355509E+00
          2   -1    0    0  501    0  0.00000000000E+00  0.00000000000E+00  0.12720358961E+03  0.12720358964E+03  0.25500000000E-02 0. -1.
         -1   -1    0    0    0  501 -0.00000000000E+00 -0.00000000000E+00 -0.10009726419E+02  0.10009727688E+02  0.50400000000E-02 0.  1.
         24    2    1    2    0    0  0.35527136788E-14 -0.88817841970E-15  0.11719386320E+03  0.13721331733E+03  0.71365908397E+02 0.  0.
         66    2    3    3    0    0 -0.17260526501E+02  0.56129470768E+01  0.11764845337E+03  0.11905708517E+03  0.19999994593E+01 0.  0.
        -13    1    3    3    0    0  0.17260526501E+02 -0.56129470768E+01 -0.45459017578E+00  0.18156232160E+02  0.10566000000E+00 0.  1.
         13    1    4    4    0    0 -0.18938474082E+01  0.43357813815E+00  0.11901343602E+02  0.12059344575E+02  0.10566000000E+00 0. -1.
        -13    1    4    4    0    0 -0.65315782042E+01  0.23877104339E+01  0.39847883341E+02  0.40450310824E+02  0.10566000000E+00 0.  1.
         14    1    4    4    0    0 -0.88351008889E+01  0.27916585048E+01  0.65899226428E+02  0.66547429768E+02  0.00000000000E+00 0. -1.
<mgrwt>
<rscale>  0 0.71365908E+02</rscale>
<asrwt>0</asrwt>
<pdfrwt beam="1">  1        2 0.19569782E-01 0.71365908E+02</pdfrwt>
<pdfrwt beam="2">  1       -1 0.15399581E-02 0.71365908E+02</pdfrwt>
<totfact> 0.25722348E+05</totfact>
</mgrwt>
</event>
<event>
 8    1  0.2676873E-020  0.7565111E+02  0.7818608E-02  0.1341867E+00
          2   -1    0    0  501    0  0.00000000000E+00  0.00000000000E+00  0.28037270409E+03  0.28037270410E+03  0.25500000000E-02 0. -1.
         -1   -1    0    0    0  501 -0.00000000000E+00 -0.00000000000E+00 -0.51031088307E+01  0.51031113196E+01  0.50400000000E-02 0.  1.
         24    2    1    2    0    0 -0.35527136788E-14 -0.22204460493E-15  0.27526959525E+03  0.28547581542E+03  0.75651114440E+02 0.  0.
         66    2    3    3    0    0  0.27146604971E+02  0.10103490320E+01  0.23691274819E+03  0.23847349795E+03  0.20000004111E+01 0.  0.
        -13    1    3    3    0    0 -0.27146604971E+02 -0.10103490320E+01  0.38356847061E+02  0.47002317465E+02  0.10566000000E+00 0.  1.
         13    1    4    4    0    0  0.19918854525E+02  0.11867344887E+01  0.17127463200E+03  0.17243311699E+03  0.10566000000E+00 0. -1.
        -13    1    4    4    0    0  0.79342820332E+00  0.12977701129E+00  0.57662950766E+01  0.58230312839E+01  0.10566000000E+00 0.  1.
         14    1    4    4    0    0  0.64343222428E+01 -0.30616246791E+00  0.59871821120E+02  0.60217349680E+02  0.00000000000E+00 0. -1.
<mgrwt>
<rscale>  0 0.75651114E+02</rscale>
<asrwt>0</asrwt>
<pdfrwt beam="1">  1        2 0.43134252E-01 0.75651114E+02</pdfrwt>
<pdfrwt beam="2">  1       -1 0.78509404E-03 0.75651114E+02</pdfrwt>
<totfact> 0.28795614E+05</totfact>
</mgrwt>
</event>
<event>
 8    1  0.2676873E-020  0.7680419E+02  0.7818608E-02  0.1338373E+00
          2   -1    0    0  501    0  0.00000000000E+00  0.00000000000E+00  0.57722607204E+02  0.57722607260E+02  0.25500000000E-02 0. -1.
         -1   -1    0    0    0  501 -0.00000000000E+00 -0.00000000000E+00 -0.25548407605E+02  0.25548408102E+02  0.50400000000E-02 0.  1.
         24    2    1    2    0    0  0.00000000000E+00  0.35527136788E-14  0.32174199599E+02  0.83271015363E+02  0.76804185301E+02 0.  0.
         66    2    3    3    0    0  0.22950702504E+02 -0.29747392456E+02  0.24570956649E+02  0.44937445600E+02  0.20000007726E+01 0.  0.
        -13    1    3    3    0    0 -0.22950702504E+02  0.29747392456E+02  0.76032429500E+01  0.38333569762E+02  0.10566000000E+00 0.  1.
         13    1    4    4    0    0  0.14889838774E+02 -0.20117839453E+02  0.15954808350E+02  0.29681675096E+02  0.10566000000E+00 0. -1.
        -13    1    4    4    0    0  0.53530358429E+01 -0.63754952024E+01  0.51997837690E+01  0.98158467333E+01  0.10566000000E+00 0.  1.
         14    1    4    4    0    0  0.27078278877E+01 -0.32540577998E+01  0.34163645303E+01  0.54399237713E+01  0.00000000000E+00 0. -1.
<mgrwt>
<rscale>  0 0.76804185E+02</rscale>
<asrwt>0</asrwt>
<pdfrwt beam="1">  1        2 0.88804011E-02 0.76804185E+02</pdfrwt>
<pdfrwt beam="2">  1       -1 0.39305243E-02 0.76804185E+02</pdfrwt>
<totfact> 0.17235685E+05</totfact>
</mgrwt>
</event>
<event>
 8    1  0.2676873E-020  0.7893639E+02  0.7818608E-02  0.1332097E+00
          2   -1    0    0  501    0  0.00000000000E+00  0.00000000000E+00  0.15931886383E+03  0.15931886385E+03  0.25500000000E-02 0. -1.
         -1   -1    0    0    0  501 -0.00000000000E+00 -0.00000000000E+00 -0.97774883917E+01  0.97774896907E+01  0.50400000000E-02 0.  1.
         24    2    1    2    0    0  0.00000000000E+00  0.00000000000E+00  0.14954137544E+03  0.16909635354E+03  0.78936390929E+02 0.  0.
         66    2    3    3    0    0 -0.37098509757E+02 -0.45650120782E+01  0.10179603317E+03  0.10845999783E+03  0.19999996844E+01 0.  0.
        -13    1    3    3    0    0  0.37098509757E+02  0.45650120782E+01  0.47745342263E+02  0.60636355706E+02  0.10566000000E+00 0.  1.
         13    1    4    4    0    0 -0.24827871764E+02 -0.24264199252E+01  0.65975854031E+02  0.70534638364E+02  0.10566000000E+00 0. -1.
        -13    1    4    4    0    0 -0.44431604105E+01 -0.76289798209E+00  0.13367631703E+02  0.14107743588E+02  0.10566000000E+00 0.  1.
         14    1    4    4    0    0 -0.78274775824E+01 -0.13756941710E+01  0.22452547440E+02  0.23817615882E+02  0.00000000000E+00 0. -1.
<mgrwt>
<rscale>  0 0.78936391E+02</rscale>
<asrwt>0</asrwt>
<pdfrwt beam="1">  1        2 0.24510596E-01 0.78936391E+02</pdfrwt>
<pdfrwt beam="2">  1       -1 0.15042290E-02 0.78936391E+02</pdfrwt>
<totfact> 0.21163284E+05</totfact>
</mgrwt>
</event>
<event>
 8    1  0.2676873E-020  0.8923917E+02  0.7818608E-02  0.1304705E+00
          2   -1    0    0  501    0  0.00000000000E+00  0.00000000000E+00  0.37777322743E+02  0.37777322829E+02  0.25500000000E-02 0. -1.
         -1   -1    0    0    0  501 -0.00000000000E+00 -0.00000000000E+00 -0.52701124258E+02  0.52701124499E+02  0.50400000000E-02 0.  1.
         24    2    1    2    0    0  0.00000000000E+00  0.00000000000E+00 -0.14923801515E+02  0.90478447328E+02  0.89239170655E+02 0.  0.
         66    2    3    3    0    0  0.13751191275E+02  0.39507300426E+02  0.82080292965E+01  0.42676618815E+02  0.20000000244E+01 0.  0.
        -13    1    3    3    0    0 -0.13751191275E+02 -0.39507300426E+02 -0.23131830811E+02  0.47801828513E+02  0.10566000000E+00 0.  1.
         13    1    4    4    0    0  0.33142731977E+01  0.10457883298E+02  0.28603928207E+01  0.11337757319E+02  0.10566000000E+00 0. -1.
        -13    1    4    4    0    0  0.33921854704E+00  0.11075187722E+01  0.31642942594E+00  0.12053873529E+01  0.10566000000E+00 0.  1.
         14    1    4    4    0    0  0.10097699531E+02  0.27941898356E+02  0.50312070499E+01  0.30133474143E+02  0.00000000000E+00 0. -1.
<mgrwt>
<rscale>  0 0.89239171E+02</rscale>
<asrwt>0</asrwt>
<pdfrwt beam="1">  1        2 0.58118958E-02 0.89239171E+02</pdfrwt>
<pdfrwt beam="2">  1       -1 0.81078653E-02 0.89239171E+02</pdfrwt>
<totfact> 0.10379612E+05</totfact>
</mgrwt>
</event>
<event>
 8    1  0.2676873E-020  0.7937780E+02  0.7818608E-02  0.1330826E+00
         -1   -1    0    0    0  501 -0.00000000000E+00  0.00000000000E+00  0.26862056910E+01  0.26862104192E+01  0.50400000000E-02 0.  1.
          2   -1    0    0  501    0  0.00000000000E+00 -0.00000000000E+00 -0.58640607277E+03  0.58640607278E+03  0.25500000000E-02 0. -1.
         24    2    1    2    0    0  0.17763568394E-14 -0.88817841970E-15 -0.58371986708E+03  0.58909228319E+03  0.79377798514E+02 0.  0.
         66    2    3    3    0    0 -0.14933566842E+02  0.62170535680E+01 -0.56081121062E+03  0.56104801679E+03  0.20000015073E+01 0.  0.
        -13    1    3    3    0    0  0.14933566842E+02 -0.62170535680E+01 -0.22908656455E+02  0.28044266407E+02  0.10566000000E+00 0.  1.
         13    1    4    4    0    0 -0.52474128811E+01  0.17930325752E+01 -0.20241039034E+03  0.20248636396E+03  0.10566000000E+00 0. -1.
        -13    1    4    4    0    0 -0.62549995881E+01  0.29925860364E+01 -0.21089166089E+03  0.21100565013E+03  0.10566000000E+00 0.  1.
        -14    1    4    4    0    0 -0.34311543733E+01  0.14314349563E+01 -0.14750915940E+03  0.14755600270E+03  0.00000000000E+00 0.  1.
<mgrwt>
<rscale>  0 0.79377799E+02</rscale>
<asrwt>0</asrwt>
<pdfrwt beam="1">  1        2 0.90216217E-01 0.79377799E+02</pdfrwt>
<pdfrwt beam="2">  1       -1 0.41326325E-03 0.79377799E+02</pdfrwt>
<totfact> 0.32612528E+05</totfact>
</mgrwt>
</event>
<event>
 8    1  0.2676873E-020  0.8595401E+02  0.7818608E-02  0.1312956E+00
          2   -1    0    0  501    0  0.00000000000E+00  0.00000000000E+00  0.45795292536E+03  0.45795292537E+03  0.25500000000E-02 0. -1.
         -1   -1    0    0    0  501 -0.00000000000E+00 -0.00000000000E+00 -0.40332140496E+01  0.40332171986E+01  0.50400000000E-02 0.  1.
         24    2    1    2    0    0  0.44408920985E-15  0.00000000000E+00  0.45391971131E+03  0.46198614256E+03  0.85954008671E+02 0.  0.
         66    2    3    3    0    0 -0.36176395150E+01  0.17739500125E+02  0.43644062819E+03  0.43682055712E+03  0.20000003656E+01 0.  0.
        -13    1    3    3    0    0  0.36176395150E+01 -0.17739500125E+02  0.17479083116E+02  0.25165585448E+02  0.10566000000E+00 0.  1.
         13    1    4    4    0    0 -0.48564798783E+00  0.38666102831E+01  0.90162400217E+02  0.90246640414E+02  0.10566000000E+00 0. -1.
        -13    1    4    4    0    0 -0.25119468613E+01  0.81277618569E+01  0.19564644123E+03  0.19583133437E+03  0.10566000000E+00 0.  1.
        -14    1    4    4    0    0 -0.62004466594E+00  0.57451279848E+01  0.15063178675E+03  0.15074258234E+03  0.00000000000E+00 0.  1.
<mgrwt>
<rscale>  0 0.85954009E+02</rscale>
<asrwt>0</asrwt>
<pdfrwt beam="1">  1        2 0.70454268E-01 0.85954009E+02</pdfrwt>
<pdfrwt beam="2">  1       -1 0.62049497E-03 0.85954009E+02</pdfrwt>
<totfact> 0.24522130E+05</totfact>
</mgrwt>
</event>
<event>
 8    1  0.2676873E-020  0.7565028E+02  0.7818608E-02  0.1341869E+00
          2   -1    0    0  501    0  0.00000000000E+00  0.00000000000E+00  0.49833509755E+02  0.49833509821E+02  0.25500000000E-02 0. -1.
         -1   -1    0    0    0  501 -0.00000000000E+00 -0.00000000000E+00 -0.28710421168E+02  0.28710421610E+02  0.50400000000E-02 0.  1.
         24    2    1    2    0    0 -0.35527136788E-14  0.00000000000E+00  0.21123088588E+02  0.78543931431E+02  0.75650276226E+02 0.  0.
         66    2    3    3    0    0 -0.30309927667E+02  0.96518272197E+01  0.31767698802E+02  0.45000401883E+02  0.19999996650E+01 0.  0.
        -13    1    3    3    0    0  0.30309927667E+02 -0.96518272197E+01 -0.10644610214E+02  0.33543529547E+02  0.10566000000E+00 0.  1.
         13    1    4    4    0    0 -0.32859950167E+01  0.85823256497E+00  0.28630968488E+01  0.44432886454E+01  0.10566000000E+00 0.  1.
        -13    1    4    4    0    0 -0.57285276866E+01  0.16353234767E+01  0.53762496039E+01  0.80253059860E+01  0.10566000000E+00 0. -1.
         14    1    4    4    0    0 -0.21295404964E+02  0.71582711781E+01  0.23528352349E+02  0.32531807252E+02  0.00000000000E+00 0. -1.
<mgrwt>
<rscale>  0 0.75650276E+02</rscale>
<asrwt>0</asrwt>
<pdfrwt beam="1">  1        2 0.76666938E-02 0.75650276E+02</pdfrwt>
<pdfrwt beam="2">  1       -1 0.44169879E-02 0.75650276E+02</pdfrwt>
<totfact> 0.17393042E+05</totfact>
</mgrwt>
</event>
<event>
 8    1  0.2676873E-020  0.7939943E+02  0.7818608E-02  0.1330764E+00
         -1   -1    0    0    0  501 -0.00000000000E+00  0.00000000000E+00  0.23227961503E+01  0.23228016181E+01  0.50400000000E-02 0.  1.
          2   -1    0    0  501    0  0.00000000000E+00 -0.00000000000E+00 -0.67852085662E+03  0.67852085663E+03  0.25500000000E-02 0. -1.
         24    2    1    2    0    0  0.71054273576E-14  0.00000000000E+00 -0.67619806047E+03  0.68084365825E+03  0.79399433163E+02 0.  0.
         66    2    3    3    0    0  0.27866526135E+02 -0.24788871041E+02 -0.45432216420E+03  0.45585486760E+03  0.20000057892E+01 0.  0.
        -13    1    3    3    0    0 -0.27866526135E+02  0.24788871041E+02 -0.22187589628E+03  0.22498879065E+03  0.10566000000E+00 0.  1.
         13    1    4    4    0    0  0.49946701309E+01 -0.40275794838E+01 -0.81742657580E+02  0.81994154417E+02  0.10566000000E+00 0. -1.
        -13    1    4    4    0    0  0.16820016967E+01 -0.20149273316E+01 -0.29658757490E+02  0.29774857208E+02  0.10566000000E+00 0.  1.
         14    1    4    4    0    0  0.21189854307E+02 -0.18746364226E+02 -0.34292074913E+03  0.34408585597E+03  0.00000000000E+00 0. -1.
<mgrwt>
<rscale>  0 0.79399433E+02</rscale>
<asrwt>0</asrwt>
<pdfrwt beam="1">  1        2 0.10438767E+00 0.79399433E+02</pdfrwt>
<pdfrwt beam="2">  1       -1 0.35735422E-03 0.79399433E+02</pdfrwt>
<totfact> 0.33864909E+05</totfact>
</mgrwt>
</event>
<event>
 8    1  0.2676873E-020  0.8157044E+02  0.7818608E-02  0.1324653E+00
          2   -1    0    0  501    0  0.00000000000E+00  0.00000000000E+00  0.46588729014E+03  0.46588729014E+03  0.25500000000E-02 0. -1.
         -1   -1    0    0    0  501 -0.00000000000E+00 -0.00000000000E+00 -0.35704629385E+01  0.35704664956E+01  0.50400000000E-02 0.  1.
         24    2    1    2    0    0  0.00000000000E+00  0.00000000000E+00  0.46231682720E+03  0.46945775664E+03  0.81570439242E+02 0.  0.
         66    2    3    3    0    0 -0.20979803316E+02  0.27061303029E+02  0.35855984863E+03  0.36019665636E+03  0.19999834991E+01 0.  0.
        -13    1    3    3    0    0  0.20979803316E+02 -0.27061303029E+02  0.10375697857E+03  0.10926110029E+03  0.10566000000E+00 0.  1.
         13    1    4    4    0    0 -0.14693220032E+02  0.17945805401E+02  0.24284255123E+03  0.24394765524E+03  0.10566000000E+00 0. -1.
        -13    1    4    4    0    0 -0.50600775168E+01  0.69368785685E+01  0.86701084623E+02  0.87125277088E+02  0.10566000000E+00 0.  1.
         14    1    4    4    0    0 -0.12265057674E+01  0.21786190594E+01  0.29016212777E+02  0.29123724029E+02  0.00000000000E+00 0. -1.
<mgrwt>
<rscale>  0 0.81570439E+02</rscale>
<asrwt>0</asrwt>
<pdfrwt beam="1">  1        2 0.71674917E-01 0.81570439E+02</pdfrwt>
<pdfrwt beam="2">  1       -1 0.54930265E-03 0.81570439E+02</pdfrwt>
<totfact> 0.28287863E+05</totfact>
</mgrwt>
</event>
<event>
 8    1  0.2676873E-020  0.8800757E+02  0.7818608E-02  0.1307750E+00
          2   -1    0    0  501    0  0.00000000000E+00  0.00000000000E+00  0.35824954144E+03  0.35824954145E+03  0.25500000000E-02 0. -1.
         -1   -1    0    0    0  501 -0.00000000000E+00 -0.00000000000E+00 -0.54049825437E+01  0.54049848935E+01  0.50400000000E-02 0.  1.
         24    2    1    2    0    0  0.00000000000E+00  0.00000000000E+00  0.35284455890E+03  0.36365452635E+03  0.88007566645E+02 0.  0.
         66    2    3    3    0    0  0.13760788599E+02  0.41772085347E+02  0.17548872286E+03  0.18092694179E+03  0.19999991190E+01 0.  0.
        -13    1    3    3    0    0 -0.13760788599E+02 -0.41772085347E+02  0.17735583603E+03  0.18272758455E+03  0.10566000000E+00 0.  1.
         13    1    4    4    0    0  0.52796769148E+01  0.15602597172E+02  0.66248939628E+02  0.68266017847E+02  0.10566000000E+00 0. -1.
        -13    1    4    4    0    0  0.35288086700E+01  0.13197658089E+02  0.52998622205E+02  0.54731122675E+02  0.10566000000E+00 0.  1.
         14    1    4    4    0    0  0.49523030137E+01  0.12971830086E+02  0.56241161032E+02  0.57929801270E+02  0.00000000000E+00 0. -1.
<mgrwt>
<rscale>  0 0.88007567E+02</rscale>
<asrwt>0</asrwt>
<pdfrwt beam="1">  1        2 0.55115308E-01 0.88007567E+02</pdfrwt>
<pdfrwt beam="2">  1       -1 0.83153605E-03 0.88007567E+02</pdfrwt>
<totfact> 0.21148532E+05</totfact>
</mgrwt>
</event>
<event>
 8    1  0.2676873E-020  0.8073578E+02  0.7818608E-02  0.1326976E+00
         -1   -1    0    0    0  501 -0.00000000000E+00  0.00000000000E+00  0.37881306824E+01  0.37881340352E+01  0.50400000000E-02 0.  1.
          2   -1    0    0  501    0  0.00000000000E+00 -0.00000000000E+00 -0.43017675059E+03  0.43017675059E+03  0.25500000000E-02 0. -1.
         24    2    1    2    0    0  0.00000000000E+00  0.00000000000E+00 -0.42638861990E+03  0.43396488463E+03  0.80735778361E+02 0.  0.
         66    2    3    3    0    0 -0.10098987182E+02 -0.27823151166E+02 -0.36067029071E+03  0.36188834727E+03  0.19999998145E+01 0.  0.
        -13    1    3    3    0    0  0.10098987182E+02  0.27823151166E+02 -0.65718329189E+02  0.72076537364E+02  0.10566000000E+00 0.  1.
         13    1    4    4    0    0 -0.58964757708E+01 -0.16047992139E+02 -0.19970915836E+03  0.20043968064E+03  0.10566000000E+00 0. -1.
        -13    1    4    4    0    0 -0.24797149770E+00 -0.11466653805E+01 -0.12735068471E+02  0.12789427835E+02  0.10566000000E+00 0.  1.
         14    1    4    4    0    0 -0.39545399138E+01 -0.10628493646E+02 -0.14822606388E+03  0.14865923879E+03  0.00000000000E+00 0. -1.
<mgrwt>
<rscale>  0 0.80735778E+02</rscale>
<asrwt>0</asrwt>
<pdfrwt beam="1">  1        2 0.66181000E-01 0.80735778E+02</pdfrwt>
<pdfrwt beam="2">  1       -1 0.58278994E-03 0.80735778E+02</pdfrwt>
<totfact> 0.28288601E+05</totfact>
</mgrwt>
</event>
<event>
 8    1  0.2676873E-020  0.8034040E+02  0.7818608E-02  0.1328088E+00
          2   -1    0    0  501    0  0.00000000000E+00  0.00000000000E+00  0.46246332723E+03  0.46246332724E+03  0.25500000000E-02 0. -1.
         -1   -1    0    0    0  501 -0.00000000000E+00 -0.00000000000E+00 -0.34892373229E+01  0.34892409629E+01  0.50400000000E-02 0.  1.
         24    2    1    2    0    0 -0.35527136788E-14  0.00000000000E+00  0.45897408991E+03  0.46595256820E+03  0.80340404568E+02 0.  0.
         66    2    3    3    0    0  0.20481198715E+02  0.58614135546E+01  0.42697349542E+03  0.42750929985E+03  0.20000000241E+01 0.  0.
        -13    1    3    3    0    0 -0.20481198715E+02 -0.58614135546E+01  0.32000594491E+02  0.38443268351E+02  0.10566000000E+00 0.  1.
         13    1    4    4    0    0  0.48303828645E+01  0.14598040306E+01  0.95184847332E+02  0.95318570867E+02  0.10566000000E+00 0. -1.
        -13    1    4    4    0    0  0.22983730463E+01  0.59439939280E+00  0.61144196803E+02  0.61190357051E+02  0.10566000000E+00 0.  1.
         14    1    4    4    0    0  0.13352442804E+02  0.38072101312E+01  0.27064445128E+03  0.27100037193E+03  0.00000000000E+00 0. -1.
<mgrwt>
<rscale>  0 0.80340405E+02</rscale>
<asrwt>0</asrwt>
<pdfrwt beam="1">  1        2 0.71148164E-01 0.80340405E+02</pdfrwt>
<pdfrwt beam="2">  1       -1 0.53680633E-03 0.80340405E+02</pdfrwt>
<totfact> 0.29360857E+05</totfact>
</mgrwt>
</event>
<event>
 8    1  0.2676873E-020  0.7944097E+02  0.7818608E-02  0.1330645E+00
         -1   -1    0    0    0  501 -0.00000000000E+00  0.00000000000E+00  0.20764144495E+01  0.20764205662E+01  0.50400000000E-02 0.  1.
          2   -1    0    0  501    0  0.00000000000E+00 -0.00000000000E+00 -0.75982639737E+03  0.75982639737E+03  0.25500000000E-02 0. -1.
         24    2    1    2    0    0  0.00000000000E+00  0.35527136788E-14 -0.75774998292E+03  0.76190281794E+03  0.79440967829E+02 0.  0.
         66    2    3    3    0    0  0.12808831495E+02 -0.20562932850E+02 -0.68070090323E+03  0.68113480313E+03  0.20000002525E+01 0.  0.
        -13    1    3    3    0    0 -0.12808831495E+02  0.20562932850E+02 -0.77049079681E+02  0.80768014804E+02  0.10566000000E+00 0.  1.
         13    1    4    4    0    0  0.22940946278E+01 -0.36670648857E+01 -0.12826827290E+03  0.12834122967E+03  0.10566000000E+00 0.  1.
        -13    1    4    4    0    0  0.78501857100E+01 -0.11256142335E+02 -0.37080966250E+03  0.37106352977E+03  0.10566000000E+00 0. -1.
        -14    1    4    4    0    0  0.26645511572E+01 -0.56397256291E+01 -0.18162296783E+03  0.18173004370E+03  0.00000000000E+00 0.  1.
<mgrwt>
<rscale>  0 0.79440968E+02</rscale>
<asrwt>0</asrwt>
<pdfrwt beam="1">  1        2 0.11689615E+00 0.79440968E+02</pdfrwt>
<pdfrwt beam="2">  1       -1 0.31944946E-03 0.79440968E+02</pdfrwt>
<totfact> 0.34666438E+05</totfact>
</mgrwt>
</event>
<event>
 8    1  0.2676873E-020  0.7714938E+02  0.7818608E-02  0.1337341E+00
          2   -1    0    0  501    0  0.00000000000E+00  0.00000000000E+00  0.96340214509E+02  0.96340214542E+02  0.25500000000E-02 0. -1.
         -1   -1    0    0    0  501 -0.00000000000E+00 -0.00000000000E+00 -0.15445331144E+02  0.15445331966E+02  0.50400000000E-02 0.  1.
         24    2    1    2    0    0  0.17763568394E-14  0.00000000000E+00  0.80894883365E+02  0.11178554651E+03  0.77149376236E+02 0.  0.
         66    2    3    3    0    0 -0.84782125411E+01 -0.21763155871E+02  0.84909994167E+02  0.88086446945E+02  0.19999961502E+01 0.  0.
        -13    1    3    3    0    0  0.84782125411E+01  0.21763155871E+02 -0.40151108019E+01  0.23699099564E+02  0.10566000000E+00 0.  1.
         13    1    4    4    0    0 -0.29792542687E+01 -0.78497790234E+01  0.28866479298E+02  0.30062930293E+02  0.10566000000E+00 0. -1.
        -13    1    4    4    0    0 -0.26118284416E+01 -0.50933934810E+01  0.19846089033E+02  0.20655331489E+02  0.10566000000E+00 0.  1.
         14    1    4    4    0    0 -0.28871298309E+01 -0.88199833662E+01  0.36197425836E+02  0.37368185163E+02  0.00000000000E+00 0. -1.
<mgrwt>
<rscale>  0 0.77149376E+02</rscale>
<asrwt>0</asrwt>
<pdfrwt beam="1">  1        2 0.14821571E-01 0.77149376E+02</pdfrwt>
<pdfrwt beam="2">  1       -1 0.23762049E-02 0.77149376E+02</pdfrwt>
<totfact> 0.19331651E+05</totfact>
</mgrwt>
</event>
<event>
 8    1  0.2676873E-020  0.8011269E+02  0.7818608E-02  0.1328732E+00
         -1   -1    0    0    0  501 -0.00000000000E+00  0.00000000000E+00  0.27176605122E+02  0.27176605589E+02  0.50400000000E-02 0.  1.
          2   -1    0    0  501    0  0.00000000000E+00 -0.00000000000E+00 -0.59040148042E+02  0.59040148097E+02  0.25500000000E-02 0. -1.
         24    2    1    2    0    0  0.00000000000E+00  0.00000000000E+00 -0.31863542921E+02  0.86216753686E+02  0.80112690934E+02 0.  0.
         66    2    3    3    0    0 -0.22228313204E+02  0.29801905854E+02 -0.31913426315E+02  0.49037927013E+02  0.20000015336E+01 0.  0.
        -13    1    3    3    0    0  0.22228313204E+02 -0.29801905854E+02  0.49883394002E-01  0.37178826673E+02  0.10566000000E+00 0.  1.
         13    1    4    4    0    0 -0.32425256990E+01  0.37194656079E+01 -0.46347649793E+01  0.67705692350E+01  0.10566000000E+00 0. -1.
        -13    1    4    4    0    0 -0.91936209067E+01  0.11726746076E+02 -0.12137218547E+02  0.19218805296E+02  0.10566000000E+00 0.  1.
        -14    1    4    4    0    0 -0.97921665987E+01  0.14355694170E+02 -0.15141442789E+02  0.23048552482E+02  0.00000000000E+00 0.  1.
<mgrwt>
<rscale>  0 0.80112691E+02</rscale>
<asrwt>0</asrwt>
<pdfrwt beam="1">  1        2 0.90830997E-02 0.80112691E+02</pdfrwt>
<pdfrwt beam="2">  1       -1 0.41810162E-02 0.80112691E+02</pdfrwt>
<totfact> 0.15449170E+05</totfact>
</mgrwt>
</event>
<event>
 8    1  0.2676873E-020  0.7940194E+02  0.7818608E-02  0.1330757E+00
         -1   -1    0    0    0  501 -0.00000000000E+00  0.00000000000E+00  0.35479661707E+01  0.35479697504E+01  0.50400000000E-02 0.  1.
          2   -1    0    0  501    0  0.00000000000E+00 -0.00000000000E+00 -0.44424497227E+03  0.44424497228E+03  0.25500000000E-02 0. -1.
         24    2    1    2    0    0  0.00000000000E+00  0.00000000000E+00 -0.44069700610E+03  0.44779294203E+03  0.79401937917E+02 0.  0.
         66    2    3    3    0    0 -0.12224695717E+02 -0.83664890029E+01 -0.42806098819E+03  0.42832190106E+03  0.19999994433E+01 0.  0.
        -13    1    3    3    0    0  0.12224695717E+02  0.83664890029E+01 -0.12636017914E+02  0.19471040968E+02  0.10566000000E+00 0.  1.
         13    1    4    4    0    0 -0.51460530680E+01 -0.30448412635E+01 -0.15861166934E+03  0.15872437033E+03  0.10566000000E+00 0. -1.
        -13    1    4    4    0    0 -0.23916580000E+01 -0.24000887140E+01 -0.11252389649E+03  0.11257494792E+03  0.10566000000E+00 0.  1.
        -14    1    4    4    0    0 -0.46869846492E+01 -0.29215590253E+01 -0.15692542236E+03  0.15702258282E+03  0.00000000000E+00 0.  1.
<mgrwt>
<rscale>  0 0.79401938E+02</rscale>
<asrwt>0</asrwt>
<pdfrwt beam="1">  1        2 0.68345336E-01 0.79401938E+02</pdfrwt>
<pdfrwt beam="2">  1       -1 0.54584158E-03 0.79401938E+02</pdfrwt>
<totfact> 0.29870282E+05</totfact>
</mgrwt>
</event>
<event>
 8    1  0.2676873E-020  0.7804737E+02  0.7818608E-02  0.1334686E+00
         -1   -1    0    0    0  501 -0.00000000000E+00  0.00000000000E+00  0.11235439057E+02  0.11235440187E+02  0.50400000000E-02 0.  1.
          2   -1    0    0  501    0  0.00000000000E+00 -0.00000000000E+00 -0.13553968931E+03  0.13553968933E+03  0.25500000000E-02 0. -1.
         24    2    1    2    0    0 -0.71054273576E-14  0.35527136788E-14 -0.12430425025E+03  0.14677512952E+03  0.78047370326E+02 0.  0.
         66    2    3    3    0    0 -0.24706482511E+02  0.24290467529E+02 -0.95855179683E+02  0.10194436027E+03  0.20000072220E+01 0.  0.
        -13    1    3    3    0    0  0.24706482511E+02 -0.24290467529E+02 -0.28449070570E+02  0.44830769246E+02  0.10566000000E+00 0.  1.
         13    1    4    4    0    0 -0.67290880764E+01  0.73308611349E+01 -0.28117907897E+02  0.29827002194E+02  0.10566000000E+00 0. -1.
        -13    1    4    4    0    0 -0.94853201369E+00  0.12982456553E+01 -0.47068889674E+01  0.49750500047E+01  0.10566000000E+00 0.  1.
        -14    1    4    4    0    0 -0.17028862421E+02  0.15661360738E+02 -0.63030382818E+02  0.67142308076E+02  0.00000000000E+00 0.  1.
<mgrwt>
<rscale>  0 0.78047370E+02</rscale>
<asrwt>0</asrwt>
<pdfrwt beam="1">  1        2 0.20852259E-01 0.78047370E+02</pdfrwt>
<pdfrwt beam="2">  1       -1 0.17285293E-02 0.78047370E+02</pdfrwt>
<totfact> 0.20711445E+05</totfact>
</mgrwt>
</event>
<event>
 8    1  0.2676873E-020  0.7991820E+02  0.7818608E-02  0.1329284E+00
          2   -1    0    0  501    0  0.00000000000E+00  0.00000000000E+00  0.30442396427E+02  0.30442396534E+02  0.25500000000E-02 0. -1.
         -1   -1    0    0    0  501 -0.00000000000E+00 -0.00000000000E+00 -0.52450852318E+02  0.52450852560E+02  0.50400000000E-02 0.  1.
         24    2    1    2    0    0  0.71054273576E-14  0.44408920985E-15 -0.22008455890E+02  0.82893249094E+02  0.79918199521E+02 0.  0.
         66    2    3    3    0    0 -0.38234439400E+02 -0.21300104210E+01  0.73822281039E+00  0.38353021697E+02  0.19999999237E+01 0.  0.
        -13    1    3    3    0    0  0.38234439400E+02  0.21300104210E+01 -0.22746678701E+02  0.44540227397E+02  0.10566000000E+00 0.  1.
         13    1    4    4    0    0 -0.11231866656E+02 -0.10235021819E+01 -0.28695280423E+00  0.11282548082E+02  0.10566000000E+00 0. -1.
        -13    1    4    4    0    0 -0.16760454440E+02 -0.59611048557E+00  0.11988174461E+01  0.16814175806E+02  0.10566000000E+00 0. -1.
        -14    1    4    4    0    0 -0.10242118305E+02 -0.51039775354E+00 -0.17364183147E+00  0.10256297808E+02  0.00000000000E+00 0.  1.
<mgrwt>
<rscale>  0 0.79918200E+02</rscale>
<asrwt>0</asrwt>
<pdfrwt beam="1">  1        2 0.46834456E-02 0.79918200E+02</pdfrwt>
<pdfrwt beam="2">  1       -1 0.80693619E-02 0.79918200E+02</pdfrwt>
<totfact> 0.13532895E+05</totfact>
</mgrwt>
</event>
<event>
 8    1  0.2676873E-020  0.8232945E+02  0.7818608E-02  0.1322568E+00
         -1   -1    0    0    0  501 -0.00000000000E+00  0.00000000000E+00  0.20003854663E+01  0.20003918154E+01  0.50400000000E-02 0.  1.
          2   -1    0    0  501    0  0.00000000000E+00 -0.00000000000E+00 -0.84710275385E+03  0.84710275386E+03  0.25500000000E-02 0. -1.
         24    2    1    2    0    0  0.35527136788E-14  0.00000000000E+00 -0.84510236839E+03  0.84910314567E+03  0.82329453646E+02 0.  0.
         66    2    3    3    0    0 -0.20983652173E+02  0.24724554010E+02 -0.68389847797E+03  0.68466980757E+03  0.20000001119E+01 0.  0.
        -13    1    3    3    0    0  0.20983652173E+02 -0.24724554010E+02 -0.16120389042E+03  0.16443333810E+03  0.10566000000E+00 0.  1.
         13    1    4    4    0    0 -0.64432230421E+01  0.66533953435E+01 -0.18324558755E+03  0.18347953378E+03  0.10566000000E+00 0. -1.
        -13    1    4    4    0    0 -0.10871513413E+02  0.13917252228E+02 -0.38207788454E+03  0.38248581769E+03  0.10566000000E+00 0.  1.
         14    1    4    4    0    0 -0.36689157176E+01  0.41539064389E+01 -0.11857500588E+03  0.11870445611E+03  0.00000000000E+00 0. -1.
<mgrwt>
<rscale>  0 0.82329454E+02</rscale>
<asrwt>0</asrwt>
<pdfrwt beam="1">  1        2 0.13032321E+00 0.82329454E+02</pdfrwt>
<pdfrwt beam="2">  1       -1 0.30775278E-03 0.82329454E+02</pdfrwt>
<totfact> 0.32183884E+05</totfact>
</mgrwt>
</event>
<event>
 8    1  0.2676873E-020  0.7504246E+02  0.7818608E-02  0.1343740E+00
          2   -1    0    0  501    0  0.00000000000E+00  0.00000000000E+00  0.36788162149E+03  0.36788162150E+03  0.25500000000E-02 0. -1.
         -1   -1    0    0    0  501 -0.00000000000E+00 -0.00000000000E+00 -0.38268890374E+01  0.38268923562E+01  0.50400000000E-02 0.  1.
         24    2    1    2    0    0  0.00000000000E+00  0.35527136788E-14  0.36405473245E+03  0.37170851385E+03  0.75042461654E+02 0.  0.
         66    2    3    3    0    0  0.54128424043E+01 -0.26206206453E+02  0.31224775638E+03  0.31339866861E+03  0.19999993120E+01 0.  0.
        -13    1    3    3    0    0 -0.54128424043E+01  0.26206206453E+02  0.51806976065E+02  0.58309845246E+02  0.10566000000E+00 0.  1.
         13    1    4    4    0    0  0.25352652458E+01 -0.11829730047E+02  0.14049935760E+03  0.14101932752E+03  0.10566000000E+00 0. -1.
        -13    1    4    4    0    0  0.18369446239E+01 -0.77314904799E+01  0.10081848765E+03  0.10113124604E+03  0.10566000000E+00 0.  1.
        -14    1    4    4    0    0  0.10406325346E+01 -0.66449859263E+01  0.70929911134E+02  0.71248095045E+02  0.00000000000E+00 0.  1.
<mgrwt>
<rscale>  0 0.75042462E+02</rscale>
<asrwt>0</asrwt>
<pdfrwt beam="1">  1        2 0.56597179E-01 0.75042462E+02</pdfrwt>
<pdfrwt beam="2">  1       -1 0.58875236E-03 0.75042462E+02</pdfrwt>
<totfact> 0.32408387E+05</totfact>
</mgrwt>
</event>
<event>
 8    1  0.2676873E-020  0.7874708E+02  0.7818608E-02  0.1332645E+00
          2   -1    0    0  501    0  0.00000000000E+00  0.00000000000E+00  0.83431985843E+03  0.83431985843E+03  0.25500000000E-02 0. -1.
         -1   -1    0    0    0  501 -0.00000000000E+00 -0.00000000000E+00 -0.18581276236E+01  0.18581344589E+01  0.50400000000E-02 0.  1.
         24    2    1    2    0    0  0.00000000000E+00  0.00000000000E+00  0.83246173080E+03  0.83617799289E+03  0.78747079571E+02 0.  0.
         66    2    3    3    0    0  0.16761487598E+02 -0.99811295103E+01  0.77935097880E+03  0.77959766455E+03  0.20000001116E+01 0.  0.
        -13    1    3    3    0    0 -0.16761487598E+02  0.99811295103E+01  0.53110752004E+02  0.56580328342E+02  0.10566000000E+00 0.  1.
         13    1    4    4    0    0  0.33536412691E+01 -0.23497866692E+01  0.15780587689E+03  0.15785903317E+03  0.10566000000E+00 0. -1.
        -13    1    4    4    0    0  0.20224537261E+01 -0.56614477351E+00  0.77167270608E+02  0.77195917354E+02  0.10566000000E+00 0.  1.
        -14    1    4    4    0    0  0.11385392603E+02 -0.70651980676E+01  0.54437783130E+03  0.54454271402E+03  0.00000000000E+00 0.  1.
<mgrwt>
<rscale>  0 0.78747080E+02</rscale>
<asrwt>0</asrwt>
<pdfrwt beam="1">  1        2 0.12835719E+00 0.78747080E+02</pdfrwt>
<pdfrwt beam="2">  1       -1 0.28586567E-03 0.78747080E+02</pdfrwt>
<totfact> 0.36047444E+05</totfact>
</mgrwt>
</event>
<event>
 8    1  0.2676873E-020  0.8365914E+02  0.7818608E-02  0.1318977E+00
          2   -1    0    0  501    0  0.00000000000E+00  0.00000000000E+00  0.14428818062E+02  0.14428818287E+02  0.25500000000E-02 0. -1.
         -1   -1    0    0    0  501 -0.00000000000E+00 -0.00000000000E+00 -0.12126515171E+03  0.12126515182E+03  0.50400000000E-02 0.  1.
         24    2    1    2    0    0  0.00000000000E+00  0.00000000000E+00 -0.10683633365E+03  0.13569397010E+03  0.83659137784E+02 0.  0.
         66    2    3    3    0    0 -0.10300923139E+02 -0.35559982852E+02 -0.84945496776E+02  0.92684188646E+02  0.20000011648E+01 0.  0.
        -13    1    3    3    0    0  0.10300923139E+02  0.35559982852E+02 -0.21890836874E+02  0.43009781457E+02  0.10566000000E+00 0.  1.
         13    1    4    4    0    0 -0.47823806745E+01 -0.17878248739E+02 -0.42738119354E+02  0.46573178471E+02  0.10566000000E+00 0. -1.
        -13    1    4    4    0    0 -0.37649688131E+01 -0.13824149936E+02 -0.32873933802E+02  0.35860685985E+02  0.10566000000E+00 0.  1.
        -14    1    4    4    0    0 -0.17535736517E+01 -0.38575841766E+01 -0.93334436189E+01  0.10250324191E+02  0.00000000000E+00 0.  1.
<mgrwt>
<rscale>  0 0.83659138E+02</rscale>
<asrwt>0</asrwt>
<pdfrwt beam="1">  1        2 0.22198183E-02 0.83659138E+02</pdfrwt>
<pdfrwt beam="2">  1       -1 0.18656177E-01 0.83659138E+02</pdfrwt>
<totfact> 0.10150565E+05</totfact>
</mgrwt>
</event>
<event>
 8    1  0.2676873E-020  0.7772356E+02  0.7818608E-02  0.1335639E+00
          2   -1    0    0  501    0  0.00000000000E+00  0.00000000000E+00  0.18662009177E+04  0.18662009177E+04  0.25500000000E-02 0. -1.
         -1   -1    0    0    0  501 -0.00000000000E+00 -0.00000000000E+00 -0.80925016951E+00  0.80926586389E+00  0.50400000000E-02 0.  1.
         24    2    1    2    0    0  0.00000000000E+00  0.17763568394E-14  0.18653916676E+04  0.18670101836E+04  0.77723563002E+02 0.  0.
         66    2    3    3    0    0 -0.10110229322E+02  0.11730687407E+02  0.17888182930E+04  0.17888864445E+04  0.19999916364E+01 0.  0.
        -13    1    3    3    0    0  0.10110229322E+02 -0.11730687407E+02  0.76573374556E+02  0.78123739151E+02  0.10566000000E+00 0.  1.
         13    1    4    4    0    0 -0.27775271882E+01  0.25472193097E+01  0.47762032175E+03  0.47763520169E+03  0.10566000000E+00 0. -1.
        -13    1    4    4    0    0 -0.26602458244E+01  0.31282053402E+01  0.39556919442E+03  0.39559052227E+03  0.10566000000E+00 0.  1.
        -14    1    4    4    0    0 -0.46724563093E+01  0.60552627575E+01  0.91562877685E+03  0.91566072050E+03  0.00000000000E+00 0.  1.
<mgrwt>
<rscale>  0 0.77723563E+02</rscale>
<asrwt>0</asrwt>
<pdfrwt beam="1">  1        2 0.28710960E+00 0.77723563E+02</pdfrwt>
<pdfrwt beam="2">  1       -1 0.12450047E-03 0.77723563E+02</pdfrwt>
<totfact> 0.31729892E+05</totfact>
</mgrwt>
</event>
<event>
 8    1  0.2676873E-020  0.8295660E+02  0.7818608E-02  0.1320864E+00
         -1   -1    0    0    0  501 -0.00000000000E+00  0.00000000000E+00  0.84494509376E+02  0.84494509527E+02  0.50400000000E-02 0.  1.
          2   -1    0    0  501    0  0.00000000000E+00 -0.00000000000E+00 -0.20361668609E+02  0.20361668769E+02  0.25500000000E-02 0. -1.
         24    2    1    2    0    0 -0.35527136788E-14 -0.71054273576E-14  0.64132840767E+02  0.10485617830E+03  0.82956596253E+02 0.  0.
         66    2    3    3    0    0  0.17154755086E+02  0.37465002159E+02  0.37812451233E+02  0.55961535664E+02  0.19999991890E+01 0.  0.
        -13    1    3    3    0    0 -0.17154755086E+02 -0.37465002159E+02  0.26320389534E+02  0.48894642632E+02  0.10566000000E+00 0.  1.
         13    1    4    4    0    0  0.54561819500E+01  0.12355354323E+02  0.11301619896E+02  0.17611430328E+02  0.10566000000E+00 0. -1.
        -13    1    4    4    0    0  0.10773538830E+02  0.23492222967E+02  0.24588077159E+02  0.35672655932E+02  0.10566000000E+00 0.  1.
         14    1    4    4    0    0  0.92503430642E+00  0.16174248697E+01  0.19227541784E+01  0.26774494034E+01  0.00000000000E+00 0. -1.
<mgrwt>
<rscale>  0 0.82956596E+02</rscale>
<asrwt>0</asrwt>
<pdfrwt beam="1">  1        2 0.31325644E-02 0.82956596E+02</pdfrwt>
<pdfrwt beam="2">  1       -1 0.12999155E-01 0.82956596E+02</pdfrwt>
<totfact> 0.11224377E+05</totfact>
</mgrwt>
</event>
<event>
 8    1  0.2676873E-020  0.7823295E+02  0.7818608E-02  0.1334142E+00
         -1   -1    0    0    0  501 -0.00000000000E+00  0.00000000000E+00  0.88243517841E+01  0.88243532233E+01  0.50400000000E-02 0.  1.
          2   -1    0    0  501    0  0.00000000000E+00 -0.00000000000E+00 -0.17339498726E+03  0.17339498728E+03  0.25500000000E-02 0. -1.
         24    2    1    2    0    0 -0.11102230246E-15 -0.35527136788E-14 -0.16457063548E+03  0.18221934050E+03  0.78232946973E+02 0.  0.
         66    2    3    3    0    0  0.82700185294E+00  0.17028072188E+02 -0.16427393090E+03  0.16516828857E+03  0.20000001565E+01 0.  0.
        -13    1    3    3    0    0 -0.82700185294E+00 -0.17028072188E+02 -0.29670457822E+00  0.17051051936E+02  0.10566000000E+00 0.  1.
         13    1    4    4    0    0  0.12948239268E+01  0.13193269574E+02 -0.12609572888E+03  0.12679070525E+03  0.10566000000E+00 0. -1.
        -13    1    4    4    0    0 -0.31100218010E+00  0.28031180594E+01 -0.30159188796E+02  0.30290956177E+02  0.10566000000E+00 0.  1.
         14    1    4    4    0    0 -0.15681989372E+00  0.10316845543E+01 -0.80190132225E+01  0.80866271437E+01  0.00000000000E+00 0. -1.
<mgrwt>
<rscale>  0 0.78232947E+02</rscale>
<asrwt>0</asrwt>
<pdfrwt beam="1">  1        2 0.26676149E-01 0.78232947E+02</pdfrwt>
<pdfrwt beam="2">  1       -1 0.13575928E-02 0.78232947E+02</pdfrwt>
<totfact> 0.22285065E+05</totfact>
</mgrwt>
</event>
<event>
 8    1  0.2676873E-020  0.8043722E+02  0.7818608E-02  0.1327815E+00
         -1   -1    0    0    0  501 -0.00000000000E+00  0.00000000000E+00  0.74885321351E+01  0.74885338312E+01  0.50400000000E-02 0.  1.
          2   -1    0    0  501    0  0.00000000000E+00 -0.00000000000E+00 -0.21600177627E+03  0.21600177628E+03  0.25500000000E-02 0. -1.
         24    2    1    2    0    0  0.71054273576E-14  0.44408920985E-15 -0.20851324413E+03  0.22349031012E+03  0.80437216114E+02 0.  0.
         66    2    3    3    0    0 -0.36562985462E+02 -0.29375702597E+01 -0.14997963934E+03  0.15441299633E+03  0.19999989326E+01 0.  0.
        -13    1    3    3    0    0  0.36562985462E+02  0.29375702597E+01 -0.58533604795E+02  0.69077313782E+02  0.10566000000E+00 0.  1.
         13    1    4    4    0    0 -0.32910949539E+02 -0.28282400538E+01 -0.13557477925E+03  0.13954089534E+03  0.10566000000E+00 0. -1.
        -13    1    4    4    0    0 -0.10863271044E+01 -0.20694658316E+00 -0.36695480019E+01  0.38340161763E+01  0.10566000000E+00 0.  1.
        -14    1    4    4    0    0 -0.25657088187E+01  0.97616377266E-01 -0.10735312090E+02  0.11038084815E+02  0.00000000000E+00 0.  1.
<mgrwt>
<rscale>  0 0.80437216E+02</rscale>
<asrwt>0</asrwt>
<pdfrwt beam="1">  1        2 0.33231038E-01 0.80437216E+02</pdfrwt>
<pdfrwt beam="2">  1       -1 0.11520822E-02 0.80437216E+02</pdfrwt>
<totfact> 0.22337060E+05</totfact>
</mgrwt>
</event>
<event>
 8    1  0.2676873E-020  0.7908404E+02  0.7818608E-02  0.1331671E+00
         -1   -1    0    0    0  501 -0.00000000000E+00  0.00000000000E+00  0.72606292444E+02  0.72606292619E+02  0.50400000000E-02 0.  1.
          2   -1    0    0  501    0  0.00000000000E+00 -0.00000000000E+00 -0.21534931086E+02  0.21534931237E+02  0.25500000000E-02 0. -1.
         24    2    1    2    0    0 -0.35527136788E-14  0.10658141036E-13  0.51071361358E+02  0.94141223855E+02  0.79084044396E+02 0.  0.
         66    2    3    3    0    0 -0.14932837680E+02  0.21884095239E+02 -0.93504237507E+01  0.28166178987E+02  0.19999872008E+01 0.  0.
        -13    1    3    3    0    0  0.14932837680E+02 -0.21884095239E+02  0.60421785109E+02  0.65975044868E+02  0.10566000000E+00 0.  1.
         13    1    4    4    0    0 -0.26259187429E+01  0.36548056824E+01 -0.21723480213E+01  0.49983310996E+01  0.10566000000E+00 0. -1.
        -13    1    4    4    0    0 -0.10924111320E+01  0.21813943603E+01 -0.60394033802E+00  0.25155022170E+01  0.10566000000E+00 0.  1.
         14    1    4    4    0    0 -0.11214507805E+02  0.16047895196E+02 -0.65741353915E+01  0.20652345670E+02  0.00000000000E+00 0. -1.
<mgrwt>
<rscale>  0 0.79084044E+02</rscale>
<asrwt>0</asrwt>
<pdfrwt beam="1">  1        2 0.33130663E-02 0.79084044E+02</pdfrwt>
<pdfrwt beam="2">  1       -1 0.11170199E-01 0.79084044E+02</pdfrwt>
<totfact> 0.13022873E+05</totfact>
</mgrwt>
</event>
<event>
 8    1  0.2676873E-020  0.8194883E+02  0.7818608E-02  0.1323610E+00
         -1   -1    0    0    0  501 -0.00000000000E+00  0.00000000000E+00  0.25992185634E+01  0.25992234498E+01  0.50400000000E-02 0.  1.
          2   -1    0    0  501    0  0.00000000000E+00 -0.00000000000E+00 -0.64592533350E+03  0.64592533351E+03  0.25500000000E-02 0. -1.
         24    2    1    2    0    0  0.00000000000E+00 -0.88817841970E-15 -0.64332611494E+03  0.64852455696E+03  0.81948830462E+02 0.  0.
         66    2    3    3    0    0  0.23280682530E+02 -0.44768696560E+01 -0.58609185068E+03  0.58657453912E+03  0.19999918338E+01 0.  0.
        -13    1    3    3    0    0 -0.23280682530E+02  0.44768696560E+01 -0.57234264264E+02  0.61950017844E+02  0.10566000000E+00 0.  1.
         13    1    4    4    0    0  0.12701143118E+02 -0.20882617880E+01 -0.30164991790E+03  0.30192443426E+03  0.10566000000E+00 0. -1.
        -13    1    4    4    0    0  0.76942678340E+01 -0.16981381605E+01 -0.19567214226E+03  0.19583075307E+03  0.10566000000E+00 0.  1.
         14    1    4    4    0    0  0.28852715780E+01 -0.69046970754E+00 -0.88769790525E+02  0.88819351778E+02  0.00000000000E+00 0. -1.
<mgrwt>
<rscale>  0 0.81948830E+02</rscale>
<asrwt>0</asrwt>
<pdfrwt beam="1">  1        2 0.99373000E-01 0.81948830E+02</pdfrwt>
<pdfrwt beam="2">  1       -1 0.39988067E-03 0.81948830E+02</pdfrwt>
<totfact> 0.30811773E+05</totfact>
</mgrwt>
</event>
<event>
 8    1  0.2676873E-020  0.8156273E+02  0.7818608E-02  0.1324674E+00
          2   -1    0    0  501    0  0.00000000000E+00  0.00000000000E+00  0.19300941506E+03  0.19300941508E+03  0.25500000000E-02 0. -1.
         -1   -1    0    0    0  501 -0.00000000000E+00 -0.00000000000E+00 -0.86167796615E+01  0.86167811355E+01  0.50400000000E-02 0.  1.
         24    2    1    2    0    0 -0.35527136788E-14  0.35527136788E-14  0.18439263540E+03  0.20162619622E+03  0.81562730521E+02 0.  0.
         66    2    3    3    0    0 -0.27417776152E+02  0.29335756595E+02  0.10951940221E+03  0.11666542128E+03  0.19999997801E+01 0.  0.
        -13    1    3    3    0    0  0.27417776152E+02 -0.29335756595E+02  0.74873233192E+02  0.84960774930E+02  0.10566000000E+00 0.  1.
         13    1    4    4    0    0 -0.15045818269E+01  0.21012258926E+01  0.72361325317E+01  0.76845100545E+01  0.10566000000E+00 0. -1.
        -13    1    4    4    0    0 -0.13359034803E+02  0.14848043621E+02  0.55333349964E+02  0.58827875982E+02  0.10566000000E+00 0.  1.
        -14    1    4    4    0    0 -0.12554159522E+02  0.12386487081E+02  0.46949919713E+02  0.50153035248E+02  0.00000000000E+00 0.  1.
<mgrwt>
<rscale>  0 0.81562731E+02</rscale>
<asrwt>0</asrwt>
<pdfrwt beam="1">  1        2 0.29693755E-01 0.81562731E+02</pdfrwt>
<pdfrwt beam="2">  1       -1 0.13256586E-02 0.81562731E+02</pdfrwt>
<totfact> 0.20702562E+05</totfact>
</mgrwt>
</event>
<event>
 8    1  0.2676873E-020  0.7978861E+02  0.7818608E-02  0.1329652E+00
          2   -1    0    0  501    0  0.00000000000E+00  0.00000000000E+00  0.36678756456E+03  0.36678756457E+03  0.25500000000E-02 0. -1.
         -1   -1    0    0    0  501 -0.00000000000E+00 -0.00000000000E+00 -0.43391743944E+01  0.43391773214E+01  0.50400000000E-02 0.  1.
         24    2    1    2    0    0  0.00000000000E+00 -0.17763568394E-14  0.36244839017E+03  0.37112674189E+03  0.79788614555E+02 0.  0.
         66    2    3    3    0    0  0.44034009419E+01 -0.94659210802E+01  0.36031338140E+03  0.36047014637E+03  0.20000013640E+01 0.  0.
        -13    1    3    3    0    0 -0.44034009419E+01  0.94659210802E+01  0.21350087718E+01  0.10656595528E+02  0.10566000000E+00 0.  1.
         13    1    4    4    0    0  0.16696371339E+00 -0.26571420657E+00  0.19914877676E+02  0.19917630326E+02  0.10566000000E+00 0. -1.
        -13    1    4    4    0    0  0.17283651898E+01 -0.22611143544E+01  0.86912963329E+02  0.86959612712E+02  0.10566000000E+00 0.  1.
        -14    1    4    4    0    0  0.25080720387E+01 -0.69390925192E+01  0.25348554039E+03  0.25359290333E+03  0.00000000000E+00 0.  1.
<mgrwt>
<rscale>  0 0.79788615E+02</rscale>
<asrwt>0</asrwt>
<pdfrwt beam="1">  1        2 0.56428861E-01 0.79788615E+02</pdfrwt>
<pdfrwt beam="2">  1       -1 0.66756546E-03 0.79788615E+02</pdfrwt>
<totfact> 0.27592707E+05</totfact>
</mgrwt>
</event>
<event>
 8    1  0.2676873E-020  0.8092540E+02  0.7818608E-02  0.1326446E+00
          2   -1    0    0  501    0  0.00000000000E+00  0.00000000000E+00  0.24589421290E+02  0.24589421422E+02  0.25500000000E-02 0. -1.
         -1   -1    0    0    0  501 -0.00000000000E+00 -0.00000000000E+00 -0.66582706074E+02  0.66582706265E+02  0.50400000000E-02 0.  1.
         24    2    1    2    0    0 -0.17763568394E-14  0.35527136788E-14 -0.41993284784E+02  0.91172127687E+02  0.80925403304E+02 0.  0.
         66    2    3    3    0    0  0.14364268266E+02 -0.27737759395E+02  0.79231932670E+01  0.32287652279E+02  0.19999997666E+01 0.  0.
        -13    1    3    3    0    0 -0.14364268266E+02  0.27737759395E+02 -0.49916478051E+02  0.58884475408E+02  0.10566000000E+00 0.  1.
         13    1    4    4    0    0  0.69128754204E+01 -0.13833355856E+02  0.41295423836E+01  0.16006681891E+02  0.10566000000E+00 0. -1.
        -13    1    4    4    0    0  0.22496977291E+01 -0.50263035482E+01  0.80738846916E+00  0.55666783100E+01  0.10566000000E+00 0.  1.
        -14    1    4    4    0    0  0.52016951160E+01 -0.88780999905E+01  0.29862624142E+01  0.10714292078E+02  0.00000000000E+00 0.  1.
<mgrwt>
<rscale>  0 0.80925403E+02</rscale>
<asrwt>0</asrwt>
<pdfrwt beam="1">  1        2 0.37829879E-02 0.80925403E+02</pdfrwt>
<pdfrwt beam="2">  1       -1 0.10243493E-01 0.80925403E+02</pdfrwt>
<totfact> 0.12522603E+05</totfact>
</mgrwt>
</event>
<event>
 8    1  0.2676873E-020  0.7811765E+02  0.7818608E-02  0.1334480E+00
         -1   -1    0    0    0  501 -0.00000000000E+00  0.00000000000E+00  0.48298012009E+01  0.48298038306E+01  0.50400000000E-02 0.  1.
          2   -1    0    0  501    0  0.00000000000E+00 -0.00000000000E+00 -0.31587041669E+03  0.31587041671E+03  0.25500000000E-02 0. -1.
         24    2    1    2    0    0 -0.17763568394E-14  0.00000000000E+00 -0.31104061549E+03  0.32070022054E+03  0.78117648229E+02 0.  0.
         66    2    3    3    0    0 -0.91514631472E+01 -0.11445957309E+02 -0.30414414581E+03  0.30450356426E+03  0.19999999893E+01 0.  0.
        -13    1    3    3    0    0  0.91514631472E+01  0.11445957309E+02 -0.68964696874E+01  0.16196656279E+02  0.10566000000E+00 0.  1.
         13    1    4    4    0    0 -0.51765564513E+00 -0.32571227566E+00 -0.16649378626E+02  0.16660943206E+02  0.10566000000E+00 0. -1.
        -13    1    4    4    0    0 -0.46462376697E+01 -0.51150158303E+01 -0.14965913548E+03  0.14981862003E+03  0.10566000000E+00 0.  1.
         14    1    4    4    0    0 -0.39875698324E+01 -0.60052292029E+01 -0.13783563170E+03  0.13802400102E+03  0.00000000000E+00 0. -1.
<mgrwt>
<rscale>  0 0.78117648E+02</rscale>
<asrwt>0</asrwt>
<pdfrwt beam="1">  1        2 0.48595433E-01 0.78117648E+02</pdfrwt>
<pdfrwt beam="2">  1       -1 0.74304679E-03 0.78117648E+02</pdfrwt>
<totfact> 0.27644114E+05</totfact>
</mgrwt>
</event>
<event>
 8    1  0.2676873E-020  0.7898630E+02  0.7818608E-02  0.1331953E+00
          2   -1    0    0  501    0  0.00000000000E+00  0.00000000000E+00  0.28112265533E+02  0.28112265649E+02  0.25500000000E-02 0. -1.
         -1   -1    0    0    0  501 -0.00000000000E+00 -0.00000000000E+00 -0.55481435464E+02  0.55481435693E+02  0.50400000000E-02 0.  1.
         24    2    1    2    0    0  0.00000000000E+00 -0.88817841970E-15 -0.27369169931E+02  0.83593701342E+02  0.78986299073E+02 0.  0.
         66    2    3    3    0    0 -0.33646109370E+02  0.71319341801E+01  0.67951236127E+01  0.35115507499E+02  0.20000002875E+01 0.  0.
        -13    1    3    3    0    0  0.33646109370E+02 -0.71319341801E+01 -0.34164293543E+02  0.48478193842E+02  0.10566000000E+00 0.  1.
         13    1    4    4    0    0 -0.15719207932E+02  0.28891273992E+01  0.36551969613E+01  0.16395492795E+02  0.10566000000E+00 0. -1.
        -13    1    4    4    0    0 -0.27915102775E+00  0.91038976027E-01 -0.36946617137E-01  0.31423316115E+00  0.10566000000E+00 0.  1.
        -14    1    4    4    0    0 -0.17647750410E+02  0.41517678048E+01  0.31768732685E+01  0.18405781543E+02  0.00000000000E+00 0.  1.
<mgrwt>
<rscale>  0 0.78986299E+02</rscale>
<asrwt>0</asrwt>
<pdfrwt beam="1">  1        2 0.43249639E-02 0.78986299E+02</pdfrwt>
<pdfrwt beam="2">  1       -1 0.85356055E-02 0.78986299E+02</pdfrwt>
<totfact> 0.13768541E+05</totfact>
</mgrwt>
</event>
<event>
 8    1  0.2676873E-020  0.8062332E+02  0.7818608E-02  0.1327292E+00
         -1   -1    0    0    0  501 -0.00000000000E+00  0.00000000000E+00  0.28956559799E+02  0.28956560237E+02  0.50400000000E-02 0.  1.
          2   -1    0    0  501    0  0.00000000000E+00 -0.00000000000E+00 -0.56119571948E+02  0.56119572006E+02  0.25500000000E-02 0. -1.
         24    2    1    2    0    0  0.00000000000E+00 -0.35527136788E-14 -0.27163012149E+02  0.85076132243E+02  0.80623315787E+02 0.  0.
         66    2    3    3    0    0  0.19336684446E+02 -0.21445470002E+02 -0.43234274543E+02  0.52029011523E+02  0.19999989474E+01 0.  0.
        -13    1    3    3    0    0 -0.19336684446E+02  0.21445470002E+02  0.16071262394E+02  0.33047120721E+02  0.10566000000E+00 0.  1.
         13    1    4    4    0    0  0.73511996051E+01 -0.86600732800E+01 -0.17515972868E+02  0.20877199870E+02  0.10566000000E+00 0. -1.
        -13    1    4    4    0    0  0.26984839370E+01 -0.22105154929E+01 -0.56308687525E+01  0.66246540472E+01  0.10566000000E+00 0.  1.
        -14    1    4    4    0    0  0.92870009038E+01 -0.10574881229E+02 -0.20087432922E+02  0.24527157605E+02  0.00000000000E+00 0.  1.
<mgrwt>
<rscale>  0 0.80623316E+02</rscale>
<asrwt>0</asrwt>
<pdfrwt beam="1">  1        2 0.86337803E-02 0.80623316E+02</pdfrwt>
<pdfrwt beam="2">  1       -1 0.44548554E-02 0.80623316E+02</pdfrwt>
<totfact> 0.15009044E+05</totfact>
</mgrwt>
</event>
<event>
 8    1  0.2676873E-020  0.7953637E+02  0.7818608E-02  0.1330372E+00
         -1   -1    0    0    0  501 -0.00000000000E+00  0.00000000000E+00  0.13588315563E+02  0.13588316498E+02  0.50400000000E-02 0.  1.
          2   -1    0    0  501    0  0.00000000000E+00 -0.00000000000E+00 -0.11638739045E+03  0.11638739048E+03  0.25500000000E-02 0. -1.
         24    2    1    2    0    0  0.00000000000E+00 -0.35527136788E-14 -0.10279907489E+03  0.12997570698E+03  0.79536372851E+02 0.  0.
         66    2    3    3    0    0  0.32924255828E+02  0.17017560275E+02 -0.27982949128E+02  0.46482786215E+02  0.19999982262E+01 0.  0.
        -13    1    3    3    0    0 -0.32924255828E+02 -0.17017560275E+02 -0.74816125760E+02  0.83492920761E+02  0.10566000000E+00 0.  1.
         13    1    4    4    0    0  0.16312185062E+02  0.82104280289E+01 -0.13321387406E+02  0.22604624225E+02  0.10566000000E+00 0. -1.
        -13    1    4    4    0    0  0.10898990266E+02  0.64526566423E+01 -0.97206073464E+01  0.15966406539E+02  0.10566000000E+00 0.  1.
        -14    1    4    4    0    0  0.57130805005E+01  0.23544756035E+01 -0.49409543761E+01  0.79117554512E+01  0.00000000000E+00 0.  1.
<mgrwt>
<rscale>  0 0.79536373E+02</rscale>
<asrwt>0</asrwt>
<pdfrwt beam="1">  1        2 0.17905752E-01 0.79536373E+02</pdfrwt>
<pdfrwt beam="2">  1       -1 0.20905102E-02 0.79536373E+02</pdfrwt>
<totfact> 0.18806774E+05</totfact>
</mgrwt>
</event>
<event>
 8    1  0.2676873E-020  0.7890891E+02  0.7818608E-02  0.1332177E+00
          2   -1    0    0  501    0  0.00000000000E+00  0.00000000000E+00  0.63422040643E+03  0.63422040644E+03  0.25500000000E-02 0. -1.
         -1   -1    0    0    0  501 -0.00000000000E+00 -0.00000000000E+00 -0.24544343498E+01  0.24544395244E+01  0.50400000000E-02 0.  1.
         24    2    1    2    0    0  0.00000000000E+00 -0.35527136788E-14  0.63176597208E+03  0.63667484596E+03  0.78908909505E+02 0.  0.
         66    2    3    3    0    0  0.19643202036E+02  0.17730170034E+02  0.55193274749E+03  0.55257033224E+03  0.20000009442E+01 0.  0.
        -13    1    3    3    0    0 -0.19643202036E+02 -0.17730170034E+02  0.79833224598E+02  0.84104513728E+02  0.10566000000E+00 0.  1.
         13    1    4    4    0    0  0.10888586256E+02  0.87184031554E+01  0.29396871147E+03  0.29429948412E+03  0.10566000000E+00 0. -1.
        -13    1    4    4    0    0  0.54447137355E+01  0.60955206622E+01  0.16778683665E+03  0.16798581487E+03  0.10566000000E+00 0.  1.
        -14    1    4    4    0    0  0.33099020441E+01  0.29162462164E+01  0.90177199363E+02  0.90285033247E+02  0.00000000000E+00 0.  1.
<mgrwt>
<rscale>  0 0.78908910E+02</rscale>
<asrwt>0</asrwt>
<pdfrwt beam="1">  1        2 0.97572234E-01 0.78908910E+02</pdfrwt>
<pdfrwt beam="2">  1       -1 0.37760621E-03 0.78908910E+02</pdfrwt>
<totfact> 0.33835938E+05</totfact>
</mgrwt>
</event>
<event>
 8    1  0.2676873E-020  0.7904713E+02  0.7818608E-02  0.1331777E+00
          2   -1    0    0  501    0  0.00000000000E+00  0.00000000000E+00  0.63258616853E+03  0.63258616854E+03  0.25500000000E-02 0. -1.
         -1   -1    0    0    0  501 -0.00000000000E+00 -0.00000000000E+00 -0.24694038805E+01  0.24694090238E+01  0.50400000000E-02 0.  1.
         24    2    1    2    0    0  0.00000000000E+00  0.35527136788E-14  0.63011676465E+03  0.63505557756E+03  0.79047134650E+02 0.  0.
         66    2    3    3    0    0  0.19576268660E+02  0.26497274699E+02  0.49031186052E+03  0.49142146516E+03  0.19999987647E+01 0.  0.
        -13    1    3    3    0    0 -0.19576268660E+02 -0.26497274699E+02  0.13980490413E+03  0.14363411240E+03  0.10566000000E+00 0.  1.
         13    1    4    4    0    0  0.88468627106E+01  0.10403198972E+02  0.20269736347E+03  0.20315689959E+03  0.10566000000E+00 0. -1.
        -13    1    4    4    0    0  0.50859577681E+01  0.78947009220E+01  0.14211563047E+03  0.14242561868E+03  0.10566000000E+00 0.  1.
         14    1    4    4    0    0  0.56434481816E+01  0.81993748045E+01  0.14549886658E+03  0.14583894689E+03  0.00000000000E+00 0. -1.
<mgrwt>
<rscale>  0 0.79047135E+02</rscale>
<asrwt>0</asrwt>
<pdfrwt beam="1">  1        2 0.97321122E-01 0.79047135E+02</pdfrwt>
<pdfrwt beam="2">  1       -1 0.37990801E-03 0.79047135E+02</pdfrwt>
<totfact> 0.33659691E+05</totfact>
</mgrwt>
</event>
<event>
 8    1  0.2676873E-020  0.7727993E+02  0.7818608E-02  0.1336953E+00
         -1   -1    0    0    0  501 -0.00000000000E+00  0.00000000000E+00  0.97322919439E+01  0.97322932489E+01  0.50400000000E-02 0.  1.
          2   -1    0    0  501    0  0.00000000000E+00 -0.00000000000E+00 -0.15341164395E+03  0.15341164397E+03  0.25500000000E-02 0. -1.
         24    2    1    2    0    0  0.00000000000E+00 -0.17763568394E-14 -0.14367935201E+03  0.16314393722E+03  0.77279933092E+02 0.  0.
         66    2    3    3    0    0 -0.21199731236E+01  0.12593820364E+02 -0.14881735110E+03  0.14937771784E+03  0.20000003519E+01 0.  0.
        -13    1    3    3    0    0  0.21199731236E+01 -0.12593820364E+02  0.51379990906E+01  0.13766219383E+02  0.10566000000E+00 0.  1.
         13    1    4    4    0    0 -0.57313665548E+00  0.35425725034E+01 -0.44686953496E+02  0.44830941127E+02  0.10566000000E+00 0. -1.
        -13    1    4    4    0    0 -0.16255469285E+01  0.79254524425E+01 -0.85409371346E+02  0.85791765788E+02  0.10566000000E+00 0.  1.
        -14    1    4    4    0    0  0.78710460411E-01  0.11257954181E+01 -0.18721026254E+02  0.18755010922E+02  0.00000000000E+00 0.  1.
<mgrwt>
<rscale>  0 0.77279933E+02</rscale>
<asrwt>0</asrwt>
<pdfrwt beam="1">  1        2 0.23601790E-01 0.77279933E+02</pdfrwt>
<pdfrwt beam="2">  1       -1 0.14972759E-02 0.77279933E+02</pdfrwt>
<totfact> 0.22111068E+05</totfact>
</mgrwt>
</event>
<event>
 8    1  0.2676873E-020  0.8816070E+02  0.7818608E-02  0.1307368E+00
          2   -1    0    0  501    0  0.00000000000E+00  0.00000000000E+00  0.38532336994E+03  0.38532336995E+03  0.25500000000E-02 0. -1.
         -1   -1    0    0    0  501 -0.00000000000E+00 -0.00000000000E+00 -0.50427165840E+01  0.50427191026E+01  0.50400000000E-02 0.  1.
         24    2    1    2    0    0  0.71054273576E-14  0.71054273576E-14  0.38028065335E+03  0.39036608905E+03  0.88160695121E+02 0.  0.
         66    2    3    3    0    0 -0.35563620594E+02 -0.25103250537E+02  0.22031098499E+03  0.22457932765E+03  0.19999999357E+01 0.  0.
        -13    1    3    3    0    0  0.35563620594E+02  0.25103250537E+02  0.15996966836E+03  0.16578676140E+03  0.10566000000E+00 0.  1.
         13    1    4    4    0    0 -0.23277413138E+02 -0.16139624020E+02  0.14628518260E+03  0.14900231957E+03  0.10566000000E+00 0. -1.
        -13    1    4    4    0    0 -0.94086761064E+01 -0.72691591635E+01  0.57050560472E+02  0.58276422979E+02  0.10566000000E+00 0.  1.
        -14    1    4    4    0    0 -0.28775313495E+01 -0.16944673533E+01  0.16975241922E+02  0.17300585094E+02  0.00000000000E+00 0.  1.
<mgrwt>
<rscale>  0 0.88160695E+02</rscale>
<asrwt>0</asrwt>
<pdfrwt beam="1">  1        2 0.59280527E-01 0.88160695E+02</pdfrwt>
<pdfrwt beam="2">  1       -1 0.77580263E-03 0.88160695E+02</pdfrwt>
<totfact> 0.21607233E+05</totfact>
</mgrwt>
</event>
<event>
 8    1  0.2676873E-020  0.8142979E+02  0.7818608E-02  0.1325042E+00
         -1   -1    0    0    0  501 -0.00000000000E+00  0.00000000000E+00  0.26295386713E+01  0.26295435013E+01  0.50400000000E-02 0.  1.
          2   -1    0    0  501    0  0.00000000000E+00 -0.00000000000E+00 -0.63041526509E+03  0.63041526510E+03  0.25500000000E-02 0. -1.
         24    2    1    2    0    0  0.00000000000E+00  0.35527136788E-14 -0.62778572642E+03  0.63304480860E+03  0.81429794276E+02 0.  0.
         66    2    3    3    0    0  0.96990088920E+01 -0.19917138700E+02 -0.57942118569E+03  0.57984797456E+03  0.19999971486E+01 0.  0.
        -13    1    3    3    0    0 -0.96990088920E+01  0.19917138700E+02 -0.48364540732E+02  0.53196834039E+02  0.10566000000E+00 0.  1.
         13    1    4    4    0    0  0.55008976166E+01 -0.10416773293E+02 -0.29338244600E+03  0.29361886831E+03  0.10566000000E+00 0.  1.
        -13    1    4    4    0    0  0.19451138574E+01 -0.41456356798E+01 -0.11270381452E+03  0.11279685605E+03  0.10566000000E+00 0. -1.
        -14    1    4    4    0    0  0.22529974180E+01 -0.53547297275E+01 -0.17333492517E+03  0.17343225020E+03  0.00000000000E+00 0.  1.
<mgrwt>
<rscale>  0 0.81429794E+02</rscale>
<asrwt>0</asrwt>
<pdfrwt beam="1">  1        2 0.96986844E-01 0.81429794E+02</pdfrwt>
<pdfrwt beam="2">  1       -1 0.40454529E-03 0.81429794E+02</pdfrwt>
<totfact> 0.31128532E+05</totfact>
</mgrwt>
</event>
<event>
 8    1  0.2676873E-020  0.7638963E+02  0.7818608E-02  0.1339621E+00
          2   -1    0    0  501    0  0.00000000000E+00  0.00000000000E+00  0.76697619276E+03  0.76697619277E+03  0.25500000000E-02 0. -1.
         -1   -1    0    0    0  501 -0.00000000000E+00 -0.00000000000E+00 -0.19020684619E+01  0.19020751392E+01  0.50400000000E-02 0.  1.
         24    2    1    2    0    0  0.00000000000E+00  0.00000000000E+00  0.76507412430E+03  0.76887826791E+03  0.76389627462E+02 0.  0.
         66    2    3    3    0    0 -0.86013182543E+01 -0.16901846989E+02  0.71619646870E+03  0.71645030315E+03  0.19999997298E+01 0.  0.
        -13    1    3    3    0    0  0.86013182543E+01  0.16901846989E+02  0.48877655602E+02  0.52427964757E+02  0.10566000000E+00 0.  1.
         13    1    4    4    0    0 -0.23774979260E+01 -0.39524134705E+01  0.19576946338E+03  0.19582381884E+03  0.10566000000E+00 0. -1.
        -13    1    4    4    0    0 -0.25572558959E+01 -0.45664802569E+01  0.17456879992E+03  0.17464727129E+03  0.10566000000E+00 0.  1.
        -14    1    4    4    0    0 -0.36665644323E+01 -0.83829532616E+01  0.34585820540E+03  0.34597921302E+03  0.00000000000E+00 0.  1.
<mgrwt>
<rscale>  0 0.76389627E+02</rscale>
<asrwt>0</asrwt>
<pdfrwt beam="1">  1        2 0.11799653E+00 0.76389627E+02</pdfrwt>
<pdfrwt beam="2">  1       -1 0.29262596E-03 0.76389627E+02</pdfrwt>
<totfact> 0.38439176E+05</totfact>
</mgrwt>
</event>
<event>
 8    1  0.2676873E-020  0.8001801E+02  0.7818608E-02  0.1329000E+00
          2   -1    0    0  501    0  0.00000000000E+00  0.00000000000E+00  0.95065879700E+03  0.95065879700E+03  0.25500000000E-02 0. -1.
         -1   -1    0    0    0  501 -0.00000000000E+00 -0.00000000000E+00 -0.16837976905E+01  0.16838052335E+01  0.50400000000E-02 0.  1.
         24    2    1    2    0    0  0.00000000000E+00  0.00000000000E+00  0.94897499931E+03  0.95234260224E+03  0.80018014977E+02 0.  0.
         66    2    3    3    0    0 -0.80936625180E+00 -0.10838293808E+02  0.93273844995E+03  0.93280391278E+03  0.20000006427E+01 0.  0.
        -13    1    3    3    0    0  0.80936625180E+00  0.10838293808E+02  0.16236549358E+02  0.19538689452E+02  0.10566000000E+00 0.  1.
         13    1    4    4    0    0  0.46410944880E-01 -0.89440366579E+00  0.86223322523E+02  0.86228038496E+02  0.10566000000E+00 0. -1.
        -13    1    4    4    0    0 -0.80862271371E+00 -0.27411490029E+01  0.19584152206E+03  0.19586240245E+03  0.10566000000E+00 0.  1.
        -14    1    4    4    0    0 -0.47154482967E-01 -0.72027411397E+01  0.65067360537E+03  0.65071347184E+03  0.00000000000E+00 0.  1.
<mgrwt>
<rscale>  0 0.80018015E+02</rscale>
<asrwt>0</asrwt>
<pdfrwt beam="1">  1        2 0.14625497E+00 0.80018015E+02</pdfrwt>
<pdfrwt beam="2">  1       -1 0.25904678E-03 0.80018015E+02</pdfrwt>
<totfact> 0.35105156E+05</totfact>
</mgrwt>
</event>
<event>
 8    1  0.2676873E-020  0.7958392E+02  0.7818608E-02  0.1330236E+00
         -1   -1    0    0    0  501 -0.00000000000E+00  0.00000000000E+00  0.64142954460E+01  0.64142974261E+01  0.50400000000E-02 0.  1.
          2   -1    0    0  501    0  0.00000000000E+00 -0.00000000000E+00 -0.24685482938E+03  0.24685482940E+03  0.25500000000E-02 0. -1.
         24    2    1    2    0    0  0.00000000000E+00 -0.35527136788E-14 -0.24044053394E+03  0.25326912682E+03  0.79583919490E+02 0.  0.
         66    2    3    3    0    0 -0.29891146850E+02  0.21909553203E+02 -0.74411114116E+02  0.83153611387E+02  0.20000002973E+01 0.  0.
        -13    1    3    3    0    0  0.29891146850E+02 -0.21909553203E+02 -0.16602941982E+03  0.17011551544E+03  0.10566000000E+00 0.  1.
         13    1    4    4    0    0 -0.82307339009E+01  0.54102079243E+01 -0.21261501489E+02  0.23432412166E+02  0.10566000000E+00 0. -1.
        -13    1    4    4    0    0 -0.13553412770E+02  0.10142005950E+02 -0.32527584682E+02  0.36668927059E+02  0.10566000000E+00 0.  1.
         14    1    4    4    0    0 -0.81070001794E+01  0.63573393289E+01 -0.20622027945E+02  0.23052272162E+02  0.00000000000E+00 0. -1.
<mgrwt>
<rscale>  0 0.79583919E+02</rscale>
<asrwt>0</asrwt>
<pdfrwt beam="1">  1        2 0.37977659E-01 0.79583919E+02</pdfrwt>
<pdfrwt beam="2">  1       -1 0.98681503E-03 0.79583919E+02</pdfrwt>
<totfact> 0.24088386E+05</totfact>
</mgrwt>
</event>
<event>
 8    1  0.2676873E-020  0.8014162E+02  0.7818608E-02  0.1328650E+00
          2   -1    0    0  501    0  0.00000000000E+00  0.00000000000E+00  0.14587229140E+03  0.14587229142E+03  0.25500000000E-02 0. -1.
         -1   -1    0    0    0  501 -0.00000000000E+00 -0.00000000000E+00 -0.11007367255E+02  0.11007368409E+02  0.50400000000E-02 0.  1.
         24    2    1    2    0    0  0.00000000000E+00  0.00000000000E+00  0.13486492414E+03  0.15687965983E+03  0.80141624043E+02 0.  0.
         66    2    3    3    0    0 -0.23776541204E+02  0.23816729614E+02  0.24986259729E+02  0.41962765604E+02  0.20000001813E+01 0.  0.
        -13    1    3    3    0    0  0.23776541204E+02 -0.23816729614E+02  0.10987866441E+03  0.11491689423E+03  0.10566000000E+00 0.  1.
         13    1    4    4    0    0 -0.12215706853E+02  0.11743548376E+02  0.12015636189E+02  0.20773085939E+02  0.10566000000E+00 0. -1.
        -13    1    4    4    0    0 -0.43997390256E+01  0.49173885627E+01  0.44714784269E+01  0.79714300554E+01  0.10566000000E+00 0.  1.
        -14    1    4    4    0    0 -0.71610953256E+01  0.71557926750E+01  0.84991451131E+01  0.13218249609E+02  0.00000000000E+00 0.  1.
<mgrwt>
<rscale>  0 0.80141624E+02</rscale>
<asrwt>0</asrwt>
<pdfrwt beam="1">  1        2 0.22441890E-01 0.80141624E+02</pdfrwt>
<pdfrwt beam="2">  1       -1 0.16934413E-02 0.80141624E+02</pdfrwt>
<totfact> 0.19758455E+05</totfact>
</mgrwt>
</event>
<event>
 8    1  0.2676873E-020  0.8206153E+02  0.7818608E-02  0.1323301E+00
          2   -1    0    0  501    0  0.00000000000E+00  0.00000000000E+00  0.25938127633E+02  0.25938127758E+02  0.25500000000E-02 0. -1.
         -1   -1    0    0    0  501 -0.00000000000E+00 -0.00000000000E+00 -0.64905367263E+02  0.64905367459E+02  0.50400000000E-02 0.  1.
         24    2    1    2    0    0  0.00000000000E+00  0.00000000000E+00 -0.38967239630E+02  0.90843495217E+02  0.82061530932E+02 0.  0.
         66    2    3    3    0    0  0.37670327874E+02  0.16197911771E+02 -0.19832347920E+02  0.45593288668E+02  0.19999999143E+01 0.  0.
        -13    1    3    3    0    0 -0.37670327874E+02 -0.16197911771E+02 -0.19134891710E+02  0.45250206549E+02  0.10566000000E+00 0.  1.
         13    1    4    4    0    0  0.13628524871E+02  0.54284683124E+01 -0.77296748299E+01  0.16582038336E+02  0.10566000000E+00 0.  1.
        -13    1    4    4    0    0  0.30790166257E+01  0.15677832677E+01 -0.19345699494E+01  0.39613145142E+01  0.10566000000E+00 0. -1.
         14    1    4    4    0    0  0.20962786378E+02  0.92016601913E+01 -0.10168103141E+02  0.25049935818E+02  0.00000000000E+00 0. -1.
<mgrwt>
<rscale>  0 0.82061531E+02</rscale>
<asrwt>0</asrwt>
<pdfrwt beam="1">  1        2 0.39904812E-02 0.82061531E+02</pdfrwt>
<pdfrwt beam="2">  1       -1 0.99854411E-02 0.82061531E+02</pdfrwt>
<totfact> 0.12166002E+05</totfact>
</mgrwt>
</event>
<event>
 8    1  0.2676873E-020  0.7765548E+02  0.7818608E-02  0.1335840E+00
          2   -1    0    0  501    0  0.00000000000E+00  0.00000000000E+00  0.10727338218E+04  0.10727338219E+04  0.25500000000E-02 0. -1.
         -1   -1    0    0    0  501 -0.00000000000E+00 -0.00000000000E+00 -0.14053704182E+01  0.14053794555E+01  0.50400000000E-02 0.  1.
         24    2    1    2    0    0  0.00000000000E+00 -0.88817841970E-15  0.10713284514E+04  0.10741392013E+04  0.77655475920E+02 0.  0.
         66    2    3    3    0    0 -0.26788971807E+02 -0.68253082671E+01  0.91263685983E+03  0.91305764974E+03  0.20000007355E+01 0.  0.
        -13    1    3    3    0    0  0.26788971807E+02  0.68253082671E+01  0.15869159160E+03  0.16108155156E+03  0.10566000000E+00 0.  1.
         13    1    4    4    0    0 -0.13303193948E+02 -0.35365580701E+01  0.44045933263E+03  0.44067438895E+03  0.10566000000E+00 0. -1.
        -13    1    4    4    0    0 -0.32876885246E+01 -0.13689392309E+01  0.12129669170E+03  0.12134900689E+03  0.10566000000E+00 0.  1.
         14    1    4    4    0    0 -0.10198089334E+02 -0.19198109661E+01  0.35088083549E+03  0.35103425391E+03  0.00000000000E+00 0. -1.
<mgrwt>
<rscale>  0 0.77655476E+02</rscale>
<asrwt>0</asrwt>
<pdfrwt beam="1">  1        2 0.16503587E+00 0.77655476E+02</pdfrwt>
<pdfrwt beam="2">  1       -1 0.21621167E-03 0.77655476E+02</pdfrwt>
<totfact> 0.38097732E+05</totfact>
</mgrwt>
</event>
<event>
 8    1  0.2676873E-020  0.8046906E+02  0.7818608E-02  0.1327726E+00
         -1   -1    0    0    0  501 -0.00000000000E+00  0.00000000000E+00  0.16797236073E+01  0.16797311686E+01  0.50400000000E-02 0.  1.
          2   -1    0    0  501    0  0.00000000000E+00 -0.00000000000E+00 -0.96373813291E+03  0.96373813291E+03  0.25500000000E-02 0. -1.
         24    2    1    2    0    0  0.00000000000E+00  0.00000000000E+00 -0.96205840930E+03  0.96541786408E+03  0.80469058517E+02 0.  0.
         66    2    3    3    0    0 -0.24425821994E+02  0.16905248402E+02 -0.80645322916E+03  0.80700261401E+03  0.19999988076E+01 0.  0.
        -13    1    3    3    0    0  0.24425821994E+02 -0.16905248402E+02 -0.15560518014E+03  0.15841525007E+03  0.10566000000E+00 0.  1.
         13    1    4    4    0    0 -0.18865782805E+02  0.12248467662E+02 -0.62209828752E+03  0.62250480578E+03  0.10566000000E+00 0. -1.
        -13    1    4    4    0    0 -0.31337366069E+01  0.27784592099E+01 -0.10821902559E+03  0.10830008682E+03  0.10566000000E+00 0.  1.
         14    1    4    4    0    0 -0.24263025825E+01  0.18783215305E+01 -0.76135916048E+02  0.76197721412E+02  0.00000000000E+00 0. -1.
<mgrwt>
<rscale>  0 0.80469059E+02</rscale>
<asrwt>0</asrwt>
<pdfrwt beam="1">  1        2 0.14826696E+00 0.80469059E+02</pdfrwt>
<pdfrwt beam="2">  1       -1 0.25842037E-03 0.80469059E+02</pdfrwt>
<totfact> 0.34630319E+05</totfact>
</mgrwt>
</event>
<event>
 8    1  0.2676873E-020  0.7596163E+02  0.7818608E-02  0.1340919E+00
         -1   -1    0    0    0  501 -0.00000000000E+00  0.00000000000E+00  0.26575105011E+02  0.26575105489E+02  0.50400000000E-02 0.  1.
          2   -1    0    0  501    0  0.00000000000E+00 -0.00000000000E+00 -0.54281719816E+02  0.54281719876E+02  0.25500000000E-02 0. -1.
         24    2    1    2    0    0 -0.35527136788E-14  0.00000000000E+00 -0.27706614805E+02  0.80856825365E+02  0.75961633106E+02 0.  0.
         66    2    3    3    0    0  0.26317449971E+02  0.18842920637E+02 -0.34961252415E+02  0.47685983320E+02  0.20000009019E+01 0.  0.
        -13    1    3    3    0    0 -0.26317449971E+02 -0.18842920637E+02  0.72546376097E+01  0.33170842045E+02  0.10566000000E+00 0.  1.
         13    1    4    4    0    0  0.49203258802E+01  0.34345301075E+01 -0.55608248151E+01  0.81816587858E+01  0.10566000000E+00 0. -1.
        -13    1    4    4    0    0  0.63725312421E+00  0.60696279660E+00 -0.88039309154E+00  0.12493003690E+01  0.10566000000E+00 0. -1.
         14    1    4    4    0    0  0.20759870967E+02  0.14801427733E+02 -0.28520034508E+02  0.38255024165E+02  0.00000000000E+00 0. -1.
<mgrwt>
<rscale>  0 0.75961633E+02</rscale>
<asrwt>0</asrwt>
<pdfrwt beam="1">  1        2 0.83510338E-02 0.75961633E+02</pdfrwt>
<pdfrwt beam="2">  1       -1 0.40884778E-02 0.75961633E+02</pdfrwt>
<totfact> 0.17519160E+05</totfact>
</mgrwt>
</event>
<event>
 8    1  0.2676873E-020  0.8214454E+02  0.7818608E-02  0.1323073E+00
         -1   -1    0    0    0  501 -0.00000000000E+00  0.00000000000E+00  0.28760637714E+02  0.28760638155E+02  0.50400000000E-02 0.  1.
          2   -1    0    0  501    0  0.00000000000E+00 -0.00000000000E+00 -0.58654170623E+02  0.58654170678E+02  0.25500000000E-02 0. -1.
         24    2    1    2    0    0  0.00000000000E+00  0.00000000000E+00 -0.29893532909E+02  0.87414808833E+02  0.82144540254E+02 0.  0.
         66    2    3    3    0    0  0.21699870034E+02 -0.32504050883E+02 -0.28311901509E+02  0.48300739686E+02  0.20000009694E+01 0.  0.
        -13    1    3    3    0    0 -0.21699870034E+02  0.32504050883E+02 -0.15816313997E+01  0.39114069147E+02  0.10566000000E+00 0.  1.
         13    1    4    4    0    0  0.49482537115E+01 -0.84600640505E+01 -0.67035686538E+01  0.11874632426E+02  0.10566000000E+00 0. -1.
        -13    1    4    4    0    0  0.36783029987E+01 -0.48890912990E+01 -0.40502593912E+01  0.73381804183E+01  0.10566000000E+00 0.  1.
        -14    1    4    4    0    0  0.13073313324E+02 -0.19154895534E+02 -0.17558073464E+02  0.29087926842E+02  0.00000000000E+00 0.  1.
<mgrwt>
<rscale>  0 0.82144540E+02</rscale>
<asrwt>0</asrwt>
<pdfrwt beam="1">  1        2 0.90237186E-02 0.82144540E+02</pdfrwt>
<pdfrwt beam="2">  1       -1 0.44247135E-02 0.82144540E+02</pdfrwt>
<totfact> 0.14406980E+05</totfact>
</mgrwt>
</event>
<event>
 8    1  0.2676873E-020  0.8065935E+02  0.7818608E-02  0.1327191E+00
         -1   -1    0    0    0  501 -0.00000000000E+00  0.00000000000E+00  0.42649798059E+02  0.42649798356E+02  0.50400000000E-02 0.  1.
          2   -1    0    0  501    0  0.00000000000E+00 -0.00000000000E+00 -0.38135768968E+02  0.38135769053E+02  0.25500000000E-02 0. -1.
         24    2    1    2    0    0 -0.88817841970E-15  0.00000000000E+00  0.45140290912E+01  0.80785567409E+02  0.80659354343E+02 0.  0.
         66    2    3    3    0    0  0.43011319243E+01 -0.35557012418E+02 -0.16255033222E+02  0.39383079786E+02  0.20000001174E+01 0.  0.
        -13    1    3    3    0    0 -0.43011319243E+01  0.35557012418E+02  0.20769062313E+02  0.41402487623E+02  0.10566000000E+00 0.  1.
         13    1    4    4    0    0  0.20237916918E+01 -0.16236755164E+02 -0.69957435397E+01  0.17795492204E+02  0.10566000000E+00 0. -1.
        -13    1    4    4    0    0  0.22401738924E+01 -0.16466300842E+02 -0.83057323876E+01  0.18578315236E+02  0.10566000000E+00 0.  1.
        -14    1    4    4    0    0  0.37166340009E-01 -0.28539564122E+01 -0.95355729477E+00  0.30092723463E+01  0.00000000000E+00 0.  1.
<mgrwt>
<rscale>  0 0.80659354E+02</rscale>
<asrwt>0</asrwt>
<pdfrwt beam="1">  1        2 0.58670414E-02 0.80659354E+02</pdfrwt>
<pdfrwt beam="2">  1       -1 0.65615075E-02 0.80659354E+02</pdfrwt>
<totfact> 0.13799108E+05</totfact>
</mgrwt>
</event>
<event>
 8    1  0.2676873E-020  0.7949803E+02  0.7818608E-02  0.1330482E+00
          2   -1    0    0  501    0  0.00000000000E+00  0.00000000000E+00  0.27147332095E+03  0.27147332096E+03  0.25500000000E-02 0. -1.
         -1   -1    0    0    0  501 -0.00000000000E+00 -0.00000000000E+00 -0.58200331265E+01  0.58200353087E+01  0.50400000000E-02 0.  1.
         24    2    1    2    0    0  0.35527136788E-14  0.00000000000E+00  0.26565328782E+03  0.27729335627E+03  0.79498025764E+02 0.  0.
         66    2    3    3    0    0  0.17576552679E+02 -0.18899112922E+02  0.23823972125E+03  0.23964197555E+03  0.19999986658E+01 0.  0.
        -13    1    3    3    0    0 -0.17576552679E+02  0.18899112922E+02  0.27413566577E+02  0.37651380716E+02  0.10566000000E+00 0.  1.
         13    1    4    4    0    0  0.97482509550E+01 -0.11047108102E+02  0.13172670183E+03  0.13254811252E+03  0.10566000000E+00 0. -1.
        -13    1    4    4    0    0  0.33380110813E+01 -0.39891007034E+01  0.47234443598E+02  0.47520091209E+02  0.10566000000E+00 0.  1.
         14    1    4    4    0    0  0.44902906432E+01 -0.38629041170E+01  0.59278575819E+02  0.59573771824E+02  0.00000000000E+00 0. -1.
<mgrwt>
<rscale>  0 0.79498026E+02</rscale>
<asrwt>0</asrwt>
<pdfrwt beam="1">  1        2 0.41765120E-01 0.79498026E+02</pdfrwt>
<pdfrwt beam="2">  1       -1 0.89539002E-03 0.79498026E+02</pdfrwt>
<totfact> 0.24997837E+05</totfact>
</mgrwt>
</event>
<event>
 8    1  0.2676873E-020  0.8095497E+02  0.7818608E-02  0.1326363E+00
         -1   -1    0    0    0  501 -0.00000000000E+00  0.00000000000E+00  0.78265664525E+01  0.78265680753E+01  0.50400000000E-02 0.  1.
          2   -1    0    0  501    0  0.00000000000E+00 -0.00000000000E+00 -0.20934166092E+03  0.20934166094E+03  0.25500000000E-02 0. -1.
         24    2    1    2    0    0  0.00000000000E+00  0.00000000000E+00 -0.20151509447E+03  0.21716822901E+03  0.80954965218E+02 0.  0.
         66    2    3    3    0    0 -0.36269426087E+02  0.88495418096E+01 -0.14260483219E+03  0.14742429864E+03  0.20000011174E+01 0.  0.
        -13    1    3    3    0    0  0.36269426087E+02 -0.88495418096E+01 -0.58910262274E+02  0.69743930375E+02  0.10566000000E+00 0.  1.
         13    1    4    4    0    0 -0.31161408445E+01  0.90555767201E+00 -0.11179875908E+02  0.11641784992E+02  0.10566000000E+00 0. -1.
        -13    1    4    4    0    0 -0.74690236632E+01  0.22732653041E+01 -0.31624729669E+02  0.32574357097E+02  0.10566000000E+00 0.  1.
         14    1    4    4    0    0 -0.25684261579E+02  0.56707188336E+01 -0.99800226618E+02  0.10320815655E+03  0.00000000000E+00 0. -1.
<mgrwt>
<rscale>  0 0.80954965E+02</rscale>
<asrwt>0</asrwt>
<pdfrwt beam="1">  1        2 0.32206405E-01 0.80954965E+02</pdfrwt>
<pdfrwt beam="2">  1       -1 0.12040874E-02 0.80954965E+02</pdfrwt>
<totfact> 0.21721751E+05</totfact>
</mgrwt>
</event>
<event>
 8    1  0.2676873E-020  0.7973470E+02  0.7818608E-02  0.1329806E+00
         -1   -1    0    0    0  501 -0.00000000000E+00  0.00000000000E+00  0.10744039545E+01  0.10744157757E+01  0.50400000000E-02 0.  1.
          2   -1    0    0  501    0  0.00000000000E+00 -0.00000000000E+00 -0.14793288509E+04  0.14793288509E+04  0.25500000000E-02 0. -1.
         24    2    1    2    0    0  0.00000000000E+00  0.17763568394E-14 -0.14782544469E+04  0.14804032667E+04  0.79734698071E+02 0.  0.
         66    2    3    3    0    0  0.17299774844E+02  0.11239889160E+02 -0.13724328731E+04  0.13725893808E+04  0.19999985619E+01 0.  0.
        -13    1    3    3    0    0 -0.17299774844E+02 -0.11239889160E+02 -0.10582157390E+03  0.10781388586E+03  0.10566000000E+00 0.  1.
         13    1    4    4    0    0  0.13211990669E+02  0.84498123419E+01 -0.10501301828E+04  0.10502472890E+04  0.10566000000E+00 0. -1.
        -13    1    4    4    0    0  0.13578481177E+01  0.85576410529E+00 -0.13430904759E+03  0.13431867894E+03  0.10566000000E+00 0.  1.
         14    1    4    4    0    0  0.27299360573E+01  0.19343127131E+01 -0.18799364267E+03  0.18802341291E+03  0.00000000000E+00 0. -1.
<mgrwt>
<rscale>  0 0.79734698E+02</rscale>
<asrwt>0</asrwt>
<pdfrwt beam="1">  1        2 0.22758742E+00 0.79734698E+02</pdfrwt>
<pdfrwt beam="2">  1       -1 0.16529501E-03 0.79734698E+02</pdfrwt>
<totfact> 0.33710937E+05</totfact>
</mgrwt>
</event>
<event>
 8    1  0.2676873E-020  0.7883940E+02  0.7818608E-02  0.1332378E+00
          2   -1    0    0  501    0  0.00000000000E+00  0.00000000000E+00  0.75822841073E+02  0.75822841116E+02  0.25500000000E-02 0. -1.
         -1   -1    0    0    0  501 -0.00000000000E+00 -0.00000000000E+00 -0.20493990304E+02  0.20493990924E+02  0.50400000000E-02 0.  1.
         24    2    1    2    0    0  0.00000000000E+00 -0.71054273576E-14  0.55328850769E+02  0.96316832040E+02  0.78839396286E+02 0.  0.
         66    2    3    3    0    0  0.17428380454E+01  0.35141439810E+02  0.49328730150E+02  0.60624103259E+02  0.20000003577E+01 0.  0.
        -13    1    3    3    0    0 -0.17428380454E+01 -0.35141439810E+02  0.60001206192E+01  0.35692728781E+02  0.10566000000E+00 0.  1.
         13    1    4    4    0    0 -0.63074177989E-01  0.91133547649E+01  0.13409401300E+02  0.16213587533E+02  0.10566000000E+00 0. -1.
        -13    1    4    4    0    0  0.16465251178E+00  0.10695483370E+01  0.18414307503E+01  0.21384750030E+01  0.10566000000E+00 0. -1.
        -14    1    4    4    0    0  0.16412597116E+01  0.24958536708E+02  0.34077898100E+02  0.42272040723E+02  0.00000000000E+00 0.  1.
<mgrwt>
<rscale>  0 0.78839396E+02</rscale>
<asrwt>0</asrwt>
<pdfrwt beam="1">  1        2 0.11665052E-01 0.78839396E+02</pdfrwt>
<pdfrwt beam="2">  1       -1 0.31529217E-02 0.78839396E+02</pdfrwt>
<totfact> 0.17131803E+05</totfact>
</mgrwt>
</event>
<event>
 8    1  0.2676873E-020  0.7948521E+02  0.7818608E-02  0.1330519E+00
         -1   -1    0    0    0  501 -0.00000000000E+00  0.00000000000E+00  0.67222242569E+02  0.67222242758E+02  0.50400000000E-02 0.  1.
          2   -1    0    0  501    0  0.00000000000E+00 -0.00000000000E+00 -0.23496310704E+02  0.23496310842E+02  0.25500000000E-02 0. -1.
         24    2    1    2    0    0 -0.17763568394E-14  0.88817841970E-15  0.43725931865E+02  0.90718553601E+02  0.79485211517E+02 0.  0.
         66    2    3    3    0    0 -0.14910588765E+02  0.77942922905E+01 -0.19185493660E+02  0.25596089924E+02  0.20000007000E+01 0.  0.
        -13    1    3    3    0    0  0.14910588765E+02 -0.77942922905E+01  0.62911425525E+02  0.65122463676E+02  0.10566000000E+00 0.  1.
         13    1    4    4    0    0 -0.53318118884E+01  0.31945348265E+01 -0.70653311865E+01  0.94108097198E+01  0.10566000000E+00 0. -1.
        -13    1    4    4    0    0 -0.32425129633E+01  0.23377773468E+01 -0.44783153061E+01  0.60037959040E+01  0.10566000000E+00 0.  1.
         14    1    4    4    0    0 -0.63362639134E+01  0.22619801172E+01 -0.76418471674E+01  0.10181484300E+02  0.00000000000E+00 0. -1.
<mgrwt>
<rscale>  0 0.79485212E+02</rscale>
<asrwt>0</asrwt>
<pdfrwt beam="1">  1        2 0.36148170E-02 0.79485212E+02</pdfrwt>
<pdfrwt beam="2">  1       -1 0.10341884E-01 0.79485212E+02</pdfrwt>
<totfact> 0.13059469E+05</totfact>
</mgrwt>
</event>
<event>
 8    1  0.2676873E-020  0.8048293E+02  0.7818608E-02  0.1327687E+00
          2   -1    0    0  501    0  0.00000000000E+00  0.00000000000E+00  0.25108798038E+02  0.25108798168E+02  0.25500000000E-02 0. -1.
         -1   -1    0    0    0  501 -0.00000000000E+00 -0.00000000000E+00 -0.64494351297E+02  0.64494351494E+02  0.50400000000E-02 0.  1.
         24    2    1    2    0    0  0.00000000000E+00  0.00000000000E+00 -0.39385553259E+02  0.89603149662E+02  0.80482933743E+02 0.  0.
         66    2    3    3    0    0 -0.24702751089E+02  0.15892912200E+02  0.10877132898E+02  0.31386662708E+02  0.20000015672E+01 0.  0.
        -13    1    3    3    0    0  0.24702751089E+02 -0.15892912200E+02 -0.50262686157E+02  0.58216486954E+02  0.10566000000E+00 0.  1.
         13    1    4    4    0    0 -0.13036965494E+02  0.82268667627E+01  0.57164621419E+01  0.16441803717E+02  0.10566000000E+00 0. -1.
        -13    1    4    4    0    0 -0.44247324522E+01  0.21409175419E+01  0.18818332501E+01  0.52644321263E+01  0.10566000000E+00 0.  1.
        -14    1    4    4    0    0 -0.72410531433E+01  0.55251278955E+01  0.32788375059E+01  0.96804268644E+01  0.00000000000E+00 0.  1.
<mgrwt>
<rscale>  0 0.80482934E+02</rscale>
<asrwt>0</asrwt>
<pdfrwt beam="1">  1        2 0.38628921E-02 0.80482934E+02</pdfrwt>
<pdfrwt beam="2">  1       -1 0.99222079E-02 0.80482934E+02</pdfrwt>
<totfact> 0.12771911E+05</totfact>
</mgrwt>
</event>
<event>
 8    1  0.2676873E-020  0.7879536E+02  0.7818608E-02  0.1332505E+00
          2   -1    0    0  501    0  0.00000000000E+00  0.00000000000E+00  0.16021669482E+04  0.16021669482E+04  0.25500000000E-02 0. -1.
         -1   -1    0    0    0  501 -0.00000000000E+00 -0.00000000000E+00 -0.96879198117E+00  0.96880509102E+00  0.50400000000E-02 0.  1.
         24    2    1    2    0    0  0.00000000000E+00 -0.17763568394E-14  0.16011981562E+04  0.16031357533E+04  0.78795355244E+02 0.  0.
         66    2    3    3    0    0 -0.13198399389E+02  0.11201604868E+02  0.15205810374E+04  0.15206808886E+04  0.20000015764E+01 0.  0.
        -13    1    3    3    0    0  0.13198399389E+02 -0.11201604868E+02  0.80617118816E+02  0.82454864673E+02  0.10566000000E+00 0.  1.
         13    1    4    4    0    0 -0.58471279838E+01  0.45674774786E+01  0.66155867380E+03  0.66160028779E+03  0.10566000000E+00 0. -1.
        -13    1    4    4    0    0 -0.38007571117E+01  0.42607714658E+01  0.51909526568E+03  0.51912667620E+03  0.10566000000E+00 0.  1.
         14    1    4    4    0    0 -0.35505142935E+01  0.23733559239E+01  0.33992709795E+03  0.33995392466E+03  0.00000000000E+00 0. -1.
<mgrwt>
<rscale>  0 0.78795355E+02</rscale>
<asrwt>0</asrwt>
<pdfrwt beam="1">  1        2 0.24648940E+00 0.78795355E+02</pdfrwt>
<pdfrwt beam="2">  1       -1 0.14904461E-03 0.78795355E+02</pdfrwt>
<totfact> 0.33631155E+05</totfact>
</mgrwt>
</event>
<event>
 8    1  0.2700106E-020  0.7745157E+02  0.7818608E-02  0.1336443E+00
         -1   -1    0    0    0  501 -0.00000000000E+00  0.00000000000E+00  0.12084334115E+02  0.12084335166E+02  0.50400000000E-02 0.  1.
          2   -1    0    0  501    0  0.00000000000E+00 -0.00000000000E+00 -0.12410168540E+03  0.12410168543E+03  0.25500000000E-02 0. -1.
         24    2    1    2    0    0  0.00000000000E+00  0.00000000000E+00 -0.11201735129E+03  0.13618602060E+03  0.77451566904E+02 0.  0.
         66    2    3    3    0    0 -0.95890165806E+01 -0.23498011471E+02 -0.10741754504E+03  0.11039309204E+03  0.20000013858E+01 0.  0.
        -13    1    3    3    0    0  0.95890165806E+01  0.23498011471E+02 -0.45998062519E+01  0.25792928559E+02  0.10566000000E+00 0.  1.
         13    1    4    4    0    0 -0.63488027797E+01 -0.14756108319E+02 -0.66005345094E+02  0.67932074711E+02  0.10566000000E+00 0. -1.
        -13    1    4    4    0    0 -0.16004330238E+01 -0.38623003797E+01 -0.16423967305E+02  0.16948056413E+02  0.10566000000E+00 0.  1.
        -14    1    4    4    0    0 -0.16397807771E+01 -0.48796027724E+01 -0.24988232637E+02  0.25512960912E+02  0.00000000000E+00 0.  1.
<mgrwt>
<rscale>  0 0.77451567E+02</rscale>
<asrwt>0</asrwt>
<pdfrwt beam="1">  1        2 0.19092566E-01 0.77451567E+02</pdfrwt>
<pdfrwt beam="2">  1       -1 0.18591285E-02 0.77451567E+02</pdfrwt>
<totfact> 0.20574023E+05</totfact>
</mgrwt>
</event>
<event>
 8    1  0.2676873E-020  0.7823638E+02  0.7818608E-02  0.1334132E+00
          2   -1    0    0  501    0  0.00000000000E+00  0.00000000000E+00  0.91102563713E+03  0.91102563714E+03  0.25500000000E-02 0. -1.
         -1   -1    0    0    0  501 -0.00000000000E+00 -0.00000000000E+00 -0.16796776979E+01  0.16796852593E+01  0.50400000000E-02 0.  1.
         24    2    1    2    0    0 -0.88817841970E-15  0.35527136788E-14  0.90934595944E+03  0.91270532240E+03  0.78236382770E+02 0.  0.
         66    2    3    3    0    0 -0.69844759942E+01  0.25602851999E+02  0.78983396898E+03  0.79028222016E+03  0.20000012581E+01 0.  0.
        -13    1    3    3    0    0  0.69844759942E+01 -0.25602851999E+02  0.11951199046E+03  0.12242310224E+03  0.10566000000E+00 0.  1.
         13    1    4    4    0    0 -0.16681576572E+01  0.87365148939E+01  0.27809536359E+03  0.27823758168E+03  0.10566000000E+00 0. -1.
        -13    1    4    4    0    0 -0.46231689479E+01  0.15314642069E+02  0.45949603839E+03  0.45977443645E+03  0.10566000000E+00 0.  1.
        -14    1    4    4    0    0 -0.69314938903E+00  0.15516950367E+01  0.52242567000E+02  0.52270202030E+02  0.00000000000E+00 0.  1.
<mgrwt>
<rscale>  0 0.78236383E+02</rscale>
<asrwt>0</asrwt>
<pdfrwt beam="1">  1        2 0.14015793E+00 0.78236383E+02</pdfrwt>
<pdfrwt beam="2">  1       -1 0.25841229E-03 0.78236383E+02</pdfrwt>
<totfact> 0.37074599E+05</totfact>
</mgrwt>
</event>
<event>
 8    1  0.2676873E-020  0.7513725E+02  0.7818608E-02  0.1343447E+00
         -1   -1    0    0    0  501 -0.00000000000E+00  0.00000000000E+00  0.38570039739E+02  0.38570040068E+02  0.50400000000E-02 0.  1.
          2   -1    0    0  501    0  0.00000000000E+00 -0.00000000000E+00 -0.36593209472E+02  0.36593209561E+02  0.25500000000E-02 0. -1.
         24    2    1    2    0    0  0.00000000000E+00 -0.17763568394E-14  0.19768302669E+01  0.75163249630E+02  0.75137249331E+02 0.  0.
         66    2    3    3    0    0 -0.16330259047E+02 -0.10390263733E+02 -0.31189730405E+02  0.36761858355E+02  0.20000014968E+01 0.  0.
        -13    1    3    3    0    0  0.16330259047E+02  0.10390263733E+02  0.33166560672E+02  0.38401391275E+02  0.10566000000E+00 0.  1.
         13    1    4    4    0    0 -0.97541778073E+01 -0.56310664522E+01 -0.17918002216E+02  0.21164093686E+02  0.10566000000E+00 0. -1.
        -13    1    4    4    0    0 -0.38182965957E+01 -0.28193325355E+01 -0.66996035906E+01  0.82112043664E+01  0.10566000000E+00 0.  1.
        -14    1    4    4    0    0 -0.27577846438E+01 -0.19398647456E+01 -0.65721245984E+01  0.73865603030E+01  0.00000000000E+00 0.  1.
<mgrwt>
<rscale>  0 0.75137249E+02</rscale>
<asrwt>0</asrwt>
<pdfrwt beam="1">  1        2 0.56297246E-02 0.75137249E+02</pdfrwt>
<pdfrwt beam="2">  1       -1 0.59338523E-02 0.75137249E+02</pdfrwt>
<totfact> 0.16645926E+05</totfact>
</mgrwt>
</event>
<event>
 8    1  0.2676873E-020  0.7750239E+02  0.7818608E-02  0.1336292E+00
          2   -1    0    0  501    0  0.00000000000E+00  0.00000000000E+00  0.64623963339E+03  0.64623963339E+03  0.25500000000E-02 0. -1.
         -1   -1    0    0    0  501 -0.00000000000E+00 -0.00000000000E+00 -0.23236790046E+01  0.23236844705E+01  0.50400000000E-02 0.  1.
         24    2    1    2    0    0 -0.17763568394E-14  0.00000000000E+00  0.64391595438E+03  0.64856331786E+03  0.77502393309E+02 0.  0.
         66    2    3    3    0    0 -0.12138623488E+02  0.44491508360E+01  0.62764446128E+03  0.62778078252E+03  0.20000013984E+01 0.  0.
        -13    1    3    3    0    0  0.12138623488E+02 -0.44491508360E+01  0.16271493103E+02  0.20782535341E+02  0.10566000000E+00 0.  1.
         13    1    4    4    0    0 -0.47183404678E+01  0.22128566162E+01  0.22712737449E+03  0.22718718027E+03  0.10566000000E+00 0. -1.
        -13    1    4    4    0    0 -0.11065257301E+00 -0.60476268021E-01  0.10090163491E+02  0.10091504580E+02  0.10566000000E+00 0. -1.
         14    1    4    4    0    0 -0.73096304476E+01  0.22967704878E+01  0.39042692330E+03  0.39050209768E+03  0.00000000000E+00 0. -1.
<mgrwt>
<rscale>  0 0.77502393E+02</rscale>
<asrwt>0</asrwt>
<pdfrwt beam="1">  1        2 0.99421654E-01 0.77502393E+02</pdfrwt>
<pdfrwt beam="2">  1       -1 0.35748888E-03 0.77502393E+02</pdfrwt>
<totfact> 0.35625279E+05</totfact>
</mgrwt>
</event>
<event>
 8    1  0.2676873E-020  0.7745583E+02  0.7818608E-02  0.1336430E+00
          2   -1    0    0  501    0  0.00000000000E+00  0.00000000000E+00  0.98742869901E+01  0.98742873194E+01  0.25500000000E-02 0. -1.
         -1   -1    0    0    0  501 -0.00000000000E+00 -0.00000000000E+00 -0.15189463190E+03  0.15189463198E+03  0.50400000000E-02 0.  1.
         24    2    1    2    0    0  0.00000000000E+00  0.00000000000E+00 -0.14202034491E+03  0.16176891930E+03  0.77455825373E+02 0.  0.
         66    2    3    3    0    0  0.35012260345E+02  0.22229215553E+01 -0.10518724318E+03  0.11090155942E+03  0.19999996504E+01 0.  0.
        -13    1    3    3    0    0 -0.35012260345E+02 -0.22229215553E+01 -0.36833101730E+02  0.50867359886E+02  0.10566000000E+00 0.  1.
         13    1    4    4    0    0  0.15052154415E+02  0.15687900064E+01 -0.47374136711E+02  0.49732770361E+02  0.10566000000E+00 0. -1.
        -13    1    4    4    0    0  0.24845345257E+01  0.34810744809E-01 -0.77901199564E+01  0.81774847336E+01  0.10566000000E+00 0.  1.
         14    1    4    4    0    0  0.17475571404E+02  0.61932080407E+00 -0.50022986512E+02  0.52991304322E+02  0.00000000000E+00 0. -1.
<mgrwt>
<rscale>  0 0.77455825E+02</rscale>
<asrwt>0</asrwt>
<pdfrwt beam="1">  1        2 0.15191212E-02 0.77455825E+02</pdfrwt>
<pdfrwt beam="2">  1       -1 0.23368403E-01 0.77455825E+02</pdfrwt>
<totfact> 0.11667857E+05</totfact>
</mgrwt>
</event>
<event>
 8    1  0.2676873E-020  0.7858604E+02  0.7818608E-02  0.1333113E+00
          2   -1    0    0  501    0  0.00000000000E+00  0.00000000000E+00  0.88600176114E+03  0.88600176114E+03  0.25500000000E-02 0. -1.
         -1   -1    0    0    0  501 -0.00000000000E+00 -0.00000000000E+00 -0.17425905905E+01  0.17425978790E+01  0.50400000000E-02 0.  1.
         24    2    1    2    0    0  0.00000000000E+00  0.17763568394E-14  0.88425917055E+03  0.88774435902E+03  0.78586043771E+02 0.  0.
         66    2    3    3    0    0 -0.74733188641E+01  0.13210023788E+02  0.85152517482E+03  0.85166277281E+03  0.20000028128E+01 0.  0.
        -13    1    3    3    0    0  0.74733188641E+01 -0.13210023788E+02  0.32733995731E+02  0.36081586216E+02  0.10566000000E+00 0.  1.
         13    1    4    4    0    0 -0.50940518067E+01  0.82416507103E+01  0.49371948493E+03  0.49381455541E+03  0.10566000000E+00 0. -1.
        -13    1    4    4    0    0 -0.66847749961E+00  0.14110319597E+01  0.10823371504E+03  0.10824502810E+03  0.10566000000E+00 0.  1.
         14    1    4    4    0    0 -0.17107895578E+01  0.35573411181E+01  0.24957197485E+03  0.24960318929E+03  0.00000000000E+00 0. -1.
<mgrwt>
<rscale>  0 0.78586044E+02</rscale>
<asrwt>0</asrwt>
<pdfrwt beam="1">  1        2 0.13630799E+00 0.78586044E+02</pdfrwt>
<pdfrwt beam="2">  1       -1 0.26809136E-03 0.78586044E+02</pdfrwt>
<totfact> 0.36535653E+05</totfact>
</mgrwt>
</event>
<event>
 8    1  0.2676873E-020  0.8072765E+02  0.7818608E-02  0.1326999E+00
         -1   -1    0    0    0  501 -0.00000000000E+00  0.00000000000E+00  0.46963536231E+01  0.46963563275E+01  0.50400000000E-02 0.  1.
          2   -1    0    0  501    0  0.00000000000E+00 -0.00000000000E+00 -0.34691547254E+03  0.34691547255E+03  0.25500000000E-02 0. -1.
         24    2    1    2    0    0  0.35527136788E-14 -0.88817841970E-15 -0.34221911891E+03  0.35161182887E+03  0.80727646156E+02 0.  0.
         66    2    3    3    0    0 -0.29796851639E+02  0.69311637329E+01 -0.28573577817E+03  0.28737576156E+03  0.20000018921E+01 0.  0.
        -13    1    3    3    0    0  0.29796851639E+02 -0.69311637329E+01 -0.56483340742E+02  0.64236067312E+02  0.10566000000E+00 0.  1.
         13    1    4    4    0    0 -0.16305242899E+02  0.42729690713E+01 -0.15495543078E+03  0.15586954770E+03  0.10566000000E+00 0. -1.
        -13    1    4    4    0    0 -0.85984807214E+01  0.22102792361E+01 -0.85995044998E+02  0.86452172519E+02  0.10566000000E+00 0.  1.
        -14    1    4    4    0    0 -0.48931280186E+01  0.44791542555E+00 -0.44785302399E+02  0.45054041339E+02  0.00000000000E+00 0.  1.
<mgrwt>
<rscale>  0 0.80727646E+02</rscale>
<asrwt>0</asrwt>
<pdfrwt beam="1">  1        2 0.53371591E-01 0.80727646E+02</pdfrwt>
<pdfrwt beam="2">  1       -1 0.72251642E-03 0.80727646E+02</pdfrwt>
<totfact> 0.26235172E+05</totfact>
</mgrwt>
</event>
<event>
 8    1  0.2676873E-020  0.7928134E+02  0.7818608E-02  0.1331103E+00
         -1   -1    0    0    0  501 -0.00000000000E+00  0.00000000000E+00  0.38586126463E+02  0.38586126792E+02  0.50400000000E-02 0.  1.
          2   -1    0    0  501    0  0.00000000000E+00 -0.00000000000E+00 -0.40724030481E+02  0.40724030560E+02  0.25500000000E-02 0. -1.
         24    2    1    2    0    0  0.00000000000E+00  0.00000000000E+00 -0.21379040180E+01  0.79310157352E+02  0.79281337184E+02 0.  0.
         66    2    3    3    0    0  0.17276121870E+02  0.10931969050E+02 -0.35014329348E+02  0.40595265635E+02  0.19999995381E+01 0.  0.
        -13    1    3    3    0    0 -0.17276121870E+02 -0.10931969050E+02  0.32876425330E+02  0.38714891717E+02  0.10566000000E+00 0.  1.
         13    1    4    4    0    0  0.36157411407E+01  0.25571648618E+01 -0.82738670355E+01  0.93851327046E+01  0.10566000000E+00 0. -1.
        -13    1    4    4    0    0  0.12754538510E+02  0.81804852733E+01 -0.25490578935E+02  0.29654331394E+02  0.10566000000E+00 0.  1.
        -14    1    4    4    0    0  0.90584221872E+00  0.19431891460E+00 -0.12498833771E+01  0.15558015369E+01  0.00000000000E+00 0.  1.
<mgrwt>
<rscale>  0 0.79281337E+02</rscale>
<asrwt>0</asrwt>
<pdfrwt beam="1">  1        2 0.62652355E-02 0.79281337E+02</pdfrwt>
<pdfrwt beam="2">  1       -1 0.59363272E-02 0.79281337E+02</pdfrwt>
<totfact> 0.14668855E+05</totfact>
</mgrwt>
</event>
<event>
 8    1  0.2676873E-020  0.7962409E+02  0.7818608E-02  0.1330122E+00
         -1   -1    0    0    0  501 -0.00000000000E+00  0.00000000000E+00  0.10447813024E+02  0.10447814239E+02  0.50400000000E-02 0.  1.
          2   -1    0    0  501    0  0.00000000000E+00 -0.00000000000E+00 -0.15170626169E+03  0.15170626171E+03  0.25500000000E-02 0. -1.
         24    2    1    2    0    0  0.00000000000E+00  0.00000000000E+00 -0.14125844866E+03  0.16215407595E+03  0.79624085725E+02 0.  0.
         66    2    3    3    0    0 -0.18087654388E+02  0.30692532864E+02 -0.10674889696E+03  0.11255452819E+03  0.19999997570E+01 0.  0.
        -13    1    3    3    0    0  0.18087654388E+02 -0.30692532864E+02 -0.34509551697E+02  0.49599547752E+02  0.10566000000E+00 0.  1.
         13    1    4    4    0    0 -0.65230045148E+01  0.10743829378E+02 -0.38821749971E+02  0.40805868358E+02  0.10566000000E+00 0.  1.
        -13    1    4    4    0    0 -0.95797214148E+01  0.15395922781E+02 -0.52798966014E+02  0.55826046581E+02  0.10566000000E+00 0. -1.
        -14    1    4    4    0    0 -0.19849284580E+01  0.45527807047E+01 -0.15128180979E+02  0.15922613255E+02  0.00000000000E+00 0.  1.
<mgrwt>
<rscale>  0 0.79624086E+02</rscale>
<asrwt>0</asrwt>
<pdfrwt beam="1">  1        2 0.23339423E-01 0.79624086E+02</pdfrwt>
<pdfrwt beam="2">  1       -1 0.16073561E-02 0.79624086E+02</pdfrwt>
<totfact> 0.20355966E+05</totfact>
</mgrwt>
</event>
<event>
 8    1  0.2676873E-020  0.8213025E+02  0.7818608E-02  0.1323113E+00
          2   -1    0    0  501    0  0.00000000000E+00  0.00000000000E+00  0.13072825304E+03  0.13072825306E+03  0.25500000000E-02 0. -1.
         -1   -1    0    0    0  501 -0.00000000000E+00 -0.00000000000E+00 -0.12899617582E+02  0.12899618566E+02  0.50400000000E-02 0.  1.
         24    2    1    2    0    0  0.00000000000E+00 -0.35527136788E-14  0.11782863545E+03  0.14362787163E+03  0.82130251280E+02 0.  0.
         66    2    3    3    0    0 -0.45768870033E+01  0.20025760564E+02  0.12108286601E+03  0.12282931011E+03  0.20000000970E+01 0.  0.
        -13    1    3    3    0    0  0.45768870033E+01 -0.20025760564E+02 -0.32542305510E+01  0.20798561521E+02  0.10566000000E+00 0.  1.
         13    1    4    4    0    0 -0.74323200377E+00  0.40425048769E+01  0.27225373011E+02  0.27534094122E+02  0.10566000000E+00 0. -1.
        -13    1    4    4    0    0 -0.48880538498E+00  0.18540621406E+01  0.87725482240E+01  0.89802696788E+01  0.10566000000E+00 0.  1.
         14    1    4    4    0    0 -0.33448496145E+01  0.14129193547E+02  0.85084944771E+02  0.86314946306E+02  0.00000000000E+00 0. -1.
<mgrwt>
<rscale>  0 0.82130251E+02</rscale>
<asrwt>0</asrwt>
<pdfrwt beam="1">  1        2 0.20112039E-01 0.82130251E+02</pdfrwt>
<pdfrwt beam="2">  1       -1 0.19845566E-02 0.82130251E+02</pdfrwt>
<totfact> 0.17882159E+05</totfact>
</mgrwt>
</event>
<event>
 8    1  0.2676873E-020  0.7931015E+02  0.7818608E-02  0.1331021E+00
          2   -1    0    0  501    0  0.00000000000E+00  0.00000000000E+00  0.27929766372E+02  0.27929766488E+02  0.25500000000E-02 0. -1.
         -1   -1    0    0    0  501 -0.00000000000E+00 -0.00000000000E+00 -0.56302839537E+02  0.56302839762E+02  0.50400000000E-02 0.  1.
         24    2    1    2    0    0  0.00000000000E+00  0.00000000000E+00 -0.28373073165E+02  0.84232606250E+02  0.79310154929E+02 0.  0.
         66    2    3    3    0    0  0.50946550354E+01  0.36404366447E+02  0.15318947276E+01  0.36845354009E+02  0.20000010583E+01 0.  0.
        -13    1    3    3    0    0 -0.50946550354E+01 -0.36404366447E+02 -0.29904967893E+02  0.47387252242E+02  0.10566000000E+00 0.  1.
         13    1    4    4    0    0  0.29333776407E+00  0.10148556805E+01 -0.83144507159E-01  0.10649207204E+01  0.10566000000E+00 0. -1.
        -13    1    4    4    0    0  0.43909733078E+00  0.28536628284E+01  0.51717768197E+00  0.29351038814E+01  0.10566000000E+00 0.  1.
         14    1    4    4    0    0  0.43622199405E+01  0.32535847938E+02  0.10978615528E+01  0.32845329407E+02  0.00000000000E+00 0. -1.
<mgrwt>
<rscale>  0 0.79310155E+02</rscale>
<asrwt>0</asrwt>
<pdfrwt beam="1">  1        2 0.42968872E-02 0.79310155E+02</pdfrwt>
<pdfrwt beam="2">  1       -1 0.86619753E-02 0.79310155E+02</pdfrwt>
<totfact> 0.13593970E+05</totfact>
</mgrwt>
</event>
<event>
 8    1  0.2676873E-020  0.7233684E+02  0.7818608E-02  0.1352322E+00
          2   -1    0    0  501    0  0.00000000000E+00  0.00000000000E+00  0.13791566335E+03  0.13791566337E+03  0.25500000000E-02 0. -1.
         -1   -1    0    0    0  501 -0.00000000000E+00 -0.00000000000E+00 -0.94851761293E+01  0.94851774684E+01  0.50400000000E-02 0.  1.
         24    2    1    2    0    0 -0.35527136788E-14  0.00000000000E+00  0.12843048722E+03  0.14740084084E+03  0.72336835936E+02 0.  0.
         66    2    3    3    0    0  0.20703498982E+02 -0.24274286962E+02  0.98861558799E+02  0.10390131706E+03  0.20000000236E+01 0.  0.
        -13    1    3    3    0    0 -0.20703498982E+02  0.24274286962E+02  0.29568928422E+02  0.43499523787E+02  0.10566000000E+00 0.  1.
         13    1    4    4    0    0  0.55262659418E+01 -0.58742151066E+01  0.23110169774E+02  0.24477277818E+02  0.10566000000E+00 0. -1.
        -13    1    4    4    0    0  0.50666403968E+01 -0.68726713303E+01  0.26854058120E+02  0.28179000296E+02  0.10566000000E+00 0.  1.
         14    1    4    4    0    0  0.10110592643E+02 -0.11527400526E+02  0.48897330905E+02  0.51245038942E+02  0.00000000000E+00 0. -1.
<mgrwt>
<rscale>  0 0.72336836E+02</rscale>
<asrwt>0</asrwt>
<pdfrwt beam="1">  1        2 0.21217793E-01 0.72336836E+02</pdfrwt>
<pdfrwt beam="2">  1       -1 0.14592581E-02 0.72336836E+02</pdfrwt>
<totfact> 0.25444145E+05</totfact>
</mgrwt>
</event>
<event>
 8    1  0.2676873E-020  0.7897108E+02  0.7818608E-02  0.1331997E+00
         -1   -1    0    0    0  501 -0.00000000000E+00  0.00000000000E+00  0.13651423649E+01  0.13651516685E+01  0.50400000000E-02 0.  1.
          2   -1    0    0  501    0  0.00000000000E+00 -0.00000000000E+00 -0.11420806173E+04  0.11420806173E+04  0.25500000000E-02 0. -1.
         24    2    1    2    0    0  0.00000000000E+00  0.00000000000E+00 -0.11407154749E+04  0.11434457689E+04  0.78971082187E+02 0.  0.
         66    2    3    3    0    0  0.11181435103E+02  0.10966755047E+02 -0.10951467741E+04  0.10952605859E+04  0.20000007150E+01 0.  0.
        -13    1    3    3    0    0 -0.11181435103E+02 -0.10966755047E+02 -0.45568700778E+02  0.48185183012E+02  0.10566000000E+00 0.  1.
         13    1    4    4    0    0  0.11927101384E+01  0.17004793123E+01 -0.17951032567E+03  0.17952237291E+03  0.10566000000E+00 0. -1.
        -13    1    4    4    0    0  0.71058304619E+01  0.70699120969E+01 -0.66376142814E+03  0.66383711943E+03  0.10566000000E+00 0.  1.
        -14    1    4    4    0    0  0.28828945032E+01  0.21963636377E+01 -0.25187502032E+03  0.25190109359E+03  0.00000000000E+00 0.  1.
<mgrwt>
<rscale>  0 0.78971082E+02</rscale>
<asrwt>0</asrwt>
<pdfrwt beam="1">  1        2 0.17570395E+00 0.78971082E+02</pdfrwt>
<pdfrwt beam="2">  1       -1 0.21002353E-03 0.78971082E+02</pdfrwt>
<totfact> 0.36390735E+05</totfact>
</mgrwt>
</event>
<event>
 8    1  0.2676873E-020  0.8003920E+02  0.7818608E-02  0.1328940E+00
         -1   -1    0    0    0  501 -0.00000000000E+00  0.00000000000E+00  0.59822982768E+02  0.59822982980E+02  0.50400000000E-02 0.  1.
          2   -1    0    0  501    0  0.00000000000E+00 -0.00000000000E+00 -0.26771790345E+02  0.26771790466E+02  0.25500000000E-02 0. -1.
         24    2    1    2    0    0  0.17763568394E-14  0.00000000000E+00  0.33051192423E+02  0.86594773446E+02  0.80039199569E+02 0.  0.
         66    2    3    3    0    0 -0.12846310567E+02 -0.32103967166E+02 -0.52066544031E+01  0.35025728363E+02  0.19999985666E+01 0.  0.
        -13    1    3    3    0    0  0.12846310567E+02  0.32103967166E+02  0.38257846826E+02  0.51569045084E+02  0.10566000000E+00 0.  1.
         13    1    4    4    0    0 -0.60490274961E+01 -0.16356292351E+02 -0.24635473355E+01  0.17612474631E+02  0.10566000000E+00 0. -1.
        -13    1    4    4    0    0 -0.17046515346E+01 -0.41074726195E+01 -0.18144120042E+00  0.44521065934E+01  0.10566000000E+00 0.  1.
        -14    1    4    4    0    0 -0.50926315365E+01 -0.11640202196E+02 -0.25616658672E+01  0.12961147138E+02  0.00000000000E+00 0.  1.
<mgrwt>
<rscale>  0 0.80039200E+02</rscale>
<asrwt>0</asrwt>
<pdfrwt beam="1">  1        2 0.41187370E-02 0.80039200E+02</pdfrwt>
<pdfrwt beam="2">  1       -1 0.92035358E-02 0.80039200E+02</pdfrwt>
<totfact> 0.13138625E+05</totfact>
</mgrwt>
</event>
<event>
 8    1  0.2676873E-020  0.8005712E+02  0.7818608E-02  0.1328889E+00
          2   -1    0    0  501    0  0.00000000000E+00  0.00000000000E+00  0.14306340178E+02  0.14306340405E+02  0.25500000000E-02 0. -1.
         -1   -1    0    0    0  501 -0.00000000000E+00 -0.00000000000E+00 -0.11199828234E+03  0.11199828246E+03  0.50400000000E-02 0.  1.
         24    2    1    2    0    0  0.00000000000E+00 -0.71054273576E-14 -0.97691942165E+02  0.12630462286E+03  0.80057118311E+02 0.  0.
         66    2    3    3    0    0 -0.40048551401E+01  0.26406622602E+02 -0.18908059045E+01  0.26850022894E+02  0.20000001197E+01 0.  0.
        -13    1    3    3    0    0  0.40048551401E+01 -0.26406622602E+02 -0.95801136260E+02  0.99454599968E+02  0.10566000000E+00 0.  1.
         13    1    4    4    0    0 -0.91821137599E+00  0.52208314937E+01 -0.12889394873E+00  0.53035809886E+01  0.10566000000E+00 0. -1.
        -13    1    4    4    0    0 -0.21601073688E+00  0.62475085952E+01 -0.20676929829E+00  0.62555528823E+01  0.10566000000E+00 0.  1.
        -14    1    4    4    0    0 -0.28706330272E+01  0.14938282513E+02 -0.15551426575E+01  0.15290889023E+02  0.00000000000E+00 0.  1.
<mgrwt>
<rscale>  0 0.80057118E+02</rscale>
<asrwt>0</asrwt>
<pdfrwt beam="1">  1        2 0.22009755E-02 0.80057118E+02</pdfrwt>
<pdfrwt beam="2">  1       -1 0.17230504E-01 0.80057118E+02</pdfrwt>
<totfact> 0.11542635E+05</totfact>
</mgrwt>
</event>
<event>
 8    1  0.2676873E-020  0.8628290E+02  0.7818608E-02  0.1312111E+00
          2   -1    0    0  501    0  0.00000000000E+00  0.00000000000E+00  0.26509107477E+02  0.26509107599E+02  0.25500000000E-02 0. -1.
         -1   -1    0    0    0  501 -0.00000000000E+00 -0.00000000000E+00 -0.70209249632E+02  0.70209249813E+02  0.50400000000E-02 0.  1.
         24    2    1    2    0    0  0.00000000000E+00  0.00000000000E+00 -0.43700142155E+02  0.96718357412E+02  0.86282896545E+02 0.  0.
         66    2    3    3    0    0 -0.44143033716E+01  0.24910700738E+02  0.17277502820E+02  0.30700833706E+02  0.20000002647E+01 0.  0.
        -13    1    3    3    0    0  0.44143033716E+01 -0.24910700738E+02 -0.60977644975E+02  0.66017523706E+02  0.10566000000E+00 0.  1.
         13    1    4    4    0    0 -0.15706030870E+01  0.62669611860E+01  0.50133345778E+01  0.81784035232E+01  0.10566000000E+00 0.  1.
        -13    1    4    4    0    0 -0.14766540283E+00  0.27917793579E+01  0.21229969088E+01  0.35119961510E+01  0.10566000000E+00 0. -1.
        -14    1    4    4    0    0 -0.26960348818E+01  0.15851960194E+02  0.10141171333E+02  0.19010434032E+02  0.00000000000E+00 0.  1.
<mgrwt>
<rscale>  0 0.86282897E+02</rscale>
<asrwt>0</asrwt>
<pdfrwt beam="1">  1        2 0.40783243E-02 0.86282897E+02</pdfrwt>
<pdfrwt beam="2">  1       -1 0.10801423E-01 0.86282897E+02</pdfrwt>
<totfact> 0.10592501E+05</totfact>
</mgrwt>
</event>
<event>
 8    1  0.2676873E-020  0.8304461E+02  0.7818608E-02  0.1320627E+00
          2   -1    0    0  501    0  0.00000000000E+00  0.00000000000E+00  0.25097275297E+02  0.25097275427E+02  0.25500000000E-02 0. -1.
         -1   -1    0    0    0  501 -0.00000000000E+00 -0.00000000000E+00 -0.68696766009E+02  0.68696766194E+02  0.50400000000E-02 0.  1.
         24    2    1    2    0    0 -0.71054273576E-14  0.00000000000E+00 -0.43599490712E+02  0.93794041621E+02  0.83044606406E+02 0.  0.
         66    2    3    3    0    0  0.40978348300E+02  0.60853707210E+01 -0.19082959714E+02  0.45655406176E+02  0.19999988581E+01 0.  0.
        -13    1    3    3    0    0 -0.40978348300E+02 -0.60853707210E+01 -0.24516530997E+02  0.48138635444E+02  0.10566000000E+00 0.  1.
         13    1    4    4    0    0  0.77327905584E+01  0.83908634294E+00 -0.38291663392E+01  0.86702822676E+01  0.10566000000E+00 0.  1.
        -13    1    4    4    0    0  0.32156889307E+02  0.53497500000E+01 -0.14792124609E+02  0.35798093098E+02  0.10566000000E+00 0. -1.
        -14    1    4    4    0    0  0.10886684347E+01 -0.10346562197E+00 -0.46166876582E+00  0.11870308104E+01  0.00000000000E+00 0.  1.
<mgrwt>
<rscale>  0 0.83044606E+02</rscale>
<asrwt>0</asrwt>
<pdfrwt beam="1">  1        2 0.38611193E-02 0.83044606E+02</pdfrwt>
<pdfrwt beam="2">  1       -1 0.10568733E-01 0.83044606E+02</pdfrwt>
<totfact> 0.11682534E+05</totfact>
</mgrwt>
</event>
<event>
 8    1  0.2676873E-020  0.8016767E+02  0.7818608E-02  0.1328576E+00
          2   -1    0    0  501    0  0.00000000000E+00  0.00000000000E+00  0.28501445387E+02  0.28501445501E+02  0.25500000000E-02 0. -1.
         -1   -1    0    0    0  501 -0.00000000000E+00 -0.00000000000E+00 -0.56373069768E+02  0.56373069994E+02  0.50400000000E-02 0.  1.
         24    2    1    2    0    0  0.71054273576E-14 -0.35527136788E-14 -0.27871624381E+02  0.84874515495E+02  0.80167673877E+02 0.  0.
         66    2    3    3    0    0 -0.37375623549E+02 -0.13685870402E+02 -0.91545936862E+01  0.40890669751E+02  0.20000006976E+01 0.  0.
        -13    1    3    3    0    0  0.37375623549E+02  0.13685870402E+02 -0.18717030695E+02  0.43983845744E+02  0.10566000000E+00 0.  1.
         13    1    4    4    0    0 -0.22235828454E+02 -0.82888582478E+01 -0.57735251541E+01  0.24422980875E+02  0.10566000000E+00 0. -1.
        -13    1    4    4    0    0 -0.81166474916E+00 -0.38678268608E-01 -0.15666695354E+00  0.83426868778E+00  0.10566000000E+00 0.  1.
        -14    1    4    4    0    0 -0.14328130346E+02 -0.53583338859E+01 -0.32244015786E+01  0.15633420189E+02  0.00000000000E+00 0.  1.
<mgrwt>
<rscale>  0 0.80167674E+02</rscale>
<asrwt>0</asrwt>
<pdfrwt beam="1">  1        2 0.43848378E-02 0.80167674E+02</pdfrwt>
<pdfrwt beam="2">  1       -1 0.86727800E-02 0.80167674E+02</pdfrwt>
<totfact> 0.13241832E+05</totfact>
</mgrwt>
</event>
<event>
 8    1  0.2676873E-020  0.7863596E+02  0.7818608E-02  0.1332968E+00
          2   -1    0    0  501    0  0.00000000000E+00  0.00000000000E+00  0.49640470785E+03  0.49640470786E+03  0.25500000000E-02 0. -1.
         -1   -1    0    0    0  501 -0.00000000000E+00 -0.00000000000E+00 -0.31141978731E+01  0.31142019514E+01  0.50400000000E-02 0.  1.
         24    2    1    2    0    0  0.00000000000E+00  0.00000000000E+00  0.49329050998E+03  0.49951890981E+03  0.78635958839E+02 0.  0.
         66    2    3    3    0    0 -0.16073701865E+02  0.10590472949E+02  0.46439962732E+03  0.46480268487E+03  0.20000008735E+01 0.  0.
        -13    1    3    3    0    0  0.16073701865E+02 -0.10590472949E+02  0.28890882664E+02  0.34716224939E+02  0.10566000000E+00 0.  1.
         13    1    4    4    0    0 -0.17923400346E+01  0.17352729681E+01  0.69224401295E+02  0.69269420048E+02  0.10566000000E+00 0. -1.
        -13    1    4    4    0    0 -0.46804456655E+00  0.36757873692E+00  0.16767422421E+02  0.16778313340E+02  0.10566000000E+00 0. -1.
         14    1    4    4    0    0 -0.13813317264E+02  0.84876212440E+01  0.37840780360E+03  0.37875495148E+03  0.00000000000E+00 0. -1.
<mgrwt>
<rscale>  0 0.78635959E+02</rscale>
<asrwt>0</asrwt>
<pdfrwt beam="1">  1        2 0.76369913E-01 0.78635959E+02</pdfrwt>
<pdfrwt beam="2">  1       -1 0.47910795E-03 0.78635959E+02</pdfrwt>
<totfact> 0.31772821E+05</totfact>
</mgrwt>
</event>
<event>
 8    1  0.2676873E-020  0.7976052E+02  0.7818608E-02  0.1329732E+00
         -1   -1    0    0    0  501 -0.00000000000E+00  0.00000000000E+00  0.36160283441E+01  0.36160318565E+01  0.50400000000E-02 0.  1.
          2   -1    0    0  501    0  0.00000000000E+00 -0.00000000000E+00 -0.43982909010E+03  0.43982909011E+03  0.25500000000E-02 0. -1.
         24    2    1    2    0    0  0.00000000000E+00  0.35527136788E-14 -0.43621306176E+03  0.44344512197E+03  0.79760522486E+02 0.  0.
         66    2    3    3    0    0  0.18731893116E+02  0.23896863482E+02 -0.36177488569E+03  0.36305235411E+03  0.20000002878E+01 0.  0.
        -13    1    3    3    0    0 -0.18731893116E+02 -0.23896863482E+02 -0.74438176063E+02  0.80392767856E+02  0.10566000000E+00 0.  1.
         13    1    4    4    0    0  0.28736147311E+01  0.42249087522E+01 -0.58991821605E+02  0.59212783214E+02  0.10566000000E+00 0.  1.
        -13    1    4    4    0    0  0.14973115274E+02  0.18740844771E+02 -0.29085627848E+03  0.29184379270E+03  0.10566000000E+00 0. -1.
         14    1    4    4    0    0  0.88516311087E+00  0.93110995806E+00 -0.11926785611E+02  0.11995778194E+02  0.00000000000E+00 0. -1.
<mgrwt>
<rscale>  0 0.79760522E+02</rscale>
<asrwt>0</asrwt>
<pdfrwt beam="1">  1        2 0.67665972E-01 0.79760522E+02</pdfrwt>
<pdfrwt beam="2">  1       -1 0.55631267E-03 0.79760522E+02</pdfrwt>
<totfact> 0.29421818E+05</totfact>
</mgrwt>
</event>
<event>
 8    1  0.2676873E-020  0.7994848E+02  0.7818608E-02  0.1329198E+00
          2   -1    0    0  501    0  0.00000000000E+00  0.00000000000E+00  0.17569943074E+03  0.17569943076E+03  0.25500000000E-02 0. -1.
         -1   -1    0    0    0  501 -0.00000000000E+00 -0.00000000000E+00 -0.90947358665E+01  0.90947372630E+01  0.50400000000E-02 0.  1.
         24    2    1    2    0    0  0.00000000000E+00  0.00000000000E+00  0.16660469487E+03  0.18479416802E+03  0.79948484544E+02 0.  0.
         66    2    3    3    0    0 -0.18786413643E+02  0.19236327085E+02  0.15164754711E+03  0.15402579058E+03  0.20000004467E+01 0.  0.
        -13    1    3    3    0    0  0.18786413643E+02 -0.19236327085E+02  0.14957147767E+02  0.30768377445E+02  0.10566000000E+00 0.  1.
         13    1    4    4    0    0 -0.46838543079E+01  0.50503861935E+01  0.41593578774E+02  0.42160192731E+02  0.10566000000E+00 0. -1.
        -13    1    4    4    0    0 -0.61997043294E+01  0.72093930562E+01  0.52315753689E+02  0.53172934187E+02  0.10566000000E+00 0.  1.
         14    1    4    4    0    0 -0.79028550056E+01  0.69765478351E+01  0.57738214643E+02  0.58692663657E+02  0.00000000000E+00 0. -1.
<mgrwt>
<rscale>  0 0.79948485E+02</rscale>
<asrwt>0</asrwt>
<pdfrwt beam="1">  1        2 0.27030678E-01 0.79948485E+02</pdfrwt>
<pdfrwt beam="2">  1       -1 0.13991905E-02 0.79948485E+02</pdfrwt>
<totfact> 0.21137089E+05</totfact>
</mgrwt>
</event>
<event>
 8    1  0.2676873E-020  0.8014847E+02  0.7818608E-02  0.1328631E+00
         -1   -1    0    0    0  501 -0.00000000000E+00  0.00000000000E+00  0.51386422560E+01  0.51386447276E+01  0.50400000000E-02 0.  1.
          2   -1    0    0  501    0  0.00000000000E+00 -0.00000000000E+00 -0.31252302063E+03  0.31252302064E+03  0.25500000000E-02 0. -1.
         24    2    1    2    0    0  0.00000000000E+00  0.22204460493E-15 -0.30738437837E+03  0.31766166536E+03  0.80148472075E+02 0.  0.
         66    2    3    3    0    0 -0.32203662960E+02  0.14114282869E+01 -0.24798620314E+03  0.25008043704E+03  0.20000004302E+01 0.  0.
        -13    1    3    3    0    0  0.32203662960E+02 -0.14114282869E+01 -0.59398175229E+02  0.67581228328E+02  0.10566000000E+00 0.  1.
         13    1    4    4    0    0 -0.19775889615E+01 -0.23410580403E-01 -0.14429408055E+02  0.14564696598E+02  0.10566000000E+00 0. -1.
        -13    1    4    4    0    0 -0.24131286694E+02  0.17126457836E+01 -0.18301024817E+03  0.18460231378E+03  0.10566000000E+00 0.  1.
        -14    1    4    4    0    0 -0.60947873041E+01 -0.27780691629E+00 -0.50546546913E+02  0.50913426656E+02  0.00000000000E+00 0.  1.
<mgrwt>
<rscale>  0 0.80148472E+02</rscale>
<asrwt>0</asrwt>
<pdfrwt beam="1">  1        2 0.48080450E-01 0.80148472E+02</pdfrwt>
<pdfrwt beam="2">  1       -1 0.79056078E-03 0.80148472E+02</pdfrwt>
<totfact> 0.25749011E+05</totfact>
</mgrwt>
</event>
<event>
 8    1  0.2676873E-020  0.7939348E+02  0.7818608E-02  0.1330781E+00
         -1   -1    0    0    0  501 -0.00000000000E+00  0.00000000000E+00  0.62500069209E+01  0.62500089530E+01  0.50400000000E-02 0.  1.
          2   -1    0    0  501    0  0.00000000000E+00 -0.00000000000E+00 -0.25213269468E+03  0.25213269469E+03  0.25500000000E-02 0. -1.
         24    2    1    2    0    0  0.11102230246E-15  0.00000000000E+00 -0.24588268776E+03  0.25838270365E+03  0.79393484643E+02 0.  0.
         66    2    3    3    0    0  0.90480175115E+00 -0.13953635601E+02 -0.24384254197E+03  0.24425132114E+03  0.19999976558E+01 0.  0.
        -13    1    3    3    0    0 -0.90480175115E+00  0.13953635601E+02 -0.20401457888E+01  0.14131382507E+02  0.10566000000E+00 0.  1.
         13    1    4    4    0    0  0.67088105551E+00 -0.13679867574E+02 -0.23791582375E+03  0.23830975476E+03  0.10566000000E+00 0. -1.
        -13    1    4    4    0    0  0.15967206529E+00 -0.22534234993E+00 -0.53408865398E+01  0.53490660315E+01  0.10566000000E+00 0. -1.
         14    1    4    4    0    0  0.74248630340E-01 -0.48425676763E-01 -0.58583168006E+00  0.59250034821E+00  0.00000000000E+00 0. -1.
<mgrwt>
<rscale>  0 0.79393485E+02</rscale>
<asrwt>0</asrwt>
<pdfrwt beam="1">  1        2 0.38789638E-01 0.79393485E+02</pdfrwt>
<pdfrwt beam="2">  1       -1 0.96153988E-03 0.79393485E+02</pdfrwt>
<totfact> 0.24424700E+05</totfact>
</mgrwt>
</event>
<event>
 8    1  0.2676873E-020  0.7880047E+02  0.7818608E-02  0.1332490E+00
          2   -1    0    0  501    0  0.00000000000E+00  0.00000000000E+00  0.16093372424E+02  0.16093372626E+02  0.25500000000E-02 0. -1.
         -1   -1    0    0    0  501 -0.00000000000E+00 -0.00000000000E+00 -0.96460739245E+02  0.96460739377E+02  0.50400000000E-02 0.  1.
         24    2    1    2    0    0  0.17763568394E-14  0.00000000000E+00 -0.80367366821E+02  0.11255411200E+03  0.78800472580E+02 0.  0.
         66    2    3    3    0    0  0.96048464808E+01  0.38182616916E+02 -0.39557503744E+02  0.55847662644E+02  0.20000024731E+01 0.  0.
        -13    1    3    3    0    0 -0.96048464808E+01 -0.38182616916E+02 -0.40809863078E+02  0.56706449359E+02  0.10566000000E+00 0.  1.
         13    1    4    4    0    0  0.45791914460E+01  0.20488072815E+02 -0.21090130149E+02  0.29757938028E+02  0.10566000000E+00 0. -1.
        -13    1    4    4    0    0  0.47925771138E+01  0.15583131604E+02 -0.16425013046E+02  0.23142925562E+02  0.10566000000E+00 0.  1.
        -14    1    4    4    0    0  0.23307792097E+00  0.21114124971E+01 -0.20423605490E+01  0.29467990536E+01  0.00000000000E+00 0.  1.
<mgrwt>
<rscale>  0 0.78800473E+02</rscale>
<asrwt>0</asrwt>
<pdfrwt beam="1">  1        2 0.24759035E-02 0.78800473E+02</pdfrwt>
<pdfrwt beam="2">  1       -1 0.14840113E-01 0.78800473E+02</pdfrwt>
<totfact> 0.12402051E+05</totfact>
</mgrwt>
</event>
<event>
 8    1  0.2676873E-020  0.8116975E+02  0.7818608E-02  0.1325764E+00
          2   -1    0    0  501    0  0.00000000000E+00  0.00000000000E+00  0.10264747266E+04  0.10264747266E+04  0.25500000000E-02 0. -1.
         -1   -1    0    0    0  501 -0.00000000000E+00 -0.00000000000E+00 -0.16046456421E+01  0.16046535571E+01  0.50400000000E-02 0.  1.
         24    2    1    2    0    0  0.00000000000E+00 -0.22204460493E-15  0.10248700810E+04  0.10280793802E+04  0.81169754639E+02 0.  0.
         66    2    3    3    0    0  0.21685280294E+02  0.18488165067E+01  0.94625190314E+03  0.94650427028E+03  0.19999922707E+01 0.  0.
        -13    1    3    3    0    0 -0.21685280294E+02 -0.18488165067E+01  0.78618177867E+02  0.81575109924E+02  0.10566000000E+00 0.  1.
         13    1    4    4    0    0  0.15319432350E+02  0.13479116258E+01  0.64194572018E+03  0.64212990952E+03  0.10566000000E+00 0. -1.
        -13    1    4    4    0    0  0.20268844802E+01  0.45188201552E+00  0.86843483745E+02  0.86868373365E+02  0.10566000000E+00 0. -1.
         14    1    4    4    0    0  0.43389634634E+01  0.49022865415E-01  0.21746269921E+03  0.21750598740E+03  0.00000000000E+00 0. -1.
<mgrwt>
<rscale>  0 0.81169755E+02</rscale>
<asrwt>0</asrwt>
<pdfrwt beam="1">  1        2 0.15791884E+00 0.81169755E+02</pdfrwt>
<pdfrwt beam="2">  1       -1 0.24686972E-03 0.81169755E+02</pdfrwt>
<totfact> 0.33956036E+05</totfact>
</mgrwt>
</event>
<event>
 8    1  0.2676873E-020  0.7875181E+02  0.7818608E-02  0.1332631E+00
         -1   -1    0    0    0  501 -0.00000000000E+00  0.00000000000E+00  0.10534835068E+02  0.10534836274E+02  0.50400000000E-02 0.  1.
          2   -1    0    0  501    0  0.00000000000E+00 -0.00000000000E+00 -0.14717476711E+03  0.14717476713E+03  0.25500000000E-02 0. -1.
         24    2    1    2    0    0  0.35527136788E-14  0.71054273576E-14 -0.13663993204E+03  0.15770960340E+03  0.78751812538E+02 0.  0.
         66    2    3    3    0    0  0.21304687387E+02  0.26669339840E+02 -0.10757191101E+03  0.11287541553E+03  0.19999997311E+01 0.  0.
        -13    1    3    3    0    0 -0.21304687387E+02 -0.26669339840E+02 -0.29068021024E+02  0.44834187876E+02  0.10566000000E+00 0.  1.
         13    1    4    4    0    0  0.21798630460E+01  0.26092694410E+01 -0.95216229947E+01  0.10111011740E+02  0.10566000000E+00 0. -1.
        -13    1    4    4    0    0  0.21380922101E+01  0.21324189384E+01 -0.10386390766E+02  0.10816973977E+02  0.10566000000E+00 0.  1.
         14    1    4    4    0    0  0.16986732131E+02  0.21927651461E+02 -0.87663897254E+02  0.91947429811E+02  0.00000000000E+00 0. -1.
<mgrwt>
<rscale>  0 0.78751813E+02</rscale>
<asrwt>0</asrwt>
<pdfrwt beam="1">  1        2 0.22642270E-01 0.78751813E+02</pdfrwt>
<pdfrwt beam="2">  1       -1 0.16207441E-02 0.78751813E+02</pdfrwt>
<totfact> 0.20755884E+05</totfact>
</mgrwt>
</event>
<event>
 8    1  0.2676873E-020  0.7917657E+02  0.7818608E-02  0.1331405E+00
          2   -1    0    0  501    0  0.00000000000E+00  0.00000000000E+00  0.15335318447E+02  0.15335318659E+02  0.25500000000E-02 0. -1.
         -1   -1    0    0    0  501 -0.00000000000E+00 -0.00000000000E+00 -0.10219757122E+03  0.10219757135E+03  0.50400000000E-02 0.  1.
         24    2    1    2    0    0 -0.11102230246E-15  0.00000000000E+00 -0.86862252777E+02  0.11753289001E+03  0.79176570246E+02 0.  0.
         66    2    3    3    0    0  0.52891522070E+00  0.38346371124E+02 -0.29028089955E+02  0.48138902637E+02  0.20000027478E+01 0.  0.
        -13    1    3    3    0    0 -0.52891522070E+00 -0.38346371124E+02 -0.57834162822E+02  0.69393987370E+02  0.10566000000E+00 0.  1.
         13    1    4    4    0    0  0.30227394141E+00  0.27689586370E+01 -0.16422527022E+01  0.32352216992E+01  0.10566000000E+00 0. -1.
        -13    1    4    4    0    0  0.38803994919E+00  0.25596364046E+02 -0.19398023169E+02  0.32118824609E+02  0.10566000000E+00 0.  1.
        -14    1    4    4    0    0 -0.16139866990E+00  0.99810484407E+01 -0.79878140841E+01  0.12784856329E+02  0.00000000000E+00 0.  1.
<mgrwt>
<rscale>  0 0.79176570E+02</rscale>
<asrwt>0</asrwt>
<pdfrwt beam="1">  1        2 0.23592798E-02 0.79176570E+02</pdfrwt>
<pdfrwt beam="2">  1       -1 0.15722703E-01 0.79176570E+02</pdfrwt>
<totfact> 0.12106216E+05</totfact>
</mgrwt>
</event>
<event>
 8    1  0.2676873E-020  0.8020109E+02  0.7818608E-02  0.1328482E+00
         -1   -1    0    0    0  501 -0.00000000000E+00  0.00000000000E+00  0.67398976879E+02  0.67398977067E+02  0.50400000000E-02 0.  1.
          2   -1    0    0  501    0  0.00000000000E+00 -0.00000000000E+00 -0.23858727490E+02  0.23858727627E+02  0.25500000000E-02 0. -1.
         24    2    1    2    0    0  0.17763568394E-14 -0.17763568394E-14  0.43540249388E+02  0.91257704694E+02  0.80201093192E+02 0.  0.
         66    2    3    3    0    0  0.13304137350E+02 -0.80811540819E+01 -0.20236335364E+02  0.25608873412E+02  0.20000016352E+01 0.  0.
        -13    1    3    3    0    0 -0.13304137350E+02  0.80811540819E+01  0.63776584753E+02  0.65648831282E+02  0.10566000000E+00 0.  1.
         13    1    4    4    0    0  0.60486887793E+01 -0.37675772929E+01 -0.79165615839E+01  0.10651966295E+02  0.10566000000E+00 0. -1.
        -13    1    4    4    0    0  0.39704586579E+01 -0.27205558256E+01 -0.74601916118E+01  0.88787154969E+01  0.10566000000E+00 0.  1.
         14    1    4    4    0    0  0.32849899124E+01 -0.15930209634E+01 -0.48595821686E+01  0.60781916199E+01  0.00000000000E+00 0. -1.
<mgrwt>
<rscale>  0 0.80201093E+02</rscale>
<asrwt>0</asrwt>
<pdfrwt beam="1">  1        2 0.36705735E-02 0.80201093E+02</pdfrwt>
<pdfrwt beam="2">  1       -1 0.10369073E-01 0.80201093E+02</pdfrwt>
<totfact> 0.12769710E+05</totfact>
</mgrwt>
</event>
<event>
 8    1  0.2676873E-020  0.7968395E+02  0.7818608E-02  0.1329951E+00
          2   -1    0    0  501    0  0.00000000000E+00  0.00000000000E+00  0.57666177164E+03  0.57666177164E+03  0.25500000000E-02 0. -1.
         -1   -1    0    0    0  501 -0.00000000000E+00 -0.00000000000E+00 -0.27527084285E+01  0.27527130425E+01  0.50400000000E-02 0.  1.
         24    2    1    2    0    0  0.35527136788E-14  0.00000000000E+00  0.57390906321E+03  0.57941448468E+03  0.79683952149E+02 0.  0.
         66    2    3    3    0    0 -0.20967120035E+02  0.13083339422E+02  0.51413600642E+03  0.51473354951E+03  0.20000006347E+01 0.  0.
        -13    1    3    3    0    0  0.20967120035E+02 -0.13083339422E+02  0.59773056789E+02  0.64680935173E+02  0.10566000000E+00 0.  1.
         13    1    4    4    0    0 -0.78644067240E+01  0.53329840639E+01  0.20305930224E+03  0.20328153139E+03  0.10566000000E+00 0. -1.
        -13    1    4    4    0    0 -0.72568707433E+01  0.47600081778E+01  0.16586387973E+03  0.16609081134E+03  0.10566000000E+00 0.  1.
        -14    1    4    4    0    0 -0.58458425682E+01  0.29903471804E+01  0.14521282445E+03  0.14536120678E+03  0.00000000000E+00 0.  1.
<mgrwt>
<rscale>  0 0.79683952E+02</rscale>
<asrwt>0</asrwt>
<pdfrwt beam="1">  1        2 0.88717274E-01 0.79683952E+02</pdfrwt>
<pdfrwt beam="2">  1       -1 0.42349359E-03 0.79683952E+02</pdfrwt>
<totfact> 0.32132944E+05</totfact>
</mgrwt>
</event>
<event>
 8    1  0.2676873E-020  0.7869757E+02  0.7818608E-02  0.1332789E+00
          2   -1    0    0  501    0  0.00000000000E+00  0.00000000000E+00  0.36178503810E+03  0.36178503811E+03  0.25500000000E-02 0. -1.
         -1   -1    0    0    0  501 -0.00000000000E+00 -0.00000000000E+00 -0.42796857909E+01  0.42796887586E+01  0.50400000000E-02 0.  1.
         24    2    1    2    0    0  0.00000000000E+00  0.00000000000E+00  0.35750535231E+03  0.36606472687E+03  0.78697568750E+02 0.  0.
         66    2    3    3    0    0 -0.10475413925E+02 -0.37728638768E+02  0.16200803819E+03  0.16668469910E+03  0.19999990657E+01 0.  0.
        -13    1    3    3    0    0  0.10475413925E+02  0.37728638768E+02  0.19549731412E+03  0.19938002777E+03  0.10566000000E+00 0.  1.
         13    1    4    4    0    0 -0.13374431541E+01 -0.36026257846E+01  0.17273303301E+02  0.17695927150E+02  0.10566000000E+00 0.  1.
        -13    1    4    4    0    0 -0.26195376679E+01 -0.11949730509E+02  0.49986910150E+02  0.51462222914E+02  0.10566000000E+00 0. -1.
         14    1    4    4    0    0 -0.65184331031E+01 -0.22176282474E+02  0.94747824739E+02  0.97526549038E+02  0.00000000000E+00 0. -1.
<mgrwt>
<rscale>  0 0.78697569E+02</rscale>
<asrwt>0</asrwt>
<pdfrwt beam="1">  1        2 0.55659231E-01 0.78697569E+02</pdfrwt>
<pdfrwt beam="2">  1       -1 0.65841349E-03 0.78697569E+02</pdfrwt>
<totfact> 0.28464504E+05</totfact>
</mgrwt>
</event>
<event>
 8    1  0.2676873E-020  0.8165816E+02  0.7818608E-02  0.1324411E+00
          2   -1    0    0  501    0  0.00000000000E+00  0.00000000000E+00  0.45921196198E+02  0.45921196269E+02  0.25500000000E-02 0. -1.
         -1   -1    0    0    0  501 -0.00000000000E+00 -0.00000000000E+00 -0.36301615723E+02  0.36301616073E+02  0.50400000000E-02 0.  1.
         24    2    1    2    0    0  0.17763568394E-14  0.00000000000E+00  0.96195804753E+01  0.82222812342E+02  0.81658156610E+02 0.  0.
         66    2    3    3    0    0  0.89825418457E+01 -0.16113901651E+02 -0.31834950175E+02  0.36848445570E+02  0.20000009649E+01 0.  0.
        -13    1    3    3    0    0 -0.89825418457E+01  0.16113901651E+02  0.41454530651E+02  0.45374366772E+02  0.10566000000E+00 0.  1.
         13    1    4    4    0    0  0.53141549612E+01 -0.96177009548E+01 -0.20382910922E+02  0.23156308779E+02  0.10566000000E+00 0. -1.
        -13    1    4    4    0    0  0.24594305501E+01 -0.48580954089E+01 -0.78438229250E+01  0.95491681181E+01  0.10566000000E+00 0.  1.
        -14    1    4    4    0    0  0.12089563343E+01 -0.16381052870E+01 -0.36082163288E+01  0.41429686730E+01  0.00000000000E+00 0.  1.
<mgrwt>
<rscale>  0 0.81658157E+02</rscale>
<asrwt>0</asrwt>
<pdfrwt beam="1">  1        2 0.70647994E-02 0.81658157E+02</pdfrwt>
<pdfrwt beam="2">  1       -1 0.55848640E-02 0.81658157E+02</pdfrwt>
<totfact> 0.13866532E+05</totfact>
</mgrwt>
</event>
<event>
 8    1  0.2676873E-020  0.8018248E+02  0.7818608E-02  0.1328534E+00
          2   -1    0    0  501    0  0.00000000000E+00  0.00000000000E+00  0.84965040136E+01  0.84965043963E+01  0.25500000000E-02 0. -1.
         -1   -1    0    0    0  501 -0.00000000000E+00 -0.00000000000E+00 -0.18917281001E+03  0.18917281007E+03  0.50400000000E-02 0.  1.
         24    2    1    2    0    0  0.35527136788E-14 -0.35527136788E-14 -0.18067630599E+03  0.19766931447E+03  0.80182481477E+02 0.  0.
         66    2    3    3    0    0 -0.25166590359E+02  0.24211377371E+02 -0.41975259311E+02  0.54639458919E+02  0.20000030369E+01 0.  0.
        -13    1    3    3    0    0  0.25166590359E+02 -0.24211377371E+02 -0.13870104668E+03  0.14302985555E+03  0.10566000000E+00 0.  1.
         13    1    4    4    0    0 -0.11761667463E+02  0.11543323592E+02 -0.19655996579E+02  0.25650623903E+02  0.10566000000E+00 0. -1.
        -13    1    4    4    0    0 -0.63681997671E+01  0.57939528425E+01 -0.93436041232E+01  0.12705823856E+02  0.10566000000E+00 0.  1.
        -14    1    4    4    0    0 -0.70367231289E+01  0.68741009362E+01 -0.12975658609E+02  0.16283011159E+02  0.00000000000E+00 0.  1.
<mgrwt>
<rscale>  0 0.80182481E+02</rscale>
<asrwt>0</asrwt>
<pdfrwt beam="1">  1        2 0.13071546E-02 0.80182481E+02</pdfrwt>
<pdfrwt beam="2">  1       -1 0.29103506E-01 0.80182481E+02</pdfrwt>
<totfact> 0.10068073E+05</totfact>
</mgrwt>
</event>
<event>
 8    1  0.2676873E-020  0.7957542E+02  0.7818608E-02  0.1330261E+00
         -1   -1    0    0    0  501 -0.00000000000E+00  0.00000000000E+00  0.51667395689E+02  0.51667395935E+02  0.50400000000E-02 0.  1.
          2   -1    0    0  501    0  0.00000000000E+00 -0.00000000000E+00 -0.30639473705E+02  0.30639473811E+02  0.25500000000E-02 0. -1.
         24    2    1    2    0    0  0.35527136788E-14  0.00000000000E+00  0.21027921984E+02  0.82306869746E+02  0.79575418971E+02 0.  0.
         66    2    3    3    0    0  0.11231817118E+02  0.32014074658E+02  0.31968864485E+02  0.46659007555E+02  0.19999993849E+01 0.  0.
        -13    1    3    3    0    0 -0.11231817118E+02 -0.32014074658E+02 -0.10940942500E+02  0.35647862192E+02  0.10566000000E+00 0.  1.
         13    1    4    4    0    0  0.71239965680E+00  0.19551040853E+01  0.16112131541E+01  0.26338407543E+01  0.10566000000E+00 0.  1.
        -13    1    4    4    0    0  0.15306058407E+01  0.53735012266E+01  0.46737146796E+01  0.72850561161E+01  0.10566000000E+00 0. -1.
         14    1    4    4    0    0  0.89888116204E+01  0.24685469346E+02  0.25683936651E+02  0.36740110684E+02  0.00000000000E+00 0. -1.
<mgrwt>
<rscale>  0 0.79575419E+02</rscale>
<asrwt>0</asrwt>
<pdfrwt beam="1">  1        2 0.47137652E-02 0.79575419E+02</pdfrwt>
<pdfrwt beam="2">  1       -1 0.79488301E-02 0.79575419E+02</pdfrwt>
<totfact> 0.13714119E+05</totfact>
</mgrwt>
</event>
<event>
 8    1  0.2676873E-020  0.7978602E+02  0.7818608E-02  0.1329660E+00
          2   -1    0    0  501    0  0.00000000000E+00  0.00000000000E+00  0.33893455174E+02  0.33893455270E+02  0.25500000000E-02 0. -1.
         -1   -1    0    0    0  501 -0.00000000000E+00 -0.00000000000E+00 -0.46954556343E+02  0.46954556613E+02  0.50400000000E-02 0.  1.
         24    2    1    2    0    0  0.35527136788E-14  0.00000000000E+00 -0.13061101169E+02  0.80848011883E+02  0.79786017959E+02 0.  0.
         66    2    3    3    0    0  0.22982025817E+02 -0.19152349017E+02  0.20168756982E+02  0.36135366912E+02  0.20000000414E+01 0.  0.
        -13    1    3    3    0    0 -0.22982025817E+02  0.19152349017E+02 -0.33229858151E+02  0.44712644971E+02  0.10566000000E+00 0.  1.
         13    1    4    4    0    0  0.83007290128E+01 -0.66369323391E+01  0.63691157686E+01  0.12390632459E+02  0.10566000000E+00 0. -1.
        -13    1    4    4    0    0  0.57025039748E+01 -0.49431482344E+01  0.60494291684E+01  0.96726430385E+01  0.10566000000E+00 0.  1.
        -14    1    4    4    0    0  0.89787928295E+01 -0.75722684437E+01  0.77502120450E+01  0.14072091415E+02  0.00000000000E+00 0.  1.
<mgrwt>
<rscale>  0 0.79786018E+02</rscale>
<asrwt>0</asrwt>
<pdfrwt beam="1">  1        2 0.52143777E-02 0.79786018E+02</pdfrwt>
<pdfrwt beam="2">  1       -1 0.72237779E-02 0.79786018E+02</pdfrwt>
<totfact> 0.13888257E+05</totfact>
</mgrwt>
</event>
<event>
 8    1  0.2676873E-020  0.7989135E+02  0.7818608E-02  0.1329360E+00
         -1   -1    0    0    0  501 -0.00000000000E+00  0.00000000000E+00  0.26452956327E+01  0.26453004340E+01  0.50400000000E-02 0.  1.
          2   -1    0    0  501    0  0.00000000000E+00 -0.00000000000E+00 -0.60320504777E+03  0.60320504778E+03  0.25500000000E-02 0. -1.
         24    2    1    2    0    0  0.00000000000E+00  0.00000000000E+00 -0.60055975214E+03  0.60585034821E+03  0.79891354590E+02 0.  0.
         66    2    3    3    0    0 -0.16478568480E+02  0.19384026317E+01 -0.57581507247E+03  0.57605754774E+03  0.20000001756E+01 0.  0.
        -13    1    3    3    0    0  0.16478568480E+02 -0.19384026317E+01 -0.24744679666E+02  0.29792800468E+02  0.10566000000E+00 0.  1.
         13    1    4    4    0    0 -0.45606993213E+01  0.72800247252E+00 -0.17552959821E+03  0.17559037837E+03  0.10566000000E+00 0. -1.
        -13    1    4    4    0    0 -0.45196448934E+01  0.37008089362E+00 -0.12980518100E+03  0.12988441142E+03  0.10566000000E+00 0.  1.
        -14    1    4    4    0    0 -0.73982242655E+01  0.84031926557E+00 -0.27048029326E+03  0.27058275795E+03  0.00000000000E+00 0.  1.
<mgrwt>
<rscale>  0 0.79891355E+02</rscale>
<asrwt>0</asrwt>
<pdfrwt beam="1">  1        2 0.92800667E-01 0.79891355E+02</pdfrwt>
<pdfrwt beam="2">  1       -1 0.40696941E-03 0.79891355E+02</pdfrwt>
<totfact> 0.32325210E+05</totfact>
</mgrwt>
</event>
<event>
 8    1  0.2676873E-020  0.8247056E+02  0.7818608E-02  0.1322183E+00
         -1   -1    0    0    0  501 -0.00000000000E+00  0.00000000000E+00  0.27500252604E+02  0.27500253066E+02  0.50400000000E-02 0.  1.
          2   -1    0    0  501    0  0.00000000000E+00 -0.00000000000E+00 -0.61830283497E+02  0.61830283550E+02  0.25500000000E-02 0. -1.
         24    2    1    2    0    0 -0.35527136788E-14  0.17763568394E-14 -0.34330030893E+02  0.89330536616E+02  0.82470562935E+02 0.  0.
         66    2    3    3    0    0 -0.23875485956E+02  0.13570611787E+02 -0.50457885542E+02  0.57482158423E+02  0.19999974125E+01 0.  0.
        -13    1    3    3    0    0  0.23875485956E+02 -0.13570611787E+02  0.16127854649E+02  0.31848378193E+02  0.10566000000E+00 0.  1.
         13    1    4    4    0    0 -0.16517461450E+02  0.88432893129E+01 -0.33889597510E+02  0.38723975545E+02  0.10566000000E+00 0. -1.
        -13    1    4    4    0    0 -0.28029760556E+01  0.19136235300E+01 -0.55156278613E+01  0.64770320767E+01  0.10566000000E+00 0.  1.
         14    1    4    4    0    0 -0.45550484502E+01  0.28136989442E+01 -0.11052660171E+02  0.12281150801E+02  0.00000000000E+00 0. -1.
<mgrwt>
<rscale>  0 0.82470563E+02</rscale>
<asrwt>0</asrwt>
<pdfrwt beam="1">  1        2 0.95123513E-02 0.82470563E+02</pdfrwt>
<pdfrwt beam="2">  1       -1 0.42308082E-02 0.82470563E+02</pdfrwt>
<totfact> 0.14429062E+05</totfact>
</mgrwt>
</event>
<event>
 8    1  0.2676873E-020  0.8054669E+02  0.7818608E-02  0.1327507E+00
         -1   -1    0    0    0  501 -0.00000000000E+00  0.00000000000E+00  0.13204173753E+01  0.13204269940E+01  0.50400000000E-02 0.  1.
          2   -1    0    0  501    0  0.00000000000E+00 -0.00000000000E+00 -0.12283511761E+04  0.12283511761E+04  0.25500000000E-02 0. -1.
         24    2    1    2    0    0  0.00000000000E+00  0.00000000000E+00 -0.12270307587E+04  0.12296716031E+04  0.80546685878E+02 0.  0.
         66    2    3    3    0    0 -0.12356737547E+02  0.13689954538E+02 -0.11600504357E+04  0.11601987404E+04  0.19999960129E+01 0.  0.
        -13    1    3    3    0    0  0.12356737547E+02 -0.13689954538E+02 -0.66980323017E+02  0.69472862713E+02  0.10566000000E+00 0.  1.
         13    1    4    4    0    0 -0.54518843195E+01  0.58947168341E+01 -0.46844862339E+03  0.46851744328E+03  0.10566000000E+00 0. -1.
        -13    1    4    4    0    0 -0.31730461137E+01  0.44933881287E+01 -0.35799721468E+03  0.35803948894E+03  0.10566000000E+00 0.  1.
         14    1    4    4    0    0 -0.37318071141E+01  0.33018495747E+01 -0.33360459764E+03  0.33364180818E+03  0.00000000000E+00 0. -1.
<mgrwt>
<rscale>  0 0.80546686E+02</rscale>
<asrwt>0</asrwt>
<pdfrwt beam="1">  1        2 0.18897619E+00 0.80546686E+02</pdfrwt>
<pdfrwt beam="2">  1       -1 0.20314286E-03 0.80546686E+02</pdfrwt>
<totfact> 0.34325988E+05</totfact>
</mgrwt>
</event>
<event>
 8    1  0.2676873E-020  0.8181294E+02  0.7818608E-02  0.1323984E+00
          2   -1    0    0  501    0  0.00000000000E+00  0.00000000000E+00  0.14026590178E+03  0.14026590181E+03  0.25500000000E-02 0. -1.
         -1   -1    0    0    0  501 -0.00000000000E+00 -0.00000000000E+00 -0.11929764668E+02  0.11929765732E+02  0.50400000000E-02 0.  1.
         24    2    1    2    0    0  0.00000000000E+00 -0.55511151231E-16  0.12833613711E+03  0.15219566754E+03  0.81812939856E+02 0.  0.
         66    2    3    3    0    0  0.40611092714E+02 -0.41088530952E+00  0.72912899148E+02  0.83484852167E+02  0.20000002909E+01 0.  0.
        -13    1    3    3    0    0 -0.40611092714E+02  0.41088530952E+00  0.55423237967E+02  0.68710815370E+02  0.10566000000E+00 0.  1.
         13    1    4    4    0    0  0.22647250973E+02 -0.53807065899E+00  0.40696271930E+02  0.46576659495E+02  0.10566000000E+00 0. -1.
        -13    1    4    4    0    0  0.17457262187E+02  0.28965666429E+00  0.31505401308E+02  0.36020013599E+02  0.10566000000E+00 0.  1.
        -14    1    4    4    0    0  0.50657955330E+00 -0.16247131482E+00  0.71122590950E+00  0.88817907333E+00  0.00000000000E+00 0.  1.
<mgrwt>
<rscale>  0 0.81812940E+02</rscale>
<asrwt>0</asrwt>
<pdfrwt beam="1">  1        2 0.21579370E-01 0.81812940E+02</pdfrwt>
<pdfrwt beam="2">  1       -1 0.18353484E-02 0.81812940E+02</pdfrwt>
<totfact> 0.18471168E+05</totfact>
</mgrwt>
</event>
<event>
 8    1  0.2676873E-020  0.7930037E+02  0.7818608E-02  0.1331049E+00
         -1   -1    0    0    0  501 -0.00000000000E+00  0.00000000000E+00  0.61857537880E+02  0.61857538085E+02  0.50400000000E-02 0.  1.
          2   -1    0    0  501    0  0.00000000000E+00 -0.00000000000E+00 -0.25415449256E+02  0.25415449384E+02  0.25500000000E-02 0. -1.
         24    2    1    2    0    0  0.00000000000E+00  0.00000000000E+00  0.36442088624E+02  0.87272987470E+02  0.79300368969E+02 0.  0.
         66    2    3    3    0    0 -0.34555614601E+02 -0.58590512865E+01 -0.21113589379E+01  0.35169259529E+02  0.19999992079E+01 0.  0.
        -13    1    3    3    0    0  0.34555614601E+02  0.58590512865E+01  0.38553447562E+02  0.52103727941E+02  0.10566000000E+00 0.  1.
         13    1    4    4    0    0 -0.15830166942E+02 -0.34389574303E+01 -0.90360602972E+00  0.16224927782E+02  0.10566000000E+00 0. -1.
        -13    1    4    4    0    0 -0.22978106109E+01 -0.19915341544E+00  0.13617596361E+00  0.23128561596E+01  0.10566000000E+00 0.  1.
         14    1    4    4    0    0 -0.16427637047E+02 -0.22209404408E+01 -0.13439288718E+01  0.16631475587E+02  0.00000000000E+00 0. -1.
<mgrwt>
<rscale>  0 0.79300369E+02</rscale>
<asrwt>0</asrwt>
<pdfrwt beam="1">  1        2 0.39100691E-02 0.79300369E+02</pdfrwt>
<pdfrwt beam="2">  1       -1 0.95165444E-02 0.79300369E+02</pdfrwt>
<totfact> 0.13350046E+05</totfact>
</mgrwt>
</event>
<event>
 8    1  0.2676873E-020  0.8059882E+02  0.7818608E-02  0.1327361E+00
         -1   -1    0    0    0  501 -0.00000000000E+00  0.00000000000E+00  0.69620448621E+02  0.69620448804E+02  0.50400000000E-02 0.  1.
          2   -1    0    0  501    0  0.00000000000E+00 -0.00000000000E+00 -0.23327090516E+02  0.23327090655E+02  0.25500000000E-02 0. -1.
         24    2    1    2    0    0  0.00000000000E+00  0.00000000000E+00  0.46293358105E+02  0.92947539459E+02  0.80598821870E+02 0.  0.
         66    2    3    3    0    0  0.20274194189E+02 -0.32463516488E+02  0.87059078442E+01  0.39302871188E+02  0.19999998716E+01 0.  0.
        -13    1    3    3    0    0 -0.20274194189E+02  0.32463516488E+02  0.37587450261E+02  0.53644668271E+02  0.10566000000E+00 0.  1.
         13    1    4    4    0    0  0.11350172718E+02 -0.18722433056E+02  0.50660653670E+01  0.22472919316E+02  0.10566000000E+00 0.  1.
        -13    1    4    4    0    0  0.67781331607E+01 -0.10925192051E+02  0.24051207735E+01  0.13080469428E+02  0.10566000000E+00 0. -1.
        -14    1    4    4    0    0  0.21458883101E+01 -0.28158913808E+01  0.12347217038E+01  0.37494824435E+01  0.00000000000E+00 0.  1.
<mgrwt>
<rscale>  0 0.80598822E+02</rscale>
<asrwt>0</asrwt>
<pdfrwt beam="1">  1        2 0.35887832E-02 0.80598822E+02</pdfrwt>
<pdfrwt beam="2">  1       -1 0.10710838E-01 0.80598822E+02</pdfrwt>
<totfact> 0.12534980E+05</totfact>
</mgrwt>
</event>
<event>
 8    1  0.2676873E-020  0.8047204E+02  0.7818608E-02  0.1327717E+00
         -1   -1    0    0    0  501 -0.00000000000E+00  0.00000000000E+00  0.31226384620E+03  0.31226384624E+03  0.50400000000E-02 0.  1.
          2   -1    0    0  501    0  0.00000000000E+00 -0.00000000000E+00 -0.51845172869E+01  0.51845179140E+01  0.25500000000E-02 0. -1.
         24    2    1    2    0    0  0.17763568394E-14  0.00000000000E+00  0.30707932891E+03  0.31744836415E+03  0.80472042715E+02 0.  0.
         66    2    3    3    0    0 -0.12607581240E+02 -0.35570302358E+02  0.98868586546E+02  0.10584514604E+03  0.20000051134E+01 0.  0.
        -13    1    3    3    0    0  0.12607581240E+02  0.35570302358E+02  0.20821074237E+03  0.21160321811E+03  0.10566000000E+00 0.  1.
         13    1    4    4    0    0 -0.17021510638E+01 -0.31924476336E+01  0.94679760034E+01  0.10136211017E+02  0.10566000000E+00 0. -1.
        -13    1    4    4    0    0 -0.55368927487E+01 -0.15500544182E+02  0.43495348370E+02  0.46505704437E+02  0.10566000000E+00 0.  1.
        -14    1    4    4    0    0 -0.53685374276E+01 -0.16877310542E+02  0.45905262172E+02  0.49203230588E+02  0.00000000000E+00 0.  1.
<mgrwt>
<rscale>  0 0.80472043E+02</rscale>
<asrwt>0</asrwt>
<pdfrwt beam="1">  1        2 0.79761798E-03 0.80472043E+02</pdfrwt>
<pdfrwt beam="2">  1       -1 0.48040599E-01 0.80472043E+02</pdfrwt>
<totfact> 0.83744424E+04</totfact>
</mgrwt>
</event>
<event>
 8    1  0.2676873E-020  0.8023936E+02  0.7818608E-02  0.1328374E+00
         -1   -1    0    0    0  501 -0.00000000000E+00  0.00000000000E+00  0.10865723654E+02  0.10865724823E+02  0.50400000000E-02 0.  1.
          2   -1    0    0  501    0  0.00000000000E+00 -0.00000000000E+00 -0.14813450318E+03  0.14813450320E+03  0.25500000000E-02 0. -1.
         24    2    1    2    0    0  0.00000000000E+00  0.35527136788E-14 -0.13726877952E+03  0.15900022802E+03  0.80239358665E+02 0.  0.
         66    2    3    3    0    0  0.15274553890E+02 -0.24582780243E+02 -0.12366188167E+03  0.12701923501E+03  0.20000004787E+01 0.  0.
        -13    1    3    3    0    0 -0.15274553890E+02  0.24582780243E+02 -0.13606897851E+02  0.31980993014E+02  0.10566000000E+00 0.  1.
         13    1    4    4    0    0  0.55991206602E+01 -0.95147907125E+01 -0.49415844686E+02  0.50634161043E+02  0.10566000000E+00 0. -1.
        -13    1    4    4    0    0  0.43118810243E+01 -0.78530031921E+01 -0.37299689649E+02  0.38360656786E+02  0.10566000000E+00 0.  1.
        -14    1    4    4    0    0  0.53635522058E+01 -0.72149863386E+01 -0.36946347336E+02  0.38024417177E+02  0.00000000000E+00 0.  1.
<mgrwt>
<rscale>  0 0.80239359E+02</rscale>
<asrwt>0</asrwt>
<pdfrwt beam="1">  1        2 0.22789922E-01 0.80239359E+02</pdfrwt>
<pdfrwt beam="2">  1       -1 0.16716500E-02 0.80239359E+02</pdfrwt>
<totfact> 0.19791968E+05</totfact>
</mgrwt>
</event>
<event>
 8    1  0.2676873E-020  0.8061736E+02  0.7818608E-02  0.1327309E+00
          2   -1    0    0  501    0  0.00000000000E+00  0.00000000000E+00  0.30300483215E+03  0.30300483216E+03  0.25500000000E-02 0. -1.
         -1   -1    0    0    0  501 -0.00000000000E+00 -0.00000000000E+00 -0.53622553869E+01  0.53622577555E+01  0.50400000000E-02 0.  1.
         24    2    1    2    0    0  0.00000000000E+00  0.00000000000E+00  0.29764257676E+03  0.30836708992E+03  0.80617359429E+02 0.  0.
         66    2    3    3    0    0  0.34754524487E+02  0.29780695229E+01  0.22598934799E+03  0.22867429082E+03  0.20000014724E+01 0.  0.
        -13    1    3    3    0    0 -0.34754524487E+02 -0.29780695229E+01  0.71653228772E+02  0.79692799097E+02  0.10566000000E+00 0.  1.
         13    1    4    4    0    0  0.24244853286E+02  0.20850780922E+01  0.15676316170E+03  0.15864066469E+03  0.10566000000E+00 0. -1.
        -13    1    4    4    0    0  0.31686735129E+00  0.19563325467E+00  0.26156021376E+01  0.26440907448E+01  0.10566000000E+00 0. -1.
         14    1    4    4    0    0  0.10192803850E+02  0.69735817602E+00  0.66610584153E+02  0.67389535389E+02  0.00000000000E+00 0. -1.
<mgrwt>
<rscale>  0 0.80617359E+02</rscale>
<asrwt>0</asrwt>
<pdfrwt beam="1">  1        2 0.46616139E-01 0.80617359E+02</pdfrwt>
<pdfrwt beam="2">  1       -1 0.82496235E-03 0.80617359E+02</pdfrwt>
<totfact> 0.25075980E+05</totfact>
</mgrwt>
</event>
<event>
 8    1  0.2676873E-020  0.7985600E+02  0.7818608E-02  0.1329461E+00
          2   -1    0    0  501    0  0.00000000000E+00  0.00000000000E+00  0.85148285821E+02  0.85148285859E+02  0.25500000000E-02 0. -1.
         -1   -1    0    0    0  501 -0.00000000000E+00 -0.00000000000E+00 -0.18723162900E+02  0.18723163578E+02  0.50400000000E-02 0.  1.
         24    2    1    2    0    0 -0.22204460493E-15 -0.17763568394E-14  0.66425122921E+02  0.10387144944E+03  0.79856001985E+02 0.  0.
         66    2    3    3    0    0  0.12285213751E+01  0.11036601987E+02  0.83085998822E+02  0.83848667463E+02  0.19999967240E+01 0.  0.
        -13    1    3    3    0    0 -0.12285213751E+01 -0.11036601987E+02 -0.16660875901E+02  0.20022781974E+02  0.10566000000E+00 0.  1.
         13    1    4    4    0    0  0.41829683498E+00  0.16686589795E+01  0.12590317400E+02  0.12707739818E+02  0.10566000000E+00 0. -1.
        -13    1    4    4    0    0  0.77006468615E+00  0.91094827733E+01  0.69825758216E+02  0.70421753390E+02  0.10566000000E+00 0.  1.
        -14    1    4    4    0    0  0.40159854016E-01  0.25846023401E+00  0.66992320585E+00  0.71917425439E+00  0.00000000000E+00 0.  1.
<mgrwt>
<rscale>  0 0.79856002E+02</rscale>
<asrwt>0</asrwt>
<pdfrwt beam="1">  1        2 0.13099736E-01 0.79856002E+02</pdfrwt>
<pdfrwt beam="2">  1       -1 0.28804867E-02 0.79856002E+02</pdfrwt>
<totfact> 0.17051069E+05</totfact>
</mgrwt>
</event>
<event>
 8    1  0.2676873E-020  0.7660994E+02  0.7818608E-02  0.1338957E+00
          2   -1    0    0  501    0  0.00000000000E+00  0.00000000000E+00  0.57386786130E+02  0.57386786187E+02  0.25500000000E-02 0. -1.
         -1   -1    0    0    0  501 -0.00000000000E+00 -0.00000000000E+00 -0.25568090523E+02  0.25568091020E+02  0.50400000000E-02 0.  1.
         24    2    1    2    0    0  0.00000000000E+00 -0.55511151231E-16  0.31818695607E+02  0.82954877207E+02  0.76609935793E+02 0.  0.
         66    2    3    3    0    0  0.32499737527E+02 -0.14678339471E+00  0.37819166936E+02  0.49905349148E+02  0.20000002816E+01 0.  0.
        -13    1    3    3    0    0 -0.32499737527E+02  0.14678339471E+00 -0.60004713292E+01  0.33049528059E+02  0.10566000000E+00 0.  1.
         13    1    4    4    0    0  0.99443575215E+01 -0.56161330410E+00  0.12475457055E+02  0.15964142595E+02  0.10566000000E+00 0. -1.
        -13    1    4    4    0    0  0.34976318586E+00 -0.17775699203E-01  0.37252782003E+00  0.52210274273E+00  0.10566000000E+00 0. -1.
        -14    1    4    4    0    0  0.22205616820E+02  0.43260560859E+00  0.24971182061E+02  0.33419103811E+02  0.00000000000E+00 0.  1.
<mgrwt>
<rscale>  0 0.76609936E+02</rscale>
<asrwt>0</asrwt>
<pdfrwt beam="1">  1        2 0.88287363E-02 0.76609936E+02</pdfrwt>
<pdfrwt beam="2">  1       -1 0.39335524E-02 0.76609936E+02</pdfrwt>
<totfact> 0.17331714E+05</totfact>
</mgrwt>
</event>
<event>
 8    1  0.2676873E-020  0.8267881E+02  0.7818608E-02  0.1321617E+00
         -1   -1    0    0    0  501 -0.00000000000E+00  0.00000000000E+00  0.39738274411E+02  0.39738274731E+02  0.50400000000E-02 0.  1.
          2   -1    0    0  501    0  0.00000000000E+00 -0.00000000000E+00 -0.43005048577E+02  0.43005048652E+02  0.25500000000E-02 0. -1.
         24    2    1    2    0    0 -0.17763568394E-14 -0.22204460493E-15 -0.32667741655E+01  0.82743323383E+02  0.82678810774E+02 0.  0.
         66    2    3    3    0    0  0.15106781833E+02 -0.13383107909E+01 -0.40095245718E+02  0.42914270996E+02  0.19999982168E+01 0.  0.
        -13    1    3    3    0    0 -0.15106781833E+02  0.13383107909E+01  0.36828471552E+02  0.39829052387E+02  0.10566000000E+00 0.  1.
         13    1    4    4    0    0  0.34984156628E+01 -0.34633365718E+00 -0.91016040607E+01  0.97575211844E+01  0.10566000000E+00 0. -1.
        -13    1    4    4    0    0  0.68784590542E+01  0.10415154018E+00 -0.19568804920E+02  0.20743031035E+02  0.10566000000E+00 0.  1.
         14    1    4    4    0    0  0.47299071158E+01 -0.10961286739E+01 -0.11424836737E+02  0.12413718776E+02  0.00000000000E+00 0. -1.
<mgrwt>
<rscale>  0 0.82678811E+02</rscale>
<asrwt>0</asrwt>
<pdfrwt beam="1">  1        2 0.66161614E-02 0.82678811E+02</pdfrwt>
<pdfrwt beam="2">  1       -1 0.61135807E-02 0.82678811E+02</pdfrwt>
<totfact> 0.13212142E+05</totfact>
</mgrwt>
</event>
<event>
 8    1  0.2676873E-020  0.7746707E+02  0.7818608E-02  0.1336397E+00
         -1   -1    0    0    0  501 -0.00000000000E+00  0.00000000000E+00  0.12044569831E+03  0.12044569842E+03  0.50400000000E-02 0.  1.
          2   -1    0    0  501    0  0.00000000000E+00 -0.00000000000E+00 -0.12456124062E+02  0.12456124323E+02  0.25500000000E-02 0. -1.
         24    2    1    2    0    0 -0.17763568394E-14  0.00000000000E+00  0.10798957425E+03  0.13290182274E+03  0.77467066169E+02 0.  0.
         66    2    3    3    0    0 -0.14886010373E+02  0.34522032824E+02  0.38221373690E+02  0.53649207461E+02  0.19999998195E+01 0.  0.
        -13    1    3    3    0    0  0.14886010373E+02 -0.34522032824E+02  0.69768200559E+02  0.79252615278E+02  0.10566000000E+00 0.  1.
         13    1    4    4    0    0 -0.46780807646E+01  0.92390190823E+01  0.10299219467E+02  0.14605786487E+02  0.10566000000E+00 0. -1.
        -13    1    4    4    0    0 -0.31559469691E+01  0.88263698501E+01  0.90542886664E+01  0.13032885839E+02  0.10566000000E+00 0.  1.
         14    1    4    4    0    0 -0.70519826392E+01  0.16456643892E+02  0.18867865557E+02  0.26010535135E+02  0.00000000000E+00 0. -1.
<mgrwt>
<rscale>  0 0.77467066E+02</rscale>
<asrwt>0</asrwt>
<pdfrwt beam="1">  1        2 0.19163269E-02 0.77467066E+02</pdfrwt>
<pdfrwt beam="2">  1       -1 0.18530107E-01 0.77467066E+02</pdfrwt>
<totfact> 0.12331346E+05</totfact>
</mgrwt>
</event>
<event>
 8    1  0.2676873E-020  0.7992330E+02  0.7818608E-02  0.1329269E+00
         -1   -1    0    0    0  501 -0.00000000000E+00  0.00000000000E+00  0.41635210186E+01  0.41635240691E+01  0.50400000000E-02 0.  1.
          2   -1    0    0  501    0  0.00000000000E+00 -0.00000000000E+00 -0.38355348930E+03  0.38355348931E+03  0.25500000000E-02 0. -1.
         24    2    1    2    0    0  0.35527136788E-14 -0.35527136788E-14 -0.37938996828E+03  0.38771701338E+03  0.79923303422E+02 0.  0.
         66    2    3    3    0    0 -0.19528525086E+02  0.27380121370E+02 -0.29429771986E+03  0.29621982083E+03  0.20000001686E+01 0.  0.
        -13    1    3    3    0    0  0.19528525086E+02 -0.27380121370E+02 -0.85092248423E+02  0.91497192547E+02  0.10566000000E+00 0.  1.
         13    1    4    4    0    0 -0.15967880455E+02  0.22706253937E+02 -0.24812196676E+03  0.24966991955E+03  0.10566000000E+00 0. -1.
        -13    1    4    4    0    0 -0.14613166991E+01  0.19986961674E+01 -0.18052560926E+02  0.18221864693E+02  0.10566000000E+00 0.  1.
         14    1    4    4    0    0 -0.20993279313E+01  0.26751712659E+01 -0.28123192176E+02  0.28328036593E+02  0.00000000000E+00 0. -1.
<mgrwt>
<rscale>  0 0.79923303E+02</rscale>
<asrwt>0</asrwt>
<pdfrwt beam="1">  1        2 0.59008201E-01 0.79923303E+02</pdfrwt>
<pdfrwt beam="2">  1       -1 0.64054224E-03 0.79923303E+02</pdfrwt>
<totfact> 0.27909657E+05</totfact>
</mgrwt>
</event>
<event>
 8    1  0.2676873E-020  0.7838088E+02  0.7818608E-02  0.1333710E+00
          2   -1    0    0  501    0  0.00000000000E+00  0.00000000000E+00  0.24307270859E+03  0.24307270860E+03  0.25500000000E-02 0. -1.
         -1   -1    0    0    0  501 -0.00000000000E+00 -0.00000000000E+00 -0.63186453122E+01  0.63186473223E+01  0.50400000000E-02 0.  1.
         24    2    1    2    0    0  0.71054273576E-14  0.00000000000E+00  0.23675406328E+03  0.24939135593E+03  0.78380877336E+02 0.  0.
         66    2    3    3    0    0 -0.39122015135E+02 -0.16705593838E+01  0.11606709831E+03  0.12251079195E+03  0.19999995050E+01 0.  0.
        -13    1    3    3    0    0  0.39122015135E+02  0.16705593838E+01  0.12068696497E+03  0.12688056398E+03  0.10566000000E+00 0.  1.
         13    1    4    4    0    0 -0.33848659182E+02 -0.18905627117E+01  0.10125369682E+03  0.10677840718E+03  0.10566000000E+00 0. -1.
        -13    1    4    4    0    0 -0.28847713530E+01  0.22801914151E+00  0.86809275119E+01  0.91511510200E+01  0.10566000000E+00 0.  1.
         14    1    4    4    0    0 -0.23885845994E+01 -0.80158135907E-02  0.61324739761E+01  0.65812337528E+01  0.00000000000E+00 0. -1.
<mgrwt>
<rscale>  0 0.78380877E+02</rscale>
<asrwt>0</asrwt>
<pdfrwt beam="1">  1        2 0.37395799E-01 0.78380877E+02</pdfrwt>
<pdfrwt beam="2">  1       -1 0.97209949E-03 0.78380877E+02</pdfrwt>
<totfact> 0.24933780E+05</totfact>
</mgrwt>
</event>
<event>
 8    1  0.2676873E-020  0.7936823E+02  0.7818608E-02  0.1330854E+00
          2   -1    0    0  501    0  0.00000000000E+00  0.00000000000E+00  0.23528978210E+02  0.23528978349E+02  0.25500000000E-02 0. -1.
         -1   -1    0    0    0  501 -0.00000000000E+00 -0.00000000000E+00 -0.66931458549E+02  0.66931458739E+02  0.50400000000E-02 0.  1.
         24    2    1    2    0    0 -0.17763568394E-14  0.00000000000E+00 -0.43402480339E+02  0.90460437088E+02  0.79368226505E+02 0.  0.
         66    2    3    3    0    0 -0.12902107556E+02  0.37427466836E+02 -0.19031287391E+02  0.43971235515E+02  0.19999999641E+01 0.  0.
        -13    1    3    3    0    0  0.12902107556E+02 -0.37427466836E+02 -0.24371192948E+02  0.46489201573E+02  0.10566000000E+00 0.  1.
         13    1    4    4    0    0 -0.64269215016E+01  0.16573424174E+02 -0.84199127999E+01  0.19669514595E+02  0.10566000000E+00 0. -1.
        -13    1    4    4    0    0 -0.70985583888E+00  0.35239905106E+01 -0.16140939349E+01  0.39419370489E+01  0.10566000000E+00 0.  1.
         14    1    4    4    0    0 -0.57653302155E+01  0.17330052151E+02 -0.89972806558E+01  0.20359783871E+02  0.00000000000E+00 0. -1.
<mgrwt>
<rscale>  0 0.79368227E+02</rscale>
<asrwt>0</asrwt>
<pdfrwt beam="1">  1        2 0.36198428E-02 0.79368227E+02</pdfrwt>
<pdfrwt beam="2">  1       -1 0.10297147E-01 0.79368227E+02</pdfrwt>
<totfact> 0.13117765E+05</totfact>
</mgrwt>
</event>
<event>
 8    1  0.2676873E-020  0.7850831E+02  0.7818608E-02  0.1333339E+00
         -1   -1    0    0    0  501 -0.00000000000E+00  0.00000000000E+00  0.77877270325E+01  0.77877286634E+01  0.50400000000E-02 0.  1.
          2   -1    0    0  501    0  0.00000000000E+00 -0.00000000000E+00 -0.19786112606E+03  0.19786112608E+03  0.25500000000E-02 0. -1.
         24    2    1    2    0    0  0.22204460493E-15  0.71054273576E-14 -0.19007339903E+03  0.20564885474E+03  0.78508308082E+02 0.  0.
         66    2    3    3    0    0 -0.11194803272E+01 -0.38743009340E+02 -0.79248960203E+02  0.88242119781E+02  0.20000003184E+01 0.  0.
        -13    1    3    3    0    0  0.11194803272E+01  0.38743009340E+02 -0.11082443883E+03  0.11740673496E+03  0.10566000000E+00 0.  1.
         13    1    4    4    0    0 -0.21091260000E+00 -0.40330068588E+01 -0.74927841395E+01  0.85124970863E+01  0.10566000000E+00 0. -1.
        -13    1    4    4    0    0 -0.84658279355E+00 -0.20393669049E+02 -0.43693801993E+02  0.48226319954E+02  0.10566000000E+00 0.  1.
        -14    1    4    4    0    0 -0.61984933679E-01 -0.14316333432E+02 -0.28062374070E+02  0.31503302740E+02  0.00000000000E+00 0.  1.
<mgrwt>
<rscale>  0 0.78508308E+02</rscale>
<asrwt>0</asrwt>
<pdfrwt beam="1">  1        2 0.30440169E-01 0.78508308E+02</pdfrwt>
<pdfrwt beam="2">  1       -1 0.11981121E-02 0.78508308E+02</pdfrwt>
<totfact> 0.23094561E+05</totfact>
</mgrwt>
</event>
<event>
 8    1  0.2676873E-020  0.7976464E+02  0.7818608E-02  0.1329721E+00
          2   -1    0    0  501    0  0.00000000000E+00  0.00000000000E+00  0.26748015286E+01  0.26748027441E+01  0.25500000000E-02 0. -1.
         -1   -1    0    0    0  501 -0.00000000000E+00 -0.00000000000E+00 -0.59466063188E+03  0.59466063190E+03  0.50400000000E-02 0.  1.
         24    2    1    2    0    0  0.00000000000E+00  0.17763568394E-14 -0.59198583035E+03  0.59733543465E+03  0.79764642206E+02 0.  0.
         66    2    3    3    0    0  0.35114802530E+02  0.10845338875E+02 -0.41169041474E+03  0.41333239449E+03  0.20000034655E+01 0.  0.
        -13    1    3    3    0    0 -0.35114802530E+02 -0.10845338875E+02 -0.18029541562E+03  0.18400304016E+03  0.10566000000E+00 0.  1.
         13    1    4    4    0    0  0.75548918714E+01  0.21993718228E+01 -0.81011848473E+02  0.81393147038E+02  0.10566000000E+00 0. -1.
        -13    1    4    4    0    0  0.16239549542E+02  0.48706006949E+01 -0.19923528429E+03  0.19995538350E+03  0.10566000000E+00 0.  1.
        -14    1    4    4    0    0  0.11320361117E+02  0.37753663574E+01 -0.13144328198E+03  0.13198386395E+03  0.00000000000E+00 0.  1.
<mgrwt>
<rscale>  0 0.79764642E+02</rscale>
<asrwt>0</asrwt>
<pdfrwt beam="1">  1        2 0.41150850E-03 0.79764642E+02</pdfrwt>
<pdfrwt beam="2">  1       -1 0.91486146E-01 0.79764642E+02</pdfrwt>
<totfact> 0.59856595E+04</totfact>
</mgrwt>
</event>
<event>
 8    1  0.2676873E-020  0.8034201E+02  0.7818608E-02  0.1328084E+00
          2   -1    0    0  501    0  0.00000000000E+00  0.00000000000E+00  0.17002028170E+03  0.17002028172E+03  0.25500000000E-02 0. -1.
         -1   -1    0    0    0  501 -0.00000000000E+00 -0.00000000000E+00 -0.94912765324E+01  0.94912778706E+01  0.50400000000E-02 0.  1.
         24    2    1    2    0    0  0.71054273576E-14  0.00000000000E+00  0.16052900517E+03  0.17951155959E+03  0.80342009722E+02 0.  0.
         66    2    3    3    0    0 -0.37483548588E+02 -0.90772908312E+01  0.10522386827E+03  0.11208691310E+03  0.20000024985E+01 0.  0.
        -13    1    3    3    0    0  0.37483548588E+02  0.90772908312E+01  0.55305136895E+02  0.67424646492E+02  0.10566000000E+00 0.  1.
         13    1    4    4    0    0 -0.94488475886E+01 -0.23562353806E+01  0.26147611643E+02  0.27902353388E+02  0.10566000000E+00 0. -1.
        -13    1    4    4    0    0 -0.91873035731E+01 -0.15203391449E+01  0.24293212162E+02  0.26017096288E+02  0.10566000000E+00 0.  1.
        -14    1    4    4    0    0 -0.18847397426E+02 -0.52007163057E+01  0.54783044466E+02  0.58167463420E+02  0.00000000000E+00 0.  1.
<mgrwt>
<rscale>  0 0.80342010E+02</rscale>
<asrwt>0</asrwt>
<pdfrwt beam="1">  1        2 0.26156964E-01 0.80342010E+02</pdfrwt>
<pdfrwt beam="2">  1       -1 0.14601966E-02 0.80342010E+02</pdfrwt>
<totfact> 0.20635776E+05</totfact>
</mgrwt>
</event>
<event>
 8    1  0.2676873E-020  0.7995657E+02  0.7818608E-02  0.1329175E+00
          2   -1    0    0  501    0  0.00000000000E+00  0.00000000000E+00  0.60717943056E+03  0.60717943056E+03  0.25500000000E-02 0. -1.
         -1   -1    0    0    0  501 -0.00000000000E+00 -0.00000000000E+00 -0.26322723130E+01  0.26322771380E+01  0.50400000000E-02 0.  1.
         24    2    1    2    0    0  0.00000000000E+00  0.00000000000E+00  0.60454715824E+03  0.60981170770E+03  0.79956565130E+02 0.  0.
         66    2    3    3    0    0  0.60198124535E+01 -0.15603023113E+02  0.57919641187E+03  0.57944126190E+03  0.19999997484E+01 0.  0.
        -13    1    3    3    0    0 -0.60198124535E+01  0.15603023113E+02  0.25350746373E+02  0.30370445798E+02  0.10566000000E+00 0.  1.
         13    1    4    4    0    0  0.25047281201E+01 -0.65167524390E+01  0.23885068786E+03  0.23895272332E+03  0.10566000000E+00 0. -1.
        -13    1    4    4    0    0  0.25113879247E+01 -0.58751355196E+01  0.19812873377E+03  0.19823175980E+03  0.10566000000E+00 0.  1.
         14    1    4    4    0    0  0.10036964088E+01 -0.32111351542E+01  0.14221699024E+03  0.14225677878E+03  0.00000000000E+00 0. -1.
<mgrwt>
<rscale>  0 0.79956565E+02</rscale>
<asrwt>0</asrwt>
<pdfrwt beam="1">  1        2 0.93412337E-01 0.79956565E+02</pdfrwt>
<pdfrwt beam="2">  1       -1 0.40496484E-03 0.79956565E+02</pdfrwt>
<totfact> 0.32315179E+05</totfact>
</mgrwt>
</event>
<event>
 8    1  0.2676873E-020  0.7975452E+02  0.7818608E-02  0.1329750E+00
         -1   -1    0    0    0  501 -0.00000000000E+00  0.00000000000E+00  0.11525830247E+03  0.11525830258E+03  0.50400000000E-02 0.  1.
          2   -1    0    0  501    0  0.00000000000E+00 -0.00000000000E+00 -0.13796799298E+02  0.13796799533E+02  0.25500000000E-02 0. -1.
         24    2    1    2    0    0  0.00000000000E+00  0.71054273576E-14  0.10146150317E+03  0.12905510211E+03  0.79754515581E+02 0.  0.
         66    2    3    3    0    0 -0.11464399613E+02  0.29561719891E+02  0.11696187642E+02  0.33854520300E+02  0.19999994826E+01 0.  0.
        -13    1    3    3    0    0  0.11464399613E+02 -0.29561719891E+02  0.89765315531E+02  0.95200581815E+02  0.10566000000E+00 0.  1.
         13    1    4    4    0    0 -0.30223129833E+01  0.83166833773E+01  0.26953068669E+01  0.92508076031E+01  0.10566000000E+00 0. -1.
        -13    1    4    4    0    0 -0.40444592659E+01  0.11673946905E+02  0.44961874738E+01  0.13147834534E+02  0.10566000000E+00 0.  1.
        -14    1    4    4    0    0 -0.43976273642E+01  0.95710896089E+01  0.45046933013E+01  0.11455878163E+02  0.00000000000E+00 0.  1.
<mgrwt>
<rscale>  0 0.79754516E+02</rscale>
<asrwt>0</asrwt>
<pdfrwt beam="1">  1        2 0.21225845E-02 0.79754516E+02</pdfrwt>
<pdfrwt beam="2">  1       -1 0.17732047E-01 0.79754516E+02</pdfrwt>
<totfact> 0.11578026E+05</totfact>
</mgrwt>
</event>
<event>
 8    1  0.2676873E-020  0.7963131E+02  0.7818608E-02  0.1330101E+00
         -1   -1    0    0    0  501 -0.00000000000E+00  0.00000000000E+00  0.17684829989E+03  0.17684829996E+03  0.50400000000E-02 0.  1.
          2   -1    0    0  501    0  0.00000000000E+00 -0.00000000000E+00 -0.89641023886E+01  0.89641027513E+01  0.25500000000E-02 0. -1.
         24    2    1    2    0    0 -0.17763568394E-14  0.00000000000E+00  0.16788419750E+03  0.18581240271E+03  0.79631308110E+02 0.  0.
         66    2    3    3    0    0  0.99403358502E+01 -0.29485337511E+02  0.26124199550E+02  0.40677625392E+02  0.20000001010E+01 0.  0.
        -13    1    3    3    0    0 -0.99403358502E+01  0.29485337511E+02  0.14175999795E+03  0.14513477732E+03  0.10566000000E+00 0.  1.
         13    1    4    4    0    0  0.37300776287E+01 -0.13538272887E+02  0.11243571557E+02  0.17989646391E+02  0.10566000000E+00 0. -1.
        -13    1    4    4    0    0  0.31466660548E+01 -0.89350481967E+01  0.81262032241E+01  0.12481303474E+02  0.10566000000E+00 0.  1.
        -14    1    4    4    0    0  0.30635921668E+01 -0.70120164270E+01  0.67544247693E+01  0.10206675526E+02  0.00000000000E+00 0.  1.
<mgrwt>
<rscale>  0 0.79631308E+02</rscale>
<asrwt>0</asrwt>
<pdfrwt beam="1">  1        2 0.13790926E-02 0.79631308E+02</pdfrwt>
<pdfrwt beam="2">  1       -1 0.27207432E-01 0.79631308E+02</pdfrwt>
<totfact> 0.10445395E+05</totfact>
</mgrwt>
</event>
<event>
 8    1  0.2676873E-020  0.7933952E+02  0.7818608E-02  0.1330936E+00
         -1   -1    0    0    0  501 -0.00000000000E+00  0.00000000000E+00  0.28887921699E+02  0.28887922139E+02  0.50400000000E-02 0.  1.
          2   -1    0    0  501    0  0.00000000000E+00 -0.00000000000E+00 -0.54475702789E+02  0.54475702849E+02  0.25500000000E-02 0. -1.
         24    2    1    2    0    0 -0.17763568394E-14  0.00000000000E+00 -0.25587781090E+02  0.83363624987E+02  0.79339519975E+02 0.  0.
         66    2    3    3    0    0  0.94678797059E+01  0.38165388672E+02 -0.18102384994E+02  0.43335135666E+02  0.20000005292E+01 0.  0.
        -13    1    3    3    0    0 -0.94678797059E+01 -0.38165388672E+02 -0.74853960961E+01  0.40028489321E+02  0.10566000000E+00 0.  1.
         13    1    4    4    0    0  0.27935988122E+01  0.11849495803E+02 -0.61689009035E+01  0.13648488836E+02  0.10566000000E+00 0. -1.
        -13    1    4    4    0    0  0.16700249066E+01  0.79294366368E+01 -0.41253040150E+01  0.90936376560E+01  0.10566000000E+00 0.  1.
        -14    1    4    4    0    0  0.50042559871E+01  0.18386456232E+02 -0.78081800756E+01  0.20593009174E+02  0.00000000000E+00 0.  1.
<mgrwt>
<rscale>  0 0.79339520E+02</rscale>
<asrwt>0</asrwt>
<pdfrwt beam="1">  1        2 0.83808773E-02 0.79339520E+02</pdfrwt>
<pdfrwt beam="2">  1       -1 0.44442957E-02 0.79339520E+02</pdfrwt>
<totfact> 0.15576716E+05</totfact>
</mgrwt>
</event>
<event>
 8    1  0.2676873E-020  0.8813396E+02  0.7818608E-02  0.1307435E+00
         -1   -1    0    0    0  501 -0.00000000000E+00  0.00000000000E+00  0.23119364446E+01  0.23119419382E+01  0.50400000000E-02 0.  1.
          2   -1    0    0  501    0  0.00000000000E+00 -0.00000000000E+00 -0.83994362317E+03  0.83994362317E+03  0.25500000000E-02 0. -1.
         24    2    1    2    0    0  0.35527136788E-14  0.00000000000E+00 -0.83763168673E+03  0.84225556511E+03  0.88133956883E+02 0.  0.
         66    2    3    3    0    0  0.28762451762E+02  0.25340970291E+02 -0.62631091881E+03  0.62748610378E+03  0.20000008542E+01 0.  0.
        -13    1    3    3    0    0 -0.28762451762E+02 -0.25340970291E+02 -0.21132076791E+03  0.21476946133E+03  0.10566000000E+00 0.  1.
         13    1    4    4    0    0  0.17424425381E+01  0.17478647598E+01 -0.37412731406E+02  0.37494196518E+02  0.10566000000E+00 0. -1.
        -13    1    4    4    0    0  0.12968796033E+02  0.10309672311E+02 -0.26736424209E+03  0.26787707652E+03  0.10566000000E+00 0.  1.
        -14    1    4    4    0    0  0.14051213190E+02  0.13283433220E+02 -0.32153394532E+03  0.32211483074E+03  0.00000000000E+00 0.  1.
<mgrwt>
<rscale>  0 0.88133957E+02</rscale>
<asrwt>0</asrwt>
<pdfrwt beam="1">  1        2 0.12922185E+00 0.88133957E+02</pdfrwt>
<pdfrwt beam="2">  1       -1 0.35568362E-03 0.88133957E+02</pdfrwt>
<totfact> 0.26901072E+05</totfact>
</mgrwt>
</event>
<event>
 8    1  0.2676873E-020  0.8011231E+02  0.7818608E-02  0.1328733E+00
         -1   -1    0    0    0  501 -0.00000000000E+00  0.00000000000E+00  0.48872721236E+01  0.48872747223E+01  0.50400000000E-02 0.  1.
          2   -1    0    0  501    0  0.00000000000E+00 -0.00000000000E+00 -0.32830077249E+03  0.32830077250E+03  0.25500000000E-02 0. -1.
         24    2    1    2    0    0 -0.17763568394E-14  0.35527136788E-14 -0.32341350037E+03  0.33318804722E+03  0.80112312365E+02 0.  0.
         66    2    3    3    0    0 -0.90161987886E+01 -0.17489957514E+02 -0.30679521132E+03  0.30743209356E+03  0.20000012473E+01 0.  0.
        -13    1    3    3    0    0  0.90161987886E+01  0.17489957514E+02 -0.16618289048E+02  0.25755953668E+02  0.10566000000E+00 0.  1.
         13    1    4    4    0    0 -0.64412449904E-01 -0.52549225297E+00 -0.81481304493E+01  0.81659956482E+01  0.10566000000E+00 0. -1.
        -13    1    4    4    0    0 -0.35699422666E+01 -0.77977746894E+01 -0.12485028475E+03  0.12514453462E+03  0.10566000000E+00 0.  1.
         14    1    4    4    0    0 -0.53818440721E+01 -0.91666905712E+01 -0.17379679612E+03  0.17412156329E+03  0.00000000000E+00 0. -1.
<mgrwt>
<rscale>  0 0.80112312E+02</rscale>
<asrwt>0</asrwt>
<pdfrwt beam="1">  1        2 0.50507794E-01 0.80112312E+02</pdfrwt>
<pdfrwt beam="2">  1       -1 0.75188848E-03 0.80112312E+02</pdfrwt>
<totfact> 0.26241567E+05</totfact>
</mgrwt>
</event>
<event>
 8    1  0.2676873E-020  0.7659909E+02  0.7818608E-02  0.1338989E+00
         -1   -1    0    0    0  501 -0.00000000000E+00  0.00000000000E+00  0.63886456346E+01  0.63886476226E+01  0.50400000000E-02 0.  1.
          2   -1    0    0  501    0  0.00000000000E+00 -0.00000000000E+00 -0.22960344534E+03  0.22960344535E+03  0.25500000000E-02 0. -1.
         24    2    1    2    0    0  0.71054273576E-14  0.00000000000E+00 -0.22321479970E+03  0.23599209298E+03  0.76599093598E+02 0.  0.
         66    2    3    3    0    0 -0.35072449632E+02  0.13761006079E+02 -0.13244396303E+03  0.13771290919E+03  0.20000005688E+01 0.  0.
        -13    1    3    3    0    0  0.35072449632E+02 -0.13761006079E+02 -0.90770836676E+02  0.98279183790E+02  0.10566000000E+00 0.  1.
         13    1    4    4    0    0 -0.19579479013E+02  0.84102779821E+01 -0.74576884755E+02  0.77561663713E+02  0.10566000000E+00 0. -1.
        -13    1    4    4    0    0 -0.64917970597E+01  0.25669409412E+01 -0.25917188100E+02  0.26841095692E+02  0.10566000000E+00 0.  1.
        -14    1    4    4    0    0 -0.90011735593E+01  0.27837871562E+01 -0.31949890172E+02  0.33310149781E+02  0.00000000000E+00 0.  1.
<mgrwt>
<rscale>  0 0.76599094E+02</rscale>
<asrwt>0</asrwt>
<pdfrwt beam="1">  1        2 0.35323601E-01 0.76599094E+02</pdfrwt>
<pdfrwt beam="2">  1       -1 0.98286889E-03 0.76599094E+02</pdfrwt>
<totfact> 0.25953524E+05</totfact>
</mgrwt>
</event>
<event>
 8    1  0.2676873E-020  0.7584780E+02  0.7818608E-02  0.1341266E+00
          2   -1    0    0  501    0  0.00000000000E+00  0.00000000000E+00  0.49061419545E+02  0.49061419611E+02  0.25500000000E-02 0. -1.
         -1   -1    0    0    0  501 -0.00000000000E+00 -0.00000000000E+00 -0.29314726502E+02  0.29314726935E+02  0.50400000000E-02 0.  1.
         24    2    1    2    0    0  0.71054273576E-14  0.17763568394E-14  0.19746693043E+02  0.78376146547E+02  0.75847797999E+02 0.  0.
         66    2    3    3    0    0 -0.35393059228E+02  0.12494863831E+02  0.44685410892E+01  0.37851791464E+02  0.19999984660E+01 0.  0.
        -13    1    3    3    0    0  0.35393059228E+02 -0.12494863831E+02  0.15278151954E+02  0.40524355083E+02  0.10566000000E+00 0.  1.
         13    1    4    4    0    0 -0.96162007783E+01  0.39247765660E+01  0.15344636824E+01  0.10499568150E+02  0.10566000000E+00 0. -1.
        -13    1    4    4    0    0 -0.61836925271E+01  0.25100078226E+01  0.38729762947E+00  0.66857577004E+01  0.10566000000E+00 0.  1.
        -14    1    4    4    0    0 -0.19593165923E+02  0.60600794424E+01  0.25467797773E+01  0.20666465614E+02  0.00000000000E+00 0.  1.
<mgrwt>
<rscale>  0 0.75847798E+02</rscale>
<asrwt>0</asrwt>
<pdfrwt beam="1">  1        2 0.75479106E-02 0.75847798E+02</pdfrwt>
<pdfrwt beam="2">  1       -1 0.45099580E-02 0.75847798E+02</pdfrwt>
<totfact> 0.17213239E+05</totfact>
</mgrwt>
</event>
